LAMMPS data file via MDAnalysis

        2000  atoms
        1999  bonds
           0  angles
           0  dihedrals
           0  impropers

           1  atom types
           1  bond types
           0  angle types
           0  dihedral types
           0  improper types

-30.5 30.5 xlo xhi
-30.5 30.5 ylo yhi
-233.5 233.5 zlo zhi


Masses

1 1.000000

Atoms

1 0 1 10.424395 -16.913002 84.158081
2 0 1 9.484694 -16.720802 84.303802
3 0 1 8.615294 -16.361002 84.080994
4 0 1 7.882093 -16.147902 84.735596
5 0 1 7.122225 -16.549902 84.182892
6 0 1 6.809813 -16.182802 85.041290
7 0 1 6.320173 -16.974802 84.969482
8 0 1 6.188803 -17.410702 85.794006
9 0 1 5.852034 -18.233702 85.335693
10 0 1 6.007425 -19.148003 85.045807
11 0 1 5.200834 -19.507301 84.728699
12 0 1 4.685736 -19.798702 84.002106
13 0 1 4.417875 -20.628702 83.654999
14 0 1 4.056734 -20.529802 82.774506
15 0 1 3.312074 -20.266203 83.285706
16 0 1 2.867643 -19.989002 82.439301
17 0 1 2.675035 -19.413902 83.226105
18 0 1 1.740804 -19.462103 83.056610
19 0 1 0.928743 -19.934502 82.787994
20 0 1 0.470373 -20.690502 82.982605
21 0 1 0.453043 -21.524002 83.457703
22 0 1 0.106565 -22.101103 82.750702
23 0 1 -0.654677 -21.758701 82.283295
24 0 1 -0.600825 -20.873901 81.794312
25 0 1 -0.660204 -19.968903 81.478516
26 0 1 -1.347805 -19.837103 82.141296
27 0 1 -1.089285 -18.997402 81.819000
28 0 1 -1.607065 -18.187403 81.804382
29 0 1 -2.316612 -18.428202 81.219788
30 0 1 -1.888003 -19.244602 81.008606
31 0 1 -2.352898 -19.599003 80.264587
32 0 1 -1.755108 -19.043802 79.710693
33 0 1 -2.151869 -18.760502 78.768311
34 0 1 -2.485825 -19.684402 78.669800
35 0 1 -1.779282 -20.239202 78.431519
36 0 1 -1.327276 -20.730402 77.790710
37 0 1 -0.997345 -21.546001 77.413910
38 0 1 -1.317225 -21.654902 78.315796
39 0 1 -1.899576 -21.568102 79.026184
40 0 1 -2.600027 -21.778002 79.717896
41 0 1 -3.026148 -21.344803 80.462097
42 0 1 -2.453190 -22.082703 80.755981
43 0 1 -3.364554 -22.297703 80.948181
44 0 1 -4.155916 -22.419903 80.306213
45 0 1 -4.423826 -21.600903 79.862610
46 0 1 -5.075245 -21.051802 80.362091
47 0 1 -5.072716 -20.190002 79.929596
48 0 1 -5.814785 -20.192102 79.362396
49 0 1 -6.618885 -19.758001 79.721008
50 0 1 -6.586664 -18.919403 79.215088
51 0 1 -6.329405 -18.421902 78.399811
52 0 1 -5.988276 -17.847502 77.629608
53 0 1 -6.521046 -18.053802 76.876801
54 0 1 -5.938385 -18.780401 76.676208
55 0 1 -5.692715 -19.636902 76.306702
56 0 1 -5.004644 -19.326603 75.651489
57 0 1 -4.367765 -18.586502 75.794983
58 0 1 -4.471125 -17.744402 75.400085
59 0 1 -3.760935 -17.110802 75.678406
60 0 1 -4.059225 -17.022001 76.576996
61 0 1 -3.915745 -17.198603 77.528015
62 0 1 -4.467285 -16.520903 77.933990
63 0 1 -4.414675 -16.606903 78.876801
64 0 1 -3.645426 -16.836702 79.315613
65 0 1 -4.298105 -16.389402 79.890411
66 0 1 -4.169146 -16.014902 80.747986
67 0 1 -4.268845 -16.176903 81.707092
68 0 1 -5.060455 -16.521702 81.221405
69 0 1 -5.820385 -16.083403 80.850891
70 0 1 -5.374596 -15.828802 80.070496
71 0 1 -6.176325 -15.318401 79.818695
72 0 1 -6.959736 -15.963102 79.793213
73 0 1 -6.923326 -16.853903 80.286591
74 0 1 -6.941404 -16.895102 81.289001
75 0 1 -7.105085 -16.222103 81.912415
76 0 1 -6.337826 -15.605503 81.709595
77 0 1 -5.888784 -14.771002 81.801514
78 0 1 -6.871145 -14.647902 81.614105
79 0 1 -6.801294 -14.928303 80.725494
80 0 1 -6.845135 -13.928202 80.740204
81 0 1 -7.770515 -13.896103 80.536102
82 0 1 -8.021515 -14.753902 80.892700
83 0 1 -8.785255 -14.322403 80.434906
84 0 1 -9.213575 -13.453802 80.150909
85 0 1 -8.916265 -13.038103 79.284912
86 0 1 -9.597595 -13.680101 79.264587
87 0 1 -10.469656 -13.370401 79.425995
88 0 1 -10.011675 -12.612402 79.089417
89 0 1 -10.349585 -11.911503 78.443298
90 0 1 -9.933065 -11.288902 79.074890
91 0 1 -9.438856 -11.596003 79.834503
92 0 1 -9.285255 -11.081203 80.634583
93 0 1 -8.353876 -10.883402 80.341919
94 0 1 -8.197294 -10.599102 81.216492
95 0 1 -8.297966 -11.485202 81.449005
96 0 1 -8.471155 -11.883503 82.304688
97 0 1 -7.543554 -11.980103 82.380798
98 0 1 -6.819555 -11.343402 82.716187
99 0 1 -6.188705 -10.576202 82.877502
100 0 1 -5.966024 -9.563101 82.816803
101 0 1 -5.489426 -9.329903 82.059082
102 0 1 -4.692276 -9.756804 81.685211
103 0 1 -4.147585 -10.412502 82.103394
104 0 1 -4.803535 -10.771802 82.755615
105 0 1 -5.184755 -10.209402 83.496490
106 0 1 -4.381075 -9.751102 83.807190
107 0 1 -3.766806 -9.256702 83.245392
108 0 1 -2.925488 -8.754004 83.378418
109 0 1 -2.598341 -8.237703 84.190796
110 0 1 -2.138024 -8.006302 83.419189
111 0 1 -1.301396 -8.122702 83.119598
112 0 1 -0.500624 -8.626303 83.219788
113 0 1 0.409376 -8.201202 82.975494
114 0 1 0.028463 -7.875601 83.817596
115 0 1 0.031275 -7.048702 84.313293
116 0 1 0.518163 -7.697702 84.862701
117 0 1 1.116373 -6.958303 85.181885
118 0 1 1.998754 -7.260702 84.916016
119 0 1 2.463705 -6.893503 85.696411
120 0 1 2.370004 -6.111502 85.171082
121 0 1 2.021566 -5.230282 85.304108
122 0 1 1.286783 -5.866903 85.269104
123 0 1 0.765436 -6.104803 84.453491
124 0 1 0.155916 -5.624891 83.880493
125 0 1 -0.077204 -6.320002 83.224792
126 0 1 0.705694 -6.363401 82.708496
127 0 1 1.032293 -5.683283 82.106812
128 0 1 0.716894 -4.984562 81.507294
129 0 1 0.077566 -5.462042 81.087708
130 0 1 0.094145 -4.957891 80.293884
131 0 1 0.686735 -4.174551 80.559509
132 0 1 1.480684 -4.353462 79.936401
133 0 1 1.689516 -4.816381 79.052399
134 0 1 0.890234 -5.348822 79.173706
135 0 1 1.603575 -5.662912 78.431885
136 0 1 1.710966 -5.710081 77.465210
137 0 1 0.766126 -5.440973 77.221191
138 0 1 -0.085116 -5.515272 77.647888
139 0 1 -0.652846 -5.634684 76.949402
140 0 1 -0.928557 -4.774612 77.246307
141 0 1 -1.025595 -4.465332 76.339905
142 0 1 -1.480267 -4.674753 75.541687
143 0 1 -1.029825 -5.117361 74.781982
144 0 1 -1.282175 -5.774103 75.386200
145 0 1 -1.209425 -6.682302 75.311890
146 0 1 -1.021406 -7.602701 75.121307
147 0 1 -0.818686 -7.714003 76.107605
148 0 1 0.081205 -7.772602 75.715393
149 0 1 -0.382456 -8.627901 75.464294
150 0 1 -0.647757 -8.566801 74.544006
151 0 1 -0.466974 -9.307802 74.040283
152 0 1 -0.819834 -9.022102 73.226501
153 0 1 -1.729929 -9.222403 73.473297
154 0 1 -2.493572 -8.866003 73.029907
155 0 1 -2.891863 -8.422602 73.801910
156 0 1 -2.314152 -8.674002 74.520294
157 0 1 -2.518719 -9.221703 75.339294
158 0 1 -3.339579 -9.068003 75.812500
159 0 1 -4.029856 -9.027601 75.117706
160 0 1 -4.096516 -9.893602 74.713104
161 0 1 -5.061155 -9.777803 74.775391
162 0 1 -5.570595 -10.380202 74.242889
163 0 1 -5.749315 -11.277402 74.661407
164 0 1 -5.136196 -11.420902 75.354187
165 0 1 -4.207966 -11.231802 75.547607
166 0 1 -3.635756 -11.466402 74.793884
167 0 1 -2.950575 -12.143702 74.842102
168 0 1 -3.003107 -11.913202 73.916687
169 0 1 -2.336542 -12.542501 73.836914
170 0 1 -1.513140 -12.018702 73.760681
171 0 1 -2.158501 -11.424902 73.561401
172 0 1 -2.896160 -10.899002 73.924896
173 0 1 -2.996847 -9.996103 73.588318
174 0 1 -3.492186 -9.284903 73.173401
175 0 1 -4.345856 -8.876402 72.843597
176 0 1 -5.016985 -9.413603 72.490204
177 0 1 -5.518576 -10.280402 72.839508
178 0 1 -6.430975 -10.196901 73.142700
179 0 1 -7.384195 -10.358302 73.071594
180 0 1 -7.485216 -9.843603 73.843689
181 0 1 -8.058315 -9.295202 73.278107
182 0 1 -8.488575 -9.751001 74.014191
183 0 1 -8.309774 -10.234903 74.905396
184 0 1 -8.507885 -11.151002 75.056885
185 0 1 -8.924425 -11.194202 75.932617
186 0 1 -7.942415 -11.234002 76.309906
187 0 1 -7.539665 -10.609102 76.917603
188 0 1 -7.975756 -9.991802 77.482483
189 0 1 -8.738125 -10.622202 77.464294
190 0 1 -9.496405 -10.960102 77.858582
191 0 1 -9.624826 -11.368202 77.024292
192 0 1 -10.372425 -11.092503 76.568604
193 0 1 -10.503496 -10.202402 76.752808
194 0 1 -10.927296 -9.325403 77.041107
195 0 1 -11.342196 -8.798203 76.330811
196 0 1 -12.077604 -9.365503 76.684509
197 0 1 -12.791704 -9.913202 76.851593
198 0 1 -13.031706 -10.416102 77.691406
199 0 1 -13.866106 -10.512403 77.145508
200 0 1 -13.993605 -10.126204 76.325684
201 0 1 -13.430906 -9.427402 75.938507
202 0 1 -14.107004 -8.695704 75.913605
203 0 1 -14.269106 -8.129801 75.150391
204 0 1 -14.833506 -8.078703 74.379700
205 0 1 -14.026506 -7.618502 74.124207
206 0 1 -13.119205 -7.967001 74.077209
207 0 1 -12.576305 -7.641401 73.323914
208 0 1 -13.109005 -6.841703 73.109497
209 0 1 -13.388006 -6.676901 73.955109
210 0 1 -12.690207 -6.168102 74.392090
211 0 1 -12.526905 -5.278522 74.626709
212 0 1 -11.794355 -4.922163 75.261902
213 0 1 -11.625647 -4.607283 74.321411
214 0 1 -11.318485 -5.302412 73.759308
215 0 1 -11.786285 -5.621763 72.966614
216 0 1 -11.270987 -5.184822 72.235291
217 0 1 -10.762865 -5.908903 72.634216
218 0 1 -10.431465 -5.038292 72.856995
219 0 1 -9.500425 -5.068972 73.333099
220 0 1 -9.192196 -4.411531 72.694000
221 0 1 -9.422297 -3.419153 72.584717
222 0 1 -9.293756 -2.862652 73.329498
223 0 1 -8.568254 -2.374333 72.833191
224 0 1 -7.739056 -2.610583 72.313995
225 0 1 -7.511045 -2.345513 71.371582
226 0 1 -7.180836 -2.923521 70.679382
227 0 1 -6.477955 -2.747183 69.952301
228 0 1 -6.543766 -3.310692 69.135406
229 0 1 -7.490046 -3.224901 68.925903
230 0 1 -8.387035 -3.622214 68.773010
231 0 1 -8.226765 -3.564371 67.765900
232 0 1 -8.531166 -3.000042 67.034119
233 0 1 -8.215155 -2.034113 66.991302
234 0 1 -9.151566 -1.820282 66.847504
235 0 1 -9.411465 -1.979782 67.778381
236 0 1 -9.304636 -2.526333 68.520294
237 0 1 -10.126755 -2.090042 68.650391
238 0 1 -10.391895 -2.941153 69.025909
239 0 1 -10.866976 -3.725302 69.203705
240 0 1 -11.784254 -3.522393 68.939606
241 0 1 -12.554007 -2.966742 69.216003
242 0 1 -12.792105 -2.991852 68.275513
243 0 1 -13.428005 -3.711582 68.008606
244 0 1 -13.395805 -4.199192 68.886414
245 0 1 -12.619406 -4.743391 68.631592
246 0 1 -12.211004 -5.549402 68.913910
247 0 1 -11.508554 -6.233801 68.884399
248 0 1 -11.569256 -6.987402 68.238586
249 0 1 -11.505526 -7.869303 67.910217
250 0 1 -10.609535 -7.560701 67.775909
251 0 1 -9.973095 -6.884703 67.638611
252 0 1 -9.021364 -7.210901 67.641693
253 0 1 -8.947226 -8.163202 67.436218
254 0 1 -9.326485 -9.060301 67.549408
255 0 1 -9.398155 -8.720503 68.427185
256 0 1 -10.373045 -8.766203 68.694794
257 0 1 -10.402216 -9.590101 69.212189
258 0 1 -10.740725 -10.139002 69.919189
259 0 1 -11.198397 -10.478402 69.154907
260 0 1 -11.744785 -9.997902 68.500702
261 0 1 -11.560976 -10.733302 67.897003
262 0 1 -11.158205 -11.244302 67.203796
263 0 1 -10.260195 -11.222102 67.027100
264 0 1 -10.034115 -11.492302 67.999817
265 0 1 -10.007465 -10.584302 67.694305
266 0 1 -9.871105 -10.004503 66.861206
267 0 1 -9.677416 -9.515703 66.078186
268 0 1 -9.409056 -8.761003 65.649689
269 0 1 -8.501036 -9.036203 65.426514
270 0 1 -7.725296 -9.580103 65.520691
271 0 1 -6.933155 -9.167603 65.247192
272 0 1 -6.317825 -8.935301 64.524506
273 0 1 -6.519066 -8.015001 64.783295
274 0 1 -6.536505 -7.089703 64.479614
275 0 1 -6.129736 -7.226902 63.677185
276 0 1 -5.531836 -7.516203 63.006897
277 0 1 -6.161886 -7.172903 62.365295
278 0 1 -5.781145 -6.287302 62.388489
279 0 1 -6.420946 -6.371603 63.075806
280 0 1 -5.780895 -5.731623 63.478607
281 0 1 -4.895975 -5.934402 64.081482
282 0 1 -5.062136 -6.421202 63.299316
283 0 1 -4.581116 -6.024902 62.573090
284 0 1 -4.839325 -6.459902 61.751709
285 0 1 -4.625635 -7.336502 61.379211
286 0 1 -4.076654 -7.482002 60.586609
287 0 1 -4.273945 -7.955103 59.766785
288 0 1 -3.542725 -7.623802 59.195007
289 0 1 -2.959818 -8.153502 58.574005
290 0 1 -2.884415 -7.673101 57.670105
291 0 1 -2.107527 -7.477503 58.210388
292 0 1 -2.277420 -7.266401 59.193512
293 0 1 -2.292824 -6.820402 60.115906
294 0 1 -2.991120 -6.220602 60.621002
295 0 1 -3.522036 -6.595303 61.331604
296 0 1 -2.904585 -6.878302 62.017883
297 0 1 -2.535408 -7.505503 62.718689
298 0 1 -3.321419 -8.006502 62.576202
299 0 1 -2.640110 -8.571402 62.224091
300 0 1 -1.789767 -8.187403 62.529694
301 0 1 -0.995905 -8.206402 61.954498
302 0 1 -0.128466 -8.350603 62.320587
303 0 1 0.435735 -9.143702 62.317505
304 0 1 -0.336107 -9.708803 62.435303
305 0 1 -1.148976 -9.957802 62.835602
306 0 1 -1.289515 -10.892002 63.071198
307 0 1 -0.967495 -11.752703 62.966095
308 0 1 -1.262036 -12.343903 62.225006
309 0 1 -0.424025 -12.181602 61.824799
310 0 1 0.489595 -11.971003 61.476196
311 0 1 1.033705 -11.194002 61.484894
312 0 1 1.466844 -10.379703 61.147583
313 0 1 2.053785 -11.154303 61.186798
314 0 1 2.872114 -10.870102 60.765106
315 0 1 2.814924 -9.886503 60.564606
316 0 1 3.215143 -9.199402 61.143005
317 0 1 3.463453 -8.325701 60.634613
318 0 1 3.073644 -7.771803 59.984802
319 0 1 2.558843 -8.086203 59.175812
320 0 1 2.178293 -8.279501 60.003204
321 0 1 2.497713 -9.101202 59.561005
322 0 1 1.579115 -8.963602 59.846405
323 0 1 1.566335 -9.751602 59.310089
324 0 1 2.317716 -10.237803 59.222504
325 0 1 2.458456 -10.178602 58.261902
326 0 1 2.889456 -11.006602 58.276794
327 0 1 1.969755 -11.117702 58.413086
328 0 1 1.132395 -11.002603 58.005615
329 0 1 0.621366 -10.943603 58.864990
330 0 1 0.185255 -11.797602 58.535187
331 0 1 0.140733 -12.751402 58.423401
332 0 1 0.437544 -13.606503 58.518311
333 0 1 1.071264 -14.112402 58.961792
334 0 1 0.567045 -14.850302 58.565491
335 0 1 1.023916 -14.537102 57.755402
336 0 1 0.901785 -13.666203 57.424103
337 0 1 1.302866 -13.867802 56.587708
338 0 1 2.084173 -14.378101 56.713593
339 0 1 1.816694 -14.795803 55.952911
340 0 1 2.231344 -15.593302 55.615601
341 0 1 1.630316 -16.116003 56.174591
342 0 1 1.018583 -16.710901 55.748505
343 0 1 1.072675 -15.972803 55.117493
344 0 1 0.230993 -15.538202 55.154907
345 0 1 0.275583 -15.163603 54.251587
346 0 1 -0.484236 -15.648203 53.901398
347 0 1 -1.356886 -16.140902 53.784210
348 0 1 -1.732817 -15.758402 52.887787
349 0 1 -1.348356 -14.938103 52.581787
350 0 1 -1.588133 -14.649302 51.735107
351 0 1 -2.069929 -14.251001 52.402405
352 0 1 -2.119374 -13.358103 52.103088
353 0 1 -1.195536 -13.309902 52.476196
354 0 1 -1.015175 -13.264502 51.571991
355 0 1 -0.587595 -12.990202 50.678894
356 0 1 -1.020855 -12.346003 50.120697
357 0 1 -1.126436 -11.532803 50.621399
358 0 1 -0.545134 -10.952803 50.195892
359 0 1 0.428125 -10.822002 49.973907
360 0 1 0.677805 -11.053602 49.132996
361 0 1 0.462744 -10.268703 48.635010
362 0 1 -0.017046 -9.868902 49.402893
363 0 1 -0.778425 -9.312902 49.094696
364 0 1 -1.597309 -9.249403 48.425903
365 0 1 -1.439596 -9.859102 47.698914
366 0 1 -2.176441 -10.191202 47.215210
367 0 1 -2.984715 -10.636102 46.989410
368 0 1 -2.986496 -10.764802 47.927399
369 0 1 -2.462658 -11.394602 47.434296
370 0 1 -1.568226 -11.600602 47.160797
371 0 1 -1.234186 -12.021702 47.985291
372 0 1 -1.075836 -12.363503 48.927490
373 0 1 -0.218596 -12.716002 49.380188
374 0 1 0.253675 -13.406702 49.772888
375 0 1 0.544664 -14.092503 50.278900
376 0 1 -0.322897 -14.422503 50.122314
377 0 1 -1.181605 -14.790802 49.969299
378 0 1 -1.265175 -14.919102 49.055786
379 0 1 -2.134995 -14.673603 49.142883
380 0 1 -2.868731 -14.823202 49.730591
381 0 1 -3.464216 -14.234802 50.153198
382 0 1 -2.983227 -13.705103 49.541504
383 0 1 -3.136931 -14.184902 48.690186
384 0 1 -3.083525 -14.561401 47.778107
385 0 1 -3.196190 -13.661503 47.422211
386 0 1 -3.915545 -13.636602 46.710999
387 0 1 -3.835955 -12.694902 46.563293
388 0 1 -4.352995 -12.758102 45.765594
389 0 1 -4.829855 -13.671001 45.626892
390 0 1 -5.240955 -13.368103 46.432404
391 0 1 -5.263096 -14.305502 46.362610
392 0 1 -6.026316 -14.700302 45.904114
393 0 1 -6.798836 -15.295803 45.774902
394 0 1 -6.686396 -16.024101 46.355194
395 0 1 -7.318455 -15.460802 46.897003
396 0 1 -8.082775 -14.867601 46.938690
397 0 1 -8.188395 -15.524702 47.610809
398 0 1 -8.363356 -16.423403 47.549896
399 0 1 -8.059586 -17.299103 47.326111
400 0 1 -7.706875 -16.880302 48.168610
401 0 1 -7.059956 -16.741402 48.901398
402 0 1 -6.552135 -17.413103 48.398499
403 0 1 -6.280886 -17.878202 47.524902
404 0 1 -5.437435 -18.151503 47.151703
405 0 1 -5.302345 -17.234503 47.140808
406 0 1 -4.498446 -16.722502 46.967590
407 0 1 -4.280586 -16.747402 46.011505
408 0 1 -4.320875 -17.697302 45.963684
409 0 1 -4.033365 -18.533602 45.516510
410 0 1 -4.919365 -18.531202 45.129089
411 0 1 -4.894806 -19.458603 44.861389
412 0 1 -4.136606 -19.656702 44.291687
413 0 1 -4.098705 -20.584103 44.000000
414 0 1 -4.639015 -21.318903 44.258301
415 0 1 -5.563576 -21.142502 43.901794
416 0 1 -6.382706 -20.888203 44.424591
417 0 1 -6.624855 -21.574503 43.820099
418 0 1 -7.261375 -21.190802 43.195587
419 0 1 -7.814545 -21.598902 42.566895
420 0 1 -7.997866 -22.027002 43.407715
421 0 1 -8.194574 -22.249601 44.329590
422 0 1 -7.960085 -22.568802 45.202911
423 0 1 -8.183056 -21.582903 45.105988
424 0 1 -7.625765 -20.829502 44.751190
425 0 1 -7.287796 -20.137102 45.334991
426 0 1 -7.354546 -19.926601 46.244904
427 0 1 -7.078985 -20.730701 46.645294
428 0 1 -6.157955 -21.203901 46.742188
429 0 1 -6.699186 -21.400103 47.500305
430 0 1 -7.384176 -20.844803 47.843201
431 0 1 -7.261847 -19.954802 47.527008
432 0 1 -8.077656 -20.054302 46.944000
433 0 1 -8.938545 -20.125002 46.512512
434 0 1 -8.532915 -19.460302 46.008301
435 0 1 -8.546526 -18.444202 46.221313
436 0 1 -7.693575 -18.295502 45.761200
437 0 1 -8.142426 -17.778803 45.087494
438 0 1 -7.167046 -18.098202 44.861694
439 0 1 -6.792715 -18.853403 44.334412
440 0 1 -5.858875 -18.601702 44.353088
441 0 1 -5.673986 -18.570602 43.361298
442 0 1 -5.760286 -18.563103 42.412598
443 0 1 -6.692415 -18.306002 42.670593
444 0 1 -6.459776 -17.504402 42.204193
445 0 1 -7.244104 -17.017403 41.822815
446 0 1 -8.082935 -17.314802 41.391785
447 0 1 -8.938955 -16.951101 41.646484
448 0 1 -8.856386 -16.940502 40.667389
449 0 1 -8.385515 -17.699303 40.382385
450 0 1 -8.025846 -18.400303 39.780396
451 0 1 -8.182726 -18.565601 38.859894
452 0 1 -7.490906 -18.313103 38.313110
453 0 1 -6.791016 -18.973902 38.206299
454 0 1 -6.072245 -18.734802 37.709198
455 0 1 -5.943605 -17.743603 37.586395
456 0 1 -6.169525 -16.923502 37.163513
457 0 1 -5.568865 -16.186102 37.260712
458 0 1 -4.827326 -15.727201 37.539001
459 0 1 -5.580826 -15.292103 38.060486
460 0 1 -4.872665 -14.745802 38.295898
461 0 1 -4.143246 -14.229403 38.614594
462 0 1 -3.359734 -14.600603 39.101013
463 0 1 -2.665856 -14.401901 39.791992
464 0 1 -1.960119 -13.826502 39.459106
465 0 1 -2.421608 -14.167002 38.672394
466 0 1 -1.640785 -13.540903 38.481903
467 0 1 -1.881394 -12.858501 39.081787
468 0 1 -1.957388 -11.810902 39.133484
469 0 1 -1.093285 -12.244303 39.051697
470 0 1 -0.740034 -11.443402 39.369507
471 0 1 -0.110296 -11.880802 39.954102
472 0 1 0.101095 -10.963303 39.913208
473 0 1 -0.237936 -10.101202 40.194214
474 0 1 -0.605826 -10.286802 41.118896
475 0 1 0.123686 -10.677802 41.686707
476 0 1 0.715784 -10.383402 42.386108
477 0 1 1.344785 -9.749102 42.781494
478 0 1 1.124044 -8.962702 43.292786
479 0 1 0.171755 -9.101702 43.375397
480 0 1 -0.062094 -9.405401 44.329407
481 0 1 0.493723 -10.205902 44.103699
482 0 1 0.262144 -10.271603 45.029907
483 0 1 -0.789465 -10.417202 44.831787
484 0 1 -0.772887 -11.115003 45.631592
485 0 1 -0.715075 -11.597403 46.483795
486 0 1 -0.558096 -12.576702 46.271393
487 0 1 -0.324785 -13.238903 45.586304
488 0 1 -0.484286 -12.667303 44.802490
489 0 1 -0.664816 -11.910501 44.212708
490 0 1 -0.066706 -12.458702 43.704010
491 0 1 0.572794 -12.018402 43.190399
492 0 1 1.453073 -12.325703 42.947388
493 0 1 2.385465 -11.917902 43.286011
494 0 1 2.088526 -11.143803 43.817017
495 0 1 1.957144 -10.916602 42.910004
496 0 1 2.872896 -11.098202 42.869812
497 0 1 3.286806 -10.847403 43.836700
498 0 1 3.671465 -10.971502 44.753998
499 0 1 3.142065 -11.068102 45.554993
500 0 1 3.844045 -10.436202 45.651489
501 0 1 3.634954 -9.641302 45.142792
502 0 1 2.714586 -9.945602 45.126709
503 0 1 2.798563 -9.061302 44.815613
504 0 1 2.661886 -8.163403 45.241089
505 0 1 2.071436 -8.076803 44.467499
506 0 1 1.131204 -7.937702 44.668091
507 0 1 0.795866 -7.240801 44.098816
508 0 1 0.054075 -6.712503 44.536102
509 0 1 0.681303 -5.932302 44.457397
510 0 1 1.122213 -5.884001 45.269012
511 0 1 1.489813 -5.050442 45.138611
512 0 1 2.263376 -4.418531 45.175293
513 0 1 2.238306 -3.806631 45.925110
514 0 1 2.640115 -3.032793 46.325989
515 0 1 3.212705 -3.118332 45.549713
516 0 1 4.165304 -2.889273 45.166687
517 0 1 4.633745 -2.090412 44.888000
518 0 1 5.105345 -1.331063 45.192596
519 0 1 5.636774 -0.857443 44.398193
520 0 1 4.658453 -0.764551 44.280792
521 0 1 4.083166 -0.034102 43.821594
522 0 1 3.319185 0.314928 44.273895
523 0 1 3.949014 0.829027 44.820312
524 0 1 3.056444 0.942978 45.128387
525 0 1 3.209036 0.645397 45.983490
526 0 1 3.778085 -0.085982 45.666199
527 0 1 3.768743 -0.442852 46.604401
528 0 1 4.321646 -0.443823 47.416199
529 0 1 3.915716 -0.488573 48.307495
530 0 1 3.323614 -0.269324 47.589996
531 0 1 2.351145 -0.170782 47.834991
532 0 1 2.402494 -1.112353 47.715790
533 0 1 1.869234 -1.736033 47.371704
534 0 1 1.535013 -2.136482 48.179291
535 0 1 1.424616 -2.684702 48.979401
536 0 1 1.067804 -3.363632 49.571991
537 0 1 0.458246 -2.572102 49.421387
538 0 1 -0.200365 -2.979622 48.774689
539 0 1 -0.964085 -3.518063 49.111511
540 0 1 -1.186985 -3.683153 50.030609
541 0 1 -1.649134 -2.831553 49.720001
542 0 1 -1.390976 -2.725943 50.670197
543 0 1 -1.051035 -2.019942 51.178497
544 0 1 -0.531355 -1.159573 51.365784
545 0 1 -0.029207 -1.951283 51.099091
546 0 1 0.805364 -2.266003 51.513611
547 0 1 1.742334 -2.472662 51.457703
548 0 1 1.634516 -3.011242 52.243500
549 0 1 1.788934 -2.871802 53.180389
550 0 1 2.766596 -2.724531 53.274597
551 0 1 2.986814 -1.897642 52.816010
552 0 1 2.216215 -1.368332 52.554901
553 0 1 1.607546 -0.845873 52.000488
554 0 1 1.181036 -1.584923 52.396393
555 0 1 0.264013 -1.653202 52.614807
556 0 1 -0.334166 -2.312733 52.932587
557 0 1 -0.581446 -2.519572 53.856598
558 0 1 0.039606 -2.652672 54.551514
559 0 1 0.336645 -3.596392 54.547699
560 0 1 0.461645 -3.103232 55.410400
561 0 1 0.129564 -2.291483 55.931000
562 0 1 0.101904 -2.448483 56.949585
563 0 1 -0.694067 -2.715943 56.423492
564 0 1 -0.907374 -2.304333 57.258087
565 0 1 -0.991255 -1.992832 58.144897
566 0 1 -1.526493 -1.263163 58.419312
567 0 1 -1.032835 -0.530153 58.152496
568 0 1 -1.905218 -0.565973 57.744812
569 0 1 -2.291012 -0.263043 56.906006
570 0 1 -2.470091 -0.163483 56.017700
571 0 1 -3.005255 0.453787 55.555786
572 0 1 -3.720045 -0.016691 55.966614
573 0 1 -4.184385 0.741607 55.741302
574 0 1 -4.828615 0.111057 55.566284
575 0 1 -5.366495 -0.646181 55.733490
576 0 1 -5.549185 -1.638762 55.563507
577 0 1 -5.021275 -2.228962 55.056213
578 0 1 -5.590586 -2.925913 54.821106
579 0 1 -5.153126 -3.013882 55.672913
580 0 1 -4.439436 -3.534483 55.959991
581 0 1 -3.767287 -3.528862 56.706299
582 0 1 -3.650625 -2.769753 57.357391
583 0 1 -3.570296 -2.285013 58.171906
584 0 1 -4.072084 -1.606081 58.628510
585 0 1 -3.567755 -1.053541 59.210602
586 0 1 -2.575045 -0.918833 59.423798
587 0 1 -2.036301 -0.187012 59.002991
588 0 1 -2.068621 0.756798 59.273010
589 0 1 -2.268820 0.808157 58.369110
590 0 1 -2.665220 1.451158 57.875702
591 0 1 -3.552466 1.744127 58.160400
592 0 1 -3.450520 2.735847 57.857208
593 0 1 -3.167696 3.644661 57.841797
594 0 1 -3.561205 4.543386 57.750305
595 0 1 -3.197737 5.353888 58.117096
596 0 1 -3.355072 6.064409 57.402710
597 0 1 -2.930166 6.841349 57.906494
598 0 1 -2.596560 7.559259 57.352203
599 0 1 -1.942078 8.239428 57.527100
600 0 1 -1.654948 7.410700 58.056885
601 0 1 -1.036936 6.750616 57.902100
602 0 1 -0.214876 7.203547 58.215698
603 0 1 0.084825 6.525827 58.794800
604 0 1 -0.100954 5.522648 58.672913
605 0 1 -0.028845 4.707787 58.191101
606 0 1 0.038084 3.736236 57.941010
607 0 1 -0.756285 3.521105 57.489685
608 0 1 -0.220434 2.751547 57.348816
609 0 1 0.089605 2.395048 58.247314
610 0 1 -0.567526 1.722587 58.449707
611 0 1 -0.813376 2.702047 58.524689
612 0 1 -0.863844 3.665569 58.823486
613 0 1 -1.200346 4.169598 59.642883
614 0 1 -0.282297 3.887483 59.854309
615 0 1 0.389864 4.341572 59.334900
616 0 1 0.506613 4.629246 60.180603
617 0 1 0.679014 5.006519 61.064301
618 0 1 1.589773 4.935329 60.808197
619 0 1 1.632883 3.901598 60.766205
620 0 1 2.064382 3.587215 61.616608
621 0 1 2.420595 4.475971 61.961609
622 0 1 3.063524 3.851982 62.178009
623 0 1 3.851885 4.131538 61.782715
624 0 1 3.869364 3.380876 61.143616
625 0 1 3.667085 3.992807 60.317108
626 0 1 4.116476 4.811682 59.971497
627 0 1 3.828165 4.227028 59.251587
628 0 1 4.398634 3.491888 59.530884
629 0 1 4.898546 3.556490 58.702789
630 0 1 5.846083 3.585161 58.534912
631 0 1 5.927694 2.579578 58.669403
632 0 1 5.217943 2.669779 58.045715
633 0 1 4.501833 2.987087 57.550903
634 0 1 4.396814 2.939718 56.643402
635 0 1 4.616934 2.524578 55.821106
636 0 1 4.981356 2.218347 54.963501
637 0 1 4.316397 1.582668 55.185303
638 0 1 4.232996 1.862858 54.349915
639 0 1 4.012903 1.119537 53.717102
640 0 1 3.655405 0.462948 53.160400
641 0 1 3.849615 -0.448591 53.347504
642 0 1 3.062425 -0.496113 52.790802
643 0 1 2.250383 -0.332903 53.224304
644 0 1 2.773336 -0.787543 53.808289
645 0 1 3.378763 -1.251562 54.400513
646 0 1 3.670522 -0.390713 54.656006
647 0 1 4.348734 -0.738413 55.284088
648 0 1 5.245535 -0.581972 55.331116
649 0 1 5.672304 -0.922913 54.557892
650 0 1 5.645994 -1.858433 54.416412
651 0 1 5.006235 -2.591463 54.469696
652 0 1 4.696146 -1.860752 53.881012
653 0 1 5.551413 -1.767542 53.456909
654 0 1 6.432283 -2.027273 53.243408
655 0 1 6.901125 -2.443543 53.960083
656 0 1 7.838694 -2.306652 53.795593
657 0 1 8.830397 -2.373972 53.805115
658 0 1 9.558493 -1.858513 53.507904
659 0 1 9.847895 -2.789004 53.524200
660 0 1 10.224794 -2.533343 52.726410
661 0 1 10.935293 -2.427943 52.076813
662 0 1 10.520594 -2.876822 51.347504
663 0 1 10.201796 -3.524973 52.010315
664 0 1 10.729994 -3.813544 51.168396
665 0 1 11.464895 -4.410051 50.997192
666 0 1 11.750296 -5.320522 50.800995
667 0 1 12.557695 -5.485723 50.334412
668 0 1 12.005194 -6.274302 50.197998
669 0 1 12.682592 -6.807203 49.856201
670 0 1 13.377794 -6.502703 49.217804
671 0 1 13.967093 -7.219603 49.182007
672 0 1 13.764593 -7.982702 48.592102
673 0 1 14.397497 -7.568701 47.910095
674 0 1 13.690695 -7.289602 47.402191
675 0 1 13.538496 -8.059603 46.882904
676 0 1 12.760496 -7.799402 47.386597
677 0 1 12.081495 -7.631804 46.728302
678 0 1 11.697393 -7.408503 47.604004
679 0 1 11.140295 -7.133102 46.919189
680 0 1 10.302095 -7.576601 46.987396
681 0 1 10.247694 -7.090601 47.795197
682 0 1 10.366896 -6.292202 47.375092
683 0 1 10.773794 -5.446241 47.084717
684 0 1 10.586897 -4.515421 46.930389
685 0 1 10.058695 -4.387352 46.129395
686 0 1 9.393496 -3.682442 46.222900
687 0 1 10.129797 -3.463602 46.805298
688 0 1 10.190393 -2.819681 47.531494
689 0 1 9.918592 -3.486052 48.189514
690 0 1 9.368093 -3.636563 48.983398
691 0 1 10.141893 -3.625113 49.556488
692 0 1 10.196997 -2.696593 49.359497
693 0 1 9.619295 -2.017092 49.606689
694 0 1 10.352095 -1.417313 49.413696
695 0 1 10.852293 -1.239413 48.658813
696 0 1 10.403894 -0.693243 47.984314
697 0 1 9.553495 -0.247112 47.893188
698 0 1 9.330793 0.663378 48.082397
699 0 1 9.425596 0.862688 49.029388
700 0 1 10.399595 0.834978 49.278992
701 0 1 11.024893 0.166078 49.171204
702 0 1 11.904394 0.128618 49.575989
703 0 1 12.108095 0.788908 50.225586
704 0 1 12.531496 1.439398 49.649506
705 0 1 13.369196 1.329077 50.002411
706 0 1 13.339293 2.157737 50.511810
707 0 1 13.835493 2.730667 49.969116
708 0 1 13.851797 2.686907 48.980988
709 0 1 14.606092 2.943348 48.320801
710 0 1 14.536894 3.800447 47.838898
711 0 1 13.914995 3.817531 47.106598
712 0 1 14.493597 3.366287 46.480804
713 0 1 14.910894 3.912138 45.796600
714 0 1 15.876997 4.007326 45.919983
715 0 1 16.628096 4.523325 45.858093
716 0 1 16.600996 3.787319 45.170502
717 0 1 17.339697 3.304676 44.812988
718 0 1 17.733694 2.645828 45.435211
719 0 1 17.827192 2.711757 46.401611
720 0 1 17.368795 2.397377 47.182709
721 0 1 17.986296 1.751018 47.472107
722 0 1 18.230795 0.847807 47.227203
723 0 1 18.289995 0.544208 48.135986
724 0 1 18.378294 0.262197 49.071594
725 0 1 18.304094 1.210748 49.278992
726 0 1 19.109892 0.879427 49.639191
727 0 1 18.808493 1.183767 50.494110
728 0 1 19.495794 0.564947 50.847107
729 0 1 19.388094 0.653238 51.819794
730 0 1 18.499994 0.533727 52.138000
731 0 1 17.777197 1.165067 52.413300
732 0 1 17.085295 1.733858 52.083313
733 0 1 16.154097 2.009418 51.978790
734 0 1 16.330297 1.129337 51.621094
735 0 1 16.056997 0.559368 50.818298
736 0 1 16.802294 0.542278 50.257507
737 0 1 16.490694 0.758667 49.437592
738 0 1 16.439894 0.396778 48.600189
739 0 1 15.879492 0.450897 47.821503
740 0 1 15.114695 0.500238 47.299194
741 0 1 14.680395 0.670198 46.495911
742 0 1 15.568495 0.502878 46.255188
743 0 1 15.546392 1.459408 45.853302
744 0 1 16.513197 1.521778 45.770508
745 0 1 16.873995 0.981798 46.477295
746 0 1 17.695196 0.856268 45.945404
747 0 1 17.659094 -0.130152 45.542908
748 0 1 17.408995 -1.080412 45.487305
749 0 1 16.551794 -0.894903 45.938812
750 0 1 16.654593 -0.043213 45.372589
751 0 1 16.525595 0.388067 44.534393
752 0 1 16.003695 1.133497 44.333008
753 0 1 15.133696 1.385858 44.110809
754 0 1 15.295797 0.591678 43.603607
755 0 1 15.636095 1.208238 42.976105
756 0 1 16.187796 1.925577 42.582214
757 0 1 15.322996 1.714498 42.032013
758 0 1 14.527994 2.118778 41.757294
759 0 1 14.728994 2.736347 42.436798
760 0 1 14.179495 3.430982 42.012207
761 0 1 14.201895 3.821831 42.904114
762 0 1 14.960897 3.902607 43.477295
763 0 1 15.884394 3.889225 43.578705
764 0 1 15.695997 4.498833 44.294617
765 0 1 16.273596 5.245516 44.773987
766 0 1 15.846495 5.879549 44.091888
767 0 1 16.203093 6.458590 43.476593
768 0 1 16.886793 6.730219 42.835388
769 0 1 17.628794 6.569696 43.405212
770 0 1 17.214094 5.720478 43.483093
771 0 1 16.533895 4.997854 43.489807
772 0 1 16.365294 4.376791 42.736603
773 0 1 15.471792 3.984928 42.481201
774 0 1 15.605394 3.830984 41.570190
775 0 1 16.336897 3.998203 40.888306
776 0 1 16.506895 3.527899 40.092010
777 0 1 15.680792 3.947328 39.872192
778 0 1 15.910994 4.471130 39.038391
779 0 1 16.626593 3.805616 39.097595
780 0 1 16.528296 3.367204 38.211700
781 0 1 15.788397 3.018667 37.644104
782 0 1 15.727293 3.250854 36.705200