LAMMPS data file via MDAnalysis

        2000  atoms
        1999  bonds
           0  angles
           0  dihedrals
           0  impropers

           1  atom types
           1  bond types
           0  angle types
           0  dihedral types
           0  improper types

-30.5 30.5 xlo xhi
-30.5 30.5 ylo yhi
-233.5 233.5 zlo zhi


Masses

1 1.000000

Atoms

1 0 1 -0.856010 2.366996 42.118011
2 0 1 -0.263532 2.965697 42.681610
3 0 1 -0.830917 3.533896 43.228607
4 0 1 -0.838224 3.108496 44.100800
5 0 1 -0.646991 3.890998 44.601593
6 0 1 0.023243 3.509898 45.159912
7 0 1 0.938393 3.606696 45.101196
8 0 1 1.674063 3.060496 45.323212
9 0 1 2.478072 2.898795 44.897003
10 0 1 3.110274 2.467097 45.611511
11 0 1 2.573084 3.223998 45.891998
12 0 1 3.313372 3.846797 45.814514
13 0 1 4.162814 4.241797 46.002106
14 0 1 4.921404 4.146499 46.643890
15 0 1 4.904082 3.202498 46.936401
16 0 1 4.540133 2.923697 47.843201
17 0 1 3.783675 2.549197 48.246399
18 0 1 3.184195 2.952697 47.530701
19 0 1 2.295794 2.579299 47.841705
20 0 1 2.094801 3.122096 48.577515
21 0 1 1.236933 2.620398 48.639008
22 0 1 1.501303 1.811965 49.160400
23 0 1 1.032403 0.989638 49.074097
24 0 1 0.693263 0.630217 49.962189
25 0 1 0.593493 1.578067 49.966888
26 0 1 0.472653 1.470526 50.926697
27 0 1 1.203082 2.094695 50.833710
28 0 1 2.052985 2.474295 50.795898
29 0 1 2.318552 3.264796 50.374908
30 0 1 2.182303 4.013797 50.928589
31 0 1 2.085093 3.192595 51.470490
32 0 1 2.828902 2.684096 51.794495
33 0 1 3.665083 3.108298 51.930511
34 0 1 4.117194 3.622798 51.241089
35 0 1 4.581992 3.973899 50.503906
36 0 1 4.745055 3.916396 49.552002
37 0 1 5.696734 3.818999 49.523804
38 0 1 6.438933 3.713397 50.213593
39 0 1 6.707594 4.071799 51.089905
40 0 1 7.517054 3.640898 51.317810
41 0 1 8.346693 3.674399 50.864014
42 0 1 8.897783 2.949599 51.165100
43 0 1 9.769361 2.808696 51.658600
44 0 1 9.376013 1.970187 51.429688
45 0 1 8.512823 1.936187 51.954407
46 0 1 7.989241 1.916606 51.185303
47 0 1 7.936274 0.989218 51.453400
48 0 1 7.361704 0.630278 50.771790
49 0 1 6.525534 0.496794 50.243805
50 0 1 5.664553 0.145278 50.323486
51 0 1 5.614443 -0.137143 49.362000
52 0 1 5.589312 -1.116353 49.262604
53 0 1 5.658164 -1.523793 48.259888
54 0 1 6.414713 -1.002961 48.060608
55 0 1 6.728022 -1.372354 47.230103
56 0 1 6.572234 -1.122304 46.304901
57 0 1 6.308444 -1.706674 45.550415
58 0 1 5.542914 -1.365163 45.029602
59 0 1 6.007193 -2.161405 44.686798
60 0 1 5.383872 -2.285352 44.011810
61 0 1 4.667803 -2.852754 44.386993
62 0 1 5.148444 -3.090772 45.169189
63 0 1 4.215342 -3.392595 45.175201
64 0 1 4.482394 -4.210221 44.726990
65 0 1 4.992392 -4.501115 43.917786
66 0 1 4.067423 -4.554044 43.605286
67 0 1 3.614485 -5.341004 43.718201
68 0 1 3.236704 -6.200963 43.601196
69 0 1 4.058043 -6.463033 44.054199
70 0 1 3.692084 -6.695518 44.929108
71 0 1 2.765273 -6.375354 45.060608
72 0 1 2.930632 -6.496583 46.020599
73 0 1 3.567763 -5.832482 45.933502
74 0 1 2.989035 -5.630563 46.681702
75 0 1 2.693392 -5.428823 47.544189
76 0 1 3.609251 -5.070722 47.426300
77 0 1 4.144705 -4.246823 47.524200
78 0 1 5.044615 -4.220483 47.604797
79 0 1 4.662142 -3.371644 48.035095
80 0 1 5.486372 -3.163835 47.611389
81 0 1 6.112002 -3.837632 47.966888
82 0 1 6.403395 -4.695443 47.756714
83 0 1 6.440505 -4.726995 48.726196
84 0 1 7.097353 -4.040002 48.878906
85 0 1 7.247092 -3.058374 49.273987
86 0 1 7.739691 -2.978673 50.119507
87 0 1 8.367552 -2.930364 50.807892
88 0 1 7.914992 -3.155755 51.640015
89 0 1 6.994883 -3.101632 51.967285
90 0 1 7.033553 -2.637143 51.102997
91 0 1 7.206332 -1.843644 50.583984
92 0 1 6.649405 -1.152562 51.019409
93 0 1 6.684832 -0.446092 51.643097
94 0 1 6.126482 0.332518 51.509491
95 0 1 5.803015 1.068377 50.822815
96 0 1 6.164755 1.496676 51.594116
97 0 1 6.278964 1.663058 52.504517
98 0 1 5.745055 1.733058 53.305115
99 0 1 6.188544 2.615798 53.171814
100 0 1 5.939894 2.700598 54.090088
101 0 1 5.002882 2.412497 54.160004
102 0 1 4.684622 3.312995 54.388000
103 0 1 4.904624 3.217398 55.282410
104 0 1 4.873782 2.250846 55.337799
105 0 1 4.316832 1.388976 55.415100
106 0 1 3.896662 1.216376 54.570190
107 0 1 3.286612 0.509108 54.258209
108 0 1 2.601054 -0.106923 54.153412
109 0 1 3.045474 -0.651315 54.752197
110 0 1 3.257224 -0.397283 55.745483
111 0 1 2.946295 -1.090242 56.392883
112 0 1 3.543211 -1.734063 56.728088
113 0 1 3.816565 -1.579255 57.643097
114 0 1 3.250334 -2.128541 58.184204
115 0 1 3.630805 -3.061582 57.937805
116 0 1 2.997115 -3.677385 58.346497
117 0 1 3.121031 -3.326322 59.258301
118 0 1 3.388682 -3.246515 60.194214
119 0 1 3.401412 -4.230813 60.399597
120 0 1 4.235003 -4.508813 60.105103
121 0 1 4.269263 -4.609284 59.169708
122 0 1 5.134863 -4.935681 59.204193
123 0 1 5.239634 -4.206983 59.819489
124 0 1 5.854392 -4.930104 60.026184
125 0 1 6.007254 -5.884774 60.141205
126 0 1 6.103552 -5.701253 59.183807
127 0 1 6.785475 -5.078954 59.424500
128 0 1 7.252593 -4.801522 58.624298
129 0 1 7.818385 -4.079812 58.751892
130 0 1 8.329245 -4.745252 59.233887
131 0 1 8.784243 -5.574254 59.204590
132 0 1 8.555525 -6.391213 59.632202
133 0 1 8.751692 -6.306012 60.562683
134 0 1 8.202925 -5.598973 61.044800
135 0 1 7.789744 -4.605733 61.013184
136 0 1 8.395502 -3.987931 61.242889
137 0 1 8.916082 -4.481652 60.641113
138 0 1 9.478033 -4.992093 61.237793
139 0 1 10.399061 -4.662423 61.446991
140 0 1 10.288164 -5.034863 62.320007
141 0 1 10.383162 -5.041661 63.282898
142 0 1 11.237963 -5.228803 63.802307
143 0 1 10.675665 -4.575673 64.137817
144 0 1 9.780363 -4.703012 64.468018
145 0 1 9.251574 -4.299932 65.146484
146 0 1 9.800161 -3.514554 65.127991
147 0 1 8.918722 -3.268731 64.890503
148 0 1 8.756865 -3.283853 65.875183
149 0 1 9.011465 -2.418012 65.615784
150 0 1 8.146013 -2.238462 66.044189
151 0 1 8.815191 -2.141862 66.672089
152 0 1 8.854013 -1.451833 65.975708
153 0 1 9.717161 -1.407922 65.471100
154 0 1 9.843061 -0.840524 64.736511
155 0 1 9.559561 -0.859952 63.773010
156 0 1 9.657965 0.036498 64.148407
157 0 1 8.899725 -0.005674 63.596191
158 0 1 8.547041 0.292228 62.704285
159 0 1 8.897814 -0.666063 62.538696
160 0 1 7.925524 -0.699933 62.553406
161 0 1 7.066351 -1.041932 62.927887
162 0 1 6.715594 -0.874482 62.070709
163 0 1 5.950491 -0.790082 61.489807
164 0 1 5.478312 -0.261201 62.134003
165 0 1 6.039942 0.451106 62.478088
166 0 1 5.738795 0.680827 63.367889
167 0 1 4.831595 0.534617 63.518494
168 0 1 4.638571 -0.422303 63.480499
169 0 1 5.123053 -0.244073 64.290100
170 0 1 4.199732 -0.110044 64.490295
171 0 1 3.232615 -0.186235 64.466492
172 0 1 2.813693 0.155597 65.268188
173 0 1 1.890425 -0.099084 65.268311
174 0 1 2.369025 -0.548875 65.962585
175 0 1 2.755503 0.188659 66.411804
176 0 1 2.429095 1.067218 66.689911
177 0 1 1.939925 1.831977 67.038391
178 0 1 2.240183 2.718299 66.998505
179 0 1 1.559954 3.337397 67.385986
180 0 1 1.116724 3.560897 66.531982
181 0 1 0.884713 4.288898 65.959717
182 0 1 1.336062 4.615996 65.190796
183 0 1 0.986702 5.316997 65.750000
184 0 1 0.188763 4.941897 65.364197
185 0 1 0.007363 5.320697 64.450989
186 0 1 -0.115417 4.338195 64.514801
187 0 1 -0.783752 4.530196 63.876007
188 0 1 -1.053373 5.349296 63.500916
189 0 1 -0.314033 5.776797 62.993103
190 0 1 0.312888 6.380797 62.538788
191 0 1 1.062933 6.923198 62.409393
192 0 1 1.557753 7.751998 62.073090
193 0 1 1.712973 7.977996 61.104614
194 0 1 2.604784 8.159396 60.730713
195 0 1 2.400954 9.047896 61.125092
196 0 1 2.723105 9.628196 61.854889
197 0 1 3.069434 10.383399 61.427704
198 0 1 3.519354 11.263999 61.694305
199 0 1 3.389594 10.872497 62.582611
200 0 1 4.080412 10.415797 63.079193
201 0 1 3.799773 9.578795 63.583405
202 0 1 4.214903 9.394797 62.715393
203 0 1 4.629805 9.662299 61.865204
204 0 1 5.553004 9.906798 62.018005
205 0 1 5.713461 10.728995 62.534607
206 0 1 6.357733 10.843398 61.855011
207 0 1 6.328715 11.075500 60.955200
208 0 1 6.745284 11.683295 60.268890
209 0 1 6.735343 12.307998 59.531616
210 0 1 7.722243 12.160499 59.635193
211 0 1 7.324992 12.077498 58.760010
212 0 1 7.162665 12.652396 57.993286
213 0 1 6.453433 12.387595 57.388611
214 0 1 5.889853 12.370795 58.191193
215 0 1 5.174342 11.779696 58.082214
216 0 1 4.637454 12.410697 58.647888
217 0 1 4.942221 11.831199 59.268707
218 0 1 4.657053 11.425696 60.085510
219 0 1 4.293063 10.563197 60.373291
220 0 1 4.734702 9.953197 59.715607
221 0 1 4.014285 10.300300 59.171814
222 0 1 4.704901 10.072497 58.498993
223 0 1 3.943362 9.784598 58.091095
224 0 1 3.254961 9.110999 58.250000
225 0 1 3.290884 8.460498 58.968506
226 0 1 3.999045 7.723598 59.153595
227 0 1 4.461325 7.664397 60.031616
228 0 1 4.573283 6.764899 59.672913
229 0 1 4.911902 7.133796 58.838989
230 0 1 5.410212 7.844199 59.194611
231 0 1 6.386054 8.269397 59.011505
232 0 1 6.080283 8.343997 58.075195
233 0 1 5.954352 8.052199 57.169983
234 0 1 5.397223 8.240397 56.438812
235 0 1 4.550734 8.598395 56.091003
236 0 1 4.570315 8.670497 55.174988
237 0 1 4.152861 9.400996 54.639404
238 0 1 3.672682 8.629195 54.754608
239 0 1 3.284132 7.729198 54.644104
240 0 1 2.645693 7.108596 54.975800
241 0 1 1.842543 7.556396 54.920715
242 0 1 1.106532 8.148196 55.288208
243 0 1 0.365580 7.731795 54.977417
244 0 1 0.764143 7.034095 55.601593
245 0 1 0.962714 6.166999 55.969299
246 0 1 1.469695 6.664397 56.615601
247 0 1 1.110133 5.907596 57.081299
248 0 1 0.423466 5.227897 57.276489
249 0 1 -0.396043 4.748698 57.231812
250 0 1 -1.113191 5.295398 56.896698
251 0 1 -0.716554 5.064296 55.989594
252 0 1 -1.463817 4.476497 56.069397
253 0 1 -2.256826 4.059295 55.825500
254 0 1 -2.575998 3.110495 55.553101
255 0 1 -3.441337 2.904197 55.307312
256 0 1 -4.287576 2.493796 55.360413
257 0 1 -5.154647 2.363898 55.687988
258 0 1 -5.845346 2.768397 56.248108
259 0 1 -5.369356 2.218787 56.821411
260 0 1 -5.620157 1.430228 57.287811
261 0 1 -5.336626 0.896796 56.546509
262 0 1 -5.224428 0.316798 57.314697
263 0 1 -5.279016 -0.274533 57.985992
264 0 1 -4.777338 -1.061754 58.181091
265 0 1 -5.669336 -1.241822 58.631714
266 0 1 -5.661478 -2.140134 58.244202
267 0 1 -5.020437 -2.811815 58.310394
268 0 1 -4.535007 -3.160653 57.399597
269 0 1 -4.482168 -2.975972 56.483704
270 0 1 -5.372938 -3.376924 56.692108
271 0 1 -6.100526 -4.141564 56.534393
272 0 1 -6.062717 -4.754052 55.811584
273 0 1 -5.562927 -5.592313 55.575806
274 0 1 -6.003997 -5.385682 54.781311
275 0 1 -6.401838 -6.001752 54.199310
276 0 1 -7.268316 -6.210023 53.726410
277 0 1 -7.331766 -5.902081 54.668396
278 0 1 -7.999666 -6.633384 54.645691
279 0 1 -8.894136 -6.625934 54.852509
280 0 1 -8.863808 -7.383265 55.428894
281 0 1 -9.809446 -7.346871 55.302002
282 0 1 -9.654726 -6.856778 56.100006
283 0 1 -9.839167 -6.159703 55.523895
284 0 1 -9.097727 -5.515832 55.409302
285 0 1 -8.801626 -5.174584 54.584290
286 0 1 -8.796577 -4.346723 53.986298
287 0 1 -9.448957 -4.725701 53.347412
288 0 1 -10.305006 -4.432874 53.038788
289 0 1 -10.725838 -4.147084 53.819214
290 0 1 -11.268938 -4.705884 54.396606
291 0 1 -11.000837 -4.181481 55.130005
292 0 1 -11.291937 -3.653924 55.789398
293 0 1 -11.701338 -2.943673 56.354187
294 0 1 -12.311338 -2.263803 56.541290
295 0 1 -11.918037 -2.178415 57.422607
296 0 1 -12.843737 -2.327573 57.419312
297 0 1 -13.143637 -2.210172 58.346985
298 0 1 -12.238836 -2.530153 58.470001
299 0 1 -11.364637 -2.768762 58.095001
300 0 1 -11.538939 -3.329202 57.339996
301 0 1 -12.016539 -3.607042 58.155396
302 0 1 -11.746838 -4.239144 58.820190
303 0 1 -12.435837 -3.975251 59.516205
304 0 1 -12.147537 -4.787885 59.928009
305 0 1 -12.468737 -4.158921 60.620911
306 0 1 -12.779436 -3.299112 60.577911
307 0 1 -11.960138 -3.284013 60.199493
308 0 1 -11.026838 -3.721845 60.172913
309 0 1 -10.578938 -4.282891 60.899811
310 0 1 -10.543938 -3.486402 61.444214
311 0 1 -9.805948 -3.508043 62.016113
312 0 1 -10.096277 -4.441175 61.767395
313 0 1 -10.376738 -5.389493 61.888489
314 0 1 -10.514036 -6.011983 62.546387
315 0 1 -10.094427 -6.785726 62.882904
316 0 1 -9.592466 -7.527728 63.235687
317 0 1 -8.929178 -8.225987 63.255096
318 0 1 -9.487116 -8.990603 62.859497
319 0 1 -10.252916 -8.407592 62.978699
320 0 1 -10.066027 -8.415643 62.027191
321 0 1 -10.925638 -8.289329 61.677704
322 0 1 -11.540339 -8.367681 60.919891
323 0 1 -11.527536 -9.340903 61.234009
324 0 1 -12.476938 -9.320422 61.070099
325 0 1 -12.094736 -9.453343 60.220703
326 0 1 -12.776636 -10.146783 59.941711
327 0 1 -12.239538 -10.372773 59.163910
328 0 1 -12.352438 -10.002164 58.293884
329 0 1 -12.851837 -10.514234 57.659912
330 0 1 -13.228638 -11.368314 57.376007
331 0 1 -13.807938 -11.332864 56.640991
332 0 1 -13.535036 -10.766334 55.964508
333 0 1 -12.880238 -10.166512 55.570404
334 0 1 -12.085537 -9.918452 55.158600
335 0 1 -11.580736 -9.407063 55.770599
336 0 1 -10.803837 -9.691503 56.276489
337 0 1 -9.976896 -9.783584 55.813690
338 0 1 -9.929838 -10.371564 55.097687
339 0 1 -10.500437 -10.881963 54.525696
340 0 1 -10.204727 -11.231223 53.658905
341 0 1 -10.218367 -12.163154 53.460907
342 0 1 -9.745897 -12.284043 54.242401
343 0 1 -9.020557 -12.468003 53.579803
344 0 1 -8.537228 -12.746064 52.807587
345 0 1 -8.336126 -12.917123 51.867401
346 0 1 -8.888426 -12.150104 51.508392
347 0 1 -9.506166 -11.380683 51.634308
348 0 1 -10.295618 -10.836694 51.379303
349 0 1 -9.621067 -10.071362 51.329803
350 0 1 -9.718657 -10.450793 50.447906
351 0 1 -8.896847 -9.863093 50.528503
352 0 1 -7.908037 -9.846583 50.467590
353 0 1 -7.877847 -10.833722 50.198914
354 0 1 -7.780317 -10.601893 49.210297
355 0 1 -6.853897 -10.338202 48.791107
356 0 1 -6.528907 -9.798863 49.494690
357 0 1 -6.654827 -9.608024 50.423096
358 0 1 -6.880897 -8.730123 50.053192
359 0 1 -7.168706 -7.885526 50.394714
360 0 1 -7.150358 -7.091151 49.845001
361 0 1 -6.920307 -6.347043 50.361298
362 0 1 -6.858947 -6.252933 51.345703
363 0 1 -6.691127 -7.152448 51.020996
364 0 1 -5.957946 -7.003541 50.321503
365 0 1 -5.045377 -6.609153 50.534607
366 0 1 -4.951747 -7.119746 51.385010
367 0 1 -4.899076 -6.519673 52.129700
368 0 1 -4.206096 -6.149484 51.500610
369 0 1 -4.810096 -5.474282 51.832214
370 0 1 -3.936456 -5.266782 52.081207
371 0 1 -4.565477 -4.595754 52.146790
372 0 1 -5.164077 -4.379071 52.833496
373 0 1 -6.145467 -4.190103 53.041016
374 0 1 -6.931608 -3.616575 52.933807
375 0 1 -7.574466 -4.297421 52.757294
376 0 1 -8.108618 -3.646234 52.295288
377 0 1 -8.336727 -2.856023 52.707397
378 0 1 -8.821806 -2.132364 53.097198
379 0 1 -9.638268 -2.623922 52.963806
380 0 1 -9.807657 -2.570363 52.016205
381 0 1 -9.181887 -2.519433 51.318787
382 0 1 -9.645517 -1.750802 50.948914
383 0 1 -9.098238 -1.082261 51.234589
384 0 1 -9.565727 -0.278512 50.863007
385 0 1 -9.686697 0.455066 51.545410
386 0 1 -9.910368 1.045077 52.214691
387 0 1 -10.154997 1.899237 51.832886
388 0 1 -10.766438 1.841857 51.098297
389 0 1 -11.581236 1.995764 51.579285
390 0 1 -11.421236 2.475196 52.373199
391 0 1 -12.316637 2.629195 52.752411
392 0 1 -13.186438 2.744895 53.218689
393 0 1 -13.994837 3.153697 52.982208
394 0 1 -13.356937 3.636996 52.474091
395 0 1 -14.085537 4.209098 52.749603
396 0 1 -14.916838 4.461898 52.281006
397 0 1 -15.608237 4.150897 52.865692
398 0 1 -16.272137 4.060996 52.213684
399 0 1 -16.276037 3.308295 51.631012
400 0 1 -15.448137 3.271796 51.115906
401 0 1 -15.441737 2.291785 50.978088
402 0 1 -15.410137 1.555617 51.629517
403 0 1 -15.155837 0.677806 52.098816
404 0 1 -15.572038 0.220206 51.333893
405 0 1 -15.752337 0.842677 50.426788
406 0 1 -14.779837 0.632727 50.570801
407 0 1 -14.823736 -0.335405 50.456390
408 0 1 -14.253138 -1.075513 50.293884
409 0 1 -13.524939 -1.276803 49.667297
410 0 1 -13.148138 -1.944833 49.111603
411 0 1 -13.526737 -2.192682 48.251801
412 0 1 -13.044836 -2.978582 48.390015
413 0 1 -13.188837 -3.482984 47.533203
414 0 1 -12.387136 -2.984784 47.382111
415 0 1 -11.581839 -3.249994 46.980286
416 0 1 -10.796337 -2.717942 46.682098
417 0 1 -11.285137 -2.208894 47.392517
418 0 1 -11.377138 -1.271913 46.984711
419 0 1 -11.050238 -0.465322 47.418701
420 0 1 -11.916536 -0.697782 47.786102
421 0 1 -12.411337 -0.893983 46.997314
422 0 1 -13.385838 -0.722692 47.317291
423 0 1 -13.623438 0.041526 46.878784
424 0 1 -14.066837 0.179637 46.010406
425 0 1 -14.138638 0.895888 45.345215
426 0 1 -13.769136 1.432227 44.553711
427 0 1 -13.084639 0.942275 44.893616
428 0 1 -12.958738 1.369979 45.763306
429 0 1 -13.114838 2.089095 45.143890
430 0 1 -12.867537 2.369296 44.253387
431 0 1 -13.028536 3.198699 43.871887
432 0 1 -13.023138 4.036998 44.367798
433 0 1 -13.083738 3.770995 45.280884
434 0 1 -13.471636 4.709899 45.182892
435 0 1 -13.360437 5.426497 45.823914
436 0 1 -12.470938 5.032496 45.999603
437 0 1 -12.207237 5.474799 46.806610
438 0 1 -11.509638 6.053996 47.285309
439 0 1 -12.292437 6.648898 47.035400
440 0 1 -12.773438 7.426795 46.679810
441 0 1 -12.935537 7.344996 45.711395
442 0 1 -13.418938 7.749297 44.918884
443 0 1 -13.456636 8.516295 45.522583
444 0 1 -13.412037 8.750098 44.597198
445 0 1 -12.968039 8.040496 44.044708
446 0 1 -13.060537 8.928199 43.641785
447 0 1 -13.802938 8.300597 43.525299
448 0 1 -13.398539 7.426795 43.426086
449 0 1 -13.866737 7.538695 42.600311
450 0 1 -13.516737 6.973998 41.908508
451 0 1 -13.033037 7.026496 41.019409
452 0 1 -13.225538 7.099395 40.074005
453 0 1 -13.966036 6.644397 39.651489
454 0 1 -14.842138 6.564498 40.140900
455 0 1 -15.201138 5.966296 39.507111
456 0 1 -15.092437 6.372695 38.658203
457 0 1 -14.926138 5.467196 38.375183
458 0 1 -14.081636 5.621196 38.819885
459 0 1 -13.515139 4.896598 39.009796
460 0 1 -13.837038 4.459395 38.191498
461 0 1 -13.731937 4.940299 37.364288
462 0 1 -12.971636 5.135596 36.808105
463 0 1 -13.117937 6.071696 36.649994
464 0 1 -13.136137 6.438598 35.760193
465 0 1 -12.617537 6.181197 34.940704
466 0 1 -11.766037 5.765197 34.831390
467 0 1 -11.532438 6.677199 34.833405
468 0 1 -11.217138 7.373496 34.231384
469 0 1 -10.364996 7.797095 34.105408
470 0 1 -10.401148 7.003699 33.506409
471 0 1 -9.650717 6.961097 32.806091
472 0 1 -8.772337 7.264495 32.600189
473 0 1 -9.315058 8.055697 32.766907
474 0 1 -9.966837 8.706695 32.515900
475 0 1 -9.075266 9.167296 32.321991
476 0 1 -9.103598 9.896995 31.714388
477 0 1 -8.353558 9.954398 31.138613
478 0 1 -7.508346 10.424796 31.353792
479 0 1 -8.164997 10.527396 32.113708
480 0 1 -7.724147 10.114699 32.846008
481 0 1 -7.224847 9.538795 33.474304
482 0 1 -7.657278 9.551497 34.319000
483 0 1 -7.980247 9.508895 35.227295
484 0 1 -7.822647 9.056098 36.020996
485 0 1 -8.818296 9.226600 36.069702
486 0 1 -9.174597 9.798697 36.782715
487 0 1 -9.861128 9.141597 37.013489
488 0 1 -10.453138 9.180495 37.795807
489 0 1 -11.383638 9.300300 37.618286
490 0 1 -10.909037 9.536498 36.714417
491 0 1 -10.233917 10.093497 36.275696
492 0 1 -10.004808 10.347098 37.157501
493 0 1 -9.784727 11.085998 36.525909
494 0 1 -10.534637 11.062499 35.933716
495 0 1 -11.389437 10.949698 35.443298
496 0 1 -12.015537 10.224799 35.631805
497 0 1 -11.839838 10.580695 36.479309
498 0 1 -12.610737 10.668494 37.077789
499 0 1 -13.211937 11.383796 36.699097
500 0 1 -13.637838 10.909598 35.946899
501 0 1 -14.128437 11.418494 35.279297
502 0 1 -14.853838 10.891799 34.972900
503 0 1 -15.050337 10.362800 34.179901
504 0 1 -14.522738 9.702197 33.782501
505 0 1 -14.619837 10.126197 32.979492
506 0 1 -15.582137 10.006396 32.747711
507 0 1 -15.535537 10.169394 31.799990
508 0 1 -16.046837 10.582198 31.128908
509 0 1 -16.043037 10.855796 30.193117
510 0 1 -15.165537 11.082999 29.812899
511 0 1 -14.873037 10.308497 30.309114
512 0 1 -14.264137 10.626899 30.965517
513 0 1 -14.294937 9.821597 31.542299
514 0 1 -14.669336 9.170295 30.913515
515 0 1 -14.315836 8.313796 31.127504
516 0 1 -14.747837 7.518497 31.513399
517 0 1 -15.167937 7.529597 32.352692
518 0 1 -15.545737 7.306197 33.226105
519 0 1 -15.939238 6.532096 33.565308
520 0 1 -15.034337 6.475596 33.762909
521 0 1 -14.610638 5.661696 33.411804
522 0 1 -14.584538 6.014998 32.562805
523 0 1 -14.172838 6.726897 33.058716
524 0 1 -13.428637 7.091998 33.581696
525 0 1 -14.212236 7.717898 33.493896
526 0 1 -14.645937 8.348697 34.095886
527 0 1 -15.161237 7.864398 34.786194
528 0 1 -15.928638 8.495696 34.673309
529 0 1 -16.330437 7.786098 34.150391
530 0 1 -16.270037 8.179198 33.264801
531 0 1 -16.967638 8.844996 33.075500
532 0 1 -17.608337 8.787696 33.797699
533 0 1 -18.510538 9.020598 33.990204
534 0 1 -18.383038 9.355597 33.072815
535 0 1 -18.608038 10.193198 33.425201
536 0 1 -18.932938 10.614497 34.234985
537 0 1 -19.077436 11.500697 33.906403
538 0 1 -19.966238 11.752295 33.668213
539 0 1 -20.197037 11.354499 32.816010
540 0 1 -19.997738 10.906798 31.987612
541 0 1 -19.858738 11.605498 31.377901
542 0 1 -20.723337 11.956199 31.452517
543 0 1 -20.984737 12.698997 30.871492
544 0 1 -20.407137 12.735896 30.086214
545 0 1 -20.620737 11.844695 29.772890
546 0 1 -20.813337 12.333297 28.965914
547 0 1 -19.948936 12.826198 28.856508
548 0 1 -19.150436 12.996497 29.321810
549 0 1 -18.601236 12.556697 28.614107
550 0 1 -18.468237 11.623797 28.674288
551 0 1 -19.153236 10.993094 29.001711
552 0 1 -20.099638 11.156497 29.292299
553 0 1 -20.517838 11.525496 28.475496
554 0 1 -19.928038 11.649695 27.683016
555 0 1 -19.161938 11.435496 27.107698
556 0 1 -18.535936 10.883697 27.636599
557 0 1 -18.620438 10.224799 28.367189
558 0 1 -17.907337 9.585597 28.497805
559 0 1 -17.804737 8.786498 27.907503
560 0 1 -17.892237 7.819598 27.840395
561 0 1 -17.413437 7.182799 27.246096
562 0 1 -17.765738 6.586196 26.548006
563 0 1 -17.725838 5.750396 27.115694
564 0 1 -17.926838 5.186599 26.401796
565 0 1 -18.216436 5.284198 25.508791
566 0 1 -18.398237 5.076995 24.563601
567 0 1 -18.924837 5.008197 23.647799
568 0 1 -19.758636 4.983199 24.264101
569 0 1 -20.585737 4.762698 24.109987
570 0 1 -21.242638 5.417598 23.772890
571 0 1 -21.631638 5.422198 24.674410
572 0 1 -22.195038 5.606898 25.426790
573 0 1 -22.604437 4.705798 25.271303
574 0 1 -22.143938 3.822295 25.337587
575 0 1 -22.294138 3.153395 26.024904
576 0 1 -22.425537 2.226798 25.568789
577 0 1 -21.655336 1.613986 25.677004
578 0 1 -20.888638 1.005267 25.984407
579 0 1 -20.249138 1.115569 26.759798
580 0 1 -19.865938 1.182086 27.753298
581 0 1 -20.599136 0.480746 27.964205
582 0 1 -21.215338 0.040068 28.510103
583 0 1 -20.523537 -0.631894 28.373812
584 0 1 -21.375738 -1.006025 28.631105
585 0 1 -21.024036 -1.360833 29.529604
586 0 1 -21.727737 -2.091512 29.572512
587 0 1 -21.417738 -2.810682 30.104006
588 0 1 -20.827238 -2.581502 29.314211
589 0 1 -20.075237 -3.115243 29.608004
590 0 1 -20.262737 -3.912782 30.072695
591 0 1 -19.485437 -3.914853 30.656313
592 0 1 -19.008636 -4.586102 31.199495
593 0 1 -18.174337 -4.901422 30.984713
594 0 1 -18.180037 -5.857003 31.036501
595 0 1 -18.120037 -6.517533 30.380800
596 0 1 -17.432137 -7.150336 29.970797
597 0 1 -17.330236 -7.861716 29.405214
598 0 1 -16.361736 -7.797248 29.471590
599 0 1 -15.803237 -7.326722 28.700197
600 0 1 -15.647838 -6.427842 28.426607
601 0 1 -15.242937 -5.628873 28.183718
602 0 1 -15.951337 -5.654405 27.532595
603 0 1 -15.166038 -5.216203 27.126711
604 0 1 -14.852337 -4.845372 26.317598
605 0 1 -14.527739 -5.756192 26.165499
606 0 1 -13.755636 -6.260983 25.910311
607 0 1 -12.778936 -6.246564 25.839296
608 0 1 -11.929937 -6.146333 25.453005
609 0 1 -11.774939 -5.338552 24.910097
610 0 1 -10.826738 -5.455613 24.570314
611 0 1 -11.514637 -5.983941 24.067110
612 0 1 -11.918638 -5.442414 23.375002
613 0 1 -11.105337 -5.778852 23.056398
614 0 1 -11.052637 -6.676953 22.654299
615 0 1 -11.599836 -6.370513 21.943102
616 0 1 -12.211836 -7.014623 22.247698
617 0 1 -12.731037 -7.805257 22.118105
618 0 1 -13.581337 -7.905747 22.729097
619 0 1 -13.743036 -7.730741 23.635317
620 0 1 -14.066038 -7.237105 24.447603
621 0 1 -14.623037 -6.810000 23.717287
622 0 1 -14.744238 -6.896989 22.730196
623 0 1 -14.790237 -5.960671 22.514009
624 0 1 -15.626337 -5.422753 22.381899
625 0 1 -16.304237 -5.132512 22.988894
626 0 1 -15.631237 -4.408711 22.889101
627 0 1 -15.078637 -4.415074 22.082598
628 0 1 -15.437337 -4.752683 21.170198
629 0 1 -16.228937 -5.168714 20.831896
630 0 1 -16.176437 -5.345624 19.910402
631 0 1 -17.024637 -5.176595 19.490694
632 0 1 -16.779837 -5.789834 18.759401
633 0 1 -16.793238 -5.734982 17.798098
634 0 1 -17.421837 -5.094892 18.104006
635 0 1 -18.136137 -5.326062 17.467806
636 0 1 -18.746037 -4.602735 17.126696
637 0 1 -18.511238 -3.647195 16.835299
638 0 1 -18.961437 -3.436193 17.643496
639 0 1 -19.384737 -4.145452 18.111101
640 0 1 -19.443336 -4.782483 18.843401
641 0 1 -19.616837 -4.795964 19.777605
642 0 1 -19.994038 -3.920644 19.879503
643 0 1 -20.781237 -3.447503 20.062304
644 0 1 -21.416237 -4.196294 20.188707
645 0 1 -21.422337 -5.010705 20.790010
646 0 1 -21.517338 -5.331552 19.879000
647 0 1 -21.674738 -6.164594 19.481401
648 0 1 -21.933737 -7.065661 19.295504
649 0 1 -21.716337 -7.473668 18.452608
650 0 1 -21.697737 -8.432015 18.412004
651 0 1 -21.895138 -9.013803 19.129503
652 0 1 -21.747738 -9.851182 19.588808
653 0 1 -22.146738 -9.957603 20.460207
654 0 1 -22.234137 -10.881963 20.732897
655 0 1 -22.826937 -11.187383 21.468599
656 0 1 -23.252537 -11.829253 20.800600
657 0 1 -22.914436 -12.025533 19.943605
658 0 1 -22.092037 -12.649404 19.999407
659 0 1 -21.924637 -13.611604 19.751497
660 0 1 -22.363836 -14.442264 19.892794
661 0 1 -22.550737 -14.368363 18.975100
662 0 1 -21.732237 -14.115304 18.639299
663 0 1 -20.723436 -14.171952 18.676699
664 0 1 -19.800238 -14.022683 18.871599
665 0 1 -19.185038 -13.955903 19.561403
666 0 1 -18.804237 -13.101613 19.627306
667 0 1 -18.206537 -12.512574 19.392794
668 0 1 -18.141336 -11.634084 19.759508
669 0 1 -17.203438 -11.681363 19.868608
670 0 1 -16.481136 -12.343522 19.535997
671 0 1 -16.334637 -12.477994 18.611910
672 0 1 -15.527437 -12.799953 19.242495
673 0 1 -15.202437 -12.537324 20.069506
674 0 1 -14.378138 -11.923932 19.869005
675 0 1 -14.485037 -12.250274 18.977404
676 0 1 -13.571938 -12.000003 18.606798
677 0 1 -13.312838 -12.845784 18.655504
678 0 1 -12.832438 -13.585572 18.163897
679 0 1 -13.495638 -13.659673 17.504503
680 0 1 -14.062237 -14.427922 17.731600
681 0 1 -13.597239 -15.205243 17.915300
682 0 1 -12.914938 -15.201074 18.553194
683 0 1 -11.991737 -15.424344 18.740496
684 0 1 -11.310137 -15.138772 19.375597
685 0 1 -10.399508 -14.854053 19.432802
686 0 1 -10.083036 -15.571223 20.018999
687 0 1 -9.525087 -15.738503 20.808702
688 0 1 -9.721027 -16.317713 21.573397
689 0 1 -9.595448 -15.426913 21.875597
690 0 1 -9.445097 -15.768163 22.785097
691 0 1 -8.440907 -15.769292 22.744509
692 0 1 -7.703546 -15.074203 22.472307
693 0 1 -8.199318 -14.282872 22.268602
694 0 1 -7.475317 -14.443213 21.608797
695 0 1 -6.694406 -14.272304 21.001894
696 0 1 -6.912878 -14.403073 20.033998
697 0 1 -6.422367 -15.211404 20.173708
698 0 1 -5.553167 -15.633983 20.020205
699 0 1 -4.960546 -15.027383 19.533800
700 0 1 -4.599138 -14.387073 20.066195
701 0 1 -5.161317 -13.688943 19.740908
702 0 1 -5.686847 -13.012582 19.257006
703 0 1 -5.184726 -12.612683 19.937304
704 0 1 -4.304838 -12.331122 20.175798
705 0 1 -3.534767 -11.876313 20.538805
706 0 1 -2.570608 -12.083404 20.379610
707 0 1 -2.159906 -12.882012 20.695696
708 0 1 -2.255666 -12.551513 21.560305
709 0 1 -2.973146 -11.978444 21.909105
710 0 1 -2.449876 -11.165282 22.070498
711 0 1 -2.398077 -10.663163 21.257296
712 0 1 -2.400627 -10.123763 20.522905
713 0 1 -3.111236 -10.245553 19.861803
714 0 1 -3.043437 -9.493712 19.253496
715 0 1 -3.767997 -8.910832 19.368898
716 0 1 -4.079416 -8.321488 18.654696
717 0 1 -4.111557 -9.205113 18.236208
718 0 1 -4.124717 -9.879733 18.978701
719 0 1 -4.946256 -9.399774 19.186098
720 0 1 -5.505657 -8.603686 19.283602
721 0 1 -5.615816 -8.476090 20.218294
722 0 1 -6.239856 -9.244832 20.168200
723 0 1 -5.419187 -9.811883 20.150499
724 0 1 -5.668317 -10.564162 19.542299
725 0 1 -6.059686 -11.515203 19.499407
726 0 1 -6.805637 -11.595843 18.914797
727 0 1 -6.779367 -11.938853 18.027803
728 0 1 -7.764886 -11.608674 17.769197
729 0 1 -7.920257 -12.552873 17.810198
730 0 1 -8.404118 -12.240853 18.578508
731 0 1 -8.824556 -11.357114 18.891207
732 0 1 -7.954776 -11.488383 19.315798
733 0 1 -7.761266 -10.629594 19.786608
734 0 1 -7.749788 -9.689523 19.778505
735 0 1 -7.548297 -8.833034 19.382204
736 0 1 -7.679286 -8.146646 18.691500
737 0 1 -8.134907 -7.301616 18.821398
738 0 1 -8.321798 -6.471993 18.371798
739 0 1 -7.464597 -6.103833 18.039202
740 0 1 -7.842878 -6.431712 17.201799
741 0 1 -7.877347 -6.428344 16.256701
742 0 1 -7.102117 -5.944192 16.187197
743 0 1 -6.757207 -5.079133 16.449602
744 0 1 -6.041526 -4.546773 16.871004
745 0 1 -5.129577 -4.527764 16.413408
746 0 1 -5.727996 -4.115571 15.666109
747 0 1 -5.387308 -4.490182 14.871798
748 0 1 -4.718576 -3.807363 14.552401
749 0 1 -4.220426 -3.704332 13.801195
750 0 1 -4.064157 -3.314962 12.939501
751 0 1 -4.062707 -2.437604 13.411806
752 0 1 -4.305727 -1.870214 12.714205
753 0 1 -4.125127 -0.972364 12.820208
754 0 1 -3.793716 -0.286851 12.143404
755 0 1 -3.016006 0.251899 12.291597
756 0 1 -2.526826 0.665045 12.974504
757 0 1 -2.413366 1.630397 12.909609
758 0 1 -1.814617 2.098826 12.214708
759 0 1 -1.033372 1.763205 11.758501
760 0 1 -0.404672 1.924338 12.492495
761 0 1 0.222960 2.062526 11.797609
762 0 1 -0.052303 2.205077 10.851900
763 0 1 -0.633161 2.265536 10.021395
764 0 1 -1.492477 2.358798 9.561525
765 0 1 -1.134246 3.173198 9.995775
766 0 1 -1.368883 3.343898 9.068392
767 0 1 -2.263616 3.558997 8.678530
768 0 1 -2.939176 3.571997 9.330782
769 0 1 -3.822116 3.161296 9.139345
770 0 1 -3.448936 3.339297 8.194735
771 0 1 -3.325157 2.503196 7.796556
772 0 1 -2.395307 2.248328 7.716051
773 0 1 -2.497436 1.374797 8.219011
774 0 1 -2.530557 0.822436 7.321275
775 0 1 -1.843196 0.111438 7.009904
776 0 1 -2.579887 -0.499505 7.264467
777 0 1 -3.070217 -0.657964 6.469972
778 0 1 -3.829696 -0.302343 6.015520
779 0 1 -4.358407 -0.714654 5.409975
780 0 1 -3.608907 -0.760114 4.771638
781 0 1 -2.679887 -0.803102 4.543474
782 0 1 -3.269996 -0.747224 3.736635
783 0 1 -4.129747 -0.819333 3.403688
784 0 1 -4.664016 -0.034883 3.040498
785 0 1 -4.546846 0.219435 2.106294
786 0 1 -5.093446 0.873797 1.611223