LAMMPS data file via MDAnalysis

        2000  atoms
        1999  bonds
           0  angles
           0  dihedrals
           0  impropers

           1  atom types
           1  bond types
           0  angle types
           0  dihedral types
           0  improper types

-30.5 30.5 xlo xhi
-30.5 30.5 ylo yhi
-233.5 233.5 zlo zhi


Masses

1 1.000000

Atoms

1 0 1 26.158400 -9.134934 75.533691
2 0 1 25.249102 -9.332734 75.269501
3 0 1 25.378702 -8.984515 76.221405
4 0 1 25.726198 -8.179854 76.651001
5 0 1 25.591799 -7.638265 77.409302
6 0 1 25.403002 -7.209905 78.260193
7 0 1 24.945200 -8.055446 78.110413
8 0 1 25.580599 -8.160895 78.888702
9 0 1 25.749002 -9.185714 78.931519
10 0 1 24.969599 -8.981265 79.500092
11 0 1 24.196100 -9.557975 79.675293
12 0 1 23.465998 -9.774104 79.075012
13 0 1 23.399302 -8.862855 79.554810
14 0 1 23.025103 -7.972215 79.546509
15 0 1 23.553202 -7.455365 80.141205
16 0 1 23.290499 -6.770854 80.798889
17 0 1 23.085802 -7.015254 81.686310
18 0 1 22.113199 -7.030944 81.957214
19 0 1 21.442102 -7.696614 82.006714
20 0 1 21.609400 -8.630855 82.146393
21 0 1 20.958498 -9.331704 81.764282
22 0 1 21.003702 -9.630244 82.639099
23 0 1 21.434900 -10.096946 83.338806
24 0 1 21.135099 -10.097323 84.244598
25 0 1 20.846300 -10.969024 84.290802
26 0 1 20.277201 -11.736556 84.416016
27 0 1 19.549402 -11.628493 83.777283
28 0 1 18.985003 -12.008655 83.135101
29 0 1 18.490801 -11.875255 82.330383
30 0 1 18.122000 -11.467425 83.211700
31 0 1 17.348600 -10.900165 83.187805
32 0 1 17.157801 -11.489995 82.439911
33 0 1 17.191000 -12.394155 82.255707
34 0 1 17.303598 -13.199256 82.846191
35 0 1 18.010302 -13.581054 82.351501
36 0 1 18.554499 -13.755256 83.094391
37 0 1 17.912302 -14.393954 83.507690
38 0 1 17.983202 -14.621455 84.481110
39 0 1 18.868402 -14.427754 84.820618
40 0 1 19.628500 -14.668155 84.221802
41 0 1 19.669001 -15.384154 83.591003
42 0 1 19.052599 -14.747855 83.139893
43 0 1 19.836397 -14.351655 82.588318
44 0 1 20.783197 -14.165954 83.034393
45 0 1 21.553801 -13.580754 83.008301
46 0 1 21.661402 -13.325953 83.949493
47 0 1 21.576700 -12.573455 83.380707
48 0 1 22.329699 -12.417655 82.729797
49 0 1 21.986200 -12.251454 81.853607
50 0 1 21.511400 -11.977256 81.093903
51 0 1 21.362803 -12.934054 81.248108
52 0 1 22.112497 -12.965955 80.706482
53 0 1 22.767298 -12.841056 81.431396
54 0 1 22.935499 -13.658454 81.880188
55 0 1 22.986498 -13.270255 82.803009
56 0 1 23.323400 -14.149755 82.934296
57 0 1 24.010302 -13.503654 83.104492
58 0 1 24.854300 -13.847754 83.465088
59 0 1 25.536200 -14.070556 84.102692
60 0 1 26.303202 -13.645354 83.603699
61 0 1 25.674997 -12.950656 83.825989
62 0 1 25.490297 -13.183755 84.806213
63 0 1 25.568598 -12.262454 85.022095
64 0 1 26.246202 -12.123355 85.691589
65 0 1 26.634600 -11.229774 85.602295
66 0 1 27.380602 -10.616874 85.467896
67 0 1 27.774797 -9.763286 85.138000
68 0 1 27.327600 -8.903064 85.266205
69 0 1 26.687201 -9.641746 85.533997
70 0 1 26.039000 -9.588546 86.206696
71 0 1 25.258699 -9.025054 86.136292
72 0 1 25.536501 -8.289044 86.752808
73 0 1 24.889601 -7.711394 87.110718
74 0 1 25.555700 -7.634145 87.851501
75 0 1 24.905703 -7.379334 88.512817
76 0 1 25.193300 -6.876275 89.230896
77 0 1 24.170599 -6.978114 89.425995
78 0 1 24.446699 -6.373096 88.764191
79 0 1 23.711702 -5.782535 88.821289
80 0 1 24.389002 -5.573134 89.421600
81 0 1 25.354403 -5.736985 89.343018
82 0 1 25.959497 -6.198384 88.742615
83 0 1 26.430597 -5.595744 89.392303
84 0 1 26.262300 -4.871785 88.735413
85 0 1 27.015200 -4.278205 88.766113
86 0 1 27.292498 -3.746205 89.481689
87 0 1 27.834700 -3.693625 90.242004
88 0 1 28.220102 -3.008605 90.823608
89 0 1 27.391901 -3.467364 91.212097
90 0 1 28.117399 -3.734984 91.809387
91 0 1 27.420801 -4.366405 91.779999
92 0 1 26.588900 -4.686296 92.245483
93 0 1 26.965300 -4.825955 93.179504
94 0 1 27.834200 -4.653665 92.846893
95 0 1 28.011999 -4.754634 93.787109
96 0 1 27.462198 -5.012084 94.442505
97 0 1 27.960501 -5.204354 95.199493
98 0 1 28.917902 -5.212424 94.965881
99 0 1 29.240602 -4.590175 95.599609
100 0 1 29.195200 -5.179875 96.326416
101 0 1 28.923399 -6.101245 96.410583
102 0 1 28.193800 -6.401614 95.775513
103 0 1 27.465502 -5.893094 96.206299
104 0 1 26.575197 -6.212964 96.234192
105 0 1 25.867800 -6.792325 95.853882
106 0 1 25.117098 -6.398974 95.332214
107 0 1 24.501200 -5.814555 95.835297
108 0 1 24.267199 -5.490844 94.970703
109 0 1 23.971800 -4.683705 95.308197
110 0 1 23.486597 -4.712775 96.124390
111 0 1 23.413500 -5.124684 97.057800
112 0 1 23.172899 -6.005075 96.973816
113 0 1 22.241899 -6.525596 97.015198
114 0 1 22.962297 -7.195455 96.914917
115 0 1 22.397100 -7.970975 96.833313
116 0 1 22.326300 -7.484725 96.013184
117 0 1 22.824099 -6.860984 95.537903
118 0 1 23.561602 -6.869506 94.897583
119 0 1 22.630602 -6.922814 94.535217
120 0 1 22.265600 -7.828774 94.722107
121 0 1 21.599298 -7.051885 94.617310
122 0 1 21.719000 -6.069896 94.781403
123 0 1 21.614801 -5.186154 95.201294
124 0 1 20.757601 -5.071755 95.638611
125 0 1 20.310801 -5.409114 94.899597
126 0 1 19.865099 -6.341825 94.884399
127 0 1 19.167299 -6.682784 94.352997
128 0 1 18.709803 -7.281495 93.815918
129 0 1 18.012899 -7.053025 94.453613
130 0 1 17.428999 -7.230735 93.635498
131 0 1 17.886698 -8.092404 93.715607
132 0 1 17.249300 -8.599284 93.305115
133 0 1 17.630499 -9.275775 93.966309
134 0 1 17.489702 -10.153584 93.688202
135 0 1 18.171099 -10.445914 93.058594
136 0 1 18.969900 -10.864455 92.801208
137 0 1 19.072397 -10.756576 91.880005
138 0 1 19.663202 -10.471705 91.150818
139 0 1 18.906801 -10.465735 90.489502
140 0 1 19.519300 -9.698085 90.307312
141 0 1 18.890200 -8.992724 90.067505
142 0 1 18.413401 -8.795545 89.125092
143 0 1 17.439501 -9.017814 89.331116
144 0 1 16.562700 -8.685124 89.082794
145 0 1 16.626799 -7.723174 89.315308
146 0 1 16.996199 -7.746434 90.189606
147 0 1 17.596498 -7.747245 89.525299
148 0 1 17.589499 -6.777825 89.495117
149 0 1 17.881300 -6.005794 90.133118
150 0 1 18.202101 -5.313455 89.586304
151 0 1 17.291800 -5.174634 90.008484
152 0 1 17.780600 -4.784366 90.704010
153 0 1 17.326200 -4.083974 90.132019
154 0 1 17.680597 -3.537154 89.397095
155 0 1 17.565001 -4.403605 88.925110
156 0 1 16.947699 -4.788085 88.267883
157 0 1 16.287401 -4.370505 88.848999
158 0 1 15.999800 -3.770015 88.083313
159 0 1 16.811098 -3.667924 87.504700
160 0 1 17.237902 -3.868585 86.739105
161 0 1 17.852198 -4.158574 86.053406
162 0 1 18.536200 -3.912675 86.682983
163 0 1 18.376802 -3.209565 86.040894
164 0 1 18.422098 -3.588655 85.122711
165 0 1 17.912100 -2.802684 84.853790
166 0 1 18.642298 -2.626300 84.263306
167 0 1 19.050200 -1.738528 84.416382
168 0 1 18.619898 -1.650540 83.609497
169 0 1 18.135401 -1.114573 82.976807
170 0 1 17.514299 -0.416635 83.100800
171 0 1 16.859400 -0.113295 83.781616
172 0 1 16.056002 -0.664485 83.803406
173 0 1 15.916700 -1.009152 84.669891
174 0 1 15.667498 -1.370873 85.558411
175 0 1 15.032999 -0.929879 86.071991
176 0 1 14.389902 -0.663735 85.472290
177 0 1 13.426901 -0.872149 85.426300
178 0 1 12.883101 -1.490403 84.952606
179 0 1 12.024599 -1.275384 84.561218
180 0 1 11.258291 -1.502854 83.921600
181 0 1 11.422022 -2.419192 83.568390
182 0 1 11.021681 -3.282634 83.429810
183 0 1 11.397799 -2.892804 82.645905
184 0 1 10.586458 -2.380862 83.072998
185 0 1 10.915781 -1.795619 82.316498
186 0 1 10.211100 -2.112241 81.715088
187 0 1 10.599600 -2.507930 80.941803
188 0 1 10.540392 -2.143104 80.054291
189 0 1 9.683111 -1.804902 79.794891
190 0 1 9.910288 -1.911723 78.821198
191 0 1 9.629751 -1.247741 78.155884
192 0 1 8.819799 -1.081710 78.604401
193 0 1 7.964220 -0.687406 78.610291
194 0 1 7.304548 -1.115941 79.215698
195 0 1 7.472551 -0.333745 79.845703
196 0 1 7.323679 -0.790276 80.636993
197 0 1 7.570330 -1.243239 81.444000
198 0 1 7.231401 -2.050769 81.805298
199 0 1 7.905291 -2.704694 81.952606
200 0 1 8.263041 -3.213984 82.677185
201 0 1 7.528460 -3.762916 82.724609
202 0 1 6.761351 -4.316915 82.694214
203 0 1 7.448870 -5.026305 82.569092
204 0 1 6.910650 -5.463756 83.251587
205 0 1 7.204569 -6.330125 83.249817
206 0 1 6.950380 -6.512996 82.337006
207 0 1 7.391420 -7.383365 82.295288
208 0 1 7.355951 -7.742295 81.407410
209 0 1 7.409029 -6.795604 81.262207
210 0 1 6.890650 -6.963714 80.497803
211 0 1 7.190859 -6.568614 79.626709
212 0 1 6.329531 -6.551255 79.232788
213 0 1 6.102499 -7.453795 78.971985
214 0 1 5.250761 -7.193576 79.316711
215 0 1 5.029638 -6.570535 79.940491
216 0 1 4.550821 -5.860755 79.622894
217 0 1 5.439569 -5.620746 79.309814
218 0 1 6.264891 -5.117755 79.265015
219 0 1 5.585611 -4.321475 79.380981
220 0 1 5.819201 -3.528985 78.847290
221 0 1 6.103971 -3.309924 77.893494
222 0 1 6.829279 -3.490455 77.360107
223 0 1 7.063749 -4.212045 77.954712
224 0 1 6.745588 -5.115026 78.095886
225 0 1 6.169180 -5.835534 78.292999
226 0 1 5.576849 -5.115384 78.033813
227 0 1 5.747030 -5.617866 77.278503
228 0 1 5.715590 -5.705985 76.314697
229 0 1 6.013201 -6.532435 76.001190
230 0 1 6.652712 -7.221694 76.270599
231 0 1 7.121920 -6.951005 77.070892
232 0 1 7.071718 -5.978105 77.369598
233 0 1 7.452459 -5.362935 76.774902
234 0 1 8.095610 -5.625585 76.081482
235 0 1 8.932322 -6.034184 75.824799
236 0 1 9.574339 -5.494544 76.299011
237 0 1 9.095232 -4.880445 75.812103
238 0 1 9.130751 -4.167415 75.209412
239 0 1 8.223749 -4.093194 75.531616
240 0 1 7.419611 -4.596484 75.618195
241 0 1 6.935560 -4.627585 74.786804
242 0 1 6.449968 -5.350554 74.421204
243 0 1 6.092390 -4.897124 73.674500
244 0 1 5.488020 -4.130725 73.678101
245 0 1 4.919291 -4.124484 72.867889
246 0 1 4.332640 -4.157134 73.620300
247 0 1 3.478682 -4.315135 73.926910
248 0 1 3.159781 -3.448115 74.183716
249 0 1 2.192463 -3.488225 74.045288
250 0 1 1.870907 -4.358775 73.857117
251 0 1 1.976732 -5.295375 74.023010
252 0 1 1.793610 -5.843305 74.804993
253 0 1 0.858593 -5.650834 75.093597
254 0 1 1.032969 -4.905644 75.677185
255 0 1 0.670990 -4.071805 75.878693
256 0 1 0.290899 -3.562675 76.636200
257 0 1 0.699087 -2.848134 77.259888
258 0 1 0.538639 -2.020467 76.710999
259 0 1 0.596251 -0.984454 76.917511
260 0 1 0.995422 -0.893741 76.083801
261 0 1 0.556650 -0.525504 75.328491
262 0 1 0.022230 0.267995 75.155396
263 0 1 -0.924570 -0.121776 75.190491
264 0 1 -1.699080 0.034547 75.702911
265 0 1 -2.353291 0.250707 76.401489
266 0 1 -2.539080 1.121656 76.686584
267 0 1 -2.682169 1.961736 77.164795
268 0 1 -1.759270 2.055394 77.362000
269 0 1 -1.871241 2.217267 76.397003
270 0 1 -2.193810 3.176976 76.208405
271 0 1 -2.036921 2.766244 75.330109
272 0 1 -1.865391 3.676835 74.985992
273 0 1 -1.815350 4.520844 74.351990
274 0 1 -2.478130 4.980947 73.823395
275 0 1 -2.593599 5.938184 74.071716
276 0 1 -2.443399 6.335324 74.938690
277 0 1 -3.297440 6.724805 74.915894
278 0 1 -3.922430 7.031415 74.287415
279 0 1 -3.535009 6.706254 73.452698
280 0 1 -4.018549 6.245267 72.673401
281 0 1 -4.889940 6.050485 72.233215
282 0 1 -5.492029 6.642964 71.829285
283 0 1 -4.674780 7.131074 71.499603
284 0 1 -4.036819 7.510293 70.988098
285 0 1 -3.316250 6.793504 70.876099
286 0 1 -2.854580 7.216638 70.153992
287 0 1 -2.812160 7.984765 69.643616
288 0 1 -1.947470 7.792695 69.273193
289 0 1 -1.715050 7.054444 68.659912
290 0 1 -2.485870 7.455964 68.399506
291 0 1 -1.862200 7.865174 67.659210
292 0 1 -1.322559 8.475347 67.175690
293 0 1 -0.677990 9.197045 67.297394
294 0 1 0.242800 9.377847 67.590607
295 0 1 0.803329 8.719846 67.945618
296 0 1 0.675035 7.808373 68.350891
297 0 1 -0.045759 7.343114 68.752594
298 0 1 0.151171 6.508817 68.393799
299 0 1 0.996073 6.181256 68.093994
300 0 1 1.139288 5.546964 67.265991
301 0 1 1.584154 5.708417 66.451691
302 0 1 1.299587 5.797444 65.522095
303 0 1 2.115807 6.309403 65.455994
304 0 1 2.714720 5.844106 65.988098
305 0 1 3.296179 5.445664 65.326111
306 0 1 3.798288 6.024476 65.897797
307 0 1 3.627150 5.180875 66.244904
308 0 1 4.510740 4.798577 66.542114
309 0 1 5.118090 5.196694 65.875916
310 0 1 5.491400 4.505075 65.412598
311 0 1 6.306150 4.832906 65.753296
312 0 1 6.727491 5.393445 65.113892
313 0 1 7.567720 5.894837 65.037292
314 0 1 7.764860 6.693604 64.538910
315 0 1 8.156950 6.922708 63.707001
316 0 1 7.591898 7.485208 63.218994
317 0 1 7.263929 8.281446 63.594208
318 0 1 7.856562 8.021455 64.278992
319 0 1 8.016951 8.547647 65.033813
320 0 1 7.433550 8.757943 65.714508
321 0 1 7.308451 7.810937 65.819611
322 0 1 7.727491 7.488706 66.648407
323 0 1 7.562922 7.242566 67.541992
324 0 1 6.978258 7.838704 67.970001
325 0 1 6.686258 8.673745 68.265289
326 0 1 5.892092 8.109586 68.475098
327 0 1 5.713739 9.014344 68.610992
328 0 1 5.077230 9.714246 68.781494
329 0 1 5.193258 9.796647 67.801392
330 0 1 6.032839 9.666947 67.316803
331 0 1 6.954699 9.389146 67.434692
332 0 1 7.177549 9.937745 68.228516
333 0 1 7.683329 9.238645 68.583008
334 0 1 8.545061 8.739545 68.626190
335 0 1 9.345209 9.291844 68.790009
336 0 1 9.075850 9.868546 68.118408
337 0 1 9.533121 10.722646 67.950195
338 0 1 10.253351 11.017644 68.571899
339 0 1 10.902758 11.753144 68.417389
340 0 1 11.756601 11.386643 68.466095
341 0 1 12.689199 11.465646 68.566589
342 0 1 13.062399 11.757844 67.758392
343 0 1 12.276800 11.390145 67.350098
344 0 1 12.629702 10.628545 66.983490
345 0 1 13.605799 10.787045 66.794983
346 0 1 13.500200 10.936547 65.828186
347 0 1 13.205801 10.714646 64.885101
348 0 1 13.897100 11.378846 64.544983
349 0 1 13.894999 11.965344 65.398590
350 0 1 13.518999 12.814446 65.796082
351 0 1 13.021101 12.303445 66.442200
352 0 1 13.763800 12.357247 67.068604
353 0 1 14.609999 12.295045 67.530090
354 0 1 15.191301 11.487847 67.536987
355 0 1 15.174402 10.686746 68.041290
356 0 1 15.304701 10.078843 67.305603
357 0 1 15.045099 10.017243 66.341797
358 0 1 15.289598 9.816445 65.450592
359 0 1 14.634001 10.415147 65.112396
360 0 1 14.199099 9.930245 64.298218
361 0 1 14.150099 9.692147 63.359589
362 0 1 14.589300 10.276944 62.707703
363 0 1 14.323000 9.556947 62.146606
364 0 1 14.664999 8.652543 61.937195
365 0 1 14.641100 8.786843 61.015411
366 0 1 14.894899 7.842767 60.877686
367 0 1 14.623499 7.601735 61.828705
368 0 1 15.518599 7.295594 62.127197
369 0 1 16.162798 7.199025 62.832092
370 0 1 16.563402 7.490926 63.775696
371 0 1 15.886801 8.154386 63.869690
372 0 1 15.136599 8.737245 63.881104
373 0 1 15.054102 8.894746 64.903381
374 0 1 15.518301 8.823445 65.721710
375 0 1 16.300798 8.788045 66.316193
376 0 1 17.267702 8.908444 66.009308
377 0 1 17.983698 9.558045 65.798584
378 0 1 18.735498 9.290444 66.363892
379 0 1 19.652399 9.642747 66.581116
380 0 1 19.800200 9.119447 65.729614
381 0 1 20.607401 9.638246 65.945496
382 0 1 20.352400 10.483045 65.472412
383 0 1 21.078897 10.909646 64.949493
384 0 1 21.986902 10.605447 64.963013
385 0 1 22.191301 11.395345 64.445190
386 0 1 22.708200 11.279645 65.225800
387 0 1 23.566500 11.576447 64.970886
388 0 1 24.306601 11.301946 65.515991
389 0 1 24.617800 10.620244 66.179382
390 0 1 24.147303 10.335546 65.393097
391 0 1 23.407099 9.715043 65.236389
392 0 1 24.243998 9.283944 65.386414
393 0 1 25.032701 8.777246 65.231995
394 0 1 24.254602 8.586747 64.613281
395 0 1 24.278399 8.074967 63.809113
396 0 1 23.999102 7.282464 64.447388
397 0 1 23.314898 7.580544 63.897888
398 0 1 22.490900 7.568498 63.368408
399 0 1 22.036501 7.547395 62.524200
400 0 1 22.514299 7.306165 61.670197
401 0 1 22.297300 8.273347 61.745911
402 0 1 21.679697 9.063344 61.920105
403 0 1 21.159700 9.938344 61.697296
404 0 1 20.627298 9.892045 60.903900
405 0 1 21.113802 9.197846 60.483307
406 0 1 20.571600 9.653646 59.794312
407 0 1 20.104700 10.470845 59.651489
408 0 1 20.283197 10.865544 60.480804
409 0 1 20.702200 11.112443 61.395691
410 0 1 21.321199 10.846147 60.781708
411 0 1 22.299402 10.652246 60.527100
412 0 1 22.647402 11.298448 59.892517
413 0 1 23.192900 11.079446 59.169891
414 0 1 22.880800 10.153443 59.070312
415 0 1 23.357302 10.061547 58.217194
416 0 1 23.236300 9.810044 57.239807
417 0 1 24.125700 9.376245 57.429504
418 0 1 24.249903 9.420945 56.517883
419 0 1 24.115999 8.658746 55.890106
420 0 1 23.344202 8.377244 56.389313
421 0 1 22.773897 7.890435 56.984802
422 0 1 21.892900 7.518968 57.069305
423 0 1 21.022100 7.921494 56.906494
424 0 1 20.512102 7.414006 57.544983
425 0 1 20.384699 6.472844 57.883698
426 0 1 20.145502 5.538964 58.249817
427 0 1 21.107901 5.406297 58.228210
428 0 1 21.361002 5.830224 57.357483
429 0 1 20.811899 5.221635 56.823303
430 0 1 20.863802 5.167165 55.804108
431 0 1 20.764002 4.357476 55.434601
432 0 1 20.251497 3.560807 55.197205
433 0 1 20.847101 2.892865 54.809387
434 0 1 20.754198 2.015206 55.049103
435 0 1 20.350801 1.845475 55.898712
436 0 1 20.008303 0.917924 55.707794
437 0 1 19.852198 0.470784 54.891388
438 0 1 19.089800 0.018586 55.298492
439 0 1 18.523199 -0.753636 55.129089
440 0 1 17.897501 -0.963351 54.291901
441 0 1 17.091799 -0.690005 53.839417
442 0 1 17.044500 -1.637217 53.558807
443 0 1 16.896299 -1.828915 52.601013
444 0 1 16.864199 -1.211177 51.818512
445 0 1 17.607302 -0.819493 51.422394
446 0 1 17.809298 -0.742536 52.405212
447 0 1 18.452600 -0.036246 52.483795
448 0 1 18.569799 -0.247874 51.491302
449 0 1 18.943300 0.562745 51.014404
450 0 1 19.115000 1.531285 51.144592
451 0 1 19.182398 2.318666 51.697601
452 0 1 18.252802 2.704164 51.545990
453 0 1 17.622202 2.084954 51.692688
454 0 1 17.153200 1.459546 52.227509
455 0 1 16.756998 0.782395 52.727509
456 0 1 17.382998 1.135034 53.308594
457 0 1 16.751101 1.674714 53.765289
458 0 1 17.403399 1.882947 54.461914
459 0 1 17.351900 2.651055 54.991394
460 0 1 16.744402 3.124665 55.562500
461 0 1 15.958300 3.007646 56.010590
462 0 1 15.954000 2.339074 56.654907
463 0 1 15.412901 1.806047 56.121399
464 0 1 14.585199 2.167787 56.445007
465 0 1 14.190500 2.338334 57.289490
466 0 1 13.348299 2.752725 57.057007
467 0 1 12.661100 2.270505 56.552490
468 0 1 12.917700 1.391664 56.752686
469 0 1 12.387800 0.680387 56.566711
470 0 1 12.061499 -0.177356 56.779510
471 0 1 12.187502 -1.197793 56.646790
472 0 1 11.955000 -2.135173 56.817596
473 0 1 12.676001 -2.699794 56.924103
474 0 1 12.868299 -2.629840 55.967712
475 0 1 12.062502 -2.307046 55.546509
476 0 1 12.566999 -1.737349 54.968384
477 0 1 11.860899 -2.064866 54.460297
478 0 1 10.984758 -2.074504 54.159393
479 0 1 10.999559 -1.999604 53.216705
480 0 1 10.599482 -1.976901 52.347687
481 0 1 10.590578 -1.020827 52.468384
482 0 1 10.262110 -0.684236 51.623810
483 0 1 10.197100 -0.607005 50.669403
484 0 1 9.272020 -0.958018 50.606506
485 0 1 10.030222 -1.548844 50.329193
486 0 1 9.524019 -2.115108 49.782013
487 0 1 9.696192 -2.558326 50.597687
488 0 1 9.412420 -1.792542 51.238892
489 0 1 8.789579 -2.090766 51.883301
490 0 1 8.095610 -2.610505 51.382812
491 0 1 7.751150 -2.324458 52.181305
492 0 1 6.992289 -2.407529 51.507507
493 0 1 6.496469 -2.693173 50.699402
494 0 1 6.246828 -2.569026 49.789490
495 0 1 6.845041 -2.845155 49.050812
496 0 1 6.860369 -3.712855 49.585815
497 0 1 6.452700 -3.861964 48.712494
498 0 1 5.726431 -4.405055 48.459717
499 0 1 5.180990 -4.710555 47.579407
500 0 1 5.124849 -5.140334 46.705688
501 0 1 5.416960 -5.446334 45.812012
502 0 1 6.058222 -6.233405 45.623596
503 0 1 5.956388 -6.097545 46.560913
504 0 1 5.020868 -6.247146 46.719208
505 0 1 4.269861 -6.372554 47.432709
506 0 1 3.753321 -6.913224 46.808716
507 0 1 3.078989 -6.447696 46.245300
508 0 1 2.555786 -6.390664 45.483398
509 0 1 1.823351 -6.839055 45.936188
510 0 1 1.762938 -6.390216 46.793488
511 0 1 1.232086 -7.071185 47.226288
512 0 1 1.521132 -7.730754 47.836792
513 0 1 1.055828 -8.250875 48.614685
514 0 1 0.327181 -7.626185 48.819702
515 0 1 -0.123150 -7.361875 49.709717
516 0 1 -0.997671 -7.464324 49.300507
517 0 1 -0.811100 -8.227714 48.863800
518 0 1 -0.096840 -8.820714 49.086914
519 0 1 -0.053419 -9.787684 49.100494
520 0 1 0.632610 -9.626145 49.784790
521 0 1 1.348366 -10.166194 49.429993
522 0 1 1.349688 -11.071235 49.392792
523 0 1 2.228464 -11.004554 49.769196
524 0 1 2.799351 -10.227633 49.476990
525 0 1 3.692492 -10.376464 49.252594
526 0 1 4.020731 -10.668635 48.372406
527 0 1 4.824190 -10.338054 48.057007
528 0 1 4.703779 -11.069163 47.413788
529 0 1 3.829008 -11.434754 47.167297
530 0 1 4.503691 -12.128554 47.184296
531 0 1 4.717741 -13.087554 47.100403
532 0 1 4.255152 -13.409955 46.375092
533 0 1 4.900808 -12.725955 46.025604
534 0 1 4.533670 -11.870055 45.777802
535 0 1 3.586329 -11.814754 45.775085
536 0 1 3.131380 -11.139134 46.257202
537 0 1 3.386759 -10.306026 45.797485
538 0 1 2.883261 -9.994464 46.606506
539 0 1 3.026800 -10.197345 47.464508
540 0 1 2.141968 -10.518575 47.412506
541 0 1 1.542778 -10.989566 47.986206
542 0 1 1.458685 -11.825055 48.439301
543 0 1 1.126329 -12.592355 47.961395
544 0 1 0.596380 -13.291255 48.384705
545 0 1 0.662022 -14.207555 48.394501
546 0 1 -0.193371 -14.254756 48.754303
547 0 1 -0.275820 -13.773654 49.570496
548 0 1 -1.026680 -14.303155 49.691010
549 0 1 -0.800951 -13.692756 50.463409
550 0 1 -1.130220 -12.831155 50.709412
551 0 1 -1.293171 -12.193854 50.006012
552 0 1 -2.228800 -11.731635 49.946899
553 0 1 -1.673780 -11.536376 49.158508
554 0 1 -1.908810 -11.337335 48.196899
555 0 1 -1.253389 -10.684554 48.617096
556 0 1 -1.436331 -9.800014 48.688416
557 0 1 -1.702450 -9.149705 48.033997
558 0 1 -2.444559 -9.213744 48.653503
559 0 1 -2.859911 -8.709525 47.971802
560 0 1 -2.805510 -8.281085 47.091187
561 0 1 -3.134220 -7.351995 46.876495
562 0 1 -3.602421 -6.564935 46.683289
563 0 1 -4.462440 -6.047185 46.704102
564 0 1 -4.610229 -6.816384 46.167999
565 0 1 -5.429689 -6.454015 46.021912
566 0 1 -6.089661 -6.091945 45.477295
567 0 1 -6.636831 -6.604335 44.795410
568 0 1 -6.111700 -6.047194 44.117188
569 0 1 -6.231070 -5.973445 43.101013
570 0 1 -7.086790 -6.328025 43.462006
571 0 1 -6.486631 -7.078315 43.359497
572 0 1 -6.307930 -7.785594 42.748199
573 0 1 -7.117750 -7.743905 42.303009
574 0 1 -7.423420 -7.506675 43.155884
575 0 1 -8.167850 -7.829564 42.572906
576 0 1 -7.957571 -6.939136 42.329590
577 0 1 -8.892300 -6.731835 42.037811
578 0 1 -9.740499 -6.381965 41.792603
579 0 1 -10.658899 -6.563064 41.570984
580 0 1 -10.446901 -5.982074 40.808594
581 0 1 -10.537901 -5.483485 39.956299
582 0 1 -11.114599 -4.677964 39.786011
583 0 1 -11.775000 -5.412755 39.898987
584 0 1 -12.008600 -4.995996 39.030884
585 0 1 -12.495600 -5.264045 38.250183
586 0 1 -12.993500 -5.426885 39.133789
587 0 1 -13.675300 -5.072495 39.615784
588 0 1 -14.428301 -5.101584 39.033691
589 0 1 -14.536699 -6.058764 38.929810
590 0 1 -13.763500 -5.825284 38.296997
591 0 1 -14.605000 -5.830375 37.872498
592 0 1 -14.272800 -5.499934 36.991913
593 0 1 -14.913601 -5.722295 36.267303
594 0 1 -15.587801 -6.333425 36.584808
595 0 1 -15.581600 -5.525895 37.177307
596 0 1 -15.978001 -5.778945 38.004913
597 0 1 -15.560801 -6.599845 37.901001
598 0 1 -16.404501 -6.712054 38.326111
599 0 1 -16.686300 -7.110995 39.131500
600 0 1 -16.981199 -7.433986 38.284210
601 0 1 -16.036301 -7.607425 38.235413
602 0 1 -15.385601 -7.883735 38.882996
603 0 1 -14.678699 -8.519385 38.644012
604 0 1 -14.171500 -9.208404 39.148315
605 0 1 -14.063800 -9.922824 38.403412
606 0 1 -14.582201 -9.564895 37.573608
607 0 1 -15.383200 -9.429275 37.033295
608 0 1 -16.237801 -9.293235 36.648499
609 0 1 -16.831400 -9.578965 35.941101
610 0 1 -16.759901 -10.074843 35.142395
611 0 1 -16.429701 -9.344825 34.565613
612 0 1 -16.480600 -9.212436 33.673706
613 0 1 -15.932899 -8.734664 32.969604
614 0 1 -15.472300 -9.215236 32.219788
615 0 1 -14.951000 -9.643394 31.586090
616 0 1 -15.116400 -10.227105 30.795013
617 0 1 -15.715000 -9.790824 30.170898
618 0 1 -14.845200 -9.391604 29.908112
619 0 1 -14.725901 -8.559474 29.381287
620 0 1 -14.391201 -7.903924 28.665314
621 0 1 -14.407900 -7.818564 27.695709
622 0 1 -14.975000 -7.357554 27.063904
623 0 1 -15.487900 -7.624064 27.789307
624 0 1 -14.992100 -6.901364 28.203400
625 0 1 -14.143600 -6.496385 27.844299
626 0 1 -13.207800 -6.597985 27.702911
627 0 1 -12.851400 -7.179175 28.344116
628 0 1 -12.923700 -6.356194 28.825409
629 0 1 -12.819101 -5.425195 28.608887
630 0 1 -13.529100 -5.415824 29.249390
631 0 1 -12.840700 -4.709395 29.328400
632 0 1 -12.181200 -4.047074 29.337189
633 0 1 -12.223200 -3.228614 29.881805
634 0 1 -12.674700 -2.779574 29.128784
635 0 1 -13.054200 -2.166057 28.454407
636 0 1 -12.768801 -1.750771 27.641205
637 0 1 -12.551401 -0.819043 27.294708
638 0 1 -12.986900 -0.024016 26.996002
639 0 1 -12.217300 0.448865 26.776184
640 0 1 -12.463999 1.219056 27.320007
641 0 1 -11.749399 1.737264 26.903290
642 0 1 -11.931700 2.332116 26.099396
643 0 1 -11.350300 2.726476 25.461487
644 0 1 -11.844400 2.089677 24.890686
645 0 1 -11.988699 3.055436 24.509094
646 0 1 -12.889200 2.880883 24.210815
647 0 1 -13.211400 2.178937 23.610992
648 0 1 -13.490601 2.251847 22.740692
649 0 1 -13.677000 1.333516 22.481293
650 0 1 -13.301200 0.412435 22.403900
651 0 1 -13.184700 0.426084 21.417297
652 0 1 -13.040900 -0.311795 20.826004
653 0 1 -12.942500 0.432447 20.197296
654 0 1 -13.526800 1.197274 20.520203
655 0 1 -13.566600 1.860967 21.204407
656 0 1 -12.669300 1.842034 20.846802
657 0 1 -12.708500 2.113706 19.838699
658 0 1 -13.643400 2.340024 19.953796
659 0 1 -14.222600 2.868196 19.411804
660 0 1 -14.622999 3.535726 20.001892
661 0 1 -15.254400 2.832356 20.058395
662 0 1 -15.751200 2.151956 19.712799
663 0 1 -16.458000 1.564977 19.664307
664 0 1 -16.506001 0.723016 19.176208
665 0 1 -17.207600 0.088304 19.007507
666 0 1 -18.091600 -0.110625 19.310608
667 0 1 -17.785200 -0.667026 18.589096
668 0 1 -17.198601 -0.629825 17.837006
669 0 1 -16.355200 -0.466475 18.219406
670 0 1 -15.750200 -0.004096 17.589096
671 0 1 -15.326601 0.843724 17.179703
672 0 1 -15.725401 1.372857 17.906204
673 0 1 -16.637800 1.197076 17.539795
674 0 1 -17.164301 0.411843 17.698700
675 0 1 -17.742800 1.026147 17.315506
676 0 1 -18.205900 1.890206 17.187500
677 0 1 -18.792700 1.208787 16.813507
678 0 1 -18.814501 0.737126 16.004303
679 0 1 -17.970800 1.086125 15.393005
680 0 1 -17.589500 1.860837 14.919006
681 0 1 -17.138201 2.573617 15.314606
682 0 1 -17.011000 3.082494 16.094696
683 0 1 -16.256201 2.766366 15.667297
684 0 1 -15.288200 3.272946 15.666901
685 0 1 -14.377501 3.142434 15.838104
686 0 1 -14.770300 2.693833 16.627106
687 0 1 -13.875401 2.915296 16.904205
688 0 1 -13.027000 2.789754 17.236603
689 0 1 -12.345900 2.618024 16.574905
690 0 1 -11.856600 2.639794 17.386398
691 0 1 -12.319399 1.826394 17.746796
692 0 1 -12.438900 1.392705 16.856903
693 0 1 -11.752800 0.696336 16.919495
694 0 1 -11.177301 -0.010806 17.293594
695 0 1 -10.302599 -0.035396 16.987503
696 0 1 -10.048500 0.608136 17.652298
697 0 1 -9.405001 0.763726 18.389297
698 0 1 -8.628099 1.369455 18.299301
699 0 1 -7.696630 1.148286 18.753998
700 0 1 -7.329451 1.283616 19.631500
701 0 1 -6.410101 1.119687 19.339706
702 0 1 -6.762869 0.271436 19.540192
703 0 1 -6.209219 -0.518765 19.470795
704 0 1 -5.466829 -0.163215 19.968292
705 0 1 -4.668840 -0.178344 19.430603
706 0 1 -4.150440 -0.744889 19.989899
707 0 1 -4.164730 -1.364083 19.299194
708 0 1 -4.373991 -1.504735 18.406296
709 0 1 -4.347710 -2.433372 18.248993
710 0 1 -3.734310 -2.947165 18.800003
711 0 1 -2.807329 -3.307115 18.925598
712 0 1 -2.955431 -2.432170 18.490005
713 0 1 -1.957291 -2.392673 18.577805
714 0 1 -1.123970 -2.386514 18.033707
715 0 1 -0.382509 -2.674878 18.656601
716 0 1 0.345209 -2.607919 19.253296
717 0 1 -0.308680 -2.934634 19.879303
718 0 1 -0.697161 -2.841964 20.750000
719 0 1 -1.661180 -3.027764 20.605606
720 0 1 -2.340111 -3.416736 21.063995
721 0 1 -2.498079 -2.470359 20.936707
722 0 1 -2.632980 -2.143199 21.833099
723 0 1 -2.070181 -1.683062 22.497498
724 0 1 -1.537069 -2.011531 21.688293
725 0 1 -1.972450 -1.184356 21.488800
726 0 1 -1.658920 -0.629584 20.735306
727 0 1 -1.563669 0.324395 20.917603
728 0 1 -1.617849 1.217767 21.269104
729 0 1 -2.259041 1.947244 21.175507
730 0 1 -2.994459 1.835336 20.642395
731 0 1 -3.398170 2.577664 20.096207
732 0 1 -3.126940 3.261304 19.415009
733 0 1 -3.490580 4.188317 19.592102
734 0 1 -3.982840 4.555554 18.891006
735 0 1 -4.353701 5.446256 19.248505
736 0 1 -5.007490 5.435136 19.962799
737 0 1 -4.144730 5.459584 20.354401
738 0 1 -3.585989 5.708123 21.104492
739 0 1 -3.175310 6.204957 20.405396
740 0 1 -3.326391 7.027196 20.821899
741 0 1 -2.718300 6.807786 21.539200
742 0 1 -1.950760 6.857434 22.138199
743 0 1 -1.481810 7.801526 21.978897
744 0 1 -1.666281 7.873086 21.038498
745 0 1 -1.639601 7.027596 20.587097
746 0 1 -1.126030 6.254067 20.636002
747 0 1 -0.479219 5.954865 21.305695
748 0 1 0.135590 6.352704 20.531708
749 0 1 0.193939 5.468995 20.079895
750 0 1 0.933350 4.836835 20.115295
751 0 1 1.105745 4.158277 20.853897
752 0 1 1.879475 4.594457 20.515396
753 0 1 2.642786 4.160836 21.031494
754 0 1 3.387499 3.601354 20.961792
755 0 1 3.438089 3.178777 20.003403
756 0 1 4.260889 3.258637 20.627197
757 0 1 4.442480 4.138024 20.143097
758 0 1 4.422190 5.043374 19.779999
759 0 1 5.168280 5.201745 20.272202
760 0 1 5.455450 4.389714 20.616806
761 0 1 6.322161 4.791017 20.527695
762 0 1 6.680689 5.663766 20.309799
763 0 1 7.638262 5.571916 20.294998
764 0 1 7.556818 6.404157 19.755798
765 0 1 8.545549 6.331944 19.557404
766 0 1 8.853231 7.261907 19.762100
767 0 1 9.661150 7.408277 19.289597
768 0 1 9.942881 6.524377 19.116608
769 0 1 9.244291 6.317384 18.563202
770 0 1 8.919561 7.147264 18.166107
771 0 1 8.777800 8.036294 17.791000
772 0 1 9.603479 8.147264 18.260498
773 0 1 9.744360 8.891946 18.808594
774 0 1 10.418879 9.533345 19.270203
775 0 1 9.640951 9.806146 19.669907
776 0 1 9.120829 10.376847 19.111099
777 0 1 8.658178 11.197446 19.069092
778 0 1 7.677240 11.332845 19.073700
779 0 1 6.901339 11.856843 18.938705
780 0 1 6.097651 12.435143 19.275894
781 0 1 6.241961 13.351243 19.038406
782 0 1 7.136568 13.418447 19.413101
783 0 1 7.264460 13.902345 18.615494
784 0 1 6.583498 13.853044 17.912506
785 0 1 7.014971 14.337544 17.198700
786 0 1 7.400499 14.998147 16.686798
787 0 1 6.980570 15.724748 17.045593
788 0 1 6.099218 15.323346 17.005295
789 0 1 6.097860 14.709443 16.251404