LAMMPS data file via MDAnalysis

        2000  atoms
        1999  bonds
           0  angles
           0  dihedrals
           0  impropers

           1  atom types
           1  bond types
           0  angle types
           0  dihedral types
           0  improper types

-30.5 30.5 xlo xhi
-30.5 30.5 ylo yhi
-233.5 233.5 zlo zhi


Masses

1 1.000000

Atoms

1 0 1 11.886463 20.916807 81.961304
2 0 1 12.684261 20.952707 82.516296
3 0 1 13.347664 20.689508 81.954407
4 0 1 12.956264 19.855909 81.645508
5 0 1 13.666664 19.620508 80.965393
6 0 1 13.249863 18.739706 81.171509
7 0 1 12.337864 18.685408 81.472107
8 0 1 12.006565 19.011610 80.599609
9 0 1 11.808563 19.951010 80.545898
10 0 1 11.989262 20.888006 80.636292
11 0 1 12.201962 21.931005 80.624207
12 0 1 12.988663 22.549608 80.580688
13 0 1 12.863064 22.766211 81.491791
14 0 1 12.004063 23.010508 81.862793
15 0 1 12.544464 22.992308 82.752991
16 0 1 13.214264 22.421507 83.174500
17 0 1 12.896362 22.110609 83.983307
18 0 1 12.155766 22.612707 83.597198
19 0 1 11.154865 22.799505 83.714294
20 0 1 11.169964 21.883307 83.587585
21 0 1 10.694115 21.446409 82.897888
22 0 1 9.798332 21.749708 82.897797
23 0 1 9.032375 21.901510 83.369110
24 0 1 8.846745 22.308210 84.153595
25 0 1 9.189674 23.157110 84.093689
26 0 1 10.068752 23.055708 84.511597
27 0 1 10.371532 23.353506 85.368286
28 0 1 9.781513 24.052305 85.286682
29 0 1 9.678005 24.798208 84.664307
30 0 1 8.790295 25.010408 84.123993
31 0 1 7.875065 24.669409 83.859589
32 0 1 7.970402 23.697805 83.858215
33 0 1 8.517483 23.795706 83.074707
34 0 1 8.316002 24.661608 82.621796
35 0 1 7.681034 24.180410 82.091309
36 0 1 6.703842 24.284807 81.972412
37 0 1 6.376514 24.162508 82.984009
38 0 1 6.947495 24.507307 83.735992
39 0 1 6.569954 23.665609 84.016205
40 0 1 5.837105 23.232409 84.515289
41 0 1 5.291962 22.767805 85.130890
42 0 1 4.984692 22.008810 84.692596
43 0 1 4.601334 21.460409 85.407196
44 0 1 4.737514 20.913710 84.538910
45 0 1 4.239712 20.105909 84.226685
46 0 1 4.160004 19.231909 83.739594
47 0 1 3.941372 18.286108 83.532501
48 0 1 4.692322 17.704306 83.406189
49 0 1 4.207664 17.596609 82.573303
50 0 1 3.846802 18.303408 82.020691
51 0 1 3.866425 19.249411 82.102203
52 0 1 3.657223 19.270605 81.262695
53 0 1 2.736713 19.413908 81.027588
54 0 1 2.900314 19.449507 80.128510
55 0 1 2.939964 20.395208 80.109497
56 0 1 3.334213 20.653708 79.261993
57 0 1 3.757603 19.858305 79.548218
58 0 1 4.729202 19.800810 79.186707
59 0 1 5.547653 19.452909 79.501709
60 0 1 6.076134 19.171110 78.776917
61 0 1 6.518852 19.216108 77.772095
62 0 1 6.842731 19.212210 76.898987
63 0 1 6.433723 19.896505 76.329193
64 0 1 5.793884 20.582510 76.174896
65 0 1 5.962414 21.539709 76.196106
66 0 1 5.615623 22.351706 75.897888
67 0 1 6.187645 22.316107 75.109985
68 0 1 6.091694 22.577208 74.183411
69 0 1 6.004025 22.986006 73.295593
70 0 1 5.258614 22.438505 72.971405
71 0 1 4.443012 22.631506 73.460510
72 0 1 4.756123 21.907007 74.051910
73 0 1 4.647602 21.228209 74.741302
74 0 1 3.874664 20.677710 74.709991
75 0 1 3.509293 20.321905 73.901794
76 0 1 3.569813 20.981710 73.129303
77 0 1 3.991665 21.689405 72.639191
78 0 1 3.755512 21.516108 71.699219
79 0 1 3.832775 20.703207 71.273499
80 0 1 4.099033 21.473707 70.731384
81 0 1 4.054653 22.389208 70.516510
82 0 1 3.383423 23.032007 69.992310
83 0 1 3.101604 23.576208 70.743408
84 0 1 2.288334 23.453108 70.320190
85 0 1 1.511278 23.265707 69.776703
86 0 1 1.005606 22.879210 70.500397
87 0 1 1.325684 21.966909 70.409485
88 0 1 1.333458 22.013105 71.392700
89 0 1 0.764570 22.582609 72.032715
90 0 1 0.707365 22.774408 72.950684
91 0 1 0.548697 23.539408 73.515411
92 0 1 1.290915 24.166208 73.845398
93 0 1 1.080023 24.790106 74.467590
94 0 1 1.994032 24.804106 74.082611
95 0 1 2.790771 24.641508 73.619019
96 0 1 2.219204 24.000109 73.204803
97 0 1 1.532257 23.429308 73.013611
98 0 1 0.958033 23.634508 72.299683
99 0 1 0.094904 23.545607 71.945404
100 0 1 -0.324137 22.983408 72.654907
101 0 1 -1.044228 22.410406 72.966187
102 0 1 -1.159197 21.474009 72.648315
103 0 1 -2.086317 21.785910 72.727295
104 0 1 -2.752216 21.228209 73.061584
105 0 1 -2.572977 20.311605 72.761719
106 0 1 -3.081326 20.426607 71.937103
107 0 1 -3.242817 20.529707 70.964783
108 0 1 -4.095757 21.068308 70.916687
109 0 1 -5.018616 20.795210 70.772095
110 0 1 -5.622597 21.193007 70.058807
111 0 1 -5.451307 21.131807 69.097107
112 0 1 -4.529806 20.874105 68.762909
113 0 1 -3.825928 20.370508 68.321808
114 0 1 -4.672426 19.895506 68.437897
115 0 1 -4.794897 19.463209 67.596405
116 0 1 -5.089397 18.521208 67.366211
117 0 1 -4.862656 18.766607 66.354492
118 0 1 -3.994106 18.727007 65.911407
119 0 1 -3.840847 19.229406 66.735992
120 0 1 -3.639246 19.786909 66.025513
121 0 1 -3.435137 20.436110 66.743805
122 0 1 -2.471226 20.240606 66.849915
123 0 1 -1.661976 20.539007 67.355408
124 0 1 -0.779577 20.164106 67.617615
125 0 1 -0.615927 19.682508 68.507507
126 0 1 -0.362617 18.959906 69.003601
127 0 1 -0.313757 18.084806 68.647705
128 0 1 -0.309446 17.328909 68.057709
129 0 1 -0.422037 16.646307 67.332306
130 0 1 -1.268106 16.166708 67.526611
131 0 1 -0.989717 16.417509 68.402710
132 0 1 -1.248636 16.849905 69.243195
133 0 1 -1.728188 17.108408 70.048218
134 0 1 -1.448767 17.870008 69.501495
135 0 1 -1.523527 18.783110 69.563416
136 0 1 -1.383247 18.803408 70.533600
137 0 1 -1.154488 19.158110 71.449890
138 0 1 -1.176817 18.187407 71.598816
139 0 1 -2.146637 18.292509 71.727783
140 0 1 -3.040407 18.053610 71.560608
141 0 1 -3.356117 17.237906 71.023010
142 0 1 -3.716196 17.222307 71.871704
143 0 1 -4.432596 16.598707 71.629700
144 0 1 -5.415207 16.477606 72.077911
145 0 1 -6.311188 16.351110 71.739807
146 0 1 -7.167667 16.565207 71.178497
147 0 1 -7.299307 15.742308 71.607605
148 0 1 -6.818207 14.919607 71.278809
149 0 1 -6.178026 14.518705 70.661804
150 0 1 -5.332777 14.027906 70.948486
151 0 1 -4.756126 14.840208 70.856201
152 0 1 -3.957386 14.209509 71.040710
153 0 1 -4.371548 13.545607 70.493408
154 0 1 -4.246557 13.017210 69.691803
155 0 1 -4.360487 12.494509 70.527496
156 0 1 -3.890287 11.620008 70.684509
157 0 1 -4.232986 10.970209 70.072815
158 0 1 -4.316736 10.076708 70.138702
159 0 1 -3.513517 10.343908 69.631409
160 0 1 -3.253557 10.846407 68.821503
161 0 1 -3.993937 11.411009 69.174500
162 0 1 -3.861046 12.015909 68.424896
163 0 1 -3.901217 11.234106 67.836792
164 0 1 -4.438467 11.299608 67.061584
165 0 1 -4.585407 11.506109 66.126801
166 0 1 -4.522076 10.757010 65.622986
167 0 1 -5.478296 10.772509 65.597290
168 0 1 -5.994047 11.246607 66.273499
169 0 1 -6.993008 11.287710 66.365295
170 0 1 -7.857986 10.966909 66.012512
171 0 1 -8.673286 11.362509 65.847900
172 0 1 -9.518936 10.900808 65.548401
173 0 1 -10.430836 10.644907 65.929810
174 0 1 -10.445236 9.900309 65.412292
175 0 1 -9.571337 9.478609 65.597992
176 0 1 -9.474236 8.507307 65.708710
177 0 1 -10.320436 8.823008 65.319885
178 0 1 -10.303436 7.856809 65.601196
179 0 1 -9.701138 7.182310 65.878113
180 0 1 -8.955837 6.543958 65.944092
181 0 1 -8.705606 6.036619 65.142517
182 0 1 -8.670506 5.862787 64.183807
183 0 1 -7.743927 5.600767 64.093903
184 0 1 -7.321926 5.510187 63.239502
185 0 1 -7.169996 4.819307 62.621094
186 0 1 -6.249907 4.497087 62.735199
187 0 1 -6.521967 3.999277 61.974915
188 0 1 -6.687096 3.226408 61.430695
189 0 1 -6.550087 3.481169 60.544800
190 0 1 -7.450127 3.879698 60.404907
191 0 1 -6.977516 4.735418 60.038208
192 0 1 -7.335257 5.212316 59.277710
193 0 1 -8.004267 4.770479 58.699310
194 0 1 -8.168167 4.146596 59.408997
195 0 1 -8.113758 3.622450 58.613708
196 0 1 -7.860226 2.729208 58.573608
197 0 1 -8.624187 2.367296 58.178894
198 0 1 -9.461237 2.784376 58.420197
199 0 1 -10.292736 2.928388 58.934387
200 0 1 -10.667736 3.608526 59.569489
201 0 1 -11.143436 3.608076 58.724609
202 0 1 -10.802437 4.386899 58.196594
203 0 1 -10.528637 4.614236 59.061188
204 0 1 -9.604137 4.821409 58.749390
205 0 1 -9.455036 5.684968 58.434509
206 0 1 -10.423437 5.905378 58.629608
207 0 1 -10.471935 6.324247 57.674988
208 0 1 -11.222637 6.456716 57.072296
209 0 1 -11.188637 6.465227 56.067993
210 0 1 -11.309736 7.228109 55.490295
211 0 1 -12.161537 7.682909 55.594788
212 0 1 -12.405636 8.199408 54.885590
213 0 1 -13.180037 8.609308 55.312408
214 0 1 -12.811638 9.163408 54.560394
215 0 1 -13.136137 10.148706 54.717010
216 0 1 -13.401437 10.107710 55.615387
217 0 1 -12.693138 10.760008 55.703491
218 0 1 -12.180836 10.740705 54.906097
219 0 1 -11.352137 10.843206 55.476196
220 0 1 -10.776035 10.078608 55.106506
221 0 1 -10.500437 9.404806 54.468201
222 0 1 -10.689137 9.503210 53.506989
223 0 1 -9.976837 9.635008 52.951996
224 0 1 -9.792137 8.695906 53.222809
225 0 1 -9.296738 8.070906 53.736603
226 0 1 -8.628716 7.958608 52.969116
227 0 1 -8.487907 7.523508 52.155884
228 0 1 -9.107937 6.682466 52.165405
229 0 1 -9.254337 5.775198 52.337891
230 0 1 -8.697716 5.293088 52.940308
231 0 1 -8.229546 5.696760 53.698700
232 0 1 -9.171637 5.477277 53.855103
233 0 1 -10.096237 5.305738 53.745087
234 0 1 -10.355038 5.539266 54.636902
235 0 1 -10.355038 5.367486 55.619110
236 0 1 -11.223637 5.135786 55.315796
237 0 1 -10.766937 4.305799 55.003204
238 0 1 -11.416037 3.795328 54.562897
239 0 1 -11.230137 2.872946 54.655090
240 0 1 -10.488537 3.335859 54.229187
241 0 1 -10.204338 2.584268 54.838104
242 0 1 -10.216038 3.064447 55.674713
243 0 1 -10.552437 2.219000 55.720306
244 0 1 -11.196938 1.722177 56.164093
245 0 1 -11.834137 1.661897 55.404510
246 0 1 -12.233437 0.908537 55.777191
247 0 1 -12.300636 1.465406 56.532990
248 0 1 -11.684536 1.535436 57.253906
249 0 1 -12.237637 1.178320 57.958984
250 0 1 -11.477436 0.619226 57.841797
251 0 1 -12.272038 0.097879 57.963989
252 0 1 -12.911837 -0.616392 57.713593
253 0 1 -13.837337 -0.875662 57.654510
254 0 1 -14.690637 -0.600233 58.116394
255 0 1 -14.731637 -1.218653 58.904999
256 0 1 -14.259537 -1.902352 59.357605
257 0 1 -14.352337 -2.095623 60.265106
258 0 1 -13.625537 -2.031933 60.955017
259 0 1 -13.438537 -2.912403 60.585907
260 0 1 -12.776836 -2.938288 61.291595
261 0 1 -11.971436 -3.410357 61.032898
262 0 1 -11.279137 -3.486355 60.332703
263 0 1 -10.782936 -4.136982 59.888611
264 0 1 -9.930937 -4.017771 60.325012
265 0 1 -9.603138 -4.862673 59.869507
266 0 1 -8.689697 -4.512892 59.874207
267 0 1 -8.196306 -5.073502 60.489807
268 0 1 -7.424576 -4.915623 59.942993
269 0 1 -6.507317 -4.938202 60.260498
270 0 1 -6.068386 -4.848553 59.358612
271 0 1 -6.404766 -4.002856 59.005188
272 0 1 -6.442106 -3.110188 58.664917
273 0 1 -6.688707 -3.794239 58.074310
274 0 1 -6.109037 -3.388087 57.446991
275 0 1 -6.505007 -2.743641 56.843689
276 0 1 -6.062817 -2.627192 56.012085
277 0 1 -5.622017 -2.495253 55.155487
278 0 1 -6.157787 -2.225741 54.347412
279 0 1 -5.628456 -1.426024 54.463013
280 0 1 -5.632917 -1.116381 53.565796
281 0 1 -4.768667 -1.017691 53.910583
282 0 1 -4.274656 -0.497572 53.303497
283 0 1 -3.507517 -1.018153 53.039917
284 0 1 -3.955406 -1.835673 52.877014
285 0 1 -3.022396 -1.948752 52.590210
286 0 1 -3.192127 -2.841099 52.775391
287 0 1 -3.839756 -3.565352 52.773590
288 0 1 -3.572657 -3.591391 53.677002
289 0 1 -3.565657 -3.363804 54.581390
290 0 1 -3.346907 -4.332802 54.722809
291 0 1 -3.793568 -5.090653 54.237610
292 0 1 -3.559807 -5.725962 54.975494
293 0 1 -3.956486 -6.409813 54.427185
294 0 1 -3.746178 -6.822543 53.580688
295 0 1 -3.005987 -6.472672 53.132111
296 0 1 -2.192106 -6.745873 52.660004
297 0 1 -1.292557 -6.851243 52.312988
298 0 1 -0.698696 -7.503132 51.921112
299 0 1 -0.088737 -7.285622 52.603699
300 0 1 -0.197067 -6.374953 52.944611
301 0 1 0.770178 -6.393403 52.900391
302 0 1 0.539255 -6.990202 53.675507
303 0 1 1.092936 -7.705412 54.032715
304 0 1 1.955196 -7.620842 53.735199
305 0 1 1.914227 -6.671523 53.564087
306 0 1 2.338943 -5.865933 53.560913
307 0 1 2.530663 -5.407862 52.714203
308 0 1 3.483475 -5.330002 52.891388
309 0 1 3.903793 -5.141833 52.069611
310 0 1 4.745144 -5.568533 52.095703
311 0 1 4.931152 -6.448433 52.336700
312 0 1 5.403355 -6.323052 53.168488
313 0 1 6.017834 -6.415324 52.461487
314 0 1 6.636742 -6.961182 52.865692
315 0 1 7.213215 -7.735863 52.892700
316 0 1 8.148884 -7.804793 52.837402
317 0 1 8.287113 -8.473473 52.143188
318 0 1 8.579643 -7.602942 51.932983
319 0 1 9.125053 -7.026904 52.487610
320 0 1 9.403141 -6.858063 53.401703
321 0 1 9.771603 -5.972123 53.390594
322 0 1 9.464752 -5.095553 53.593109
323 0 1 8.916992 -5.280364 54.323212
324 0 1 8.824863 -4.387923 54.645508
325 0 1 9.379723 -4.315793 55.428284
326 0 1 9.895405 -3.520172 55.663605
327 0 1 9.567204 -2.818318 56.249908
328 0 1 9.049644 -2.756430 55.379303
329 0 1 9.203983 -1.785933 55.508789
330 0 1 8.320633 -1.786333 55.211487
331 0 1 7.914162 -1.398333 56.056885
332 0 1 8.193012 -0.551264 55.540283
333 0 1 9.187393 -0.679472 55.512299
334 0 1 9.944283 -1.129351 55.208893
335 0 1 10.380024 -0.341364 54.795502
336 0 1 11.160892 0.214109 54.707703
337 0 1 12.080563 0.126218 54.985596
338 0 1 11.828365 0.374216 55.897705
339 0 1 12.557465 0.148248 56.527588
340 0 1 12.754261 0.943487 56.063995
341 0 1 13.449963 1.119856 55.460602
342 0 1 13.827263 0.829446 54.638916
343 0 1 13.820763 -0.110323 54.354889
344 0 1 13.547665 -0.743563 53.671295
345 0 1 13.542461 -0.009104 53.021210
346 0 1 13.791065 -0.900874 52.618591
347 0 1 13.890663 -1.736653 52.152588
348 0 1 13.524963 -2.544281 52.609009
349 0 1 12.935863 -2.436447 51.831116
350 0 1 13.451763 -2.196648 51.052307
351 0 1 12.597263 -1.764143 51.126892
352 0 1 11.819965 -1.829043 51.617310
353 0 1 11.082203 -1.815403 52.237488
354 0 1 11.259464 -1.640202 53.182587
355 0 1 11.292362 -0.782503 53.605988
356 0 1 11.901363 -0.708151 52.852203
357 0 1 11.502064 -0.452044 51.899811
358 0 1 11.342163 0.497137 52.009094
359 0 1 11.109184 0.710947 51.085602
360 0 1 10.533512 1.157587 50.426605
361 0 1 9.629803 0.882139 50.328186
362 0 1 9.495514 0.831827 49.394897
363 0 1 9.780182 0.278997 48.646790
364 0 1 10.091251 0.528036 47.799805
365 0 1 10.370525 -0.007983 46.948303
366 0 1 10.417213 -0.946833 46.827515
367 0 1 10.369904 -1.548502 46.139587
368 0 1 10.562382 -1.583712 45.151794
369 0 1 10.791252 -1.636933 44.209503
370 0 1 10.722103 -1.510394 43.200195
371 0 1 11.114414 -1.457404 42.302094
372 0 1 10.562874 -1.190314 41.598511
373 0 1 10.660664 -1.112742 40.655090
374 0 1 10.379692 -0.442412 40.038696
375 0 1 9.985184 -0.094282 40.821899
376 0 1 9.459194 0.070646 41.608887
377 0 1 9.253841 0.523767 42.399902
378 0 1 8.271763 0.291986 42.456299
379 0 1 7.714592 0.676008 41.773102
380 0 1 7.651825 1.660246 41.945587
381 0 1 7.965584 1.832487 42.953491
382 0 1 8.533482 1.172338 43.428406
383 0 1 9.422276 0.821088 43.570312
384 0 1 9.618935 1.363676 44.406616
385 0 1 10.293743 2.030607 44.355103
386 0 1 10.271725 1.704446 43.411407
387 0 1 10.937263 2.321207 43.110107
388 0 1 11.612362 2.712629 42.588806
389 0 1 11.311665 3.618627 42.496613
390 0 1 10.695763 4.358377 42.397797
391 0 1 9.839523 4.224927 42.836395
392 0 1 9.354351 4.190607 43.727692
393 0 1 10.196201 4.701467 43.791107
394 0 1 9.732853 5.286386 43.139709
395 0 1 9.474262 5.816488 43.887085
396 0 1 9.125294 6.558828 44.373199
397 0 1 9.760742 6.127027 44.942291
398 0 1 9.236973 6.825696 45.352997
399 0 1 9.209583 7.782106 45.418091
400 0 1 9.986603 8.393908 45.588593
401 0 1 10.487324 9.190107 45.901398
402 0 1 11.290665 8.836206 45.624207
403 0 1 11.442863 9.766706 45.858215
404 0 1 11.062553 10.614008 45.613098
405 0 1 10.759792 11.103708 46.454407
406 0 1 9.786015 10.662306 46.455109
407 0 1 9.292973 10.207708 45.741608
408 0 1 9.281345 9.503008 45.082886
409 0 1 8.629814 8.840609 45.128296
410 0 1 8.024773 9.587809 45.231506
411 0 1 7.468285 9.182909 44.553284
412 0 1 6.495884 8.954607 44.519592
413 0 1 6.154213 9.504210 43.790894
414 0 1 6.888653 9.493608 43.250793
415 0 1 7.537632 10.195608 43.610291
416 0 1 7.131035 10.980009 43.221313
417 0 1 7.532871 11.913809 42.913086
418 0 1 7.923504 12.742407 43.054901
419 0 1 8.928833 12.797007 43.129211
420 0 1 9.946812 12.692007 43.037994
421 0 1 9.772572 12.624105 42.114502
422 0 1 9.155155 12.171309 41.538391
423 0 1 9.277733 12.122610 40.516998
424 0 1 10.090614 12.116209 40.047302
425 0 1 9.971153 13.060007 40.085815
426 0 1 10.291214 13.010710 40.962402
427 0 1 10.872265 12.192709 40.837891
428 0 1 11.345764 12.340307 41.693909
429 0 1 11.479061 12.336409 42.661896
430 0 1 12.274265 12.002108 43.052307
431 0 1 11.876461 11.073507 43.034790
432 0 1 12.323666 10.972906 43.842590
433 0 1 12.790665 10.232508 44.231995
434 0 1 12.169464 9.889708 43.559601
435 0 1 12.465565 8.994307 43.650909
436 0 1 12.848263 9.142408 42.820404
437 0 1 13.059063 8.221907 42.969208
438 0 1 13.630566 8.316507 42.207397
439 0 1 14.318462 8.203306 41.538086
440 0 1 14.177864 9.048807 41.138184
441 0 1 14.238762 8.303308 40.467896
442 0 1 14.397564 8.266806 39.514496
443 0 1 15.049465 7.883508 40.148712
444 0 1 14.555664 7.219408 39.575989
445 0 1 14.965061 6.369398 39.847687
446 0 1 15.333664 6.669340 39.077698
447 0 1 15.058964 6.527437 38.206604
448 0 1 15.873962 6.160158 37.825012
449 0 1 16.786564 6.380819 37.956390
450 0 1 17.168766 7.182409 37.635590
451 0 1 16.544765 7.388509 36.950195
452 0 1 15.817364 7.273107 36.291901
453 0 1 15.471066 6.516286 36.734985
454 0 1 14.557465 6.330335 36.609100
455 0 1 14.218662 5.876279 35.812012
456 0 1 14.919662 6.150678 35.171204
457 0 1 14.726364 6.978208 35.620697
458 0 1 13.714264 7.033506 35.471100
459 0 1 12.851963 6.990606 35.785706
460 0 1 12.282162 7.681108 36.138184
461 0 1 11.933064 7.048109 36.743713
462 0 1 11.090412 7.511610 36.750488
463 0 1 11.387363 7.967508 37.584595
464 0 1 10.784763 7.422708 38.053284
465 0 1 10.152084 8.051908 37.633789
466 0 1 10.119972 8.363909 38.592194
467 0 1 9.293034 8.824007 38.508789
468 0 1 8.647903 8.168608 38.309113
469 0 1 8.389885 8.338209 39.159210
470 0 1 7.542835 7.870107 39.046692
471 0 1 7.671684 8.437407 38.320404
472 0 1 6.899464 8.876905 38.740784
473 0 1 6.115494 9.465609 39.052307
474 0 1 5.703365 9.203707 39.872711
475 0 1 4.896034 8.931807 40.283112
476 0 1 3.969193 9.157007 39.845215
477 0 1 3.075684 9.271910 39.515106
478 0 1 3.678432 8.961409 38.824707
479 0 1 4.223312 9.189810 38.030792
480 0 1 3.293972 9.097208 37.641296
481 0 1 3.602283 10.026506 37.575287
482 0 1 2.955002 10.038309 36.933411
483 0 1 2.917095 10.904806 37.242401
484 0 1 2.818111 11.808107 37.020294
485 0 1 3.352352 11.405607 36.328888
486 0 1 3.101093 12.205107 35.923401
487 0 1 2.878551 11.756907 35.122711
488 0 1 2.395863 12.592009 35.251801
489 0 1 1.734343 11.846006 35.331512
490 0 1 1.007788 11.543909 35.924896
491 0 1 1.302645 10.681707 36.243195
492 0 1 1.612761 9.824907 36.518402
493 0 1 2.209034 9.359507 35.917114
494 0 1 1.962582 8.382910 36.160583
495 0 1 2.275143 7.505907 36.302094
496 0 1 2.727253 6.712507 36.538300
497 0 1 3.233635 6.059118 37.070709
498 0 1 3.930134 6.430856 36.511810
499 0 1 3.727585 7.033605 35.794312
500 0 1 4.450481 7.273206 35.252686
501 0 1 3.691002 7.332006 34.630005
502 0 1 3.552143 7.536207 33.657196
503 0 1 3.453243 7.948007 32.736694
504 0 1 4.330563 8.181108 32.838593
505 0 1 3.866272 8.955408 32.913086
506 0 1 3.165295 9.336908 33.470215
507 0 1 3.968964 9.662008 33.806488
508 0 1 4.117954 10.053007 32.962494
509 0 1 4.781551 10.575708 32.466492
510 0 1 5.748684 10.758909 32.474396
511 0 1 6.678894 10.474508 32.318909
512 0 1 7.103481 9.652510 32.235687
513 0 1 6.890923 9.300207 31.362305
514 0 1 7.566833 8.699907 31.683594
515 0 1 7.837364 7.877607 31.154114
516 0 1 8.334225 8.655409 30.845703
517 0 1 7.913902 9.338408 30.332611
518 0 1 7.463955 8.928106 29.514099
519 0 1 8.015465 8.840010 28.778687
520 0 1 8.873932 8.754210 28.347595
521 0 1 8.647205 8.195509 27.570587
522 0 1 8.224403 8.025007 26.730011
523 0 1 8.436962 7.831407 25.825500
524 0 1 8.404995 6.892255 25.451202
525 0 1 9.153393 6.908758 25.927399
526 0 1 8.614613 6.945817 26.686188
527 0 1 9.483532 7.021707 26.971893
528 0 1 10.420334 7.266008 27.083984
529 0 1 11.329964 7.155706 26.885101
530 0 1 11.746761 6.251890 26.880615
531 0 1 11.938465 5.706987 27.662598
532 0 1 11.999165 4.780378 27.847290
533 0 1 12.489765 4.553426 28.602814
534 0 1 11.658962 4.577707 29.105194
535 0 1 11.917862 4.134836 29.955597
536 0 1 11.587261 5.040418 30.240601
537 0 1 10.687016 5.525457 30.377991
538 0 1 10.008743 5.115396 30.911407
539 0 1 10.569473 5.660406 31.541504
540 0 1 10.666973 6.554609 31.453888
541 0 1 10.813553 6.912427 30.541595
542 0 1 9.941921 7.301408 30.542694
543 0 1 9.111813 7.722406 30.592102
544 0 1 8.693012 6.898157 30.432404
545 0 1 8.438541 6.123086 29.997009
546 0 1 8.028435 5.358026 30.382904
547 0 1 7.308434 5.606649 31.031311
548 0 1 6.903934 4.773199 30.834198
549 0 1 7.367203 4.441347 30.032501
550 0 1 7.417122 4.179758 29.115509
551 0 1 7.152012 5.044698 28.755096
552 0 1 6.395672 5.477838 28.287506
553 0 1 5.732704 5.146768 28.888214
554 0 1 5.371124 4.984087 29.790497
555 0 1 5.088634 4.983907 30.683197
556 0 1 5.626392 4.189138 30.350403
557 0 1 5.580044 3.484686 29.644897
558 0 1 6.001553 2.879167 28.904694
559 0 1 5.419254 2.662767 28.148895
560 0 1 4.754402 2.015848 28.442810
561 0 1 4.039482 2.028368 29.062592
562 0 1 3.441025 2.695158 29.486389
563 0 1 3.384613 3.501177 29.001404
564 0 1 2.558464 3.241968 28.521484
565 0 1 1.989632 3.719167 27.893097
566 0 1 1.749460 3.463209 26.979309
567 0 1 1.094912 3.597337 26.299286
568 0 1 1.936022 3.838739 25.797791
569 0 1 2.581463 3.686788 25.131500
570 0 1 2.483664 4.634176 25.001312
571 0 1 1.783245 5.286756 24.997406
572 0 1 1.369701 4.465059 24.629700
573 0 1 1.568892 3.524347 24.650604
574 0 1 1.427708 2.806379 23.963013
575 0 1 0.592226 3.184309 23.644409
576 0 1 0.503101 2.423288 23.132599
577 0 1 -0.385826 2.671446 23.065796
578 0 1 -1.095226 2.105058 23.470306
579 0 1 -0.417276 1.445959 23.514801
580 0 1 -0.663977 0.608827 23.904999
581 0 1 -0.688827 0.417139 24.829987
582 0 1 0.236954 0.132806 25.080994
583 0 1 0.671600 -0.732024 25.195984
584 0 1 1.032806 -0.166003 24.544403
585 0 1 0.582201 -0.473482 23.750092
586 0 1 1.067909 -1.321692 23.610596
587 0 1 1.859137 -0.834532 23.971985
588 0 1 2.024555 -1.637072 24.385986
589 0 1 1.343225 -1.779312 25.017487
590 0 1 2.008350 -1.171713 25.401306
591 0 1 2.557743 -1.360731 26.133606
592 0 1 1.616106 -1.495661 26.510590
593 0 1 0.815466 -1.691613 26.936096
594 0 1 0.050963 -1.026614 27.008392
595 0 1 0.914042 -0.612032 26.895691
596 0 1 1.509211 -0.724253 27.632996
597 0 1 1.566923 -0.152644 28.412109
598 0 1 1.310696 -0.335501 29.264404
599 0 1 0.991444 0.311796 29.886200
600 0 1 0.133944 0.249136 30.331207
601 0 1 0.103613 1.073087 30.841400
602 0 1 0.725405 1.776029 31.010803
603 0 1 0.589647 2.175207 30.120209
604 0 1 -0.343866 1.966009 30.128204
605 0 1 -0.709776 2.458486 30.820496
606 0 1 -1.635548 2.304876 31.042694
607 0 1 -1.400806 3.038347 31.549896
608 0 1 -0.908398 3.481809 30.884796
609 0 1 -1.218256 4.173215 30.290009
610 0 1 -0.998056 5.136678 30.218689
611 0 1 -1.093367 5.459409 29.336914
612 0 1 -1.937277 5.727476 29.003906
613 0 1 -2.550556 6.501798 29.215607
614 0 1 -3.134237 6.702917 29.956696
615 0 1 -3.129177 6.942918 30.876099
616 0 1 -2.484476 7.594709 30.774689
617 0 1 -2.720577 8.365507 31.301392
618 0 1 -1.673157 8.402006 31.376495
619 0 1 -0.657886 8.265509 31.479889
620 0 1 -0.734066 9.212210 31.662903
621 0 1 -0.583456 8.904806 32.559998
622 0 1 -1.474617 9.353506 32.379089
623 0 1 -2.291117 8.944109 32.785400
624 0 1 -3.212437 9.146109 33.060791
625 0 1 -3.902966 8.931208 33.653595
626 0 1 -4.500977 8.120008 33.811096
627 0 1 -4.145847 7.408109 33.221405
628 0 1 -4.826557 7.703706 32.580383
629 0 1 -4.357367 6.874769 32.220093
630 0 1 -5.052906 6.375646 32.655396
631 0 1 -6.013496 6.140897 32.646606
632 0 1 -5.798237 7.060606 32.763092
633 0 1 -6.618786 6.883558 32.252289
634 0 1 -7.286007 7.395010 32.722687
635 0 1 -7.998447 7.456609 32.093292
636 0 1 -8.449036 7.990507 31.392212
637 0 1 -8.642906 8.919008 31.829590
638 0 1 -8.369066 9.402609 32.635010
639 0 1 -8.346457 8.723207 33.386505
640 0 1 -9.216038 8.838110 33.047089
641 0 1 -9.037037 9.332407 33.820190
642 0 1 -9.506836 10.032507 33.414917
643 0 1 -10.288736 9.475908 33.764404
644 0 1 -11.324137 9.518606 33.648315
645 0 1 -12.193436 9.769808 34.016693
646 0 1 -12.308737 9.040609 34.636108
647 0 1 -12.599636 8.371408 33.976501
648 0 1 -12.374435 8.077909 33.072296
649 0 1 -12.357737 8.912710 32.616089
650 0 1 -11.965937 9.371008 31.910492
651 0 1 -11.844738 9.401808 30.943390
652 0 1 -12.094236 8.567308 30.454102
653 0 1 -11.835537 7.677606 30.580811
654 0 1 -11.808336 7.327207 29.730011
655 0 1 -12.361036 7.346307 28.944092
656 0 1 -12.565136 8.027609 28.294891
657 0 1 -11.829237 7.579607 27.892792
658 0 1 -11.528038 8.192308 28.608307
659 0 1 -10.837337 7.697908 29.063416
660 0 1 -10.608036 8.626307 28.885315
661 0 1 -10.045937 8.778509 28.122803
662 0 1 -9.993437 8.526907 27.238007
663 0 1 -9.375437 7.958208 27.687592
664 0 1 -8.508938 7.742807 28.088898
665 0 1 -8.339327 8.713709 28.124603
666 0 1 -7.878206 9.205709 27.359802
667 0 1 -7.657297 9.224909 26.459106
668 0 1 -8.086006 9.175306 25.561005
669 0 1 -9.037136 8.926306 25.745209
670 0 1 -9.396038 8.243307 25.211212
671 0 1 -9.887936 8.398207 24.438812
672 0 1 -9.188236 8.191507 23.756897
673 0 1 -8.335127 7.686906 23.568207
674 0 1 -8.601917 7.549608 22.622894
675 0 1 -9.009537 8.365408 22.211105
676 0 1 -8.664217 9.182409 21.658295
677 0 1 -8.182346 8.754507 20.982803
678 0 1 -8.606417 9.479910 20.490295
679 0 1 -9.257538 9.206106 19.762299
680 0 1 -9.446836 10.098009 19.873993
681 0 1 -8.726686 10.654707 19.781708
682 0 1 -7.872498 11.064909 19.847397
683 0 1 -7.309258 10.261507 19.687897
684 0 1 -7.429256 9.613108 19.007095
685 0 1 -7.207256 9.124807 18.168503
686 0 1 -7.765827 8.283110 18.129501
687 0 1 -6.972967 7.659505 18.075592
688 0 1 -6.251396 8.005007 18.691696
689 0 1 -5.819466 8.509909 19.350494
690 0 1 -5.405308 9.334410 19.278702
691 0 1 -4.619257 8.979807 19.004395
692 0 1 -3.964397 8.689009 18.372803
693 0 1 -4.540457 8.883307 17.509796
694 0 1 -4.656406 8.687307 16.570297
695 0 1 -5.093586 8.568907 15.670898
696 0 1 -4.392246 9.314707 15.468903
697 0 1 -3.978647 10.193907 15.752197
698 0 1 -3.027227 10.133608 15.614807
699 0 1 -2.311907 10.915308 15.719696
700 0 1 -1.371136 10.825209 16.210098
701 0 1 -0.606808 10.419806 16.750397
702 0 1 -0.753616 9.567308 16.370697
703 0 1 -1.534237 9.010508 16.649506
704 0 1 -1.810387 9.185808 15.716995
705 0 1 -2.000647 9.231207 14.811295
706 0 1 -1.968407 9.682310 13.914398
707 0 1 -1.599577 10.596006 14.093796
708 0 1 -1.892647 10.603907 13.185196
709 0 1 -1.288376 11.344007 12.894592
710 0 1 -0.766676 12.207006 12.778107
711 0 1 -1.202248 12.829409 13.377304
712 0 1 -0.538906 12.567610 14.063797
713 0 1 0.208471 13.007608 14.403503
714 0 1 0.743765 12.783907 13.590103
715 0 1 0.879410 13.548208 13.025894
716 0 1 -0.044176 13.810507 12.791794
717 0 1 0.188122 14.462706 13.435699
718 0 1 0.318108 15.420908 13.119797
719 0 1 1.143118 15.594408 13.655502
720 0 1 1.324993 16.467108 13.835495
721 0 1 0.564312 17.055906 13.583298
722 0 1 0.040644 17.868910 13.191803
723 0 1 -0.882317 17.832106 12.953094
724 0 1 -1.817167 17.690508 13.189499
725 0 1 -1.859066 16.750006 13.271896
726 0 1 -2.532766 16.991110 12.570999
727 0 1 -2.444916 17.920210 12.274704
728 0 1 -2.759068 18.880808 12.465393
729 0 1 -2.115137 19.430410 11.872604
730 0 1 -2.517206 20.083807 11.214798
731 0 1 -1.894726 20.105406 10.445007
732 0 1 -2.318567 19.721106 9.691223
733 0 1 -3.298777 19.717710 9.451355
734 0 1 -3.377777 19.118307 8.751282
735 0 1 -3.600677 18.701010 7.895935
736 0 1 -3.549307 19.148607 7.044220
737 0 1 -4.343197 18.954908 6.407745
738 0 1 -3.617937 19.595610 5.965103
739 0 1 -2.832947 19.238607 5.642471
740 0 1 -2.404867 18.386309 5.851593
741 0 1 -1.987446 17.519407 5.591812
742 0 1 -1.543207 17.043905 4.912018
743 0 1 -1.179506 16.241308 4.573959
744 0 1 -1.373087 15.341505 4.340424
745 0 1 -1.297497 15.078711 3.379364
746 0 1 -2.134916 15.444609 2.985794
747 0 1 -2.784956 15.421007 2.283432
748 0 1 -2.307947 14.695509 1.790787
749 0 1 -2.123356 13.715708 1.852326
750 0 1 -1.377617 14.120710 1.450485
751 0 1 -1.102596 13.226007 1.794800
752 0 1 -1.008247 12.305307 1.679367
753 0 1 -0.162897 11.814909 1.782135
754 0 1 0.493929 12.321806 1.221710
755 0 1 1.391747 12.070410 1.196915
756 0 1 1.303175 11.080507 0.980972
757 0 1 1.595728 10.769007 1.808396
758 0 1 1.282057 9.960310 1.484467
759 0 1 1.275774 9.027208 1.284805
760 0 1 1.488804 8.698706 2.154328
761 0 1 1.589018 8.200006 2.944763
762 0 1 2.098028 7.430006 3.178162
763 0 1 2.964832 7.015306 2.937683
764 0 1 3.774334 6.992406 3.389267
765 0 1 4.072075 6.362459 2.753617
766 0 1 4.860443 6.828748 3.019730
767 0 1 4.810993 7.387407 3.776871
768 0 1 5.634785 7.418409 4.271637
769 0 1 6.354843 7.652708 4.872528
770 0 1 6.799973 6.966909 5.514801
771 0 1 5.910805 6.731306 5.257278
772 0 1 5.148674 6.161138 5.399765
773 0 1 5.273815 6.329328 6.351868
774 0 1 4.681564 5.853967 6.938629
775 0 1 3.946594 6.297689 7.385269
776 0 1 3.675354 6.725427 8.214233
777 0 1 4.299404 7.511507 8.268875
778 0 1 4.465534 8.160009 7.510086
779 0 1 3.738743 8.708006 7.000076
780 0 1 3.439995 8.159506 6.335068
781 0 1 2.474604 8.381609 6.526047
782 0 1 1.550829 8.160307 7.018921
783 0 1 1.250582 9.074808 6.690048
784 0 1 1.409962 8.752207 5.679626
785 0 1 1.340681 7.885007 5.332001
786 0 1 0.517681 7.963407 5.712326
787 0 1 0.137323 8.817408 5.814270
788 0 1 -0.017706 9.732008 5.951721
789 0 1 0.560522 10.381609 6.422058
790 0 1 1.474756 10.370008 6.845337
791 0 1 1.445833 11.084509 6.214020
792 0 1 2.204292 11.350107 6.697861
793 0 1 2.749813 12.116407 6.880554
794 0 1 3.331932 11.517706 7.374939
795 0 1 4.266045 11.675810 7.630478
796 0 1 4.592793 11.260508 8.457626
797 0 1 4.432095 10.224806 8.500916
798 0 1 4.526344 10.578207 7.600998
799 0 1 4.458374 9.735807 7.220795
800 0 1 3.910343 9.402407 7.963943
801 0 1 3.242115 8.833006 8.344940