LAMMPS data file via MDAnalysis

        2000  atoms
        1999  bonds
           0  angles
           0  dihedrals
           0  impropers

           1  atom types
           1  bond types
           0  angle types
           0  dihedral types
           0  improper types

-30.5 30.5 xlo xhi
-30.5 30.5 ylo yhi
-233.5 233.5 zlo zhi


Masses

1 1.000000

Atoms

1 0 1 2.978503 -0.074079 16.134005
2 0 1 3.207491 -1.034479 16.278505
3 0 1 3.908991 -0.568617 15.923402
4 0 1 4.689810 -0.104196 15.451600
5 0 1 4.250533 0.663454 15.018205
6 0 1 4.971041 0.791392 14.445008
7 0 1 5.580241 0.330492 13.859895
8 0 1 5.002711 0.036784 13.134797
9 0 1 5.461543 0.489291 12.402696
10 0 1 5.189330 -0.205339 11.678605
11 0 1 4.713740 0.199244 10.834702
12 0 1 3.924071 -0.160978 10.361100
13 0 1 3.049101 0.007094 10.742997
14 0 1 2.790911 -0.795606 11.210099
15 0 1 3.395201 -1.538656 11.417909
16 0 1 2.976610 -2.376127 11.037904
17 0 1 2.851340 -3.086069 10.400697
18 0 1 3.554350 -2.893388 9.744065
19 0 1 4.238871 -2.706647 9.146897
20 0 1 4.199709 -3.639244 9.354173
21 0 1 4.816802 -3.877502 8.612306
22 0 1 5.140421 -4.503305 7.957399
23 0 1 4.677161 -5.161571 8.375566
24 0 1 3.905970 -5.816417 8.335008
25 0 1 4.081950 -6.648757 8.896516
26 0 1 3.336993 -6.852687 8.309266
27 0 1 2.360201 -7.032278 8.264039
28 0 1 2.343333 -6.067007 8.416596
29 0 1 2.501513 -5.319499 7.848299
30 0 1 2.075560 -5.924787 7.185274
31 0 1 2.011542 -6.816728 7.056077
32 0 1 1.082800 -6.615888 7.304887
33 0 1 1.126791 -5.757658 6.820421
34 0 1 0.642561 -5.659667 6.008272
35 0 1 1.161391 -4.824945 5.861650
36 0 1 1.585730 -4.278184 6.519197
37 0 1 1.299780 -3.309688 6.521318
38 0 1 0.857863 -3.073858 5.714326
39 0 1 0.252852 -3.256958 6.343248
40 0 1 -0.196581 -2.905309 7.059526
41 0 1 -0.078233 -3.253938 7.915437
42 0 1 -0.225845 -3.726192 8.807969
43 0 1 -0.712591 -4.349077 8.262345
44 0 1 -1.228595 -3.730176 8.782166
45 0 1 -1.987869 -3.820953 8.330766
46 0 1 -2.556309 -3.638107 7.552644
47 0 1 -3.028929 -4.430486 7.766374
48 0 1 -3.078350 -4.669775 8.690568
49 0 1 -3.132419 -4.774147 9.670640
50 0 1 -3.459160 -5.173021 10.486909
51 0 1 -4.051858 -5.789077 9.880097
52 0 1 -4.940969 -5.762548 10.287797
53 0 1 -4.939748 -4.897018 10.567201
54 0 1 -5.551229 -4.242109 10.858903
55 0 1 -6.007968 -3.744508 10.184205
56 0 1 -5.900129 -2.862627 10.557801
57 0 1 -5.520029 -3.029569 11.422395
58 0 1 -4.835699 -3.219676 10.800294
59 0 1 -3.991419 -3.035268 11.258500
60 0 1 -3.700979 -2.742349 10.379197
61 0 1 -3.057539 -1.992097 10.318894
62 0 1 -3.751199 -1.587247 10.964295
63 0 1 -4.689249 -1.200658 11.000504
64 0 1 -4.728118 -1.133798 11.937806
65 0 1 -5.239370 -1.287977 12.744096
66 0 1 -5.423288 -1.415769 13.685899
67 0 1 -4.647829 -0.812437 13.806306
68 0 1 -4.568689 -1.608945 14.361497
69 0 1 -5.202119 -1.765169 14.994096
70 0 1 -5.615379 -2.605989 14.973695
71 0 1 -6.246969 -3.364767 14.884400
72 0 1 -6.963439 -3.761974 14.377305
73 0 1 -7.853908 -4.101432 14.017503
74 0 1 -8.822720 -3.724981 13.990006
75 0 1 -9.471720 -3.863878 13.316300
76 0 1 -9.735479 -4.256761 14.133195
77 0 1 -9.001429 -4.560815 14.621202
78 0 1 -8.436209 -4.369064 15.437394
79 0 1 -8.371500 -4.864742 16.281099
80 0 1 -8.273779 -5.455625 15.544694
81 0 1 -7.696798 -6.106487 16.037706
82 0 1 -8.334129 -6.807107 16.419710
83 0 1 -7.476699 -7.169727 16.250399
84 0 1 -6.498748 -7.459047 16.394106
85 0 1 -6.930158 -8.244707 15.913804
86 0 1 -6.481189 -8.676119 15.171006
87 0 1 -5.777969 -9.289827 15.489808
88 0 1 -5.428529 -9.383738 16.444307
89 0 1 -4.498548 -9.041908 16.114504
90 0 1 -4.872859 -8.167189 15.785798
91 0 1 -4.878049 -7.790567 14.906495
92 0 1 -4.525548 -8.644737 14.877305
93 0 1 -4.900489 -8.247578 14.047303
94 0 1 -4.740179 -7.971277 13.080506
95 0 1 -4.983959 -8.679558 12.518006
96 0 1 -4.647558 -9.442358 12.032899
97 0 1 -3.883129 -9.595789 11.470399
98 0 1 -2.965879 -9.629408 11.185502
99 0 1 -2.988779 -10.411238 10.672196
100 0 1 -3.376638 -11.237577 10.641603
101 0 1 -3.698478 -11.537619 9.807588
102 0 1 -4.588029 -11.178577 10.005906
103 0 1 -5.173250 -11.384487 10.796205
104 0 1 -5.574169 -10.811237 11.493699
105 0 1 -5.339038 -9.933039 11.197206
106 0 1 -6.092908 -9.544687 11.774095
107 0 1 -5.868459 -8.655008 11.496308
108 0 1 -6.677469 -8.025158 11.509507
109 0 1 -7.518758 -8.404127 11.344804
110 0 1 -8.388609 -8.790659 11.281800
111 0 1 -8.340448 -8.780888 12.227906
112 0 1 -7.999858 -7.979557 12.531800
113 0 1 -7.917968 -7.122587 12.843598
114 0 1 -7.081949 -6.449798 12.733705
115 0 1 -7.858539 -6.008388 12.995500
116 0 1 -8.496090 -6.158098 13.698701
117 0 1 -8.992620 -6.509687 12.860993
118 0 1 -9.490889 -7.172157 13.341004
119 0 1 -10.223379 -6.626028 13.594895
120 0 1 -11.070490 -6.345577 13.851701
121 0 1 -11.434389 -5.572500 13.193498
122 0 1 -12.245190 -5.966537 13.519593
123 0 1 -12.974390 -5.853387 14.116807
124 0 1 -13.664089 -6.515508 14.463304
125 0 1 -13.140390 -6.455297 15.259202
126 0 1 -12.734289 -7.026187 16.025209
127 0 1 -12.136389 -7.474628 16.617403
128 0 1 -11.210390 -7.367237 16.337999
129 0 1 -11.021589 -7.219757 15.444703
130 0 1 -11.843689 -7.771657 15.314195
131 0 1 -12.533489 -8.093967 14.707200
132 0 1 -13.238588 -8.133879 15.425294
133 0 1 -13.683189 -8.123907 16.326509
134 0 1 -13.391689 -8.749739 16.968706
135 0 1 -13.194990 -9.486378 17.538698
136 0 1 -13.366388 -9.420547 18.496706
137 0 1 -12.809790 -8.608198 18.401903
138 0 1 -12.177389 -8.505558 19.126406
139 0 1 -12.436890 -8.047028 19.889208
140 0 1 -12.604788 -7.818477 20.780703
141 0 1 -11.731890 -8.306997 20.869707
142 0 1 -12.051989 -8.230429 21.813005
143 0 1 -12.022789 -9.207458 21.787203
144 0 1 -12.906889 -9.497578 21.898500
145 0 1 -12.615589 -8.863207 22.571993
146 0 1 -12.475988 -7.993558 22.848909
147 0 1 -13.103788 -7.627008 22.228304
148 0 1 -13.256689 -6.689357 21.946505
149 0 1 -12.414888 -6.339036 21.933397
150 0 1 -11.824089 -6.413608 22.638002
151 0 1 -10.979990 -6.193298 23.087191
152 0 1 -11.034590 -5.724308 23.962099
153 0 1 -10.870378 -4.985931 23.407106
154 0 1 -10.563070 -5.134611 22.470705
155 0 1 -10.054380 -4.365325 22.494295
156 0 1 -9.405609 -3.775882 22.987398
157 0 1 -9.403460 -3.005636 23.517092
158 0 1 -10.325809 -2.845048 23.443209
159 0 1 -10.789488 -1.996076 23.828798
160 0 1 -11.152189 -2.437948 24.601107
161 0 1 -10.912889 -2.834409 25.454409
162 0 1 -10.286219 -2.957849 26.239992
163 0 1 -9.452780 -2.654699 25.881289
164 0 1 -8.762880 -3.190588 26.365297
165 0 1 -7.794118 -3.125827 26.406801
166 0 1 -7.670009 -4.110050 26.479189
167 0 1 -7.651548 -5.035839 25.928316
168 0 1 -7.629999 -6.004867 25.668489
169 0 1 -8.039358 -5.477750 25.005190
170 0 1 -7.123439 -5.263147 24.697206
171 0 1 -6.819490 -6.055408 24.254702
172 0 1 -7.572519 -6.649578 24.019594
173 0 1 -7.570369 -7.646987 23.994112
174 0 1 -7.941059 -8.156258 24.692598
175 0 1 -8.899130 -8.019709 24.819094
176 0 1 -9.074308 -8.889479 24.613008
177 0 1 -8.615938 -9.314077 23.919405
178 0 1 -8.625919 -9.958927 23.204103
179 0 1 -8.368670 -10.869537 23.147799
180 0 1 -8.724058 -10.601418 24.047213
181 0 1 -8.467319 -10.132217 24.842196
182 0 1 -7.793529 -9.667778 25.286318
183 0 1 -7.220079 -9.420038 24.499208
184 0 1 -6.609289 -8.666348 24.625490
185 0 1 -5.876449 -8.129137 24.322115
186 0 1 -6.657709 -8.218828 23.752687
187 0 1 -6.980899 -8.485767 22.892092
188 0 1 -5.954198 -8.572779 22.970491
189 0 1 -6.476369 -9.411547 22.745516
190 0 1 -5.573278 -9.573717 23.037691
191 0 1 -4.748079 -9.656818 23.597506
192 0 1 -4.626258 -9.529987 24.564394
193 0 1 -3.833858 -9.447628 25.054995
194 0 1 -4.587848 -9.572498 25.657991
195 0 1 -5.147359 -9.032768 26.230593
196 0 1 -5.601820 -8.180908 25.899111
197 0 1 -5.437448 -7.249067 26.089296
198 0 1 -5.803619 -6.365377 26.375399
199 0 1 -5.375650 -6.410358 27.231508
200 0 1 -5.271148 -5.524641 27.102907
201 0 1 -4.506198 -5.734638 26.470705
202 0 1 -4.211938 -6.232667 27.249300
203 0 1 -3.482149 -5.633588 27.321505
204 0 1 -3.784109 -5.243808 28.135012
205 0 1 -3.885069 -5.808847 28.949800
206 0 1 -3.425268 -6.694627 29.206209
207 0 1 -2.978550 -7.356817 29.820192
208 0 1 -2.418548 -6.656238 30.214296
209 0 1 -1.711969 -7.378097 30.269594
210 0 1 -2.033520 -7.670967 29.397707
211 0 1 -2.002668 -8.478767 28.828005
212 0 1 -1.055357 -8.702188 28.736696
213 0 1 -1.239473 -9.316957 29.464296
214 0 1 -0.412975 -9.718828 29.905214
215 0 1 -1.201097 -9.552008 30.496492
216 0 1 -1.358003 -8.843988 31.155703
217 0 1 -0.592437 -8.944958 31.700289
218 0 1 0.170641 -9.190268 32.199188
219 0 1 0.876192 -8.601467 31.972200
220 0 1 0.999892 -7.611547 32.255402
221 0 1 0.277632 -6.949558 32.428101
222 0 1 1.065462 -6.477178 32.454102
223 0 1 1.269572 -6.195688 31.557314
224 0 1 2.003992 -6.745588 31.333315
225 0 1 2.696020 -6.215898 30.961916
226 0 1 2.513361 -5.546390 30.313601
227 0 1 3.485163 -5.570636 30.116091
228 0 1 2.875670 -5.437856 29.304018
229 0 1 3.285612 -5.924297 28.544405
230 0 1 3.198809 -6.587907 27.837893
231 0 1 4.234950 -6.517988 27.550905
232 0 1 4.929190 -7.022336 28.032717
233 0 1 5.450720 -7.748147 27.696901
234 0 1 5.222483 -7.907047 26.754793
235 0 1 4.685820 -7.669977 26.035799
236 0 1 3.991202 -7.056478 25.922213
237 0 1 3.238859 -7.478607 26.224489
238 0 1 2.809580 -7.098428 25.388613
239 0 1 1.918272 -7.361017 25.260500
240 0 1 2.025412 -6.839357 24.444704
241 0 1 2.685923 -7.341787 23.856508
242 0 1 3.185763 -6.779277 24.512911
243 0 1 4.050032 -6.767097 24.142305
244 0 1 4.919039 -6.902587 24.515108
245 0 1 5.288981 -7.131427 25.353212
246 0 1 5.943560 -7.376997 26.089602
247 0 1 6.620661 -6.764448 26.024111
248 0 1 6.707961 -6.640228 26.951601
249 0 1 6.042803 -5.982498 26.537600
250 0 1 5.607371 -5.574014 25.722109
251 0 1 5.417162 -5.695297 24.767214
252 0 1 6.261603 -5.252290 24.546694
253 0 1 7.148772 -5.231470 24.924990
254 0 1 7.286040 -4.905628 25.829409
255 0 1 7.922610 -4.397489 25.390688
256 0 1 8.278372 -3.465257 25.092714
257 0 1 7.835452 -2.872709 24.550295
258 0 1 8.063810 -2.082437 25.079287
259 0 1 8.541151 -1.900427 25.842012
260 0 1 8.864019 -2.747266 26.199190
261 0 1 9.328012 -2.350286 26.930208
262 0 1 10.029409 -2.913259 27.383394
263 0 1 10.303911 -1.961317 27.320192
264 0 1 9.487112 -1.455877 27.664186
265 0 1 9.169611 -1.376848 28.589693
266 0 1 9.108309 -0.531816 29.048311
267 0 1 8.244390 -0.445829 28.580996
268 0 1 8.533510 0.474234 28.689699
269 0 1 8.755548 0.937033 27.912996
270 0 1 9.614012 0.774142 28.360109
271 0 1 10.324610 0.500891 28.953615
272 0 1 11.037611 -0.081556 29.191103
273 0 1 11.235712 -0.112398 28.250216
274 0 1 10.280210 -0.144979 27.782198
275 0 1 10.553209 0.687624 27.451693
276 0 1 11.055510 1.309931 27.933992
277 0 1 11.995810 1.283751 28.123598
278 0 1 12.151609 0.522822 27.544405
279 0 1 12.845812 0.324961 28.183901
280 0 1 12.738512 -0.641416 28.346498
281 0 1 13.109110 -1.208078 29.030214
282 0 1 13.625010 -1.606348 28.272097
283 0 1 13.504808 -2.545507 28.475893
284 0 1 12.728811 -2.145689 27.963808
285 0 1 12.890909 -2.976926 27.533510
286 0 1 12.780012 -3.446098 26.692598
287 0 1 12.803911 -4.077817 25.968386
288 0 1 13.436010 -4.215156 25.241091
289 0 1 13.376909 -3.780473 24.429903
290 0 1 12.929613 -3.312276 23.685091
291 0 1 12.240709 -3.303447 23.020205
292 0 1 12.382608 -3.518388 22.089708
293 0 1 12.096010 -2.564916 22.035402
294 0 1 11.415609 -2.055028 21.550203
295 0 1 11.715212 -2.389959 20.694597
296 0 1 11.259409 -1.570047 20.604494
297 0 1 10.442911 -1.934118 20.269106
298 0 1 10.513208 -1.433656 19.442202
299 0 1 11.100309 -1.949686 18.843203
300 0 1 12.027811 -1.806627 18.637896
301 0 1 13.022612 -1.697076 18.570101
302 0 1 13.480410 -1.287237 19.412096
303 0 1 13.853212 -2.213808 19.746096
304 0 1 14.067511 -3.218277 19.408098
305 0 1 13.915609 -3.741374 18.587908
306 0 1 13.805811 -4.649131 18.846300
307 0 1 13.264811 -4.753803 18.047197
308 0 1 13.038912 -5.234767 17.166994
309 0 1 12.595713 -5.897058 17.729799
310 0 1 13.024611 -5.987117 18.487307
311 0 1 13.858912 -5.951318 17.977999
312 0 1 14.161810 -6.790657 18.372103
313 0 1 15.032709 -6.509988 17.954195
314 0 1 15.465311 -5.683797 17.982103
315 0 1 15.635012 -5.274156 17.134203
316 0 1 16.050810 -5.320024 16.209398
317 0 1 15.822313 -6.161047 15.668595
318 0 1 15.210512 -5.613788 15.238206
319 0 1 16.111010 -5.336517 14.899903
320 0 1 15.769312 -5.256702 14.008698
321 0 1 15.562311 -5.963827 13.393601
322 0 1 15.972910 -5.232896 12.765199
323 0 1 15.394312 -4.533012 12.462403
324 0 1 15.524210 -3.718215 12.838700
325 0 1 14.880110 -2.967699 12.941804
326 0 1 15.450010 -2.158166 13.019700
327 0 1 16.277910 -2.310796 13.432405
328 0 1 15.822111 -2.531778 14.179200
329 0 1 16.455111 -3.153808 14.582398
330 0 1 16.616011 -3.941328 15.192796
331 0 1 17.213011 -3.611434 15.808503
332 0 1 16.912012 -3.631132 16.731401
333 0 1 17.037611 -3.374378 17.613497
334 0 1 16.603910 -3.846780 18.311495
335 0 1 17.561113 -3.801092 18.460207
336 0 1 18.475412 -3.394357 18.611696
337 0 1 18.900610 -2.792509 18.008806
338 0 1 19.710512 -3.338218 18.097994
339 0 1 20.033709 -3.385927 17.224596
340 0 1 20.699312 -2.678976 17.221895
341 0 1 21.256910 -3.254688 17.755404
342 0 1 21.250311 -3.985876 18.465197
343 0 1 21.659010 -4.461109 17.768999
344 0 1 21.222612 -5.318401 17.612795
345 0 1 21.675112 -5.649978 16.796801
346 0 1 21.425211 -6.487586 17.249208
347 0 1 21.911711 -7.082326 17.828997
348 0 1 21.835112 -6.178876 18.097795
349 0 1 21.811510 -5.433902 18.657503
350 0 1 21.839411 -4.541566 19.136705
351 0 1 21.649511 -3.570348 19.334902
352 0 1 22.315210 -3.055517 19.865908
353 0 1 22.837511 -3.040136 20.643908
354 0 1 23.416109 -3.624486 21.164400
355 0 1 23.276510 -4.596212 20.929506
356 0 1 22.380312 -4.597402 21.101397
357 0 1 21.693811 -4.630771 20.501497
358 0 1 21.953611 -5.552686 20.699495
359 0 1 21.640711 -5.654857 21.590502
360 0 1 21.852011 -5.585258 22.578798
361 0 1 22.058008 -5.715137 23.552797
362 0 1 22.842112 -5.717067 24.178408
363 0 1 22.180311 -5.756958 24.832003
364 0 1 22.847513 -5.259876 25.395815
365 0 1 22.664110 -5.010023 26.325411
366 0 1 22.264811 -4.408420 25.729403
367 0 1 21.861311 -3.667625 26.206209
368 0 1 22.054308 -3.153907 27.022402
369 0 1 21.590014 -2.301137 27.217592
370 0 1 22.410013 -2.343397 27.791018
371 0 1 22.918612 -2.459447 26.926210
372 0 1 23.341608 -1.605066 27.174593
373 0 1 23.835512 -2.106946 27.763002
374 0 1 24.638514 -2.085947 27.197206
375 0 1 25.102011 -1.345388 26.721987
376 0 1 24.904009 -0.555448 26.165316
377 0 1 25.617811 -0.476537 26.795809
378 0 1 25.251413 -0.063738 27.621218
379 0 1 25.325113 0.132944 28.517702
380 0 1 25.452711 0.786524 29.186007
381 0 1 25.112909 0.986613 30.055696
382 0 1 25.180910 1.930712 30.067812
383 0 1 24.356508 2.444632 30.107607
384 0 1 23.808809 2.853613 30.832094
385 0 1 23.132013 3.368174 30.411501
386 0 1 22.217508 3.525313 30.072908
387 0 1 21.780512 4.406283 30.192598
388 0 1 22.056612 4.351351 31.055605
389 0 1 22.454512 5.030013 31.690004
390 0 1 22.653212 5.516852 30.927706
391 0 1 23.271311 6.214755 30.702089
392 0 1 24.239008 6.358153 30.427187
393 0 1 25.146711 6.697253 30.180117
394 0 1 25.337111 5.814654 30.538515
395 0 1 25.287012 5.763953 31.488710
396 0 1 25.622011 4.979281 31.868715
397 0 1 26.189508 5.402823 31.282412
398 0 1 26.548311 5.581355 32.222900
399 0 1 26.452711 4.801974 32.825409
400 0 1 25.519011 4.913104 33.138092
401 0 1 25.894812 5.756152 33.338989
402 0 1 25.502810 6.264754 32.644012
403 0 1 25.252008 7.083354 32.074493
404 0 1 24.948011 7.229453 33.105408
405 0 1 24.329012 7.317751 33.873505
406 0 1 24.611109 8.134752 34.293488
407 0 1 24.110312 8.125753 35.118988
408 0 1 23.176912 7.877352 35.281891
409 0 1 23.526011 7.331152 34.560699
410 0 1 22.934210 8.111052 34.239105
411 0 1 22.255812 7.438551 34.467987
412 0 1 21.276308 7.524352 34.671997
413 0 1 20.345613 7.583853 34.523102
414 0 1 19.866911 7.075755 33.842407
415 0 1 19.517313 6.258654 34.006409
416 0 1 20.149611 5.665652 34.412201
417 0 1 20.230810 5.256693 35.241913
418 0 1 19.687113 4.978484 36.029785
419 0 1 19.248411 4.707324 35.212006
420 0 1 18.748613 3.819762 35.164795
421 0 1 17.949110 4.062472 35.566589
422 0 1 17.008509 4.253710 35.286316
423 0 1 16.554510 4.672884 34.540894
424 0 1 17.400911 5.094992 34.692902
425 0 1 17.439211 6.112753 34.862488
426 0 1 16.844713 6.209353 35.662689
427 0 1 16.255114 5.426951 35.571106
428 0 1 15.573610 6.005351 35.999084
429 0 1 15.197008 5.527255 35.237610
430 0 1 14.850710 6.400851 35.059906
431 0 1 14.361010 7.128153 35.365509
432 0 1 14.373911 7.232554 34.479004
433 0 1 13.551710 6.775752 34.515289
434 0 1 12.836412 6.216254 34.252991
435 0 1 11.890810 6.421454 34.415894
436 0 1 11.211912 6.475955 35.188599
437 0 1 10.930811 6.682654 36.106201
438 0 1 10.879911 5.783553 35.915009
439 0 1 9.983309 6.151251 35.580902
440 0 1 9.081850 5.967452 35.818298
441 0 1 9.145910 5.944750 34.857910
442 0 1 9.454012 5.094615 34.687897
443 0 1 9.875410 5.517851 33.983704
444 0 1 10.558210 5.798052 34.613892
445 0 1 10.824812 6.620154 34.095306
446 0 1 10.525511 6.011252 33.396606
447 0 1 10.039511 5.541354 32.708099
448 0 1 9.318811 5.555853 32.173889
449 0 1 9.807909 5.754553 31.349215
450 0 1 9.288210 6.122454 30.588900
451 0 1 8.657591 6.817454 30.754000
452 0 1 8.495630 6.501853 31.647188
453 0 1 8.484591 5.652651 31.183107
454 0 1 7.689753 5.200263 31.142488
455 0 1 6.768672 5.568652 30.981600
456 0 1 7.518801 6.174654 31.038393
457 0 1 7.076991 6.209952 30.174715
458 0 1 6.459380 6.092452 29.458803
459 0 1 6.214213 6.402651 28.537111
460 0 1 5.678641 5.838454 28.025209
461 0 1 4.981520 5.867053 28.753603
462 0 1 5.291251 6.761454 28.989504
463 0 1 4.805979 7.469454 29.323305
464 0 1 3.888331 7.836253 29.322817
465 0 1 3.121500 8.169752 28.931002
466 0 1 2.996210 8.970953 28.467287
467 0 1 2.856661 9.871153 28.628511
468 0 1 2.187189 9.462152 29.116396
469 0 1 1.742392 8.970953 28.385988
470 0 1 1.629179 8.945452 27.416201
471 0 1 0.711272 9.305452 27.493807
472 0 1 0.511992 8.706953 28.119509
473 0 1 0.861742 8.186953 28.823214
474 0 1 0.202311 7.525652 29.131197
475 0 1 0.363261 6.598254 28.868990
476 0 1 -0.190494 6.076151 29.557711
477 0 1 -0.051033 5.243121 29.138704
478 0 1 0.047696 4.366332 29.738100
479 0 1 0.510481 5.078722 30.218904
480 0 1 0.154902 4.673163 31.027803
481 0 1 -0.327268 4.776881 31.857210
482 0 1 -0.051935 3.855422 31.863405
483 0 1 -0.245483 2.989344 32.403503
484 0 1 0.229681 2.531703 33.149902
485 0 1 1.022669 2.207743 33.553009
486 0 1 1.831721 2.506793 33.991089
487 0 1 1.339301 3.296214 33.780212
488 0 1 0.861891 3.217722 34.644592
489 0 1 1.017191 3.077971 35.562195
490 0 1 1.486521 2.425303 35.094116
491 0 1 2.208960 1.765334 34.970093
492 0 1 3.023432 2.235854 34.730103
493 0 1 3.040110 3.181414 34.587494
494 0 1 2.969511 3.415213 33.675690
495 0 1 3.434122 4.045214 33.081604
496 0 1 3.863810 3.859763 32.169006
497 0 1 4.393660 2.924704 31.958193
498 0 1 3.599032 2.426333 32.226807
499 0 1 4.100512 1.702742 31.685915
500 0 1 4.537802 0.896860 31.357088
501 0 1 3.861872 0.211703 31.380190
502 0 1 3.185572 0.442801 30.684999
503 0 1 3.858660 0.138502 30.039309
504 0 1 3.221762 -0.311506 29.445009
505 0 1 3.952170 -0.476877 28.815401
506 0 1 4.010432 -1.309499 29.349794
507 0 1 4.055953 -2.251188 29.448610
508 0 1 4.383330 -2.183076 30.357393
509 0 1 5.054141 -1.899969 30.959505
510 0 1 5.310061 -2.737428 30.523806
511 0 1 5.184771 -3.550577 30.024294
512 0 1 5.153220 -4.088581 30.805605
513 0 1 4.560511 -4.823345 31.066805
514 0 1 4.980311 -5.621278 30.873995
515 0 1 5.434260 -6.430168 30.504793
516 0 1 6.205122 -6.801767 30.032015
517 0 1 6.580073 -5.945367 30.139711
518 0 1 7.494822 -5.467241 30.229616
519 0 1 8.236712 -5.887588 30.909212
520 0 1 9.037333 -5.426078 30.827517
521 0 1 9.482710 -4.651195 30.460817
522 0 1 9.025290 -4.098981 29.863894
523 0 1 9.480810 -3.380147 30.434114
524 0 1 9.726809 -2.378477 30.356997
525 0 1 10.125612 -1.623457 29.782991
526 0 1 10.971411 -1.567018 30.453188
527 0 1 10.944311 -0.933298 31.185915
528 0 1 11.929312 -0.798368 31.309389
529 0 1 12.662710 -0.879049 31.927614
530 0 1 13.477610 -1.157026 32.317413
531 0 1 13.287012 -1.190218 33.282593
532 0 1 13.875410 -0.861337 33.987701
533 0 1 14.861311 -0.838606 33.819702
534 0 1 15.615412 -0.283197 34.213684
535 0 1 15.875010 0.361163 33.506989
536 0 1 15.903513 1.048262 34.160187
537 0 1 16.525209 1.739554 33.735901
538 0 1 15.813810 2.321822 34.015503
539 0 1 15.120710 2.452422 34.727295
540 0 1 14.385111 2.118723 35.276093
541 0 1 13.865412 2.262442 36.115601
542 0 1 13.009310 2.384043 36.609802
543 0 1 13.847612 2.332152 37.107697
544 0 1 14.496408 2.070204 37.702087
545 0 1 15.048010 1.277354 37.873199
546 0 1 15.145510 1.135661 36.938599
547 0 1 15.874510 0.972582 36.270599
548 0 1 16.570108 1.615961 36.411804
549 0 1 17.293009 1.532881 37.124603
550 0 1 18.120409 1.605952 37.673187
551 0 1 17.898508 0.738791 37.984497
552 0 1 18.688013 0.271723 38.406494
553 0 1 17.872713 0.078444 38.837891
554 0 1 17.895510 0.295214 39.737488
555 0 1 17.537912 0.839072 40.450684
556 0 1 18.017611 0.696192 41.239807
557 0 1 18.512712 0.720782 42.050507
558 0 1 19.175013 0.033491 42.121613
559 0 1 19.996210 0.570162 42.282990
560 0 1 20.851610 0.563433 41.833496
561 0 1 21.471109 -0.014658 41.361511
562 0 1 21.196611 -0.607198 40.655701
563 0 1 20.615313 -1.107439 40.033112
564 0 1 19.840014 -1.651556 39.849396
565 0 1 19.457613 -2.346517 40.348511
566 0 1 19.812113 -3.052507 40.835388
567 0 1 19.817511 -3.754171 40.195099
568 0 1 18.887510 -3.932434 40.429016
569 0 1 17.865511 -3.592285 40.500000
570 0 1 17.824808 -4.469947 40.941711
571 0 1 18.223513 -5.002716 41.750000
572 0 1 17.427111 -4.516975 41.965088
573 0 1 17.510408 -4.238962 42.962708
574 0 1 17.640413 -3.279968 43.036987
575 0 1 17.980310 -2.799356 43.853088
576 0 1 17.100710 -3.106727 43.936005
577 0 1 17.445211 -3.971567 44.028290
578 0 1 17.270411 -3.947385 44.987610
579 0 1 17.717112 -4.789468 45.191010
580 0 1 17.607012 -4.392696 46.089691
581 0 1 17.747408 -4.620849 46.968689
582 0 1 17.212214 -4.648273 47.776917
583 0 1 16.400610 -5.149395 47.512390
584 0 1 15.490110 -4.950326 47.248108
585 0 1 14.638411 -5.444520 47.338684
586 0 1 14.055410 -5.097215 47.999084
587 0 1 13.313211 -4.729282 48.504913
588 0 1 12.690210 -4.345159 47.958893
589 0 1 12.981310 -4.763479 47.184692
590 0 1 13.681009 -4.081489 47.063599
591 0 1 13.541010 -3.876951 46.131500
592 0 1 13.197908 -2.949937 46.226410
593 0 1 12.317308 -2.555585 46.260803
594 0 1 12.357512 -2.168397 45.410706
595 0 1 11.969610 -1.352617 44.978790
596 0 1 11.232111 -0.853517 45.397308
597 0 1 10.551409 -1.190359 44.803192
598 0 1 10.102911 -1.557588 44.063995
599 0 1 9.876513 -2.246767 43.403198
600 0 1 10.372911 -3.073476 42.951202
601 0 1 11.111910 -2.691808 42.400513
602 0 1 11.786913 -2.256849 42.913208
603 0 1 12.648409 -2.637769 43.146484
604 0 1 12.396212 -3.583778 42.994690
605 0 1 12.973810 -3.737262 43.727295
606 0 1 13.915812 -4.068124 43.904999
607 0 1 14.289911 -3.174217 43.763184
608 0 1 14.153711 -2.253938 43.888184
609 0 1 13.956511 -1.446188 44.485504
610 0 1 13.068209 -1.468267 44.262299
611 0 1 13.443911 -0.729677 43.774506
612 0 1 13.111612 -1.366857 43.100708
613 0 1 12.874311 -0.402986 42.916199
614 0 1 13.758112 -0.331007 42.648193
615 0 1 13.347311 0.411242 42.307098
616 0 1 12.516211 0.488753 41.744995
617 0 1 12.246012 1.155833 42.480896
618 0 1 12.756510 1.900744 42.818512
619 0 1 12.633410 1.803023 43.712402
620 0 1 11.705011 1.591551 43.881195
621 0 1 11.760511 0.579932 43.947296
622 0 1 10.913012 0.763564 43.559113
623 0 1 10.335611 0.007483 43.481598
624 0 1 9.401609 -0.046617 43.831909
625 0 1 9.583811 0.618784 43.269897
626 0 1 9.200109 1.101332 43.968903
627 0 1 9.685411 1.902041 44.252014
628 0 1 8.699301 2.006102 44.475800
629 0 1 8.615992 2.978854 44.222595
630 0 1 8.806921 3.243571 45.220703
631 0 1 9.631212 3.189303 45.684692
632 0 1 9.616812 3.403601 46.647217
633 0 1 9.452711 2.462744 46.689514
634 0 1 8.953062 2.449744 47.555695
635 0 1 7.958582 2.352381 47.474487
636 0 1 7.472620 2.174311 48.346802
637 0 1 8.150572 1.795042 48.870911
638 0 1 7.705401 0.985522 49.224792
639 0 1 6.758990 0.717982 49.352600
640 0 1 6.322791 0.059012 49.856995
641 0 1 6.397650 -0.227289 50.712189
642 0 1 5.588572 -0.629388 50.827209
643 0 1 4.948832 -0.631448 50.069092
644 0 1 5.615061 -1.225866 49.782013
645 0 1 4.874953 -1.667139 50.320312
646 0 1 4.474093 -2.456388 50.851410
647 0 1 3.611483 -2.091608 51.165588
648 0 1 3.107691 -2.896478 51.269989
649 0 1 2.636530 -2.154867 51.750702
650 0 1 1.830382 -1.562589 51.727783
651 0 1 1.008520 -1.063066 51.893097
652 0 1 1.552370 -0.856207 52.677887
653 0 1 1.687601 0.084593 52.901917
654 0 1 2.062041 0.370024 52.025391
655 0 1 2.646799 -0.279268 52.467285
656 0 1 3.468752 0.182532 52.186493
657 0 1 3.692591 -0.230318 53.070404
658 0 1 3.184351 -0.709928 53.705017
659 0 1 3.537180 -1.448686 54.083099
660 0 1 2.756830 -1.791059 53.573700
661 0 1 2.192660 -2.613836 53.502808
662 0 1 1.960223 -2.968137 54.412415
663 0 1 2.367552 -2.548757 55.179016
664 0 1 2.824522 -2.295358 55.999298
665 0 1 2.018740 -1.948797 56.327393
666 0 1 1.162772 -2.343618 56.550690
667 0 1 0.698481 -2.057977 55.653595
668 0 1 -0.134445 -1.864198 55.180908
669 0 1 -0.891758 -2.390066 55.063507
670 0 1 -1.233419 -3.253767 55.449799
671 0 1 -2.054899 -2.963228 55.835693
672 0 1 -2.897659 -2.818468 56.240295
673 0 1 -3.564588 -2.796136 55.577087
674 0 1 -3.390970 -3.693670 55.870300
675 0 1 -3.612058 -4.489088 56.238495
676 0 1 -2.965629 -5.167045 56.201904
677 0 1 -3.617399 -5.723058 56.617401
678 0 1 -4.317148 -6.022808 57.236298
679 0 1 -4.754428 -6.475917 57.923798
680 0 1 -5.573249 -5.948507 58.147308
681 0 1 -4.969629 -5.241832 58.412506
682 0 1 -4.945779 -4.327667 57.976288
683 0 1 -4.526149 -3.718275 58.662292
684 0 1 -4.601179 -3.050859 59.356995
685 0 1 -4.293689 -2.145929 59.323212
686 0 1 -4.900218 -1.657846 59.833801
687 0 1 -4.716299 -2.214818 60.581787
688 0 1 -3.776588 -2.461046 60.246307
689 0 1 -3.837919 -2.791238 61.224915
690 0 1 -3.493799 -2.480218 62.079285
691 0 1 -2.623218 -2.696908 61.790192
692 0 1 -2.435859 -1.798536 61.574005
693 0 1 -2.133878 -1.410356 60.741791
694 0 1 -2.191219 -1.322878 59.732300
695 0 1 -3.143289 -1.482229 59.405212
696 0 1 -2.756090 -0.563356 59.286804
697 0 1 -3.418178 0.067141 58.914398
698 0 1 -4.008459 0.256464 59.751892
699 0 1 -4.847419 0.867823 59.797913
700 0 1 -4.332649 1.688132 59.785400
701 0 1 -4.723779 1.915354 58.949402
702 0 1 -4.616699 1.225653 58.343689
703 0 1 -5.610599 1.084513 58.243011
704 0 1 -5.355348 1.748152 57.663910
705 0 1 -5.052068 2.385802 57.056885
706 0 1 -5.967149 2.196562 56.827606
707 0 1 -5.634458 3.040141 56.492615
708 0 1 -5.436269 3.769324 57.080292
709 0 1 -5.232778 4.563403 57.517883
710 0 1 -4.745958 5.319514 57.221008
711 0 1 -5.217538 5.524054 58.062103
712 0 1 -5.634319 6.154551 57.416412
713 0 1 -5.825069 6.024153 56.442810
714 0 1 -6.629838 6.566054 56.403900
715 0 1 -7.565609 6.670054 56.325500
716 0 1 -7.548339 6.706152 57.284210
717 0 1 -8.166849 5.934855 57.416595
718 0 1 -9.090839 6.286353 57.442810
719 0 1 -10.040810 6.611952 57.386688
720 0 1 -10.353310 7.523352 57.211090
721 0 1 -10.732409 7.003653 56.467712
722 0 1 -11.403189 6.611453 57.051514
723 0 1 -11.809690 6.386851 57.923187
724 0 1 -11.467890 5.447154 57.942413
725 0 1 -12.092390 5.476752 57.153687
726 0 1 -12.665091 5.947955 56.429596
727 0 1 -12.571390 5.043494 56.229095
728 0 1 -11.807690 4.418864 56.206696
729 0 1 -10.921190 4.109675 56.233398
730 0 1 -10.827539 3.185202 56.096008
731 0 1 -11.363089 2.337584 56.139801
732 0 1 -12.163889 2.847575 55.857605
733 0 1 -11.869989 2.351042 54.974609
734 0 1 -12.252289 2.544055 54.115692
735 0 1 -12.451689 2.784682 53.166992
736 0 1 -12.962090 3.567111 53.375610
737 0 1 -13.686590 3.766840 53.951599
738 0 1 -14.092588 3.938712 53.137695
739 0 1 -14.624990 4.097445 53.919983
740 0 1 -15.221590 4.718642 54.146790
741 0 1 -15.722189 4.406592 54.855804
742 0 1 -15.217489 4.553221 55.737915
743 0 1 -14.993288 4.445574 56.623993
744 0 1 -14.275290 5.027323 56.929291
745 0 1 -13.906889 5.506651 56.165802
746 0 1 -13.475088 6.199553 55.741791
747 0 1 -12.795589 6.810252 55.470886
748 0 1 -11.938688 6.473353 55.274811
749 0 1 -11.068388 6.497054 54.918793
750 0 1 -10.304209 7.015952 55.050903
751 0 1 -9.781031 7.824351 54.720612
752 0 1 -9.752239 8.528254 55.364990
753 0 1 -10.321119 8.419752 56.174896
754 0 1 -10.755190 8.624552 56.983490
755 0 1 -10.748549 9.610453 56.753296
756 0 1 -9.785601 9.924253 56.645203
757 0 1 -9.027020 10.154852 56.099487
758 0 1 -8.019489 10.098951 56.132202
759 0 1 -7.380529 9.984152 55.421814
760 0 1 -6.460599 10.319353 55.766907
761 0 1 -5.547109 10.674051 55.986694
762 0 1 -5.760198 10.484652 56.852692
763 0 1 -6.568538 11.103754 56.794098
764 0 1 -7.490839 11.320951 56.651489
765 0 1 -8.331129 11.662653 56.931213
766 0 1 -8.061449 12.574953 57.173798
767 0 1 -7.767608 13.461153 57.347198
768 0 1 -7.203680 14.176851 57.537994
769 0 1 -6.336999 13.734953 57.484314
770 0 1 -5.900690 14.139254 56.664093
771 0 1 -5.803859 15.116854 56.791809
772 0 1 -6.061670 15.764452 55.968994
773 0 1 -5.597558 15.327654 55.257996
774 0 1 -5.228469 14.817850 54.537109
775 0 1 -4.377979 15.086954 54.153015
776 0 1 -4.779428 15.729551 54.752411
777 0 1 -4.520809 16.487753 54.169708
778 0 1 -4.831979 15.729353 53.607117
779 0 1 -5.672599 15.326551 53.284393
780 0 1 -5.877939 15.447252 52.329498
781 0 1 -6.504558 14.826952 52.804596
782 0 1 -7.269088 14.469049 53.346710
783 0 1 -8.183649 14.286951 53.483215
784 0 1 -8.541929 14.672052 52.690002
785 0 1 -8.834429 15.299150 51.999603
786 0 1 -8.803728 14.526255 51.382996
787 0 1 -7.932128 14.076754 51.462311
788 0 1 -8.687679 13.585352 51.842896
789 0 1 -9.311939 13.402952 51.056000
790 0 1 -8.450399 13.294352 50.727203
791 0 1 -7.773368 12.968554 50.205505
792 0 1 -8.142740 12.796953 49.329285
793 0 1 -8.536669 13.006350 48.483002