LAMMPS data file via MDAnalysis

        2000  atoms
        1999  bonds
           0  angles
           0  dihedrals
           0  impropers

           1  atom types
           1  bond types
           0  angle types
           0  dihedral types
           0  improper types

-30.5 30.5 xlo xhi
-30.5 30.5 ylo yhi
-233.5 233.5 zlo zhi


Masses

1 1.000000

Atoms

1 0 1 11.277764 11.256017 80.418396
2 0 1 12.137464 10.707627 80.320618
3 0 1 12.437764 9.870175 79.957611
4 0 1 12.144467 10.446824 79.262207
5 0 1 12.801267 11.016637 78.857208
6 0 1 12.823567 11.963525 78.463013
7 0 1 12.966165 12.847825 78.495911
8 0 1 12.348866 13.217126 79.156006
9 0 1 12.639565 13.855126 78.500488
10 0 1 12.363667 14.610826 77.969696
11 0 1 12.224866 15.538125 78.007294
12 0 1 11.372266 15.568025 78.434387
13 0 1 10.665765 15.666226 79.085388
14 0 1 10.122464 14.881028 79.376404
15 0 1 9.289464 15.130326 79.752991
16 0 1 9.053864 15.440526 78.872192
17 0 1 9.418263 16.295826 79.190186
18 0 1 9.824567 16.666126 78.409302
19 0 1 10.046468 15.915326 77.878601
20 0 1 9.308465 16.069324 77.300995
21 0 1 10.036664 16.575226 76.871582
22 0 1 10.717065 16.114025 76.360596
23 0 1 11.682366 16.007927 76.611908
24 0 1 11.731168 15.947427 75.668518
25 0 1 12.032666 15.266328 75.050598
26 0 1 12.921567 15.062726 74.692596
27 0 1 12.431867 15.707025 74.236298
28 0 1 12.236066 16.658924 74.260406
29 0 1 11.399564 17.156624 74.365692
30 0 1 11.606767 18.080425 74.625610
31 0 1 10.663465 18.197926 74.819397
32 0 1 9.651666 18.037926 74.933289
33 0 1 9.455766 17.101624 74.767395
34 0 1 9.707566 16.131523 74.955017
35 0 1 9.332868 15.250226 75.171814
36 0 1 8.457067 14.965726 75.387299
37 0 1 7.671846 15.537126 75.601410
38 0 1 7.189928 16.253426 75.083313
39 0 1 6.440008 15.877027 74.539795
40 0 1 6.174917 15.505326 75.402496
41 0 1 5.353857 15.113626 75.144592
42 0 1 5.139505 14.937928 74.210999
43 0 1 5.152158 14.238427 73.550415
44 0 1 5.345174 13.685128 72.767303
45 0 1 4.608877 13.175324 72.507019
46 0 1 3.931875 13.867929 72.345581
47 0 1 3.205697 14.332627 71.955994
48 0 1 2.847005 15.103028 71.569519
49 0 1 1.903455 15.017827 71.448700
50 0 1 2.084275 14.950929 72.457489
51 0 1 1.463045 14.248727 72.216187
52 0 1 1.094945 13.458825 71.836792
53 0 1 1.181966 12.619725 72.187683
54 0 1 1.638894 12.465127 73.013184
55 0 1 2.231866 12.304826 72.244598
56 0 1 2.660337 11.599015 71.713898
57 0 1 2.306688 10.853768 71.272888
58 0 1 2.406945 9.905488 71.167786
59 0 1 1.571878 9.582765 70.906097
60 0 1 1.733297 8.709268 70.564209
61 0 1 1.375146 8.859845 71.457397
62 0 1 0.553537 8.452207 71.651489
63 0 1 1.008096 7.605336 71.644714
64 0 1 0.884916 7.461728 72.575104
65 0 1 1.291036 8.253026 72.985718
66 0 1 0.382467 8.105836 73.268188
67 0 1 -0.422145 8.632066 73.209595
68 0 1 -0.960002 7.840645 73.232208
69 0 1 -1.176367 7.781025 72.342712
70 0 1 -1.917288 7.218876 72.617981
71 0 1 -2.197554 8.086495 72.391693
72 0 1 -3.059794 8.498666 72.586304
73 0 1 -3.474044 7.996575 73.309082
74 0 1 -4.146773 7.580414 73.914612
75 0 1 -4.619904 6.824425 73.393005
76 0 1 -4.502034 6.630105 72.461609
77 0 1 -4.759514 6.138745 71.682190
78 0 1 -5.671593 5.829846 71.557404
79 0 1 -5.645943 5.008767 72.053497
80 0 1 -5.460555 4.832985 72.953796
81 0 1 -5.912463 5.365147 73.667999
82 0 1 -6.843794 5.694367 73.628784
83 0 1 -7.403754 6.480305 73.613586
84 0 1 -7.376933 6.108654 72.709412
85 0 1 -7.786503 5.307274 72.233093
86 0 1 -8.130855 5.998826 71.736603
87 0 1 -7.568324 5.641427 71.061096
88 0 1 -7.056824 4.967057 71.435608
89 0 1 -6.334664 4.359288 71.293701
90 0 1 -7.273514 4.014798 71.042511
91 0 1 -7.141364 4.210297 70.086792
92 0 1 -6.673304 4.526387 69.286102
93 0 1 -6.292393 5.430398 69.217194
94 0 1 -5.621964 4.770165 68.908386
95 0 1 -5.003184 4.694165 69.644806
96 0 1 -4.714943 5.612717 69.479706
97 0 1 -4.078173 5.263356 68.753784
98 0 1 -3.432824 4.536255 68.943207
99 0 1 -3.531283 4.408776 68.003113
100 0 1 -2.589940 4.703057 67.960297
101 0 1 -1.623248 4.489327 67.701904
102 0 1 -1.148583 4.063687 66.939301
103 0 1 -0.378903 3.685227 67.539917
104 0 1 0.246248 4.402016 67.401703
105 0 1 0.370897 3.990647 68.325500
106 0 1 0.813817 4.916195 68.425903
107 0 1 1.206067 5.805836 68.262207
108 0 1 1.652116 6.045735 67.474915
109 0 1 2.104947 5.454827 66.883606
110 0 1 1.505506 5.222786 66.113007
111 0 1 1.706117 5.039406 65.172089
112 0 1 1.454618 4.097447 65.242889
113 0 1 1.222375 3.891057 66.107697
114 0 1 0.488744 3.529546 65.677002
115 0 1 -0.113253 3.349396 65.006714
116 0 1 -0.596364 3.074857 64.178497
117 0 1 -0.692000 2.193854 63.774689
118 0 1 -1.342084 1.864287 63.113495
119 0 1 -0.572234 1.762145 62.516113
120 0 1 -0.936135 0.962290 62.036499
121 0 1 -1.539343 0.793536 62.794403
122 0 1 -1.101309 -0.066743 62.506287
123 0 1 -0.660433 -0.398855 61.672791
124 0 1 0.310846 -0.463714 61.587189
125 0 1 0.638856 -1.364635 61.320892
126 0 1 0.235586 -1.843873 62.043304
127 0 1 -0.496144 -1.303335 62.432190
128 0 1 -0.985364 -1.986354 62.890503
129 0 1 -0.614834 -2.413833 63.679291
130 0 1 0.253537 -2.239873 64.019806
131 0 1 -0.291295 -1.688785 64.600586
132 0 1 0.377355 -1.365074 65.129211
133 0 1 1.308915 -1.528694 64.912598
134 0 1 1.996114 -1.382284 65.512817
135 0 1 2.454335 -0.814245 66.168091
136 0 1 1.718767 -0.891235 66.758209
137 0 1 0.962266 -0.366664 67.031403
138 0 1 1.599645 -0.350864 67.788605
139 0 1 1.619535 0.552846 67.890198
140 0 1 0.734285 0.251887 67.947205
141 0 1 0.180337 0.699835 68.550995
142 0 1 1.098607 1.045319 68.815613
143 0 1 0.408185 1.674946 69.128204
144 0 1 0.646737 2.604411 69.347412
145 0 1 1.626645 2.776751 69.298096
146 0 1 2.599675 2.943196 69.070709
147 0 1 3.513646 2.625310 69.040405
148 0 1 3.154348 2.460017 68.163208
149 0 1 3.016877 3.054267 67.319702
150 0 1 2.373464 3.352956 66.651489
151 0 1 1.816057 2.646308 67.078308
152 0 1 1.197645 2.058528 66.650604
153 0 1 0.320886 2.022315 66.284210
154 0 1 -0.478244 2.522015 66.252014
155 0 1 -0.671303 2.500647 65.345398
156 0 1 -0.750863 1.587258 64.935486
157 0 1 -1.154080 1.162512 65.665497
158 0 1 -1.426089 1.998469 65.985291
159 0 1 -2.092568 1.785189 65.326782
160 0 1 -2.927794 1.357310 65.064911
161 0 1 -3.025944 0.527827 65.632019
162 0 1 -3.596265 0.859669 66.401001
163 0 1 -4.363863 1.407279 66.601196
164 0 1 -5.276474 1.298934 66.591309
165 0 1 -5.127743 0.604975 65.941193
166 0 1 -5.144253 1.059512 65.105408
167 0 1 -5.680523 1.747454 64.806519
168 0 1 -4.982024 2.095843 64.225494
169 0 1 -4.292843 1.362227 64.367615
170 0 1 -4.433434 0.646025 63.736694
171 0 1 -3.535825 0.641066 63.349213
172 0 1 -3.290854 0.189465 62.575897
173 0 1 -3.776704 -0.081113 61.733398
174 0 1 -3.444464 -0.993354 62.046295
175 0 1 -3.388003 -0.834714 61.093689
176 0 1 -3.296254 -1.251594 60.180908
177 0 1 -2.762225 -1.710704 60.874603
178 0 1 -2.069283 -2.391025 60.551788
179 0 1 -1.907569 -1.504964 60.187103
180 0 1 -1.251284 -1.570045 59.447815
181 0 1 -1.124339 -2.468475 59.148895
182 0 1 -1.308102 -2.182824 58.228699
183 0 1 -0.441844 -2.577794 58.111816
184 0 1 -0.583474 -1.814044 57.558807
185 0 1 -0.581725 -1.225543 56.805389
186 0 1 -1.117232 -0.729444 56.106689
187 0 1 -1.599507 -0.080394 56.642609
188 0 1 -0.753941 0.299657 56.570404
189 0 1 -1.588015 0.882441 56.540588
190 0 1 -2.346320 1.185990 57.035095
191 0 1 -1.843926 1.369382 57.893005
192 0 1 -1.533108 2.300343 58.324890
193 0 1 -2.366603 2.375075 57.704010
194 0 1 -2.734284 3.106847 57.256500
195 0 1 -2.488679 3.891724 57.623199
196 0 1 -2.876513 4.135605 56.828186
197 0 1 -3.580544 4.684826 57.041809
198 0 1 -3.754494 4.213814 56.219116
199 0 1 -3.300275 3.683347 55.535797
200 0 1 -3.742074 3.000706 54.858307
201 0 1 -3.173194 2.743104 54.166290
202 0 1 -2.328898 2.557095 54.562592
203 0 1 -2.283192 2.841906 55.467987
204 0 1 -1.910452 3.364987 56.233490
205 0 1 -1.751118 3.882455 55.466187
206 0 1 -0.950818 4.433075 55.634491
207 0 1 -1.211712 4.028656 56.552002
208 0 1 -0.899384 3.190366 56.913208
209 0 1 -1.223799 3.575898 57.765808
210 0 1 -1.396176 3.830098 58.640411
211 0 1 -1.725081 4.531575 59.109100
212 0 1 -0.979060 4.706837 58.575989
213 0 1 -0.372124 4.838727 57.745209
214 0 1 0.221128 4.180825 57.372803
215 0 1 0.616227 3.273017 57.466309
216 0 1 1.338357 3.243117 58.067902
217 0 1 1.070535 4.158394 58.391113
218 0 1 1.410985 4.171154 59.256714
219 0 1 2.391835 4.238007 59.385590
220 0 1 2.544305 5.029686 59.890106
221 0 1 2.546636 4.345887 60.566101
222 0 1 2.162736 3.755036 61.194214
223 0 1 1.386117 4.285885 61.143616
224 0 1 0.951566 4.739174 60.384613
225 0 1 0.088945 4.206845 60.450989
226 0 1 0.142656 4.353695 59.493195
227 0 1 -0.572434 4.862496 59.692505
228 0 1 -0.099784 5.485024 60.244690
229 0 1 0.415647 5.329834 59.394714
230 0 1 0.502347 5.466607 58.483704
231 0 1 -0.150065 6.159897 58.183807
232 0 1 -0.443095 6.627854 57.370911
233 0 1 -0.973023 6.469086 56.562103
234 0 1 -0.627595 5.976517 55.803589
235 0 1 -1.075812 6.533535 55.158295
236 0 1 -0.644894 6.844876 54.362793
237 0 1 -1.326939 7.452446 54.708710
238 0 1 -1.401967 7.694306 55.652008
239 0 1 -2.177193 7.334244 56.077606
240 0 1 -2.830695 6.652436 56.189301
241 0 1 -3.417554 6.768837 56.895599
242 0 1 -4.131964 6.177815 57.272003
243 0 1 -4.425194 6.099827 56.360992
244 0 1 -4.461964 6.796875 55.646484
245 0 1 -3.621314 7.313756 55.812897
246 0 1 -3.002543 6.910614 55.192200
247 0 1 -2.941634 6.537858 54.309906
248 0 1 -3.548493 7.314076 54.119507
249 0 1 -4.146563 6.596406 53.757904
250 0 1 -4.585043 7.010006 54.519897
251 0 1 -5.305424 6.716744 54.996796
252 0 1 -5.588463 6.894326 55.871307
253 0 1 -6.518984 6.790165 55.976288
254 0 1 -7.189593 6.229985 55.536804
255 0 1 -7.467234 6.971425 54.856598
256 0 1 -7.504935 7.842835 55.293213
257 0 1 -7.626524 8.825479 55.505310
258 0 1 -8.508254 9.113885 55.488495
259 0 1 -8.442393 10.031007 55.222504
260 0 1 -8.602084 10.958657 55.147308
261 0 1 -8.646085 11.346337 54.274902
262 0 1 -7.941544 11.693795 53.747589
263 0 1 -7.531825 11.597856 52.908508
264 0 1 -7.719073 10.968514 52.296204
265 0 1 -7.418364 10.072408 52.325104
266 0 1 -7.461884 10.350537 51.387909
267 0 1 -7.055304 9.909196 50.678009
268 0 1 -6.609114 9.470887 49.923492
269 0 1 -6.837914 9.927445 49.060211
270 0 1 -6.848713 10.879186 49.359711
271 0 1 -6.732054 11.833375 49.343384
272 0 1 -6.130984 11.837258 50.162292
273 0 1 -5.861374 11.762055 51.100189
274 0 1 -4.952044 11.387818 51.058411
275 0 1 -4.213624 11.038507 50.573090
276 0 1 -3.497584 11.593946 50.312592
277 0 1 -3.500874 12.039926 49.383789
278 0 1 -2.796414 12.775826 49.428101
279 0 1 -2.942485 13.616426 49.863007
280 0 1 -3.797423 13.254327 49.407990
281 0 1 -3.453654 13.168824 48.510315
282 0 1 -3.957564 12.639428 47.951996
283 0 1 -4.100455 11.781808 47.565796
284 0 1 -3.480935 12.086228 46.864502
285 0 1 -3.060834 11.560845 47.529114
286 0 1 -2.476844 12.289327 47.113098
287 0 1 -2.666972 13.040528 46.504791
288 0 1 -1.942864 13.345529 47.081787
289 0 1 -1.726452 13.171727 46.208191
290 0 1 -1.172269 13.846425 45.906006
291 0 1 -1.280261 14.658425 46.383087
292 0 1 -1.098277 15.497025 45.985687
293 0 1 -1.752993 15.969426 46.531616
294 0 1 -1.744694 16.604027 47.263794
295 0 1 -2.240842 17.380028 47.114288
296 0 1 -1.703137 17.660126 47.925995
297 0 1 -1.069672 16.992626 48.079010
298 0 1 -0.782448 17.404427 47.285187
299 0 1 -0.522404 17.257828 46.396088
300 0 1 0.405336 17.078426 46.592194
301 0 1 0.979158 17.512726 47.265900
302 0 1 1.769315 17.189625 46.847595
303 0 1 2.219037 17.903328 46.292694
304 0 1 2.756276 18.689426 46.532288
305 0 1 3.635377 18.627228 46.119598
306 0 1 4.412096 18.094727 46.441010
307 0 1 4.053026 17.202927 46.602295
308 0 1 3.934907 16.259525 46.532013
309 0 1 4.474515 15.535028 46.313202
310 0 1 3.683736 15.562627 45.816498
311 0 1 4.004797 14.624227 45.709991
312 0 1 4.088995 14.057527 46.543701
313 0 1 3.423185 13.280526 46.508606
314 0 1 4.274198 13.115727 46.110687
315 0 1 4.511678 12.721128 45.247711
316 0 1 4.089487 12.991128 44.412598
317 0 1 3.732827 12.946225 43.580017
318 0 1 3.577794 12.049424 43.806000
319 0 1 2.787736 11.971627 43.146790
320 0 1 2.043874 11.803388 42.563202
321 0 1 1.909395 11.386586 41.773590
322 0 1 1.199487 10.693177 41.569000
323 0 1 0.789094 10.573697 40.610687
324 0 1 -0.027995 10.978917 40.765808
325 0 1 -1.004708 10.826554 40.994690
326 0 1 -1.111132 10.651528 40.068604
327 0 1 -1.778451 11.115846 39.494202
328 0 1 -2.585801 11.081025 40.028595
329 0 1 -3.125634 10.559808 40.546387
330 0 1 -2.920394 9.838426 41.142609
331 0 1 -3.871773 9.977918 41.119812
332 0 1 -4.562113 9.275636 41.315002
333 0 1 -5.517424 9.319646 41.210693
334 0 1 -6.214304 10.028825 41.267609
335 0 1 -6.783043 9.765588 40.540710
336 0 1 -6.126933 9.100144 40.157410
337 0 1 -6.614283 9.231168 39.299316
338 0 1 -6.325995 8.620217 38.576294
339 0 1 -5.624064 8.170857 38.087311
340 0 1 -6.539324 8.120267 37.723907
341 0 1 -6.918644 7.324276 38.096710
342 0 1 -7.498663 6.669518 38.605591
343 0 1 -7.589163 6.339665 37.732483
344 0 1 -7.067284 5.666237 38.133209
345 0 1 -7.063694 5.068547 37.380707
346 0 1 -6.870585 4.235577 37.774109
347 0 1 -7.821433 4.396206 37.742798
348 0 1 -8.081645 5.215058 37.272308
349 0 1 -7.644314 4.637894 36.547211
350 0 1 -7.219143 4.388737 35.723389
351 0 1 -8.046683 4.080307 35.327789
352 0 1 -8.722045 4.301396 34.625000
353 0 1 -9.453513 4.822648 34.835693
354 0 1 -9.963614 4.004925 34.827515
355 0 1 -10.253703 3.199897 35.327393
356 0 1 -11.000243 2.633702 35.158508
357 0 1 -10.734694 1.851023 34.677887
358 0 1 -10.870013 0.916127 34.260803
359 0 1 -10.092025 0.648667 34.794708
360 0 1 -9.669475 0.006976 34.243195
361 0 1 -10.456923 -0.530624 34.105591
362 0 1 -11.127894 -0.933174 34.742096
363 0 1 -10.929454 -1.873754 34.596710
364 0 1 -10.281695 -2.491884 34.928497
365 0 1 -10.905295 -2.303325 35.645386
366 0 1 -10.603145 -2.314714 36.546387
367 0 1 -9.898204 -2.983604 36.436005
368 0 1 -9.214755 -3.103414 35.846497
369 0 1 -8.773833 -3.280814 35.000000
370 0 1 -7.933253 -3.155824 35.515289
371 0 1 -8.308934 -4.050094 35.633698
372 0 1 -7.690403 -4.589544 36.062195
373 0 1 -6.968813 -4.408695 36.698212
374 0 1 -7.222104 -4.737684 37.540497
375 0 1 -7.831574 -4.058975 37.360596
376 0 1 -8.472205 -4.562284 36.855988
377 0 1 -8.788074 -4.580314 37.753387
378 0 1 -9.378385 -5.324523 37.878784
379 0 1 -10.211934 -5.190284 38.431091
380 0 1 -9.992705 -5.864774 39.014404
381 0 1 -9.298335 -5.851064 39.692810
382 0 1 -9.870025 -5.249183 40.101685
383 0 1 -9.329005 -4.641614 40.586914
384 0 1 -8.797854 -4.371614 39.805786
385 0 1 -8.339534 -3.618663 39.286316
386 0 1 -8.683644 -2.817825 39.773010
387 0 1 -9.380034 -3.499843 39.815491
388 0 1 -10.267234 -3.807403 40.221588
389 0 1 -10.688613 -4.168844 41.022583
390 0 1 -10.884425 -5.043773 41.294098
391 0 1 -11.487075 -5.035104 40.575409
392 0 1 -12.095035 -4.332103 40.333893
393 0 1 -12.907935 -4.232355 39.760315
394 0 1 -12.646134 -3.364534 39.415588
395 0 1 -12.811734 -3.391294 38.449310
396 0 1 -12.322234 -4.161563 38.097107
397 0 1 -12.389735 -4.869844 38.699188
398 0 1 -13.259934 -5.030395 38.987793
399 0 1 -14.137836 -5.428894 38.728607
400 0 1 -13.437034 -6.025363 38.328186
401 0 1 -14.116233 -6.509685 37.792389
402 0 1 -13.872436 -7.402044 37.822906
403 0 1 -13.883433 -8.353675 38.079285
404 0 1 -14.554336 -8.150863 37.456604
405 0 1 -15.135934 -7.824565 38.192017
406 0 1 -15.935233 -7.453184 38.548706
407 0 1 -15.663535 -6.905735 37.815704
408 0 1 -16.403534 -6.147113 37.825989
409 0 1 -15.813735 -5.784343 37.187103
410 0 1 -15.862334 -5.304864 36.364197
411 0 1 -16.397635 -4.594005 36.000305
412 0 1 -16.567734 -4.153184 35.157715
413 0 1 -16.293333 -4.565475 34.281097
414 0 1 -15.417735 -4.185594 34.403412
415 0 1 -14.919034 -3.848073 33.561798
416 0 1 -14.051635 -3.552463 33.855408
417 0 1 -13.347236 -4.098785 33.734802
418 0 1 -13.298635 -4.667564 33.003601
419 0 1 -14.181933 -4.863723 32.510101
420 0 1 -14.355933 -4.377264 31.734192
421 0 1 -13.697135 -4.001964 31.049500
422 0 1 -13.057334 -4.458004 31.561310
423 0 1 -12.540534 -4.592393 30.718994
424 0 1 -12.477633 -3.640603 30.943390
425 0 1 -12.354135 -2.953054 30.325500
426 0 1 -13.020734 -2.317344 30.427094
427 0 1 -12.877934 -2.321954 31.366699
428 0 1 -12.164134 -1.734733 31.248596
429 0 1 -11.498044 -1.346855 30.533112
430 0 1 -11.885535 -0.505205 30.840210
431 0 1 -12.215434 0.210036 30.286407
432 0 1 -12.882533 0.882193 30.257294
433 0 1 -13.130034 1.415228 31.047485
434 0 1 -12.940135 1.980616 31.798889
435 0 1 -12.720735 1.004500 31.946289
436 0 1 -13.402234 0.579106 32.701691
437 0 1 -14.259734 0.970322 32.435791
438 0 1 -14.448035 0.108666 31.974792
439 0 1 -15.063033 0.091786 31.219604
440 0 1 -15.428435 -0.116153 30.395813
441 0 1 -16.357334 -0.317724 30.584686
442 0 1 -16.763134 -0.563835 29.663208
443 0 1 -16.561634 -1.232894 28.951202
444 0 1 -16.481134 -2.056434 28.461914
445 0 1 -16.890533 -2.460454 27.711304
446 0 1 -16.303734 -1.788114 27.381287
447 0 1 -15.370635 -1.938663 27.712189
448 0 1 -15.031934 -2.749084 28.129791
449 0 1 -14.276134 -2.970393 28.778198
450 0 1 -15.074134 -3.274314 29.146210
451 0 1 -15.282435 -4.200374 28.937988
452 0 1 -15.013635 -4.968013 28.526611
453 0 1 -14.858634 -4.441543 27.768616
454 0 1 -15.715735 -4.510925 27.278595
455 0 1 -16.627234 -4.810955 27.375702
456 0 1 -16.488234 -5.746883 26.902710
457 0 1 -15.622334 -6.119575 26.621307
458 0 1 -16.210234 -6.799354 26.943512
459 0 1 -16.519733 -6.970405 26.095703
460 0 1 -16.036333 -7.796014 25.892090
461 0 1 -16.046534 -7.922084 26.800110
462 0 1 -15.648034 -8.791175 26.599701
463 0 1 -15.186435 -8.733073 25.712494
464 0 1 -14.629535 -7.978574 25.574097
465 0 1 -14.428134 -8.337073 24.693787
466 0 1 -14.135135 -8.375974 23.801910
467 0 1 -13.257033 -8.320872 23.377106
468 0 1 -12.544034 -8.930274 23.474396
469 0 1 -11.762235 -8.679873 22.984406
470 0 1 -12.068534 -8.474074 22.113205
471 0 1 -11.215474 -8.044013 22.274002
472 0 1 -10.886184 -8.726274 21.638092
473 0 1 -10.113154 -8.050424 21.684006
474 0 1 -9.982783 -7.280765 22.231995
475 0 1 -9.766753 -6.413795 22.501801
476 0 1 -9.663634 -5.547454 23.032410
477 0 1 -10.594625 -5.203384 23.232910
478 0 1 -9.941665 -4.954423 23.875488
479 0 1 -10.178254 -5.014314 24.795990
480 0 1 -9.482484 -5.686143 24.591187
481 0 1 -8.835084 -5.079063 24.802887
482 0 1 -8.749154 -4.511693 24.017090
483 0 1 -8.697085 -3.661754 24.457306
484 0 1 -7.757124 -3.861133 24.134308
485 0 1 -6.964653 -3.588714 23.494110
486 0 1 -6.129214 -4.042743 23.203003
487 0 1 -5.969344 -4.940423 22.976105
488 0 1 -5.427695 -4.711053 22.261703
489 0 1 -4.499234 -4.634025 22.334305
490 0 1 -4.552615 -4.119215 23.161194
491 0 1 -4.750273 -4.789505 23.751099
492 0 1 -4.673844 -4.065753 24.313293
493 0 1 -4.516484 -3.652684 25.156891
494 0 1 -4.257014 -4.599063 25.325500
495 0 1 -5.213253 -4.420585 25.469604
496 0 1 -5.413174 -4.912084 24.678406
497 0 1 -5.297503 -5.636224 24.033112
498 0 1 -4.601353 -6.247013 23.762390
499 0 1 -4.460265 -7.123554 23.276306
500 0 1 -4.376704 -7.161075 24.230103
501 0 1 -5.329964 -7.095283 24.460815
502 0 1 -5.841454 -7.804664 24.079895
503 0 1 -5.595494 -8.668874 24.301605
504 0 1 -5.998114 -8.638274 25.230011
505 0 1 -6.722134 -8.802573 25.884888
506 0 1 -6.631863 -8.739573 26.843384
507 0 1 -5.771824 -8.663074 27.189789
508 0 1 -6.225955 -8.882873 28.012604
509 0 1 -5.968483 -9.831073 28.202087
510 0 1 -5.179884 -9.455573 28.671906
511 0 1 -4.743704 -8.588473 28.687195
512 0 1 -4.949093 -7.740594 28.268097
513 0 1 -5.578703 -7.040023 28.333099
514 0 1 -6.451285 -6.636394 28.390015
515 0 1 -6.969044 -5.831924 28.464111
516 0 1 -6.503924 -4.970853 28.350891
517 0 1 -6.893673 -5.138374 27.522491
518 0 1 -7.143084 -5.811044 26.889587
519 0 1 -7.508484 -6.081045 25.992188
520 0 1 -8.023034 -6.753665 26.455505
521 0 1 -8.363814 -7.024984 25.598694
522 0 1 -9.061574 -7.510734 25.230896
523 0 1 -8.489085 -7.979053 24.657990
524 0 1 -8.333724 -8.138755 23.718994
525 0 1 -8.327584 -8.889174 23.174591
526 0 1 -8.169925 -8.902074 22.170502
527 0 1 -7.911814 -9.743974 21.758804
528 0 1 -7.097273 -10.259873 22.085495
529 0 1 -6.594714 -9.882274 22.826111
530 0 1 -5.692133 -9.663274 23.057404
531 0 1 -5.216744 -10.403474 22.691589
532 0 1 -5.438223 -11.297973 22.606201
533 0 1 -4.989644 -11.988475 23.139893
534 0 1 -5.250033 -12.779874 22.618896
535 0 1 -5.886433 -13.009773 21.959305
536 0 1 -5.882464 -13.904274 22.141602
537 0 1 -6.498024 -13.405574 22.693787
538 0 1 -6.821024 -12.670774 23.263702
539 0 1 -7.416174 -11.991073 23.346893
540 0 1 -8.325555 -11.941274 22.816589
541 0 1 -8.022374 -11.029674 22.724792
542 0 1 -8.928414 -10.695575 22.666901
543 0 1 -9.278434 -9.958974 22.185898
544 0 1 -9.837115 -9.268973 21.770508
545 0 1 -9.580604 -8.858773 20.958206
546 0 1 -8.821715 -9.442073 21.199493
547 0 1 -9.386205 -9.724574 20.441299
548 0 1 -8.729533 -9.332473 19.809799
549 0 1 -8.140365 -9.204474 18.963898
550 0 1 -8.737254 -10.004874 18.976196
551 0 1 -8.973895 -9.391475 18.130905
552 0 1 -8.083785 -9.153674 17.796005
553 0 1 -7.140574 -8.930274 17.498993
554 0 1 -7.352854 -8.905272 16.561600
555 0 1 -6.694714 -8.249675 16.429306
556 0 1 -6.373965 -8.423972 15.529800
557 0 1 -5.458334 -8.521974 15.775894
558 0 1 -5.012614 -7.831184 15.302795
559 0 1 -4.445254 -7.358554 14.740494
560 0 1 -3.620305 -6.804134 14.908905
561 0 1 -3.095645 -6.601764 14.117706
562 0 1 -2.239537 -6.610534 13.728699
563 0 1 -1.303757 -6.778654 13.827194
564 0 1 -0.722504 -7.563243 13.789505
565 0 1 -0.793971 -8.571473 13.877701
566 0 1 -1.530274 -9.009574 13.508102
567 0 1 -2.035159 -8.493175 12.871506
568 0 1 -2.980935 -8.476073 13.116302
569 0 1 -3.690594 -9.093074 12.834305
570 0 1 -3.560803 -9.847873 13.478806
571 0 1 -4.365695 -10.275374 13.242905
572 0 1 -5.119324 -10.414674 12.648407
573 0 1 -4.648003 -10.852473 11.891907
574 0 1 -5.457394 -10.407573 11.514297
575 0 1 -6.317124 -10.937074 11.408798
576 0 1 -6.754754 -11.311173 12.172394
577 0 1 -6.502663 -12.124074 11.561096
578 0 1 -7.062233 -11.688174 10.871399
579 0 1 -7.447424 -12.492574 11.315704
580 0 1 -8.154895 -11.772674 11.393097
581 0 1 -8.006244 -11.119174 12.019592
582 0 1 -7.743834 -10.766873 11.195007
583 0 1 -7.849883 -9.746074 11.397095
584 0 1 -7.311614 -9.408275 10.707596
585 0 1 -6.512133 -9.958873 10.902496
586 0 1 -6.053164 -10.532973 10.375397
587 0 1 -5.089194 -10.578673 10.079697
588 0 1 -4.641484 -9.800075 10.395599
589 0 1 -4.442313 -9.744174 9.447052
590 0 1 -4.414485 -10.473474 8.926041
591 0 1 -4.005684 -10.976672 8.249664
592 0 1 -3.053454 -10.663474 8.198715
593 0 1 -2.155226 -10.297873 8.070557
594 0 1 -1.769545 -10.322774 7.179595
595 0 1 -0.895028 -10.722873 6.980346
596 0 1 -0.221724 -10.271073 7.489837
597 0 1 0.710447 -10.261874 7.274948
598 0 1 1.309457 -10.892573 6.931671
599 0 1 1.468927 -10.978274 7.947891
600 0 1 1.875997 -11.827674 7.919021
601 0 1 1.937444 -12.016673 6.955337
602 0 1 2.814756 -12.355773 6.843795
603 0 1 3.174737 -12.804274 6.112487
604 0 1 3.977975 -13.261674 5.946914
605 0 1 3.425607 -13.878074 5.510650
606 0 1 2.462705 -13.706573 5.108306
607 0 1 1.690805 -14.015774 4.648468
608 0 1 1.391984 -13.365173 4.063095
609 0 1 0.416787 -13.395373 3.933807
610 0 1 0.201757 -12.543874 3.717804
611 0 1 -0.450253 -11.981174 4.141372
612 0 1 -0.895217 -11.176574 4.517120
613 0 1 -1.828997 -10.972175 4.332565
614 0 1 -2.104317 -11.774375 4.785125
615 0 1 -3.050145 -11.910073 5.055313
616 0 1 -3.066264 -12.088473 4.089996
617 0 1 -2.323048 -11.655673 3.629852
618 0 1 -3.084313 -11.861274 3.072815
619 0 1 -3.974234 -12.277175 3.090286
620 0 1 -4.652335 -11.725774 2.607757
621 0 1 -5.358183 -12.372474 2.833633
622 0 1 -6.290503 -12.236773 2.948898
623 0 1 -6.741145 -11.821773 2.176559
624 0 1 -6.878863 -12.720373 1.806061
625 0 1 -7.022664 -12.103774 1.115448
626 0 1 -6.437495 -11.428874 0.742141
627 0 1 -6.360863 -11.996373 -0.034394
628 0 1 -5.789893 -12.067073 -0.786103
629 0 1 -5.031174 -11.553374 -0.428894
630 0 1 -4.385415 -10.826373 -0.584046
631 0 1 -4.520585 -9.918975 -0.778885
632 0 1 -4.465384 -9.076472 -0.370697
633 0 1 -4.009383 -8.248572 -0.556061
634 0 1 -4.957493 -8.120093 -0.479615
635 0 1 -4.845904 -7.452554 -1.122727
636 0 1 -4.020705 -7.595115 -1.698853
637 0 1 -3.777755 -6.898155 -1.090256
638 0 1 -4.228114 -6.152324 -1.471741
639 0 1 -3.376374 -5.880704 -1.161087
640 0 1 -2.497773 -5.998064 -0.867462
641 0 1 -2.138343 -6.914724 -0.745194
642 0 1 -1.766575 -7.767934 -0.965607
643 0 1 -1.568610 -8.723872 -0.962754
644 0 1 -2.041751 -9.519973 -0.593888
645 0 1 -1.798770 -9.566274 -1.526856
646 0 1 -2.622164 -9.398574 -1.949387
647 0 1 -2.180506 -9.752374 -2.679886
648 0 1 -1.437314 -10.383973 -2.628250
649 0 1 -0.525763 -10.071174 -2.306946
650 0 1 -0.002295 -9.681273 -2.928665
651 0 1 -0.350375 -8.863173 -2.540161
652 0 1 0.603845 -8.773772 -2.840027
653 0 1 1.209817 -8.697474 -2.058197
654 0 1 1.276155 -9.177974 -1.228363
655 0 1 1.073266 -9.737575 -0.483536
656 0 1 0.599614 -9.603574 0.450653
657 0 1 1.053335 -9.056273 1.085296
658 0 1 1.982988 -9.063373 1.392135
659 0 1 2.866124 -8.803174 1.079071
660 0 1 2.969358 -8.158004 0.422424
661 0 1 2.761815 -7.176635 0.513504
662 0 1 3.494615 -6.661933 0.818832
663 0 1 4.080156 -6.465385 0.130127
664 0 1 4.640745 -6.371374 0.896148
665 0 1 5.148668 -6.645565 0.098175
666 0 1 5.181394 -7.650993 0.110794
667 0 1 4.432287 -8.310973 -0.012192
668 0 1 4.168397 -9.347573 0.035141
669 0 1 3.868947 -9.933475 -0.709336
670 0 1 4.164747 -9.223773 -1.256272
671 0 1 4.451726 -9.413573 -2.127808
672 0 1 4.013814 -9.985274 -2.711640
673 0 1 4.354936 -10.251174 -3.484238
674 0 1 5.294988 -10.214873 -3.704636
675 0 1 5.887926 -10.540572 -3.024384
676 0 1 6.523977 -11.231174 -3.015091
677 0 1 7.424276 -10.754273 -2.956787
678 0 1 8.265553 -10.924575 -2.407410
679 0 1 7.884107 -11.860574 -2.558365
680 0 1 7.519987 -12.561774 -3.177780
681 0 1 7.789075 -13.411874 -2.687729
682 0 1 7.728426 -14.307773 -2.266236
683 0 1 8.297166 -14.823974 -2.810272
684 0 1 8.784863 -15.013274 -3.589585
685 0 1 8.309106 -15.373773 -4.345475
686 0 1 8.539765 -14.586074 -4.830246
687 0 1 8.807965 -13.790673 -5.300843
688 0 1 8.969266 -13.505874 -6.207505
689 0 1 8.268136 -13.844173 -6.682709
690 0 1 8.278867 -13.060473 -7.282105
691 0 1 8.801564 -12.542974 -7.907395
692 0 1 9.036267 -12.767974 -8.836395
693 0 1 9.002564 -13.584373 -8.140503
694 0 1 8.478467 -14.352374 -8.333862
695 0 1 8.407567 -15.281373 -8.567474
696 0 1 9.381566 -15.208573 -8.691971
697 0 1 9.211366 -15.782973 -9.411789
698 0 1 9.665967 -16.575874 -9.101913
699 0 1 9.110467 -16.453575 -8.217346
700 0 1 9.103665 -17.279575 -7.691773
701 0 1 8.104344 -17.447874 -7.673707
702 0 1 7.413316 -17.436075 -6.971787
703 0 1 7.686746 -18.360174 -7.024064
704 0 1 7.127157 -18.724575 -6.287858
705 0 1 7.505918 -19.485474 -5.831955
706 0 1 7.192766 -20.308075 -5.414475
707 0 1 7.555265 -20.703175 -6.279816
708 0 1 7.422788 -20.284475 -7.155442
709 0 1 7.114526 -20.997475 -7.711106
710 0 1 6.686414 -21.093575 -6.865342
711 0 1 5.739034 -20.967674 -7.162140
712 0 1 5.525926 -20.022974 -7.249024
713 0 1 5.444295 -19.075575 -7.550507
714 0 1 5.315958 -19.134874 -8.524704
715 0 1 6.034765 -19.114275 -9.247070
716 0 1 6.244707 -19.899475 -9.798401
717 0 1 7.019105 -19.519875 -10.221405
718 0 1 7.440824 -20.350975 -9.951263
719 0 1 7.373186 -21.230474 -9.662735
720 0 1 6.692808 -21.838375 -9.884003
721 0 1 6.401647 -21.588375 -10.802002
722 0 1 6.065866 -22.399174 -11.302597
723 0 1 6.762437 -21.984074 -11.699707
724 0 1 7.452375 -21.727774 -12.322296
725 0 1 7.241216 -21.014275 -12.909500
726 0 1 7.521707 -20.101274 -12.582092
727 0 1 7.544595 -19.153675 -12.840195
728 0 1 7.219778 -19.477474 -13.717896
729 0 1 6.936117 -19.618774 -14.627304
730 0 1 6.238946 -19.188175 -14.097000
731 0 1 5.916887 -18.420574 -14.532104
732 0 1 5.083017 -18.620874 -15.015808
733 0 1 4.534147 -18.909874 -14.334702
734 0 1 4.081457 -19.417374 -13.645096
735 0 1 3.672315 -19.685974 -12.818802
736 0 1 3.399465 -20.206474 -12.067795
737 0 1 3.993066 -19.469275 -11.876694
738 0 1 4.058786 -18.609974 -12.323593
739 0 1 4.485258 -17.928474 -11.743500
740 0 1 4.619775 -17.287874 -12.415802
741 0 1 4.933958 -16.792675 -13.197205
742 0 1 4.966997 -16.533175 -14.118607
743 0 1 4.532568 -17.099274 -14.781403
744 0 1 3.638654 -17.441475 -14.625504
745 0 1 3.073587 -17.748674 -13.916595
746 0 1 3.168874 -17.156775 -13.142105
747 0 1 2.213086 -16.955374 -13.298401
748 0 1 1.975194 -17.205175 -12.376694
749 0 1 2.117227 -16.242575 -12.318298
750 0 1 1.803045 -15.822873 -11.548706
751 0 1 1.108686 -15.525874 -12.099594
752 0 1 0.396367 -16.078875 -11.832397
753 0 1 0.425077 -16.610474 -12.664307
754 0 1 -0.495043 -16.618574 -12.671402
755 0 1 -1.406167 -16.760675 -13.008301
756 0 1 -2.307379 -16.782875 -13.313004
757 0 1 -2.284613 -17.389875 -12.563797
758 0 1 -2.718465 -18.111475 -13.040802
759 0 1 -2.110738 -18.816275 -13.172195
760 0 1 -1.865496 -18.930075 -12.250305
761 0 1 -0.929410 -18.978275 -12.382095
762 0 1 -0.745669 -18.333675 -13.061905
763 0 1 -0.898461 -19.040575 -13.730194
764 0 1 -0.315203 -19.522074 -14.305695
765 0 1 0.185678 -20.248575 -14.608597
766 0 1 -0.194153 -19.741575 -15.352600
767 0 1 -0.961442 -19.325575 -15.078598
768 0 1 -0.434403 -18.579975 -15.479202
769 0 1 0.004907 -18.762875 -16.283295
770 0 1 -0.219523 -18.265774 -17.043198
771 0 1 -0.430604 -19.217875 -17.187195
772 0 1 -0.385403 -20.056475 -16.583206
773 0 1 -0.550645 -20.242174 -17.505997
774 0 1 -0.206204 -19.799774 -18.301895
775 0 1 0.144967 -20.162474 -19.232300
776 0 1 0.038545 -19.229574 -19.543304
777 0 1 0.674596 -19.254974 -18.802307
778 0 1 1.177274 -19.258974 -18.069595
779 0 1 1.724378 -18.530174 -18.457199
780 0 1 1.430066 -17.706274 -18.894394
781 0 1 2.139566 -17.249174 -19.376205
782 0 1 2.489805 -17.504274 -20.326797
783 0 1 3.182508 -17.563675 -21.031906
784 0 1 2.401017 -17.496674 -21.649994
785 0 1 1.446508 -17.586674 -21.923492
786 0 1 0.677205 -17.230074 -21.398605