LAMMPS data file via MDAnalysis

        2000  atoms
        1999  bonds
           0  angles
           0  dihedrals
           0  impropers

           1  atom types
           1  bond types
           0  angle types
           0  dihedral types
           0  improper types

-30.5 30.5 xlo xhi
-30.5 30.5 ylo yhi
-233.5 233.5 zlo zhi


Masses

1 1.000000

Atoms

1 0 1 -3.966423 8.518724 76.562317
2 0 1 -4.746290 8.015425 76.412109
3 0 1 -5.017401 8.643824 75.775513
4 0 1 -5.758261 9.274424 75.793793
5 0 1 -5.549520 9.828623 76.546906
6 0 1 -5.860979 10.536722 75.981995
7 0 1 -5.234171 11.030523 75.520294
8 0 1 -5.282921 11.343225 74.583008
9 0 1 -6.111700 11.169424 75.061218
10 0 1 -6.591940 12.030123 74.678406
11 0 1 -7.219820 11.734125 73.979797
12 0 1 -7.451490 12.635225 73.752106
13 0 1 -8.166700 13.285921 73.847290
14 0 1 -8.760590 13.558023 74.597992
15 0 1 -8.953661 13.385824 75.539490
16 0 1 -9.660440 14.024126 75.686493
17 0 1 -9.918169 13.389124 75.054993
18 0 1 -10.075291 12.480124 74.911804
19 0 1 -11.010271 12.412821 74.854309
20 0 1 -11.696169 12.412325 75.535797
21 0 1 -11.964540 11.494326 75.720795
22 0 1 -12.588680 11.475523 76.508606
23 0 1 -12.927931 10.617723 76.322693
24 0 1 -13.173450 9.865423 76.946106
25 0 1 -13.968580 10.086424 77.576996
26 0 1 -14.672880 10.524126 78.012817
27 0 1 -14.455780 10.920321 77.120789
28 0 1 -14.840780 11.543726 76.476685
29 0 1 -14.951780 10.658422 76.148102
30 0 1 -14.946581 9.980921 75.438293
31 0 1 -14.403080 10.044622 74.672607
32 0 1 -14.872480 9.426622 74.132294
33 0 1 -13.927580 9.315123 74.269287
34 0 1 -13.745180 8.717325 75.019714
35 0 1 -13.396341 8.451323 74.104706
36 0 1 -12.805340 8.612421 73.411407
37 0 1 -12.327360 9.375025 73.158295
38 0 1 -11.681530 9.532221 72.373108
39 0 1 -11.719709 9.500025 71.429199
40 0 1 -10.704411 9.459223 71.406403
41 0 1 -10.002670 9.451921 70.757294
42 0 1 -9.251640 9.353022 70.148010
43 0 1 -8.355970 9.462523 69.713501
44 0 1 -8.805050 9.253824 68.868591
45 0 1 -8.350439 8.750723 68.125488
46 0 1 -8.691320 8.196623 68.873291
47 0 1 -9.482851 8.490122 69.262085
48 0 1 -9.933990 7.864623 69.789795
49 0 1 -9.512289 7.736125 70.632690
50 0 1 -8.714880 7.359126 70.201996
51 0 1 -8.584160 8.342024 70.168701
52 0 1 -7.819901 8.168222 70.865509
53 0 1 -6.953030 8.328722 70.402191
54 0 1 -6.546619 7.543223 69.891418
55 0 1 -5.742800 7.198523 69.525909
56 0 1 -6.357679 6.648524 68.924988
57 0 1 -5.997250 6.613524 67.982391
58 0 1 -6.507710 7.011324 67.247589
59 0 1 -6.426031 7.436224 66.408813
60 0 1 -5.789890 8.145224 66.601196
61 0 1 -6.221840 8.789923 66.014404
62 0 1 -5.513590 9.432825 66.037506
63 0 1 -4.695620 9.771326 65.586304
64 0 1 -4.570566 9.768324 64.653595
65 0 1 -4.741211 10.314123 63.901001
66 0 1 -5.010500 10.809824 63.170105
67 0 1 -5.440550 10.215723 62.484894
68 0 1 -6.106350 10.227121 63.138397
69 0 1 -6.805490 10.619123 62.724609
70 0 1 -7.759489 10.217821 62.669800
71 0 1 -7.863050 11.137724 62.907898
72 0 1 -7.913000 11.942724 63.437500
73 0 1 -8.628550 12.504824 63.139893
74 0 1 -9.070190 12.654623 62.241302
75 0 1 -9.937700 12.747721 61.738708
76 0 1 -9.598120 12.830324 60.884003
77 0 1 -8.874849 12.250925 60.656097
78 0 1 -8.192720 12.625624 60.139191
79 0 1 -7.266840 12.691423 60.112610
80 0 1 -6.513210 12.202723 59.744202
81 0 1 -5.840540 12.836023 59.975708
82 0 1 -5.284090 12.047922 60.281891
83 0 1 -5.630489 11.285624 59.750305
84 0 1 -4.867580 10.896822 60.164917
85 0 1 -4.122408 10.478525 60.640900
86 0 1 -3.696526 10.020525 61.352509
87 0 1 -2.873675 10.489923 61.604492
88 0 1 -2.498961 9.643221 62.008484
89 0 1 -3.010344 8.817621 62.045410
90 0 1 -2.365750 8.190924 61.738892
91 0 1 -1.487841 8.033525 62.140289
92 0 1 -1.546469 7.294524 62.746399
93 0 1 -2.064799 6.464125 62.599304
94 0 1 -1.850481 5.726923 62.044983
95 0 1 -1.135321 5.945323 62.647308
96 0 1 -0.512991 5.204024 62.763489
97 0 1 -1.210428 4.682925 63.097504
98 0 1 -1.213362 4.044726 62.353210
99 0 1 -0.414351 4.319224 61.871307
100 0 1 -0.081549 3.571024 61.374695
101 0 1 0.152551 4.017523 60.533600
102 0 1 -0.540789 4.511023 60.170990
103 0 1 0.168939 4.897025 59.693909
104 0 1 0.661169 5.403525 59.128784
105 0 1 0.311178 6.155825 58.668396
106 0 1 0.369779 6.271025 57.732208
107 0 1 -0.209540 5.481024 57.755798
108 0 1 -0.445440 4.600325 57.697906
109 0 1 -0.831541 4.148425 56.932495
110 0 1 -1.516810 3.569422 56.633606
111 0 1 -1.989802 4.014025 55.841888
112 0 1 -1.745981 4.495223 55.079712
113 0 1 -1.721102 3.578123 54.782196
114 0 1 -0.875189 3.262022 54.491913
115 0 1 -0.706309 4.074225 54.105591
116 0 1 -0.501169 4.818823 54.704590
117 0 1 -0.832411 5.115122 53.895294
118 0 1 -0.917360 6.093722 54.200989
119 0 1 -0.452891 6.724322 53.538086
120 0 1 -0.897631 6.643023 52.722504
121 0 1 -1.000181 5.931723 52.053192
122 0 1 -1.741511 5.406725 52.082001
123 0 1 -1.538119 4.881224 51.369995
124 0 1 -1.657671 4.965525 50.446411
125 0 1 -2.142960 4.189425 50.526703
126 0 1 -2.661387 4.869025 50.968903
127 0 1 -2.630541 4.855124 51.889801
128 0 1 -2.794308 5.798724 51.715210
129 0 1 -2.919037 6.155825 52.541290
130 0 1 -3.808163 5.796725 52.255188
131 0 1 -4.606384 5.433825 51.688416
132 0 1 -5.022739 4.587122 51.761902
133 0 1 -5.061810 4.677325 50.787811
134 0 1 -5.222250 3.733023 50.639099
135 0 1 -5.165770 3.874422 49.744293
136 0 1 -4.520721 4.101424 49.112793
137 0 1 -4.633181 4.723025 48.281403
138 0 1 -5.220560 4.288523 47.600311
139 0 1 -5.549410 5.202525 47.698914
140 0 1 -6.236000 4.685423 48.089111
141 0 1 -6.296480 3.868323 48.557404
142 0 1 -6.094650 2.917925 48.216187
143 0 1 -5.227989 2.529223 48.245087
144 0 1 -5.132280 1.854365 48.969208
145 0 1 -4.561049 2.371622 49.543091
146 0 1 -3.905970 2.148154 48.919006
147 0 1 -3.137583 2.079226 49.454712
148 0 1 -2.627131 2.831324 49.681702
149 0 1 -3.372778 3.415125 49.811798
150 0 1 -3.033692 4.117022 49.197998
151 0 1 -2.126959 3.978422 48.721313
152 0 1 -2.119990 4.643424 48.001495
153 0 1 -2.235121 5.606524 47.931305
154 0 1 -1.851809 6.047022 48.736389
155 0 1 -2.335240 6.776824 49.140808
156 0 1 -1.829821 7.587725 49.046600
157 0 1 -1.056059 7.970126 48.560394
158 0 1 -1.876860 8.477922 48.200989
159 0 1 -1.996130 7.714922 47.599091
160 0 1 -1.303290 7.679423 46.913910
161 0 1 -0.550612 7.464526 46.390686
162 0 1 -0.154871 8.254122 46.674713
163 0 1 0.684801 8.137823 47.263000
164 0 1 1.009878 8.207026 48.214111
165 0 1 0.421381 7.594923 48.846008
166 0 1 1.196230 7.056925 48.849701
167 0 1 1.688909 7.145125 48.045502
168 0 1 1.241812 6.284823 47.974487
169 0 1 1.878248 5.903624 48.597290
170 0 1 2.051248 5.593325 49.488586
171 0 1 1.531309 4.735125 49.489288
172 0 1 1.878752 4.928423 50.344391
173 0 1 2.398420 4.186121 50.750092
174 0 1 2.328260 3.533922 50.023590
175 0 1 2.437658 2.899924 49.330902
176 0 1 3.305071 2.853525 49.785797
177 0 1 4.014540 2.649622 49.159698
178 0 1 4.506861 3.015425 48.370392
179 0 1 4.468519 2.743922 47.507904
180 0 1 4.618780 3.634524 47.526093
181 0 1 4.235090 4.277323 48.142395
182 0 1 4.342661 5.106326 48.542389
183 0 1 4.592791 4.961623 49.476013
184 0 1 5.221861 5.610522 49.466003
185 0 1 5.686781 6.447524 49.472595
186 0 1 5.325579 6.672526 48.561890
187 0 1 6.242552 6.801524 48.075287
188 0 1 6.217680 6.603922 47.151703
189 0 1 5.630919 7.024722 46.387695
190 0 1 4.958632 7.449625 45.807007
191 0 1 4.978350 6.706423 45.174713
192 0 1 5.089220 6.229823 45.970490
193 0 1 4.613722 5.780924 45.174988
194 0 1 4.232649 5.083624 44.470795
195 0 1 3.754202 4.234023 44.643188
196 0 1 3.473650 3.332724 44.957886
197 0 1 2.801000 2.801424 44.364197
198 0 1 3.464529 2.213015 44.863190
199 0 1 4.065092 1.586233 45.296692
200 0 1 3.458071 1.290072 45.989014
201 0 1 3.438120 1.180815 46.898407
202 0 1 4.378881 1.230765 47.224487
203 0 1 5.225698 1.310072 47.792114
204 0 1 5.215979 0.611014 47.112915
205 0 1 4.918890 1.232283 46.397491
206 0 1 5.158861 2.190295 46.574493
207 0 1 4.823679 2.953425 46.068298
208 0 1 4.995588 2.773123 45.103790
209 0 1 5.280359 3.531725 44.603302
210 0 1 5.567900 4.161623 43.956604
211 0 1 6.381521 4.719325 43.679108
212 0 1 6.156130 5.076823 44.611298
213 0 1 6.600420 5.807322 45.054504
214 0 1 7.407019 5.504023 45.402191
215 0 1 8.225622 5.953822 45.032410
216 0 1 8.980219 5.434626 45.313202
217 0 1 9.912821 5.696826 45.574799
218 0 1 9.822020 4.874423 46.149200
219 0 1 10.320822 4.116625 46.475189
220 0 1 10.429220 3.585825 47.294189
221 0 1 10.020620 2.979525 46.648804
222 0 1 10.642218 2.266054 46.366516
223 0 1 10.360720 1.429522 45.950104
224 0 1 10.877218 0.693484 45.730286
225 0 1 10.683920 0.406393 44.881195
226 0 1 10.070719 -0.300546 44.473206
227 0 1 9.468718 0.281344 44.921204
228 0 1 9.379019 -0.626455 45.383209
229 0 1 9.018019 -0.218496 46.175995
230 0 1 8.745119 0.725863 46.301910
231 0 1 8.097319 0.657965 45.591309
232 0 1 7.139620 0.905524 45.517090
233 0 1 6.542822 1.392115 44.900513
234 0 1 6.243658 1.718844 44.020111
235 0 1 6.664820 2.481722 43.607391
236 0 1 7.273920 2.992323 42.977997
237 0 1 8.141821 3.248324 42.481812
238 0 1 7.960722 2.457026 41.894989
239 0 1 7.927122 1.589945 41.431091
240 0 1 7.104422 1.776415 41.050903
241 0 1 6.532820 1.073714 40.748199
242 0 1 5.737532 1.187815 40.156189
243 0 1 5.985701 1.389853 39.218292
244 0 1 6.739321 1.663462 38.724792
245 0 1 7.322519 2.439524 38.484497
246 0 1 8.155321 2.594424 38.985504
247 0 1 7.977819 3.181723 38.289001
248 0 1 7.769522 4.056723 37.876099
249 0 1 8.638620 4.501723 38.076202
250 0 1 8.770121 5.417025 38.075195
251 0 1 9.592619 4.972323 37.994598
252 0 1 9.653521 4.217524 38.495483
253 0 1 9.903021 3.419222 38.080902
254 0 1 10.817919 3.303423 37.713287
255 0 1 11.233019 3.040922 36.830902
256 0 1 11.505720 3.588122 36.096588
257 0 1 12.343519 4.076125 36.188812
258 0 1 12.188520 4.654624 36.927490
259 0 1 11.987520 4.100726 37.716003
260 0 1 12.251822 4.514822 38.564301
261 0 1 12.143019 5.520922 38.707092
262 0 1 11.862318 5.998724 39.611694
263 0 1 11.980520 5.303324 40.311707
264 0 1 12.887419 5.723124 40.105286
265 0 1 13.623819 6.211123 39.662689
266 0 1 14.489622 5.953024 39.812592
267 0 1 14.218420 5.787825 38.903992
268 0 1 15.123819 5.442824 38.478699
269 0 1 15.314817 4.550425 38.332886
270 0 1 14.827818 4.769324 37.558411
271 0 1 14.933020 5.667525 37.268494
272 0 1 14.069120 5.677924 36.893707
273 0 1 13.957121 6.685626 36.628693
274 0 1 14.664221 6.872424 36.078613
275 0 1 14.842619 7.327624 35.235809
276 0 1 14.996820 8.142424 34.809296
277 0 1 15.351320 8.992121 35.050201
278 0 1 15.498220 9.180223 34.133606
279 0 1 15.210318 9.419825 33.206390
280 0 1 14.240522 9.560923 32.948303
281 0 1 14.414618 10.142626 33.655701
282 0 1 14.020422 11.032324 33.752106
283 0 1 13.533621 10.703722 33.009796
284 0 1 13.924917 11.575022 32.895508
285 0 1 14.225321 12.482622 33.031311
286 0 1 14.330122 13.257921 32.520599
287 0 1 14.135420 13.218622 31.565002
288 0 1 13.917921 13.686922 30.730713
289 0 1 13.721418 13.445223 29.791901
290 0 1 12.908117 13.897223 29.467804
291 0 1 13.599623 14.560324 29.232208
292 0 1 13.503820 13.943521 28.537994
293 0 1 13.635717 14.812021 28.052399
294 0 1 13.342718 14.151423 27.483215
295 0 1 13.651419 13.969423 26.560394
296 0 1 13.300817 14.204821 25.659210
297 0 1 12.585218 14.204123 25.026184
298 0 1 12.347921 15.108423 24.983490
299 0 1 11.527418 15.540724 25.107697
300 0 1 11.569120 14.595224 25.326508
301 0 1 11.025820 14.211824 26.062012
302 0 1 10.697119 13.339922 25.971100
303 0 1 10.228918 12.550123 25.666595
304 0 1 10.407522 11.655222 25.301788
305 0 1 11.394320 11.276224 25.373993
306 0 1 12.284719 11.627123 25.341095
307 0 1 12.667021 12.233622 25.978912
308 0 1 13.230719 11.482821 25.982391
309 0 1 13.967619 10.865023 26.083893
310 0 1 14.478720 11.315821 25.327515
311 0 1 15.252623 11.103724 24.834290
312 0 1 16.195921 11.354223 24.584595
313 0 1 16.974821 11.927324 24.379608
314 0 1 17.502920 11.607424 25.049103
315 0 1 17.895018 10.696123 25.340210
316 0 1 17.252722 10.386621 26.028198
317 0 1 16.534121 9.857325 26.140991
318 0 1 15.606119 9.868921 26.529602
319 0 1 15.751619 9.200224 27.242706
320 0 1 16.288019 8.507326 26.723114
321 0 1 16.627317 7.655524 26.579010
322 0 1 15.878321 7.506823 25.945587
323 0 1 15.424818 7.636923 26.788910
324 0 1 14.749121 7.445124 26.103516
325 0 1 13.840219 7.695422 25.980591
326 0 1 13.810320 6.794924 26.341614
327 0 1 14.124418 5.953524 26.101593
328 0 1 13.620520 5.404322 26.686310
329 0 1 12.966818 5.520125 27.476898
330 0 1 12.764318 4.940024 28.186890
331 0 1 11.839621 4.728625 28.397186
332 0 1 11.693419 3.786223 28.384491
333 0 1 12.427919 3.371825 28.856110
334 0 1 12.465120 2.728224 29.579590
335 0 1 13.175920 2.321825 29.050201
336 0 1 13.559919 2.894324 28.364990
337 0 1 14.099520 2.938025 27.538300
338 0 1 13.116117 2.865324 27.307190
339 0 1 12.876318 1.932635 27.123596
340 0 1 11.952719 2.117205 27.172394
341 0 1 11.145220 1.897475 27.604309
342 0 1 11.299921 1.408976 26.845490
343 0 1 10.807821 0.873644 26.145294
344 0 1 10.003019 0.506834 26.555908
345 0 1 10.190619 1.073313 27.273193
346 0 1 9.424520 1.248533 27.833710
347 0 1 9.068922 2.097384 27.641693
348 0 1 8.489019 2.835924 27.431885
349 0 1 7.981821 2.524225 26.628113
350 0 1 7.798220 1.619532 26.956512
351 0 1 7.781820 0.806544 26.374207
352 0 1 6.914122 0.254824 26.359192
353 0 1 6.364119 0.217604 27.125916
354 0 1 6.771219 -0.152654 27.896210
355 0 1 6.301809 -0.340826 28.676697
356 0 1 6.557318 0.650576 28.539703
357 0 1 6.101591 1.534743 28.404388
358 0 1 5.092890 1.605425 28.149200
359 0 1 4.909948 2.193094 28.875488
360 0 1 4.960562 3.010226 28.266693
361 0 1 4.278738 2.908922 27.548798
362 0 1 4.125040 2.760721 26.581390
363 0 1 4.021009 2.931025 25.660797
364 0 1 4.430361 2.235434 25.083008
365 0 1 3.825361 1.523844 25.285492
366 0 1 3.237509 1.817652 24.540314
367 0 1 2.275949 1.794333 24.627991
368 0 1 1.824869 2.636225 24.556091
369 0 1 1.731439 1.989573 23.888306
370 0 1 1.574651 2.467722 23.080200
371 0 1 0.899408 3.200224 22.962891
372 0 1 0.087358 3.789824 23.033813
373 0 1 -0.653151 3.618124 23.598206
374 0 1 -1.555788 3.414126 23.747803
375 0 1 -1.978201 2.574225 23.931305
376 0 1 -2.084910 1.639193 23.769714
377 0 1 -1.316820 1.248041 24.269501
378 0 1 -1.818140 0.486174 24.284393
379 0 1 -1.716601 -0.307905 24.788513
380 0 1 -1.539881 -1.267877 24.771790
381 0 1 -1.620531 -2.209768 25.127106
382 0 1 -1.015661 -2.964887 25.165009
383 0 1 -0.457709 -2.299936 24.881104
384 0 1 -0.625452 -2.779257 24.037292
385 0 1 -0.286749 -3.378217 23.310211
386 0 1 -0.889742 -2.767545 22.940704
387 0 1 -0.182558 -2.136686 22.971313
388 0 1 0.332880 -1.683977 23.632599
389 0 1 -0.531542 -1.284685 23.746399
390 0 1 -1.419199 -1.009977 23.472992
391 0 1 -2.280890 -0.631597 23.245392
392 0 1 -2.631510 -0.625948 24.137207
393 0 1 -3.328577 -0.969267 23.567291
394 0 1 -3.352017 -0.368726 22.854309
395 0 1 -3.861706 -0.446134 21.989197
396 0 1 -3.037607 -0.659128 21.499207
397 0 1 -3.586140 -1.030275 20.810303
398 0 1 -4.155504 -0.316255 20.983704
399 0 1 -3.561421 0.099284 20.308899
400 0 1 -3.194966 0.529463 21.087204
401 0 1 -3.389971 1.510523 21.221008
402 0 1 -2.949463 1.111284 21.957794
403 0 1 -2.296030 1.270415 22.673706
404 0 1 -2.849125 0.645384 23.174896
405 0 1 -3.634709 1.066721 23.363708
406 0 1 -4.454060 1.552752 22.997589
407 0 1 -4.632082 2.505121 22.944702
408 0 1 -5.177111 2.117342 22.229401
409 0 1 -4.813921 2.911223 21.816498
410 0 1 -5.063061 2.368124 20.995499
411 0 1 -4.562582 2.926325 20.364395
412 0 1 -3.731375 2.973524 19.917603
413 0 1 -3.473580 3.365725 19.106506
414 0 1 -2.844839 3.902521 19.652496
415 0 1 -1.905081 4.003726 19.893402
416 0 1 -0.976179 4.128726 20.007294
417 0 1 -0.934660 4.921023 20.545700
418 0 1 -0.449492 5.744524 20.496704
419 0 1 -1.023730 6.242823 19.878693
420 0 1 -1.109610 5.502425 19.265900
421 0 1 -0.778609 5.081126 18.459503
422 0 1 0.013990 5.051924 17.915695
423 0 1 0.766809 4.459525 17.701401
424 0 1 0.776571 3.594824 17.289093
425 0 1 0.628000 4.289725 16.679199
426 0 1 1.470491 4.566023 16.229004
427 0 1 1.909620 3.733324 16.433701
428 0 1 2.358110 2.793623 16.267105
429 0 1 2.043691 2.023806 16.834305
430 0 1 1.422960 2.418825 16.122696
431 0 1 1.576811 2.822123 15.204605
432 0 1 1.690191 3.108324 14.355499
433 0 1 2.465330 2.527521 14.266296
434 0 1 3.070410 3.083525 13.705505
435 0 1 3.319799 2.185175 13.513901
436 0 1 4.226351 1.867922 13.663696
437 0 1 4.107962 0.933825 13.860504
438 0 1 3.821741 0.197653 13.377396
439 0 1 4.669809 0.088232 13.645706
440 0 1 4.558481 -0.760988 13.246994
441 0 1 4.365492 -0.718836 14.196701
442 0 1 4.452700 -1.639757 13.949097
443 0 1 5.111929 -2.247007 14.392700
444 0 1 5.247519 -2.587438 15.274597
445 0 1 5.945692 -1.862264 15.168396
446 0 1 5.909670 -0.925447 15.011093
447 0 1 6.094801 -0.052648 15.501801
448 0 1 5.475988 0.658934 15.417404
449 0 1 6.189688 1.269762 15.458099
450 0 1 5.592810 1.720202 14.761703
451 0 1 5.834909 2.508822 15.370895
452 0 1 5.829832 2.607924 16.324203
453 0 1 6.599119 2.059393 16.077698
454 0 1 6.359961 2.043673 16.995895
455 0 1 6.118139 2.474524 17.845398
456 0 1 5.410490 1.939165 18.343994
457 0 1 4.509680 1.656264 18.362793
458 0 1 4.993441 1.207552 17.699600
459 0 1 5.727949 0.912241 18.299194
460 0 1 6.267149 0.151625 17.971207
461 0 1 6.638620 -0.737886 18.094101
462 0 1 6.853220 -0.164545 18.917099
463 0 1 7.824621 0.078333 18.948608
464 0 1 8.735319 0.110453 18.765808
465 0 1 8.476221 0.417734 19.696503
466 0 1 8.977419 -0.033746 20.389297
467 0 1 8.479818 -0.835985 20.725494
468 0 1 7.814421 -0.198305 20.394897
469 0 1 6.859320 -0.371656 20.278595
470 0 1 6.222662 0.030173 20.902100
471 0 1 6.373621 0.619234 20.155106
472 0 1 6.314070 1.024386 19.299805
473 0 1 5.794012 1.620123 19.803406
474 0 1 6.026281 1.447912 20.760498
475 0 1 5.559320 1.449091 21.630096
476 0 1 4.709269 1.044813 21.342102
477 0 1 4.752882 0.459864 22.120895
478 0 1 3.798349 0.648646 22.241501
479 0 1 3.850618 -0.030058 21.550903
480 0 1 4.482191 -0.772566 21.355499
481 0 1 5.135439 -0.958475 20.636505
482 0 1 4.711889 -1.546018 20.029602
483 0 1 4.637201 -2.452688 19.587799
484 0 1 4.726782 -2.554258 18.624695
485 0 1 5.057058 -2.832655 17.795502
486 0 1 4.234789 -3.220007 17.671402
487 0 1 3.417459 -3.272577 18.268906
488 0 1 3.509298 -2.279836 18.435806
489 0 1 3.555448 -1.362325 18.365692
490 0 1 3.299799 -0.534387 18.829498
491 0 1 2.582922 -1.326185 18.942001
492 0 1 1.745538 -1.644148 18.536697
493 0 1 0.910589 -2.188558 18.404099
494 0 1 -0.104681 -2.196935 18.379700
495 0 1 0.129560 -2.603906 19.242203
496 0 1 0.048010 -3.425176 18.701202
497 0 1 -0.672430 -3.226599 18.083298
498 0 1 -1.485842 -3.525915 18.551895
499 0 1 -1.147219 -4.069227 17.826202
500 0 1 -0.868841 -4.802408 18.410202
501 0 1 -0.953959 -5.778455 18.341995
502 0 1 -0.748041 -6.192625 17.500595
503 0 1 -1.309351 -6.785001 17.907593
504 0 1 -1.957312 -7.399238 18.364395
505 0 1 -2.735455 -7.769571 18.880493
506 0 1 -2.778494 -7.700605 19.909805
507 0 1 -2.792568 -6.753421 20.195007
508 0 1 -3.614018 -7.029672 20.739807
509 0 1 -4.206541 -7.004859 19.960999
510 0 1 -4.968910 -6.558616 20.311493
511 0 1 -5.291241 -7.258321 19.700806
512 0 1 -5.741131 -7.682497 18.918594
513 0 1 -4.900961 -8.013586 18.582794
514 0 1 -4.268070 -7.831779 17.859695
515 0 1 -3.945221 -8.248589 16.997299
516 0 1 -3.450424 -8.216492 16.208893
517 0 1 -4.254225 -8.226233 15.664001
518 0 1 -5.055790 -7.798570 15.118698
519 0 1 -5.033840 -7.209562 15.891693
520 0 1 -5.627270 -6.988008 16.660599
521 0 1 -5.988850 -6.144308 16.324997
522 0 1 -6.305321 -5.487997 16.950302
523 0 1 -6.706461 -4.873456 16.343201
524 0 1 -5.907490 -4.555925 15.961304
525 0 1 -5.191080 -3.814955 15.854706
526 0 1 -5.251619 -2.978536 16.272308
527 0 1 -5.618120 -3.649637 16.842804
528 0 1 -6.505711 -3.824507 16.429001
529 0 1 -6.885500 -4.107687 15.590393
530 0 1 -7.105471 -5.022165 15.412598
531 0 1 -7.966560 -4.737417 15.078506
532 0 1 -8.271799 -5.306325 14.363907
533 0 1 -9.107481 -5.386297 14.767395
534 0 1 -9.801680 -4.758977 14.537903
535 0 1 -10.205130 -5.164545 13.696198
536 0 1 -10.357380 -5.145788 12.748505
537 0 1 -9.795450 -5.931646 12.777603
538 0 1 -8.901091 -6.209768 12.511093
539 0 1 -7.917540 -6.296907 12.526703
540 0 1 -7.640940 -7.223367 12.604797
541 0 1 -7.775370 -8.128267 12.076202
542 0 1 -7.180639 -8.640219 11.565002
543 0 1 -6.786280 -8.374218 12.370605
544 0 1 -6.038740 -9.020388 12.373306
545 0 1 -5.069290 -9.011497 12.458603
546 0 1 -4.671431 -9.748667 12.862106
547 0 1 -5.322510 -10.376497 12.497894
548 0 1 -6.251659 -10.715296 12.206406
549 0 1 -6.270430 -11.573776 12.552795
550 0 1 -6.271370 -11.626427 13.489105
551 0 1 -6.222839 -12.518988 13.162994
552 0 1 -5.396299 -12.632547 12.533600
553 0 1 -5.672331 -13.510317 12.320602
554 0 1 -6.659510 -13.753927 12.210297
555 0 1 -6.321320 -14.614077 12.027206
556 0 1 -6.934071 -14.986246 12.724899
557 0 1 -7.872250 -14.804506 12.744797
558 0 1 -8.030149 -15.574427 13.278702
559 0 1 -8.103689 -15.174536 14.155304
560 0 1 -8.393179 -15.230047 15.112198
561 0 1 -9.325701 -14.981947 15.594696
562 0 1 -8.697269 -15.064867 16.279999
563 0 1 -9.105410 -15.067007 17.197998
564 0 1 -9.519480 -15.073597 18.041702
565 0 1 -9.302080 -14.197756 18.259995
566 0 1 -8.365339 -14.432556 18.345093
567 0 1 -8.714060 -15.109926 18.950897
568 0 1 -9.439699 -15.765516 18.843399
569 0 1 -9.332300 -16.649305 19.211304
570 0 1 -10.255751 -16.942707 18.961700
571 0 1 -10.385941 -17.906477 19.051300
572 0 1 -10.440439 -18.503176 18.339203
573 0 1 -9.956030 -18.639376 17.535400
574 0 1 -9.413071 -18.694077 16.718201
575 0 1 -9.904779 -19.508677 16.671005
576 0 1 -10.018339 -19.013475 15.826004
577 0 1 -10.472050 -18.539476 15.125595
578 0 1 -11.029699 -19.316076 15.038498
579 0 1 -11.132799 -20.269377 15.162598
580 0 1 -11.396629 -20.647276 14.309402
581 0 1 -10.435289 -20.859278 14.182007
582 0 1 -10.073599 -20.298876 13.490204
583 0 1 -9.380020 -20.031675 12.965805
584 0 1 -9.852301 -20.793177 12.598495
585 0 1 -9.967730 -21.453577 11.863205
586 0 1 -10.344530 -22.342876 11.972000
587 0 1 -11.199530 -22.055677 12.290604
588 0 1 -11.057791 -21.123877 12.593597
589 0 1 -10.604361 -21.669477 13.219894
590 0 1 -11.380590 -22.089077 13.451096
591 0 1 -11.908209 -22.575676 14.075104
592 0 1 -12.067259 -22.926975 14.979599
593 0 1 -12.691860 -22.374876 15.382401
594 0 1 -12.216311 -21.594976 15.648407
595 0 1 -12.627199 -20.608976 15.828308
596 0 1 -13.352430 -20.584177 16.524597
597 0 1 -12.621620 -20.736776 17.143799
598 0 1 -12.523241 -19.989077 17.742493
599 0 1 -11.569220 -20.259275 17.888596
600 0 1 -11.646120 -19.379177 17.415100
601 0 1 -11.982710 -18.738876 16.803101
602 0 1 -12.820349 -18.121777 16.462799
603 0 1 -13.612509 -18.600176 16.781998
604 0 1 -14.296680 -18.068377 17.232498
605 0 1 -14.746981 -17.472937 16.583405
606 0 1 -15.683180 -17.680536 16.552505
607 0 1 -15.949980 -17.315435 15.736099
608 0 1 -15.409880 -16.699347 16.215500
609 0 1 -15.480181 -15.835217 16.532898
610 0 1 -16.125080 -15.227106 16.918594
611 0 1 -16.719980 -15.954407 17.021301
612 0 1 -16.583681 -16.840147 16.753006
613 0 1 -17.466379 -17.087437 16.690796
614 0 1 -18.153481 -17.075567 16.003296
615 0 1 -18.591080 -17.063486 16.900803
616 0 1 -18.622381 -17.509718 17.773407
617 0 1 -19.054781 -17.926878 17.079300
618 0 1 -19.999081 -18.004778 16.745697
619 0 1 -19.924080 -17.732878 17.620300
620 0 1 -19.852381 -16.815218 17.823700
621 0 1 -19.998180 -15.848528 17.804596
622 0 1 -20.819180 -15.529837 17.416107
623 0 1 -21.181280 -14.692446 17.391602
624 0 1 -21.906380 -14.891066 16.745102
625 0 1 -21.331181 -14.831707 16.054596
626 0 1 -22.179480 -14.999496 15.611496
627 0 1 -22.141581 -15.973766 15.433701
628 0 1 -21.284679 -15.693476 15.020096
629 0 1 -21.086479 -15.407427 14.036606
630 0 1 -20.771379 -15.723026 13.100708
631 0 1 -21.387480 -14.937046 12.972198
632 0 1 -21.186781 -15.384317 12.124695
633 0 1 -21.646879 -14.593647 11.815903
634 0 1 -21.890280 -14.561926 10.856003
635 0 1 -22.794380 -14.281677 10.888306
636 0 1 -23.171780 -14.940687 10.292297
637 0 1 -23.367580 -15.851797 10.448303
638 0 1 -22.501579 -15.989885 10.030396
639 0 1 -22.851080 -16.797647 9.641403
640 0 1 -23.043381 -17.638536 10.080902
641 0 1 -22.237381 -18.250177 10.062607
642 0 1 -21.457479 -18.840977 9.803528
643 0 1 -20.518080 -18.639875 10.000702
644 0 1 -19.732479 -19.065676 10.339508
645 0 1 -19.614981 -20.027576 10.374695
646 0 1 -18.664881 -20.067377 10.621597
647 0 1 -18.319380 -19.385777 10.096405
648 0 1 -18.795280 -18.956278 9.408005
649 0 1 -18.438980 -19.100077 8.505096
650 0 1 -17.736280 -18.355476 8.606995
651 0 1 -18.264080 -17.644547 8.974487
652 0 1 -18.575380 -16.761557 9.288925
653 0 1 -18.179180 -16.123627 8.630280
654 0 1 -17.423580 -16.288046 8.060837
655 0 1 -16.994879 -15.408567 7.779770
656 0 1 -16.580381 -15.381046 6.874253
657 0 1 -15.648180 -15.539837 6.776642
658 0 1 -14.973680 -16.048338 6.226883
659 0 1 -14.412180 -16.376688 7.011384
660 0 1 -15.061579 -16.009087 7.673935
661 0 1 -14.818579 -15.444817 8.441437
662 0 1 -15.577280 -15.419767 9.130081
663 0 1 -14.854380 -14.803156 9.266632
664 0 1 -14.493580 -13.989246 8.956635
665 0 1 -13.674879 -14.156857 8.479767
666 0 1 -12.744299 -14.307617 8.615570
667 0 1 -12.476151 -14.927797 9.288116
668 0 1 -13.343359 -14.962727 9.788071
669 0 1 -13.426409 -15.824997 10.166199
670 0 1 -13.008699 -16.386866 10.899200
671 0 1 -12.437799 -17.239567 10.955704
672 0 1 -11.728210 -17.873177 10.779404
673 0 1 -11.756300 -18.668276 11.362106
674 0 1 -12.666380 -18.300877 11.532104
675 0 1 -13.035589 -17.909178 12.312698
676 0 1 -13.538210 -17.058867 11.897507
677 0 1 -13.247229 -16.330557 12.443405
678 0 1 -13.262381 -16.067907 13.358093
679 0 1 -13.661379 -15.398066 13.897095
680 0 1 -13.727180 -15.164356 12.979095
681 0 1 -14.413380 -14.535948 13.078903
682 0 1 -13.968981 -13.706547 12.844101
683 0 1 -14.535879 -13.222397 12.194199
684 0 1 -15.274981 -12.626297 12.184799
685 0 1 -15.440580 -11.653797 11.916199
686 0 1 -15.824781 -11.503397 12.820694
687 0 1 -16.539179 -11.452288 13.515396
688 0 1 -16.829279 -11.129156 12.660797
689 0 1 -17.351179 -10.475576 12.194794
690 0 1 -18.314081 -10.758116 12.156906
691 0 1 -18.868681 -11.527496 12.064697
692 0 1 -19.752180 -11.843126 11.876007
693 0 1 -19.726480 -11.968006 10.915894
694 0 1 -20.181780 -11.318027 10.350494
695 0 1 -20.177080 -11.190897 9.361374
696 0 1 -20.396080 -10.615557 8.631393
697 0 1 -19.521280 -10.308237 8.810776
698 0 1 -18.571880 -10.079586 8.863876
699 0 1 -17.824680 -10.218487 8.273926
700 0 1 -17.271479 -10.151007 7.479996
701 0 1 -16.897081 -9.807096 6.654114
702 0 1 -16.155981 -10.477367 6.674561
703 0 1 -15.503780 -9.723467 6.371323
704 0 1 -15.895781 -9.954617 5.536301
705 0 1 -16.047180 -10.811737 5.103547
706 0 1 -15.923681 -10.011686 4.545105
707 0 1 -16.067179 -9.860147 3.570817
708 0 1 -16.741579 -9.445917 4.156357
709 0 1 -17.292780 -9.809057 4.814881
710 0 1 -17.982880 -9.158796 5.139985
711 0 1 -18.228580 -8.572121 4.437363
712 0 1 -18.528481 -7.675169 4.583756
713 0 1 -18.892580 -8.110956 3.831589
714 0 1 -18.599380 -8.433638 2.934327
715 0 1 -17.953379 -8.729237 2.303223
716 0 1 -18.345680 -8.111544 1.732437
717 0 1 -18.778681 -8.668165 1.080216
718 0 1 -18.017279 -8.235437 0.634888
719 0 1 -17.977079 -9.032196 0.024384
720 0 1 -17.943979 -9.165176 -0.916671
721 0 1 -18.405281 -9.999308 -0.929565
722 0 1 -18.637180 -10.973976 -0.993728
723 0 1 -18.892681 -11.811796 -0.623855
724 0 1 -19.816481 -11.763517 -0.316894
725 0 1 -20.729780 -11.529116 -0.008728
726 0 1 -21.104080 -11.207087 0.752915
727 0 1 -21.805180 -11.146677 0.138077
728 0 1 -22.005581 -11.602417 -0.714889
729 0 1 -22.842180 -11.667086 -0.281341
730 0 1 -23.228580 -10.857857 -0.787826
731 0 1 -23.766279 -11.337177 -1.413406
732 0 1 -24.490681 -11.721807 -0.897018
733 0 1 -24.085381 -11.645506 0.002686
734 0 1 -24.555679 -12.273697 0.596894
735 0 1 -25.078680 -11.381126 0.660126
736 0 1 -25.802481 -11.207846 1.225464
737 0 1 -24.999781 -10.659767 1.402817
738 0 1 -24.397980 -9.924696 1.161957
739 0 1 -25.153080 -9.582376 0.641068
740 0 1 -25.875280 -9.009077 0.373688
741 0 1 -26.446480 -8.424931 0.908493
742 0 1 -26.164680 -7.717107 1.525635
743 0 1 -26.426479 -7.047105 2.160996
744 0 1 -25.997980 -6.901201 3.082535
745 0 1 -26.383181 -6.931459 3.934891
746 0 1 -26.887079 -6.162508 4.329651
747 0 1 -27.565580 -6.367996 4.930512
748 0 1 -27.481380 -7.100456 5.590622
749 0 1 -27.441681 -8.000862 5.259247
750 0 1 -26.774179 -8.397346 5.750275
751 0 1 -26.981279 -8.321396 6.688538
752 0 1 -26.379280 -7.538501 6.508042
753 0 1 -25.496380 -7.217517 6.716141
754 0 1 -25.154881 -6.933593 7.550812
755 0 1 -24.890881 -6.062234 7.205094
756 0 1 -24.146481 -5.503015 7.506226
757 0 1 -23.527880 -6.033147 8.119080
758 0 1 -22.736681 -5.474958 7.920395
759 0 1 -22.769680 -4.786966 7.262787
760 0 1 -22.240681 -4.212007 6.663407
761 0 1 -22.337879 -3.309286 6.884049
762 0 1 -22.831680 -2.815145 7.577546
763 0 1 -22.423481 -1.904096 7.278077
764 0 1 -21.558180 -1.765486 7.166642
765 0 1 -20.950581 -1.566026 7.882355
766 0 1 -20.547880 -0.762708 8.351532
767 0 1 -21.109980 -0.170736 8.918488
768 0 1 -21.481180 0.235564 8.139572
769 0 1 -21.971279 -0.483576 7.669465
770 0 1 -21.697781 0.014254 6.845566
771 0 1 -20.879681 -0.004816 7.314087
772 0 1 -20.252480 -0.347185 6.566544
773 0 1 -20.240881 0.184004 5.764878
774 0 1 -19.611080 0.509775 5.209046
775 0 1 -19.626480 1.213675 4.519227
776 0 1 -20.343580 1.273432 3.870072
777 0 1 -20.709681 1.749884 4.544404
778 0 1 -21.569481 1.737375 4.106644
779 0 1 -21.639681 1.601134 5.075577
780 0 1 -22.082081 2.424025 5.501709
781 0 1 -22.076481 3.175223 4.953904
782 0 1 -21.796181 4.082724 4.976655
783 0 1 -21.051281 4.437022 5.527405
784 0 1 -20.574680 4.321124 4.682633
785 0 1 -20.987080 5.230425 4.753174
786 0 1 -21.795380 5.345423 4.262787
787 0 1 -22.057779 5.884825 5.078812
788 0 1 -21.302280 6.322123 4.548874
789 0 1 -20.509380 6.031825 5.110276