LAMMPS data file via MDAnalysis

        2000  atoms
        1999  bonds
           0  angles
           0  dihedrals
           0  impropers

           1  atom types
           1  bond types
           0  angle types
           0  dihedral types
           0  improper types

-30.5 30.5 xlo xhi
-30.5 30.5 ylo yhi
-233.5 233.5 zlo zhi


Masses

1 1.000000

Atoms

1 0 1 24.368299 -16.643932 21.117905
2 0 1 24.430502 -17.295332 20.496307
3 0 1 25.239500 -17.774632 20.682999
4 0 1 24.755201 -18.575432 20.445999
5 0 1 24.117399 -18.165133 19.873199
6 0 1 23.243597 -17.716831 20.152008
7 0 1 22.369101 -18.123432 20.327805
8 0 1 21.769400 -17.544132 19.869904
9 0 1 20.980001 -17.177032 20.364899
10 0 1 20.527399 -16.710533 21.061295
11 0 1 19.840601 -16.072632 21.323502
12 0 1 20.628698 -15.529932 21.513397
13 0 1 20.736200 -14.812733 22.177505
14 0 1 20.108599 -14.676212 22.943909
15 0 1 20.614698 -14.164951 23.575989
16 0 1 21.367399 -13.536232 23.661591
17 0 1 20.784700 -13.419193 24.439606
18 0 1 20.208300 -12.703112 24.074890
19 0 1 20.168798 -12.231962 23.245911
20 0 1 19.503599 -11.471582 23.251190
21 0 1 18.795900 -12.128113 23.233490
22 0 1 18.460402 -11.293373 23.605804
23 0 1 18.625200 -11.502113 24.624084
24 0 1 17.762701 -11.423862 24.324585
25 0 1 17.423101 -12.063002 24.982086
26 0 1 17.530401 -12.140873 25.943604
27 0 1 18.177000 -11.771233 26.461090
28 0 1 19.106802 -11.810263 26.280792
29 0 1 19.727301 -11.619282 26.946686
30 0 1 20.114401 -12.469332 27.147003
31 0 1 20.591497 -13.125353 26.710999
32 0 1 20.224100 -13.691101 27.425110
33 0 1 19.339899 -13.843422 27.222290
34 0 1 18.550398 -14.348482 27.222687
35 0 1 18.536600 -15.288033 27.211487
36 0 1 18.714598 -15.068363 26.257294
37 0 1 17.818800 -15.091831 25.897614
38 0 1 17.518599 -15.414932 26.735413
39 0 1 17.338202 -16.315632 27.034088
40 0 1 17.389502 -17.236431 26.883209
41 0 1 17.199598 -17.102833 25.929901
42 0 1 16.502600 -16.431633 26.227203
43 0 1 16.097998 -16.707432 27.155304
44 0 1 15.177740 -16.630932 27.147491
45 0 1 14.254930 -16.728132 27.170990
46 0 1 13.441000 -17.318132 27.242615
47 0 1 12.722799 -17.809631 27.630890
48 0 1 12.443270 -16.966831 28.039795
49 0 1 12.403341 -17.207832 28.951294
50 0 1 12.317381 -17.789732 29.719910
51 0 1 12.682508 -17.028633 30.095306
52 0 1 12.225698 -17.613432 30.726013
53 0 1 12.842760 -17.569431 31.451691
54 0 1 13.465780 -16.827831 31.587402
55 0 1 13.250658 -16.391731 32.377808
56 0 1 13.438879 -17.048931 33.018799
57 0 1 13.801580 -17.093632 34.040192
58 0 1 13.603670 -17.588432 34.904388
59 0 1 12.880289 -17.087833 34.597900
60 0 1 11.981760 -17.239933 35.005707
61 0 1 11.709188 -18.062132 34.639099
62 0 1 11.584761 -18.570732 35.461090
63 0 1 11.166620 -17.703932 35.556793
64 0 1 10.770060 -17.721333 36.439697
65 0 1 10.630911 -16.903532 35.950104
66 0 1 10.715769 -16.626633 35.027100
67 0 1 9.873178 -17.179234 35.296387
68 0 1 9.995298 -18.173832 35.119598
69 0 1 9.105700 -18.239332 34.999084
70 0 1 9.104719 -18.113033 34.055389
71 0 1 8.450720 -18.481833 33.394104
72 0 1 8.999788 -18.614433 32.666199
73 0 1 9.850100 -18.276733 32.121704
74 0 1 9.769011 -17.813831 31.314911
75 0 1 10.682188 -17.722633 31.160095
76 0 1 10.979849 -18.313932 30.540314
77 0 1 10.407400 -19.108833 30.748199
78 0 1 9.599112 -18.615433 30.750000
79 0 1 8.832129 -18.639233 31.385712
80 0 1 7.991239 -19.162731 31.413391
81 0 1 7.420198 -18.631533 30.937714
82 0 1 7.031259 -18.214531 30.205292
83 0 1 7.324560 -18.374132 29.331787
84 0 1 8.077379 -17.975933 28.837585
85 0 1 8.245600 -17.048733 28.872406
86 0 1 9.198011 -16.891832 28.678802
87 0 1 9.487459 -16.746132 29.539795
88 0 1 9.049368 -17.378132 30.166016
89 0 1 8.854879 -16.731731 30.879913
90 0 1 8.125029 -16.738731 30.269287
91 0 1 8.816240 -16.063032 30.054504
92 0 1 8.841990 -15.102112 30.359802
93 0 1 9.473318 -14.771032 29.711395
94 0 1 9.156439 -14.877903 28.773987
95 0 1 8.504370 -14.900501 28.108093
96 0 1 7.713708 -15.260132 27.679901
97 0 1 7.263048 -14.770782 27.034088
98 0 1 6.794099 -14.222801 26.340088
99 0 1 7.414030 -13.481752 26.835297
100 0 1 7.087430 -12.890182 26.168304
101 0 1 6.898960 -11.983282 26.431488
102 0 1 7.564359 -11.293322 26.337585
103 0 1 8.151770 -10.832203 25.821503
104 0 1 8.752680 -10.482153 25.136200
105 0 1 8.279711 -11.193352 24.706787
106 0 1 8.237238 -10.696041 23.813812
107 0 1 8.354158 -11.469883 23.200714
108 0 1 7.431898 -11.304502 23.357086
109 0 1 7.496061 -11.809172 22.525909
110 0 1 6.627929 -11.517471 22.717407
111 0 1 6.004035 -11.179543 22.098801
112 0 1 6.660480 -10.432463 21.930603
113 0 1 6.125429 -10.004492 22.634094
114 0 1 5.574506 -9.326942 23.004211
115 0 1 6.116756 -9.213161 23.789001
116 0 1 6.954061 -8.773052 23.671906
117 0 1 7.637060 -8.788902 24.318512
118 0 1 6.983900 -8.177902 24.636902
119 0 1 6.350820 -8.921362 24.688507
120 0 1 5.982294 -9.020561 25.561096
121 0 1 6.057073 -8.103703 25.748413
122 0 1 5.715749 -8.603132 26.559906
123 0 1 6.058734 -8.393082 27.412689
124 0 1 6.497409 -8.086782 28.272400
125 0 1 6.087005 -7.747383 29.112305
126 0 1 5.299535 -7.381471 28.779999
127 0 1 5.418701 -6.502632 29.131287
128 0 1 4.844211 -7.019392 29.745514
129 0 1 5.186532 -7.618991 30.384399
130 0 1 5.437263 -8.511871 30.647400
131 0 1 5.344392 -8.528103 31.577393
132 0 1 6.205341 -8.900833 31.776489
133 0 1 6.739950 -9.137793 32.543396
134 0 1 7.256090 -9.718403 32.001404
135 0 1 7.666860 -8.924171 31.604095
136 0 1 7.586339 -8.402912 32.386108
137 0 1 7.780729 -9.077742 33.061890
138 0 1 8.605131 -8.829512 33.435791
139 0 1 8.801779 -9.683193 33.766296
140 0 1 9.413832 -9.509521 34.492615
141 0 1 9.013559 -8.649853 34.511414
142 0 1 9.256411 -7.773141 34.258911
143 0 1 10.029219 -7.215421 34.221100
144 0 1 9.588461 -6.407821 34.462006
145 0 1 10.219019 -6.113643 33.729889
146 0 1 10.451670 -5.242763 34.005493
147 0 1 10.947481 -4.676050 34.692413
148 0 1 11.526731 -5.195922 35.311310
149 0 1 12.180571 -4.644035 34.726013
150 0 1 12.577742 -5.378002 34.245911
151 0 1 12.944979 -5.486412 35.140594
152 0 1 13.501329 -6.342182 35.205109
153 0 1 14.181791 -6.192544 34.554016
154 0 1 13.430361 -6.262611 33.896790
155 0 1 14.036398 -7.038522 33.956512
156 0 1 14.430651 -7.958192 33.942291
157 0 1 15.309809 -7.955322 34.372498
158 0 1 15.056982 -8.308832 35.192902
159 0 1 14.464300 -8.409683 35.954712
160 0 1 15.088491 -7.841712 36.372986
161 0 1 15.480001 -7.013931 36.690399
162 0 1 16.024900 -6.268072 36.524994
163 0 1 15.334318 -5.883520 37.099091
164 0 1 15.269819 -5.084505 37.595612
165 0 1 14.944750 -5.212394 38.470398
166 0 1 14.401251 -4.411502 38.692200
167 0 1 13.972830 -3.672123 39.035309
168 0 1 13.903822 -2.742973 38.635590
169 0 1 13.305330 -2.183983 38.118713
170 0 1 12.761061 -2.895923 38.573608
171 0 1 12.300951 -3.192592 39.395599
172 0 1 12.228010 -4.095981 39.100586
173 0 1 11.792551 -3.803081 38.324493
174 0 1 10.963251 -3.712703 38.787689
175 0 1 10.370420 -3.367172 38.123199
176 0 1 9.722391 -3.828712 37.565002
177 0 1 9.163389 -3.332580 37.005798
178 0 1 8.490061 -2.988582 37.615784
179 0 1 7.797719 -3.620182 37.936401
180 0 1 7.251619 -4.173933 37.300507
181 0 1 6.391511 -4.542051 37.605103
182 0 1 6.698240 -4.889947 38.410400
183 0 1 6.368289 -5.681242 37.969208
184 0 1 6.250343 -6.265241 38.775513
185 0 1 5.477092 -5.705846 38.712891
186 0 1 5.231145 -6.276802 39.430786
187 0 1 6.110418 -6.596292 39.766388
188 0 1 5.524312 -6.812541 40.452789
189 0 1 5.676542 -6.920282 41.360687
190 0 1 6.604419 -6.588462 41.271698
191 0 1 6.626560 -7.399162 41.833893
192 0 1 7.245309 -7.267251 42.502014
193 0 1 8.118078 -7.671001 42.782104
194 0 1 8.823248 -8.056452 43.344604
195 0 1 7.952909 -7.926471 43.832214
196 0 1 7.325971 -8.258963 43.278687
197 0 1 7.537611 -9.211792 43.268494
198 0 1 7.150701 -9.603792 42.473907
199 0 1 6.693109 -9.404852 41.653595
200 0 1 6.622159 -8.676933 40.989502
201 0 1 7.347288 -8.183033 40.562012
202 0 1 8.058401 -8.273422 39.881409
203 0 1 7.789968 -7.631391 39.226288
204 0 1 7.712171 -8.549332 38.812592
205 0 1 8.606890 -8.219923 38.767700
206 0 1 9.385748 -8.143763 38.271393
207 0 1 9.786699 -7.903432 37.428192
208 0 1 10.649099 -8.116081 37.088593
209 0 1 11.185061 -7.807533 37.811096
210 0 1 10.834951 -7.883451 38.698700
211 0 1 10.392839 -7.548822 39.456604
212 0 1 10.493921 -6.674331 39.063416
213 0 1 9.536619 -6.529262 39.161011
214 0 1 8.778929 -6.261423 38.619690
215 0 1 8.249609 -5.936990 39.315887
216 0 1 7.562578 -6.114706 38.611603
217 0 1 7.361108 -6.998132 38.310211
218 0 1 8.054380 -7.452402 37.708008
219 0 1 7.627969 -8.023283 37.163788
220 0 1 6.725870 -7.888092 36.876587
221 0 1 6.123882 -7.665552 37.519592
222 0 1 5.180248 -7.665561 37.687103
223 0 1 4.537332 -8.123262 37.177185
224 0 1 3.908249 -8.574833 36.525787
225 0 1 4.144430 -8.418182 35.597687
226 0 1 4.354518 -8.045683 34.741211
227 0 1 4.031419 -7.242942 35.236298
228 0 1 3.214340 -6.785642 34.934814
229 0 1 3.446720 -6.312841 34.114410
230 0 1 2.479059 -6.423831 33.908997
231 0 1 2.072790 -5.620290 34.259705
232 0 1 1.072170 -5.598938 34.591095
233 0 1 1.541809 -5.127323 35.323486
234 0 1 2.159319 -4.564960 35.743988
235 0 1 1.743170 -5.146928 36.337708
236 0 1 0.996069 -4.665348 36.708984
237 0 1 1.135929 -3.890833 37.335510
238 0 1 1.857660 -4.465053 37.228607
239 0 1 2.026100 -5.023761 38.079712
240 0 1 2.551540 -4.781709 38.891785
241 0 1 1.796770 -5.312881 39.291595
242 0 1 1.974779 -4.770906 40.050903
243 0 1 1.750280 -3.965402 40.533203
244 0 1 2.394159 -3.632583 39.867493
245 0 1 3.210689 -4.009033 40.171112
246 0 1 3.965599 -4.555673 39.904785
247 0 1 3.699539 -5.317861 40.518494
248 0 1 4.042018 -5.438467 41.424194
249 0 1 4.436340 -5.371057 42.260895
250 0 1 4.247520 -6.004312 42.955292
251 0 1 5.213146 -6.121736 42.726990
252 0 1 4.944246 -6.766441 43.438812
253 0 1 4.355859 -7.514312 43.817688
254 0 1 4.412549 -8.075413 44.557892
255 0 1 4.901657 -8.743011 45.031616
256 0 1 4.995851 -8.255682 45.867310
257 0 1 4.482671 -8.318642 46.671295
258 0 1 3.975939 -9.131622 46.946991
259 0 1 3.767679 -8.686682 47.721405
260 0 1 4.677545 -8.849373 48.263702
261 0 1 4.164070 -9.294971 48.969696
262 0 1 4.877479 -9.858313 49.342102
263 0 1 4.156280 -10.278112 49.867706
264 0 1 4.333179 -10.914013 49.167511
265 0 1 3.543930 -11.320442 49.459290
266 0 1 3.961929 -11.657022 48.703705
267 0 1 4.830799 -11.867613 48.300201
268 0 1 5.326560 -12.728191 48.338104
269 0 1 6.148464 -12.927652 48.709595
270 0 1 6.717119 -13.115973 49.388916
271 0 1 6.385017 -12.979622 50.343903
272 0 1 6.360149 -12.122652 49.864990
273 0 1 5.704628 -11.479872 49.974213
274 0 1 5.468532 -11.653143 50.960602
275 0 1 5.558015 -11.825562 51.886292
276 0 1 6.178215 -11.758633 52.587311
277 0 1 6.838399 -12.319082 52.772797
278 0 1 7.235231 -12.778353 51.970001
279 0 1 7.459421 -13.354843 52.790588
280 0 1 8.053862 -14.073153 52.575592
281 0 1 8.938810 -14.139053 53.122986
282 0 1 9.154829 -15.028263 53.356201
283 0 1 8.813848 -15.569332 52.579712
284 0 1 8.523409 -16.460033 52.575195
285 0 1 9.465441 -16.427732 52.515106
286 0 1 9.490301 -16.906532 51.705597
287 0 1 10.406950 -16.704533 51.476593
288 0 1 10.163019 -15.874733 50.995087
289 0 1 10.715120 -15.750332 50.144104
290 0 1 11.538542 -15.555532 50.586090
291 0 1 12.101828 -15.633432 49.875397
292 0 1 12.419638 -15.503231 48.934204
293 0 1 12.484591 -14.574642 49.266113
294 0 1 12.142931 -14.566673 50.184601
295 0 1 11.513269 -13.838043 50.338806
296 0 1 12.059752 -13.889591 51.112000
297 0 1 11.999170 -14.012451 52.050690
298 0 1 12.293589 -13.067352 52.233887
299 0 1 12.281580 -12.170712 52.493011
300 0 1 12.936949 -11.711512 52.986603
301 0 1 13.733702 -11.150412 52.653412
302 0 1 13.154890 -10.429493 52.790588
303 0 1 13.252478 -9.501513 52.600006
304 0 1 12.392031 -9.112062 52.611603
305 0 1 12.224958 -9.341183 53.510986
306 0 1 11.788240 -8.470472 53.364990
307 0 1 12.613340 -8.044722 53.024506
308 0 1 12.213758 -7.574502 52.287201
309 0 1 12.426069 -6.807872 52.883209
310 0 1 11.811998 -6.434022 53.513000
311 0 1 11.695639 -6.627141 54.489014
312 0 1 12.511740 -6.564342 54.939911
313 0 1 12.526541 -7.519372 55.067413
314 0 1 13.106268 -7.114671 55.712006
315 0 1 13.240080 -7.010042 56.674713
316 0 1 13.772230 -7.768753 56.656616
317 0 1 14.510389 -8.368952 56.974609
318 0 1 14.854399 -9.288872 56.698486
319 0 1 15.579802 -8.805153 57.054108
320 0 1 16.559999 -8.871082 57.183594
321 0 1 16.677702 -7.976812 57.572998
322 0 1 16.475199 -7.907072 58.506012
323 0 1 15.842100 -7.210432 58.575592
324 0 1 15.387140 -7.549371 59.357300
325 0 1 15.500700 -8.542812 59.416687
326 0 1 14.728899 -8.445612 60.017212
327 0 1 14.817289 -9.386602 60.094116
328 0 1 14.178839 -9.806242 60.812683
329 0 1 14.732080 -9.282913 61.411407
330 0 1 15.363348 -9.411312 62.221100
331 0 1 15.819799 -9.630873 63.095703
332 0 1 16.008699 -10.632183 62.809906
333 0 1 16.763700 -11.172503 62.988586
334 0 1 16.593000 -11.946732 62.470886
335 0 1 15.661200 -11.741203 62.631714
336 0 1 15.044188 -11.146713 63.100311
337 0 1 15.102289 -10.386353 63.714508
338 0 1 15.894201 -10.059692 64.066711
339 0 1 16.002901 -10.964533 64.387085
340 0 1 15.683798 -10.685923 65.229004
341 0 1 16.101801 -10.679602 66.049500
342 0 1 15.524199 -10.672503 66.851318
343 0 1 15.250528 -11.358192 66.158813
344 0 1 14.366369 -11.085812 66.073700
345 0 1 14.211740 -10.188393 65.814789
346 0 1 13.881800 -10.065502 66.719910
347 0 1 13.254782 -9.900711 67.416107
348 0 1 13.126638 -8.994682 67.069092
349 0 1 12.311129 -9.331062 67.349915
350 0 1 11.985491 -8.576551 66.795898
351 0 1 12.092951 -8.651022 65.822906
352 0 1 13.026350 -8.484161 65.675903
353 0 1 12.604441 -9.103401 65.036804
354 0 1 12.882021 -9.498371 64.149597
355 0 1 12.436819 -10.272692 63.773315
356 0 1 11.832029 -9.812162 64.328308
357 0 1 11.585989 -10.632643 64.685303
358 0 1 10.806170 -11.067463 64.946198
359 0 1 10.144751 -11.243893 65.607391
360 0 1 10.271669 -10.966143 66.507507
361 0 1 9.802801 -10.170132 66.100800
362 0 1 9.019640 -10.620062 66.307983
363 0 1 9.033911 -9.889002 66.962189
364 0 1 8.926779 -9.159632 66.353516
365 0 1 7.952798 -9.349651 66.304993
366 0 1 7.448228 -8.510693 66.142303
367 0 1 7.355421 -8.076572 67.007111
368 0 1 6.516759 -7.585802 66.880890
369 0 1 6.808259 -6.698202 67.187683
370 0 1 6.812789 -5.868202 67.641998
371 0 1 6.546800 -5.330364 66.863403
372 0 1 5.816303 -5.671276 66.248596
373 0 1 5.494321 -4.756547 66.278687
374 0 1 4.907171 -4.522497 65.513489
375 0 1 5.127174 -3.860283 64.879883
376 0 1 5.653392 -3.017772 64.963593
377 0 1 6.458299 -2.537922 64.755981
378 0 1 5.918432 -1.751823 64.456390
379 0 1 6.371923 -1.356903 63.617310
380 0 1 7.208070 -0.940883 63.388397
381 0 1 6.764410 -0.908783 62.577789
382 0 1 6.784709 -1.381160 61.753387
383 0 1 6.133579 -0.680374 61.486389
384 0 1 5.196432 -0.758590 61.322815
385 0 1 5.356025 -0.021034 60.646393
386 0 1 5.900768 0.563828 61.180206
387 0 1 6.655689 0.327759 60.604797
388 0 1 6.826280 1.253617 60.613586
389 0 1 6.606840 1.556877 61.529510
390 0 1 7.427671 1.975819 61.662201
391 0 1 6.980161 2.576748 61.021606
392 0 1 6.491880 3.377468 60.962891
393 0 1 7.171911 3.395478 60.311584
394 0 1 7.381189 2.587639 59.852905
395 0 1 8.085299 2.933968 59.381104
396 0 1 8.774111 2.768677 60.033386
397 0 1 9.183889 3.452790 59.499207
398 0 1 9.277990 3.476918 58.542511
399 0 1 9.207521 3.504318 57.608215
400 0 1 9.256491 3.700119 56.639709
401 0 1 9.379221 4.630177 56.816498
402 0 1 9.158659 4.809369 55.860504
403 0 1 8.434851 5.357068 55.375397
404 0 1 8.147840 6.226868 55.376495
405 0 1 7.546171 5.711567 56.027191
406 0 1 6.636758 5.371369 56.067291
407 0 1 5.745126 5.047966 56.221497
408 0 1 4.814489 5.235367 56.529114
409 0 1 4.419059 4.389840 56.495087
410 0 1 3.543529 4.657799 56.645905
411 0 1 2.771330 4.789368 56.027496
412 0 1 1.920589 5.262867 55.922394
413 0 1 2.273130 5.764470 55.148193
414 0 1 2.754369 6.315567 55.847198
415 0 1 2.383550 6.913369 56.485687
416 0 1 1.710190 7.336770 57.080109
417 0 1 0.833570 7.334469 57.471985
418 0 1 0.143890 7.850369 57.890015
419 0 1 0.715441 8.479069 58.325897
420 0 1 1.614189 8.804268 58.407196
421 0 1 1.380939 9.050766 57.406189
422 0 1 0.790359 9.836868 57.423798
423 0 1 0.897110 9.851467 56.487701
424 0 1 0.657221 10.829067 56.610413
425 0 1 1.111070 11.684669 56.782288
426 0 1 1.060449 12.506767 56.353790
427 0 1 0.435468 12.682068 57.113892
428 0 1 -0.481991 12.672367 57.455597
429 0 1 -0.793610 13.467865 58.042908
430 0 1 -1.548260 13.591370 58.582886
431 0 1 -1.665680 14.503468 58.604004
432 0 1 -2.023710 14.284168 59.464996
433 0 1 -2.882090 14.769066 59.675507
434 0 1 -3.514879 14.014568 59.661316
435 0 1 -3.777790 13.075668 59.832306
436 0 1 -4.181530 13.419067 59.026306
437 0 1 -4.185891 13.806667 58.139801
438 0 1 -3.445521 14.385765 57.823395
439 0 1 -3.113810 14.957870 58.515808
440 0 1 -3.458121 15.721466 58.083405
441 0 1 -3.076380 16.554871 57.841705
442 0 1 -3.695690 17.172470 58.263489
443 0 1 -3.307841 17.912766 57.813293
444 0 1 -3.865881 18.460068 57.241089
445 0 1 -3.466351 18.151867 56.420410
446 0 1 -4.110091 17.733768 55.782898
447 0 1 -3.667851 18.017067 55.046112
448 0 1 -3.021830 17.498669 54.526001
449 0 1 -3.694901 17.693367 53.855896
450 0 1 -2.778250 17.726570 53.504089
451 0 1 -2.081570 17.136768 53.182007
452 0 1 -1.407751 16.402767 53.042694
453 0 1 -2.036110 15.640266 53.032990
454 0 1 -2.494990 15.525169 52.180908
455 0 1 -3.493960 15.713867 52.280212
456 0 1 -3.375510 14.909168 52.790283
457 0 1 -4.170611 14.577168 52.471710
458 0 1 -3.424631 13.958267 52.388306
459 0 1 -3.716551 13.559967 53.231689
460 0 1 -4.533320 14.015568 53.499695
461 0 1 -4.799700 13.995468 54.443604
462 0 1 -5.093600 14.011368 55.348297
463 0 1 -4.767302 13.186668 55.717194
464 0 1 -4.937300 12.549271 56.369202
465 0 1 -5.007800 11.633667 55.929108
466 0 1 -4.644900 11.276268 56.877289
467 0 1 -4.173790 10.517269 56.513397
468 0 1 -4.028691 10.157269 57.490997
469 0 1 -4.263011 9.236969 57.483307
470 0 1 -4.993102 8.504768 57.576508
471 0 1 -4.766901 7.708069 56.982697
472 0 1 -4.409531 7.990868 56.110504
473 0 1 -4.391371 7.549370 55.218292
474 0 1 -4.227070 6.754670 54.758789
475 0 1 -3.606119 7.216866 54.280792
476 0 1 -2.724591 7.300766 54.712097
477 0 1 -1.993670 7.095971 55.358704
478 0 1 -1.706541 6.174866 55.632111
479 0 1 -2.096689 5.972569 56.476593
480 0 1 -2.509451 5.149369 56.878998
481 0 1 -2.449570 4.441868 56.114594
482 0 1 -2.754860 3.987179 55.255402
483 0 1 -3.497210 4.326020 54.761810
484 0 1 -3.437821 3.724800 53.999512
485 0 1 -3.940161 3.191307 53.385986
486 0 1 -4.538432 2.561947 52.937103
487 0 1 -4.281889 2.600296 52.068390
488 0 1 -3.684542 2.019177 52.461792
489 0 1 -2.989710 1.433049 52.733398
490 0 1 -2.042771 1.579747 52.955292
491 0 1 -1.742701 2.475800 52.967285
492 0 1 -2.397831 2.740776 53.618103
493 0 1 -1.832821 2.086270 53.971100
494 0 1 -0.917361 1.777577 53.701202
495 0 1 -0.879481 0.858189 53.601685
496 0 1 -1.439211 0.467099 52.957794
497 0 1 -1.413311 -0.398811 52.513794
498 0 1 -1.504580 -1.044292 51.826691
499 0 1 -2.143811 -0.348053 51.713013
500 0 1 -2.903181 -0.355301 51.084290
501 0 1 -3.434910 0.185067 51.697693
502 0 1 -4.306372 0.598076 51.607697
503 0 1 -4.282042 1.577500 51.622711
504 0 1 -4.845500 1.658078 50.833984
505 0 1 -5.461901 1.102108 50.263184
506 0 1 -5.262301 0.108017 50.416809
507 0 1 -5.104102 -0.546501 49.745483
508 0 1 -4.978800 -0.730591 48.781799
509 0 1 -5.933001 -1.054603 48.976501
510 0 1 -6.756602 -1.529213 49.005188
511 0 1 -6.661501 -2.523891 48.944794
512 0 1 -6.475501 -3.393192 49.330109
513 0 1 -7.423602 -3.454822 49.082092
514 0 1 -7.955201 -2.628662 49.214111
515 0 1 -7.851500 -2.842552 48.263092
516 0 1 -7.009800 -3.327461 48.050415
517 0 1 -7.309100 -3.313411 47.186493
518 0 1 -7.280200 -2.642601 46.532288
519 0 1 -6.970601 -1.797073 46.198303
520 0 1 -6.523200 -1.329952 45.471191
521 0 1 -6.329300 -1.840622 44.633789
522 0 1 -6.865601 -2.744453 44.737396
523 0 1 -7.428601 -3.453300 45.056305
524 0 1 -8.080099 -4.099441 44.813812
525 0 1 -7.613600 -3.674190 43.993713
526 0 1 -8.569500 -3.357200 43.851196
527 0 1 -9.476200 -3.541992 43.412598
528 0 1 -10.364901 -3.344284 43.470795
529 0 1 -10.927200 -3.139923 44.244507
530 0 1 -11.485100 -3.960842 44.324585
531 0 1 -10.944099 -4.678815 44.702087
532 0 1 -11.710199 -5.234754 44.549896
533 0 1 -12.513201 -5.550518 44.066589
534 0 1 -13.362501 -5.181221 43.979706
535 0 1 -12.742001 -4.590475 43.554810
536 0 1 -12.144400 -4.648141 42.785004
537 0 1 -12.818300 -4.181432 42.352905
538 0 1 -12.796200 -4.102851 41.378906
539 0 1 -12.794600 -4.874637 40.694885
540 0 1 -12.254301 -5.254310 39.953888
541 0 1 -11.759600 -4.627880 39.332611
542 0 1 -11.772600 -4.749242 38.337891
543 0 1 -11.132101 -5.265316 38.804504
544 0 1 -10.481000 -5.400707 39.535400
545 0 1 -10.156401 -5.595264 40.422913
546 0 1 -9.494700 -5.833004 39.707703
547 0 1 -9.352500 -5.972545 38.734100
548 0 1 -8.962601 -5.878467 37.841888
549 0 1 -8.794500 -4.955675 37.826294
550 0 1 -8.232401 -4.198942 37.697388
551 0 1 -8.721001 -3.393951 38.044006
552 0 1 -9.035700 -3.069622 37.220703
553 0 1 -9.543700 -3.468914 36.532288
554 0 1 -10.336901 -2.908092 36.508606
555 0 1 -11.014801 -3.095772 37.145599
556 0 1 -11.676001 -2.459350 36.960907
557 0 1 -12.022600 -1.663112 37.404602
558 0 1 -11.978901 -1.416191 36.473694
559 0 1 -11.153700 -0.963234 36.455505
560 0 1 -10.835001 -0.174850 36.082306
561 0 1 -11.382700 0.440258 35.559692
562 0 1 -10.535400 0.578850 35.144714
563 0 1 -10.973900 1.055039 34.440308
564 0 1 -10.490001 0.412258 33.858398
565 0 1 -10.352800 -0.496544 33.602783
566 0 1 -10.279600 -0.088081 32.741089
567 0 1 -10.219900 -0.321113 31.814697
568 0 1 -10.509900 0.292519 31.078796
569 0 1 -10.968300 -0.308090 30.570709
570 0 1 -11.873400 -0.629371 30.517609
571 0 1 -12.423000 -0.103153 29.851288
572 0 1 -12.306200 0.813587 30.229492
573 0 1 -13.261900 1.003949 30.083405
574 0 1 -12.794001 1.850739 30.208313
575 0 1 -12.352800 1.553387 29.440704
576 0 1 -12.521700 1.693158 28.498108
577 0 1 -12.898100 0.861279 28.204285
578 0 1 -13.659100 1.470539 28.416687
579 0 1 -13.896801 2.302616 27.830200
580 0 1 -14.342001 2.279320 27.041595
581 0 1 -15.083000 2.231499 26.470093
582 0 1 -14.727900 3.087178 25.981293
583 0 1 -15.643801 3.122769 25.595612
584 0 1 -15.482901 2.234997 25.265289
585 0 1 -15.901901 1.426346 24.981812
586 0 1 -16.695700 1.380967 25.506989
587 0 1 -17.444401 0.841286 25.759003
588 0 1 -18.014101 0.882077 25.000916
589 0 1 -18.861900 1.112458 25.350006
590 0 1 -19.126801 0.523728 24.639404
591 0 1 -19.498001 0.057099 25.415802
592 0 1 -20.398201 0.334267 25.325989
593 0 1 -20.515100 1.028309 24.604492
594 0 1 -20.277800 1.483010 25.515686
595 0 1 -19.616701 1.137249 26.156006
596 0 1 -18.669201 1.332257 26.463501
597 0 1 -18.692600 1.644307 27.343903
598 0 1 -17.809801 1.671028 27.671997
599 0 1 -17.281601 2.456017 27.631287
600 0 1 -17.451700 2.585488 26.721008
601 0 1 -16.867001 1.799839 26.552795
602 0 1 -16.456200 1.374768 27.336395
603 0 1 -16.399700 1.487259 28.302399
604 0 1 -16.133301 2.007969 29.073303
605 0 1 -16.810301 2.289768 29.704803
606 0 1 -17.535700 1.488846 29.663391
607 0 1 -16.768900 1.289170 30.327789
608 0 1 -16.375299 0.967499 29.515594
609 0 1 -16.084200 0.106297 29.731598
610 0 1 -15.492001 -0.251301 29.100098
611 0 1 -15.339100 -1.094123 28.754700
612 0 1 -14.923500 -0.981361 27.929596
613 0 1 -14.042200 -1.376682 27.844910
614 0 1 -14.138201 -0.479881 27.359802
615 0 1 -13.583700 0.055207 26.707794
616 0 1 -13.417601 0.021988 25.795410
617 0 1 -13.492201 -0.280742 24.816010
618 0 1 -12.557600 -0.216621 24.765289
619 0 1 -11.689301 0.157830 24.644012
620 0 1 -11.416901 0.968369 24.296600
621 0 1 -11.075001 1.884537 24.245300
622 0 1 -10.577801 2.192566 23.447815
623 0 1 -10.079300 2.454430 22.670410
624 0 1 -9.819100 1.538227 22.710297
625 0 1 -9.920600 0.824719 22.052200
626 0 1 -10.496201 0.264839 22.562012
627 0 1 -11.172701 -0.046241 21.906799
628 0 1 -11.076700 0.579140 21.106400
629 0 1 -11.283300 -0.169223 20.473206
630 0 1 -10.346500 -0.304302 20.141403
631 0 1 -9.399100 -0.285362 20.077805
632 0 1 -8.981300 0.483948 19.720901
633 0 1 -8.101400 0.236439 19.526199
634 0 1 -7.177901 0.213837 19.279800
635 0 1 -7.493201 0.259148 18.415802
636 0 1 -7.362502 -0.072151 17.508804
637 0 1 -6.611401 0.522778 17.740402
638 0 1 -6.463801 0.522579 16.746201
639 0 1 -5.960301 1.341919 16.549500
640 0 1 -5.999201 1.770729 15.732498
641 0 1 -5.338900 1.299569 15.182800
642 0 1 -4.759699 1.266888 14.417496
643 0 1 -4.205071 1.105259 13.675705
644 0 1 -3.451262 0.504898 13.852097
645 0 1 -4.125929 0.036549 14.483597
646 0 1 -3.650980 0.031670 15.288406
647 0 1 -4.268191 -0.733864 15.508896
648 0 1 -4.484732 -1.737362 15.445892
649 0 1 -4.952300 -1.771553 14.559006
650 0 1 -5.620301 -2.370502 14.954498
651 0 1 -6.071501 -1.746093 14.387100
652 0 1 -6.685999 -2.382381 13.946503
653 0 1 -6.796000 -3.229110 14.449600
654 0 1 -7.093802 -3.930841 15.185806
655 0 1 -6.186202 -3.868732 15.289398
656 0 1 -5.267401 -4.043712 14.995895
657 0 1 -4.280251 -4.068882 14.859802
658 0 1 -3.748591 -4.866708 14.683701
659 0 1 -3.141859 -5.492727 15.123993
660 0 1 -2.988531 -5.411235 16.092697
661 0 1 -3.132132 -6.080333 16.824600
662 0 1 -4.071211 -6.076015 17.013794
663 0 1 -3.437620 -6.018514 17.800705
664 0 1 -2.789831 -6.764102 17.900208
665 0 1 -2.356402 -6.752481 18.747604
666 0 1 -1.705210 -7.452932 18.577194
667 0 1 -1.208830 -7.123071 17.865204
668 0 1 -0.506691 -7.738163 17.841599
669 0 1 0.098310 -7.596342 17.209503
670 0 1 -0.213209 -8.205553 16.523895
671 0 1 0.017269 -8.777603 17.211304
672 0 1 -0.311110 -9.591282 17.602905
673 0 1 -1.039530 -9.698353 16.946396
674 0 1 -1.661141 -9.485243 17.633499
675 0 1 -1.725941 -8.754223 17.022797
676 0 1 -2.271210 -7.973331 16.909897
677 0 1 -2.545210 -8.461142 17.657501
678 0 1 -2.379191 -9.044142 18.454697
679 0 1 -2.026221 -9.955763 18.450897
680 0 1 -2.614809 -9.763493 19.234802
681 0 1 -3.413382 -9.895773 18.662399
682 0 1 -3.261671 -10.608892 19.326797
683 0 1 -3.762011 -11.338963 18.894592
684 0 1 -4.612401 -11.475063 18.431595
685 0 1 -5.413401 -11.663853 18.942200
686 0 1 -6.019101 -10.952272 18.957001
687 0 1 -6.482401 -11.051403 19.767395
688 0 1 -7.277901 -11.063793 19.212906
689 0 1 -7.927500 -11.533333 19.786499
690 0 1 -8.079599 -12.436493 19.537704
691 0 1 -8.450001 -12.203041 18.599197
692 0 1 -8.428202 -11.381413 18.045197
693 0 1 -8.791201 -11.409782 17.171692
694 0 1 -8.332399 -10.818293 16.586502
695 0 1 -9.011101 -10.186052 16.393494
696 0 1 -8.515600 -9.427492 16.802307
697 0 1 -7.605002 -9.287891 16.928299
698 0 1 -7.062201 -8.686882 17.462906
699 0 1 -7.730601 -7.996131 17.386795
700 0 1 -7.372000 -7.157251 17.170700
701 0 1 -6.906100 -6.619112 16.537003
702 0 1 -6.393702 -6.297031 17.286606
703 0 1 -5.651900 -5.624145 17.307098
704 0 1 -5.535502 -4.992282 17.944199
705 0 1 -4.749102 -5.142120 18.461792
706 0 1 -4.581301 -5.775949 17.774399
707 0 1 -4.472960 -6.553503 18.309204
708 0 1 -4.879801 -7.161993 17.687897
709 0 1 -5.294199 -6.562002 16.983597
710 0 1 -4.569800 -7.086761 16.712997
711 0 1 -5.223101 -7.576702 16.141098
712 0 1 -4.903901 -8.475592 15.944702
713 0 1 -4.364121 -9.231972 15.850906
714 0 1 -4.792002 -10.065853 15.920593
715 0 1 -5.282801 -10.727192 16.365005
716 0 1 -5.712801 -11.510933 16.827698
717 0 1 -5.644801 -12.471163 16.789001
718 0 1 -5.087000 -12.849712 17.464401
719 0 1 -5.050002 -13.680452 17.920395
720 0 1 -4.416661 -14.173172 17.351303
721 0 1 -3.787901 -14.800701 17.671494
722 0 1 -4.070181 -15.519531 17.056305
723 0 1 -3.404989 -15.772932 16.377197
724 0 1 -3.398800 -15.238331 15.630905
725 0 1 -2.533211 -15.615631 15.552902
726 0 1 -1.683501 -15.927231 15.400696
727 0 1 -2.170040 -16.452133 14.750305
728 0 1 -1.867769 -17.187733 15.251205
729 0 1 -2.045130 -17.972033 15.675903
730 0 1 -1.793320 -18.569132 16.358994
731 0 1 -2.501271 -18.109432 16.934296
732 0 1 -2.899382 -18.865131 17.342697
733 0 1 -2.689692 -19.738932 17.636505
734 0 1 -3.585301 -19.924332 17.265808
735 0 1 -4.349841 -19.740332 16.677795
736 0 1 -4.776900 -18.910332 16.507996
737 0 1 -4.886401 -19.515533 15.714096
738 0 1 -4.131899 -19.227333 15.193405
739 0 1 -4.663901 -18.351631 15.192093
740 0 1 -4.573100 -17.547932 14.632004
741 0 1 -4.124930 -16.737831 14.248993
742 0 1 -4.185151 -16.356133 13.353500
743 0 1 -4.190011 -17.078232 12.784302
744 0 1 -4.636401 -16.599934 12.082001
745 0 1 -3.880862 -16.536533 11.533707
746 0 1 -4.297900 -15.998833 10.845398
747 0 1 -3.530031 -15.501133 10.892807
748 0 1 -3.456991 -15.746832 9.963486
749 0 1 -2.498122 -15.952633 9.943558
750 0 1 -2.738371 -16.838932 9.750366
751 0 1 -1.873881 -16.874832 9.455353
752 0 1 -0.909771 -17.013031 9.483093
753 0 1 -1.371851 -17.232933 8.703903
754 0 1 -1.615101 -16.386631 8.382416
755 0 1 -2.460640 -16.435833 7.864594
756 0 1 -1.987459 -16.151031 7.060914
757 0 1 -1.311541 -16.136532 6.256836
758 0 1 -0.491390 -16.703133 6.407609
759 0 1 -0.418141 -17.563133 6.635483
760 0 1 0.476860 -17.557831 6.913224
761 0 1 0.259580 -17.446632 7.854950
762 0 1 -0.160380 -18.109833 8.384796
763 0 1 -0.022230 -19.048931 8.104141
764 0 1 0.928789 -19.273933 7.949097
765 0 1 0.734100 -19.892931 8.654984
766 0 1 1.691580 -19.930632 8.327164
767 0 1 2.625559 -19.637333 8.541931
768 0 1 2.711759 -19.365932 7.600403
769 0 1 2.430750 -20.154831 7.059784
770 0 1 2.444469 -20.142132 6.113465
771 0 1 2.861849 -19.599632 5.501221
772 0 1 2.762739 -20.390532 4.974137
773 0 1 2.779840 -20.154531 4.028779
774 0 1 3.666099 -20.073132 4.309937
775 0 1 4.432559 -19.576431 4.546494
776 0 1 4.664245 -18.924532 5.283417
777 0 1 4.419899 -18.200733 4.682663
778 0 1 3.921999 -17.415133 4.542359
779 0 1 4.143039 -17.094334 3.695145
780 0 1 4.031108 -16.336231 4.290329
781 0 1 3.866869 -15.918133 3.353425
782 0 1 3.344160 -15.608334 4.032975
783 0 1 2.557140 -16.082333 3.932480
784 0 1 1.790100 -16.632832 4.058609
785 0 1 0.910539 -16.644632 4.224778