LAMMPS data file via MDAnalysis

        2000  atoms
        1999  bonds
           0  angles
           0  dihedrals
           0  impropers

           1  atom types
           1  bond types
           0  angle types
           0  dihedral types
           0  improper types

-30.5 30.5 xlo xhi
-30.5 30.5 ylo yhi
-233.5 233.5 zlo zhi


Masses

1 1.000000

Atoms

1 0 1 11.669489 12.993798 10.693892
2 0 1 11.126841 12.579202 11.402801
3 0 1 11.919077 12.063897 11.379104
4 0 1 12.811747 11.777699 11.263503
5 0 1 13.071650 12.393098 12.015502
6 0 1 12.310617 12.725198 12.402495
7 0 1 12.458361 12.447598 13.259505
8 0 1 11.742788 12.752297 13.897292
9 0 1 11.896509 13.225999 14.731200
10 0 1 12.047430 14.082799 15.170592
11 0 1 12.964350 13.867200 15.297301
12 0 1 13.029947 13.518399 14.381804
13 0 1 13.999949 13.745198 14.494506
14 0 1 13.984449 12.966599 15.033706
15 0 1 14.959848 12.758000 15.479003
16 0 1 14.384649 11.995400 15.421294
17 0 1 14.260550 11.708890 16.341492
18 0 1 14.996050 11.334939 16.937408
19 0 1 15.427050 10.468480 16.955994
20 0 1 15.674547 9.844270 17.695801
21 0 1 15.514349 10.677850 18.299896
22 0 1 16.182550 11.387170 18.303192
23 0 1 16.607447 12.085999 18.720306
24 0 1 15.963747 11.904099 19.371704
25 0 1 16.116747 11.951898 20.317795
26 0 1 15.944048 11.114148 20.804794
27 0 1 15.957449 10.215829 20.466095
28 0 1 15.200048 9.559937 20.679596
29 0 1 14.446150 9.198998 21.108902
30 0 1 14.294149 10.056951 21.428894
31 0 1 13.894449 9.660710 22.272308
32 0 1 13.787348 10.256471 23.076294
33 0 1 12.993547 10.671720 23.310303
34 0 1 13.719851 10.723081 23.999298
35 0 1 14.084349 9.958180 24.534210
36 0 1 14.955248 10.189439 24.723816
37 0 1 15.613047 9.510659 24.447510
38 0 1 14.966848 8.927270 24.126404
39 0 1 15.189150 8.039639 23.803406
40 0 1 14.654047 7.827478 24.622589
41 0 1 13.641249 7.873300 24.684814
42 0 1 12.937449 7.792409 23.991302
43 0 1 13.153551 6.845460 23.843903
44 0 1 13.197748 5.904779 23.961609
45 0 1 13.115248 5.952928 24.979309
46 0 1 13.423349 5.283659 25.587494
47 0 1 12.568548 4.851041 25.815613
48 0 1 13.003450 4.145399 25.263916
49 0 1 12.203909 3.867330 25.633606
50 0 1 11.425379 4.390329 26.146606
51 0 1 11.154169 3.583768 26.667694
52 0 1 11.573698 4.288949 27.142212
53 0 1 11.124109 4.891969 27.677094
54 0 1 11.441050 5.513620 28.380096
55 0 1 11.876947 6.281599 28.836609
56 0 1 11.973410 7.073228 29.433594
57 0 1 11.391928 7.730970 29.844604
58 0 1 10.426798 7.578599 29.666412
59 0 1 10.836367 6.704031 29.937988
60 0 1 10.471407 6.612661 29.016205
61 0 1 10.935801 6.476518 28.158905
62 0 1 11.536699 7.244520 28.414703
63 0 1 11.988310 7.914949 27.889496
64 0 1 12.879549 7.555311 27.645813
65 0 1 12.783548 6.638059 28.030304
66 0 1 12.847948 5.681921 28.330109
67 0 1 13.365549 5.500761 29.141388
68 0 1 13.495550 6.270269 29.729309
69 0 1 14.219851 5.708398 30.088196
70 0 1 14.168947 5.017148 29.415710
71 0 1 14.863649 4.253301 29.604187
72 0 1 15.359648 3.648038 29.149506
73 0 1 15.382151 3.100740 28.315796
74 0 1 16.314447 3.091980 28.595490
75 0 1 16.627249 2.187076 28.662201
76 0 1 17.036848 1.454934 28.178101
77 0 1 18.049749 1.464713 28.287109
78 0 1 17.962847 0.673860 28.765594
79 0 1 18.923849 0.480960 28.583191
80 0 1 19.506250 0.565481 29.407898
81 0 1 18.962252 0.070501 30.004700
82 0 1 18.601351 -0.703150 29.570984
83 0 1 18.019350 -0.972941 30.329895
84 0 1 17.412550 -1.804450 30.313812
85 0 1 16.582651 -1.919530 29.809998
86 0 1 17.248850 -2.334919 29.202911
87 0 1 16.283548 -2.585900 28.892303
88 0 1 15.639448 -2.167269 28.354401
89 0 1 14.805349 -2.484431 28.652893
90 0 1 14.695047 -3.047080 29.410004
91 0 1 15.507849 -3.348090 30.006500
92 0 1 16.104548 -3.338120 30.817810
93 0 1 16.699549 -3.063429 31.570312
94 0 1 16.290548 -3.601271 32.260986
95 0 1 16.536051 -4.333769 32.868011
96 0 1 16.573748 -4.165221 33.820709
97 0 1 17.365351 -4.785750 33.621613
98 0 1 18.303850 -4.962880 33.924194
99 0 1 19.099150 -4.741570 33.358704
100 0 1 19.824846 -5.022049 33.834900
101 0 1 20.345346 -5.541239 33.223389
102 0 1 20.467051 -6.511460 33.219299
103 0 1 20.508650 -7.543440 33.353699
104 0 1 19.845850 -7.917420 32.788300
105 0 1 20.309549 -8.580800 32.298187
106 0 1 20.366148 -9.516400 32.490997
107 0 1 19.543550 -9.576600 32.989594
108 0 1 20.031649 -10.432101 33.155396
109 0 1 20.138849 -9.763101 33.850708
110 0 1 19.456347 -9.931102 34.486206
111 0 1 19.750948 -10.874400 34.424194
112 0 1 18.937048 -11.279502 34.806885
113 0 1 19.027849 -10.618001 35.460815
114 0 1 18.143850 -10.483701 35.184814
115 0 1 17.348349 -9.926700 35.380096
116 0 1 16.575251 -9.632400 34.906006
117 0 1 16.174250 -10.455800 34.506989
118 0 1 15.198950 -10.413301 34.346100
119 0 1 14.816347 -11.347301 34.310699
120 0 1 14.950949 -12.208201 34.756012
121 0 1 15.110048 -13.171301 34.683716
122 0 1 14.207449 -13.175000 35.004608
123 0 1 14.296247 -13.373000 35.962311
124 0 1 13.373549 -13.138600 35.937408
125 0 1 12.709150 -12.896601 35.360107
126 0 1 12.323908 -13.111401 36.218506
127 0 1 12.399988 -12.160899 36.026398
128 0 1 11.804941 -11.796201 36.720398
129 0 1 12.098249 -11.171100 35.997589
130 0 1 11.674528 -10.363400 35.665405
131 0 1 11.192301 -9.535501 35.918488
132 0 1 10.856447 -8.796700 35.402008
133 0 1 10.881849 -9.331700 34.605286
134 0 1 9.910639 -9.271399 34.465515
135 0 1 9.118830 -9.297000 35.000610
136 0 1 9.049891 -8.372300 35.304810
137 0 1 9.327688 -7.379221 35.262512
138 0 1 9.147341 -6.792510 34.513306
139 0 1 9.756609 -6.414271 35.159485
140 0 1 10.256281 -6.503451 34.390900
141 0 1 10.259409 -6.211421 33.512695
142 0 1 10.151140 -5.234381 33.542297
143 0 1 10.341120 -4.305501 33.226898
144 0 1 11.137728 -4.119820 32.666687
145 0 1 11.816969 -4.003020 33.344513
146 0 1 12.226858 -4.625849 32.727905
147 0 1 11.802328 -4.993441 31.930908
148 0 1 12.173849 -4.299139 31.404205
149 0 1 12.782450 -3.594510 31.040314
150 0 1 13.100149 -4.314990 30.510986
151 0 1 13.091051 -5.319560 30.608398
152 0 1 12.444498 -5.680899 31.122498
153 0 1 11.917459 -5.674490 30.325714
154 0 1 11.151510 -5.312300 29.901794
155 0 1 10.429220 -4.996590 30.379395
156 0 1 9.686399 -4.781569 29.895813
157 0 1 8.785460 -4.452740 29.739990
158 0 1 8.004587 -4.802500 30.168304
159 0 1 7.065858 -4.570731 29.988312
160 0 1 6.600049 -3.793440 30.492798
161 0 1 6.549848 -3.420809 31.407715
162 0 1 7.513059 -3.435900 31.281097
163 0 1 7.599760 -3.380511 30.349487
164 0 1 7.918046 -2.924960 29.576904
165 0 1 8.487490 -2.346659 30.085510
166 0 1 8.887259 -2.132519 29.250702
167 0 1 8.828638 -1.168320 29.052185
168 0 1 9.157129 -1.433560 28.208099
169 0 1 10.052118 -1.947880 28.318909
170 0 1 10.951227 -2.005629 28.474792
171 0 1 11.407450 -1.321761 28.014008
172 0 1 11.060358 -0.408640 28.115814
173 0 1 10.407877 0.169959 27.685089
174 0 1 9.718809 0.678649 28.036407
175 0 1 10.321070 0.902627 28.799500
176 0 1 10.363077 0.560720 29.658997
177 0 1 11.058657 0.047050 30.064392
178 0 1 11.365660 -0.851430 30.154785
179 0 1 12.052389 -1.475711 29.803589
180 0 1 11.200148 -1.931691 30.021484
181 0 1 11.143557 -2.837380 30.437500
182 0 1 10.296019 -2.312541 30.519287
183 0 1 10.055990 -2.942469 31.176605
184 0 1 9.938658 -2.641581 32.081787
185 0 1 10.234240 -2.649559 32.945099
186 0 1 9.532457 -3.083830 33.559204
187 0 1 8.800817 -2.811490 34.138489
188 0 1 8.094141 -2.970250 34.773102
189 0 1 7.139490 -2.920981 34.714508
190 0 1 6.606649 -3.580889 34.266602
191 0 1 6.195058 -3.627881 35.161987
192 0 1 5.538049 -3.053179 35.397491
193 0 1 4.760690 -2.676510 34.937988
194 0 1 4.433458 -2.753531 35.841705
195 0 1 4.901948 -1.903140 35.788605
196 0 1 5.610689 -1.337500 36.008606
197 0 1 6.419759 -0.734820 36.097504
198 0 1 7.088808 -0.750241 36.794800
199 0 1 7.113748 0.075660 37.296692
200 0 1 6.981267 1.056096 37.373199
201 0 1 6.425958 1.852020 37.549713
202 0 1 6.074380 1.584983 36.687012
203 0 1 5.193449 1.509424 36.999908
204 0 1 4.722749 1.001405 36.317688
205 0 1 5.147550 1.587009 35.688904
206 0 1 6.070318 1.986562 35.704803
207 0 1 6.899129 1.692033 35.190399
208 0 1 7.561887 2.415512 35.021698
209 0 1 7.110269 2.684944 34.244293
210 0 1 6.376077 3.075201 33.820801
211 0 1 5.731817 3.089559 33.060303
212 0 1 5.681219 3.961500 32.579712
213 0 1 5.352888 3.505392 31.757904
214 0 1 4.554067 3.659662 32.342896
215 0 1 4.133939 4.494939 31.994110
216 0 1 3.507551 3.908540 31.555511
217 0 1 3.094814 4.664548 31.907898
218 0 1 2.304594 4.984281 32.369812
219 0 1 2.295063 5.764921 32.938995
220 0 1 2.867409 6.500650 33.178711
221 0 1 2.343023 6.320081 33.976013
222 0 1 3.053575 6.636270 34.581390
223 0 1 3.560098 5.851110 34.463013
224 0 1 4.137750 5.950910 35.228516
225 0 1 4.713987 6.221658 35.919617
226 0 1 4.878309 5.443441 36.683594
227 0 1 5.575807 4.829000 37.036499
228 0 1 6.212179 4.756670 36.339203
229 0 1 6.006780 5.008199 35.368805
230 0 1 6.101350 5.586801 34.597595
231 0 1 6.733480 5.425539 33.895294
232 0 1 6.099847 5.976640 33.492798
233 0 1 6.159219 6.409139 32.609406
234 0 1 6.427000 7.118410 33.103790
235 0 1 5.561208 7.479391 33.155396
236 0 1 5.951189 8.175378 33.713013
237 0 1 6.079229 8.728700 34.498901
238 0 1 6.221559 9.510091 35.096100
239 0 1 5.966447 10.084001 35.761505
240 0 1 5.266107 10.758279 35.682404
241 0 1 5.148267 11.510530 36.329498
242 0 1 5.119638 12.348100 35.855591
243 0 1 5.493600 12.861398 36.540588
244 0 1 5.019208 13.266900 37.253296
245 0 1 5.166540 14.215199 36.913605
246 0 1 4.335878 14.538598 36.641388
247 0 1 4.819200 15.211598 37.088013
248 0 1 3.986599 15.667298 37.387085
249 0 1 3.160747 15.360497 36.875397
250 0 1 3.584238 16.159300 36.643188
251 0 1 3.112720 15.929799 35.826691
252 0 1 2.316890 15.881898 36.338806
253 0 1 1.459450 16.254198 36.520111
254 0 1 1.740185 17.058401 36.916901
255 0 1 1.745891 17.674898 36.174408
256 0 1 2.531605 18.227301 36.084808
257 0 1 2.659282 18.677401 36.932312
258 0 1 1.814829 19.114901 36.633789
259 0 1 1.557615 19.867300 36.076508
260 0 1 1.035568 20.309999 36.725494
261 0 1 0.802019 20.344202 37.684814
262 0 1 1.477819 20.547201 38.275391
263 0 1 1.395599 21.425100 37.842102
264 0 1 0.894399 21.299101 38.634399
265 0 1 0.383280 20.553801 38.870392
266 0 1 -0.429531 21.091402 38.784698
267 0 1 -1.141882 21.101301 38.117798
268 0 1 -1.432112 20.518900 37.416687
269 0 1 -1.938511 19.730101 37.360413
270 0 1 -1.493990 19.050303 36.832703
271 0 1 -1.023041 18.330599 37.249390
272 0 1 -0.982500 17.626600 36.475891
273 0 1 -0.753912 17.965998 35.542511
274 0 1 -0.163971 18.623903 35.995697
275 0 1 0.173998 18.409300 35.149994
276 0 1 0.770069 17.812700 35.696411
277 0 1 0.353639 17.000902 35.939209
278 0 1 0.681078 16.932699 36.904114
279 0 1 -0.345051 17.004801 37.085907
280 0 1 -0.047892 16.115301 36.875793
281 0 1 0.349718 15.397500 36.377197
282 0 1 -0.068022 14.708798 36.843109
283 0 1 0.426679 14.685201 37.651398
284 0 1 -0.248482 14.785001 38.327911
285 0 1 -1.028752 14.255898 38.114105
286 0 1 -1.812231 13.772199 37.963196
287 0 1 -2.397801 14.351899 38.382507
288 0 1 -2.312351 15.292901 38.698792
289 0 1 -2.715651 15.617501 39.458008
290 0 1 -3.431622 15.352098 38.857391
291 0 1 -4.342711 15.448197 38.502502
292 0 1 -4.971262 15.299897 37.744598
293 0 1 -5.551232 15.942101 37.326508
294 0 1 -6.131342 16.417002 37.935608
295 0 1 -6.520091 16.194201 38.850708
296 0 1 -6.871863 16.170099 39.682892
297 0 1 -6.897301 17.094801 39.339813
298 0 1 -6.919232 17.901499 38.892883
299 0 1 -6.996432 18.674700 38.235992
300 0 1 -7.167212 19.352503 37.575104
301 0 1 -6.246842 19.291601 37.537903
302 0 1 -6.455542 19.980200 36.947296
303 0 1 -5.888793 20.622103 36.566193
304 0 1 -4.901402 20.661303 36.567505
305 0 1 -4.252131 20.844000 37.311798
306 0 1 -3.548361 21.025400 36.759888
307 0 1 -3.840742 20.341303 36.144897
308 0 1 -4.209881 20.939203 35.445709
309 0 1 -3.619492 21.445200 34.804413
310 0 1 -4.100752 20.974802 34.073212
311 0 1 -4.801232 20.531702 34.516510
312 0 1 -5.569830 20.290003 34.129700
313 0 1 -6.487391 20.290598 33.862396
314 0 1 -7.392333 19.985701 34.104187
315 0 1 -8.049852 19.438601 33.630707
316 0 1 -8.356451 18.665499 34.086090
317 0 1 -9.109251 18.161100 33.880615
318 0 1 -9.059450 17.208200 33.845306
319 0 1 -8.185051 17.452101 33.752991
320 0 1 -7.555651 17.904299 34.434204
321 0 1 -6.967532 18.537699 34.930786
322 0 1 -7.758650 19.058298 35.071503
323 0 1 -8.546850 19.028399 35.687683
324 0 1 -7.788950 18.606001 36.118988
325 0 1 -8.589851 18.207598 36.543610
326 0 1 -8.913450 17.435499 37.012512
327 0 1 -9.233351 17.293001 37.915802
328 0 1 -9.798651 16.558199 38.275513
329 0 1 -10.669752 16.313002 38.617706
330 0 1 -10.629051 15.668698 39.295715
331 0 1 -10.651152 14.785897 39.019104
332 0 1 -9.782751 14.532300 39.358795
333 0 1 -9.622252 15.438600 39.529297
334 0 1 -8.716150 15.131799 39.607483
335 0 1 -8.616951 15.628598 40.418396
336 0 1 -7.635651 15.533998 40.281006
337 0 1 -7.212721 15.485101 41.187012
338 0 1 -7.818350 16.232500 41.403992
339 0 1 -8.752851 16.509600 41.588013
340 0 1 -9.064951 17.298201 42.064789
341 0 1 -9.616451 17.739500 41.408691
342 0 1 -9.762350 16.972700 40.837708
343 0 1 -10.572151 16.440901 40.846588
344 0 1 -11.386251 16.437300 41.252899
345 0 1 -11.540951 15.918000 40.453094
346 0 1 -11.331251 16.636499 39.922791
347 0 1 -12.134951 17.216101 40.147888
348 0 1 -12.712852 16.495100 39.968384
349 0 1 -13.436251 15.811200 39.924011
350 0 1 -12.906151 15.179002 40.502411
351 0 1 -13.531151 14.907399 41.223389
352 0 1 -13.696451 14.346101 41.955902
353 0 1 -12.819351 14.602899 42.407898
354 0 1 -12.322551 14.325898 41.629608
355 0 1 -11.689651 14.870797 42.037903
356 0 1 -11.204050 15.013101 42.857300
357 0 1 -10.520351 14.334199 42.710999
358 0 1 -11.277552 13.778100 42.707214
359 0 1 -11.932751 13.203599 43.046387
360 0 1 -12.777151 12.767999 43.197601
361 0 1 -13.677752 12.813199 43.216003
362 0 1 -14.271351 12.676999 43.943115
363 0 1 -13.370951 12.602700 44.266296
364 0 1 -12.958851 11.708760 44.424591
365 0 1 -13.421151 11.366509 43.582703
366 0 1 -12.543351 10.922471 43.631409
367 0 1 -11.812551 11.564218 43.732697
368 0 1 -12.054251 11.315530 44.643890
369 0 1 -11.767851 10.607160 45.335083
370 0 1 -11.773451 9.777780 44.836090
371 0 1 -11.042250 10.202909 44.384003
372 0 1 -10.804852 9.354829 44.779297
373 0 1 -11.477051 9.013299 45.437317
374 0 1 -11.045050 8.213971 45.057495
375 0 1 -12.026651 8.031068 45.176086
376 0 1 -12.451551 7.288419 44.618713
377 0 1 -11.837450 6.896410 45.285706
378 0 1 -12.496651 6.332788 45.839111
379 0 1 -12.205351 5.560819 46.394806
380 0 1 -12.080852 4.642770 46.428101
381 0 1 -12.607651 4.800680 45.642700
382 0 1 -11.960951 5.372831 45.212311
383 0 1 -11.969051 5.416078 44.190796
384 0 1 -11.198950 5.015890 43.644806
385 0 1 -10.324751 5.321672 43.323486
386 0 1 -10.230452 5.058641 44.233398
387 0 1 -9.499552 5.460420 44.720795
388 0 1 -8.789652 5.697641 45.299103
389 0 1 -7.925951 6.081251 45.538300
390 0 1 -7.096880 6.146509 45.028992
391 0 1 -6.675601 5.513792 45.755402
392 0 1 -6.221001 4.745462 45.456604
393 0 1 -6.450762 4.067590 44.738312
394 0 1 -6.440562 3.229341 45.153107
395 0 1 -5.887393 2.445776 45.256287
396 0 1 -6.329022 2.000682 45.973083
397 0 1 -6.283343 2.732061 46.582489
398 0 1 -7.065192 3.213960 46.610687
399 0 1 -7.588751 2.556291 46.143494
400 0 1 -8.349352 2.464458 46.699097
401 0 1 -8.162451 2.241027 47.591187
402 0 1 -7.447180 1.683006 47.071411
403 0 1 -7.321572 0.854402 47.595215
404 0 1 -7.001070 0.051931 47.262207
405 0 1 -6.451941 -0.561890 47.884613
406 0 1 -6.087531 -0.641961 46.994385
407 0 1 -5.864123 -0.764969 45.996216
408 0 1 -6.507842 -1.470210 46.037292
409 0 1 -6.439242 -2.357560 46.574493
410 0 1 -5.931452 -1.763951 47.169189
411 0 1 -5.275301 -2.370020 46.840912
412 0 1 -4.397511 -2.795269 46.618011
413 0 1 -3.834292 -3.566639 46.765686
414 0 1 -4.083102 -3.635020 45.811096
415 0 1 -3.497622 -3.081679 45.325287
416 0 1 -3.085051 -2.349650 45.791412
417 0 1 -3.222342 -1.465171 45.391388
418 0 1 -3.430071 -0.511651 45.194489
419 0 1 -2.473271 -0.473040 45.136597
420 0 1 -1.986401 -0.782441 45.910400
421 0 1 -2.256861 -1.295500 46.620789
422 0 1 -3.006281 -1.093091 46.996490
423 0 1 -3.342751 -0.234049 46.737000
424 0 1 -3.256001 0.683210 46.460815
425 0 1 -2.277132 0.887163 46.451202
426 0 1 -1.897562 1.199415 45.586304
427 0 1 -1.125231 1.874151 45.763000
428 0 1 -0.758942 1.607501 44.915894
429 0 1 -1.221842 0.759853 44.885498
430 0 1 -0.415301 0.674169 45.403198
431 0 1 0.020639 0.161750 46.059204
432 0 1 -0.210341 -0.764229 45.996704
433 0 1 0.491169 -1.389189 46.175293
434 0 1 -0.190142 -2.036801 46.240906
435 0 1 -1.074652 -2.298411 46.566803
436 0 1 -0.504061 -2.606850 47.338104
437 0 1 -0.669932 -3.561940 47.695587
438 0 1 -1.148772 -3.986821 48.503784
439 0 1 -1.521052 -4.876219 48.193207
440 0 1 -2.163210 -4.612339 48.846497
441 0 1 -2.447291 -4.704260 49.817993
442 0 1 -3.391100 -4.921870 49.728210
443 0 1 -3.812342 -5.301291 48.965790
444 0 1 -4.745100 -5.310969 49.101013
445 0 1 -5.310141 -5.630829 49.888306
446 0 1 -5.697392 -5.930090 49.032196
447 0 1 -5.793662 -5.495039 48.200195
448 0 1 -5.389342 -6.346840 47.837006
449 0 1 -5.645293 -7.248671 47.998291
450 0 1 -6.162020 -7.666689 48.751892
451 0 1 -6.382201 -8.534600 49.261902
452 0 1 -5.960822 -9.340800 48.966888
453 0 1 -6.691901 -9.604602 49.552002
454 0 1 -6.252791 -10.321601 50.054413
455 0 1 -6.349692 -11.233001 49.977997
456 0 1 -5.791201 -11.391002 49.098297
457 0 1 -6.405701 -12.114100 48.839600
458 0 1 -6.849680 -12.711301 48.308105
459 0 1 -6.460371 -13.662801 48.529694
460 0 1 -6.863692 -14.504100 48.711395
461 0 1 -6.730761 -15.267600 48.133911
462 0 1 -6.398352 -15.668700 47.325195
463 0 1 -7.014021 -15.794000 46.681702
464 0 1 -7.063483 -16.167299 45.836609
465 0 1 -6.172301 -15.832400 45.845612
466 0 1 -6.527932 -15.427800 44.997101
467 0 1 -7.458521 -15.463500 44.907410
468 0 1 -7.241602 -14.510400 44.978516
469 0 1 -7.948252 -14.200701 45.493896
470 0 1 -8.662252 -14.811801 45.844696
471 0 1 -9.524151 -14.677400 45.324310
472 0 1 -10.282251 -15.206601 45.372803
473 0 1 -10.731951 -14.323600 45.539001
474 0 1 -10.621450 -13.383401 45.722809
475 0 1 -11.237551 -13.041500 46.362091
476 0 1 -11.524252 -13.967200 46.399902
477 0 1 -11.155451 -13.721601 47.272308
478 0 1 -10.990051 -13.827701 48.241516
479 0 1 -11.845951 -13.546400 48.520111
480 0 1 -12.544351 -14.091500 48.269012
481 0 1 -13.413251 -14.370700 47.858795
482 0 1 -14.288551 -14.048301 48.058990
483 0 1 -14.475851 -14.620301 47.346710
484 0 1 -15.187351 -15.314801 47.487701
485 0 1 -15.415550 -16.110699 47.885712
486 0 1 -15.042051 -16.527100 48.657593
487 0 1 -15.644550 -17.189699 48.997192
488 0 1 -15.262751 -17.823099 48.398499
489 0 1 -16.132751 -17.781700 48.148407
490 0 1 -16.847351 -17.322800 48.645691
491 0 1 -17.184551 -17.248800 49.558289
492 0 1 -17.861351 -16.614500 49.362793
493 0 1 -18.689051 -16.712099 49.753296
494 0 1 -18.763451 -16.137899 50.582001
495 0 1 -19.377851 -15.462701 50.899200
496 0 1 -18.641851 -15.080100 51.499207
497 0 1 -18.894451 -14.530601 50.765503
498 0 1 -19.598652 -13.855400 51.069794
499 0 1 -19.085651 -13.400400 51.738098
500 0 1 -18.602152 -12.888700 52.361511
501 0 1 -18.630152 -12.664100 53.250397
502 0 1 -18.282351 -12.874500 54.139709
503 0 1 -18.631552 -12.222701 54.739594
504 0 1 -19.132051 -13.007001 54.930786
505 0 1 -19.037750 -13.773201 54.295197
506 0 1 -19.270552 -13.886300 53.338989
507 0 1 -20.267952 -13.997601 52.966888
508 0 1 -20.218752 -13.306300 52.350006
509 0 1 -20.768351 -13.668800 51.601013
510 0 1 -21.019251 -12.768100 51.330994
511 0 1 -20.487850 -12.859401 50.528198
512 0 1 -19.877851 -12.843401 49.800812
513 0 1 -19.382452 -12.076100 49.442200
514 0 1 -18.765951 -11.995601 48.708710
515 0 1 -18.139452 -12.150599 48.065613
516 0 1 -18.933750 -11.843902 47.563812
517 0 1 -19.129951 -12.760301 47.220093
518 0 1 -18.435850 -12.862901 46.606201
519 0 1 -17.543550 -13.015100 46.753387
520 0 1 -17.049452 -13.100801 45.920502
521 0 1 -16.512751 -12.292701 45.861511
522 0 1 -16.879051 -11.345401 45.854797
523 0 1 -17.380951 -11.159701 45.044403
524 0 1 -17.071852 -10.625100 44.349792
525 0 1 -17.806252 -10.017600 44.172211
526 0 1 -17.487652 -9.079301 44.108704
527 0 1 -18.528351 -9.121699 44.076904
528 0 1 -19.407551 -8.904901 44.325989
529 0 1 -19.562551 -9.007201 45.324585
530 0 1 -19.851351 -9.305202 46.173187
531 0 1 -20.233650 -8.970201 46.965912
532 0 1 -20.874651 -9.647401 46.783386
533 0 1 -21.457451 -8.937900 46.615692
534 0 1 -21.749250 -8.949000 47.508209
535 0 1 -22.366652 -9.464999 46.953400
536 0 1 -22.848150 -9.926299 46.172791
537 0 1 -23.756851 -9.650901 46.156403
538 0 1 -23.678652 -8.775701 45.757996
539 0 1 -23.825451 -7.868060 45.971710
540 0 1 -23.017851 -8.166160 46.369690
541 0 1 -22.864752 -7.656140 45.592804
542 0 1 -23.571152 -6.930739 45.445709
543 0 1 -23.270052 -6.966601 44.536499
544 0 1 -22.790352 -7.590559 43.995087
545 0 1 -21.762550 -7.431170 44.196808
546 0 1 -22.177351 -6.965790 44.910706
547 0 1 -22.662352 -6.259930 45.344696
548 0 1 -22.791250 -5.505820 45.949097
549 0 1 -21.829351 -5.566929 45.997314
550 0 1 -21.035851 -5.141280 46.374908
551 0 1 -20.291552 -4.455161 46.208405
552 0 1 -20.057152 -3.705491 45.670410
553 0 1 -20.569752 -3.779719 44.833893
554 0 1 -21.287251 -3.245850 45.248901
555 0 1 -21.890051 -3.356190 45.934601
556 0 1 -22.243952 -2.583510 46.307587
557 0 1 -21.380251 -2.035429 46.137207
558 0 1 -21.386652 -1.814370 45.226898
559 0 1 -20.647652 -2.392220 45.103210
560 0 1 -19.747351 -2.341891 44.863586
561 0 1 -20.174351 -2.449740 44.015106
562 0 1 -19.232052 -2.625290 43.838806
563 0 1 -19.505051 -3.101969 42.999390
564 0 1 -19.717550 -2.551770 42.245300
565 0 1 -19.231750 -2.458670 41.398895
566 0 1 -19.153952 -1.527180 41.209106
567 0 1 -18.693050 -1.281010 40.340302
568 0 1 -18.103750 -1.545970 39.632904
569 0 1 -18.080351 -2.480891 39.452301
570 0 1 -17.307251 -2.339301 38.919617
571 0 1 -17.317551 -1.422890 38.919495
572 0 1 -17.169750 -1.564820 38.011108
573 0 1 -16.249552 -1.628100 38.240204
574 0 1 -15.817152 -2.297751 37.795105
575 0 1 -16.434551 -2.670889 37.059998
576 0 1 -16.781651 -2.275799 36.208191
577 0 1 -17.561451 -1.962941 35.727112
578 0 1 -17.539751 -1.211970 35.138702
579 0 1 -18.063150 -1.663090 34.456787
580 0 1 -18.739052 -2.189499 33.938293
581 0 1 -19.487951 -1.615281 33.805908
582 0 1 -20.276451 -1.294921 34.304596
583 0 1 -20.932652 -0.679820 34.699890
584 0 1 -20.162951 -0.115309 34.214111
585 0 1 -20.628551 0.474929 33.549103
586 0 1 -20.761951 0.303890 32.592407
587 0 1 -20.618551 0.029821 31.743591
588 0 1 -19.772451 -0.402020 31.765503
589 0 1 -19.473150 0.539480 31.737793
590 0 1 -19.453251 1.290056 31.183411
591 0 1 -19.703152 1.916644 31.887512
592 0 1 -20.527752 2.547538 31.799500
593 0 1 -19.829250 3.015371 31.442200
594 0 1 -20.102451 3.925149 31.749786
595 0 1 -20.116051 3.299371 32.500092
596 0 1 -19.626751 3.634641 33.266602
597 0 1 -19.731951 4.532041 33.358215
598 0 1 -19.644550 5.469331 33.279114
599 0 1 -19.850950 6.049798 32.476685
600 0 1 -19.745550 6.852281 32.999817
601 0 1 -20.459850 7.096208 32.497589
602 0 1 -21.201551 7.511720 32.150391
603 0 1 -21.855251 6.867559 31.808502
604 0 1 -21.975752 7.010271 30.854492
605 0 1 -21.258652 7.626901 31.047211
606 0 1 -21.176750 7.839490 30.132599
607 0 1 -20.326351 8.151441 30.258301
608 0 1 -20.771351 8.792550 29.672607
609 0 1 -20.421350 8.969232 28.809509
610 0 1 -21.245352 8.594338 28.451111
611 0 1 -20.834850 8.271508 27.662994
612 0 1 -20.163952 7.606920 27.334198
613 0 1 -19.764252 8.220948 27.966797
614 0 1 -19.718950 7.455480 28.454193
615 0 1 -18.850151 7.180639 28.077393
616 0 1 -19.123852 6.262529 28.395294
617 0 1 -19.670151 5.707880 28.965393
618 0 1 -19.216150 4.845830 28.903015
619 0 1 -19.229351 4.234960 29.657715
620 0 1 -19.025452 3.657579 28.903107
621 0 1 -18.254051 4.115350 28.683990
622 0 1 -18.501350 4.655809 27.914795
623 0 1 -18.250351 5.259840 28.697693
624 0 1 -17.780050 5.318090 27.905487
625 0 1 -18.061050 5.744909 27.061188
626 0 1 -17.892651 6.662141 26.808014
627 0 1 -17.674351 7.400590 26.268616
628 0 1 -16.702551 7.152811 26.057495
629 0 1 -16.649450 6.212518 26.175903
630 0 1 -16.804550 5.312238 25.764893
631 0 1 -17.682751 5.204042 25.501801
632 0 1 -18.469851 5.510389 25.881897
633 0 1 -18.649952 5.123960 25.068512
634 0 1 -18.991951 4.386800 25.647308
635 0 1 -18.258652 3.964212 25.976990
636 0 1 -17.882952 3.239511 26.394806
637 0 1 -18.263250 3.439981 27.196686
638 0 1 -18.182751 2.602136 27.691284
639 0 1 -17.697752 1.765802 27.772491
640 0 1 -17.317152 1.367563 26.955505
641 0 1 -16.510651 1.313516 26.473816
642 0 1 -16.471750 2.213813 26.647095
643 0 1 -16.729351 2.476863 25.714691
644 0 1 -16.254452 2.226041 24.875793
645 0 1 -16.046551 1.961753 24.015686
646 0 1 -15.206051 2.454189 24.252502
647 0 1 -14.506250 2.805009 24.947388
648 0 1 -14.814251 3.445711 25.530701
649 0 1 -15.443552 2.918300 26.054199
650 0 1 -15.751152 3.238618 26.875793
651 0 1 -14.953852 2.714429 27.141693
652 0 1 -14.608051 3.598310 26.898407
653 0 1 -14.817051 4.500280 26.984100
654 0 1 -14.170351 4.413450 26.268799
655 0 1 -14.316051 5.117570 25.674805
656 0 1 -14.598751 5.631811 24.909088
657 0 1 -15.104752 5.725862 24.055908
658 0 1 -14.268551 5.905542 23.625092
659 0 1 -13.833450 4.995260 23.903687
660 0 1 -14.663151 4.668272 24.417786
661 0 1 -15.553652 4.566350 24.072601
662 0 1 -15.138151 4.518201 23.170013
663 0 1 -14.846151 4.605821 22.262299
664 0 1 -15.026852 4.168920 21.419296
665 0 1 -15.421850 3.498430 20.848206
666 0 1 -16.287451 3.307661 21.043304
667 0 1 -16.418652 3.050100 20.145798
668 0 1 -16.486752 2.112840 19.874802
669 0 1 -15.757551 2.128160 19.215607
670 0 1 -14.907850 2.125171 19.789902
671 0 1 -14.091551 1.713142 19.524002
672 0 1 -13.933151 0.846269 19.874298
673 0 1 -13.117951 1.203168 20.183594
674 0 1 -12.392051 0.639881 19.835999
675 0 1 -11.889751 0.970094 19.087494
676 0 1 -12.139151 1.618686 18.475708
677 0 1 -12.294651 0.929851 17.827499
678 0 1 -11.781551 0.884504 16.957703
679 0 1 -11.197050 0.565811 17.628906
680 0 1 -10.526850 0.904911 16.973801
681 0 1 -10.030951 0.255050 17.454407
682 0 1 -9.263750 0.450630 18.003403
683 0 1 -9.303551 0.176210 18.975708
684 0 1 -9.416651 1.114293 18.928192
685 0 1 -8.627451 1.149007 19.597992
686 0 1 -9.193651 0.584569 20.083801
687 0 1 -8.679750 -0.236210 20.274002
688 0 1 -8.582952 -0.980500 19.748398
689 0 1 -9.316351 -1.547410 19.870605
690 0 1 -9.944151 -0.890351 19.739899
691 0 1 -10.344152 -1.103520 18.883392
692 0 1 -9.948351 -1.129180 18.039703
693 0 1 -9.469152 -1.373410 17.287796
694 0 1 -9.605352 -1.811940 16.360306
695 0 1 -8.633751 -1.721221 16.475204
696 0 1 -8.483850 -1.582261 15.518905
697 0 1 -9.351351 -2.063710 15.304107
698 0 1 -9.379850 -1.225381 14.927001
699 0 1 -8.906450 -0.593260 15.447906
700 0 1 -8.224251 -0.783751 14.696395
701 0 1 -8.399752 -0.146269 13.986602
702 0 1 -8.989450 -0.062430 13.199904
703 0 1 -8.860352 0.513019 12.503997
704 0 1 -8.453451 0.464719 11.657302
705 0 1 -7.865653 -0.123129 12.088302
706 0 1 -7.365370 0.266809 12.789992
707 0 1 -7.843253 1.069749 12.897201
708 0 1 -7.628352 0.988250 11.949798
709 0 1 -8.283251 1.633806 11.688293
710 0 1 -8.484251 2.378940 12.276000
711 0 1 -8.928751 2.728460 11.454406
712 0 1 -8.115450 2.761329 10.966094
713 0 1 -7.280131 2.265745 10.750503
714 0 1 -6.985241 3.140979 10.719100
715 0 1 -6.084113 2.830631 10.951903
716 0 1 -5.876742 3.174261 10.110000
717 0 1 -4.923251 3.268091 10.433196
718 0 1 -4.699502 2.320444 10.319701
719 0 1 -3.838982 2.367177 10.771697
720 0 1 -3.604681 1.727527 10.067794
721 0 1 -3.829722 1.458150 9.169280
722 0 1 -4.174651 0.648830 9.525207
723 0 1 -3.844521 0.018020 8.898513
724 0 1 -3.045391 0.519540 8.491744
725 0 1 -2.361571 1.027934 7.979583
726 0 1 -2.452301 0.834907 7.022506
727 0 1 -2.643101 1.575214 6.440750
728 0 1 -2.785092 2.567312 6.274826
729 0 1 -3.551962 1.978660 5.995162
730 0 1 -3.446461 1.016008 5.704162
731 0 1 -4.286662 0.512700 5.939987
732 0 1 -4.712931 0.095130 5.158905
733 0 1 -5.402911 -0.541461 4.961349
734 0 1 -5.294211 -0.188191 4.066879
735 0 1 -4.602602 -0.873971 4.296249
736 0 1 -4.711602 -1.223790 3.354812
737 0 1 -4.672482 -1.889491 2.645919
738 0 1 -4.605811 -1.713511 1.654418
739 0 1 -4.340083 -2.086350 0.823348
740 0 1 -4.294871 -3.036341 0.613647
741 0 1 -4.741082 -3.760041 0.058670
742 0 1 -5.428442 -4.230151 0.510955
743 0 1 -5.861182 -4.387610 1.334106
744 0 1 -6.152083 -3.537230 1.821395
745 0 1 -6.617423 -4.305449 2.095016
746 0 1 -6.636691 -4.352549 3.057876
747 0 1 -5.679091 -4.506960 2.881607
748 0 1 -4.887902 -4.763270 2.254348
749 0 1 -4.613451 -5.508471 2.727401
750 0 1 -4.660141 -5.627341 1.795974
751 0 1 -3.803551 -5.728610 2.064422
752 0 1 -3.770962 -6.070910 1.150344
753 0 1 -4.081652 -6.957800 1.269409
754 0 1 -3.565802 -7.772559 1.158615
755 0 1 -4.110831 -8.421100 0.478576
756 0 1 -4.991972 -8.652301 0.317459
757 0 1 -5.537411 -7.932021 0.376205
758 0 1 -5.537791 -7.976359 -0.573044
759 0 1 -6.354662 -7.734250 -1.051957
760 0 1 -6.055611 -6.840189 -1.124589
761 0 1 -6.584502 -6.747200 -0.278504
762 0 1 -7.191302 -7.044581 0.420333
763 0 1 -7.642552 -7.626601 -0.159684
764 0 1 -8.641451 -7.491860 0.049011
765 0 1 -9.333750 -8.222529 0.066375
766 0 1 -9.335251 -9.057900 0.610427
767 0 1 -10.399551 -8.834399 0.490768
768 0 1 -11.083052 -8.699000 -0.134049
769 0 1 -11.571051 -9.494500 -0.119736
770 0 1 -11.988451 -9.823401 -0.989457
771 0 1 -12.863651 -10.217601 -0.988297
772 0 1 -13.213451 -10.988200 -0.530182
773 0 1 -14.036652 -11.222501 -0.988801
774 0 1 -14.296350 -10.508201 -1.605424
775 0 1 -14.831652 -11.182300 -1.978257
776 0 1 -14.651651 -12.065600 -1.899598
777 0 1 -14.572151 -12.940701 -1.511475
778 0 1 -14.619051 -13.850000 -1.931138
779 0 1 -14.532150 -13.170401 -2.573014
780 0 1 -15.073151 -13.277500 -3.332795
781 0 1 -14.273352 -13.914400 -3.307404
782 0 1 -13.582352 -14.654300 -3.305512
783 0 1 -12.755651 -14.318501 -3.623383