LAMMPS data file via MDAnalysis

        2000  atoms
        1999  bonds
           0  angles
           0  dihedrals
           0  impropers

           1  atom types
           1  bond types
           0  angle types
           0  dihedral types
           0  improper types

-30.5 30.5 xlo xhi
-30.5 30.5 ylo yhi
-233.5 233.5 zlo zhi


Masses

1 1.000000

Atoms

1 0 1 12.695821 -17.465521 21.279800
2 0 1 12.117021 -17.424622 22.073792
3 0 1 12.336720 -18.196321 22.642090
4 0 1 11.794919 -18.265621 23.400604
5 0 1 12.382520 -18.539522 24.033508
6 0 1 13.195321 -18.560923 24.571991
7 0 1 13.485822 -17.709522 24.307312
8 0 1 14.347119 -18.013222 24.045288
9 0 1 15.152921 -18.117622 23.485901
10 0 1 15.424520 -18.976122 23.361206
11 0 1 16.039318 -19.539822 22.972412
12 0 1 15.738523 -20.265923 23.455688
13 0 1 15.022923 -19.920322 22.980988
14 0 1 14.876622 -19.859522 22.047501
15 0 1 14.960122 -19.605221 21.129608
16 0 1 14.550221 -19.745821 20.285095
17 0 1 13.668622 -19.993622 20.084198
18 0 1 13.275922 -19.390923 19.413696
19 0 1 12.936822 -18.495222 19.506897
20 0 1 12.644521 -17.563622 19.753906
21 0 1 11.847421 -18.162521 19.573502
22 0 1 11.240621 -18.820221 19.781204
23 0 1 10.531220 -19.491222 19.907303
24 0 1 10.641522 -20.420721 19.665405
25 0 1 10.279622 -20.505022 20.528305
26 0 1 10.530820 -20.555422 21.465302
27 0 1 10.612920 -21.496122 21.609497
28 0 1 10.208322 -21.246122 22.465500
29 0 1 9.403222 -20.981522 22.878906
30 0 1 9.339520 -21.905321 23.106110
31 0 1 9.388421 -22.538221 23.846893
32 0 1 9.912122 -22.423222 24.692291
33 0 1 10.683423 -21.856222 24.869904
34 0 1 10.955621 -22.409521 24.144714
35 0 1 11.454022 -22.986021 23.504395
36 0 1 11.084020 -23.900822 23.710388
37 0 1 10.375222 -24.085722 23.031799
38 0 1 9.734521 -24.788622 23.429504
39 0 1 9.387624 -23.967121 23.669098
40 0 1 8.656121 -24.531122 23.419495
41 0 1 8.535222 -23.996521 22.648102
42 0 1 7.603821 -24.243021 22.900085
43 0 1 7.461922 -24.087122 21.927597
44 0 1 7.310822 -23.209723 21.414307
45 0 1 6.506520 -23.257622 21.963104
46 0 1 6.914322 -22.389721 21.925797
47 0 1 6.192921 -22.207222 22.570587
48 0 1 5.650509 -22.890121 23.002686
49 0 1 5.507660 -23.780622 22.582001
50 0 1 4.985772 -23.544222 21.789902
51 0 1 4.465462 -24.201622 21.286896
52 0 1 4.840561 -23.465521 20.789505
53 0 1 4.160431 -22.877121 21.230896
54 0 1 3.557641 -22.343321 20.809097
55 0 1 3.865242 -22.961922 20.169601
56 0 1 3.314141 -23.720022 19.832504
57 0 1 3.563672 -24.574722 20.212799
58 0 1 2.921410 -25.267323 20.435394
59 0 1 2.087349 -24.887321 20.060806
60 0 1 2.076020 -25.923922 19.957794
61 0 1 1.584660 -26.445421 19.320602
62 0 1 2.235020 -26.298021 18.629395
63 0 1 3.130501 -26.457623 18.533600
64 0 1 3.471859 -26.534922 17.655899
65 0 1 3.172513 -25.761822 17.164398
66 0 1 3.691041 -25.116421 17.649704
67 0 1 3.431511 -24.331421 18.090302
68 0 1 3.523182 -24.181023 17.112106
69 0 1 2.772233 -23.602121 17.405396
70 0 1 2.153840 -22.891623 17.535004
71 0 1 2.017479 -22.379723 18.330795
72 0 1 2.589100 -21.834122 18.911301
73 0 1 2.950600 -20.965521 19.123703
74 0 1 3.509861 -20.211622 19.238403
75 0 1 3.568360 -20.231522 20.180603
76 0 1 3.499882 -20.876621 20.918304
77 0 1 2.547310 -20.659721 20.931107
78 0 1 1.521863 -20.600922 20.693893
79 0 1 1.719300 -21.454521 20.315903
80 0 1 1.359410 -21.830421 21.085602
81 0 1 1.308472 -21.222122 21.865799
82 0 1 0.993721 -20.295021 21.756699
83 0 1 0.909371 -19.766022 20.984802
84 0 1 1.159691 -18.905922 20.479797
85 0 1 0.869603 -19.259821 19.644501
86 0 1 1.558899 -19.458921 19.038406
87 0 1 1.705651 -18.630022 18.624496
88 0 1 2.056233 -18.126022 19.358307
89 0 1 2.666852 -18.154121 18.618698
90 0 1 3.632260 -17.954622 18.987701
91 0 1 3.556592 -17.814621 19.903900
92 0 1 3.406033 -17.876822 20.833603
93 0 1 4.139103 -18.628822 20.815506
94 0 1 4.419293 -17.694221 20.719604
95 0 1 5.228032 -17.485521 20.252396
96 0 1 6.070920 -17.068922 20.038300
97 0 1 6.532021 -16.194321 19.928696
98 0 1 7.076222 -16.987221 19.777695
99 0 1 7.411721 -16.374022 20.455399
100 0 1 6.881722 -15.703421 20.929703
101 0 1 5.966820 -15.577121 21.320801
102 0 1 5.358712 -16.008522 21.995300
103 0 1 5.311749 -14.978421 22.276596
104 0 1 4.823010 -14.449019 21.695007
105 0 1 4.003720 -14.787620 21.873901
106 0 1 3.184193 -14.354121 22.000198
107 0 1 2.637021 -15.044621 22.406403
108 0 1 1.991570 -15.154221 21.690002
109 0 1 1.211903 -14.817821 21.427902
110 0 1 0.810483 -14.079822 20.893906
111 0 1 1.129151 -13.257220 20.692795
112 0 1 2.054162 -13.291720 20.746902
113 0 1 2.876030 -12.954021 20.979401
114 0 1 3.738030 -12.702521 21.411606
115 0 1 3.309052 -11.849721 21.418198
116 0 1 3.520001 -11.166720 20.677994
117 0 1 3.378182 -10.183671 20.480896
118 0 1 2.846371 -10.346412 21.206802
119 0 1 2.683182 -10.647220 22.102997
120 0 1 1.850640 -10.169402 22.031799
121 0 1 1.135792 -10.471221 22.578186
122 0 1 0.821240 -11.295920 22.256699
123 0 1 -0.086059 -11.703219 22.212402
124 0 1 -1.117557 -11.638221 22.028702
125 0 1 -0.995689 -12.400321 22.571899
126 0 1 -1.131179 -12.965320 23.348511
127 0 1 -0.904357 -12.034621 23.511414
128 0 1 -0.939479 -11.884721 24.487213
129 0 1 -0.151069 -12.192721 24.924988
130 0 1 -0.136978 -11.415420 25.544708
131 0 1 -0.122867 -10.446610 25.775299
132 0 1 -0.704238 -11.055921 26.370605
133 0 1 -0.514148 -10.887721 27.362701
134 0 1 -0.085208 -10.093791 27.609985
135 0 1 -0.835670 -10.153991 28.223907
136 0 1 -0.045928 -10.658919 28.478790
137 0 1 0.752923 -10.601222 29.145905
138 0 1 0.777821 -10.015241 29.840210
139 0 1 0.433079 -9.276931 30.269196
140 0 1 1.100522 -8.595912 30.035492
141 0 1 1.368130 -9.176322 30.735199
142 0 1 2.242272 -9.104960 30.486786
143 0 1 2.313912 -8.966870 31.456696
144 0 1 2.275212 -9.568061 32.227997
145 0 1 1.434441 -9.904071 32.662994
146 0 1 1.613572 -10.299460 33.546204
147 0 1 2.411511 -10.716620 33.003998
148 0 1 2.453152 -10.620421 32.022308
149 0 1 2.916092 -10.508321 31.135498
150 0 1 3.694432 -10.209311 31.590607
151 0 1 4.452923 -10.508422 31.019592
152 0 1 4.906743 -10.660720 31.803009
153 0 1 5.761090 -10.998622 31.556702
154 0 1 5.773449 -11.767119 30.961700
155 0 1 5.162129 -11.809421 30.210388
156 0 1 5.778420 -11.252521 29.620087
157 0 1 5.599011 -11.333220 28.651001
158 0 1 5.342770 -10.464721 28.470886
159 0 1 5.618809 -9.559142 28.171204
160 0 1 5.358883 -9.295432 29.097687
161 0 1 5.060063 -9.902610 29.773590
162 0 1 5.751019 -10.284261 30.247986
163 0 1 6.650521 -9.840819 30.315002
164 0 1 6.654423 -9.078219 30.882294
165 0 1 7.108319 -8.690681 30.084991
166 0 1 6.480221 -7.861421 30.076508
167 0 1 5.982922 -8.220620 30.767090
168 0 1 6.522721 -7.468060 31.195312
169 0 1 7.387322 -7.071292 30.967804
170 0 1 8.357720 -6.819180 31.182892
171 0 1 9.053021 -7.138862 31.746490
172 0 1 8.166020 -7.529561 31.925812
173 0 1 8.156220 -7.632861 32.947510
174 0 1 8.719422 -8.237922 32.449707
175 0 1 9.678422 -8.300801 32.176392
176 0 1 10.341123 -7.910371 32.683197
177 0 1 11.004823 -7.814141 33.430389
178 0 1 10.615521 -6.984321 33.574402
179 0 1 10.071122 -6.487111 34.149292
180 0 1 10.341519 -5.580510 34.071106
181 0 1 10.682721 -4.788241 33.726593
182 0 1 9.927823 -4.299581 33.315308
183 0 1 9.962422 -3.916560 32.403198
184 0 1 10.296422 -3.115851 32.062195
185 0 1 10.641622 -2.335620 31.637695
186 0 1 9.705422 -2.136760 31.887909
187 0 1 9.361623 -1.602050 31.144714
188 0 1 8.663522 -0.923556 30.911102
189 0 1 8.741620 -0.054471 30.441589
190 0 1 9.529321 -0.545047 30.554688
191 0 1 9.695123 0.368648 30.497498
192 0 1 9.838922 0.452065 29.528687
193 0 1 9.837922 1.125669 28.798492
194 0 1 8.906922 1.236459 28.595612
195 0 1 8.295121 2.137681 28.441895
196 0 1 7.406621 2.385320 28.643005
197 0 1 7.209420 1.817491 27.903992
198 0 1 6.539422 2.142518 27.252197
199 0 1 7.110222 2.946900 27.324799
200 0 1 6.331421 3.386640 27.791016
201 0 1 5.379830 3.732308 28.045410
202 0 1 5.806523 4.368028 27.458984
203 0 1 6.569920 4.879460 27.811798
204 0 1 7.260621 5.295888 28.345093
205 0 1 7.076821 6.285897 28.409088
206 0 1 7.754921 6.815461 27.978302
207 0 1 7.879921 7.806359 28.032806
208 0 1 7.454621 7.504239 28.881805
209 0 1 6.595120 7.790700 29.305389
210 0 1 6.831120 8.651551 29.465210
211 0 1 6.748120 9.470658 28.984314
212 0 1 6.022221 9.700379 29.602112
213 0 1 5.437310 10.437982 29.762695
214 0 1 5.163521 10.905381 30.548492
215 0 1 5.688912 11.735280 30.245789
216 0 1 6.246621 12.584580 30.286896
217 0 1 6.473721 13.436978 30.616394
218 0 1 5.783223 13.385480 31.362701
219 0 1 4.876141 13.419679 31.172607
220 0 1 4.499302 14.181077 30.785309
221 0 1 4.891079 13.648480 30.023102
222 0 1 4.959622 14.023278 29.080505
223 0 1 5.605202 14.556180 29.454102
224 0 1 6.336621 14.954377 28.895203
225 0 1 6.289723 15.695680 29.494995
226 0 1 7.209919 15.770780 29.657410
227 0 1 8.083322 15.998479 29.384308
228 0 1 9.010221 15.774880 29.420013
229 0 1 8.976621 15.386682 28.566498
230 0 1 8.552724 14.514779 28.815796
231 0 1 9.420621 14.197480 28.404694
232 0 1 9.880719 14.675080 27.693115
233 0 1 10.549722 14.937081 28.441498
234 0 1 11.347821 15.302880 27.964996
235 0 1 11.542722 14.471280 28.440613
236 0 1 11.287923 13.727181 27.920898
237 0 1 11.012624 13.933179 27.015198
238 0 1 10.554822 13.164380 27.312012
239 0 1 10.225121 13.234078 26.379608
240 0 1 10.469422 13.552880 25.517792
241 0 1 9.732221 13.143880 25.121887
242 0 1 10.156720 12.314378 25.175995
243 0 1 9.931420 12.493878 24.222992
244 0 1 9.148923 12.285981 23.704590
245 0 1 9.230321 11.792779 22.845398
246 0 1 9.570622 10.848481 22.872406
247 0 1 8.654222 10.560079 22.729492
248 0 1 8.277120 10.098779 23.480194
249 0 1 7.672020 9.420037 23.603790
250 0 1 7.921422 9.105851 24.500305
251 0 1 8.091722 8.566522 25.286804
252 0 1 8.515424 7.634088 25.424103
253 0 1 7.806523 7.305230 25.983704
254 0 1 7.118821 6.685708 26.580292
255 0 1 7.129120 5.714238 26.737000
256 0 1 7.336323 5.108098 25.926788
257 0 1 7.023621 5.309888 25.072815
258 0 1 7.654721 5.499009 24.242310
259 0 1 7.649422 6.405438 24.207092
260 0 1 8.560922 6.583341 24.000397
261 0 1 8.614522 7.529748 23.862610
262 0 1 8.001721 7.765370 23.143005
263 0 1 8.346623 7.710000 22.257797
264 0 1 7.895722 6.877069 22.069794
265 0 1 8.749322 6.744428 21.657303
266 0 1 9.483621 6.095880 21.316193
267 0 1 10.303521 5.820451 21.938293
268 0 1 11.103520 6.158021 21.541504
269 0 1 11.447423 5.738759 20.621796
270 0 1 11.890523 5.330228 21.379898
271 0 1 12.526021 5.928449 21.027206
272 0 1 12.836022 6.003110 20.137894
273 0 1 12.698022 5.842290 19.208099
274 0 1 12.185323 5.166940 18.944305
275 0 1 11.530820 5.872838 19.232300
276 0 1 11.151723 6.762551 19.464203
277 0 1 10.371922 7.046849 19.990295
278 0 1 9.563420 7.608727 20.008102
279 0 1 8.673722 7.766870 20.397995
280 0 1 8.465322 6.818929 20.444092
281 0 1 8.639321 6.782250 19.473206
282 0 1 8.321122 7.386868 18.783707
283 0 1 7.441319 6.932069 18.771103
284 0 1 7.515423 7.929971 18.700806
285 0 1 7.924820 8.682351 18.160492
286 0 1 7.775822 8.173028 17.421906
287 0 1 8.092622 8.932679 16.820999
288 0 1 7.737320 9.554078 16.260803
289 0 1 8.170121 9.724980 15.432297
290 0 1 7.679520 9.947179 14.580597
291 0 1 8.183324 10.450280 13.985199
292 0 1 7.305420 10.618981 13.798096
293 0 1 6.680920 9.815980 13.765198
294 0 1 6.029320 10.076577 13.128098
295 0 1 6.260521 10.931378 13.498993
296 0 1 6.400921 11.541978 14.144592
297 0 1 6.068623 11.281678 15.004501
298 0 1 5.482571 10.653180 14.620895
299 0 1 5.220730 9.963479 14.020905
300 0 1 4.269299 10.023278 13.708603
301 0 1 4.439652 10.208581 14.653702
302 0 1 4.027020 10.242879 15.521301
303 0 1 3.509301 11.016480 15.208099
304 0 1 3.904912 11.691480 15.746307
305 0 1 3.247262 12.305680 16.031906
306 0 1 3.992863 12.848081 15.939301
307 0 1 4.491169 13.445779 16.462906
308 0 1 4.428650 12.767480 17.153595
309 0 1 4.740052 11.892179 17.455093
310 0 1 3.888012 11.580277 17.157898
311 0 1 3.192860 11.673779 17.886703
312 0 1 2.976841 12.114278 18.740295
313 0 1 3.197602 12.804280 19.322601
314 0 1 2.360383 13.190579 19.219803
315 0 1 1.596230 13.029981 19.884598
316 0 1 1.219491 13.707479 20.549698
317 0 1 1.092350 14.497682 21.107300
318 0 1 1.235131 15.482480 21.187408
319 0 1 1.459260 16.465778 21.374695
320 0 1 2.266491 16.473877 22.083099
321 0 1 1.910050 15.627481 22.211700
322 0 1 2.530209 15.408978 22.905792
323 0 1 2.416592 15.743981 23.802612
324 0 1 2.226670 15.171979 24.553009
325 0 1 1.495442 15.137879 25.222687
326 0 1 1.368802 14.524381 25.868988
327 0 1 1.355900 13.702378 25.352997
328 0 1 1.064312 13.509179 24.481201
329 0 1 1.555062 12.673379 24.329590
330 0 1 1.122181 11.765180 24.393311
331 0 1 1.535820 11.304078 25.131409
332 0 1 1.773480 12.241677 25.231689
333 0 1 0.827992 12.404180 25.528290
334 0 1 0.138543 13.013581 25.686096
335 0 1 -0.854419 12.973779 25.487701
336 0 1 -1.767101 12.575181 25.353516
337 0 1 -2.423427 12.655980 26.102814
338 0 1 -2.030029 12.467980 27.015106
339 0 1 -2.024471 12.041879 27.858704
340 0 1 -2.971729 12.005479 27.790314
341 0 1 -3.508667 12.426579 27.114014
342 0 1 -3.535459 13.422780 27.077209
343 0 1 -4.225660 14.033780 26.755707
344 0 1 -4.171747 13.823281 27.752106
345 0 1 -3.931146 12.922879 28.142395
346 0 1 -4.851478 12.664681 28.130707
347 0 1 -5.711509 12.873879 28.452789
348 0 1 -6.055179 13.683179 28.850586
349 0 1 -7.024780 13.607678 28.752686
350 0 1 -7.645599 13.225381 29.470490
351 0 1 -7.072698 12.634179 28.965302
352 0 1 -6.587049 12.999681 29.738190
353 0 1 -6.611858 12.833581 30.681000
354 0 1 -6.618469 11.888879 31.053101
355 0 1 -5.884538 12.398778 31.431885
356 0 1 -6.050560 12.343980 32.328491
357 0 1 -5.953039 13.246678 32.169312
358 0 1 -5.312129 12.944581 32.953094
359 0 1 -4.471948 12.838479 32.441803
360 0 1 -3.745233 12.687982 33.023987
361 0 1 -2.950639 12.208581 32.889496
362 0 1 -2.917018 11.831979 31.952911
363 0 1 -3.687459 11.700479 31.339996
364 0 1 -3.327175 10.922578 30.887604
365 0 1 -3.356849 10.200780 30.288605
366 0 1 -3.383564 10.084878 29.376801
367 0 1 -2.476737 9.892480 29.026489
368 0 1 -2.367679 8.955388 28.709686
369 0 1 -2.035858 9.071370 29.688507
370 0 1 -1.380439 9.385179 30.326416
371 0 1 -0.586830 9.880181 30.041290
372 0 1 -0.308677 10.698178 29.498688
373 0 1 0.307610 10.471879 28.686188
374 0 1 -0.535068 10.497880 28.005310
375 0 1 -1.332138 10.261277 27.517303
376 0 1 -1.953140 9.623178 27.253113
377 0 1 -2.822069 9.851777 26.907898
378 0 1 -3.518789 9.613679 27.576691
379 0 1 -4.385158 9.436547 27.954193
380 0 1 -4.722297 8.566400 28.039398
381 0 1 -5.447670 8.276147 28.522095
382 0 1 -6.259639 8.622170 28.139587
383 0 1 -7.060310 9.028329 28.264709
384 0 1 -7.533699 9.675580 28.827301
385 0 1 -6.869319 9.275857 29.494812
386 0 1 -6.103979 9.100327 30.043488
387 0 1 -5.379779 9.595979 30.510101
388 0 1 -5.535749 9.964681 31.336304
389 0 1 -5.425989 9.652879 32.200684
390 0 1 -4.553606 9.305020 31.773102
391 0 1 -4.086671 9.572381 30.914307
392 0 1 -3.946514 8.650090 30.669189
393 0 1 -3.189029 8.563550 31.263611
394 0 1 -2.466159 8.221818 31.753387
395 0 1 -2.128849 7.343019 31.965607
396 0 1 -2.212200 6.338281 32.023590
397 0 1 -2.513359 5.965287 32.883484
398 0 1 -3.262603 5.785020 32.264404
399 0 1 -4.037832 5.710690 32.874207
400 0 1 -4.651174 4.984948 32.676300
401 0 1 -4.784694 5.692529 32.052307
402 0 1 -5.051612 6.068879 31.144806
403 0 1 -5.149740 6.313649 30.166992
404 0 1 -4.860616 6.307279 29.222809
405 0 1 -5.631729 5.888631 28.860413
406 0 1 -6.234619 5.157510 28.756409
407 0 1 -7.107389 4.682759 28.685089
408 0 1 -6.719509 4.371770 29.550507
409 0 1 -7.153648 3.544221 29.355194
410 0 1 -7.421770 2.930058 30.047913
411 0 1 -8.207629 2.547631 30.410187
412 0 1 -8.938169 2.496430 29.857910
413 0 1 -9.052268 1.628720 30.439087
414 0 1 -9.786569 1.983640 31.040100
415 0 1 -9.413289 2.892610 31.235107
416 0 1 -10.133140 3.449227 31.460388
417 0 1 -10.324418 2.892930 32.180115
418 0 1 -9.644639 2.323709 32.268097
419 0 1 -9.684878 1.362779 32.133209
420 0 1 -8.791617 1.440068 31.830902
421 0 1 -8.219958 1.830468 32.493286
422 0 1 -7.388528 2.224229 32.171997
423 0 1 -7.082139 2.950688 32.706787
424 0 1 -6.248189 2.901570 33.163300
425 0 1 -6.175548 2.417550 33.969513
426 0 1 -6.921588 2.157781 34.594208
427 0 1 -6.141119 1.867459 35.061707
428 0 1 -5.397319 2.251470 35.522308
429 0 1 -5.099603 2.863667 36.155609
430 0 1 -5.245670 3.771848 36.537994
431 0 1 -5.950809 4.369668 36.615112
432 0 1 -5.721828 5.286290 36.749207
433 0 1 -5.437728 6.236009 36.825195
434 0 1 -4.639202 6.030469 36.297302
435 0 1 -4.092052 5.704320 35.605499
436 0 1 -3.392770 5.517308 36.314911
437 0 1 -2.771209 4.798081 35.764099
438 0 1 -3.392393 4.013047 35.657288
439 0 1 -3.612791 3.588010 36.453094
440 0 1 -2.903869 4.256841 36.684998
441 0 1 -2.756549 3.859139 37.514709
442 0 1 -3.263587 4.401578 38.150909
443 0 1 -3.741319 3.849511 38.853302
444 0 1 -3.040729 3.263768 39.095886
445 0 1 -2.153739 2.927438 39.011414
446 0 1 -2.225490 3.011498 39.954590
447 0 1 -1.539829 2.896501 40.567017
448 0 1 -1.282859 1.905080 40.364502
449 0 1 -1.802921 1.977250 41.208710
450 0 1 -0.916450 1.882649 41.589203
451 0 1 0.002739 2.157189 41.618195
452 0 1 0.765271 1.873319 41.076599
453 0 1 0.656262 1.428399 40.237396
454 0 1 0.312359 0.922719 39.457214
455 0 1 -0.433040 0.270249 39.527710
456 0 1 -0.741138 -0.455026 40.033295
457 0 1 0.014630 -0.799403 39.404602
458 0 1 0.636822 -0.090953 39.392517
459 0 1 1.113171 -0.790324 38.987091
460 0 1 1.386982 -1.748231 39.301300
461 0 1 1.674500 -1.344199 40.132202
462 0 1 2.670743 -1.375567 40.176605
463 0 1 3.541180 -1.046937 39.911194
464 0 1 3.140290 -1.257888 39.095001
465 0 1 2.762482 -0.763818 38.377991
466 0 1 3.216912 -1.000203 37.590607
467 0 1 2.553460 -1.484540 37.060486
468 0 1 1.882500 -0.900054 36.680786
469 0 1 1.946763 -0.090007 36.113800
470 0 1 1.881981 0.673200 35.556000
471 0 1 2.627911 1.197919 35.844391
472 0 1 2.976212 0.859040 35.077911
473 0 1 2.986611 1.546628 34.334412
474 0 1 2.700703 2.338529 33.816589
475 0 1 2.365841 2.787709 33.020508
476 0 1 1.951123 3.306840 32.333313
477 0 1 1.710392 3.847711 31.606812
478 0 1 2.510830 3.306638 31.316101
479 0 1 3.187283 3.719361 31.829102
480 0 1 3.970021 4.081059 31.320099
481 0 1 4.215920 3.159829 31.399689
482 0 1 4.124192 3.093930 30.440002
483 0 1 3.652871 2.314919 30.124695
484 0 1 3.736111 2.357518 29.139404
485 0 1 4.611271 2.205720 28.663513
486 0 1 4.771801 1.279931 28.447388
487 0 1 4.464779 1.123120 27.498199
488 0 1 4.801701 0.507960 26.884491
489 0 1 4.661660 1.209020 26.191803
490 0 1 4.070012 1.934098 26.436096
491 0 1 3.231312 1.752000 26.844696
492 0 1 2.639180 2.179177 26.109497
493 0 1 2.136761 2.925939 25.734406
494 0 1 2.462571 2.223691 25.082794
495 0 1 1.962922 2.831140 24.612701
496 0 1 2.619282 2.737451 23.909088
497 0 1 3.276883 3.232110 23.517395
498 0 1 2.785061 4.041558 23.656311
499 0 1 2.809033 4.952119 23.343384
500 0 1 3.384110 5.631280 23.512207
501 0 1 3.162571 5.653928 22.566498
502 0 1 3.772770 6.451909 22.386993
503 0 1 4.397351 7.042439 21.872192
504 0 1 5.188229 6.597978 21.503693
505 0 1 4.958439 5.631280 21.503204
506 0 1 4.048180 5.555879 21.451996
507 0 1 3.741780 4.622289 21.379700
508 0 1 4.685559 4.571168 21.292099
509 0 1 4.583302 4.036550 22.087402
510 0 1 3.805470 3.538968 21.951797
511 0 1 3.118042 2.969769 22.334396
512 0 1 2.186909 2.710610 22.249603
513 0 1 1.390740 2.873658 22.786591
514 0 1 1.417351 3.508000 23.512909
515 0 1 0.582539 3.268300 23.982391
516 0 1 0.249280 2.377999 24.195709
517 0 1 0.546322 1.605309 24.636688
518 0 1 0.741730 0.642039 24.584106
519 0 1 0.847260 0.884068 23.569794
520 0 1 0.810650 -0.017722 23.375488
521 0 1 1.592881 0.177642 22.904297
522 0 1 1.012681 -0.027190 22.121994
523 0 1 1.051541 0.912700 21.975906
524 0 1 0.409081 1.382081 21.447495
525 0 1 0.498200 2.275147 21.056396
526 0 1 -0.089820 2.954518 21.436203
527 0 1 0.089402 3.829999 21.681900
528 0 1 1.036820 3.852609 22.036194
529 0 1 1.801159 3.778771 21.350800
530 0 1 1.074601 3.207120 21.103806
531 0 1 1.866829 2.549649 21.063705
532 0 1 1.469872 2.084989 20.337097
533 0 1 1.330243 2.929029 19.955597
534 0 1 1.147870 3.548440 19.190994
535 0 1 0.344582 3.844781 19.649399
536 0 1 1.078820 4.519898 19.902100
537 0 1 1.395623 5.494821 19.686905
538 0 1 1.635190 5.916581 18.851700
539 0 1 2.524441 6.051778 18.408508
540 0 1 3.466702 6.219209 18.164200
541 0 1 2.884621 6.388669 17.411194
542 0 1 3.362252 7.169431 17.097504
543 0 1 3.660462 8.096070 17.177307
544 0 1 3.527569 8.216790 16.231094
545 0 1 4.177430 8.823831 16.619598
546 0 1 4.895573 8.319879 17.066895
547 0 1 4.827633 8.253778 18.003006
548 0 1 4.848210 7.627458 18.810806
549 0 1 3.978302 7.983350 18.670593
550 0 1 4.164261 8.556661 19.516098
551 0 1 4.099919 8.186418 20.352005
552 0 1 4.222271 8.996118 20.856094
553 0 1 3.543450 9.581277 21.233002
554 0 1 3.780262 9.908479 20.362900
555 0 1 2.794541 10.114881 20.382706
556 0 1 1.871800 10.092980 20.036697
557 0 1 0.945073 9.942979 20.160995
558 0 1 0.878769 10.268479 21.088806
559 0 1 0.551899 11.161180 21.215500
560 0 1 -0.335628 11.135781 20.888306
561 0 1 -1.096950 10.836480 20.427704
562 0 1 -1.335739 10.020978 20.999207
563 0 1 -2.202560 10.470281 21.277206
564 0 1 -2.666740 9.633580 21.024902
565 0 1 -3.528646 9.959180 21.007904
566 0 1 -3.621074 9.135888 20.488708
567 0 1 -2.810129 9.277711 20.003403
568 0 1 -3.322074 9.569779 19.248108
569 0 1 -2.806770 9.846581 18.429901
570 0 1 -2.866849 8.954129 18.067001
571 0 1 -2.494888 8.613988 17.239594
572 0 1 -3.357059 8.065339 17.315598
573 0 1 -4.221342 8.046830 16.880295
574 0 1 -5.100353 8.325849 16.844803
575 0 1 -4.810871 8.389058 15.878204
576 0 1 -5.638328 7.929200 15.779694
577 0 1 -6.397958 7.728097 15.095505
578 0 1 -5.602699 7.510049 14.535004
579 0 1 -4.677640 7.304990 14.446198
580 0 1 -4.889160 7.830838 13.646393
581 0 1 -5.695379 7.414048 13.359894
582 0 1 -5.540140 7.911069 12.598694
583 0 1 -6.038839 8.777638 12.494202
584 0 1 -6.906599 9.295068 12.487000
585 0 1 -7.332130 9.786477 11.750107
586 0 1 -8.211478 9.855081 11.687302
587 0 1 -8.445849 8.938748 11.962601
588 0 1 -9.341649 8.829118 11.545898
589 0 1 -9.272779 8.614030 10.620407
590 0 1 -9.268310 9.120637 9.841248
591 0 1 -9.246829 8.183148 9.674408
592 0 1 -9.901649 8.503839 9.042908
593 0 1 -10.659328 8.093492 9.401443
594 0 1 -11.276488 7.560731 9.912994
595 0 1 -10.347058 7.118890 9.894318
596 0 1 -10.027648 7.485158 10.789703
597 0 1 -9.794549 7.022401 11.599106
598 0 1 -9.262969 7.485539 12.257599
599 0 1 -8.521110 7.261189 12.839798
600 0 1 -7.812660 6.587670 12.663208
601 0 1 -7.778579 6.044061 11.847000
602 0 1 -7.977609 5.533998 12.617905
603 0 1 -8.562697 5.080739 13.223297
604 0 1 -8.965259 5.891297 13.455399
605 0 1 -9.269599 5.475938 14.316193
606 0 1 -8.578889 5.006639 14.766998
607 0 1 -8.996459 4.198548 14.502594
608 0 1 -9.404519 3.374139 14.707306
609 0 1 -9.573058 2.833131 13.948303
610 0 1 -10.412938 3.083379 13.422607
611 0 1 -9.623029 3.086148 12.827194
612 0 1 -9.062148 3.467378 12.073105
613 0 1 -8.723258 3.969769 11.281204
614 0 1 -8.228339 4.166921 12.134094
615 0 1 -8.047229 4.189538 13.121094
616 0 1 -7.796579 3.794869 13.946808
617 0 1 -7.846670 2.968381 14.457092
618 0 1 -7.619989 2.462258 13.636902
619 0 1 -7.435218 3.256379 13.081802
620 0 1 -7.044460 2.546639 12.576004
621 0 1 -6.155488 2.557069 12.912506
622 0 1 -6.207340 1.795011 12.253998
623 0 1 -5.892419 1.214570 11.522598
624 0 1 -5.182357 0.654689 11.895004
625 0 1 -5.168903 0.801669 12.902298
626 0 1 -4.756065 1.464101 13.490997
627 0 1 -4.086879 2.103009 13.300903
628 0 1 -3.785669 1.635499 14.068802
629 0 1 -2.953969 1.219399 13.852005
630 0 1 -3.461807 0.716800 13.211899
631 0 1 -3.501964 0.741118 12.276505
632 0 1 -3.232831 1.668691 12.318497
633 0 1 -2.516147 2.325158 12.501099
634 0 1 -1.612159 2.827008 12.419800
635 0 1 -0.850460 2.424607 11.939301
636 0 1 0.079583 1.954759 11.880798
637 0 1 -0.297660 2.154798 12.731705
638 0 1 -0.090728 3.073819 12.577393
639 0 1 0.499989 3.703649 11.998505
640 0 1 1.274220 3.876489 11.412201
641 0 1 2.019532 4.428971 11.166702
642 0 1 1.769181 4.023011 10.304306
643 0 1 2.652531 3.603448 10.352798
644 0 1 3.401513 3.867620 10.885696
645 0 1 4.051503 4.160649 11.594101
646 0 1 5.024590 4.349401 11.353897
647 0 1 5.966321 4.368081 11.467697
648 0 1 6.417122 4.851090 10.736404
649 0 1 7.009923 5.621499 10.659302
650 0 1 7.415921 6.234529 11.272202
651 0 1 7.089421 6.236638 12.161499
652 0 1 7.845219 5.713861 12.427200
653 0 1 7.994820 5.849221 13.336792
654 0 1 7.725522 5.859071 14.260605
655 0 1 7.902821 6.825208 14.575897
656 0 1 7.289021 6.560990 15.247803
657 0 1 6.395222 6.885819 15.135895
658 0 1 6.282223 6.146821 15.694199
659 0 1 6.601719 5.284898 15.934998
660 0 1 6.719521 4.492120 15.342407
661 0 1 6.714421 4.813428 14.440903
662 0 1 5.940121 5.411500 14.565094
663 0 1 5.394833 5.583108 15.380005
664 0 1 4.577012 5.745728 14.781601
665 0 1 3.709191 5.955857 14.573502
666 0 1 4.138119 6.068261 13.723801
667 0 1 3.848202 6.968911 14.051193
668 0 1 2.907540 6.873048 14.159103
669 0 1 2.795182 6.110330 13.554504
670 0 1 3.292550 6.238069 12.754807
671 0 1 3.870259 7.036637 12.574493
672 0 1 4.723523 7.568318 12.494797
673 0 1 4.609082 8.479718 12.645706
674 0 1 3.640442 8.343698 12.744202
675 0 1 3.263760 9.060472 12.283401
676 0 1 2.642342 8.693910 11.662399
677 0 1 2.938202 7.791581 11.858795
678 0 1 3.423062 7.429330 11.096207
679 0 1 4.276871 7.368550 10.679596
680 0 1 4.053391 6.523957 10.432205
681 0 1 4.919133 6.170949 10.439392
682 0 1 5.530102 6.994161 10.308594
683 0 1 6.181321 7.506650 10.920502
684 0 1 6.845021 7.069798 10.369507
685 0 1 7.342721 7.181489 9.494354
686 0 1 7.803921 6.954770 8.616455
687 0 1 8.587323 6.327298 8.603027
688 0 1 8.271520 6.731080 7.716324
689 0 1 9.098020 7.265759 7.755295
690 0 1 8.687123 7.866342 7.118256
691 0 1 8.557523 7.272649 6.356598
692 0 1 9.318921 6.682130 6.484772
693 0 1 9.040219 5.857919 6.954361
694 0 1 8.618222 5.597138 7.713761
695 0 1 7.766423 5.754350 7.248093
696 0 1 6.967522 5.157609 6.985047
697 0 1 7.659321 5.245679 6.321427
698 0 1 7.983422 4.747678 7.069916
699 0 1 8.496720 4.280831 7.723465
700 0 1 9.279920 3.748948 7.783860
701 0 1 8.869321 3.151258 7.179352
702 0 1 8.491021 2.400521 6.688920
703 0 1 7.755921 3.080670 6.545685
704 0 1 7.663121 3.683850 7.183228
705 0 1 7.434620 3.306710 8.069473
706 0 1 6.911023 4.025868 8.457977
707 0 1 7.616120 4.598859 8.500732
708 0 1 7.014920 4.710050 9.248291
709 0 1 7.212822 4.035329 9.878677
710 0 1 8.119821 3.934701 9.486313
711 0 1 9.115121 3.791509 9.317688
712 0 1 9.101422 4.428308 10.027496
713 0 1 9.565419 4.177278 10.807999
714 0 1 9.559220 4.469567 11.724792
715 0 1 10.278623 3.842340 11.849503
716 0 1 10.995622 4.484811 11.871094
717 0 1 11.388120 4.349099 12.719803
718 0 1 12.318421 4.225541 12.595398
719 0 1 12.555322 3.294148 12.741104
720 0 1 12.932221 3.404191 11.868103
721 0 1 13.752122 3.296899 12.363098
722 0 1 14.290921 2.859719 13.107895
723 0 1 14.299024 2.028878 12.602905
724 0 1 14.713422 1.656178 13.421295
725 0 1 13.912522 1.138089 13.436905
726 0 1 12.982121 0.926009 13.341095
727 0 1 12.710324 1.807370 13.409500
728 0 1 12.497624 2.010419 12.463303
729 0 1 11.520322 1.884038 12.495193
730 0 1 11.127122 1.049409 12.111694
731 0 1 11.355519 0.151864 11.727097
732 0 1 11.332021 -0.182712 10.854401
733 0 1 11.461522 -0.808127 10.106995
734 0 1 11.785123 0.121268 9.843048
735 0 1 11.815621 -0.198506 8.910370
736 0 1 12.785024 -0.128726 8.859207
737 0 1 13.666322 -0.620780 8.951660
738 0 1 13.597821 -1.344678 9.565445
739 0 1 13.899922 -2.158771 9.312714
740 0 1 14.330724 -2.731141 9.933411
741 0 1 14.995721 -2.306220 9.357468
742 0 1 15.610219 -3.028581 9.307892
743 0 1 15.367223 -3.962630 8.965103
744 0 1 14.699922 -3.744311 8.403656
745 0 1 15.147023 -3.914001 7.530106
746 0 1 14.440923 -4.611331 7.822678
747 0 1 14.363221 -5.369090 7.174988
748 0 1 13.719621 -5.918780 7.608826
749 0 1 13.774621 -5.871041 8.591324
750 0 1 14.305722 -6.673760 8.152328
751 0 1 14.941220 -7.211511 7.664093
752 0 1 14.740521 -8.164681 7.551972
753 0 1 14.221322 -8.955390 7.383225
754 0 1 13.414319 -9.497382 7.350068
755 0 1 12.850621 -10.299262 7.103806
756 0 1 13.585820 -10.867221 6.957856
757 0 1 13.881322 -10.271951 6.297257
758 0 1 14.182019 -9.382001 6.395752
759 0 1 15.006024 -9.702701 6.283738
760 0 1 15.630521 -9.017011 5.951066
761 0 1 16.507923 -8.624949 6.088044
762 0 1 17.387623 -8.392800 6.211457
763 0 1 17.402321 -8.458350 5.162430
764 0 1 17.103519 -7.847091 4.435166
765 0 1 17.540218 -7.475110 3.662766
766 0 1 17.263321 -7.286132 2.749924
767 0 1 16.308819 -7.310550 3.028580
768 0 1 16.350918 -7.550271 2.126801
769 0 1 15.887822 -6.775111 1.738922
770 0 1 16.353222 -6.058951 1.248932
771 0 1 16.890320 -6.776160 1.727844
772 0 1 16.731419 -7.233331 0.925980
773 0 1 16.287922 -6.568900 0.439865
774 0 1 16.580521 -5.800200 -0.049850
775 0 1 15.689721 -5.998881 -0.342346
776 0 1 16.110420 -6.478841 -1.023773
777 0 1 15.379720 -7.066281 -0.905685
778 0 1 15.538022 -8.029460 -1.109680
779 0 1 15.207021 -8.720420 -0.579666
780 0 1 15.757222 -9.412271 -0.833206
781 0 1 15.046323 -9.952291 -0.465759
782 0 1 14.961122 -9.674891 0.516190
783 0 1 15.069623 -9.850081 1.446533
784 0 1 14.472421 -10.383842 1.971817
785 0 1 14.398622 -10.154590 2.861344
786 0 1 14.699922 -11.095622 2.872544
787 0 1 14.587819 -11.579021 3.672959
788 0 1 14.953023 -10.980121 4.319184
789 0 1 14.122022 -10.850322 4.820343
790 0 1 13.858922 -9.963071 4.654511
791 0 1 13.270921 -10.444110 4.063706
792 0 1 12.413922 -10.779820 3.657395
793 0 1 12.925622 -10.914222 2.837036
794 0 1 13.102921 -10.379100 2.020203
795 0 1 12.362821 -9.792960 2.030579
796 0 1 12.779622 -9.621511 1.188629
797 0 1 13.648221 -9.499209 0.861328
798 0 1 13.394124 -8.736720 1.479233
799 0 1 13.525922 -7.797301 1.320786
800 0 1 13.197522 -6.935620 1.583145
801 0 1 13.714322 -6.098420 1.520920
802 0 1 12.879422 -5.925170 1.169754