LAMMPS data file via MDAnalysis

        2000  atoms
        1999  bonds
           0  angles
           0  dihedrals
           0  impropers

           1  atom types
           1  bond types
           0  angle types
           0  dihedral types
           0  improper types

-30.5 30.5 xlo xhi
-30.5 30.5 ylo yhi
-233.5 233.5 zlo zhi


Masses

1 1.000000

Atoms

1 0 1 -2.324945 -22.154900 37.193207
2 0 1 -1.886352 -21.814199 36.423187
3 0 1 -2.691995 -21.347099 36.186798
4 0 1 -3.135951 -20.856098 35.425995
5 0 1 -3.523650 -20.449299 36.242493
6 0 1 -3.242481 -20.727200 37.048584
7 0 1 -3.889671 -21.389299 37.084808
8 0 1 -4.804142 -21.134499 37.011200
9 0 1 -4.625572 -20.306599 37.536102
10 0 1 -4.070100 -19.630999 38.030792
11 0 1 -4.930980 -19.204599 37.905884
12 0 1 -5.712791 -18.671799 37.896790
13 0 1 -6.591871 -18.402498 37.762512
14 0 1 -6.257051 -17.627899 37.299713
15 0 1 -5.680221 -17.875698 36.649811
16 0 1 -5.707201 -17.169098 35.975800
17 0 1 -4.822221 -16.784199 35.725800
18 0 1 -4.970130 -16.318298 36.489594
19 0 1 -4.278030 -15.768000 36.798798
20 0 1 -3.572360 -15.145199 36.997101
21 0 1 -4.242111 -14.800599 37.572296
22 0 1 -4.303251 -14.516699 38.442108
23 0 1 -4.276861 -13.784399 39.142792
24 0 1 -3.315671 -13.778099 39.025085
25 0 1 -2.887950 -12.941700 38.889893
26 0 1 -3.040981 -12.235100 39.488892
27 0 1 -2.756431 -12.410698 40.427185
28 0 1 -1.799672 -12.258499 40.224701
29 0 1 -0.814950 -12.024700 40.185486
30 0 1 -0.140670 -12.061298 39.440399
31 0 1 -0.280700 -12.454800 38.545807
32 0 1 0.257191 -13.197399 38.145996
33 0 1 0.238820 -13.680298 37.336090
34 0 1 0.225709 -14.365299 38.012604
35 0 1 0.879490 -14.115699 38.687012
36 0 1 1.374570 -13.384598 39.134491
37 0 1 1.227410 -13.494598 40.036407
38 0 1 0.954560 -13.732998 40.910797
39 0 1 0.206048 -14.067598 41.408997
40 0 1 0.878567 -14.563398 41.751495
41 0 1 0.425809 -15.230799 41.091797
42 0 1 -0.509330 -15.032498 41.364685
43 0 1 -0.954700 -15.921000 41.393402
44 0 1 -0.607221 -16.798298 41.092804
45 0 1 -0.192592 -17.253399 41.828094
46 0 1 -1.041772 -17.004898 42.360901
47 0 1 -1.587907 -17.048998 41.662292
48 0 1 -2.249551 -16.325298 41.875183
49 0 1 -2.841741 -16.924698 41.337311
50 0 1 -3.282661 -17.790298 41.562195
51 0 1 -2.565234 -18.408199 41.861816
52 0 1 -1.635942 -18.459198 41.756104
53 0 1 -1.559331 -18.013498 42.579407
54 0 1 -2.209054 -18.161299 43.324890
55 0 1 -2.769090 -17.363499 43.341614
56 0 1 -2.485694 -17.562298 44.224701
57 0 1 -2.118226 -16.692200 44.506104
58 0 1 -1.856422 -15.798998 44.536011
59 0 1 -2.816280 -15.785398 44.586914
60 0 1 -2.515201 -14.794799 44.260193
61 0 1 -2.319154 -13.859600 44.207489
62 0 1 -2.428714 -13.887897 45.133209
63 0 1 -2.471702 -12.890999 44.944214
64 0 1 -3.242521 -13.429998 44.609711
65 0 1 -4.137840 -12.909798 44.581604
66 0 1 -4.714691 -12.109699 44.717987
67 0 1 -4.182750 -11.959799 43.900604
68 0 1 -3.654191 -11.373999 43.312897
69 0 1 -3.479781 -10.548599 42.842804
70 0 1 -3.917001 -9.787899 42.386505
71 0 1 -4.349922 -8.995779 42.622101
72 0 1 -4.942840 -8.249340 42.620300
73 0 1 -4.770931 -7.344089 42.327698
74 0 1 -5.743421 -7.261379 42.169708
75 0 1 -5.381891 -6.633928 41.583496
76 0 1 -5.529291 -6.313589 40.736084
77 0 1 -5.312610 -6.741638 39.824188
78 0 1 -6.116241 -7.006448 39.413788
79 0 1 -6.038951 -7.984027 39.372314
80 0 1 -5.928550 -8.922499 39.111816
81 0 1 -6.397090 -9.315689 38.444000
82 0 1 -7.229702 -8.741209 38.634399
83 0 1 -6.858331 -8.140739 37.988892
84 0 1 -6.489530 -7.897958 37.096588
85 0 1 -6.917110 -8.200089 36.299103
86 0 1 -7.618400 -8.519718 35.730804
87 0 1 -7.950950 -8.144249 34.961395
88 0 1 -7.128591 -7.740228 34.785095
89 0 1 -7.720151 -7.077178 34.388184
90 0 1 -7.531171 -6.227418 33.898895
91 0 1 -7.586801 -5.284099 34.067291
92 0 1 -8.400130 -5.527679 34.448303
93 0 1 -7.802902 -5.907989 35.087494
94 0 1 -7.074361 -6.546468 35.350891
95 0 1 -6.271430 -6.947319 35.046600
96 0 1 -5.865661 -5.969699 35.184204
97 0 1 -5.037090 -6.436708 35.050201
98 0 1 -4.502632 -6.114278 35.781311
99 0 1 -3.687520 -6.312877 35.291809
100 0 1 -3.844520 -5.954799 34.376495
101 0 1 -4.175720 -6.579978 33.673096
102 0 1 -4.105402 -6.030008 32.895386
103 0 1 -4.768180 -5.372499 33.094299
104 0 1 -5.500530 -5.840099 32.674011
105 0 1 -5.698902 -6.582428 32.136810
106 0 1 -6.407800 -6.806888 32.755493
107 0 1 -7.091381 -7.373788 32.278595
108 0 1 -8.018840 -7.048868 32.232605
109 0 1 -8.091151 -6.664138 31.386292
110 0 1 -7.542701 -7.369218 31.098816
111 0 1 -7.119920 -6.911678 30.358887
112 0 1 -7.511760 -6.518188 29.572296
113 0 1 -8.147151 -6.249288 28.877014
114 0 1 -8.867770 -6.834728 28.924408
115 0 1 -9.750861 -7.083457 29.361389
116 0 1 -10.360629 -6.773878 30.034088
117 0 1 -11.022450 -7.355949 30.413208
118 0 1 -11.435882 -6.532978 30.830505
119 0 1 -11.186339 -6.991119 31.631805
120 0 1 -11.509501 -6.889118 32.552307
121 0 1 -11.195941 -6.901847 33.561188
122 0 1 -12.023990 -7.504219 33.600403
123 0 1 -12.295489 -7.140268 34.439392
124 0 1 -12.183190 -7.318637 35.401794
125 0 1 -11.651450 -8.044788 35.194000
126 0 1 -10.761300 -7.763130 35.426605
127 0 1 -10.135011 -7.140678 35.714813
128 0 1 -9.540431 -6.774478 35.057709
129 0 1 -8.784020 -6.432088 35.565704
130 0 1 -9.004621 -5.526588 35.241913
131 0 1 -9.167701 -4.627359 34.835907
132 0 1 -9.476359 -3.918678 35.433289
133 0 1 -8.869340 -3.351038 35.964996
134 0 1 -9.602550 -2.732448 35.827911
135 0 1 -10.583789 -2.610288 35.767700
136 0 1 -10.510249 -1.615509 35.678101
137 0 1 -11.167470 -1.324897 34.967407
138 0 1 -11.576400 -0.604719 34.566803
139 0 1 -11.261451 -0.856628 33.695404
140 0 1 -12.214490 -1.038698 33.718292
141 0 1 -12.991691 -0.809309 33.213593
142 0 1 -12.625190 -0.588218 32.382812
143 0 1 -12.237590 0.286675 32.480499
144 0 1 -11.726291 0.035996 31.686401
145 0 1 -12.401990 -0.147878 31.006897
146 0 1 -12.954089 -0.826019 30.643799
147 0 1 -12.815190 -1.627138 31.208008
148 0 1 -13.630790 -1.617458 31.753906
149 0 1 -14.373490 -1.893089 32.285004
150 0 1 -14.994290 -1.488618 31.718689
151 0 1 -15.055690 -0.556949 31.985199
152 0 1 -15.345691 0.302645 31.765411
153 0 1 -16.005890 -0.121767 31.143494
154 0 1 -16.693892 -0.770048 31.284393
155 0 1 -17.627691 -0.443506 31.199005
156 0 1 -18.603191 -0.258895 30.824585
157 0 1 -19.442390 -0.218566 31.378784
158 0 1 -20.137392 -0.210176 30.701202
159 0 1 -20.961891 0.055939 31.051514
160 0 1 -21.989191 0.280070 31.081512
161 0 1 -22.927292 0.293869 30.877991
162 0 1 -22.566891 -0.198791 30.148712
163 0 1 -22.798491 -0.585069 29.299194
164 0 1 -22.760391 -1.147899 28.473511
165 0 1 -22.393991 -0.402029 28.005402
166 0 1 -22.274292 0.594510 27.867310
167 0 1 -22.008291 1.547381 27.914795
168 0 1 -21.832191 1.248942 27.031891
169 0 1 -21.921692 1.112683 26.091888
170 0 1 -22.300192 1.109341 25.190887
171 0 1 -22.543791 0.770255 24.372803
172 0 1 -21.850290 0.484356 23.776306
173 0 1 -21.711191 0.053160 22.940613
174 0 1 -22.039091 -0.203447 22.033600
175 0 1 -22.894091 0.177639 22.389404
176 0 1 -22.989792 -0.571989 21.715698
177 0 1 -22.861492 -1.493959 21.357697
178 0 1 -22.870392 -1.153488 20.467102
179 0 1 -21.914291 -1.146629 20.281403
180 0 1 -21.327091 -0.405181 20.314606
181 0 1 -21.888792 0.200554 20.770294
182 0 1 -21.117691 -0.053125 21.280701
183 0 1 -20.320890 -0.322677 21.734894
184 0 1 -20.829592 -0.471809 22.535492
185 0 1 -21.119192 -1.373258 22.349792
186 0 1 -21.953892 -1.495119 22.863800
187 0 1 -22.135891 -1.630538 23.818695
188 0 1 -22.019091 -2.161579 24.629395
189 0 1 -21.267992 -1.557739 24.781799
190 0 1 -20.506592 -2.022598 24.577606
191 0 1 -19.575592 -2.187418 24.900604
192 0 1 -19.210392 -1.564558 24.310608
193 0 1 -18.314692 -1.904329 24.695801
194 0 1 -17.815891 -2.586858 25.195587
195 0 1 -17.257191 -2.781318 25.912201
196 0 1 -17.703392 -3.422878 26.505402
197 0 1 -17.631891 -4.054439 25.740692
198 0 1 -18.335791 -4.562259 25.335388
199 0 1 -19.005091 -4.868139 24.743805
200 0 1 -19.166391 -5.723819 24.649689
201 0 1 -19.222792 -6.539049 25.172699
202 0 1 -19.749290 -6.573179 24.326294
203 0 1 -19.177092 -6.140338 23.651306
204 0 1 -18.963892 -5.833499 22.753906
205 0 1 -18.038292 -5.879438 22.447601
206 0 1 -18.045992 -6.830669 22.188095
207 0 1 -18.510391 -7.741069 22.378799
208 0 1 -19.376192 -8.100868 22.445999
209 0 1 -20.054192 -7.699810 21.845596
210 0 1 -19.376192 -7.083957 21.903107
211 0 1 -19.125792 -6.670719 21.107498
212 0 1 -19.788391 -7.293758 20.783600
213 0 1 -19.320692 -7.568698 19.880295
214 0 1 -18.340292 -7.329978 19.703995
215 0 1 -18.045891 -7.859230 18.929703
216 0 1 -17.074690 -7.854457 18.611099
217 0 1 -17.654491 -8.536228 18.314301
218 0 1 -18.484991 -9.069769 18.270294
219 0 1 -19.027691 -9.778799 18.689392
220 0 1 -19.322392 -9.792000 17.788605
221 0 1 -18.726292 -10.385300 17.231003
222 0 1 -19.209190 -10.846798 17.862701
223 0 1 -18.874392 -11.803299 18.101700
224 0 1 -18.546892 -12.640099 17.821899
225 0 1 -19.114891 -12.384499 17.169006
226 0 1 -19.521191 -12.102699 16.371902
227 0 1 -18.719191 -11.807098 16.022705
228 0 1 -18.651291 -11.522799 15.086304
229 0 1 -19.048092 -11.313398 14.235794
230 0 1 -19.394892 -12.141300 14.658295
231 0 1 -19.537392 -12.699898 13.862106
232 0 1 -20.481791 -12.565498 13.875504
233 0 1 -20.792591 -11.712700 14.283707
234 0 1 -21.470692 -11.501299 14.937698
235 0 1 -21.958191 -12.231998 14.461899
236 0 1 -22.707991 -11.704899 14.221100
237 0 1 -22.965292 -11.290398 15.073593
238 0 1 -23.549292 -10.500898 15.336304
239 0 1 -24.493292 -10.513498 15.372299
240 0 1 -24.484192 -9.598598 15.692398
241 0 1 -24.137892 -8.931458 16.311798
242 0 1 -24.842291 -8.614609 17.002106
243 0 1 -25.704290 -8.186859 16.800705
244 0 1 -26.339991 -8.289028 17.588593
245 0 1 -27.230291 -8.016338 17.789093
246 0 1 -26.580292 -8.100758 18.501602
247 0 1 -26.487791 -7.835659 19.408600
248 0 1 -27.307791 -7.499069 19.606705
249 0 1 -27.498291 -6.692428 19.125397
250 0 1 -26.583691 -6.719388 19.503906
251 0 1 -25.886791 -6.559928 20.094101
252 0 1 -25.130291 -6.279487 19.506897
253 0 1 -24.305292 -5.937587 19.112595
254 0 1 -23.905291 -5.166978 18.687698
255 0 1 -23.377192 -5.232658 17.858994
256 0 1 -22.612991 -5.244079 17.265305
257 0 1 -22.893291 -4.688688 16.463806
258 0 1 -22.778091 -4.959129 15.563705
259 0 1 -22.736292 -4.064319 15.335693
260 0 1 -22.997591 -3.311029 15.968994
261 0 1 -23.262590 -2.375238 15.874893
262 0 1 -22.385191 -2.087577 16.156204
263 0 1 -22.082392 -1.983438 17.056595
264 0 1 -21.961990 -1.048608 17.101501
265 0 1 -21.378592 -0.430252 16.647797
266 0 1 -21.044392 -0.727859 15.820206
267 0 1 -21.316792 -1.374628 15.168503
268 0 1 -21.909891 -2.140459 15.189392
269 0 1 -21.688591 -2.262329 14.148300
270 0 1 -22.060791 -2.907859 13.555405
271 0 1 -22.460691 -3.783668 13.246994
272 0 1 -22.698992 -4.615379 13.651001
273 0 1 -23.032591 -5.307178 14.196304
274 0 1 -22.600092 -6.027858 13.724304
275 0 1 -21.905991 -6.541889 13.316895
276 0 1 -20.959291 -6.431869 12.924194
277 0 1 -20.123791 -6.126918 12.698196
278 0 1 -19.990891 -7.065229 12.611404
279 0 1 -19.130991 -6.912668 13.041992
280 0 1 -19.116692 -7.786277 12.595200
281 0 1 -18.425091 -8.441439 12.491394
282 0 1 -18.325691 -7.959449 13.322403
283 0 1 -18.424292 -7.701118 14.289307
284 0 1 -18.447392 -7.044048 14.957596
285 0 1 -18.475891 -6.528549 15.787292
286 0 1 -19.370291 -6.865549 16.126801
287 0 1 -19.197491 -7.691478 15.786407
288 0 1 -18.683691 -8.492928 15.910202
289 0 1 -19.182491 -9.203197 16.156601
290 0 1 -19.310791 -9.532299 15.275696
291 0 1 -18.511992 -9.653099 14.828201
292 0 1 -17.597092 -9.544598 15.056000
293 0 1 -16.676991 -9.708698 15.250702
294 0 1 -17.095091 -9.542398 16.083694
295 0 1 -17.486191 -10.466099 16.171600
296 0 1 -17.108591 -10.513699 17.085602
297 0 1 -16.213291 -10.703800 17.275299
298 0 1 -16.111290 -11.359499 16.641403
299 0 1 -15.583591 -12.132298 16.913300
300 0 1 -14.686490 -11.873898 16.755402
301 0 1 -14.548289 -11.037800 16.340805
302 0 1 -13.722390 -11.324699 16.669006
303 0 1 -13.211089 -10.592999 17.124298
304 0 1 -14.046491 -10.187099 17.233505
305 0 1 -14.580590 -9.821899 17.959396
306 0 1 -14.092690 -10.572998 18.305496
307 0 1 -14.297990 -11.269699 18.996597
308 0 1 -14.365489 -11.399599 19.955994
309 0 1 -14.729190 -12.329597 19.944595
310 0 1 -13.948291 -12.252499 20.493607
311 0 1 -13.296390 -12.743799 20.950897
312 0 1 -12.870292 -13.297100 21.528305
313 0 1 -12.973790 -14.076199 22.121002
314 0 1 -13.806790 -14.225199 21.637497
315 0 1 -14.364089 -14.627998 20.902405
316 0 1 -14.978190 -13.911900 21.066803
317 0 1 -15.488589 -13.525497 21.822403
318 0 1 -15.891791 -14.333999 21.939697
319 0 1 -16.347891 -13.579498 22.472992
320 0 1 -16.829891 -12.766499 22.759796
321 0 1 -17.449492 -13.317099 23.239288
322 0 1 -17.442791 -12.972898 24.090393
323 0 1 -17.647091 -12.257599 24.754395
324 0 1 -16.808590 -12.630898 25.180603
325 0 1 -16.077190 -12.064598 25.167511
326 0 1 -15.543189 -12.497398 25.778595
327 0 1 -15.123191 -11.921799 26.411316
328 0 1 -14.181392 -12.058800 26.151886
329 0 1 -13.925891 -12.446699 25.218506
330 0 1 -13.076491 -12.740999 25.720306
331 0 1 -13.293391 -12.841299 26.657104
332 0 1 -13.036290 -11.897999 26.539886
333 0 1 -12.680591 -11.132799 26.985901
334 0 1 -12.145591 -10.329597 26.983398
335 0 1 -12.330390 -10.023499 26.082397
336 0 1 -11.956889 -9.279829 26.595398
337 0 1 -11.102330 -9.648098 26.740814
338 0 1 -11.179580 -9.788898 27.707703
339 0 1 -10.710250 -10.646399 27.551086
340 0 1 -9.800010 -10.744900 27.741211
341 0 1 -9.225890 -10.723000 27.022186
342 0 1 -9.676620 -10.644199 26.188110
343 0 1 -9.404410 -11.544699 25.901703
344 0 1 -8.902181 -12.353699 25.616913
345 0 1 -8.571610 -13.080299 26.059296
346 0 1 -7.891101 -13.806799 25.834290
347 0 1 -6.964681 -13.945698 25.334412
348 0 1 -7.013740 -13.175198 24.821198
349 0 1 -7.149301 -12.432899 24.169403
350 0 1 -7.422531 -12.733898 23.289093
351 0 1 -7.369941 -13.492298 22.692993
352 0 1 -6.573541 -13.767498 23.129700
353 0 1 -6.334831 -13.199499 22.395096
354 0 1 -6.601881 -12.286798 22.678711
355 0 1 -5.611791 -12.443298 22.842712
356 0 1 -4.955810 -12.407799 22.122696
357 0 1 -4.718761 -13.160698 21.572205
358 0 1 -5.343431 -12.622700 21.060501
359 0 1 -5.703750 -13.175798 20.425003
360 0 1 -4.994211 -13.675198 20.070404
361 0 1 -4.432701 -14.440099 20.486206
362 0 1 -4.777771 -15.297298 20.673798
363 0 1 -3.761600 -15.241899 20.544998
364 0 1 -3.503270 -14.720999 21.317902
365 0 1 -2.822200 -14.972798 20.613403
366 0 1 -2.628906 -13.980199 20.330200
367 0 1 -3.204700 -13.263599 20.037003
368 0 1 -2.786441 -13.010599 19.156403
369 0 1 -1.952926 -13.256498 19.510696
370 0 1 -1.385908 -13.675400 18.860596
371 0 1 -1.606353 -12.787498 18.513092
372 0 1 -1.870942 -12.795399 17.610992
373 0 1 -1.331287 -12.010399 17.619003
374 0 1 -0.412660 -11.917698 17.294708
375 0 1 0.143990 -12.037598 18.123901
376 0 1 0.508938 -11.593199 17.223099
377 0 1 0.858819 -11.145798 16.407806
378 0 1 0.955041 -12.042799 16.040009
379 0 1 1.760850 -11.578800 16.238007
380 0 1 2.757409 -11.565399 16.017105
381 0 1 3.203629 -11.771500 16.840607
382 0 1 4.169518 -11.544699 16.814392
383 0 1 4.367840 -11.004099 17.513397
384 0 1 5.215470 -11.332798 17.268097
385 0 1 5.642758 -10.839499 16.583603
386 0 1 6.297059 -11.417198 16.948105
387 0 1 5.900990 -12.277699 16.791199
388 0 1 6.151570 -13.218199 16.451508
389 0 1 6.286900 -13.312199 15.500000
390 0 1 6.884037 -14.064299 15.326904
391 0 1 7.423108 -14.698099 15.806000
392 0 1 6.758049 -15.093999 15.234299
393 0 1 6.686841 -15.932798 14.794205
394 0 1 7.659009 -16.073099 14.876007
395 0 1 7.693699 -17.007999 15.017395
396 0 1 7.514561 -17.719698 15.609406
397 0 1 8.141728 -18.040400 16.276703
398 0 1 8.186570 -18.393599 17.226105
399 0 1 7.589749 -18.707399 17.900208
400 0 1 7.033680 -19.039099 18.701599
401 0 1 6.629757 -18.148499 18.593704
402 0 1 5.735039 -17.768999 18.619705
403 0 1 6.538498 -17.189299 19.099701
404 0 1 6.995869 -17.106298 19.965897
405 0 1 7.760880 -17.251900 20.503693
406 0 1 8.405110 -16.870098 19.854996
407 0 1 8.263112 -15.893700 19.611694
408 0 1 9.254910 -16.192398 19.468292
409 0 1 9.970212 -15.790400 19.806000
410 0 1 10.454709 -16.316599 20.426498
411 0 1 10.205709 -17.038599 20.958206
412 0 1 9.275609 -17.156199 20.837097
413 0 1 9.093110 -16.668999 21.647598
414 0 1 8.886010 -15.959799 22.374496
415 0 1 8.360311 -16.003498 23.144897
416 0 1 7.777710 -16.369799 22.508606
417 0 1 6.933400 -16.932499 22.698090
418 0 1 6.982899 -17.273699 23.575104
419 0 1 6.037899 -16.945999 23.490112
420 0 1 5.204308 -17.501999 23.453491
421 0 1 5.702908 -17.797098 22.696503
422 0 1 5.474968 -18.013699 21.801102
423 0 1 6.483449 -18.179499 21.898102
424 0 1 7.075150 -18.978798 22.172104
425 0 1 7.946198 -18.668098 21.818298
426 0 1 8.685811 -19.238400 21.629608
427 0 1 9.069009 -19.841499 22.251099
428 0 1 8.478711 -20.324398 22.827911
429 0 1 8.616311 -19.810898 23.593811
430 0 1 9.383111 -20.365198 23.817291
431 0 1 10.110009 -20.123499 24.403687
432 0 1 10.692410 -19.446098 24.776306
433 0 1 11.288312 -18.893799 25.254791
434 0 1 11.128209 -18.648899 26.199707
435 0 1 11.422208 -18.660299 27.108002
436 0 1 11.244111 -19.189899 27.940399
437 0 1 11.629010 -20.087799 27.996216
438 0 1 11.164109 -19.887400 28.851990
439 0 1 10.448911 -20.080799 29.607910
440 0 1 9.585111 -20.503799 29.525909
441 0 1 10.263711 -21.055498 30.021698
442 0 1 10.746808 -21.871599 29.934113
443 0 1 9.981412 -22.421499 29.532715
444 0 1 9.193707 -22.046398 28.983398
445 0 1 8.554311 -22.719799 28.577606
446 0 1 8.713208 -22.011299 27.920593
447 0 1 8.993508 -21.298800 27.375000
448 0 1 9.914109 -21.114899 27.316101
449 0 1 9.565412 -21.517199 26.480713
450 0 1 9.478509 -22.433298 26.690887
451 0 1 8.514909 -22.770100 26.771210
452 0 1 7.812367 -22.458899 26.188110
453 0 1 7.115029 -21.874098 26.213593
454 0 1 6.718968 -21.735199 27.097412
455 0 1 6.089570 -21.819399 26.352112
456 0 1 5.969479 -21.675200 25.330811
457 0 1 5.438340 -20.896399 25.233215
458 0 1 5.640000 -20.221998 24.492493
459 0 1 4.900441 -19.876999 25.021088
460 0 1 4.597798 -18.951399 25.069489
461 0 1 3.807721 -18.447498 24.791016
462 0 1 4.138508 -17.824598 24.008392
463 0 1 4.757069 -17.560999 24.691010
464 0 1 5.571377 -17.157898 24.928406
465 0 1 6.101307 -17.439499 25.656006
466 0 1 5.819401 -17.833698 26.522705
467 0 1 6.462929 -17.080500 26.551086
468 0 1 6.724507 -16.426899 25.873596
469 0 1 7.526089 -17.043699 25.933899
470 0 1 7.714741 -17.998899 25.942108
471 0 1 8.048932 -17.722498 25.057190
472 0 1 8.572709 -16.909599 25.175812
473 0 1 9.207211 -17.082199 24.514496
474 0 1 9.798009 -17.027399 25.259399
475 0 1 10.377511 -16.673800 24.513489
476 0 1 10.899911 -16.030998 24.083405
477 0 1 11.843011 -16.357998 23.825500
478 0 1 12.033010 -16.626099 24.768188
479 0 1 12.918309 -16.288898 25.066803
480 0 1 13.702909 -16.337198 24.529205
481 0 1 13.804910 -16.054399 23.620209
482 0 1 14.381009 -16.203098 22.887207
483 0 1 14.579007 -16.967199 22.291992
484 0 1 14.453610 -17.322899 21.408508
485 0 1 14.884110 -18.125898 21.829300
486 0 1 15.115712 -17.771198 22.664490
487 0 1 15.152310 -17.416199 23.589294
488 0 1 15.796811 -16.871199 24.048706
489 0 1 15.661511 -15.947899 24.409302
490 0 1 16.053707 -15.199099 24.841705
491 0 1 15.309911 -14.633698 24.574585
492 0 1 15.616712 -13.749298 24.725494
493 0 1 16.558506 -13.620598 24.552704
494 0 1 17.119511 -13.805298 23.821106
495 0 1 17.523411 -14.522999 23.504211
496 0 1 17.386509 -15.437399 23.198212
497 0 1 18.343109 -15.448499 23.168793
498 0 1 19.198109 -15.194098 22.692810
499 0 1 19.255409 -14.298099 22.883606
500 0 1 18.550709 -13.919800 22.387299
501 0 1 18.707211 -13.048599 22.067703
502 0 1 18.728008 -13.405300 21.165009
503 0 1 19.287708 -14.211799 21.297394
504 0 1 18.683708 -14.469298 20.626007
505 0 1 18.620007 -14.316998 19.704697
506 0 1 17.627407 -14.336799 19.703400
507 0 1 17.471310 -13.469398 19.356094
508 0 1 17.358009 -12.674198 18.775299
509 0 1 16.738911 -13.064699 18.162796
510 0 1 16.386211 -13.684198 17.506302
511 0 1 16.118809 -12.926098 17.022491
512 0 1 15.345311 -13.427599 16.732208
513 0 1 14.408410 -13.659899 17.062698
514 0 1 14.726308 -14.609199 17.238007
515 0 1 14.176309 -14.758499 16.471207
516 0 1 13.564809 -14.488699 17.178696
517 0 1 12.699510 -14.496799 16.571503
518 0 1 13.054410 -15.331499 16.222702
519 0 1 13.224912 -15.826498 15.466797
520 0 1 13.615911 -16.684898 15.321701
521 0 1 13.332108 -17.573198 15.025208
522 0 1 13.132211 -18.222599 15.638199
523 0 1 12.316411 -17.790499 15.591904
524 0 1 12.045609 -18.534599 15.059097
525 0 1 12.633210 -18.325899 14.306107
526 0 1 13.128011 -18.621998 13.495499
527 0 1 13.995008 -18.532099 13.806900
528 0 1 14.232308 -17.598999 13.813904
529 0 1 14.747910 -17.571798 12.968506
530 0 1 15.217111 -17.990499 12.295105
531 0 1 14.724111 -18.853998 12.371796
532 0 1 14.171109 -19.623899 12.076508
533 0 1 13.814408 -20.434999 12.475296
534 0 1 12.954808 -20.712299 12.899506
535 0 1 12.023110 -20.581598 12.835800
536 0 1 11.347909 -20.507299 12.104401
537 0 1 10.844110 -20.230099 11.374802
538 0 1 10.849210 -19.702198 10.579803
539 0 1 10.536511 -18.868698 10.104202
540 0 1 10.930112 -18.009199 9.949463
541 0 1 11.544011 -18.319698 9.298187
542 0 1 12.408811 -18.710299 9.590408
543 0 1 12.940309 -19.431999 9.270645
544 0 1 12.640710 -18.699799 8.624695
545 0 1 12.814210 -17.794899 8.121307
546 0 1 11.914411 -17.897499 7.960526
547 0 1 12.073308 -18.363098 7.163025
548 0 1 11.754609 -17.551600 6.639343
549 0 1 12.125310 -16.731798 6.299057
550 0 1 12.659009 -15.948599 6.367325
551 0 1 12.627210 -15.897499 7.341904
552 0 1 12.755208 -14.921399 7.250015
553 0 1 13.501409 -15.273799 6.773697
554 0 1 14.242612 -15.713900 6.295227
555 0 1 15.099813 -15.719799 5.850296
556 0 1 14.708009 -16.602200 5.661530
557 0 1 15.135007 -17.449499 5.785828
558 0 1 14.679009 -18.242899 5.895767
559 0 1 14.035710 -17.558699 5.751495
560 0 1 13.183511 -17.926498 5.784592
561 0 1 13.319909 -17.612000 4.874664
562 0 1 14.190907 -17.905899 4.712631
563 0 1 14.849813 -17.380098 4.246674
564 0 1 15.847508 -17.259998 4.291733
565 0 1 16.488911 -16.944300 5.000320
566 0 1 16.496109 -16.016899 4.943253
567 0 1 17.425007 -16.033298 4.678925
568 0 1 17.585911 -15.657499 5.573425
569 0 1 17.459911 -14.912299 4.976837
570 0 1 17.735310 -14.405699 5.743271
571 0 1 17.260311 -13.877899 5.078674
572 0 1 17.126408 -13.017300 5.478943
573 0 1 18.067806 -12.725399 5.210068
574 0 1 18.887108 -13.177998 4.875183
575 0 1 18.997707 -12.262600 4.866638
576 0 1 19.900311 -12.647499 5.126495
577 0 1 19.888309 -11.675999 4.943787
578 0 1 19.657608 -10.894999 4.371735
579 0 1 19.373409 -10.466099 5.210907
580 0 1 18.526112 -10.096199 5.511337
581 0 1 17.929409 -10.589298 6.085831
582 0 1 18.324810 -10.903399 6.880447
583 0 1 18.953609 -10.364998 7.377823
584 0 1 18.319607 -9.738400 6.877563
585 0 1 18.691807 -9.069168 6.233749
586 0 1 19.269306 -8.487808 5.750687
587 0 1 18.901112 -7.704118 6.132065
588 0 1 19.662510 -7.037248 6.235184
589 0 1 20.230808 -6.236179 6.248428
590 0 1 21.165211 -6.527809 6.236877
591 0 1 21.342709 -6.422309 7.131470
592 0 1 22.358807 -6.407228 7.278839
593 0 1 21.928509 -7.289358 7.212006
594 0 1 21.376110 -8.138479 7.257202
595 0 1 20.394711 -8.212208 7.216629
596 0 1 19.632408 -8.816750 7.174576
597 0 1 19.736111 -9.007587 8.120377
598 0 1 19.330807 -8.171679 8.526382
599 0 1 19.404209 -7.482898 9.350708
600 0 1 19.281910 -7.581287 10.282806
601 0 1 20.101608 -7.075418 10.328003
602 0 1 20.515808 -7.791019 9.740585
603 0 1 20.984009 -8.457100 9.253204
604 0 1 21.449409 -7.634517 9.100906
605 0 1 21.949909 -7.267448 8.363800
606 0 1 22.483509 -6.437738 8.524460
607 0 1 22.548611 -5.409488 8.348282
608 0 1 23.445507 -5.582328 8.431076
609 0 1 24.055508 -5.865528 9.152527
610 0 1 24.380909 -6.459688 9.837082
611 0 1 24.048309 -7.323488 10.000397
612 0 1 23.765911 -7.160718 10.956894
613 0 1 23.766506 -7.870880 11.555496
614 0 1 23.445507 -8.094330 12.440002
615 0 1 23.331009 -8.929829 12.888092
616 0 1 23.773708 -8.807858 13.676498
617 0 1 23.377506 -8.769978 14.572296
618 0 1 23.331108 -8.237480 15.354401
619 0 1 22.667809 -8.520519 16.096008
620 0 1 23.327709 -8.241409 16.702896
621 0 1 23.507809 -9.209759 16.927399
622 0 1 22.752209 -8.994669 17.493500
623 0 1 22.656712 -9.892300 17.213303
624 0 1 21.767509 -10.153297 17.676498
625 0 1 21.931011 -10.241499 18.621201
626 0 1 21.373409 -11.018200 18.428406
627 0 1 20.651310 -10.927299 19.040894
628 0 1 19.746807 -10.533998 19.170807
629 0 1 19.402607 -10.153799 19.965302
630 0 1 18.585911 -10.309898 20.413406
631 0 1 18.536709 -11.222298 20.139999
632 0 1 17.797909 -11.436398 20.721695
633 0 1 17.549007 -11.107399 19.846497
634 0 1 17.187309 -10.394999 19.275894
635 0 1 17.092308 -9.510698 19.697693
636 0 1 16.332809 -8.986568 19.800201
637 0 1 15.510411 -9.233028 20.208099
638 0 1 15.535909 -8.305519 19.929199
639 0 1 14.754010 -7.777168 19.775604
640 0 1 15.297612 -7.252758 20.344498
641 0 1 14.631310 -6.601848 20.406097
642 0 1 14.377912 -7.510269 20.670395
643 0 1 14.316808 -6.763448 21.360596
644 0 1 13.774610 -6.156518 20.887604
645 0 1 12.810208 -6.230979 20.646896
646 0 1 12.224011 -6.165239 21.379303
647 0 1 11.782010 -7.004709 21.652298
648 0 1 10.865209 -7.133647 21.343597
649 0 1 10.646108 -6.423948 20.667496
650 0 1 10.871808 -6.171428 19.749298
651 0 1 11.820210 -6.296018 19.644196
652 0 1 12.544709 -6.275817 19.030304
653 0 1 13.353410 -5.830898 18.748306
654 0 1 14.321507 -5.997999 19.001892
655 0 1 14.734212 -5.541498 18.259506
656 0 1 14.881108 -4.633379 17.987198
657 0 1 14.531308 -5.033378 17.193405
658 0 1 13.899110 -5.013137 17.880600
659 0 1 13.554608 -4.606609 17.076401
660 0 1 13.171910 -3.978599 16.462296
661 0 1 12.855809 -3.834808 17.358505
662 0 1 12.095910 -3.602468 17.935699
663 0 1 11.262410 -3.722278 17.441193
664 0 1 10.812409 -3.079479 17.989594
665 0 1 10.680009 -2.182138 18.326004
666 0 1 11.004209 -2.169338 17.422806
667 0 1 10.284410 -1.566179 17.434402
668 0 1 9.433408 -1.716329 17.873703
669 0 1 8.812108 -2.343898 18.158401
670 0 1 8.675710 -3.235898 17.939194
671 0 1 8.272939 -4.128139 18.327896
672 0 1 7.916790 -3.305999 18.769897
673 0 1 7.088818 -3.026298 19.234299
674 0 1 7.662617 -3.560539 19.878403
675 0 1 7.042950 -4.175228 20.348999
676 0 1 6.419880 -4.671329 19.731094
677 0 1 5.946320 -4.950408 18.978302
678 0 1 5.416070 -4.146709 18.721893
679 0 1 4.732899 -4.765909 18.972794
680 0 1 4.661370 -5.321319 19.872604
681 0 1 4.178570 -5.892257 20.425201
682 0 1 3.785661 -5.070968 20.602692
683 0 1 2.953252 -5.174669 20.102402
684 0 1 3.082371 -5.766548 19.277802
685 0 1 2.746548 -6.453088 18.526901
686 0 1 2.919408 -6.452938 17.593903
687 0 1 3.888280 -6.604408 17.510406
688 0 1 4.257031 -5.741119 17.723999
689 0 1 3.320569 -5.424697 17.798996
690 0 1 2.365887 -5.564458 17.661896
691 0 1 1.656800 -5.374378 18.252594
692 0 1 2.271149 -4.673599 18.518295
693 0 1 1.869549 -4.276718 19.367905
694 0 1 1.120068 -4.469078 19.883194
695 0 1 1.179471 -5.184589 20.474503
696 0 1 1.356518 -5.225769 21.370392
697 0 1 0.741040 -5.071958 22.104599
698 0 1 0.853669 -5.170879 23.049805
699 0 1 1.752679 -5.126758 23.409607
700 0 1 1.533448 -4.436708 22.820587
701 0 1 1.458058 -3.584268 23.177704
702 0 1 2.031670 -2.940448 23.598297
703 0 1 2.773759 -2.928209 22.914398
704 0 1 3.583890 -2.460018 22.781189
705 0 1 3.651688 -3.193439 22.138596
706 0 1 4.432908 -3.146638 21.491501
707 0 1 5.325200 -3.384649 21.621902
708 0 1 5.010331 -3.949838 22.252197
709 0 1 5.949879 -3.704547 22.459808
710 0 1 5.726799 -3.613769 23.403412
711 0 1 6.666378 -3.392568 23.688599
712 0 1 6.975628 -3.874788 24.476105
713 0 1 7.471951 -4.041648 23.569885
714 0 1 8.188428 -4.519569 24.003510
715 0 1 8.174130 -3.634069 24.357086
716 0 1 8.832910 -2.943788 24.481903
717 0 1 8.819310 -2.842498 23.560486
718 0 1 8.028371 -2.490379 23.199188
719 0 1 7.938672 -1.706228 23.760498
720 0 1 7.930531 -0.825328 23.443695
721 0 1 8.878011 -0.548278 23.433014
722 0 1 9.355008 -0.267717 24.217102
723 0 1 9.025010 -0.258338 25.089813
724 0 1 8.544408 -0.208889 25.919312
725 0 1 7.599888 -0.361368 25.964203
726 0 1 7.768620 -1.290788 26.022797
727 0 1 6.918160 -1.550437 25.649811
728 0 1 6.517899 -2.478809 25.638214
729 0 1 6.195679 -3.386188 25.782288
730 0 1 5.978608 -3.786409 26.607605
731 0 1 6.436100 -4.669858 26.719513
732 0 1 7.335042 -4.345628 26.758484
733 0 1 7.585957 -4.696968 27.572113
734 0 1 8.372609 -4.988908 28.070709
735 0 1 9.237809 -5.261318 28.454590
736 0 1 9.421010 -4.445388 27.947510
737 0 1 9.060010 -3.659229 27.478516
738 0 1 8.813008 -3.070928 28.233887
739 0 1 8.188458 -2.682449 27.515594
740 0 1 8.464910 -2.074779 26.892914
741 0 1 9.193608 -2.201658 26.265015
742 0 1 9.782811 -2.858339 26.602600
743 0 1 10.561311 -2.382818 26.731689
744 0 1 10.317208 -1.822938 27.458801
745 0 1 10.524610 -1.100898 28.043488
746 0 1 10.193009 -0.128465 27.978302
747 0 1 9.844411 -0.126167 27.092804
748 0 1 9.248212 0.594412 27.092407
749 0 1 9.508710 0.750842 27.965393
750 0 1 9.204412 0.242928 28.724213
751 0 1 9.563611 -0.477668 29.319397
752 0 1 9.540009 0.103268 30.078888
753 0 1 10.218709 0.766905 30.302612
754 0 1 11.151708 0.719021 30.495697
755 0 1 11.291711 1.097146 31.333893
756 0 1 10.458211 1.404088 30.915710
757 0 1 10.034810 2.211201 30.545715
758 0 1 9.419709 1.844801 29.944794
759 0 1 8.632710 1.690793 30.509613
760 0 1 7.768189 1.347210 30.704010
761 0 1 7.523919 2.132973 31.334808
762 0 1 7.185509 2.870430 31.809692
763 0 1 6.547310 3.106423 31.169586
764 0 1 5.946190 3.567513 31.803101
765 0 1 5.597767 3.520092 30.945801
766 0 1 4.649041 3.612992 31.034912
767 0 1 3.872201 3.148770 31.279510
768 0 1 3.768140 2.702103 30.466003
769 0 1 4.687359 2.343853 30.471008
770 0 1 5.099598 1.483183 30.281097
771 0 1 4.915528 0.737280 30.880096
772 0 1 4.091378 0.266768 31.263214
773 0 1 4.877148 -0.254446 31.218994
774 0 1 5.545331 -0.602869 30.536987