LAMMPS data file via MDAnalysis

        2000  atoms
        1999  bonds
           0  angles
           0  dihedrals
           0  impropers

           1  atom types
           1  bond types
           0  angle types
           0  dihedral types
           0  improper types

-30.5 30.5 xlo xhi
-30.5 30.5 ylo yhi
-233.5 233.5 zlo zhi


Masses

1 1.000000

Atoms

1 0 1 -29.508516 3.128790 49.930695
2 0 1 -28.498318 3.120447 49.821106
3 0 1 -27.561417 2.912829 50.120483
4 0 1 -26.617517 3.155310 50.285797
5 0 1 -25.767117 3.170920 50.724396
6 0 1 -26.408817 3.498499 51.317108
7 0 1 -26.204018 4.113410 51.997009
8 0 1 -26.038816 4.888670 52.524902
9 0 1 -25.838717 4.709910 53.407990
10 0 1 -25.885317 4.847437 54.350891
11 0 1 -25.307817 4.077097 54.268188
12 0 1 -24.740917 4.877711 54.025391
13 0 1 -24.779516 5.746447 54.633301
14 0 1 -25.557217 6.102278 54.236206
15 0 1 -25.697617 6.905730 53.713593
16 0 1 -25.074316 7.619929 54.068695
17 0 1 -25.079317 7.024928 54.799805
18 0 1 -25.182417 7.369528 55.695709
19 0 1 -25.873318 8.006029 55.580505
20 0 1 -25.676416 8.862028 55.383087
21 0 1 -25.035816 8.704630 56.040192
22 0 1 -24.441317 8.346228 56.715912
23 0 1 -24.036016 9.107229 56.249298
24 0 1 -23.343718 8.681429 55.761993
25 0 1 -22.735416 8.359629 56.401611
26 0 1 -21.840017 8.428431 56.476990
27 0 1 -21.765017 8.803926 55.619904
28 0 1 -22.223816 8.596430 54.822296
29 0 1 -22.892616 8.580530 54.075409
30 0 1 -22.915617 8.011129 53.305603
31 0 1 -22.328917 7.337729 52.849487
32 0 1 -22.360518 6.676028 53.489899
33 0 1 -21.435617 6.416930 53.513794
34 0 1 -20.801117 6.978327 53.024506
35 0 1 -20.422117 6.239230 52.516693
36 0 1 -20.509417 7.028128 51.921387
37 0 1 -19.743017 7.483431 52.171692
38 0 1 -19.451616 7.321230 51.227203
39 0 1 -19.977818 8.097830 51.164001
40 0 1 -20.411016 7.466631 50.547394
41 0 1 -21.032618 7.787329 49.928711
42 0 1 -20.223717 8.320726 49.913513
43 0 1 -19.345417 8.447927 50.342407
44 0 1 -19.184416 8.440229 49.341095
45 0 1 -18.363516 7.818930 49.318604
46 0 1 -18.347616 6.919131 49.706787
47 0 1 -17.697317 7.030928 48.978790
48 0 1 -17.068817 7.552130 48.469604
49 0 1 -16.273117 8.060530 48.292999
50 0 1 -17.037018 8.252329 47.742706
51 0 1 -16.886917 8.353727 46.726196
52 0 1 -16.323116 9.095327 46.521606
53 0 1 -16.729618 8.662428 45.741913
54 0 1 -16.364517 9.266527 45.139801
55 0 1 -15.477717 9.482027 45.436798
56 0 1 -14.610217 9.206926 45.822601
57 0 1 -14.613318 10.189528 46.036194
58 0 1 -13.976317 9.699228 46.587799
59 0 1 -12.999717 9.476030 46.421387
60 0 1 -12.153918 9.844728 46.324493
61 0 1 -11.714217 9.288427 45.682709
62 0 1 -10.843997 8.822729 45.760895
63 0 1 -10.240458 8.758429 45.008911
64 0 1 -11.054547 8.839327 44.415009
65 0 1 -10.601378 9.589628 44.097290
66 0 1 -11.037688 10.421228 43.851013
67 0 1 -11.812617 9.920130 43.723694
68 0 1 -12.508918 10.413729 43.284912
69 0 1 -13.330916 10.811129 43.473694
70 0 1 -13.120418 10.684828 42.518402
71 0 1 -13.982118 10.509127 42.028595
72 0 1 -13.425717 10.068727 41.407196
73 0 1 -13.392118 9.313028 41.939606
74 0 1 -12.568519 8.743929 42.130402
75 0 1 -11.862319 9.400629 41.794891
76 0 1 -10.886727 8.991426 41.892609
77 0 1 -10.358447 8.905928 42.684601
78 0 1 -10.082507 9.698130 43.125397
79 0 1 -9.179528 9.777330 43.418884
80 0 1 -8.745378 8.952730 43.459198
81 0 1 -8.037337 8.382330 43.187012
82 0 1 -8.406247 8.052530 43.994385
83 0 1 -8.289989 8.405928 44.906189
84 0 1 -7.879607 9.247129 44.867493
85 0 1 -8.385358 9.999826 44.733398
86 0 1 -8.301658 10.876528 44.363708
87 0 1 -7.975808 10.948427 43.464691
88 0 1 -7.237208 11.062529 44.041595
89 0 1 -6.794478 11.694628 44.603607
90 0 1 -6.130257 12.350428 44.564392
91 0 1 -5.544787 11.610331 44.310608
92 0 1 -5.615218 11.208929 45.169495
93 0 1 -5.477057 11.741426 45.959503
94 0 1 -5.661887 10.811029 46.262390
95 0 1 -6.479247 10.300928 46.244904
96 0 1 -6.304938 9.412329 46.528198
97 0 1 -5.973177 9.224131 45.639404
98 0 1 -5.365988 8.682428 46.202606
99 0 1 -5.153868 8.022730 45.487000
100 0 1 -4.966177 7.042830 45.311005
101 0 1 -5.911238 6.910227 45.480194
102 0 1 -6.665577 6.311129 45.238892
103 0 1 -6.472767 5.553580 44.623688
104 0 1 -5.959748 6.017439 44.011810
105 0 1 -5.238457 5.440897 43.667114
106 0 1 -4.565978 4.852408 43.406494
107 0 1 -4.067347 5.203700 44.184509
108 0 1 -3.406928 5.308077 43.500092
109 0 1 -2.804068 4.816420 42.904297
110 0 1 -1.841324 4.835650 43.158386
111 0 1 -1.913764 4.215228 43.883087
112 0 1 -2.363688 3.486109 44.372894
113 0 1 -2.491238 2.595797 44.703796
114 0 1 -1.795148 1.958079 44.286011
115 0 1 -1.703656 2.799490 43.756592
116 0 1 -1.529069 3.053587 42.891205
117 0 1 -0.640614 3.416407 42.621002
118 0 1 0.156772 3.910219 42.858704
119 0 1 0.579961 3.120318 42.568604
120 0 1 0.344522 2.565329 41.799194
121 0 1 1.268392 2.864661 41.924713
122 0 1 1.447542 3.760428 42.204010
123 0 1 1.828782 3.950880 43.134796
124 0 1 1.494424 3.098490 43.300903
125 0 1 2.430254 2.967921 43.595215
126 0 1 3.318494 3.189490 43.455811
127 0 1 3.416463 3.380640 42.526093
128 0 1 4.007623 3.822607 43.119385
129 0 1 4.692323 4.032080 43.709717
130 0 1 4.429254 4.698031 44.388702
131 0 1 3.936815 3.870398 44.719208
132 0 1 3.935411 4.360068 45.474396
133 0 1 4.608682 3.761278 45.795502
134 0 1 5.507543 3.415087 45.934601
135 0 1 6.455385 3.550497 45.635406
136 0 1 7.394353 3.599230 45.803009
137 0 1 7.811933 4.036280 45.072906
138 0 1 8.132092 4.426531 45.908600
139 0 1 8.603124 3.697020 46.299591
140 0 1 8.912881 4.408789 46.889893
141 0 1 8.697202 5.280848 47.361511
142 0 1 9.067883 4.891009 48.160004
143 0 1 8.695432 5.063731 49.017303
144 0 1 8.224153 5.528349 49.777100
145 0 1 8.878083 6.025187 49.334991
146 0 1 8.474671 6.666728 49.898712
147 0 1 7.663881 6.341731 50.344604
148 0 1 7.182382 5.466330 50.430603
149 0 1 6.383424 4.903101 50.372711
150 0 1 5.903352 5.715209 50.602417
151 0 1 6.306653 6.539130 51.025909
152 0 1 5.963811 7.238928 50.363098
153 0 1 5.660341 8.121428 50.512909
154 0 1 5.616731 7.578429 51.317291
155 0 1 6.344545 7.150229 51.865784
156 0 1 6.892313 7.514727 52.556305
157 0 1 7.442293 7.002429 51.929016
158 0 1 7.427392 6.620928 52.836304
159 0 1 7.158662 6.910227 53.823486
160 0 1 7.791852 7.435530 54.328308
161 0 1 7.900712 6.621531 54.825500
162 0 1 8.726144 6.165930 55.087006
163 0 1 9.544881 6.650927 54.893707
164 0 1 10.224584 6.282629 55.484497
165 0 1 10.985982 6.554827 54.835388
166 0 1 11.308282 5.646960 54.959503
167 0 1 11.708081 4.761591 54.738708
168 0 1 12.482282 4.888178 54.105286
169 0 1 13.097680 5.506869 54.459503
170 0 1 14.012780 5.550768 54.032593
171 0 1 14.012982 5.705138 54.985901
172 0 1 13.969281 6.621230 54.596313
173 0 1 13.887883 7.432230 55.122894
174 0 1 13.959981 8.325129 55.392517
175 0 1 14.837983 7.923731 55.340393
176 0 1 15.458982 8.578127 55.076202
177 0 1 15.380784 9.199728 55.846710
178 0 1 15.537683 9.544130 56.851807
179 0 1 14.667283 9.778330 56.569611
180 0 1 14.012780 9.298731 56.043610
181 0 1 13.314981 9.747629 55.693695
182 0 1 12.883584 10.548128 55.346405
183 0 1 12.060182 11.025129 55.104401
184 0 1 11.966283 11.285830 54.212891
185 0 1 12.108384 11.943430 53.483307
186 0 1 12.862882 12.276728 53.021912
187 0 1 13.609284 12.742731 53.254791
188 0 1 14.093282 12.807428 54.076996
189 0 1 13.414384 12.943926 54.822205
190 0 1 14.096082 13.445528 55.246216
191 0 1 14.517884 12.789728 55.803894
192 0 1 14.436982 13.671526 56.231201
193 0 1 13.863084 13.225729 56.919403
194 0 1 14.360883 12.765230 57.547394
195 0 1 14.767083 12.460230 58.389191
196 0 1 15.051282 12.856226 59.252686
197 0 1 14.258382 13.298929 59.523499
198 0 1 13.492482 13.660028 59.096710
199 0 1 13.579484 14.054628 60.001801
200 0 1 13.302583 13.269129 60.430908
201 0 1 13.211782 12.432829 60.849396
202 0 1 12.260583 12.038530 60.888184
203 0 1 11.509080 12.475428 61.294800
204 0 1 10.696782 12.712931 60.739899
205 0 1 11.244683 13.493731 60.928101
206 0 1 11.923882 14.222826 60.856506
207 0 1 12.255383 13.553129 60.253998
208 0 1 12.494081 12.778528 59.657196
209 0 1 11.899781 12.746328 58.864594
210 0 1 11.981080 11.692926 58.791809
211 0 1 12.328282 10.909430 59.145599
212 0 1 12.697583 9.973829 59.097687
213 0 1 13.521081 10.047831 59.579102
214 0 1 13.378282 9.212130 59.084808
215 0 1 13.573884 8.303431 59.276794
216 0 1 13.757283 7.446730 59.807892
217 0 1 14.024282 6.606230 60.189606
218 0 1 13.098084 6.285529 60.192993
219 0 1 12.349183 6.953429 60.316284
220 0 1 11.999284 6.460330 59.580811
221 0 1 11.288384 6.839728 58.923004
222 0 1 11.423181 7.581927 59.575287
223 0 1 11.008183 7.806128 60.469116
224 0 1 11.698583 8.031229 61.223389
225 0 1 11.752881 8.680830 60.511292
226 0 1 11.084783 9.329126 60.213409
227 0 1 10.952180 8.886629 59.397705
228 0 1 10.098184 9.152826 59.790894
229 0 1 9.469781 8.443331 59.694702
230 0 1 9.241982 8.348230 58.773315
231 0 1 8.269853 8.259329 58.787994
232 0 1 8.118943 7.706229 59.571503
233 0 1 8.810884 7.835131 60.254791
234 0 1 9.070981 6.916228 60.396790
235 0 1 8.802384 6.441428 61.196503
236 0 1 8.911080 5.685698 61.795593
237 0 1 8.879884 4.722750 61.839111
238 0 1 8.395574 4.268748 61.097198
239 0 1 8.005422 3.638201 61.755402
240 0 1 8.706780 3.057738 62.151001
241 0 1 8.905782 3.526839 63.037689
242 0 1 9.637780 3.196448 63.554993
243 0 1 9.393582 2.946898 64.429016
244 0 1 9.730981 2.943487 65.300781
245 0 1 9.254182 3.061789 66.165588
246 0 1 9.431481 4.029719 66.097504
247 0 1 10.377782 4.233809 66.293396
248 0 1 10.663781 3.504450 66.861298
249 0 1 11.299081 2.755129 67.021912
250 0 1 11.036183 3.131129 67.832794
251 0 1 10.220681 3.076239 68.456207
252 0 1 9.655183 2.405218 67.979797
253 0 1 10.187982 1.903818 68.593384
254 0 1 9.825982 0.950850 68.758789
255 0 1 10.540883 0.670977 69.404114
256 0 1 11.269681 -0.001501 69.441010
257 0 1 10.685483 -0.621881 69.773590
258 0 1 10.125581 -0.071012 70.280304
259 0 1 9.412484 0.454710 70.680695
260 0 1 8.494172 0.190840 70.503510
261 0 1 7.769804 -0.385790 70.821716
262 0 1 6.778314 -0.610700 70.618408
263 0 1 6.800233 -1.284921 69.953705
264 0 1 7.375494 -1.747450 69.304108
265 0 1 7.415342 -1.459711 68.334106
266 0 1 7.355340 -0.540441 68.121490
267 0 1 6.431852 -0.361143 68.032898
268 0 1 6.024354 0.003081 68.818909
269 0 1 5.305204 -0.584612 68.561096
270 0 1 5.134702 -0.794733 67.611603
271 0 1 4.545133 -1.181680 66.953613
272 0 1 4.617822 -1.980753 67.496399
273 0 1 4.718652 -2.926615 67.282898
274 0 1 5.316644 -2.926832 68.199310
275 0 1 5.887933 -3.701814 67.816803
276 0 1 5.516984 -4.053461 68.645599
277 0 1 6.325464 -4.404315 69.088104
278 0 1 6.338743 -5.222051 68.475586
279 0 1 6.917451 -5.860981 68.041107
280 0 1 6.265363 -6.540842 68.333710
281 0 1 6.147123 -6.291921 69.248718
282 0 1 5.834733 -6.611871 70.101196
283 0 1 5.847803 -7.182592 70.838104
284 0 1 6.770704 -6.889280 70.748108
285 0 1 7.338521 -6.710062 71.521790
286 0 1 7.991571 -6.060670 71.303894
287 0 1 7.901842 -5.802110 72.225494
288 0 1 7.202135 -5.498590 71.693604
289 0 1 6.408853 -6.028121 71.774109
290 0 1 6.796983 -6.028011 72.629608
291 0 1 7.505723 -6.609630 72.981201
292 0 1 8.346841 -7.135141 72.856812
293 0 1 9.271882 -7.240011 72.616302
294 0 1 9.256982 -7.807031 71.812317
295 0 1 8.822183 -6.968252 71.520813
296 0 1 9.251382 -6.523391 70.765900
297 0 1 10.232984 -6.789621 70.529419
298 0 1 11.195283 -6.516092 70.424103
299 0 1 11.478280 -6.507492 71.369690
300 0 1 12.263284 -7.023031 71.045990
301 0 1 12.593583 -6.271091 71.428711
302 0 1 12.686181 -5.985311 70.429504
303 0 1 13.601781 -6.212001 70.152100
304 0 1 13.083680 -7.008852 69.898102
305 0 1 12.586984 -7.117601 69.098297
306 0 1 11.666581 -6.973011 69.375702
307 0 1 11.274880 -6.099340 69.226593
308 0 1 11.257981 -5.283010 69.752991
309 0 1 11.666184 -4.374557 69.484192
310 0 1 12.456582 -4.042999 69.122803
311 0 1 12.769181 -3.961693 68.243103
312 0 1 12.574380 -4.446498 67.459412
313 0 1 13.168481 -4.734872 66.637207
314 0 1 13.480981 -5.460281 66.121704
315 0 1 12.960282 -6.048641 65.499512
316 0 1 12.750081 -5.367141 64.803711
317 0 1 12.328782 -4.762678 64.116699
318 0 1 12.912084 -5.378431 63.718384
319 0 1 12.919782 -4.914510 62.901184
320 0 1 12.019383 -4.459838 63.130402
321 0 1 11.753682 -5.379621 63.071411
322 0 1 12.465180 -5.791502 62.471802
323 0 1 13.187882 -5.451240 61.905487
324 0 1 12.923383 -5.033321 61.104614
325 0 1 12.220582 -5.196311 60.397583
326 0 1 11.777482 -5.015321 59.533997
327 0 1 11.567983 -5.348691 58.650909
328 0 1 12.296483 -5.727022 58.107788
329 0 1 12.719384 -6.161682 58.890594
330 0 1 13.016282 -7.075370 58.748291
331 0 1 12.347680 -6.917440 58.076508
332 0 1 11.482183 -6.616811 58.171692
333 0 1 10.586183 -6.623130 57.901703
334 0 1 10.372781 -7.436201 57.476593
335 0 1 10.673181 -8.330862 57.010590
336 0 1 10.910584 -8.515451 57.932892
337 0 1 11.275483 -8.290342 58.789795
338 0 1 11.075982 -8.829741 59.500793
339 0 1 11.050080 -8.197752 60.345093
340 0 1 10.114583 -8.300802 60.235291
341 0 1 9.494683 -7.583120 59.989594
342 0 1 9.528184 -7.569091 60.986816
343 0 1 8.603414 -7.504301 61.269714
344 0 1 8.020242 -7.964801 60.580200
345 0 1 7.416303 -8.749620 60.430786
346 0 1 7.596223 -9.415590 59.726501
347 0 1 7.184892 -10.039152 59.056488
348 0 1 7.761423 -10.611481 58.520691
349 0 1 7.247652 -11.267302 58.005188
350 0 1 7.050661 -12.141962 58.429291
351 0 1 6.187433 -12.242212 58.857483
352 0 1 6.613481 -11.711691 59.498291
353 0 1 5.947702 -12.210512 59.899994
354 0 1 4.989114 -12.256872 59.680695
355 0 1 4.551645 -13.131151 59.612610
356 0 1 4.359231 -12.679171 58.821198
357 0 1 3.839254 -11.846882 58.613800
358 0 1 4.800832 -11.787361 58.389008
359 0 1 5.126375 -12.046850 57.497009
360 0 1 5.869173 -12.673700 57.437195
361 0 1 5.752504 -13.615871 57.779388
362 0 1 6.579935 -13.558241 57.341705
363 0 1 7.059423 -13.093401 56.613007
364 0 1 7.451234 -13.676500 56.003601
365 0 1 6.523111 -13.930372 56.219391
366 0 1 6.563123 -14.661572 56.809601
367 0 1 6.473062 -15.530870 57.311493
368 0 1 5.742143 -15.958372 57.836304
369 0 1 5.276563 -15.079472 58.198486
370 0 1 5.013193 -15.621073 58.950287
371 0 1 4.879354 -16.625872 58.866516
372 0 1 4.705781 -17.228971 59.604492
373 0 1 3.828363 -17.559973 59.690704
374 0 1 3.654771 -18.437071 59.222412
375 0 1 3.340112 -17.643671 58.790802
376 0 1 2.782243 -17.031872 59.351807
377 0 1 2.048814 -16.851271 58.796906
378 0 1 1.697664 -17.059370 57.974213
379 0 1 2.265302 -17.674671 57.488708
380 0 1 1.628534 -18.307470 57.933197
381 0 1 1.728204 -19.224171 58.042389
382 0 1 1.480024 -19.180370 59.015808
383 0 1 1.495992 -20.171572 58.906494
384 0 1 1.199674 -20.215771 57.949097
385 0 1 0.497541 -19.581770 58.119507
386 0 1 0.845823 -19.334871 57.251709
387 0 1 0.329801 -18.603170 56.905304
388 0 1 0.191802 -17.685972 57.119812
389 0 1 0.460313 -16.715773 57.131195
390 0 1 0.009462 -16.475370 56.336700
391 0 1 -0.135287 -15.517172 56.401917
392 0 1 -0.775651 -15.317072 55.730896
393 0 1 -0.909918 -15.158670 54.744293
394 0 1 -1.778935 -14.747871 54.991089
395 0 1 -1.491183 -13.872711 54.895203
396 0 1 -1.595273 -13.114552 54.397003
397 0 1 -2.392518 -12.912161 53.870911
398 0 1 -2.678467 -13.317381 53.054596
399 0 1 -2.848317 -12.998322 52.174103
400 0 1 -2.247277 -12.552132 51.577301
401 0 1 -1.371977 -12.937033 52.047913
402 0 1 -1.133219 -12.119991 51.661804
403 0 1 -0.438536 -12.822271 51.671387
404 0 1 -0.295954 -13.095871 50.818787
405 0 1 -0.751666 -13.497431 50.119995
406 0 1 -0.336791 -14.357471 50.382385
407 0 1 0.564252 -14.447271 50.019501
408 0 1 1.167661 -13.680830 50.256500
409 0 1 0.916643 -13.632141 51.218506
410 0 1 0.918134 -14.517870 51.649689
411 0 1 -0.025258 -14.297071 51.612488
412 0 1 0.203002 -13.665892 52.267395
413 0 1 -0.696211 -13.656691 52.708099
414 0 1 -1.675168 -13.577412 52.892090
415 0 1 -2.062590 -14.052073 53.561401
416 0 1 -2.633498 -14.776272 53.535797
417 0 1 -3.088007 -15.542971 53.182800
418 0 1 -3.579007 -15.809973 52.417206
419 0 1 -3.762337 -14.894772 52.151703
420 0 1 -4.469147 -15.262571 51.669189
421 0 1 -4.609257 -14.300571 51.672302
422 0 1 -4.483677 -14.061272 50.735901
423 0 1 -5.136757 -14.128271 49.905487
424 0 1 -6.014777 -14.482870 50.075409
425 0 1 -6.246947 -13.576471 49.956696
426 0 1 -6.400298 -13.507280 48.908997
427 0 1 -7.036137 -14.071371 48.486389
428 0 1 -7.338057 -13.302732 47.952209
429 0 1 -7.425047 -13.431532 47.011902
430 0 1 -7.046778 -12.525131 47.144501
431 0 1 -6.407576 -11.828152 47.496002
432 0 1 -6.915938 -12.271221 48.201904
433 0 1 -7.509728 -12.639061 48.912598
434 0 1 -8.281348 -11.919111 48.928497
435 0 1 -8.844857 -12.648623 49.253510
436 0 1 -8.618537 -13.583662 49.212097
437 0 1 -8.766377 -14.410971 49.653290
438 0 1 -8.567288 -15.252972 50.217804
439 0 1 -8.231458 -15.611971 51.053589
440 0 1 -8.019668 -16.294672 51.760712
441 0 1 -7.778468 -17.083872 51.181610
442 0 1 -7.150008 -17.739971 50.920105
443 0 1 -6.377877 -18.046473 50.549896
444 0 1 -5.384938 -18.131872 50.719696
445 0 1 -5.216307 -17.457472 50.096191
446 0 1 -5.071927 -17.359571 49.159302
447 0 1 -4.120617 -17.710072 49.145111
448 0 1 -4.347548 -18.024172 48.252686
449 0 1 -4.647017 -18.884371 47.949402
450 0 1 -5.329907 -18.245771 48.036896
451 0 1 -5.648797 -17.772272 47.215088
452 0 1 -5.795838 -17.396872 46.368591
453 0 1 -5.378527 -17.294971 45.539917
454 0 1 -4.467837 -17.454472 45.941406
455 0 1 -4.448367 -18.193472 45.399811
456 0 1 -4.770888 -17.840271 44.648987
457 0 1 -4.226967 -17.384972 43.940613
458 0 1 -4.245757 -17.819571 43.059692
459 0 1 -3.731368 -18.655371 42.993896
460 0 1 -3.829487 -19.408571 42.282410
461 0 1 -3.786328 -19.555471 41.365295
462 0 1 -3.861077 -20.478771 41.017609
463 0 1 -4.457398 -20.810072 41.717590
464 0 1 -5.010027 -21.493172 42.013000
465 0 1 -5.060277 -22.387671 41.707703
466 0 1 -4.191018 -22.108072 41.446106
467 0 1 -3.325398 -22.337971 41.178101
468 0 1 -3.403428 -23.012272 40.526398
469 0 1 -3.575228 -22.172371 39.978699
470 0 1 -4.331448 -21.713972 40.388306
471 0 1 -4.799817 -21.292671 39.576294
472 0 1 -5.339327 -20.692471 39.035492
473 0 1 -4.535817 -20.059172 39.239014
474 0 1 -3.855317 -20.331272 38.608490
475 0 1 -3.488337 -19.427370 38.681305
476 0 1 -3.991877 -19.177971 37.867096
477 0 1 -3.561648 -19.873072 37.473389
478 0 1 -3.371468 -19.189772 36.916107
479 0 1 -2.872736 -18.389771 36.574799
480 0 1 -2.957177 -18.129770 35.594299
481 0 1 -2.283577 -18.780371 35.698700
482 0 1 -1.470387 -18.340271 35.414490
483 0 1 -1.572190 -18.377272 34.408691
484 0 1 -2.162604 -17.605772 34.588898
485 0 1 -2.586607 -16.875772 34.064911
486 0 1 -3.232438 -16.361172 34.558197
487 0 1 -3.766467 -16.405870 35.433411
488 0 1 -4.355998 -15.688471 35.335205
489 0 1 -5.113778 -15.855272 34.818390
490 0 1 -4.812216 -16.781471 34.895508
491 0 1 -4.189557 -17.517073 34.775391
492 0 1 -5.121916 -17.791071 34.639709
493 0 1 -4.799927 -17.843472 33.718201
494 0 1 -4.548867 -18.693071 33.491211
495 0 1 -3.683108 -19.107971 33.117798
496 0 1 -3.898697 -19.770771 32.474304
497 0 1 -4.745858 -19.624771 32.799713
498 0 1 -4.867527 -19.794271 31.857910
499 0 1 -5.484217 -19.231771 31.455994
500 0 1 -6.080126 -18.997171 30.589203
501 0 1 -5.663407 -19.024872 29.773987
502 0 1 -6.247437 -18.271372 29.840607
503 0 1 -6.193978 -18.272371 28.903015
504 0 1 -5.723498 -17.413671 28.653290
505 0 1 -5.966547 -17.263872 27.734589
506 0 1 -5.931607 -16.427172 28.278015
507 0 1 -5.277897 -16.451170 27.585297
508 0 1 -4.659367 -17.118872 27.390106
509 0 1 -4.398167 -16.532972 26.650513
510 0 1 -3.867117 -15.827471 27.051300
511 0 1 -4.689387 -15.532770 26.654297
512 0 1 -5.633927 -15.563671 26.788788
513 0 1 -5.692147 -15.564970 25.778290
514 0 1 -5.469927 -14.624271 25.819611
515 0 1 -4.783886 -14.038271 25.580109
516 0 1 -4.540297 -13.370623 26.203094
517 0 1 -5.073708 -12.918131 26.846008
518 0 1 -5.204216 -12.432991 27.615692
519 0 1 -5.639348 -11.614450 27.888794
520 0 1 -4.775076 -11.250021 28.127808
521 0 1 -4.347367 -11.399111 28.965302
522 0 1 -5.140027 -11.002432 29.291199
523 0 1 -6.068738 -11.272081 29.365906
524 0 1 -5.940518 -11.806761 30.112091
525 0 1 -6.657668 -11.343611 30.576111
526 0 1 -6.495108 -10.552240 30.084412
527 0 1 -6.643298 -10.108082 30.937988
528 0 1 -6.032317 -10.393581 31.657990
529 0 1 -5.567587 -11.179722 31.927399
530 0 1 -5.037768 -11.373602 32.732300
531 0 1 -4.227887 -11.102972 32.243103
532 0 1 -3.941737 -10.291990 31.903900
533 0 1 -3.344887 -9.652521 31.408905
534 0 1 -4.005568 -9.167492 31.945892
535 0 1 -4.664446 -8.618311 31.494202
536 0 1 -4.943846 -8.036001 30.818390
537 0 1 -5.191817 -7.182840 30.965210
538 0 1 -4.746857 -6.562021 31.661987
539 0 1 -5.373797 -6.794500 32.300812
540 0 1 -4.717587 -6.244871 32.743408
541 0 1 -4.465786 -5.421051 33.133484
542 0 1 -5.375887 -5.255750 32.898987
543 0 1 -5.787457 -5.934782 33.449890
544 0 1 -6.652977 -6.311830 33.571991
545 0 1 -7.233988 -6.255121 32.722198
546 0 1 -7.357428 -5.660390 31.888611
547 0 1 -7.798998 -4.887950 32.120911
548 0 1 -7.899577 -4.251632 31.439911
549 0 1 -7.568678 -3.582105 30.860291
550 0 1 -6.915637 -4.212276 30.479095
551 0 1 -7.150147 -5.129800 30.450104
552 0 1 -7.045828 -5.868221 29.815491
553 0 1 -6.631117 -6.705110 30.098694
554 0 1 -5.731078 -6.505710 30.266693
555 0 1 -5.314177 -5.655561 30.252197
556 0 1 -5.695967 -5.095191 29.649597
557 0 1 -5.756037 -4.055442 29.569092
558 0 1 -5.376078 -3.258358 29.212006
559 0 1 -5.395266 -3.048088 28.265198
560 0 1 -6.314377 -2.721170 28.275696
561 0 1 -6.903927 -3.119892 27.570190
562 0 1 -7.350438 -3.763042 28.156403
563 0 1 -8.290687 -3.755071 27.797302
564 0 1 -9.085147 -3.911436 28.266388
565 0 1 -9.349116 -4.008899 27.319397
566 0 1 -9.696277 -3.102934 27.049103
567 0 1 -9.518577 -2.509170 27.725006
568 0 1 -9.621669 -2.587850 28.721588
569 0 1 -9.447087 -1.773302 29.131195
570 0 1 -8.660258 -1.881582 29.699493
571 0 1 -8.176618 -1.685861 30.501709
572 0 1 -7.428137 -2.230150 30.163696
573 0 1 -7.309588 -1.656999 30.964813
574 0 1 -6.996157 -0.736112 31.124695
575 0 1 -6.242667 -0.120992 30.926910
576 0 1 -5.310797 -0.182871 30.869385
577 0 1 -4.989398 -0.330381 29.947906
578 0 1 -5.047637 -0.251962 28.914093
579 0 1 -4.707087 0.556960 29.167908
580 0 1 -5.449257 1.101057 29.060913
581 0 1 -6.268866 1.554709 28.746887
582 0 1 -6.878607 2.228728 28.878784
583 0 1 -7.236428 1.859518 29.680511
584 0 1 -8.105857 1.395060 30.042908
585 0 1 -9.007857 1.604281 29.889709
586 0 1 -9.001727 2.515890 30.038208
587 0 1 -9.935737 2.524050 29.728394
588 0 1 -10.594707 2.964018 29.147003
589 0 1 -10.508887 2.492239 28.349396
590 0 1 -10.860448 2.223307 27.423584
591 0 1 -11.299518 2.645911 26.622711
592 0 1 -11.803918 1.883231 26.990906
593 0 1 -11.973517 1.883578 26.028412
594 0 1 -10.965598 1.917689 25.868103
595 0 1 -10.985026 1.810458 24.933899
596 0 1 -11.544318 2.013960 24.164093
597 0 1 -11.366317 1.494749 23.362793
598 0 1 -11.860618 2.108099 22.752411
599 0 1 -11.844317 3.016588 22.537201
600 0 1 -12.053119 3.919218 22.064194
601 0 1 -11.802817 4.566607 21.391907
602 0 1 -10.925548 4.638129 20.994202
603 0 1 -10.236587 5.048300 20.389404
604 0 1 -10.482238 5.736948 21.087296
605 0 1 -10.007617 5.372500 21.855499
606 0 1 -9.883819 6.154429 22.363708
607 0 1 -8.951068 6.364729 22.651703
608 0 1 -8.070579 6.514727 22.328903
609 0 1 -7.991087 7.433329 22.089706
610 0 1 -7.437487 7.964728 22.733704
611 0 1 -6.540637 7.772631 23.068695
612 0 1 -6.176297 7.776331 24.009705
613 0 1 -6.896277 7.342127 24.450806
614 0 1 -6.429717 6.521628 24.788391
615 0 1 -7.038857 5.910471 25.179901
616 0 1 -7.149117 4.939059 25.115692
617 0 1 -7.157488 4.941969 24.154297
618 0 1 -6.980027 5.889758 23.922913
619 0 1 -7.082398 5.358778 23.133606
620 0 1 -6.872538 6.279131 22.926208
621 0 1 -6.000247 6.506030 22.638489
622 0 1 -5.283328 5.845618 22.614502
623 0 1 -5.786988 5.396861 23.258209
624 0 1 -5.589388 4.653128 23.897491
625 0 1 -5.286967 5.434969 24.333984
626 0 1 -5.208178 6.198931 24.923096
627 0 1 -4.668868 6.920031 25.017303
628 0 1 -4.021307 7.137331 24.332214
629 0 1 -3.657998 8.046629 24.489014
630 0 1 -2.986407 7.904830 23.819397
631 0 1 -2.457537 7.153727 23.950104
632 0 1 -2.436818 6.220328 23.881195
633 0 1 -3.392867 6.251231 23.607910
634 0 1 -3.938857 6.129328 24.409698
635 0 1 -4.330616 5.599600 25.178101
636 0 1 -3.573748 5.395628 25.770203
637 0 1 -2.683457 5.312178 25.448700
638 0 1 -2.387938 4.309428 25.202911
639 0 1 -2.415238 3.324660 25.397614
640 0 1 -1.861361 3.241579 24.573395
641 0 1 -1.724587 3.032290 23.641785
642 0 1 -1.553454 2.767798 22.724701
643 0 1 -1.849879 3.015219 21.775406
644 0 1 -1.767050 3.959860 22.211395
645 0 1 -0.850283 3.953848 22.008102
646 0 1 -0.194377 4.058859 22.745789
647 0 1 0.537843 4.445887 22.149994
648 0 1 0.924241 3.558409 22.048904
649 0 1 1.556581 2.889677 21.708694
650 0 1 1.899034 2.018667 21.595093
651 0 1 1.899282 1.131461 21.340607
652 0 1 2.008863 1.026629 22.275299
653 0 1 2.568632 0.281309 21.924408
654 0 1 3.190603 0.297327 22.693695
655 0 1 3.953893 -0.025530 22.338898
656 0 1 3.801683 -0.842390 22.814301
657 0 1 3.366693 -1.500501 23.303711
658 0 1 2.407362 -1.296430 23.146912
659 0 1 1.946973 -1.521761 23.974091
660 0 1 1.952321 -2.296312 23.330597
661 0 1 1.745603 -3.190979 23.553192
662 0 1 1.857702 -3.209602 22.578308
663 0 1 2.254983 -2.445822 22.131104
664 0 1 1.868043 -2.657072 21.326904
665 0 1 1.790342 -3.657776 21.270508
666 0 1 2.371171 -4.384323 20.920807
667 0 1 2.023504 -4.062648 20.098801
668 0 1 1.408414 -4.390680 19.410004
669 0 1 1.228914 -3.567039 18.915009
670 0 1 0.488321 -3.079256 18.596802
671 0 1 0.270082 -3.787525 17.981201
672 0 1 0.874231 -4.437809 17.661499
673 0 1 0.495332 -5.154392 17.119904
674 0 1 0.677911 -6.129781 17.094696
675 0 1 1.346483 -6.869861 17.040802
676 0 1 2.225152 -6.837030 16.564301
677 0 1 2.806673 -7.585672 16.681198
678 0 1 3.619073 -7.432971 17.263901
679 0 1 3.114862 -7.828870 18.050095
680 0 1 2.102201 -7.564001 17.974197
681 0 1 1.272561 -7.501661 18.447296
682 0 1 1.131372 -7.533182 19.404404
683 0 1 1.764844 -8.173941 19.728806
684 0 1 2.096014 -9.130972 19.561707
685 0 1 2.047945 -9.592152 18.728607
686 0 1 2.294214 -10.229860 19.378098
687 0 1 2.710721 -10.569891 20.087799
688 0 1 3.309694 -9.903542 20.574097
689 0 1 2.642103 -9.366032 20.988403
690 0 1 1.743123 -9.625191 20.735596
691 0 1 0.944272 -9.069912 20.702393
692 0 1 0.085132 -9.628092 20.544296
693 0 1 -0.794911 -9.329592 20.808395
694 0 1 -1.593989 -9.816011 21.096695
695 0 1 -1.856604 -9.036861 21.626694
696 0 1 -2.608248 -8.342581 21.576202
697 0 1 -3.393828 -7.731481 21.480499
698 0 1 -3.628987 -7.149551 22.236694
699 0 1 -3.463078 -6.455631 21.657104
700 0 1 -4.352526 -6.290521 21.289902
701 0 1 -4.423977 -5.602870 20.653793
702 0 1 -3.826117 -4.860059 20.612396
703 0 1 -3.681357 -4.019617 20.172302
704 0 1 -2.877137 -4.084234 19.741608
705 0 1 -3.159667 -4.767656 19.151199
706 0 1 -3.582926 -4.257694 18.424301
707 0 1 -3.215237 -4.582584 17.563797
708 0 1 -2.966696 -5.474710 17.684998
709 0 1 -3.140257 -6.503391 17.709000
710 0 1 -3.872937 -6.532691 17.129501
711 0 1 -3.617278 -6.017211 16.368301
712 0 1 -2.747458 -5.559251 16.326202
713 0 1 -2.130568 -6.211341 15.992202
714 0 1 -2.089238 -5.344591 15.579604
715 0 1 -1.520896 -4.615709 15.352599
716 0 1 -2.318617 -4.175312 15.089507
717 0 1 -2.181916 -3.233347 15.376204
718 0 1 -1.577515 -3.567487 16.052399
719 0 1 -0.855687 -3.027555 15.841094
720 0 1 -0.072587 -3.088949 15.320800
721 0 1 0.516332 -2.420141 15.109405
722 0 1 1.231504 -1.882352 14.734191
723 0 1 0.639024 -2.151762 14.032393
724 0 1 0.986581 -2.870672 13.523299
725 0 1 1.797223 -3.150379 13.922103
726 0 1 1.945802 -3.663992 13.057601
727 0 1 2.853631 -4.047714 12.793792
728 0 1 3.775564 -4.079746 12.986297
729 0 1 4.309614 -4.688447 12.482802
730 0 1 3.854993 -5.470630 12.190200
731 0 1 4.362024 -5.949541 12.889403
732 0 1 3.450422 -5.827981 13.020202
733 0 1 2.622343 -5.487041 13.472198
734 0 1 3.028184 -5.134271 14.230605
735 0 1 2.559534 -5.613262 14.892501
736 0 1 2.192705 -4.842565 15.429198
737 0 1 2.832155 -4.149648 15.285598
738 0 1 2.678621 -3.568697 14.500197
739 0 1 2.312932 -2.864332 15.065093
740 0 1 2.881395 -2.597360 15.874999
741 0 1 1.990674 -2.174753 15.810699
742 0 1 2.263994 -2.327909 16.795898
743 0 1 2.869394 -2.444511 17.581497
744 0 1 2.800703 -3.346184 17.246094
745 0 1 3.700655 -3.612148 17.332001
746 0 1 3.138643 -4.406385 17.174408
747 0 1 3.049184 -5.205961 16.612198
748 0 1 3.541662 -4.760536 15.867599
749 0 1 4.079374 -4.071195 15.433700
750 0 1 4.077524 -3.231224 15.002196
751 0 1 3.917284 -2.532442 15.582793
752 0 1 4.499952 -1.752000 15.850799
753 0 1 4.090662 -1.588262 14.966994
754 0 1 3.646291 -0.771772 14.725493
755 0 1 3.843973 -0.017702 15.334899
756 0 1 4.666872 -0.607790 14.999099
757 0 1 5.528402 -0.426702 14.532699
758 0 1 6.307642 0.166609 14.545501
759 0 1 6.759374 0.297469 13.663299
760 0 1 7.327234 -0.432531 13.493499
761 0 1 6.408182 -0.753400 13.313994
762 0 1 6.280584 -0.124422 12.448501
763 0 1 6.423913 0.334730 11.592193
764 0 1 6.798254 1.021227 12.175597
765 0 1 6.374383 1.814509 12.544799
766 0 1 6.066392 2.251639 11.748992
767 0 1 6.593313 1.718317 11.059295
768 0 1 7.489812 2.160780 10.974303
769 0 1 8.307900 1.637617 10.964995
770 0 1 8.964280 0.904570 10.955596
771 0 1 8.454732 0.468027 11.609496
772 0 1 8.450402 -0.454401 11.915801
773 0 1 7.866552 -1.208540 11.778396
774 0 1 7.597223 -2.163561 11.540404
775 0 1 6.769121 -1.800413 11.808593
776 0 1 6.825204 -2.790041 11.885100
777 0 1 6.672132 -3.703182 11.971801
778 0 1 7.493032 -4.231481 12.230895
779 0 1 8.436692 -4.344427 12.449798
780 0 1 8.413804 -4.000324 11.542403
781 0 1 8.804582 -4.498107 10.878097
782 0 1 9.668683 -4.621055 10.491393
783 0 1 9.916284 -4.342840 9.607223
784 0 1 10.854684 -4.339153 9.664992
785 0 1 11.418084 -4.652780 10.479903
786 0 1 11.920281 -5.505762 10.695296
787 0 1 11.705682 -6.318681 10.184493
788 0 1 12.416680 -6.296180 9.476943
789 0 1 12.543481 -7.030672 8.910842
790 0 1 12.102681 -7.908000 8.905654