LAMMPS data file via MDAnalysis

        2000  atoms
        1999  bonds
           0  angles
           0  dihedrals
           0  impropers

           1  atom types
           1  bond types
           0  angle types
           0  dihedral types
           0  improper types

-30.5 30.5 xlo xhi
-30.5 30.5 ylo yhi
-233.5 233.5 zlo zhi


Masses

1 1.000000

Atoms

1 0 1 17.699301 9.163087 4.975098
2 0 1 16.758802 9.112985 4.782258
3 0 1 16.821203 9.384484 3.826874
4 0 1 15.900900 9.256886 3.580491
5 0 1 15.032602 9.403588 3.757188
6 0 1 14.685102 9.523385 4.631577
7 0 1 15.194304 10.090188 5.323731
8 0 1 14.806700 10.575189 4.610856
9 0 1 14.673700 11.290486 5.265412
10 0 1 14.208799 12.059785 5.531983
11 0 1 13.620302 12.740487 5.801636
12 0 1 13.340101 12.540486 6.677216
13 0 1 12.920603 12.881085 7.472916
14 0 1 13.105803 12.132386 8.039796
15 0 1 12.094503 12.114388 8.244157
16 0 1 12.703302 12.058087 9.030747
17 0 1 13.256701 11.967187 9.811799
18 0 1 14.152002 12.316987 10.051896
19 0 1 14.781202 12.871385 10.442903
20 0 1 14.160299 13.423585 10.904008
21 0 1 13.739202 14.030084 11.470201
22 0 1 13.045603 14.530885 11.990693
23 0 1 12.580801 15.275987 11.659104
24 0 1 12.231802 15.505288 10.745698
25 0 1 11.501600 14.994386 10.380296
26 0 1 11.866003 15.436585 9.620042
27 0 1 11.421400 16.118187 10.089997
28 0 1 11.560301 17.076885 10.423005
29 0 1 11.898401 17.924988 10.435304
30 0 1 11.534502 18.107685 11.236405
31 0 1 10.779501 17.583786 11.648499
32 0 1 11.077803 17.708485 12.541306
33 0 1 11.328802 16.808388 12.574403
34 0 1 11.714102 16.766186 13.433305
35 0 1 12.377302 16.105686 13.307298
36 0 1 13.299902 16.390785 13.126100
37 0 1 13.130102 16.654186 14.046006
38 0 1 12.463701 17.416687 14.046205
39 0 1 11.677504 17.836685 14.499299
40 0 1 11.018499 18.496685 14.383500
41 0 1 10.115252 18.559288 14.730500
42 0 1 10.075651 17.718185 14.306794
43 0 1 9.847700 17.558083 15.173997
44 0 1 10.269979 16.840485 15.665208
45 0 1 10.899603 16.443283 15.002107
46 0 1 10.786703 15.432588 14.766496
47 0 1 10.070002 14.883786 14.933000
48 0 1 9.804960 14.172986 14.378495
49 0 1 9.273962 13.611085 14.909806
50 0 1 9.768950 12.971086 14.394502
51 0 1 10.343801 12.196786 14.276505
52 0 1 11.118299 12.640084 14.707002
53 0 1 11.372400 12.642785 15.651399
54 0 1 11.699102 13.055284 16.472702
55 0 1 10.989000 13.559686 16.951096
56 0 1 10.114874 13.201886 16.853104
57 0 1 9.532640 13.968686 17.162903
58 0 1 9.257792 14.118684 18.088196
59 0 1 9.342100 14.545686 18.909500
60 0 1 9.125242 14.489785 19.857101
61 0 1 8.578283 14.842687 20.552200
62 0 1 7.774561 15.390985 20.690796
63 0 1 7.881441 15.731088 21.603699
64 0 1 8.075720 16.639984 21.901703
65 0 1 8.298330 16.894684 22.752014
66 0 1 7.983122 17.719284 22.355408
67 0 1 7.187223 18.044186 21.812408
68 0 1 6.741541 17.468887 22.471100
69 0 1 5.721033 17.513687 22.393295
70 0 1 5.815573 16.789886 23.073486
71 0 1 5.887632 15.917985 22.826691
72 0 1 5.791212 15.620187 23.734589
73 0 1 5.506193 14.795987 23.270691
74 0 1 4.912050 14.313886 23.873199
75 0 1 5.549383 14.352189 24.682312
76 0 1 6.246840 14.024186 25.204193
77 0 1 5.900682 13.411485 25.872711
78 0 1 6.294043 12.853486 25.249908
79 0 1 6.211943 11.854287 25.512909
80 0 1 6.246054 11.465188 26.429199
81 0 1 5.384783 11.019185 26.332886
82 0 1 4.598520 11.162187 25.910400
83 0 1 3.916670 11.137185 25.260406
84 0 1 4.420191 11.679185 24.695099
85 0 1 5.091291 12.246686 24.373596
86 0 1 5.168432 13.107285 24.814392
87 0 1 4.155382 12.959085 24.904999
88 0 1 3.843900 12.581285 23.981293
89 0 1 3.218221 13.262788 24.286011
90 0 1 3.525251 14.170686 24.334991
91 0 1 3.077131 14.822686 23.841003
92 0 1 3.559831 15.143785 24.597290
93 0 1 3.586202 16.087486 24.988800
94 0 1 2.802721 16.075287 25.516693
95 0 1 2.599600 15.377488 24.833405
96 0 1 2.253290 14.470086 24.855011
97 0 1 1.635851 13.844987 25.320587
98 0 1 0.712646 14.006288 25.162689
99 0 1 -0.143625 14.358888 25.475403
100 0 1 0.282957 13.949685 26.201599
101 0 1 -0.523140 13.458886 26.280212
102 0 1 -0.863419 14.149484 26.880005
103 0 1 -0.788998 14.548287 27.766693
104 0 1 -1.350559 13.936685 28.122589
105 0 1 -0.723948 13.753285 28.787598
106 0 1 -0.248230 13.921685 29.642700
107 0 1 0.057442 14.614285 30.276001
108 0 1 0.143225 15.576386 30.205200
109 0 1 0.792349 16.140984 30.677490
110 0 1 0.921224 15.494386 31.444794
111 0 1 1.067562 14.571084 31.144409
112 0 1 2.038610 14.580586 31.407898
113 0 1 2.741281 13.985085 31.329102
114 0 1 3.649343 13.627885 31.255188
115 0 1 4.551184 13.184289 31.142609
116 0 1 4.665083 12.856889 30.261597
117 0 1 4.718790 12.069787 30.862793
118 0 1 5.301561 11.908086 31.569092
119 0 1 5.455561 11.189485 32.244507
120 0 1 5.721861 10.441785 31.716400
121 0 1 6.633402 10.233987 31.526794
122 0 1 6.723112 9.841989 32.477600
123 0 1 7.271513 10.551587 32.928497
124 0 1 7.839003 9.764485 32.703796
125 0 1 8.745832 9.931485 32.460602
126 0 1 8.878683 9.270387 33.160492
127 0 1 9.566610 8.568887 33.053894
128 0 1 9.504572 7.951085 32.332886
129 0 1 10.046862 7.905885 31.517487
130 0 1 10.944201 7.612084 31.466095
131 0 1 11.173403 6.682977 31.265503
132 0 1 11.703199 5.858727 31.346008
133 0 1 11.488104 5.020257 31.806885
134 0 1 11.164900 5.734788 32.331696
135 0 1 10.217001 5.837766 32.315704
136 0 1 10.075571 5.609445 33.249084
137 0 1 9.169832 5.718175 33.511108
138 0 1 8.147020 5.644635 33.336212
139 0 1 8.762972 5.360375 32.643616
140 0 1 8.627573 5.770215 31.742889
141 0 1 9.053873 6.664208 31.947906
142 0 1 8.953321 6.470605 30.938995
143 0 1 8.214033 6.985986 30.684204
144 0 1 7.326391 7.076585 31.117706
145 0 1 6.818201 7.601888 31.703003
146 0 1 6.420134 7.846086 30.711700
147 0 1 5.766691 7.968087 31.456207
148 0 1 4.937273 7.860887 30.878601
149 0 1 4.050310 8.247285 31.096985
150 0 1 3.747152 8.039887 32.009216
151 0 1 3.696581 8.121686 32.965607
152 0 1 4.222921 8.298985 33.756500
153 0 1 4.838053 8.349488 34.510406
154 0 1 4.599642 7.849687 35.240692
155 0 1 3.708551 7.833589 35.625610
156 0 1 3.073442 7.851186 36.354187
157 0 1 2.534403 7.255288 35.826904
158 0 1 2.523050 7.794488 35.037689
159 0 1 1.807440 7.936185 34.330017
160 0 1 0.965759 7.624585 34.674988
161 0 1 0.740297 7.448586 33.770203
162 0 1 0.382204 7.651185 32.892395
163 0 1 0.271135 7.845788 31.979309
164 0 1 0.815060 8.596086 31.574585
165 0 1 1.416983 7.903687 31.412109
166 0 1 1.332222 7.757485 30.448090
167 0 1 2.094450 8.215188 30.018707
168 0 1 2.808241 7.516488 29.943390
169 0 1 3.378282 6.781987 30.390411
170 0 1 2.662782 6.892587 30.957611
171 0 1 2.224821 6.482255 30.187012
172 0 1 2.027620 6.754586 29.315704
173 0 1 2.545530 6.286317 28.645508
174 0 1 1.932520 5.529824 28.510101
175 0 1 1.685602 6.280446 27.967407
176 0 1 2.203809 7.079286 27.773407
177 0 1 2.365072 6.518937 26.985901
178 0 1 3.157171 6.054528 27.270111
179 0 1 3.668760 6.853887 27.463104
180 0 1 4.274893 7.257985 26.796814
181 0 1 4.660883 6.683724 26.055786
182 0 1 4.441450 5.761445 26.359192
183 0 1 4.375002 5.033128 25.593994
184 0 1 5.155531 4.552327 25.979187
185 0 1 4.529730 3.916528 25.581299
186 0 1 5.149012 3.603047 24.883606
187 0 1 5.940451 3.413796 25.424286
188 0 1 6.285330 3.384045 26.312500
189 0 1 6.020323 2.671487 26.861786
190 0 1 6.120420 1.843598 27.256989
191 0 1 5.608530 2.156655 27.949799
192 0 1 6.135073 3.025487 27.837402
193 0 1 6.712523 2.631055 28.505707
194 0 1 7.090181 3.155526 29.284790
195 0 1 7.569792 4.042718 29.386292
196 0 1 7.293692 4.648396 30.082794
197 0 1 6.392073 4.431108 30.307190
198 0 1 6.749083 4.089875 31.139709
199 0 1 6.516932 3.305737 31.681396
200 0 1 5.853563 2.816277 32.167389
201 0 1 5.297281 2.875726 32.898010
202 0 1 4.705000 2.964185 32.179413
203 0 1 4.168692 3.545735 31.562103
204 0 1 4.165491 3.798287 30.661804
205 0 1 3.247740 4.153516 30.842407
206 0 1 3.779432 4.654305 31.394501
207 0 1 3.566862 4.450807 32.310394
208 0 1 2.689001 4.576737 31.948608
209 0 1 2.328443 4.805158 31.099701
210 0 1 2.158361 4.489175 30.210602
211 0 1 1.288391 4.879895 30.214508
212 0 1 0.646763 5.613675 30.352600
213 0 1 -0.061068 6.223287 30.236206
214 0 1 -0.780708 5.527707 30.391693
215 0 1 -1.716099 5.719747 30.761597
216 0 1 -2.315588 6.430955 30.609009
217 0 1 -2.661318 5.814107 31.294312
218 0 1 -2.317599 5.872186 32.182800
219 0 1 -1.311918 5.918866 32.428406
220 0 1 -1.917849 6.090455 33.079803
221 0 1 -2.544718 5.919126 33.803009
222 0 1 -2.148758 6.478974 34.478699
223 0 1 -1.792648 6.250985 35.330597
224 0 1 -2.731308 6.581574 35.366089
225 0 1 -2.892508 5.571534 35.347198
226 0 1 -2.120178 5.359529 35.812805
227 0 1 -2.067349 4.951158 34.938599
228 0 1 -2.332909 3.950337 35.021912
229 0 1 -2.468230 4.067864 36.021210
230 0 1 -3.097229 4.690038 36.381805
231 0 1 -2.912989 4.391595 37.342987
232 0 1 -2.134768 4.473657 37.929108
233 0 1 -2.074938 5.186086 37.302887
234 0 1 -2.051609 6.078008 37.692108
235 0 1 -2.960860 6.212144 38.083710
236 0 1 -3.301649 5.349916 38.212097
237 0 1 -4.034498 5.764215 38.583008
238 0 1 -4.699408 5.434815 39.190308
239 0 1 -4.071119 4.700265 39.502991
240 0 1 -4.305368 5.300279 40.213104
241 0 1 -3.350748 5.453046 40.064697
242 0 1 -3.702578 6.387284 39.997314
243 0 1 -3.462168 6.331956 40.902405
244 0 1 -3.762018 5.946168 41.713409
245 0 1 -3.778338 6.251107 42.686310
246 0 1 -3.991848 6.911584 43.405396
247 0 1 -3.922589 7.330789 44.238098
248 0 1 -3.288578 8.012689 43.865906
249 0 1 -3.339918 8.805184 44.365295
250 0 1 -2.569609 8.987084 43.893097
251 0 1 -3.287379 9.616086 43.837189
252 0 1 -2.734558 10.385186 43.781097
253 0 1 -3.535239 10.582688 44.320312
254 0 1 -3.951218 10.243287 43.581390
255 0 1 -4.453808 10.992787 43.970306
256 0 1 -4.111528 11.857785 43.756897
257 0 1 -4.794619 12.255887 43.192291
258 0 1 -5.466539 12.099587 42.487396
259 0 1 -5.302498 11.277688 41.885986
260 0 1 -4.436159 11.246285 41.418610
261 0 1 -4.424839 12.060784 41.920898
262 0 1 -4.411860 12.148889 40.979706
263 0 1 -4.613569 13.066888 40.946808
264 0 1 -5.118128 13.958787 40.801086
265 0 1 -5.619368 13.213784 40.368805
266 0 1 -6.275429 12.592286 40.205017
267 0 1 -7.165169 12.278287 39.966309
268 0 1 -7.237898 11.517488 40.662811
269 0 1 -7.686588 10.923886 41.346008
270 0 1 -7.051809 11.288087 42.018890
271 0 1 -7.579939 10.958287 42.717285
272 0 1 -7.850798 10.082887 42.586914
273 0 1 -7.806038 9.165086 42.811096
274 0 1 -7.932497 8.629685 42.044189
275 0 1 -7.885578 8.063584 42.782104
276 0 1 -8.008009 7.140985 42.824799
277 0 1 -8.133099 6.532826 42.079895
278 0 1 -7.843649 6.170278 41.213898
279 0 1 -7.734438 5.183068 41.433502
280 0 1 -7.153328 5.003915 42.206787
281 0 1 -7.153408 4.032075 42.221313
282 0 1 -7.886648 3.734036 42.760406
283 0 1 -8.633829 4.301885 42.692505
284 0 1 -9.589418 4.067857 42.932312
285 0 1 -9.916199 4.519258 42.124084
286 0 1 -10.145298 4.182336 41.208710
287 0 1 -10.676498 3.423337 40.993195
288 0 1 -10.579498 3.089997 41.904510
289 0 1 -10.051600 3.121167 42.739197
290 0 1 -9.343159 2.630296 42.206116
291 0 1 -8.543749 2.135747 41.966187
292 0 1 -8.606419 1.211537 42.382690
293 0 1 -8.069139 0.376034 42.249512
294 0 1 -7.181738 0.678365 41.942108
295 0 1 -7.065088 -0.031425 42.590607
296 0 1 -6.509317 -0.503474 42.010803
297 0 1 -5.797888 -1.006694 42.574799
298 0 1 -5.857958 -1.932914 42.303497
299 0 1 -5.685968 -2.872113 42.398010
300 0 1 -6.439859 -2.633918 43.021790
301 0 1 -5.807909 -2.925708 43.635315
302 0 1 -5.243328 -3.092927 44.408600
303 0 1 -4.476559 -3.638688 44.277405
304 0 1 -4.148169 -3.326570 45.144196
305 0 1 -4.718069 -2.876479 45.793884
306 0 1 -4.539158 -2.180494 46.461792
307 0 1 -3.916538 -1.789584 47.016785
308 0 1 -4.380919 -2.020734 47.827606
309 0 1 -4.315708 -2.905463 48.197388
310 0 1 -4.792257 -3.317334 47.465698
311 0 1 -5.483978 -3.529596 48.152710
312 0 1 -6.266619 -3.203120 47.792297
313 0 1 -6.272078 -2.513088 48.394989
314 0 1 -5.288368 -2.479617 48.531403
315 0 1 -5.199739 -1.685893 49.076416
316 0 1 -4.319757 -1.587432 49.415283
317 0 1 -3.753178 -1.783214 48.574890
318 0 1 -3.597018 -0.837253 48.557404
319 0 1 -3.197659 -1.054862 49.406006
320 0 1 -2.294699 -1.214134 49.597198
321 0 1 -1.383228 -1.568404 49.817017
322 0 1 -0.645111 -0.907356 49.806610
323 0 1 0.130815 -1.572265 49.711487
324 0 1 0.021940 -2.506837 49.451416
325 0 1 0.834528 -2.943322 49.189789
326 0 1 1.243576 -3.415218 49.933807
327 0 1 1.409752 -3.678838 50.839294
328 0 1 0.984920 -4.575044 50.830994
329 0 1 1.610441 -5.067504 50.136597
330 0 1 1.074554 -5.201993 49.348389
331 0 1 0.743807 -5.768794 50.145294
332 0 1 1.558462 -6.318294 50.020691
333 0 1 2.293562 -6.205903 50.669891
334 0 1 2.502622 -7.096673 50.752106
335 0 1 1.873171 -7.814294 50.707703
336 0 1 1.160807 -7.184875 50.860291
337 0 1 0.552723 -6.792335 50.291809
338 0 1 -0.346855 -6.701524 50.660400
339 0 1 -0.818699 -5.881043 50.680603
340 0 1 -1.258968 -5.237063 50.158813
341 0 1 -1.469378 -4.829904 49.293213
342 0 1 -1.214499 -3.952056 49.116608
343 0 1 -0.496039 -4.033652 48.456116
344 0 1 0.447727 -4.249549 48.467590
345 0 1 1.381721 -4.436624 48.656006
346 0 1 1.664532 -3.541099 48.735107
347 0 1 1.156122 -3.097036 48.012390
348 0 1 0.716455 -3.801048 47.491608
349 0 1 1.602392 -4.017468 47.527710
350 0 1 2.119722 -3.852929 46.778107
351 0 1 2.758642 -4.372874 46.331390
352 0 1 3.492033 -4.952134 46.516907
353 0 1 3.726022 -4.501973 45.723083
354 0 1 4.170843 -3.639529 45.677002
355 0 1 4.562792 -4.282273 45.116089
356 0 1 3.853731 -4.740094 44.743713
357 0 1 3.708551 -5.613803 44.382599
358 0 1 3.789442 -6.287524 45.094299
359 0 1 3.169523 -5.726884 45.519409
360 0 1 2.443323 -5.429713 44.912811
361 0 1 2.394163 -6.352233 44.811584
362 0 1 2.016660 -7.201804 45.130707
363 0 1 1.363741 -6.509204 45.204590
364 0 1 0.555158 -7.042125 45.351105
365 0 1 -0.410637 -7.396663 45.252289
366 0 1 -1.358278 -7.571933 45.228302
367 0 1 -1.321999 -8.496783 45.116699
368 0 1 -1.660599 -9.235934 44.620087
369 0 1 -0.826788 -9.360305 45.089996
370 0 1 -0.741158 -9.583903 44.102600
371 0 1 -0.938398 -8.735763 43.723602
372 0 1 -1.608469 -8.043384 43.724487
373 0 1 -2.465578 -8.548873 43.570496
374 0 1 -3.020128 -7.862264 43.935089
375 0 1 -2.666979 -7.679093 44.814606
376 0 1 -2.510689 -6.872214 45.383698
377 0 1 -2.768109 -6.429254 44.569397
378 0 1 -3.702349 -6.213254 44.894287
379 0 1 -4.062708 -5.672164 44.225708
380 0 1 -4.970758 -5.558463 44.334106
381 0 1 -4.773588 -5.095344 43.565094
382 0 1 -4.152588 -5.050044 42.858490
383 0 1 -4.145258 -5.300454 41.936005
384 0 1 -5.154448 -5.394254 42.051392
385 0 1 -5.301619 -6.083043 41.415009
386 0 1 -5.655178 -5.947053 40.549316
387 0 1 -5.834818 -6.634183 39.864410
388 0 1 -6.692369 -7.084924 39.719299
389 0 1 -7.272669 -6.289584 39.793396
390 0 1 -7.661028 -5.704093 40.515198
391 0 1 -8.526529 -6.080005 40.479004
392 0 1 -8.977728 -5.474183 39.800293
393 0 1 -9.096727 -4.556254 39.946106
394 0 1 -8.450369 -3.803224 39.911804
395 0 1 -9.109087 -3.243083 40.422211
396 0 1 -9.787397 -3.382877 41.097992
397 0 1 -10.062300 -2.609918 40.492706
398 0 1 -10.831900 -2.925132 40.999084
399 0 1 -11.485699 -2.536525 40.384308
400 0 1 -11.745699 -2.348117 41.301910
401 0 1 -12.517797 -2.270074 41.862793
402 0 1 -13.447798 -2.350044 42.212494
403 0 1 -14.270498 -2.456973 41.661987
404 0 1 -13.495699 -2.348489 41.119293
405 0 1 -13.131998 -3.274781 41.161011
406 0 1 -12.914598 -4.178508 41.105988
407 0 1 -11.967699 -4.234597 41.293396
408 0 1 -11.061598 -4.471423 41.318604
409 0 1 -10.297697 -5.019433 40.979614
410 0 1 -10.470798 -5.881354 40.601990
411 0 1 -10.453199 -6.853734 40.654907
412 0 1 -11.251099 -7.053224 40.254791
413 0 1 -12.025999 -7.335433 39.748199
414 0 1 -11.761698 -7.132953 38.858704
415 0 1 -11.636999 -7.629764 38.096893
416 0 1 -12.103699 -7.311204 37.356903
417 0 1 -12.179899 -7.619023 36.461212
418 0 1 -12.370699 -8.118724 35.548401
419 0 1 -12.369299 -7.952313 34.669312
420 0 1 -12.187899 -7.033784 34.371796
421 0 1 -13.114498 -6.819983 34.409088
422 0 1 -12.597998 -6.368854 33.639587
423 0 1 -12.697599 -5.913844 32.859802
424 0 1 -13.451399 -5.320474 32.695892
425 0 1 -14.440898 -5.165244 32.735687
426 0 1 -15.098998 -5.269063 32.070587
427 0 1 -15.292798 -6.089244 31.541199
428 0 1 -14.614598 -6.183734 30.839813
429 0 1 -14.487598 -5.398133 30.174713
430 0 1 -13.535198 -4.979424 30.257507
431 0 1 -13.241400 -5.179223 29.337006
432 0 1 -13.224098 -6.147815 29.632904
433 0 1 -12.553198 -6.050704 28.932190
434 0 1 -12.066898 -5.555594 29.588104
435 0 1 -11.679499 -4.958213 30.269501
436 0 1 -10.780897 -5.105624 29.905609
437 0 1 -10.099699 -4.431144 29.638794
438 0 1 -9.519388 -3.674142 29.516388
439 0 1 -9.941797 -3.701907 30.354095
440 0 1 -10.039099 -3.189645 31.256897
441 0 1 -10.753698 -3.807035 31.017090
442 0 1 -11.336798 -3.049161 31.178009
443 0 1 -11.969198 -2.334893 31.257111
444 0 1 -12.488998 -2.089584 31.943909
445 0 1 -12.193499 -1.210315 31.661804
446 0 1 -11.787098 -0.761073 30.830597
447 0 1 -12.550497 -1.190185 30.422302
448 0 1 -11.872797 -0.922176 29.771698
449 0 1 -11.868498 -1.650886 29.055115
450 0 1 -11.100899 -1.874494 29.654999
451 0 1 -10.738499 -1.324325 28.930603
452 0 1 -10.700598 -1.486633 27.965088
453 0 1 -9.908499 -1.663574 27.450409
454 0 1 -9.417778 -2.223193 26.838104
455 0 1 -10.052599 -2.398053 26.106110
456 0 1 -10.126497 -3.356128 26.287506
457 0 1 -10.080099 -4.354663 26.083984
458 0 1 -9.849598 -5.131484 25.493195
459 0 1 -10.713999 -5.072293 25.082214
460 0 1 -11.394098 -4.835975 24.438904
461 0 1 -11.872797 -4.156465 24.922791
462 0 1 -12.785498 -3.838086 25.044312
463 0 1 -13.577997 -3.449498 25.277405
464 0 1 -14.195398 -3.688197 24.607605
465 0 1 -13.694300 -3.308446 23.833984
466 0 1 -14.253999 -3.233327 23.046509
467 0 1 -13.913399 -2.514562 22.509613
468 0 1 -13.472998 -2.897022 21.770798
469 0 1 -13.003099 -2.334106 21.126999
470 0 1 -12.510099 -2.882083 20.493103
471 0 1 -12.386999 -2.355005 19.638397
472 0 1 -13.171499 -2.629375 19.149292
473 0 1 -13.813398 -2.675748 18.427704
474 0 1 -13.181599 -3.341945 18.270508
475 0 1 -13.862099 -4.076564 18.235504
476 0 1 -13.276499 -4.630263 17.664398
477 0 1 -13.053698 -4.901534 16.801498
478 0 1 -12.883497 -4.387673 16.031906
479 0 1 -13.293200 -4.975984 15.388307
480 0 1 -12.929399 -4.414794 14.665208
481 0 1 -12.666199 -4.491914 13.740006
482 0 1 -13.416998 -4.088449 13.309693
483 0 1 -13.109798 -3.249086 13.594499
484 0 1 -12.291698 -2.849765 13.201798
485 0 1 -12.822498 -2.077234 13.338395
486 0 1 -13.636099 -2.349036 12.895799
487 0 1 -13.593100 -2.240403 11.918000
488 0 1 -14.241399 -1.633373 11.513795
489 0 1 -14.750198 -1.467624 10.646394
490 0 1 -13.997797 -0.839923 10.823808
491 0 1 -13.069399 -1.019233 11.119401
492 0 1 -13.573599 -0.814834 11.962205
493 0 1 -13.713299 -0.069495 12.518495
494 0 1 -13.612099 0.844907 12.896394
495 0 1 -12.691198 1.152714 12.917695
496 0 1 -11.997099 1.487916 12.367097
497 0 1 -11.173899 1.570367 11.868394
498 0 1 -10.838198 1.831807 12.741609
499 0 1 -10.090597 2.357266 12.645402
500 0 1 -9.762798 1.989087 13.433808
501 0 1 -10.297197 1.656525 14.343904
502 0 1 -10.682398 0.799496 14.530000
503 0 1 -11.379797 0.311707 15.007997
504 0 1 -11.465097 -0.548373 14.565202
505 0 1 -12.351398 -0.742954 14.640306
506 0 1 -12.312698 0.190575 14.337708
507 0 1 -12.823500 0.200005 15.189607
508 0 1 -13.435799 0.706486 15.766099
509 0 1 -13.547499 1.603726 15.414399
510 0 1 -13.402597 2.134576 16.178604
511 0 1 -14.406299 1.936208 16.136002
512 0 1 -14.861898 2.728974 15.866303
513 0 1 -14.999799 3.622864 16.215302
514 0 1 -15.740398 3.544724 16.872696
515 0 1 -16.024899 2.832257 17.504303
516 0 1 -15.826097 2.179066 18.149506
517 0 1 -15.003899 2.681817 18.359604
518 0 1 -14.107798 2.656007 18.040298
519 0 1 -14.127098 2.080785 18.890808
520 0 1 -14.681998 1.835458 19.645508
521 0 1 -15.591398 1.640084 19.297195
522 0 1 -15.385698 0.801995 19.662399
523 0 1 -15.821898 -0.048393 19.446304
524 0 1 -16.522198 -0.333152 18.761505
525 0 1 -17.065098 -1.149684 18.648193
526 0 1 -16.419199 -1.143203 17.911301
527 0 1 -16.612499 -1.937675 17.482697
528 0 1 -16.216898 -2.298263 16.664597
529 0 1 -16.471798 -3.140992 16.404404
530 0 1 -15.979698 -3.678878 16.994995
531 0 1 -16.389297 -4.207915 16.230896
532 0 1 -16.292698 -4.031482 15.294099
533 0 1 -16.160398 -3.791114 14.423600
534 0 1 -16.447998 -4.483853 13.815797
535 0 1 -15.618098 -4.709304 14.264298
536 0 1 -15.303899 -5.205174 13.523606
537 0 1 -14.669599 -5.866803 13.675706
538 0 1 -14.531199 -6.430385 14.485108
539 0 1 -13.941599 -6.537284 15.195405
540 0 1 -13.335299 -6.327264 14.468507
541 0 1 -13.381699 -5.776664 13.690400
542 0 1 -12.464098 -5.595513 13.460603
543 0 1 -12.691599 -6.389003 13.033998
544 0 1 -12.164198 -7.132674 12.708497
545 0 1 -12.426199 -7.514524 11.850495
546 0 1 -12.735298 -6.802943 11.272904
547 0 1 -13.169798 -7.009774 10.436097
548 0 1 -13.326498 -6.734103 9.559831
549 0 1 -12.960299 -5.952094 9.082994
550 0 1 -12.575298 -5.364135 8.425935
551 0 1 -13.277998 -5.239583 7.727982
552 0 1 -12.764498 -5.987144 7.554734
553 0 1 -13.683599 -6.297793 7.266205
554 0 1 -14.261298 -5.604213 7.126297
555 0 1 -15.136098 -5.924973 7.027146
556 0 1 -15.642299 -6.657134 6.729752
557 0 1 -16.176798 -6.460605 7.477875
558 0 1 -16.625099 -7.262893 7.615723
559 0 1 -17.396198 -7.208503 8.152085
560 0 1 -18.303799 -7.283164 8.557069
561 0 1 -19.116299 -7.723033 8.914308
562 0 1 -18.973198 -7.304473 9.806855
563 0 1 -18.499498 -8.128993 10.123307
564 0 1 -19.421499 -8.265134 9.936769
565 0 1 -19.898998 -8.809333 9.283280
566 0 1 -19.935799 -8.553153 8.387223
567 0 1 -20.347399 -9.332704 8.082963
568 0 1 -20.816298 -10.107383 7.794449
569 0 1 -21.707397 -9.671554 7.667664
570 0 1 -22.405798 -10.476724 7.683274
571 0 1 -22.502998 -10.113263 8.554276
572 0 1 -23.407299 -9.942573 8.819123
573 0 1 -23.710999 -9.042764 8.458207
574 0 1 -24.122398 -9.293433 7.657288
575 0 1 -24.569098 -9.845433 6.977433
576 0 1 -25.479198 -9.756225 6.708436
577 0 1 -25.077497 -10.183284 6.013352
578 0 1 -24.581898 -11.050553 5.858063
579 0 1 -24.839199 -10.732413 5.020386
580 0 1 -24.663898 -10.268085 4.179474
581 0 1 -23.715899 -10.175204 3.996156
582 0 1 -23.537699 -9.230945 4.171341
583 0 1 -23.922699 -8.897143 5.028977
584 0 1 -23.080198 -8.431033 4.732407
585 0 1 -22.312599 -7.929103 5.017014
586 0 1 -21.560499 -7.495395 4.610337
587 0 1 -20.629698 -7.318814 4.734604
588 0 1 -20.259798 -6.499984 5.126496
589 0 1 -20.688498 -6.002454 4.424576
590 0 1 -20.215399 -5.670184 3.666444
591 0 1 -20.995298 -5.082435 3.898591
592 0 1 -21.829597 -5.302974 4.261765
593 0 1 -22.224098 -5.781434 3.480195
594 0 1 -22.536898 -5.377524 2.610734
595 0 1 -23.030598 -4.918633 1.981446
596 0 1 -22.925798 -4.014354 2.138306
597 0 1 -22.342398 -3.201598 2.030411
598 0 1 -21.609898 -3.349822 2.673554
599 0 1 -21.586498 -2.419141 2.726670
600 0 1 -21.969398 -1.919093 3.547944
601 0 1 -22.738998 -1.345306 3.289719
602 0 1 -22.561298 -1.100826 2.401520
603 0 1 -22.411598 -0.788734 1.505997
604 0 1 -21.895899 -0.179263 1.006852
605 0 1 -20.972498 -0.549243 1.249894
606 0 1 -20.417799 -0.220424 0.474961
607 0 1 -20.618998 -0.496753 -0.414413
608 0 1 -20.173798 -1.243606 -0.707092
609 0 1 -19.758898 -2.097924 -1.093124
610 0 1 -19.648298 -2.972450 -1.511626
611 0 1 -19.681198 -2.727489 -2.458389
612 0 1 -19.672098 -1.841945 -2.060912
613 0 1 -18.716398 -2.141475 -2.166106
614 0 1 -17.794298 -2.527234 -1.964996
615 0 1 -17.814598 -1.999894 -1.180831
616 0 1 -18.092398 -2.511737 -0.375640
617 0 1 -18.263798 -1.616214 0.045121
618 0 1 -19.083097 -1.219203 0.396699
619 0 1 -19.277899 -1.886464 0.961915
620 0 1 -18.515999 -1.652633 1.518418
621 0 1 -17.990999 -1.400783 2.307404
622 0 1 -18.806299 -0.982383 2.454957
623 0 1 -18.935299 -0.276782 1.786195
624 0 1 -18.625799 0.605164 1.817811
625 0 1 -18.065598 0.206475 2.487763
626 0 1 -18.001299 0.963128 3.046601
627 0 1 -18.963799 1.163266 3.157487
628 0 1 -19.430199 1.946564 3.523606
629 0 1 -18.972498 1.709374 4.344285
630 0 1 -19.574898 1.773827 5.114899
631 0 1 -19.004198 2.490334 5.515137
632 0 1 -18.353399 1.999497 6.035935
633 0 1 -17.864599 1.721314 5.215485
634 0 1 -17.982298 1.268388 4.385514
635 0 1 -17.236298 1.552705 3.860978
636 0 1 -16.894999 1.163125 3.025056
637 0 1 -16.049398 1.501126 2.440125
638 0 1 -15.232498 1.895486 2.958848
639 0 1 -14.423998 2.369565 2.976777
640 0 1 -13.631098 2.550496 3.461243
641 0 1 -12.788797 2.159295 3.114060
642 0 1 -11.943697 1.917767 2.714890
643 0 1 -11.240297 1.816476 3.327409
644 0 1 -11.606098 2.080544 4.173432
645 0 1 -12.433699 1.861146 4.659791
646 0 1 -11.790998 1.385575 5.223374
647 0 1 -11.099598 1.916077 5.489991
648 0 1 -11.251299 1.932027 6.405121
649 0 1 -11.929998 1.615018 6.992341
650 0 1 -12.839699 1.786385 7.198685
651 0 1 -13.807798 1.669926 7.306305
652 0 1 -14.280798 0.853184 7.049515
653 0 1 -15.047598 0.647866 6.575943
654 0 1 -14.489999 0.399735 5.849213
655 0 1 -13.990099 1.086587 5.404694
656 0 1 -14.224098 0.688256 4.460297
657 0 1 -14.548498 -0.205085 4.288682
658 0 1 -14.586298 -0.563194 3.398545
659 0 1 -15.338598 -0.945144 3.869111
660 0 1 -15.974398 -0.743133 3.209443
661 0 1 -15.876999 -1.099975 2.349808
662 0 1 -15.364598 -0.379314 2.006547
663 0 1 -15.369998 0.300378 1.336243
664 0 1 -15.583498 1.269097 1.278336
665 0 1 -14.713999 1.432545 0.937806
666 0 1 -15.123798 1.242276 0.003693
667 0 1 -15.456799 0.335156 -0.205764
668 0 1 -14.848598 0.743798 -0.815719
669 0 1 -14.411698 -0.029105 -1.222717
670 0 1 -13.911200 -0.917705 -1.573867
671 0 1 -13.470798 -1.244594 -2.346771
672 0 1 -13.692198 -0.458003 -2.958266
673 0 1 -13.014898 -0.913684 -3.420898
674 0 1 -12.321999 -0.319442 -3.850250
675 0 1 -12.627998 -0.397655 -4.785110
676 0 1 -12.481798 -0.004844 -5.662353
677 0 1 -12.869799 0.845456 -5.409225
678 0 1 -12.533697 1.015355 -6.273422
679 0 1 -13.341799 1.088177 -6.799057
680 0 1 -13.292599 1.321694 -7.640609
681 0 1 -12.532297 1.802705 -7.170684
682 0 1 -12.743998 2.506436 -6.632263
683 0 1 -12.382698 3.311208 -6.271896
684 0 1 -12.930799 3.846986 -6.892303
685 0 1 -12.720598 4.730165 -6.731124
686 0 1 -13.333597 5.245046 -7.225006
687 0 1 -13.672499 4.471856 -7.744201
688 0 1 -14.360498 4.282556 -8.404860
689 0 1 -14.956899 3.806416 -8.982329
690 0 1 -15.513498 3.823506 -8.134963
691 0 1 -15.624099 4.143487 -7.244308
692 0 1 -15.988098 4.804555 -6.673919
693 0 1 -15.173298 5.298997 -6.518981
694 0 1 -14.872398 4.741235 -5.809524
695 0 1 -14.491098 4.648458 -4.973526
696 0 1 -14.444698 5.424996 -4.502853
697 0 1 -14.015699 5.525685 -3.631149
698 0 1 -13.829298 6.347676 -4.195068
699 0 1 -14.108198 6.524835 -3.258895
700 0 1 -14.360198 7.184087 -3.973800
701 0 1 -14.878098 7.355485 -4.751403
702 0 1 -15.393098 7.913186 -5.416519
703 0 1 -15.699999 8.613088 -4.831527
704 0 1 -15.185998 9.383687 -5.068695
705 0 1 -14.665198 10.196084 -5.475402
706 0 1 -13.971899 10.737287 -5.197494
707 0 1 -13.360699 10.720788 -4.495346
708 0 1 -13.183897 9.946286 -3.922134
709 0 1 -12.637697 9.721185 -3.081023
710 0 1 -11.716700 9.458486 -2.845245
711 0 1 -11.532898 9.659486 -1.909164
712 0 1 -11.576597 10.608987 -1.748748
713 0 1 -10.766098 10.219487 -1.310653
714 0 1 -10.665998 9.593385 -0.592941
715 0 1 -11.603598 9.514184 -0.339660
716 0 1 -11.277597 9.372586 0.562562
717 0 1 -11.687098 8.492288 0.597977
718 0 1 -11.852697 7.565988 0.380479
719 0 1 -10.897200 7.636086 0.689866
720 0 1 -10.633398 6.685586 0.342530
721 0 1 -10.728498 6.539338 1.238816
722 0 1 -10.321199 5.752145 1.629639
723 0 1 -9.966898 6.312875 2.467271
724 0 1 -9.977798 7.334588 2.299607
725 0 1 -9.836798 7.791585 3.171723
726 0 1 -9.045368 8.201188 3.541642
727 0 1 -9.599607 8.282784 4.384354
728 0 1 -10.334997 8.818185 4.356125
729 0 1 -10.834799 9.594987 4.495255
730 0 1 -10.783499 10.468087 4.938843
731 0 1 -10.307999 10.506986 5.765107
732 0 1 -10.669897 11.252187 6.175995
733 0 1 -11.327700 11.169385 6.870865
734 0 1 -11.700697 10.465085 7.340882
735 0 1 -11.216898 9.906388 8.073365
736 0 1 -10.327898 9.991986 7.586686
737 0 1 -10.399399 9.018186 7.452713
738 0 1 -10.905199 9.534486 6.829224
739 0 1 -11.045498 8.606988 6.637528
740 0 1 -10.498697 7.791085 6.837250
741 0 1 -10.153399 6.937486 6.538971
742 0 1 -9.992298 5.945504 6.692841
743 0 1 -9.152958 5.657136 6.365937
744 0 1 -8.712488 6.494538 6.397690
745 0 1 -7.764128 6.427438 6.761872
746 0 1 -7.142427 5.697488 6.741990
747 0 1 -6.236729 5.528306 6.642106
748 0 1 -5.563028 5.263658 6.031235
749 0 1 -5.150959 5.370278 6.919816
750 0 1 -5.085999 5.542016 7.832825
751 0 1 -5.882828 6.103387 7.960434
752 0 1 -5.714138 6.957788 8.280747
753 0 1 -5.100208 7.127885 8.963716
754 0 1 -4.231598 6.984487 9.271256
755 0 1 -4.445219 7.906987 9.311769
756 0 1 -4.081808 8.257787 10.106797
757 0 1 -3.602659 9.104688 10.213807
758 0 1 -2.904799 9.716687 10.153703
759 0 1 -2.038199 9.830789 10.501405
760 0 1 -2.311468 8.899987 10.535005
761 0 1 -1.996309 9.298486 9.717195
762 0 1 -1.710199 10.201585 9.529969
763 0 1 -1.417469 10.742887 10.280900
764 0 1 -2.117178 11.177587 9.796037
765 0 1 -1.898489 11.268685 8.887132
766 0 1 -1.096409 11.331086 8.434190
767 0 1 -0.343159 11.105386 9.007646
768 0 1 0.154190 11.916886 8.897340
769 0 1 0.273859 12.471585 9.655946
770 0 1 -0.334648 12.851186 10.327699
771 0 1 -0.425545 12.408086 11.161897
772 0 1 -0.358156 12.812787 12.021394
773 0 1 0.029619 12.658784 12.905000
774 0 1 0.036140 12.206388 13.719895
775 0 1 -0.708729 12.214986 14.263597
776 0 1 -0.356047 11.434285 14.674806
777 0 1 -1.124069 11.350488 15.322801
778 0 1 -1.736439 12.126687 15.168595
779 0 1 -1.648758 12.681687 14.421601
780 0 1 -2.417708 12.292386 14.011598
781 0 1 -2.678858 13.035787 13.514604
782 0 1 -3.436928 13.514287 13.809999
783 0 1 -3.805418 14.379487 13.510697
784 0 1 -3.810438 14.864587 12.650498
785 0 1 -2.980448 15.084386 13.071595
786 0 1 -3.222578 15.781987 13.627305
787 0 1 -2.877589 16.072487 12.798600
788 0 1 -2.030329 16.449486 12.727098
789 0 1 -1.686699 15.572984 12.601197
790 0 1 -1.907698 15.119485 13.357301