LAMMPS data file via MDAnalysis

        2000  atoms
        1999  bonds
           0  angles
           0  dihedrals
           0  impropers

           1  atom types
           1  bond types
           0  angle types
           0  dihedral types
           0  improper types

-30.5 30.5 xlo xhi
-30.5 30.5 ylo yhi
-233.5 233.5 zlo zhi


Masses

1 1.000000

Atoms

1 0 1 -18.080458 11.334900 59.978088
2 0 1 -18.963858 11.690197 59.810699
3 0 1 -19.631058 11.077297 59.513397
4 0 1 -19.661957 11.272800 58.599213
5 0 1 -18.669157 11.217598 58.367401
6 0 1 -19.178257 11.397499 57.601990
7 0 1 -18.673656 10.758499 57.107300
8 0 1 -18.185257 10.374798 56.400391
9 0 1 -17.810457 11.029598 55.818695
10 0 1 -17.768757 11.549297 55.018494
11 0 1 -17.316957 12.413700 55.086792
12 0 1 -16.504158 12.816700 55.486908
13 0 1 -17.094057 13.346199 54.956787
14 0 1 -17.717056 13.776699 54.314392
15 0 1 -17.913458 13.731197 53.371796
16 0 1 -17.300158 14.343700 52.933899
17 0 1 -16.564756 13.717098 53.179810
18 0 1 -16.371157 12.835098 52.909485
19 0 1 -16.641457 12.468601 52.112091
20 0 1 -15.956057 12.129398 51.480591
21 0 1 -15.438857 12.129200 52.343201
22 0 1 -14.858357 11.403999 51.973297
23 0 1 -14.395157 12.274399 52.059906
24 0 1 -13.786556 13.010799 51.866089
25 0 1 -13.076859 13.705997 51.540100
26 0 1 -13.323957 13.918098 52.492706
27 0 1 -13.371159 14.541100 53.198395
28 0 1 -12.512959 14.431900 53.643799
29 0 1 -12.066257 14.420498 54.536194
30 0 1 -11.406057 14.346100 55.317413
31 0 1 -11.446358 15.056599 55.998810
32 0 1 -12.326057 14.716198 56.346008
33 0 1 -11.742256 14.644199 57.146088
34 0 1 -11.256157 13.824001 57.207886
35 0 1 -11.791857 13.645500 58.055298
36 0 1 -10.955057 13.729698 58.580597
37 0 1 -10.304857 13.219200 59.027100
38 0 1 -9.845257 13.973099 58.654510
39 0 1 -9.141426 14.637798 58.304688
40 0 1 -8.349716 14.957100 58.771912
41 0 1 -7.739357 14.209999 58.834991
42 0 1 -7.605236 13.536198 58.135498
43 0 1 -6.694736 13.313297 58.043884
44 0 1 -5.768597 13.099400 58.149597
45 0 1 -5.660686 13.188198 57.177399
46 0 1 -5.236057 13.886398 57.581116
47 0 1 -4.454918 14.156498 57.120087
48 0 1 -4.590157 14.260399 56.145294
49 0 1 -4.451338 13.335999 55.840393
50 0 1 -4.056396 13.533199 54.988007
51 0 1 -3.794058 12.751698 54.493805
52 0 1 -3.024098 13.272499 54.662994
53 0 1 -2.562098 14.006001 54.215912
54 0 1 -2.675137 14.773701 53.579407
55 0 1 -1.782488 15.165401 53.489990
56 0 1 -2.196238 15.896099 52.945801
57 0 1 -2.442408 16.379200 52.122314
58 0 1 -3.077088 15.849598 51.692902
59 0 1 -3.634018 16.300098 52.330994
60 0 1 -4.306908 15.858700 52.917206
61 0 1 -5.067436 16.093197 52.466400
62 0 1 -6.026047 15.855801 52.694397
63 0 1 -6.984447 15.715397 52.702301
64 0 1 -7.421858 14.822201 52.669891
65 0 1 -8.160648 15.462799 52.939697
66 0 1 -9.015778 15.587498 53.270386
67 0 1 -9.163588 14.764999 53.758392
68 0 1 -9.320707 13.950901 54.214600
69 0 1 -9.001328 13.130699 54.551086
70 0 1 -8.848457 13.795597 55.193390
71 0 1 -9.689867 13.990898 55.675812
72 0 1 -9.849657 13.082401 55.223999
73 0 1 -10.708057 12.863598 55.625183
74 0 1 -10.980757 12.235699 56.257294
75 0 1 -11.122856 11.805500 57.162506
76 0 1 -10.595558 11.048000 57.462799
77 0 1 -11.313957 10.414299 57.211700
78 0 1 -10.697659 9.881500 56.681213
79 0 1 -9.793417 9.885799 56.998199
80 0 1 -10.304256 9.681400 57.766693
81 0 1 -11.099358 9.200199 58.045288
82 0 1 -11.043358 8.456299 57.488800
83 0 1 -11.260456 8.192417 56.611603
84 0 1 -10.462257 8.784397 56.418396
85 0 1 -10.184357 7.958519 56.784210
86 0 1 -9.850357 7.326130 56.124695
87 0 1 -8.955637 7.555721 56.334503
88 0 1 -8.943466 8.584499 56.322998
89 0 1 -8.595287 9.177200 56.953400
90 0 1 -7.759148 9.416401 57.372192
91 0 1 -7.404186 8.949699 56.635406
92 0 1 -6.466047 8.864899 56.306488
93 0 1 -6.164038 8.973099 55.368286
94 0 1 -5.285357 9.257999 55.208099
95 0 1 -5.821007 9.821697 54.690002
96 0 1 -5.150837 9.479198 54.126404
97 0 1 -4.481688 9.602299 53.552887
98 0 1 -4.271748 9.731499 52.608398
99 0 1 -4.529476 8.877598 52.122894
100 0 1 -5.240917 9.371799 51.667603
101 0 1 -5.692276 9.396599 50.811798
102 0 1 -5.310827 9.443100 49.876495
103 0 1 -6.000177 8.742802 50.013611
104 0 1 -6.858036 9.093098 50.183594
105 0 1 -7.481018 8.572598 49.613312
106 0 1 -7.572348 7.774330 50.008484
107 0 1 -6.929457 7.144650 50.197906
108 0 1 -7.607737 6.506512 50.301086
109 0 1 -8.322607 6.418621 50.961609
110 0 1 -8.873898 6.274448 50.183289
111 0 1 -9.811527 6.253681 50.312103
112 0 1 -9.801737 7.148579 49.903900
113 0 1 -9.416058 7.948898 50.277893
114 0 1 -10.047457 8.588497 50.365509
115 0 1 -10.657158 8.018700 50.942505
116 0 1 -11.237658 8.366798 51.719604
117 0 1 -11.451057 7.495949 51.402008
118 0 1 -11.493156 6.982380 50.527588
119 0 1 -12.042557 7.513279 49.906799
120 0 1 -12.809057 7.371941 49.344910
121 0 1 -13.037357 8.277168 49.228210
122 0 1 -13.332857 8.763298 50.078400
123 0 1 -12.434658 8.814701 49.888489
124 0 1 -12.596357 9.692200 50.308105
125 0 1 -12.197956 9.878399 49.436890
126 0 1 -11.243858 9.762402 49.412811
127 0 1 -11.290857 9.869701 48.453003
128 0 1 -10.982456 9.625599 47.594208
129 0 1 -10.034557 9.300598 47.798309
130 0 1 -9.596148 9.928299 47.240906
131 0 1 -9.739777 10.035900 46.237915
132 0 1 -9.659218 9.768002 45.309906
133 0 1 -9.228756 10.605099 45.596802
134 0 1 -9.291878 11.472000 45.222290
135 0 1 -9.448067 12.381802 45.175995
136 0 1 -9.748268 12.746601 44.361389
137 0 1 -10.544657 13.273701 44.410187
138 0 1 -11.485657 13.437298 44.404907
139 0 1 -11.998257 12.661800 44.634796
140 0 1 -11.222258 12.118801 44.433289
141 0 1 -11.058056 12.113998 45.399597
142 0 1 -10.933758 11.539997 46.196503
143 0 1 -11.848757 11.850399 46.124298
144 0 1 -12.113457 10.905201 45.979401
145 0 1 -12.456158 10.134899 45.493011
146 0 1 -13.005457 9.522800 44.956909
147 0 1 -12.369759 9.123199 44.280609
148 0 1 -12.396957 10.059299 44.202789
149 0 1 -11.531057 9.680500 43.963196
150 0 1 -11.874157 9.420498 43.103210
151 0 1 -11.683857 9.926300 42.280792
152 0 1 -10.989758 10.601898 42.326996
153 0 1 -10.893356 10.201000 41.463104
154 0 1 -10.598658 9.857201 40.629211
155 0 1 -9.952858 9.156300 40.543396
156 0 1 -9.594906 9.490200 39.680908
157 0 1 -8.841808 9.023399 40.041595
158 0 1 -7.949318 9.250198 39.732208
159 0 1 -8.405388 9.242199 38.791809
160 0 1 -7.617176 8.674297 38.590790
161 0 1 -6.849586 8.159771 38.329010
162 0 1 -7.328957 7.496819 37.923889
163 0 1 -7.467657 8.165401 37.244385
164 0 1 -7.308527 8.897099 36.645111
165 0 1 -8.149807 8.873402 36.235992
166 0 1 -7.667828 8.141098 36.045990
167 0 1 -7.050697 7.428631 35.778992
168 0 1 -6.167347 6.941090 35.716400
169 0 1 -5.526108 6.699421 36.420197
170 0 1 -4.878668 6.689289 35.682312
171 0 1 -5.202988 7.415897 35.115295
172 0 1 -4.338726 7.906578 35.035706
173 0 1 -3.618387 7.633148 34.406616
174 0 1 -2.788548 7.046089 34.132111
175 0 1 -3.341387 6.351330 34.554413
176 0 1 -2.489268 6.101658 35.052185
177 0 1 -2.181708 6.495991 35.849091
178 0 1 -1.289938 6.639099 36.161102
179 0 1 -1.739897 7.336178 36.684296
180 0 1 -2.088238 8.041759 37.182007
181 0 1 -2.398167 8.036419 38.075500
182 0 1 -2.471117 7.191189 37.722900
183 0 1 -1.915968 6.730770 38.360504
184 0 1 -1.859778 6.558090 39.257996
185 0 1 -1.388687 5.798100 38.852112
186 0 1 -0.679510 5.645119 38.218201
187 0 1 -0.519451 4.855221 37.773712
188 0 1 0.419630 4.689400 37.843811
189 0 1 1.314052 4.945141 37.627289
190 0 1 1.823353 5.741299 37.804596
191 0 1 2.464924 5.363468 38.419708
192 0 1 2.102993 6.244801 38.572906
193 0 1 2.065731 6.203339 39.520203
194 0 1 2.222522 7.092190 39.384796
195 0 1 1.273693 7.149330 39.599487
196 0 1 0.336527 7.454121 39.368286
197 0 1 -0.384068 6.834499 39.831512
198 0 1 0.130686 6.936932 40.654694
199 0 1 0.682674 6.143070 40.450409
200 0 1 0.810976 5.370979 39.882385
201 0 1 0.669424 4.829830 39.093903
202 0 1 0.621008 3.882587 39.292114
203 0 1 0.977537 3.224258 39.958191
204 0 1 1.614902 2.852501 40.565308
205 0 1 1.591843 3.684368 41.070587
206 0 1 1.002525 3.969059 41.795288
207 0 1 0.595291 4.834118 41.762909
208 0 1 0.738865 5.176319 42.671112
209 0 1 0.978857 5.502419 43.524414
210 0 1 1.926613 5.688618 43.522095
211 0 1 2.444343 5.419239 44.334503
212 0 1 2.795631 4.675488 43.754089
213 0 1 3.454704 4.410271 43.107208
214 0 1 3.881374 3.750210 42.569611
215 0 1 3.988422 2.971508 43.059387
216 0 1 3.832554 2.014420 43.468201
217 0 1 2.948742 2.176880 43.841003
218 0 1 3.276191 3.069958 43.795898
219 0 1 2.892364 3.190941 44.639496
220 0 1 3.356354 3.191269 45.457092
221 0 1 2.776172 3.256310 46.224304
222 0 1 3.245701 4.134209 46.082794
223 0 1 2.786312 4.420479 46.841705
224 0 1 2.513511 5.341969 47.000488
225 0 1 1.597683 5.482029 46.747314
226 0 1 1.029449 6.072090 46.208099
227 0 1 0.932865 6.972069 46.555206
228 0 1 0.506601 7.562679 46.012909
229 0 1 -0.407320 7.271271 46.191193
230 0 1 -0.875998 7.961079 46.663910
231 0 1 -0.867468 8.748299 46.191284
232 0 1 -1.351578 8.345398 45.500488
233 0 1 -2.050257 8.671902 44.920502
234 0 1 -2.757397 8.099831 44.695801
235 0 1 -2.795008 7.503338 45.461914
236 0 1 -2.999336 8.180538 46.096008
237 0 1 -3.842898 8.323441 46.600006
238 0 1 -4.241207 7.407021 46.804016
239 0 1 -4.488876 7.162498 47.686188
240 0 1 -4.609928 6.213829 47.853302
241 0 1 -4.858036 5.848488 48.726410
242 0 1 -4.072216 5.762478 49.265594
243 0 1 -3.853758 5.440880 50.228607
244 0 1 -4.507858 5.930637 50.622101
245 0 1 -4.389498 5.967808 51.650208
246 0 1 -4.787968 6.879818 51.869202
247 0 1 -4.443588 7.515518 51.196594
248 0 1 -3.712738 7.728642 50.633911
249 0 1 -2.797877 7.341167 50.569489
250 0 1 -2.470717 6.491741 50.258087
251 0 1 -2.732838 5.761688 49.671112
252 0 1 -2.528498 5.313259 48.861816
253 0 1 -2.912598 4.526649 49.217712
254 0 1 -2.949368 3.988869 49.970795
255 0 1 -2.066818 4.155598 50.246613
256 0 1 -1.072508 4.064499 50.458313
257 0 1 -0.891657 3.395199 49.774597
258 0 1 -0.064160 3.360878 50.313690
259 0 1 0.514286 2.659988 50.121094
260 0 1 -0.050440 2.281151 49.470306
261 0 1 -0.705372 1.974110 50.061584
262 0 1 -0.285597 1.143181 50.237396
263 0 1 -0.400660 0.321850 50.706909
264 0 1 -0.758124 0.161430 49.852417
265 0 1 -0.503719 0.088509 48.937317
266 0 1 0.256452 0.690410 48.604706
267 0 1 1.061441 1.023208 48.309692
268 0 1 1.581533 1.279930 47.547699
269 0 1 1.406303 0.433899 47.031799
270 0 1 1.703483 1.243069 46.533295
271 0 1 1.506184 1.155178 45.609406
272 0 1 1.226063 0.371200 45.026489
273 0 1 1.033945 0.035160 45.882996
274 0 1 0.663658 -0.725876 45.443115
275 0 1 0.616381 -1.326153 44.673706
276 0 1 1.187723 -2.051897 44.779114
277 0 1 0.599174 -2.131750 45.510193
278 0 1 1.121672 -2.947821 45.259094
279 0 1 1.464403 -3.819061 45.167297
280 0 1 0.510326 -3.907320 45.416809
281 0 1 -0.265705 -4.573061 45.659088
282 0 1 0.247087 -4.899841 46.438202
283 0 1 0.179748 -5.037210 47.385406
284 0 1 -0.679421 -5.528530 47.488190
285 0 1 -1.363968 -5.810341 48.042297
286 0 1 -1.232737 -6.549360 48.699005
287 0 1 -1.921087 -7.153181 48.881989
288 0 1 -1.387657 -7.361832 49.700684
289 0 1 -0.603134 -7.737400 50.153900
290 0 1 -0.321009 -6.804651 50.196991
291 0 1 0.396389 -6.324251 49.661499
292 0 1 0.306059 -7.075800 49.023407
293 0 1 0.460279 -7.716400 48.271088
294 0 1 1.165264 -7.289431 47.895996
295 0 1 1.942001 -7.835901 48.019806
296 0 1 2.386093 -7.082340 47.992493
297 0 1 2.758434 -6.379200 48.600586
298 0 1 2.351623 -5.515211 48.449493
299 0 1 2.932911 -5.063360 47.915009
300 0 1 3.644184 -5.430910 48.478302
301 0 1 4.599854 -5.574242 48.767883
302 0 1 5.402172 -5.546890 49.286499
303 0 1 5.881912 -5.860620 50.126312
304 0 1 6.744621 -5.411711 50.116302
305 0 1 7.523163 -5.095280 49.579895
306 0 1 7.835442 -5.515251 50.422913
307 0 1 8.592583 -5.763660 49.880188
308 0 1 8.351364 -6.680180 49.767792
309 0 1 8.230412 -6.889500 48.792908
310 0 1 8.333035 -6.516232 47.923492
311 0 1 9.013432 -7.224791 47.686005
312 0 1 8.895634 -7.053011 46.745483
313 0 1 8.279434 -7.762791 46.299408
314 0 1 8.358150 -8.210581 45.457489
315 0 1 7.420811 -8.092781 45.291809
316 0 1 7.552395 -8.914001 45.833313
317 0 1 7.199394 -9.331409 45.035187
318 0 1 7.290253 -10.298759 45.180695
319 0 1 6.610752 -10.864460 44.804688
320 0 1 5.572361 -10.996330 44.794983
321 0 1 4.700474 -11.037510 44.459717
322 0 1 4.928452 -12.026901 44.196899
323 0 1 4.523563 -12.443300 44.971405
324 0 1 3.871761 -11.842400 45.407593
325 0 1 4.447163 -11.143581 45.687012
326 0 1 5.358662 -11.321260 45.938416
327 0 1 6.156101 -10.745201 46.003296
328 0 1 6.668362 -10.020512 46.308289
329 0 1 5.985783 -10.292391 46.998688
330 0 1 5.140675 -10.697290 47.305511
331 0 1 4.455975 -10.575691 47.984589
332 0 1 3.557121 -10.785202 48.389587
333 0 1 2.751922 -10.864611 47.925415
334 0 1 2.814071 -9.964031 47.651794
335 0 1 2.411564 -9.741430 48.512604
336 0 1 2.859874 -9.801371 49.392395
337 0 1 2.509033 -9.473680 50.238495
338 0 1 3.142463 -9.609871 50.927185
339 0 1 3.130474 -10.509171 50.609985
340 0 1 3.881004 -10.868710 51.123291
341 0 1 4.656303 -10.508890 50.608490
342 0 1 5.597103 -10.502972 50.381805
343 0 1 5.842712 -11.066401 49.683105
344 0 1 5.481873 -11.810101 49.301514
345 0 1 5.043362 -12.610001 49.584991
346 0 1 5.153671 -13.434700 49.010803
347 0 1 5.143093 -14.218201 48.443207
348 0 1 4.762302 -14.463699 47.625793
349 0 1 4.021164 -15.038700 47.304810
350 0 1 3.377632 -15.068201 47.951508
351 0 1 2.504322 -15.249001 47.606812
352 0 1 2.103851 -15.818701 46.942200
353 0 1 1.710632 -14.946001 46.895691
354 0 1 1.190912 -14.952000 46.089691
355 0 1 1.028406 -14.148001 45.517303
356 0 1 0.643671 -13.465401 44.857605
357 0 1 0.637855 -12.518801 45.053802
358 0 1 -0.368132 -12.533300 44.832886
359 0 1 -0.209850 -13.204800 44.138092
360 0 1 0.251221 -12.959600 43.368011
361 0 1 0.913444 -12.924400 44.045807
362 0 1 1.484783 -13.645100 43.707794
363 0 1 1.883282 -12.754101 43.578003
364 0 1 2.146831 -13.142101 42.669403
365 0 1 1.458963 -12.612000 42.170990
366 0 1 2.357292 -12.434200 41.911407
367 0 1 3.176712 -12.000999 41.778015
368 0 1 4.010181 -12.379002 41.707611
369 0 1 4.200203 -11.479759 41.590698
370 0 1 4.203491 -11.466202 40.629395
371 0 1 4.593113 -10.586481 40.465790
372 0 1 4.261883 -9.826370 39.903015
373 0 1 3.821972 -9.722410 40.675598
374 0 1 4.633984 -9.337271 40.860107
375 0 1 4.234383 -8.811331 40.218811
376 0 1 3.868442 -8.160950 40.873810
377 0 1 3.796722 -8.878860 41.574493
378 0 1 2.868992 -9.046612 41.917999
379 0 1 2.436512 -8.758001 41.132996
380 0 1 1.981903 -9.632631 41.067200
381 0 1 0.997766 -9.536400 41.202301
382 0 1 1.100485 -8.596352 41.321899
383 0 1 1.407873 -7.711161 41.285492
384 0 1 0.716802 -7.365061 40.768494
385 0 1 0.149359 -7.993141 40.240784
386 0 1 -0.634894 -7.501450 40.582397
387 0 1 -1.225327 -8.213371 40.408203
388 0 1 -2.088007 -7.832830 40.191101
389 0 1 -1.709257 -7.459570 41.078308
390 0 1 -2.588278 -7.597570 41.519012
391 0 1 -2.089028 -7.306210 42.289185
392 0 1 -2.600178 -6.572990 41.869293
393 0 1 -3.302527 -5.914431 41.682495
394 0 1 -4.013256 -6.233101 42.213989
395 0 1 -4.505348 -6.946331 42.549408
396 0 1 -4.652447 -6.682590 43.519806
397 0 1 -5.455957 -7.141510 43.582214
398 0 1 -4.894947 -7.977551 43.544403
399 0 1 -4.061077 -8.266762 43.932098
400 0 1 -3.344177 -8.848701 43.763916
401 0 1 -3.347708 -8.668371 42.772491
402 0 1 -3.098597 -8.680931 41.840302
403 0 1 -2.112547 -8.757860 41.853912
404 0 1 -2.528208 -9.730171 42.094299
405 0 1 -2.440108 -10.315269 41.331512
406 0 1 -2.513047 -9.464890 40.861084
407 0 1 -3.400646 -9.217461 40.716187
408 0 1 -4.051708 -9.279560 39.990601
409 0 1 -4.735497 -9.898830 40.095093
410 0 1 -5.530888 -9.372530 39.840912
411 0 1 -6.168007 -10.087292 39.670288
412 0 1 -6.798576 -10.453671 40.296814
413 0 1 -7.368467 -10.014891 39.671692
414 0 1 -7.644947 -9.472441 38.915283
415 0 1 -8.449108 -9.206841 38.377411
416 0 1 -8.724628 -8.909660 37.537598
417 0 1 -9.610577 -9.443430 37.509003
418 0 1 -9.930058 -8.827122 38.209595
419 0 1 -9.655018 -9.709881 38.511414
420 0 1 -10.046457 -10.516151 38.820007
421 0 1 -9.718307 -10.088711 39.605591
422 0 1 -9.709488 -10.625221 40.436401
423 0 1 -9.991756 -11.298542 41.093292
424 0 1 -10.874958 -11.342060 40.723694
425 0 1 -10.615257 -11.739502 39.945984
426 0 1 -10.263357 -12.564100 40.288086
427 0 1 -9.333227 -12.972301 40.102417
428 0 1 -8.940407 -13.465601 39.393005
429 0 1 -8.515448 -12.758301 38.839600
430 0 1 -8.629637 -11.868099 38.537201
431 0 1 -7.995007 -12.361702 38.023499
432 0 1 -7.813807 -11.497320 37.731201
433 0 1 -7.181858 -11.250381 36.919403
434 0 1 -7.217607 -11.471210 35.869385
435 0 1 -6.433708 -11.475571 35.276093
436 0 1 -6.321667 -10.557350 34.972687
437 0 1 -6.813488 -10.169182 35.665192
438 0 1 -7.402718 -9.422911 36.001801
439 0 1 -8.110207 -8.832390 35.787292
440 0 1 -8.644167 -8.611511 35.046906
441 0 1 -9.419346 -8.449020 34.544189
442 0 1 -10.026857 -8.183321 35.262299
443 0 1 -9.752407 -7.237091 35.455688
444 0 1 -9.968258 -6.888651 34.608795
445 0 1 -10.235958 -6.033911 34.323700
446 0 1 -9.810558 -5.824261 33.523407
447 0 1 -10.666058 -5.558371 33.377106
448 0 1 -11.258759 -5.771210 34.074707
449 0 1 -11.387257 -4.985701 34.579193
450 0 1 -12.028057 -4.638121 33.959900
451 0 1 -11.667257 -3.893211 34.395905
452 0 1 -12.431458 -3.484201 34.867889
453 0 1 -12.092758 -2.842110 35.501099
454 0 1 -12.044558 -2.367939 34.597290
455 0 1 -11.792358 -1.727024 33.931488
456 0 1 -11.624256 -2.371138 33.287415
457 0 1 -12.533857 -2.580866 32.913513
458 0 1 -12.712057 -1.739763 32.388306
459 0 1 -13.449957 -2.019711 31.838287
460 0 1 -12.654556 -2.500740 31.648895
461 0 1 -12.138157 -2.344114 30.888000
462 0 1 -11.673357 -1.560608 30.472412
463 0 1 -12.134357 -1.500446 29.630707
464 0 1 -11.986057 -2.257626 29.020691
465 0 1 -11.973257 -3.166691 28.642303
466 0 1 -12.221857 -4.082001 29.078308
467 0 1 -12.885159 -4.681971 28.838898
468 0 1 -13.554756 -4.065001 29.135895
469 0 1 -13.844957 -3.232231 29.437805
470 0 1 -14.491957 -3.287510 30.159790
471 0 1 -14.618457 -4.212631 29.850586
472 0 1 -15.561557 -4.179901 29.502502
473 0 1 -15.699457 -4.887970 30.167511
474 0 1 -16.530357 -4.798271 29.803894
475 0 1 -17.276857 -4.845570 29.185608
476 0 1 -17.600758 -4.889700 30.009186
477 0 1 -18.354258 -5.381250 29.519592
478 0 1 -18.895357 -5.193041 28.712494
479 0 1 -18.766956 -5.086981 27.768799
480 0 1 -19.707558 -5.335411 27.771088
481 0 1 -20.207857 -5.894581 28.354492
482 0 1 -20.976057 -5.642241 28.878693
483 0 1 -21.385357 -5.156170 28.116211
484 0 1 -21.777958 -5.558050 27.345795
485 0 1 -22.550657 -5.826061 26.750488
486 0 1 -22.343958 -6.738682 26.511414
487 0 1 -22.706556 -6.906511 25.608307
488 0 1 -23.610058 -6.773140 25.895691
489 0 1 -24.129158 -5.957651 25.840088
490 0 1 -24.715458 -5.405350 25.316101
491 0 1 -25.145557 -5.869572 24.643188
492 0 1 -25.343058 -6.693621 25.154510
493 0 1 -25.141357 -7.328979 25.903992
494 0 1 -26.040358 -7.554470 26.216003
495 0 1 -25.706057 -8.020290 25.411987
496 0 1 -25.073458 -7.596670 24.748413
497 0 1 -24.824757 -7.967241 23.884186
498 0 1 -24.340258 -7.342220 23.253601
499 0 1 -23.665358 -7.771650 22.801697
500 0 1 -23.678257 -8.128201 23.644806
501 0 1 -22.716858 -8.181681 23.537415
502 0 1 -22.559458 -7.409592 24.142303
503 0 1 -21.937958 -7.531391 24.956116
504 0 1 -22.490757 -8.303360 24.985992
505 0 1 -21.639557 -8.650431 25.159698
506 0 1 -21.060757 -8.780220 24.370789
507 0 1 -21.417257 -8.755291 23.445190
508 0 1 -21.032858 -8.706760 22.563904
509 0 1 -21.281357 -9.736771 22.513702
510 0 1 -22.126957 -9.548531 22.962494
511 0 1 -22.505358 -9.368221 22.039505
512 0 1 -22.877058 -10.221191 21.812302
513 0 1 -22.429857 -11.122271 21.681198
514 0 1 -22.179457 -11.650372 22.471893
515 0 1 -22.165257 -12.630901 22.130096
516 0 1 -22.004858 -12.675701 21.208008
517 0 1 -21.708258 -12.142101 20.455292
518 0 1 -21.041058 -12.735901 20.148605
519 0 1 -20.743958 -12.549801 21.009308
520 0 1 -19.962957 -12.252800 21.483704
521 0 1 -19.181257 -12.052101 20.851196
522 0 1 -18.762857 -11.908501 20.031403
523 0 1 -17.907356 -12.134300 19.775299
524 0 1 -17.133957 -11.614021 19.635101
525 0 1 -17.126657 -11.853302 18.666901
526 0 1 -16.554956 -12.608299 18.363098
527 0 1 -16.701157 -13.120102 17.542999
528 0 1 -17.417557 -13.075201 16.945007
529 0 1 -17.163258 -14.049000 16.799103
530 0 1 -17.277758 -14.026199 17.733902
531 0 1 -17.594057 -14.910500 17.524597
532 0 1 -16.874557 -14.987301 18.199997
533 0 1 -16.166758 -15.645901 18.153900
534 0 1 -15.607058 -15.202400 18.856293
535 0 1 -15.315957 -16.129301 19.094696
536 0 1 -14.913857 -16.828901 18.553406
537 0 1 -14.310457 -16.366001 17.973297
538 0 1 -13.930058 -16.351101 18.813400
539 0 1 -13.257557 -16.146101 19.495804
540 0 1 -12.576057 -16.249302 20.171906
541 0 1 -12.394657 -16.098499 21.122894
542 0 1 -12.943657 -15.255199 20.929199
543 0 1 -12.162558 -14.656200 21.095200
544 0 1 -12.055157 -14.220800 21.957703
545 0 1 -12.727558 -13.643301 21.705093
546 0 1 -12.191357 -13.169500 22.316895
547 0 1 -11.527958 -12.937099 21.566895
548 0 1 -11.047058 -12.464300 20.905792
549 0 1 -10.830856 -11.766602 21.479004
550 0 1 -9.857456 -11.623440 21.537704
551 0 1 -10.208958 -11.325121 20.649399
552 0 1 -10.707958 -11.149261 19.784607
553 0 1 -10.248457 -10.303612 20.052307
554 0 1 -9.903257 -10.042690 20.861496
555 0 1 -10.258759 -9.087360 20.902298
556 0 1 -10.254257 -8.746021 21.789902
557 0 1 -10.672958 -7.870110 22.229706
558 0 1 -10.275658 -7.366070 22.962311
559 0 1 -10.656757 -6.556870 23.284607
560 0 1 -11.219257 -5.819080 23.480103
561 0 1 -10.952957 -5.339321 22.703400
562 0 1 -11.113358 -4.675810 22.032898
563 0 1 -10.736557 -4.056702 22.620087
564 0 1 -10.948658 -4.038792 23.563904
565 0 1 -11.544157 -4.528130 24.191193
566 0 1 -12.456957 -4.604860 24.533112
567 0 1 -12.734457 -4.216770 25.384308
568 0 1 -12.335957 -3.445370 24.954987
569 0 1 -11.467857 -3.821510 24.937988
570 0 1 -10.982456 -3.373711 25.589691
571 0 1 -11.038258 -2.507126 26.086304
572 0 1 -10.248857 -2.663017 25.520508
573 0 1 -10.471958 -1.975681 24.955200
574 0 1 -10.192257 -1.601545 24.063904
575 0 1 -10.504057 -0.738144 23.876587
576 0 1 -10.645357 0.185699 23.471588
577 0 1 -11.530357 0.481140 23.727600
578 0 1 -12.046558 -0.271900 23.509186
579 0 1 -12.131458 -1.173782 23.814087
580 0 1 -11.426956 -1.296246 23.221313
581 0 1 -10.972357 -0.795866 22.581909
582 0 1 -10.529358 -1.610703 22.277802
583 0 1 -9.902857 -1.678721 23.002502
584 0 1 -8.986897 -1.664724 22.582306
585 0 1 -9.194946 -0.752613 22.297607
586 0 1 -8.423588 -0.357910 21.886993
587 0 1 -8.655308 -0.714047 21.048996
588 0 1 -8.038958 -0.612782 20.325195
589 0 1 -8.585417 -1.350742 20.176605
590 0 1 -8.719898 -0.627461 19.505707
591 0 1 -9.584728 -0.877957 19.322998
592 0 1 -9.939556 -0.377951 18.607697
593 0 1 -9.062357 0.065418 18.623199
594 0 1 -9.207577 0.887668 18.212494
595 0 1 -9.075676 0.990349 17.245804
596 0 1 -9.102436 1.567421 16.409195
597 0 1 -9.273478 0.682548 15.941604
598 0 1 -9.028236 0.543339 15.043502
599 0 1 -9.951557 0.506660 14.590606
600 0 1 -10.754057 1.048351 14.592101
601 0 1 -10.309258 1.691799 15.188094
602 0 1 -10.505356 1.748108 16.116608
603 0 1 -10.896057 0.818348 16.221497
604 0 1 -11.771858 0.925678 15.914001
605 0 1 -12.252258 0.088180 15.817397
606 0 1 -13.055656 0.014469 16.261902
607 0 1 -13.938757 -0.206371 16.703003
608 0 1 -14.667957 0.408070 17.067200
609 0 1 -15.087057 -0.339691 16.701904
610 0 1 -15.791557 -0.294861 15.976104
611 0 1 -16.405956 -0.906542 16.410492
612 0 1 -16.004158 -1.702500 16.652695
613 0 1 -15.981558 -2.358828 17.346802
614 0 1 -16.863758 -2.522165 17.028992
615 0 1 -16.569458 -3.093351 17.743698
616 0 1 -16.580856 -4.047932 17.777298
617 0 1 -16.995358 -4.591770 17.111496
618 0 1 -17.329357 -5.057011 16.306595
619 0 1 -17.085056 -4.678501 15.437102
620 0 1 -17.226156 -3.947762 14.859603
621 0 1 -16.408657 -3.577820 14.442000
622 0 1 -15.888758 -4.007940 13.705306
623 0 1 -15.548157 -4.749361 13.311599
624 0 1 -15.441457 -5.326080 14.077605
625 0 1 -15.492157 -5.800480 14.868896
626 0 1 -14.887757 -6.445900 14.418197
627 0 1 -14.674458 -7.214590 14.866103
628 0 1 -14.693057 -8.085720 14.291198
629 0 1 -14.740257 -8.184311 15.274795
630 0 1 -14.499957 -7.806311 16.196594
631 0 1 -14.722757 -7.097740 16.848495
632 0 1 -14.050158 -7.361681 17.481705
633 0 1 -14.364457 -8.230492 17.236206
634 0 1 -13.605957 -8.697050 16.881897
635 0 1 -13.129457 -9.285950 17.553696
636 0 1 -12.716156 -10.034790 18.033295
637 0 1 -11.788857 -9.931740 17.655502
638 0 1 -11.281757 -9.107552 17.509903
639 0 1 -11.155857 -8.187401 17.745895
640 0 1 -10.184258 -8.081421 17.781204
641 0 1 -10.297457 -9.029230 17.926208
642 0 1 -9.475506 -9.117380 17.551804
643 0 1 -8.669636 -8.542570 17.511703
644 0 1 -8.480627 -8.041941 16.718292
645 0 1 -7.577597 -7.782101 16.328201
646 0 1 -7.848328 -7.289890 15.538207
647 0 1 -7.820488 -8.148840 15.065902
648 0 1 -7.637318 -9.035110 14.737700
649 0 1 -7.137817 -9.655291 14.216796
650 0 1 -6.296207 -9.187651 13.831100
651 0 1 -5.362888 -9.469440 14.011001
652 0 1 -4.498756 -9.034231 13.782302
653 0 1 -4.396137 -9.601700 14.578399
654 0 1 -3.927878 -8.900681 15.199401
655 0 1 -3.841038 -9.711580 15.818694
656 0 1 -4.360836 -9.779491 16.710999
657 0 1 -4.828077 -10.618021 16.837799
658 0 1 -4.089308 -10.878120 17.423004
659 0 1 -4.008778 -11.863300 17.252197
660 0 1 -4.940987 -12.031002 17.451096
661 0 1 -4.926647 -12.882500 17.860199
662 0 1 -5.678307 -12.782001 18.517899
663 0 1 -5.862337 -13.216400 19.318497
664 0 1 -6.113598 -12.306499 19.605606
665 0 1 -6.080427 -12.324100 20.578003
666 0 1 -6.695107 -13.071301 20.475204
667 0 1 -6.717808 -13.977200 20.706696
668 0 1 -7.582148 -14.045799 21.082596
669 0 1 -8.393208 -13.627399 20.686798
670 0 1 -8.221268 -13.878601 19.753204
671 0 1 -7.729918 -14.294201 19.035004
672 0 1 -7.905197 -15.237202 19.116608
673 0 1 -7.310276 -15.298000 18.348297
674 0 1 -7.549997 -16.067402 17.812408
675 0 1 -8.474567 -16.158501 17.791794
676 0 1 -8.188156 -15.430099 17.184204
677 0 1 -7.733528 -14.623001 16.983704
678 0 1 -7.187937 -14.571301 16.159805
679 0 1 -6.565527 -13.985600 15.650298
680 0 1 -5.942457 -14.567600 15.206893
681 0 1 -5.395996 -14.813202 14.474792
682 0 1 -6.018797 -15.155399 13.817306
683 0 1 -6.267628 -14.279202 14.231399
684 0 1 -6.326588 -14.123501 13.228194
685 0 1 -5.847267 -14.908600 12.855605
686 0 1 -5.582668 -14.374100 12.098098
687 0 1 -5.457937 -14.549900 11.185195
688 0 1 -5.813337 -13.965601 10.447005
689 0 1 -5.173647 -14.438702 9.881621
690 0 1 -4.752928 -15.292202 10.009704
691 0 1 -5.369057 -15.813801 10.484191
692 0 1 -4.485786 -16.008101 10.864303
693 0 1 -3.637438 -15.654301 10.496993
694 0 1 -3.274838 -15.714001 9.627196
695 0 1 -2.428457 -15.745701 9.286834
696 0 1 -1.778076 -15.370701 9.888183
697 0 1 -0.841408 -15.589901 9.877501
698 0 1 -1.046578 -15.898300 10.747893
699 0 1 -1.347258 -15.724701 11.684905
700 0 1 -2.186117 -15.337801 11.889297
701 0 1 -1.582417 -15.255600 12.675002
702 0 1 -1.752098 -14.279301 12.752807
703 0 1 -2.259688 -13.480600 12.974502
704 0 1 -2.006518 -12.568600 13.184600
705 0 1 -2.562277 -11.798401 13.319701
706 0 1 -1.792887 -11.675301 13.839599
707 0 1 -1.410067 -12.476400 14.225905
708 0 1 -1.496258 -11.759300 14.938598
709 0 1 -0.866118 -12.243801 15.403502
710 0 1 -1.533047 -12.767502 15.810805
711 0 1 -0.749975 -13.311501 15.491698
712 0 1 -0.359930 -14.054100 14.958007
713 0 1 -0.397213 -15.001900 14.667602
714 0 1 0.073629 -14.870602 13.832900
715 0 1 -0.198420 -15.738899 13.546203
716 0 1 0.632421 -16.251402 13.488402
717 0 1 1.627132 -15.989700 13.524001
718 0 1 1.628633 -16.636600 12.746306
719 0 1 1.504053 -15.928699 12.149596
720 0 1 1.441902 -16.701401 11.648498
721 0 1 0.721817 -16.740501 11.053191
722 0 1 1.134291 -17.634201 10.850204
723 0 1 0.438976 -18.312500 10.668792
724 0 1 0.246746 -17.903101 9.834395
725 0 1 -0.083147 -17.075701 9.408645
726 0 1 0.781032 -17.325802 8.952331
727 0 1 1.455393 -17.847801 8.546889
728 0 1 1.787002 -17.774801 7.654662
729 0 1 1.369163 -18.192200 6.906127
730 0 1 2.322853 -18.208101 6.730773
731 0 1 2.941112 -17.469400 6.463653
732 0 1 2.869911 -16.531900 6.555114
733 0 1 3.455463 -16.238802 7.252212
734 0 1 4.134441 -15.619701 6.778106
735 0 1 5.006504 -15.204500 6.502624
736 0 1 5.452232 -14.719400 5.806655
737 0 1 4.492832 -14.702702 5.699889
738 0 1 4.349331 -15.476101 5.147674
739 0 1 5.138103 -15.869301 5.351439
740 0 1 5.990013 -16.220901 5.655028
741 0 1 6.408161 -16.181002 4.807815
742 0 1 6.527714 -16.780901 4.042861
743 0 1 5.581703 -16.728901 3.822555
744 0 1 4.813034 -16.835100 4.398574
745 0 1 4.506161 -16.464701 3.569412
746 0 1 4.190174 -17.218901 2.988616
747 0 1 4.458584 -17.809101 3.758666
748 0 1 4.773403 -18.533201 3.254943
749 0 1 5.399063 -18.520700 3.944656
750 0 1 6.239853 -18.657801 4.460784
751 0 1 6.737953 -19.446201 4.136855
752 0 1 6.458153 -20.001101 4.835494
753 0 1 6.847271 -20.669901 4.230803
754 0 1 7.327435 -21.523401 4.050155
755 0 1 7.130093 -22.311501 4.540633
756 0 1 6.395424 -22.753700 5.064208
757 0 1 5.985573 -23.632700 5.279937
758 0 1 4.956333 -23.468601 5.189651
759 0 1 4.341133 -23.798500 4.554076
760 0 1 3.866371 -23.219801 5.243651
761 0 1 3.060364 -22.798101 5.520843
762 0 1 2.543842 -23.142500 4.796233
763 0 1 1.675863 -23.364801 4.758574
764 0 1 1.104662 -24.079901 4.775115
765 0 1 0.394550 -23.873800 5.398665
766 0 1 1.142574 -23.437201 5.708739
767 0 1 1.054205 -22.531801 6.098617
768 0 1 1.672113 -21.799601 6.189452
769 0 1 1.922333 -20.867901 6.326201
770 0 1 2.409984 -20.546900 7.102782
771 0 1 3.044552 -19.800201 7.078719
772 0 1 3.726002 -19.112301 6.938125
773 0 1 4.076252 -18.966101 7.830413
774 0 1 4.473282 -19.439301 8.614684
775 0 1 3.462765 -19.520102 8.604857
776 0 1 2.904571 -20.086601 9.118926
777 0 1 2.821312 -20.276100 10.072799
778 0 1 2.473121 -20.629801 10.937301
779 0 1 2.363243 -21.507601 11.193892
780 0 1 2.112461 -22.410801 10.896697
781 0 1 2.561214 -22.162401 10.046493