LAMMPS data file via MDAnalysis

        2000  atoms
        1999  bonds
           0  angles
           0  dihedrals
           0  impropers

           1  atom types
           1  bond types
           0  angle types
           0  dihedral types
           0  improper types

-30.5 30.5 xlo xhi
-30.5 30.5 ylo yhi
-233.5 233.5 zlo zhi


Masses

1 1.000000

Atoms

1 0 1 -9.617884 10.634712 26.776184
2 0 1 -9.296453 10.874641 27.659607
3 0 1 -9.853083 10.109901 27.769989
4 0 1 -9.459715 9.376091 27.257599
5 0 1 -9.982763 8.964600 27.916016
6 0 1 -10.626673 8.393723 28.302185
7 0 1 -9.920143 7.930740 28.723114
8 0 1 -9.346443 7.742191 29.432495
9 0 1 -9.202694 6.996490 28.847595
10 0 1 -9.780573 6.697903 29.545593
11 0 1 -9.322594 6.293903 30.269409
12 0 1 -9.349443 6.215652 31.208710
13 0 1 -9.347454 7.173042 31.453705
14 0 1 -9.385183 7.888161 30.756897
15 0 1 -8.416574 7.939552 30.906616
16 0 1 -7.833693 8.490322 30.281097
17 0 1 -7.242804 7.785892 30.134003
18 0 1 -6.592875 8.427391 29.896790
19 0 1 -6.001314 8.709133 30.608704
20 0 1 -6.471983 8.385910 31.407013
21 0 1 -7.386225 8.485210 31.424896
22 0 1 -7.862804 9.156380 32.021790
23 0 1 -7.209574 9.869473 32.010101
24 0 1 -6.326803 10.249481 31.796112
25 0 1 -5.459944 10.353333 32.227600
26 0 1 -5.940474 11.101940 32.549194
27 0 1 -5.256893 11.352470 33.137604
28 0 1 -4.971834 11.953941 33.811707
29 0 1 -4.023682 11.926533 33.751404
30 0 1 -3.962446 11.250813 34.492310
31 0 1 -3.797773 10.659481 35.257690
32 0 1 -4.698313 10.721581 35.100891
33 0 1 -5.535553 10.706120 34.657715
34 0 1 -5.143684 10.334351 33.904510
35 0 1 -4.548029 9.590923 33.741913
36 0 1 -4.154947 9.083599 33.042114
37 0 1 -3.198298 9.038082 32.714600
38 0 1 -2.394323 9.523983 32.729401
39 0 1 -2.291143 8.535870 32.942413
40 0 1 -1.613543 8.984962 33.538605
41 0 1 -1.468794 9.275501 34.429810
42 0 1 -1.947023 9.243099 35.261200
43 0 1 -2.555193 9.898293 35.620789
44 0 1 -1.931345 9.901901 36.381897
45 0 1 -2.522644 10.322380 36.986084
46 0 1 -1.908075 9.916241 37.629303
47 0 1 -1.933813 9.014072 37.682587
48 0 1 -1.844603 8.412552 36.955383
49 0 1 -2.754343 8.107582 36.673889
50 0 1 -3.340332 8.888760 36.271484
51 0 1 -4.006132 8.423050 36.897888
52 0 1 -3.753939 8.817181 37.755188
53 0 1 -3.612537 8.266361 38.575989
54 0 1 -3.167929 7.919350 39.383606
55 0 1 -2.541094 7.356350 38.976990
56 0 1 -1.632074 7.697193 38.690887
57 0 1 -1.204844 7.828232 39.604095
58 0 1 -0.711084 7.966362 40.360901
59 0 1 -0.082476 8.696003 40.659088
60 0 1 0.729635 8.910259 41.140686
61 0 1 0.772158 9.219391 42.059296
62 0 1 0.322428 9.809731 42.748901
63 0 1 -0.548113 9.742722 43.306213
64 0 1 -0.916403 8.913033 43.209991
65 0 1 -0.477724 8.113350 43.471710
66 0 1 0.287374 8.172962 42.856201
67 0 1 1.077948 7.586071 42.705811
68 0 1 1.064428 7.970783 41.838287
69 0 1 1.171946 7.587200 40.919800
70 0 1 1.482008 8.337872 40.377686
71 0 1 2.179438 8.950352 40.012207
72 0 1 2.827688 9.467232 39.465698
73 0 1 3.348368 10.236691 39.771912
74 0 1 4.069487 10.081272 39.164490
75 0 1 4.456167 9.247070 38.972107
76 0 1 5.363997 8.902393 38.918304
77 0 1 6.205267 8.737911 39.315796
78 0 1 6.726835 9.583462 39.203308
79 0 1 6.411139 9.641071 38.369293
80 0 1 7.340239 9.173950 38.458801
81 0 1 6.761236 8.659443 37.844696
82 0 1 7.482737 9.196819 37.428101
83 0 1 8.218039 8.851299 37.906616
84 0 1 8.058134 7.871822 37.659698
85 0 1 7.742037 6.977242 37.547394
86 0 1 7.082636 6.323021 37.888702
87 0 1 7.728338 5.839161 37.310486
88 0 1 6.816736 5.585461 37.098694
89 0 1 6.583334 5.182480 36.250488
90 0 1 6.060175 4.371662 36.240692
91 0 1 6.100447 3.529201 36.716705
92 0 1 6.997835 3.843090 36.641388
93 0 1 6.986338 2.967260 36.929993
94 0 1 7.528234 2.158384 36.791290
95 0 1 8.453436 2.535675 36.812805
96 0 1 8.107737 2.939407 37.529205
97 0 1 8.323236 3.457130 38.333405
98 0 1 7.678137 4.088211 38.050415
99 0 1 8.402437 4.733891 38.227509
100 0 1 8.741335 4.961823 39.138489
101 0 1 9.509535 4.887253 38.578491
102 0 1 9.844534 5.244473 39.426788
103 0 1 9.411737 5.266151 40.233002
104 0 1 10.281637 5.407433 40.675415
105 0 1 10.161337 6.471832 40.813202
106 0 1 11.039137 6.960812 40.748199
107 0 1 11.816637 7.363972 41.061188
108 0 1 12.021238 6.470901 41.464600
109 0 1 12.586637 6.696163 40.721802
110 0 1 13.395239 6.205730 40.354309
111 0 1 14.091436 5.637043 40.776794
112 0 1 14.046137 4.814060 41.230408
113 0 1 13.898535 4.401413 40.327606
114 0 1 13.044737 4.041073 40.282410
115 0 1 13.305536 3.452511 39.573486
116 0 1 13.978437 3.406791 38.916504
117 0 1 14.126638 4.257183 38.462494
118 0 1 14.898436 4.289402 39.073608
119 0 1 15.798037 4.102463 38.840698
120 0 1 15.900137 4.492710 37.950409
121 0 1 16.641336 4.355412 37.380493
122 0 1 16.211035 5.128242 36.925110
123 0 1 15.230238 5.042023 37.186005
124 0 1 14.858938 4.245533 36.762695
125 0 1 14.652739 3.336172 36.803192
126 0 1 13.950338 3.412071 36.095306
127 0 1 13.203138 3.486690 35.399109
128 0 1 12.302038 3.347042 35.219299
129 0 1 12.532637 2.816427 34.427399
130 0 1 12.765936 2.358236 33.571716
131 0 1 12.360636 1.625913 34.133911
132 0 1 11.739538 0.940851 34.480988
133 0 1 11.490137 1.159672 33.541504
134 0 1 11.316637 1.199970 32.588501
135 0 1 10.763334 1.334766 31.832703
136 0 1 10.700537 0.397772 31.535492
137 0 1 9.964834 -0.219729 31.558289
138 0 1 10.194437 -0.518559 30.661591
139 0 1 10.673635 -0.809509 29.866302
140 0 1 10.342237 -0.492748 29.076813
141 0 1 10.820234 -0.358380 28.187195
142 0 1 10.259935 -0.666020 27.329590
143 0 1 9.590635 -1.206099 26.900513
144 0 1 9.656935 -2.105000 26.550110
145 0 1 10.212336 -2.536299 25.925201
146 0 1 9.567236 -2.557289 25.217804
147 0 1 9.506037 -3.228508 24.529114
148 0 1 9.421934 -3.304150 23.599701
149 0 1 9.717237 -2.328850 23.391510
150 0 1 9.458536 -1.999279 22.546112
151 0 1 9.208937 -1.734900 21.636292
152 0 1 8.274137 -1.833569 21.785706
153 0 1 8.413336 -2.022759 20.873001
154 0 1 7.785536 -2.725329 20.750198
155 0 1 8.489435 -2.818449 20.085602
156 0 1 8.799036 -1.979580 19.713394
157 0 1 9.658636 -1.667380 19.950699
158 0 1 9.830236 -1.619370 18.916199
159 0 1 10.711737 -1.748169 18.572800
160 0 1 10.917234 -2.711008 18.682205
161 0 1 10.224337 -3.399470 18.831299
162 0 1 10.428434 -3.603079 19.790192
163 0 1 11.373335 -3.594568 19.473801
164 0 1 12.122637 -4.100159 19.120193
165 0 1 11.579935 -4.839529 19.227798
166 0 1 12.260038 -5.455379 18.927795
167 0 1 11.439936 -5.904400 18.822403
168 0 1 10.564737 -6.361729 18.850296
169 0 1 9.905336 -7.128918 18.712708
170 0 1 9.747736 -6.840569 17.863205
171 0 1 8.831636 -6.659948 17.690002
172 0 1 8.926836 -6.438087 16.725998
173 0 1 9.280336 -5.542299 16.734604
174 0 1 9.461435 -5.081070 17.585098
175 0 1 8.939436 -5.222979 18.382599
176 0 1 9.011038 -5.247398 19.330902
177 0 1 8.485937 -5.535158 20.109604
178 0 1 8.549837 -6.393639 20.531708
179 0 1 9.273935 -6.882118 20.198303
180 0 1 10.165037 -6.530039 20.508499
181 0 1 10.080637 -7.476398 20.247803
182 0 1 10.259935 -8.376568 20.608200
183 0 1 9.734938 -8.074169 21.334198
184 0 1 10.534235 -7.670418 21.479996
185 0 1 11.449934 -7.763529 21.136902
186 0 1 11.698637 -8.376169 21.789703
187 0 1 11.557638 -8.980968 22.548401
188 0 1 12.392237 -8.556768 22.661194
189 0 1 12.909834 -9.284870 23.023315
190 0 1 13.073336 -9.028568 23.883789
191 0 1 13.525938 -9.685968 24.387695
192 0 1 13.477835 -10.343868 25.167297
193 0 1 12.967535 -10.856869 25.730713
194 0 1 12.397635 -10.604769 26.501495
195 0 1 13.257734 -10.237770 26.610809
196 0 1 13.322035 -10.634169 27.509003
197 0 1 13.924139 -10.943768 28.186707
198 0 1 13.574438 -11.863270 28.081787
199 0 1 12.658735 -11.961468 27.920593
200 0 1 12.069036 -11.612669 27.226685
201 0 1 11.699537 -12.333769 26.689087
202 0 1 12.195234 -13.093869 26.136292
203 0 1 11.347937 -13.364469 25.735291
204 0 1 11.043535 -13.989470 25.037292
205 0 1 10.999537 -14.558168 24.266907
206 0 1 11.046438 -15.485769 24.589508
207 0 1 11.661139 -15.200569 25.303802
208 0 1 11.928038 -16.133068 25.393097
209 0 1 11.661436 -16.123068 26.278412
210 0 1 11.544035 -16.961470 26.864288
211 0 1 11.363237 -16.449268 27.613586
212 0 1 10.557135 -15.969069 27.440613
213 0 1 9.741137 -15.397469 27.388489
214 0 1 9.197638 -15.021870 28.107605
215 0 1 9.444635 -15.114168 29.041595
216 0 1 10.272139 -15.714668 28.908905
217 0 1 9.832937 -16.531168 29.169800
218 0 1 9.636236 -17.084869 28.401184
219 0 1 8.829535 -16.757168 28.047211
220 0 1 8.301336 -17.255768 28.742401
221 0 1 7.523138 -16.682268 29.068207
222 0 1 7.239737 -16.235270 28.255798
223 0 1 6.334715 -16.589270 27.902496
224 0 1 5.678205 -15.975368 27.661713
225 0 1 4.959856 -15.798969 26.985504
226 0 1 4.775255 -15.110668 26.419006
227 0 1 5.683916 -15.248068 26.240692
228 0 1 6.102255 -16.167469 26.191284
229 0 1 6.548635 -15.458368 25.656494
230 0 1 6.282698 -14.973869 24.832489
231 0 1 5.394606 -14.739769 24.925812
232 0 1 4.605886 -14.599669 24.359314
233 0 1 3.929697 -14.076769 24.762909
234 0 1 4.365618 -13.407868 25.344696
235 0 1 4.194345 -13.904469 26.151093
236 0 1 4.097437 -12.954168 26.252197
237 0 1 4.388857 -12.095768 25.946899
238 0 1 3.704664 -12.063068 25.251007
239 0 1 3.494848 -12.425569 24.354401
240 0 1 2.682005 -12.311668 23.889496
241 0 1 1.856646 -11.912769 24.301086
242 0 1 1.942266 -12.066769 25.210388
243 0 1 1.449316 -12.157768 26.028412
244 0 1 0.583708 -12.309969 25.685211
245 0 1 0.027716 -12.263268 26.454590
246 0 1 -0.301474 -13.118669 26.553406
247 0 1 0.154497 -13.706769 25.896790
248 0 1 -0.114073 -13.003169 25.209106
249 0 1 -0.382994 -13.480569 24.391998
250 0 1 0.437216 -13.631168 23.888092
251 0 1 1.218267 -13.752469 24.395599
252 0 1 2.071188 -14.211269 24.389496
253 0 1 2.538095 -13.768269 25.141296
254 0 1 2.846098 -14.460468 25.797211
255 0 1 2.989496 -15.380968 25.591003
256 0 1 2.820288 -16.028170 24.863312
257 0 1 2.059477 -16.484068 25.283813
258 0 1 2.014357 -17.413769 25.741394
259 0 1 2.696478 -17.332069 26.422791
260 0 1 3.176214 -17.467468 27.264313
261 0 1 2.551977 -17.731869 28.007996
262 0 1 1.897196 -18.357470 28.345795
263 0 1 1.977335 -19.131769 28.881897
264 0 1 1.715658 -19.989868 28.574188
265 0 1 1.430376 -19.930168 29.459290
266 0 1 0.908655 -19.261869 28.986908
267 0 1 0.386415 -19.593769 28.269409
268 0 1 0.328905 -18.660568 27.859589
269 0 1 -0.003355 -18.291868 28.659210
270 0 1 0.474806 -17.620468 29.182098
271 0 1 -0.133314 -16.932369 29.163605
272 0 1 -0.537153 -17.697969 29.613800
273 0 1 -0.349485 -17.901369 30.559906
274 0 1 -0.453493 -18.508869 31.183899
275 0 1 -0.108263 -18.296768 32.032990
276 0 1 -0.385374 -17.790369 32.786102
277 0 1 -1.246344 -17.471369 32.953400
278 0 1 -1.860014 -17.222868 33.634888
279 0 1 -2.548853 -17.175968 32.994110
280 0 1 -2.324213 -18.005268 32.489807
281 0 1 -3.218431 -17.674669 32.242798
282 0 1 -3.135530 -18.507568 31.854889
283 0 1 -2.922880 -17.825169 31.193695
284 0 1 -3.867039 -17.540369 31.119904
285 0 1 -4.348087 -17.980370 31.827515
286 0 1 -4.148767 -18.753368 31.285889
287 0 1 -4.302782 -19.733870 31.358490
288 0 1 -3.719961 -20.395668 31.681091
289 0 1 -3.091934 -19.744068 31.331299
290 0 1 -3.207668 -20.298069 30.572601
291 0 1 -3.867853 -20.949369 30.654999
292 0 1 -4.592583 -20.462769 30.206299
293 0 1 -4.424854 -21.215469 29.597107
294 0 1 -5.108894 -21.880968 29.354095
295 0 1 -4.403873 -22.545069 29.518311
296 0 1 -3.818851 -22.006369 28.987396
297 0 1 -3.158823 -21.591469 28.411316
298 0 1 -3.418865 -20.778769 27.898895
299 0 1 -3.735317 -20.483568 27.067505
300 0 1 -3.899218 -20.821869 26.175598
301 0 1 -3.343662 -21.493568 25.638794
302 0 1 -3.695421 -22.374168 25.562988
303 0 1 -4.477205 -22.732868 25.063904
304 0 1 -3.707239 -22.552868 24.486511
305 0 1 -3.905968 -21.691669 24.806702
306 0 1 -3.422703 -21.199369 24.143494
307 0 1 -2.747711 -21.832970 24.283905
308 0 1 -2.055212 -22.504669 24.239014
309 0 1 -1.441423 -21.822569 23.725708
310 0 1 -0.689062 -22.243868 24.114807
311 0 1 -0.136225 -23.002169 23.838684
312 0 1 -0.510744 -23.439169 23.004913
313 0 1 -1.495855 -23.506868 22.700409
314 0 1 -1.543245 -22.540869 22.524414
315 0 1 -1.030493 -22.530169 21.727798
316 0 1 -0.926863 -21.903870 20.954193
317 0 1 -0.588095 -21.056870 21.265106
318 0 1 -1.290762 -20.473768 21.463898
319 0 1 -0.993464 -19.863268 22.128799
320 0 1 -0.999582 -18.906269 22.262802
321 0 1 -1.294012 -18.777369 23.213409
322 0 1 -1.827414 -19.347069 23.799988
323 0 1 -2.210323 -18.729069 24.546814
324 0 1 -3.018253 -18.981668 25.101501
325 0 1 -2.951332 -18.516869 25.930603
326 0 1 -3.662195 -18.461569 26.664490
327 0 1 -4.398148 -18.594269 27.265106
328 0 1 -5.305964 -18.563969 26.988708
329 0 1 -5.910583 -19.215469 26.551208
330 0 1 -6.036753 -19.705469 25.727692
331 0 1 -6.556694 -18.896568 25.791412
332 0 1 -5.899075 -18.830368 25.080292
333 0 1 -5.216845 -18.668268 25.727386
334 0 1 -5.454094 -17.825069 25.280396
335 0 1 -5.793694 -17.848469 26.161499
336 0 1 -6.486753 -18.133768 26.726196
337 0 1 -6.669643 -17.507870 27.417694
338 0 1 -6.714613 -17.033569 26.617615
339 0 1 -7.331444 -16.346869 26.965302
340 0 1 -6.845314 -16.314968 27.740112
341 0 1 -7.395323 -16.451868 28.495789
342 0 1 -7.840263 -15.629768 28.232208
343 0 1 -8.397383 -16.326868 28.510712
344 0 1 -9.022184 -15.614368 28.463593
345 0 1 -9.647284 -16.306170 28.218201
346 0 1 -9.701723 -16.254869 29.186890
347 0 1 -10.510004 -16.180368 29.797913
348 0 1 -11.419844 -16.290869 30.033508
349 0 1 -11.920034 -16.192669 30.858887
350 0 1 -11.026234 -16.495169 31.299103
351 0 1 -11.235903 -15.519669 31.205505
352 0 1 -11.145174 -14.628368 30.909607
353 0 1 -11.589933 -14.004768 30.334290
354 0 1 -11.074934 -13.295769 29.993286
355 0 1 -11.924213 -12.876369 29.793213
356 0 1 -12.582254 -12.459969 30.323486
357 0 1 -13.184153 -11.730268 30.352997
358 0 1 -13.044413 -11.777668 31.374908
359 0 1 -13.413303 -11.423470 32.120483
360 0 1 -14.029163 -10.902569 31.422791
361 0 1 -14.738064 -10.307968 31.214111
362 0 1 -15.205065 -10.877869 31.840912
363 0 1 -15.493563 -11.509068 31.096100
364 0 1 -16.380465 -11.575668 30.783997
365 0 1 -16.814264 -10.902870 31.295593
366 0 1 -16.322964 -10.978668 32.048889
367 0 1 -16.516165 -10.401169 32.848389
368 0 1 -15.869062 -9.697168 33.064697
369 0 1 -16.581064 -9.736769 33.712311
370 0 1 -15.840464 -10.346970 33.794800
371 0 1 -15.456364 -9.998070 34.624817
372 0 1 -16.161863 -9.435669 34.831909
373 0 1 -15.701563 -8.784369 35.386993
374 0 1 -14.803564 -9.171169 35.658997
375 0 1 -14.236864 -8.654169 35.019714
376 0 1 -14.583464 -9.428968 34.618988
377 0 1 -15.252064 -8.711569 34.391785
378 0 1 -14.860064 -8.469368 33.548889
379 0 1 -14.048063 -7.945568 33.326691
380 0 1 -13.663164 -8.463970 32.659912
381 0 1 -13.349064 -7.677639 32.400085
382 0 1 -14.157864 -7.154629 32.580505
383 0 1 -13.923264 -6.301128 32.885315
384 0 1 -13.633024 -5.497528 33.186707
385 0 1 -14.033663 -5.318789 32.280792
386 0 1 -14.381763 -5.339748 31.434387
387 0 1 -14.543962 -5.033188 30.574402
388 0 1 -14.528563 -4.251228 31.171692
389 0 1 -15.433064 -4.589699 31.279297
390 0 1 -15.581465 -4.219488 30.377106
391 0 1 -15.932364 -3.349699 30.633301
392 0 1 -16.834063 -3.785618 30.829407
393 0 1 -17.253963 -2.928919 31.033905
394 0 1 -17.272264 -2.264139 30.357788
395 0 1 -16.711264 -1.551209 30.737396
396 0 1 -16.372763 -2.406368 30.962708
397 0 1 -15.884264 -2.741589 31.751587
398 0 1 -14.994062 -3.022049 32.113098
399 0 1 -14.299963 -3.126389 31.488708
400 0 1 -14.101263 -2.642769 32.335297
401 0 1 -13.510954 -2.019009 31.999512
402 0 1 -12.751314 -2.545979 32.266785
403 0 1 -12.366943 -3.288788 31.697510
404 0 1 -11.542034 -3.271670 32.159210
405 0 1 -11.026194 -2.671499 31.540894
406 0 1 -10.185133 -2.709389 31.962708
407 0 1 -10.239943 -3.405810 32.620697
408 0 1 -9.667063 -3.942499 32.159607
409 0 1 -9.722504 -4.463949 32.940887
410 0 1 -9.063944 -4.965790 33.352112
411 0 1 -8.885473 -4.674438 34.258698
412 0 1 -8.473873 -5.491718 34.625610
413 0 1 -7.957434 -4.743839 34.964691
414 0 1 -8.141394 -5.103348 35.819794
415 0 1 -8.170053 -6.019680 36.042694
416 0 1 -8.520353 -5.665209 36.908905
417 0 1 -8.054663 -5.834129 37.782715
418 0 1 -7.527254 -5.134619 37.243988
419 0 1 -6.819494 -4.490229 37.440491
420 0 1 -5.907894 -4.661678 37.397888
421 0 1 -4.977293 -4.536728 37.133606
422 0 1 -5.020004 -5.115469 37.866699
423 0 1 -4.740654 -5.564959 38.713287
424 0 1 -4.258148 -6.328159 38.482697
425 0 1 -3.705622 -5.686079 39.020996
426 0 1 -2.784790 -5.816109 38.713501
427 0 1 -2.708591 -6.637218 38.272797
428 0 1 -3.185799 -7.450508 38.283508
429 0 1 -2.847374 -7.169628 37.358887
430 0 1 -2.645145 -7.656300 36.526794
431 0 1 -1.949762 -6.963367 36.653595
432 0 1 -1.966665 -6.019268 36.535004
433 0 1 -1.442503 -5.872990 37.302490
434 0 1 -1.080313 -5.061520 36.940186
435 0 1 -0.727514 -4.505308 36.259613
436 0 1 -0.512873 -4.896479 35.319092
437 0 1 0.388205 -4.517229 35.346313
438 0 1 0.792486 -3.839709 34.756805
439 0 1 1.238398 -3.798310 33.828888
440 0 1 1.878317 -4.358459 34.197388
441 0 1 2.310457 -4.935879 33.585297
442 0 1 2.408747 -5.884468 33.351501
443 0 1 2.020967 -6.473499 34.010406
444 0 1 1.268335 -5.850149 33.778992
445 0 1 0.862116 -6.689089 33.487793
446 0 1 0.146627 -6.200768 33.067993
447 0 1 -0.357103 -6.302309 32.174316
448 0 1 -0.426474 -5.366699 31.917908
449 0 1 -0.581423 -4.569639 32.468201
450 0 1 -0.589155 -4.000229 33.251495
451 0 1 -1.548735 -3.775158 33.380615
452 0 1 -1.511084 -4.040379 32.423492
453 0 1 -2.078196 -3.283169 32.570496
454 0 1 -2.268684 -2.362990 32.339417
455 0 1 -3.209562 -2.338749 32.433594
456 0 1 -3.544523 -2.942158 31.710907
457 0 1 -3.708324 -3.380549 30.851685
458 0 1 -4.471926 -3.509060 30.350098
459 0 1 -3.911451 -3.231200 29.710297
460 0 1 -3.142399 -3.674938 30.109192
461 0 1 -3.109516 -4.615709 29.809387
462 0 1 -2.450073 -4.556299 30.527191
463 0 1 -1.845133 -5.121979 30.014099
464 0 1 -1.265894 -4.950279 29.298798
465 0 1 -1.551912 -4.097679 29.106506
466 0 1 -1.102694 -4.170719 28.136108
467 0 1 -0.645002 -3.880230 27.392487
468 0 1 -0.517584 -3.014038 26.972900
469 0 1 -0.060843 -2.281010 27.354401
470 0 1 0.752947 -2.009508 27.794312
471 0 1 1.399446 -2.030649 28.627197
472 0 1 1.884596 -1.235838 29.095398
473 0 1 2.611258 -1.417269 29.803802
474 0 1 1.901415 -1.295899 30.496094
475 0 1 2.406378 -0.440499 30.460297
476 0 1 2.170717 0.225872 31.136505
477 0 1 1.239607 0.402752 31.457886
478 0 1 1.762346 1.215328 31.443604
479 0 1 0.902178 1.552059 31.796204
480 0 1 1.088846 2.178138 32.497406
481 0 1 1.459787 2.414972 31.581207
482 0 1 0.805517 2.453809 30.891205
483 0 1 0.972258 3.299051 31.316010
484 0 1 1.074175 3.313850 32.269196
485 0 1 1.344816 3.254572 33.240601
486 0 1 2.031355 2.876663 32.663300
487 0 1 3.012175 2.915386 32.394897
488 0 1 3.353266 2.933948 31.473999
489 0 1 3.993948 2.639482 30.857788
490 0 1 4.081995 3.562641 30.480286
491 0 1 4.526415 4.347542 30.153412
492 0 1 5.439486 4.433071 30.012787
493 0 1 5.024065 4.997829 29.361511
494 0 1 4.321695 4.525932 28.973511
495 0 1 4.170485 4.809460 28.061798
496 0 1 4.165216 5.729523 28.183289
497 0 1 3.271875 5.387192 28.453003
498 0 1 2.535807 5.673092 28.974701
499 0 1 2.416178 6.558842 29.439606
500 0 1 2.846495 7.343040 29.257996
501 0 1 3.617907 7.245461 28.699890
502 0 1 4.185476 7.452183 27.937286
503 0 1 4.879484 7.187283 28.614197
504 0 1 5.321527 7.722771 27.893402
505 0 1 5.544237 8.211460 27.061188
506 0 1 5.433706 8.990421 26.495514
507 0 1 4.694056 8.940990 25.891907
508 0 1 5.607916 8.984482 25.424408
509 0 1 6.475134 8.609203 25.088898
510 0 1 6.258818 7.731133 24.887390
511 0 1 5.791136 7.443943 24.023315
512 0 1 6.351416 8.098183 23.647705
513 0 1 7.089437 8.728111 23.614807
514 0 1 6.944937 8.809032 22.684998
515 0 1 6.672735 9.750881 22.486603
516 0 1 5.709875 9.997200 22.650696
517 0 1 4.951208 9.627762 23.089996
518 0 1 4.681295 10.537212 22.893188
519 0 1 4.613417 11.319702 23.414612
520 0 1 3.838186 11.588051 23.024506
521 0 1 4.219168 12.199600 22.380997
522 0 1 4.259535 12.905731 23.065399
523 0 1 3.898905 13.807232 22.720398
524 0 1 3.801878 14.256332 21.878006
525 0 1 3.858114 15.201530 21.669907
526 0 1 3.321627 15.817730 21.123795
527 0 1 3.877436 16.384430 20.491699
528 0 1 4.630327 16.598831 21.111801
529 0 1 5.208265 17.336430 21.483597
530 0 1 5.783247 16.607132 21.649200
531 0 1 6.087996 15.665730 21.477692
532 0 1 6.841536 16.352631 21.577393
533 0 1 7.132837 16.439232 20.643097
534 0 1 7.704737 15.688633 20.759399
535 0 1 8.724836 16.002529 20.793594
536 0 1 8.699335 16.506229 19.913498
537 0 1 9.050737 17.187832 20.455093
538 0 1 9.091635 18.197731 20.362106
539 0 1 9.707136 18.029331 21.135300
540 0 1 9.079836 18.642933 21.552200
541 0 1 9.547136 18.425129 22.348602
542 0 1 10.305738 18.689732 22.822906
543 0 1 11.217634 18.567333 22.957886
544 0 1 10.972635 18.110531 22.110107
545 0 1 10.810637 18.571732 21.313507
546 0 1 11.203138 19.341732 21.791794
547 0 1 11.893538 19.726933 22.338104
548 0 1 11.946238 20.590530 23.009796
549 0 1 11.175837 21.132229 23.201508
550 0 1 10.878237 20.337833 22.581207
551 0 1 10.136835 20.695732 22.109299
552 0 1 9.230837 20.422733 21.949295
553 0 1 9.300238 21.290730 22.460999
554 0 1 8.586836 21.641731 21.792297
555 0 1 7.916437 21.629230 21.073502
556 0 1 7.183237 21.437431 21.641907
557 0 1 6.607237 22.093330 21.205795
558 0 1 6.485037 23.021732 20.979492
559 0 1 5.512808 23.140629 21.151703
560 0 1 4.664564 23.183430 21.621704
561 0 1 4.609457 22.813129 20.750504
562 0 1 4.253878 22.350330 20.031494
563 0 1 4.722746 21.793629 19.448792
564 0 1 4.854788 20.895229 19.829407
565 0 1 5.406195 20.156631 19.621201
566 0 1 5.106794 20.055931 18.702103
567 0 1 5.343168 20.448032 17.852295
568 0 1 6.182798 20.818829 17.952698
569 0 1 6.344316 21.045330 17.072296
570 0 1 5.824408 21.537128 16.429993
571 0 1 6.171106 22.232830 15.786697
572 0 1 6.846437 21.522430 15.921906
573 0 1 7.343534 21.477631 16.720398
574 0 1 7.445234 20.499630 16.812500
575 0 1 7.739836 20.617931 15.886795
576 0 1 7.978235 20.517632 14.932297
577 0 1 8.457235 21.071934 14.338104
578 0 1 8.971735 21.800331 14.008301
579 0 1 8.436438 21.829330 13.223099
580 0 1 9.135637 22.456432 13.029205
581 0 1 9.515738 21.605129 12.871506
582 0 1 9.647337 20.612331 13.078400
583 0 1 9.480536 19.686131 13.176804
584 0 1 10.009935 18.951031 13.674194
585 0 1 9.067537 18.737930 13.837906
586 0 1 9.053137 19.123730 14.675003
587 0 1 8.166636 19.318130 14.547195
588 0 1 7.936438 18.440929 14.636902
589 0 1 7.993635 17.682732 15.214508
590 0 1 7.468435 16.910431 15.538605
591 0 1 6.746836 17.540234 15.408997
592 0 1 5.878508 17.231831 15.029099
593 0 1 5.021826 17.633533 14.774994
594 0 1 4.961615 16.621433 14.873795
595 0 1 4.244398 16.234730 14.456406
596 0 1 3.594267 16.825932 14.030197
597 0 1 2.785196 17.419331 14.062302
598 0 1 3.219797 17.995232 14.695892
599 0 1 2.732195 17.195332 15.007599
600 0 1 1.789248 17.290932 14.792908
601 0 1 1.018408 16.915234 14.288498
602 0 1 0.516466 17.305233 15.005295
603 0 1 0.572115 16.452129 15.365601
604 0 1 0.063597 15.840332 15.916702
605 0 1 -0.714674 16.026432 15.341202
606 0 1 -1.462423 16.666729 15.274796
607 0 1 -1.769064 16.356831 14.382904
608 0 1 -1.874685 17.204132 13.888306
609 0 1 -2.029615 17.684631 14.711395
610 0 1 -1.526453 18.481030 14.859894
611 0 1 -1.723772 19.334831 15.234192
612 0 1 -2.559023 19.032330 15.621506
613 0 1 -2.961353 18.244331 15.961304
614 0 1 -3.760250 17.894329 15.501999
615 0 1 -3.408915 17.139332 14.963699
616 0 1 -3.364344 16.268730 14.532700
617 0 1 -3.512594 15.730930 15.318298
618 0 1 -2.769045 15.742531 15.898895
619 0 1 -2.088682 16.165833 16.398804
620 0 1 -2.868313 16.655632 16.175903
621 0 1 -3.171064 16.818531 17.057007
622 0 1 -3.898468 16.504131 17.593201
623 0 1 -3.738420 15.815331 18.205200
624 0 1 -3.220407 15.126133 17.830795
625 0 1 -3.630129 14.560032 17.135803
626 0 1 -3.539440 13.646233 17.024796
627 0 1 -2.708040 13.196430 16.851395
628 0 1 -2.502005 12.528831 16.223907
629 0 1 -2.198093 11.991451 15.449997
630 0 1 -1.606535 11.249279 15.338196
631 0 1 -1.449286 11.738293 16.128799
632 0 1 -1.658464 10.974400 16.623993
633 0 1 -1.457033 10.066780 16.309494
634 0 1 -2.229214 9.648430 15.904907
635 0 1 -2.912270 9.693291 15.297699
636 0 1 -2.839674 9.608162 14.390198
637 0 1 -2.924099 9.114193 13.628601
638 0 1 -2.396774 8.942970 12.795700
639 0 1 -2.802193 8.776901 11.976593
640 0 1 -3.553204 9.344791 11.770508
641 0 1 -4.302395 8.939381 11.344803
642 0 1 -3.894964 8.089420 10.978104
643 0 1 -4.742144 7.765923 11.012695
644 0 1 -4.253719 7.310932 10.389694
645 0 1 -3.998909 6.795750 11.099503
646 0 1 -3.403427 6.010700 11.042694
647 0 1 -3.670444 5.641033 11.856003
648 0 1 -2.872875 5.449001 12.416306
649 0 1 -3.355108 4.619663 12.542603
650 0 1 -3.606386 4.486523 11.646896
651 0 1 -3.557175 3.742500 11.081696
652 0 1 -3.564026 4.207180 10.250504
653 0 1 -2.589544 4.105659 10.318695
654 0 1 -2.301384 3.261732 10.475098
655 0 1 -2.003355 2.345649 10.288406
656 0 1 -1.733862 1.858948 11.136200
657 0 1 -2.290634 1.120861 11.371796
658 0 1 -2.840439 0.774851 12.001007
659 0 1 -2.723999 0.395080 12.900299
660 0 1 -3.460766 0.892111 13.317795
661 0 1 -2.586704 1.276621 13.489700
662 0 1 -1.947123 1.883854 13.210297
663 0 1 -2.410723 2.253198 13.933807
664 0 1 -2.619623 2.817098 14.648300
665 0 1 -2.013613 3.547691 14.684097
666 0 1 -1.551855 2.673694 15.044907
667 0 1 -1.748232 1.754682 15.357193
668 0 1 -0.811445 1.849865 15.513199
669 0 1 -0.162565 1.582723 16.174103
670 0 1 -0.910513 1.051950 16.196503
671 0 1 -1.373983 1.219335 17.040894
672 0 1 -1.294302 0.837942 17.944702
673 0 1 -0.695402 1.516599 18.322693
674 0 1 -0.553244 1.616028 19.280701
675 0 1 -0.972033 1.111650 19.935303
676 0 1 -1.714674 0.567772 20.264008
677 0 1 -2.628674 0.852852 20.347900
678 0 1 -3.527729 0.719641 19.930908
679 0 1 -3.254623 1.409572 19.330505
680 0 1 -4.026546 1.993192 19.522598
681 0 1 -4.320984 2.887415 19.751297
682 0 1 -3.936283 3.387161 19.100906
683 0 1 -3.893234 4.286640 19.326004
684 0 1 -3.723190 5.013371 19.912506
685 0 1 -3.967623 4.490520 20.673904
686 0 1 -3.269133 4.379032 21.290802
687 0 1 -3.686630 4.186691 22.098099
688 0 1 -4.015287 4.811371 22.789093
689 0 1 -4.705923 4.932133 23.454987
690 0 1 -5.601244 4.906750 23.084686
691 0 1 -5.531485 3.941982 23.265411
692 0 1 -5.977243 3.239641 22.907990
693 0 1 -6.775833 3.038694 23.492493
694 0 1 -7.042873 3.654402 24.136414
695 0 1 -6.939444 2.736212 24.509888
696 0 1 -7.714914 2.650825 25.166016
697 0 1 -8.113073 1.834827 24.865814
698 0 1 -9.015364 1.715692 25.232788
699 0 1 -8.813753 0.829851 25.041595
700 0 1 -9.090584 0.668131 25.941711
701 0 1 -8.876934 -0.146319 26.285889
702 0 1 -8.503893 -0.504559 27.139008
703 0 1 -7.846334 -1.032009 26.583588
704 0 1 -7.491854 -1.449009 25.777588
705 0 1 -6.655535 -1.713209 26.201599
706 0 1 -6.127533 -1.657789 25.409088
707 0 1 -5.177973 -1.640450 25.654510
708 0 1 -4.251217 -1.485989 25.832397
709 0 1 -4.320496 -2.157580 25.103088
710 0 1 -4.790363 -2.948910 24.889893
711 0 1 -4.609064 -2.600310 24.047791
712 0 1 -4.205740 -3.444309 24.234985
713 0 1 -4.864153 -3.915890 23.676514
714 0 1 -4.234535 -4.291239 22.989899
715 0 1 -4.550608 -5.160959 22.607513
716 0 1 -5.527084 -5.530209 22.618988
717 0 1 -5.226753 -6.376648 22.432007
718 0 1 -5.809254 -6.525787 23.221588
719 0 1 -6.696095 -6.141979 23.083801
720 0 1 -6.727974 -6.618769 22.245499
721 0 1 -6.330664 -7.479359 22.531616
722 0 1 -5.994074 -7.213440 21.725098
723 0 1 -6.112793 -7.680378 20.882599
724 0 1 -5.875694 -8.270168 20.226700
725 0 1 -6.278833 -8.074070 19.321899
726 0 1 -5.694874 -8.265669 18.574402
727 0 1 -5.744854 -9.092468 18.196396
728 0 1 -6.540113 -9.754368 18.361099
729 0 1 -7.216124 -9.233368 18.756104
730 0 1 -7.779474 -8.760468 18.179794
731 0 1 -7.736134 -7.972668 18.703094
732 0 1 -7.791374 -7.197887 18.204498
733 0 1 -7.936134 -6.405708 17.682495
734 0 1 -8.671164 -5.734619 17.583603
735 0 1 -8.924614 -5.083199 16.963699
736 0 1 -8.234764 -4.566898 16.482803
737 0 1 -8.107784 -3.729180 15.979202
738 0 1 -7.330904 -3.282469 15.530701
739 0 1 -6.848303 -3.460079 14.744400
740 0 1 -6.256474 -4.031368 14.320404
741 0 1 -6.167774 -4.548508 15.129807
742 0 1 -6.478384 -5.265049 14.662399
743 0 1 -7.384544 -4.991489 14.453598
744 0 1 -6.795815 -5.384989 13.787796
745 0 1 -6.572325 -4.659359 13.118301
746 0 1 -5.688883 -5.156109 13.233093
747 0 1 -4.930454 -5.087259 13.871002
748 0 1 -4.445400 -4.332760 14.081802
749 0 1 -5.031134 -3.685169 13.675201
750 0 1 -4.065258 -3.345978 13.765594
751 0 1 -3.437252 -2.656708 13.468094
752 0 1 -3.252947 -2.944529 12.586304
753 0 1 -3.735262 -2.322930 12.053406
754 0 1 -4.641693 -2.452408 12.290497
755 0 1 -5.530113 -2.350939 11.995804
756 0 1 -6.079494 -1.680159 11.576904
757 0 1 -5.823023 -0.827179 11.137894
758 0 1 -5.077213 -0.462589 11.668900
759 0 1 -5.754204 0.181442 11.877197
760 0 1 -6.512814 0.369612 12.418900
761 0 1 -6.906433 0.666000 11.600998
762 0 1 -7.453363 -0.014399 11.223206
763 0 1 -8.130663 0.545721 10.871094
764 0 1 -8.282804 1.465772 11.010605
765 0 1 -8.479244 1.343385 10.069107
766 0 1 -7.787264 0.724380 9.745148
767 0 1 -6.903284 0.301191 9.491455
768 0 1 -6.437763 -0.418999 8.955856
769 0 1 -5.419523 -0.405159 9.149994
770 0 1 -4.646864 -0.906429 9.464066
771 0 1 -5.378244 -1.681669 9.316223
772 0 1 -4.730734 -1.932900 8.593155
773 0 1 -4.413916 -1.314329 7.894760
774 0 1 -4.146202 -1.963679 7.190750
775 0 1 -3.568130 -2.698519 7.119720
776 0 1 -2.850307 -2.751269 6.513916
777 0 1 -1.981005 -2.260060 6.848724
778 0 1 -1.334784 -1.461548 7.024353
779 0 1 -0.875105 -0.910849 7.775574
780 0 1 -1.359682 -0.079708 7.726913
781 0 1 -1.733294 0.768011 7.881821
782 0 1 -1.243555 1.286323 8.580292
783 0 1 -1.209253 2.015066 9.258530
784 0 1 -2.094732 2.373234 8.972870
785 0 1 -1.630995 3.070074 8.527145
786 0 1 -0.772005 3.195892 8.624954
787 0 1 -0.663424 2.991216 7.629578
788 0 1 -0.782644 3.392092 6.749054
789 0 1 0.146776 3.799789 6.754181
790 0 1 0.313547 4.799450 6.845215