LAMMPS data file via MDAnalysis

        2000  atoms
        1999  bonds
           0  angles
           0  dihedrals
           0  impropers

           1  atom types
           1  bond types
           0  angle types
           0  dihedral types
           0  improper types

-30.5 30.5 xlo xhi
-30.5 30.5 ylo yhi
-233.5 233.5 zlo zhi


Masses

1 1.000000

Atoms

1 0 1 -14.311514 -18.140863 55.562408
2 0 1 -13.531214 -17.683264 55.962891
3 0 1 -13.320616 -16.765863 55.717194
4 0 1 -14.150213 -16.770164 55.280609
5 0 1 -14.972715 -16.306564 55.410309
6 0 1 -14.980215 -15.520763 56.042999
7 0 1 -13.982815 -15.389263 55.977112
8 0 1 -13.965315 -15.610264 56.966187
9 0 1 -13.214815 -16.148464 56.542114
10 0 1 -12.457315 -16.220163 57.161102
11 0 1 -11.820515 -15.731564 57.677002
12 0 1 -12.462515 -15.200464 58.213287
13 0 1 -12.176815 -14.331564 57.908508
14 0 1 -11.631115 -14.028963 57.186096
15 0 1 -12.063814 -14.679064 56.711487
16 0 1 -12.332815 -14.168364 55.981293
17 0 1 -12.469114 -13.438364 55.407501
18 0 1 -13.235315 -12.983264 55.007812
19 0 1 -13.914614 -13.413964 55.571808
20 0 1 -14.531916 -13.406363 56.330200
21 0 1 -15.395514 -13.968365 56.227783
22 0 1 -15.848314 -13.247663 55.818695
23 0 1 -16.480314 -13.614163 56.476807
24 0 1 -16.920414 -13.403664 57.306885
25 0 1 -17.496214 -12.681264 57.115204
26 0 1 -18.160215 -13.111164 57.622803
27 0 1 -18.000715 -13.291264 58.543213
28 0 1 -18.264114 -14.094564 57.959412
29 0 1 -18.744415 -15.021963 58.173309
30 0 1 -17.960415 -15.533264 57.812988
31 0 1 -17.983614 -15.811764 58.702087
32 0 1 -17.761814 -16.688963 58.453705
33 0 1 -18.518015 -16.607664 59.161713
34 0 1 -18.784115 -16.080164 59.992889
35 0 1 -17.839514 -15.905165 60.243500
36 0 1 -18.135115 -15.168465 59.628113
37 0 1 -17.486115 -14.503164 59.898590
38 0 1 -17.671814 -13.538264 60.161896
39 0 1 -18.520914 -13.383764 60.449799
40 0 1 -18.285715 -13.423464 61.425903
41 0 1 -17.491116 -12.945164 61.846985
42 0 1 -17.550714 -12.619264 60.931610
43 0 1 -17.003716 -11.765663 61.138397
44 0 1 -16.095215 -11.948664 61.482605
45 0 1 -15.763615 -12.538664 62.191193
46 0 1 -14.797316 -12.552764 62.375488
47 0 1 -15.076414 -13.179864 63.004608
48 0 1 -14.540714 -13.991564 62.792206
49 0 1 -14.429514 -14.762264 63.340393
50 0 1 -14.614414 -14.557663 64.214996
51 0 1 -14.240614 -14.985264 64.969604
52 0 1 -14.829414 -15.699064 64.671600
53 0 1 -15.432115 -15.393265 65.410217
54 0 1 -14.790014 -14.896263 65.876495
55 0 1 -14.368013 -14.095663 65.537689
56 0 1 -14.784216 -13.213464 65.906006
57 0 1 -15.293514 -13.096764 66.694885
58 0 1 -16.178514 -13.341763 66.755615
59 0 1 -16.752316 -13.453564 67.523895
60 0 1 -16.600513 -12.507664 67.406494
61 0 1 -17.185415 -12.665463 66.673798
62 0 1 -17.630514 -13.148164 65.989319
63 0 1 -17.905514 -14.043964 66.182617
64 0 1 -18.283815 -13.826164 67.020386
65 0 1 -18.889515 -13.294064 66.507019
66 0 1 -19.161615 -13.646664 65.697998
67 0 1 -18.695015 -12.903064 65.324707
68 0 1 -17.964514 -12.855763 64.748810
69 0 1 -17.803314 -12.692863 63.842194
70 0 1 -18.228615 -11.820364 63.922394
71 0 1 -17.474915 -11.229164 64.036987
72 0 1 -16.657314 -10.721165 64.141602
73 0 1 -15.769915 -10.839264 63.793396
74 0 1 -15.585614 -11.384563 63.019592
75 0 1 -14.935915 -11.418465 63.775696
76 0 1 -14.003916 -11.406563 63.564301
77 0 1 -14.050215 -11.657463 64.555695
78 0 1 -13.932014 -11.109463 65.373810
79 0 1 -13.448915 -10.345264 65.122009
80 0 1 -13.428614 -10.040564 64.214417
81 0 1 -12.709015 -10.609962 63.945404
82 0 1 -11.917515 -10.119263 63.862396
83 0 1 -11.225115 -10.798065 63.509613
84 0 1 -11.293715 -11.774265 63.513397
85 0 1 -11.983915 -12.319164 63.799988
86 0 1 -11.923014 -12.587364 64.682892
87 0 1 -11.079615 -13.083364 64.852203
88 0 1 -10.254055 -13.486264 65.202209
89 0 1 -9.533434 -14.057064 65.592010
90 0 1 -10.282845 -14.604565 65.682617
91 0 1 -10.326376 -14.440763 64.741516
92 0 1 -11.091715 -14.480064 64.134583
93 0 1 -10.935415 -15.248663 63.563599
94 0 1 -11.678514 -14.986164 62.993591
95 0 1 -12.282715 -15.729664 63.169098
96 0 1 -11.470613 -16.158363 63.260803
97 0 1 -11.080814 -16.137564 64.150604
98 0 1 -10.608885 -16.967863 64.022217
99 0 1 -9.872244 -17.494564 63.726990
100 0 1 -10.741915 -17.851664 63.434387
101 0 1 -11.162115 -18.589165 63.969910
102 0 1 -10.990614 -18.234764 64.849701
103 0 1 -11.047316 -19.076164 65.336487
104 0 1 -11.867014 -19.585665 65.147217
105 0 1 -12.142714 -19.967863 65.971405
106 0 1 -11.744514 -20.808764 65.726410
107 0 1 -12.431515 -20.850763 65.097107
108 0 1 -13.085115 -21.220163 65.685699
109 0 1 -13.873915 -20.766363 65.741302
110 0 1 -14.796415 -20.630163 65.896790
111 0 1 -14.564714 -21.471764 66.356903
112 0 1 -14.605116 -21.044165 67.252686
113 0 1 -13.948614 -21.178663 67.895386
114 0 1 -14.582914 -20.797264 68.556519
115 0 1 -15.246715 -20.055563 68.829895
116 0 1 -14.909716 -19.603363 69.660889
117 0 1 -15.690615 -19.861763 70.147583
118 0 1 -16.156713 -19.462065 70.857788
119 0 1 -16.690313 -19.597464 71.693115
120 0 1 -16.420713 -19.892763 72.538086
121 0 1 -15.563415 -19.803864 72.211090
122 0 1 -15.577015 -18.856863 72.312683
123 0 1 -14.860315 -18.643663 71.714905
124 0 1 -15.169016 -17.642864 71.694702
125 0 1 -15.274115 -16.924364 72.380493
126 0 1 -15.088114 -17.749464 72.901794
127 0 1 -14.389515 -18.245863 72.478210
128 0 1 -13.889914 -18.539864 73.243591
129 0 1 -13.124716 -19.161064 73.040894
130 0 1 -12.644613 -18.219263 72.955597
131 0 1 -12.552515 -17.507664 73.625793
132 0 1 -12.648415 -16.577864 73.510590
133 0 1 -11.987015 -16.266363 72.897888
134 0 1 -11.417015 -15.517864 72.688507
135 0 1 -11.137316 -15.492165 71.746399
136 0 1 -12.085615 -15.579865 71.560608
137 0 1 -12.385015 -16.449764 71.257904
138 0 1 -11.544214 -16.745665 70.854309
139 0 1 -12.054214 -17.468763 70.614014
140 0 1 -12.127914 -18.055464 69.882019
141 0 1 -13.020216 -18.467464 69.870697
142 0 1 -13.259714 -18.408863 68.960999
143 0 1 -12.543116 -19.006865 68.717499
144 0 1 -11.628815 -18.643364 68.980011
145 0 1 -10.996815 -18.072964 69.486603
146 0 1 -10.650446 -17.190664 69.347809
147 0 1 -9.758036 -16.678864 69.639191
148 0 1 -9.106764 -17.304363 70.003418
149 0 1 -8.501644 -17.979164 70.026703
150 0 1 -7.936455 -17.845863 69.234589
151 0 1 -8.457254 -18.545763 68.813110
152 0 1 -8.882704 -17.911863 68.182312
153 0 1 -9.255955 -18.151863 67.367798
154 0 1 -8.760046 -17.344564 67.368408
155 0 1 -9.089266 -17.592564 66.505402
156 0 1 -8.840645 -17.731863 65.541290
157 0 1 -8.186834 -17.030563 65.279999
158 0 1 -7.397734 -16.408363 65.397003
159 0 1 -7.044235 -15.970163 64.716919
160 0 1 -6.420404 -15.580463 64.129303
161 0 1 -5.786005 -15.302164 63.476196
162 0 1 -6.207264 -14.915264 62.700195
163 0 1 -5.760916 -15.716164 62.218109
164 0 1 -5.947094 -15.834864 61.237701
165 0 1 -6.789375 -15.680664 61.561096
166 0 1 -7.710566 -15.519863 61.832092
167 0 1 -8.544674 -15.941963 61.633606
168 0 1 -8.632244 -15.857164 60.689514
169 0 1 -9.471106 -15.603664 60.432495
170 0 1 -9.452795 -14.596563 60.399902
171 0 1 -9.824425 -13.864564 60.008911
172 0 1 -9.777164 -14.094864 59.058990
173 0 1 -9.376863 -13.271564 58.847412
174 0 1 -8.795866 -13.058764 58.117004
175 0 1 -8.035955 -13.543263 58.517303
176 0 1 -7.291464 -13.038464 58.552399
177 0 1 -7.805405 -12.257965 58.400787
178 0 1 -8.089224 -11.374664 58.127991
179 0 1 -7.576935 -11.570465 57.304199
180 0 1 -7.149975 -10.964064 57.851990
181 0 1 -7.084894 -10.581364 56.919617
182 0 1 -6.562704 -10.201664 56.179016
183 0 1 -6.089695 -9.343765 56.170990
184 0 1 -6.408224 -8.428164 56.377502
185 0 1 -6.441355 -7.493664 56.507690
186 0 1 -6.860155 -7.555695 57.411316
187 0 1 -7.073374 -6.761164 57.958588
188 0 1 -7.178505 -6.644934 57.020813
189 0 1 -6.426374 -6.383604 56.468689
190 0 1 -5.666346 -6.062275 56.012085
191 0 1 -4.835665 -5.513294 56.093384
192 0 1 -4.920715 -5.494465 57.040405
193 0 1 -5.025524 -5.821953 57.914398
194 0 1 -4.116045 -5.907354 58.359009
195 0 1 -3.455654 -5.269814 58.068390
196 0 1 -4.169725 -4.786043 57.603516
197 0 1 -3.765775 -4.069263 57.082001
198 0 1 -2.915924 -4.499073 56.868286
199 0 1 -2.444654 -3.909733 57.463806
200 0 1 -1.557697 -4.106934 57.779602
201 0 1 -0.812870 -3.990883 58.434692
202 0 1 -0.454357 -4.448845 59.253693
203 0 1 -0.609402 -5.267714 58.786194
204 0 1 -1.197254 -6.042805 59.144806
205 0 1 -1.363073 -5.929665 60.122314
206 0 1 -2.217674 -5.433945 60.056396
207 0 1 -2.969715 -5.920614 59.700806
208 0 1 -2.873853 -6.179424 60.685089
209 0 1 -3.858083 -5.996773 60.910095
210 0 1 -3.681154 -6.887154 61.060608
211 0 1 -3.015085 -6.649834 61.825500
212 0 1 -2.708624 -7.003143 62.645294
213 0 1 -2.348884 -6.135454 62.515808
214 0 1 -2.717325 -5.174213 62.432007
215 0 1 -2.451324 -4.260654 62.396301
216 0 1 -3.075714 -3.535694 62.200012
217 0 1 -3.597084 -3.879334 62.904205
218 0 1 -4.441545 -3.753325 63.426605
219 0 1 -4.993845 -4.473324 63.858887
220 0 1 -5.319963 -3.586294 64.154510
221 0 1 -6.102335 -2.980385 63.963684
222 0 1 -5.571175 -2.583594 64.731903
223 0 1 -5.256784 -1.699444 64.566284
224 0 1 -5.234434 -0.778904 64.307312
225 0 1 -4.964186 -0.173443 65.089417
226 0 1 -5.222115 -0.706743 65.830994
227 0 1 -4.578955 -0.659664 66.624298
228 0 1 -5.210085 0.039566 66.643799
229 0 1 -4.874165 0.382236 67.452209
230 0 1 -5.385414 1.127287 67.078400
231 0 1 -5.464273 1.993048 67.531189
232 0 1 -6.373884 1.835764 67.646393
233 0 1 -6.876455 2.050733 66.797394
234 0 1 -6.778835 1.119730 67.143005
235 0 1 -7.641764 0.838316 67.634888
236 0 1 -7.770664 0.775085 66.704895
237 0 1 -8.616484 0.386505 66.990692
238 0 1 -9.490545 0.199615 67.328400
239 0 1 -10.313204 0.722896 67.527283
240 0 1 -11.014414 1.201212 67.112610
241 0 1 -11.429214 1.868885 67.649994
242 0 1 -12.387114 1.840279 68.009796
243 0 1 -12.602816 0.943935 68.116211
244 0 1 -13.109514 0.889316 68.946716
245 0 1 -13.944914 1.357582 69.269501
246 0 1 -14.307116 0.450666 69.175110
247 0 1 -15.206915 0.118126 69.231903
248 0 1 -15.794515 -0.184164 69.960602
249 0 1 -16.355814 0.556097 69.972504
250 0 1 -16.848015 -0.315874 70.215210
251 0 1 -17.418415 -0.572773 71.014008
252 0 1 -17.216114 -1.465115 71.164795
253 0 1 -18.083015 -1.719084 70.839783
254 0 1 -18.539715 -2.109894 71.556519
255 0 1 -19.031614 -2.593853 72.289093
256 0 1 -18.280514 -2.562584 72.954803
257 0 1 -18.548414 -3.302864 73.535309
258 0 1 -17.845615 -3.916134 74.021790
259 0 1 -18.786715 -4.219315 74.267792
260 0 1 -18.576614 -3.940825 75.137695
261 0 1 -19.498816 -4.091394 75.226501
262 0 1 -19.522715 -3.471203 75.956390
263 0 1 -19.929914 -3.901224 76.694000
264 0 1 -20.062414 -3.623755 77.568604
265 0 1 -20.885614 -4.104393 77.895111
266 0 1 -21.738415 -3.801815 77.820190
267 0 1 -22.315914 -3.951063 77.057007
268 0 1 -22.386515 -2.944115 76.829407
269 0 1 -22.625916 -2.217755 76.231110
270 0 1 -23.370014 -1.990513 76.810486
271 0 1 -23.696215 -2.876993 76.825195
272 0 1 -24.630116 -2.660404 77.126495
273 0 1 -24.630415 -1.967924 76.469116
274 0 1 -24.868114 -1.055834 76.414703
275 0 1 -25.594315 -0.684244 75.918701
276 0 1 -25.765415 0.019287 75.300598
277 0 1 -24.858114 -0.006575 75.025513
278 0 1 -24.803314 0.676576 74.385681
279 0 1 -24.495014 -0.145954 73.895386
280 0 1 -23.614815 -0.447575 73.753113
281 0 1 -23.602314 0.509247 73.597992
282 0 1 -23.080414 1.285145 73.511902
283 0 1 -22.248816 1.316154 73.029419
284 0 1 -21.854414 2.273447 72.817200
285 0 1 -22.644714 2.525808 72.169495
286 0 1 -22.288015 2.507768 71.248901
287 0 1 -21.537315 2.815183 71.731689
288 0 1 -21.325315 3.689815 72.016205
289 0 1 -21.932014 3.719406 72.749084
290 0 1 -21.377914 3.429315 73.407410
291 0 1 -20.536415 3.766746 73.060791
292 0 1 -19.602415 3.643497 73.252411
293 0 1 -18.794315 3.953655 72.855408
294 0 1 -17.836515 3.925846 73.100311
295 0 1 -17.102114 3.815616 72.452698
296 0 1 -16.193615 4.076458 72.565704
297 0 1 -15.598314 4.672455 72.093292
298 0 1 -16.054914 5.462917 71.921906
299 0 1 -15.537615 5.164715 71.081909
300 0 1 -16.354713 4.909756 70.702911
301 0 1 -17.278414 4.628735 70.715607
302 0 1 -17.796215 3.796818 70.928101
303 0 1 -17.953815 3.007011 70.322998
304 0 1 -17.940115 3.729484 69.664001
305 0 1 -18.903915 3.783687 69.599609
306 0 1 -19.455814 4.606827 69.672302
307 0 1 -19.288115 5.519405 69.919098
308 0 1 -19.944016 5.362106 69.238281
309 0 1 -20.813715 5.724445 68.873993
310 0 1 -21.368216 6.410645 68.497009
311 0 1 -20.855715 7.031425 68.962402
312 0 1 -21.638515 7.414658 69.458801
313 0 1 -21.101315 7.174236 70.189392
314 0 1 -21.871914 7.471317 70.776794
315 0 1 -22.210615 7.960365 71.460510
316 0 1 -23.164114 8.159466 71.549103
317 0 1 -22.638914 8.921207 71.164093
318 0 1 -23.110615 9.662575 71.625397
319 0 1 -23.747915 10.128895 71.075409
320 0 1 -23.519014 9.737026 70.177612
321 0 1 -23.394314 9.867085 69.190796
322 0 1 -24.172815 9.578247 68.613708
323 0 1 -24.054014 9.040688 67.810486
324 0 1 -23.854214 8.157795 67.477509
325 0 1 -24.067314 7.468395 66.838409
326 0 1 -24.009914 8.056427 66.075012
327 0 1 -23.064514 7.958828 66.143982
328 0 1 -22.750114 8.529636 65.468018
329 0 1 -22.129715 7.722446 65.326599
330 0 1 -21.275215 8.117928 65.149811
331 0 1 -21.128614 7.894207 64.213684
332 0 1 -21.827515 7.752586 63.568390
333 0 1 -22.160114 8.463196 63.019012
334 0 1 -22.491014 9.318245 62.611908
335 0 1 -22.127615 8.913727 61.730896
336 0 1 -22.612215 8.138187 61.909790
337 0 1 -22.979715 8.738056 61.268005
338 0 1 -22.468815 8.986397 60.562683
339 0 1 -21.991514 9.185894 59.760010
340 0 1 -21.192015 9.538857 59.261688
341 0 1 -21.377415 9.316105 58.280609
342 0 1 -22.202614 8.790237 58.166809
343 0 1 -21.562016 8.062515 57.985992
344 0 1 -22.087215 7.436317 57.570984
345 0 1 -22.752415 7.093758 56.972504
346 0 1 -23.722414 7.112354 57.199799
347 0 1 -24.439415 7.399998 56.623199
348 0 1 -24.427114 8.273228 56.992310
349 0 1 -25.090115 8.034206 57.685089
350 0 1 -25.686714 7.990776 56.996704
351 0 1 -26.096014 8.269257 56.263916
352 0 1 -25.720715 7.411167 55.921600
353 0 1 -25.860615 7.062798 55.011597
354 0 1 -25.917915 6.098957 54.779907
355 0 1 -25.536114 6.546368 54.016205
356 0 1 -25.687214 6.905586 53.172913
357 0 1 -25.316515 6.090565 52.887604
358 0 1 -24.552414 5.832596 52.414001
359 0 1 -24.685215 5.147766 51.786316
360 0 1 -25.174215 4.309807 51.769409
361 0 1 -24.756214 3.708378 52.351105
362 0 1 -24.791615 2.960672 51.796387
363 0 1 -24.811214 2.082533 51.348999
364 0 1 -25.077515 1.829307 52.299591
365 0 1 -25.622015 2.374101 53.011597
366 0 1 -25.974915 2.562885 53.874695
367 0 1 -25.361115 2.247120 54.617401
368 0 1 -24.626616 1.787588 54.294617
369 0 1 -23.684315 2.008264 54.085510
370 0 1 -23.721514 2.193828 53.072388
371 0 1 -23.343315 1.753923 52.318604
372 0 1 -22.495815 1.964809 52.753601
373 0 1 -22.127014 1.320385 53.390686
374 0 1 -22.166014 0.923216 52.508789
375 0 1 -22.020815 0.977047 51.599213
376 0 1 -21.273714 0.564997 51.938110
377 0 1 -20.366816 0.419805 52.229401
378 0 1 -20.081415 -0.443924 51.876312
379 0 1 -19.239315 -0.047863 51.810699
380 0 1 -18.698915 0.311756 52.579285
381 0 1 -18.475615 0.233545 53.495300
382 0 1 -19.071714 -0.385054 53.949005
383 0 1 -18.250715 -0.785814 54.145996
384 0 1 -17.469114 -1.241903 53.798096
385 0 1 -16.876814 -1.779034 54.348206
386 0 1 -17.201914 -2.317204 53.645691
387 0 1 -16.710014 -2.897743 54.248108
388 0 1 -16.751015 -2.577473 55.184296
389 0 1 -17.438915 -2.862805 55.728516
390 0 1 -18.448015 -2.552643 55.724304
391 0 1 -18.904514 -3.402384 55.458496
392 0 1 -18.424715 -3.755863 54.716888
393 0 1 -18.962515 -3.045325 54.424988
394 0 1 -19.074915 -2.241894 53.902893
395 0 1 -19.503614 -1.361204 54.187195
396 0 1 -19.712915 -1.856125 54.962097
397 0 1 -20.111914 -2.604994 55.481110
398 0 1 -20.372814 -2.785134 54.593384
399 0 1 -20.123514 -2.965075 53.664612
400 0 1 -20.397215 -3.717594 53.055908
401 0 1 -19.884214 -4.294704 52.464600
402 0 1 -19.193214 -4.157265 51.834412
403 0 1 -18.715914 -3.487263 52.350098
404 0 1 -18.006914 -4.149723 52.511505
405 0 1 -17.159815 -3.682724 52.279388
406 0 1 -17.081814 -3.807055 53.276611
407 0 1 -16.239714 -3.501925 52.813110
408 0 1 -16.019915 -2.915854 52.110901
409 0 1 -15.696115 -3.074394 51.234497
410 0 1 -14.982714 -3.147364 50.597198
411 0 1 -14.087814 -2.953345 50.201111
412 0 1 -14.383615 -2.244953 49.608398
413 0 1 -14.817114 -1.434544 49.257904
414 0 1 -14.273314 -0.762894 49.730194
415 0 1 -13.933115 -1.187433 48.920197
416 0 1 -14.032816 -0.370733 48.333984
417 0 1 -13.893314 -0.429733 47.378998
418 0 1 -14.878414 -0.679995 47.489685
419 0 1 -15.354915 -1.494333 47.272400
420 0 1 -16.093615 -2.054604 47.212189
421 0 1 -16.256214 -1.284353 46.640289
422 0 1 -16.627415 -0.414503 46.431091
423 0 1 -17.459814 -0.041824 46.285309
424 0 1 -17.943615 0.164575 45.480804
425 0 1 -18.736814 0.158935 46.006805
426 0 1 -18.728014 1.002867 46.427094
427 0 1 -19.154814 1.255293 45.571106
428 0 1 -20.005415 1.156917 45.178284
429 0 1 -20.247416 0.929266 46.065887
430 0 1 -20.587614 1.864492 45.750916
431 0 1 -20.113914 2.236810 44.937897
432 0 1 -20.757614 2.796041 44.409607
433 0 1 -21.479214 3.444656 44.218506
434 0 1 -21.254215 4.267406 43.739899
435 0 1 -20.650015 4.402164 43.027802
436 0 1 -20.343115 3.780784 42.335815
437 0 1 -19.869314 3.151457 42.919495
438 0 1 -20.011114 3.735607 43.690002
439 0 1 -19.492815 4.419655 43.130188
440 0 1 -18.910515 5.058098 42.676300
441 0 1 -18.695715 5.941326 42.191406
442 0 1 -18.393415 5.506947 41.339691
443 0 1 -17.840815 4.884987 40.836212
444 0 1 -17.410614 4.517906 39.959106
445 0 1 -18.226614 4.300957 39.535400
446 0 1 -17.977514 3.888336 38.757111
447 0 1 -17.960514 3.423277 37.915100
448 0 1 -17.713015 3.386476 36.958405
449 0 1 -17.883215 3.561586 36.049103
450 0 1 -18.340315 2.707960 35.917389
451 0 1 -18.190414 2.185743 35.149902
452 0 1 -17.940214 1.397911 34.722595
453 0 1 -18.511114 0.615446 34.569397
454 0 1 -18.271814 -0.262903 34.259216
455 0 1 -18.005415 -0.103424 33.338684
456 0 1 -17.520315 0.654325 32.987488
457 0 1 -16.791315 0.255997 33.486389
458 0 1 -16.635115 0.982487 32.929810
459 0 1 -17.153715 1.560198 33.515015
460 0 1 -17.141815 2.484344 33.861206
461 0 1 -16.446613 2.926859 34.414307
462 0 1 -17.151215 3.731846 34.474487
463 0 1 -16.850414 3.449455 33.557709
464 0 1 -17.433014 3.263765 32.825989
465 0 1 -17.897114 2.912981 32.103088
466 0 1 -18.532814 2.205471 32.026184
467 0 1 -18.924515 2.574407 31.201294
468 0 1 -18.592815 2.481436 30.277496
469 0 1 -19.410915 2.876745 30.014099
470 0 1 -19.929714 2.185966 29.507599
471 0 1 -20.908714 2.143793 29.484589
472 0 1 -21.351515 2.860191 29.998901
473 0 1 -21.377214 3.754844 29.555389
474 0 1 -20.568214 3.634285 28.851990
475 0 1 -19.856714 4.192055 28.485413
476 0 1 -19.759214 3.601658 27.729889
477 0 1 -19.348814 3.604137 26.835602
478 0 1 -19.306015 4.106575 26.033600
479 0 1 -18.881315 3.336595 25.615387
480 0 1 -18.856115 3.660484 24.722687
481 0 1 -19.694016 4.111687 24.737488
482 0 1 -19.450815 4.094875 23.857086
483 0 1 -19.829815 4.908985 23.541901
484 0 1 -19.424515 5.756195 23.505005
485 0 1 -19.352814 6.629696 23.925293
486 0 1 -19.091814 5.900555 24.460602
487 0 1 -18.403715 6.522858 24.347504
488 0 1 -17.889715 6.716125 23.531891
489 0 1 -17.331814 6.988075 22.762604
490 0 1 -17.205114 7.721046 22.125198
491 0 1 -17.607714 7.306435 21.404800
492 0 1 -17.465414 6.632298 20.729797
493 0 1 -18.017015 7.298218 20.364899
494 0 1 -18.929615 7.403347 20.240494
495 0 1 -18.922514 7.834316 21.081604
496 0 1 -18.712215 8.542397 20.513397
497 0 1 -18.106815 8.498127 19.757202
498 0 1 -17.249115 8.914608 19.837601
499 0 1 -16.737715 9.257404 19.125092
500 0 1 -15.806814 9.409737 19.003296
501 0 1 -15.522215 8.513176 19.073196
502 0 1 -14.619015 8.367535 18.774200
503 0 1 -13.943014 8.608425 19.443207
504 0 1 -13.574415 7.771706 19.541901
505 0 1 -14.110514 6.992695 19.694397
506 0 1 -14.494215 7.365208 20.494705
507 0 1 -13.550615 7.451965 20.800995
508 0 1 -13.795416 6.551716 21.012604
509 0 1 -13.386715 6.211124 20.160995
510 0 1 -13.133215 5.552895 20.876694
511 0 1 -13.529715 5.207508 21.712296
512 0 1 -13.259516 5.025597 22.673706
513 0 1 -13.185715 4.084076 23.132507
514 0 1 -12.990015 3.936176 24.160797
515 0 1 -13.796614 3.328916 24.432709
516 0 1 -14.035013 3.304035 25.387512
517 0 1 -13.918514 4.011856 26.076508
518 0 1 -13.433516 4.820885 26.361511
519 0 1 -12.910814 4.620544 27.168610
520 0 1 -12.686113 3.895557 26.467499
521 0 1 -12.031515 4.487125 26.119812
522 0 1 -11.631914 5.267845 26.494812
523 0 1 -11.066214 5.800846 27.087311
524 0 1 -11.765413 6.432167 26.693207
525 0 1 -12.616714 6.725075 27.039185
526 0 1 -13.435614 6.183826 27.063293
527 0 1 -14.329214 5.944767 27.365814
528 0 1 -14.079313 5.277225 28.096802
529 0 1 -13.322313 5.497375 28.634613
530 0 1 -12.873816 6.156315 29.213989
531 0 1 -12.135416 6.211075 28.641785
532 0 1 -11.361814 5.723328 28.747589
533 0 1 -10.695345 6.388176 28.764893
534 0 1 -10.931616 6.660984 29.684906
535 0 1 -11.154015 7.466095 30.128387
536 0 1 -11.218916 8.451195 30.510101
537 0 1 -10.400965 8.446358 29.901794
538 0 1 -9.870985 8.457935 29.076904
539 0 1 -9.840303 8.883015 28.251587
540 0 1 -8.945833 8.578156 28.321991
541 0 1 -8.623365 8.114124 29.053711
542 0 1 -7.769854 7.785316 28.810699
543 0 1 -7.388245 7.028576 28.308990
544 0 1 -6.896544 6.308544 28.820190
545 0 1 -6.287115 5.706345 28.406494
546 0 1 -6.831705 4.902195 28.315399
547 0 1 -7.617744 4.612297 28.789001
548 0 1 -8.300514 5.037865 28.167206
549 0 1 -8.221815 4.601406 27.276703
550 0 1 -8.559805 5.467327 27.024506
551 0 1 -9.109585 4.928776 26.467194
552 0 1 -9.130854 5.711605 25.916290
553 0 1 -8.506695 6.382446 26.020996
554 0 1 -8.057415 6.465485 25.150085
555 0 1 -7.524725 6.433006 24.337708
556 0 1 -7.921665 7.124947 23.832489
557 0 1 -8.460625 7.363888 24.579712
558 0 1 -8.087626 7.835327 25.282410
559 0 1 -8.268515 8.761337 25.107300
560 0 1 -9.003626 9.339066 24.952911
561 0 1 -9.610704 9.964718 25.469788
562 0 1 -9.511715 10.634926 26.173584
563 0 1 -9.350485 10.986378 25.268188
564 0 1 -8.492855 10.621449 25.127411
565 0 1 -7.726694 11.201187 25.328613
566 0 1 -6.964384 11.596077 25.780609
567 0 1 -6.759754 12.214634 25.010590
568 0 1 -5.977104 12.394238 24.411591
569 0 1 -4.968775 12.329937 24.319092
570 0 1 -4.447405 13.224335 24.396301
571 0 1 -4.806086 14.037636 23.962891
572 0 1 -5.605995 13.578537 23.711609
573 0 1 -5.425924 13.741535 22.702393
574 0 1 -4.499365 13.968037 22.629791
575 0 1 -3.623445 13.546734 22.497101
576 0 1 -3.422344 14.036335 23.290802
577 0 1 -3.102625 14.649036 22.622406
578 0 1 -3.205465 14.695637 21.682404
579 0 1 -3.340734 15.682835 21.830704
580 0 1 -3.384575 16.621937 22.054306
581 0 1 -2.864755 16.881935 22.784698
582 0 1 -1.901905 16.920837 22.598999
583 0 1 -1.456613 17.630737 23.102386
584 0 1 -0.445259 17.548534 23.302704
585 0 1 -0.550987 16.661037 22.916992
586 0 1 0.292158 16.406734 23.293701
587 0 1 -0.155401 16.597836 24.067993
588 0 1 0.235134 16.281635 24.885712
589 0 1 1.147127 16.422535 25.281311
590 0 1 1.586317 17.257236 25.463989
591 0 1 1.613405 18.254036 25.479706
592 0 1 0.727406 18.115536 25.241516
593 0 1 -0.104797 17.816235 25.488098
594 0 1 -0.318683 18.475136 26.186707
595 0 1 -1.160030 18.955135 26.009003
596 0 1 -1.788175 19.664936 25.797913
597 0 1 -1.827123 20.444637 25.324097
598 0 1 -2.616764 20.857037 25.665100
599 0 1 -2.677654 21.401836 24.870789
600 0 1 -3.123384 22.142937 24.487091
601 0 1 -2.959745 22.848335 25.098907
602 0 1 -3.723955 22.345737 25.384003
603 0 1 -4.595625 21.974339 25.178101
604 0 1 -4.216314 21.895535 24.299408
605 0 1 -4.518354 22.812038 24.305298
606 0 1 -5.008474 23.236835 23.465698
607 0 1 -4.464005 22.829536 22.869904
608 0 1 -3.526224 22.994637 22.557495
609 0 1 -2.901235 23.584236 23.009613
610 0 1 -3.493074 23.656834 23.857788
611 0 1 -3.640215 23.691135 24.786896
612 0 1 -4.175314 24.400135 24.490601
613 0 1 -4.332785 24.965336 23.740509
614 0 1 -4.210674 25.294338 22.842712
615 0 1 -3.983875 25.206638 21.918106
616 0 1 -3.660795 24.449139 21.400497
617 0 1 -2.935535 24.789036 20.847595
618 0 1 -3.789644 24.944237 20.372803
619 0 1 -3.075884 24.860435 19.757004
620 0 1 -3.196495 24.163235 18.999405
621 0 1 -3.026155 23.215038 18.873199
622 0 1 -3.375845 22.967037 19.709503
623 0 1 -4.291515 22.718334 19.651703
624 0 1 -4.505804 22.612835 18.703201
625 0 1 -3.926784 21.794235 18.764603
626 0 1 -3.239685 22.185036 18.223495
627 0 1 -3.129625 22.679638 17.382507
628 0 1 -3.351385 21.786736 17.094803
629 0 1 -3.821314 21.964336 16.281006
630 0 1 -4.036875 21.208237 15.743394
631 0 1 -4.326355 21.179638 14.836503
632 0 1 -4.160265 22.169636 14.918000
633 0 1 -4.936754 22.164738 15.343202
634 0 1 -4.964985 22.202938 16.342896
635 0 1 -5.782555 22.574734 15.903596
636 0 1 -6.343914 23.166134 15.312104
637 0 1 -7.234825 23.112236 15.610703
638 0 1 -7.331324 22.678638 14.761399
639 0 1 -7.059595 22.793339 13.866899
640 0 1 -7.452734 23.651836 14.353501
641 0 1 -6.592665 23.908237 14.607606
642 0 1 -6.293234 24.278236 15.461793
643 0 1 -5.700735 24.115238 16.194305
644 0 1 -4.780014 24.009235 16.436905
645 0 1 -4.548014 23.950039 17.327606
646 0 1 -3.619974 23.725338 17.222397
647 0 1 -2.909424 24.158836 17.629105
648 0 1 -2.108194 24.222538 17.226395
649 0 1 -2.945715 24.323036 16.655396
650 0 1 -3.292095 25.074734 17.158096
651 0 1 -3.941974 25.657139 17.580795
652 0 1 -4.323675 25.294834 18.440308
653 0 1 -5.109684 25.441334 19.004105
654 0 1 -5.908035 25.744736 18.550903
655 0 1 -5.650274 26.487637 19.100601
656 0 1 -4.991976 26.301838 19.753006
657 0 1 -4.185894 26.867836 19.877197
658 0 1 -3.256065 27.042736 19.638199
659 0 1 -2.986994 27.821636 20.150803
660 0 1 -3.229854 28.756336 19.835907
661 0 1 -2.416944 28.363636 19.415100
662 0 1 -1.740524 27.948437 18.860107
663 0 1 -0.934624 28.456234 18.768295
664 0 1 -0.052942 28.048534 18.497406
665 0 1 0.575316 27.356838 18.313797
666 0 1 0.612015 26.790337 19.101898
667 0 1 0.191405 25.887035 19.242294
668 0 1 -0.415075 26.215939 18.583405
669 0 1 -0.288366 26.728436 17.789200
670 0 1 -0.089016 27.657536 17.514206
671 0 1 0.156986 28.528637 17.188202
672 0 1 0.889635 27.826534 17.003998
673 0 1 1.798456 27.634937 16.770599
674 0 1 1.893755 27.706436 17.678802
675 0 1 2.201685 26.882736 18.045807
676 0 1 1.922037 25.986439 18.380997
677 0 1 2.494414 25.270336 18.406403
678 0 1 3.117586 25.245235 17.618301
679 0 1 3.777724 24.628937 17.972504
680 0 1 2.972426 24.125736 17.894501
681 0 1 2.973177 24.104435 16.941803
682 0 1 3.760767 24.205639 16.357300
683 0 1 4.685427 24.056034 16.111694
684 0 1 4.780344 23.491436 15.379395
685 0 1 5.669985 23.563534 15.495606
686 0 1 5.613764 23.292637 16.382996
687 0 1 6.516504 23.350338 16.846207
688 0 1 6.506937 22.428135 16.574997
689 0 1 6.646357 21.492737 16.358795
690 0 1 6.478384 20.547035 16.072906
691 0 1 5.902914 19.983135 15.530107
692 0 1 5.132284 20.205936 16.121002
693 0 1 5.600164 19.633938 16.800003
694 0 1 6.191916 18.961636 16.437500
695 0 1 6.575895 18.398537 17.059296
696 0 1 5.890596 17.728935 17.162399
697 0 1 5.316526 17.987335 16.398895
698 0 1 4.708364 18.379936 15.881303
699 0 1 4.827215 17.613735 15.217607
700 0 1 4.162046 17.460537 15.835099
701 0 1 3.735575 16.592537 16.220703
702 0 1 3.571055 16.776535 17.168106
703 0 1 2.690237 16.315037 17.056793
704 0 1 2.457495 15.803535 16.241104
705 0 1 2.134714 14.861736 16.112106
706 0 1 1.984038 14.503735 16.985107
707 0 1 2.115065 15.363136 17.524002
708 0 1 1.343897 15.462635 16.890106
709 0 1 0.901964 14.873535 16.285202
710 0 1 0.870726 15.605335 15.676896
711 0 1 0.429856 15.116837 14.944306
712 0 1 -0.248997 15.848934 14.900697
713 0 1 -0.566166 16.625538 14.402406
714 0 1 0.320936 16.998535 14.555100
715 0 1 0.841524 17.786938 14.148408
716 0 1 0.704186 17.078537 13.551896
717 0 1 1.485987 16.872738 13.008805
718 0 1 1.053816 17.596836 12.558900
719 0 1 0.229925 17.223637 12.217103
720 0 1 0.060345 18.178837 12.023698
721 0 1 0.890856 18.693737 12.080201
722 0 1 0.602266 18.626637 11.145295
723 0 1 -0.108959 18.210537 10.625398
724 0 1 0.703665 17.779236 10.162202
725 0 1 1.180327 16.908035 10.386506
726 0 1 1.995596 16.630436 9.953553
727 0 1 2.234514 17.120735 9.170457
728 0 1 2.331885 16.503937 8.443238
729 0 1 2.351324 16.837135 7.583481
730 0 1 1.810347 17.228336 6.919953
731 0 1 1.341215 16.416035 7.057374
732 0 1 0.486395 16.665337 7.474854
733 0 1 0.784855 15.812637 7.922287
734 0 1 -0.112425 15.559437 7.613297
735 0 1 -0.229976 15.538334 6.638398
736 0 1 -1.089285 15.854435 6.596177
737 0 1 -0.451849 16.443336 6.076584
738 0 1 -0.462465 16.995335 5.341401
739 0 1 -0.239733 17.876236 5.130814
740 0 1 -0.773317 18.667835 5.199646
741 0 1 -1.363991 19.464634 5.167084
742 0 1 -2.131944 19.189236 4.640275
743 0 1 -2.022665 19.993938 4.189225
744 0 1 -2.634245 20.369038 3.524094
745 0 1 -2.849094 21.295635 3.524857
746 0 1 -2.736494 21.337635 2.605408
747 0 1 -3.393715 20.913235 2.043366
748 0 1 -3.457624 20.166435 1.435868
749 0 1 -4.250654 20.335835 0.884171
750 0 1 -4.247944 20.730434 0.051804
751 0 1 -3.278955 20.595135 -0.002029
752 0 1 -2.437254 20.206337 -0.516830
753 0 1 -1.551803 20.000538 -0.875869
754 0 1 -1.497999 19.380535 -0.105850
755 0 1 -0.553766 19.320835 -0.163619
756 0 1 0.172934 19.474438 -0.752136
757 0 1 -0.058876 18.537537 -0.851425
758 0 1 0.168141 18.456234 -1.825515
759 0 1 0.160128 17.900837 -2.603103
760 0 1 0.464926 17.054535 -2.463744
761 0 1 0.526945 16.151337 -2.135284
762 0 1 1.433626 16.531635 -2.475875
763 0 1 1.843615 17.265236 -2.960174
764 0 1 1.971064 18.146835 -3.327193
765 0 1 1.171427 18.582638 -3.543273
766 0 1 0.763216 19.260334 -4.069915
767 0 1 0.564585 20.201939 -3.967773
768 0 1 -0.030569 19.652637 -3.377502
769 0 1 0.165774 20.184238 -2.565871
770 0 1 -0.355928 20.233738 -1.796630
771 0 1 0.531046 20.363033 -1.527435
772 0 1 1.131735 20.664738 -2.253692
773 0 1 1.909357 20.625637 -2.779754
774 0 1 2.129126 21.021938 -1.885803
775 0 1 2.561335 21.419834 -2.595367