LAMMPS data file via MDAnalysis

        2000  atoms
        1999  bonds
           0  angles
           0  dihedrals
           0  impropers

           1  atom types
           1  bond types
           0  angle types
           0  dihedral types
           0  improper types

-30.5 30.5 xlo xhi
-30.5 30.5 ylo yhi
-233.5 233.5 zlo zhi


Masses

1 1.000000

Atoms

1 0 1 -16.027981 11.349386 29.685394
2 0 1 -16.986580 11.306684 29.605499
3 0 1 -16.833981 11.628683 30.605011
4 0 1 -17.658979 11.914286 30.187195
5 0 1 -17.530380 12.457685 29.370209
6 0 1 -18.178680 13.317083 29.198608
7 0 1 -17.662680 14.118586 28.899200
8 0 1 -17.730480 14.626783 29.719604
9 0 1 -18.125481 15.222883 29.024811
10 0 1 -18.674879 15.731787 28.416901
11 0 1 -19.250580 15.867884 27.624695
12 0 1 -19.979380 15.525785 28.145813
13 0 1 -20.767080 15.268187 27.551514
14 0 1 -21.326679 14.617785 27.069489
15 0 1 -21.963779 14.643385 27.782898
16 0 1 -22.798880 14.454786 27.316101
17 0 1 -22.551380 13.948385 26.566803
18 0 1 -21.890779 13.660685 27.213593
19 0 1 -22.638279 13.049887 26.902100
20 0 1 -23.423279 12.451586 26.999207
21 0 1 -23.781080 11.844084 27.607300
22 0 1 -24.096279 11.274084 28.338501
23 0 1 -23.732180 10.749983 27.634003
24 0 1 -23.324179 10.192427 26.964600
25 0 1 -22.640680 9.921774 26.397400
26 0 1 -23.224880 10.049665 25.708313
27 0 1 -24.108980 10.298933 25.957794
28 0 1 -24.938679 10.217386 25.342285
29 0 1 -25.462379 9.585394 25.718384
30 0 1 -25.801979 9.188356 24.881989
31 0 1 -25.804680 9.725336 24.024109
32 0 1 -25.038780 9.823034 23.460510
33 0 1 -24.276979 9.334234 23.127991
34 0 1 -24.173880 9.854555 22.356201
35 0 1 -24.411980 9.101355 21.795197
36 0 1 -23.517979 8.626123 21.893906
37 0 1 -23.232880 7.986524 22.500488
38 0 1 -23.696079 7.363683 23.092590
39 0 1 -23.608480 7.059225 23.983307
40 0 1 -24.261280 7.641054 24.345093
41 0 1 -24.846479 7.331396 25.066711
42 0 1 -25.080580 6.712903 24.401794
43 0 1 -25.803379 6.123704 24.572510
44 0 1 -25.729280 5.658494 25.414001
45 0 1 -25.094080 5.661325 26.150787
46 0 1 -25.822779 5.341196 26.648193
47 0 1 -25.532379 4.799524 27.497498
48 0 1 -26.200480 4.880544 28.213104
49 0 1 -26.788279 4.940687 27.475586
50 0 1 -27.222179 4.307653 26.872406
51 0 1 -27.736080 3.830736 26.285095
52 0 1 -27.877480 3.290384 27.025208
53 0 1 -28.625479 3.264124 26.378998
54 0 1 -28.503979 3.087744 25.381805
55 0 1 -28.547380 4.064966 25.144989
56 0 1 -29.027679 4.278955 24.258301
57 0 1 -29.588579 5.033205 24.040405
58 0 1 -30.325279 4.529104 23.571899
59 0 1 -29.754179 3.653364 23.578491
60 0 1 -30.099079 3.130575 22.748688
61 0 1 -30.850279 2.907446 23.279907
62 0 1 -30.858080 3.309553 24.191406
63 0 1 -31.281679 4.094423 24.453308
64 0 1 -32.010582 3.932764 25.040894
65 0 1 -32.389881 4.457395 25.798706
66 0 1 -32.390480 5.409086 25.793091
67 0 1 -31.504379 5.860883 25.539795
68 0 1 -30.868780 6.200265 24.896484
69 0 1 -30.171179 5.643926 25.093109
70 0 1 -29.318180 5.911134 24.769989
71 0 1 -28.914579 6.130544 23.948212
72 0 1 -28.038080 6.250864 23.623596
73 0 1 -27.640579 6.947362 24.208710
74 0 1 -27.041479 7.240613 23.409485
75 0 1 -26.332279 7.010404 22.816101
76 0 1 -25.818480 7.069543 22.070999
77 0 1 -25.626179 6.297536 22.530212
78 0 1 -24.656279 6.068624 22.650787
79 0 1 -24.178280 5.875005 23.558716
80 0 1 -23.255480 5.630853 23.580994
81 0 1 -23.172180 4.891424 24.234589
82 0 1 -22.316280 4.432943 24.079712
83 0 1 -22.142380 5.334653 24.037811
84 0 1 -21.385580 5.036825 24.579285
85 0 1 -21.274080 4.903863 25.523590
86 0 1 -21.376579 5.844335 25.849396
87 0 1 -20.630980 6.380075 26.063995
88 0 1 -20.422079 7.332494 26.291992
89 0 1 -20.025980 7.275754 25.412109
90 0 1 -19.734680 8.178896 25.558990
91 0 1 -20.423180 8.180956 24.887299
92 0 1 -20.059681 8.956503 24.510315
93 0 1 -20.452480 9.012403 23.564392
94 0 1 -19.708080 9.383074 23.169891
95 0 1 -19.006580 10.070425 23.091400
96 0 1 -19.604080 10.506876 22.429108
97 0 1 -19.172079 9.844114 21.850906
98 0 1 -19.745081 9.108606 21.840698
99 0 1 -19.471880 8.457594 21.134003
100 0 1 -19.657280 8.077597 20.235703
101 0 1 -19.418180 8.205286 19.304901
102 0 1 -18.844780 7.516004 19.023102
103 0 1 -18.267078 7.206705 18.177399
104 0 1 -18.176279 7.336286 17.163208
105 0 1 -17.575680 6.709096 16.689606
106 0 1 -17.098679 5.960855 16.264999
107 0 1 -16.076080 5.882253 16.343094
108 0 1 -16.362579 4.957216 16.387894
109 0 1 -17.052380 4.621984 16.994507
110 0 1 -17.747681 5.183404 16.729294
111 0 1 -18.633678 4.872934 16.883896
112 0 1 -19.327480 4.219503 16.660599
113 0 1 -19.978580 3.583956 17.034103
114 0 1 -20.340380 2.749475 17.143005
115 0 1 -20.979080 2.110504 17.460297
116 0 1 -21.143179 1.291360 17.074493
117 0 1 -20.637880 1.752725 16.388000
118 0 1 -19.996580 1.152027 16.062195
119 0 1 -19.459379 1.842735 15.608307
120 0 1 -19.270981 2.045244 16.639603
121 0 1 -18.328381 1.874895 16.623901
122 0 1 -18.363979 1.095974 16.123306
123 0 1 -18.403780 0.326889 16.651505
124 0 1 -18.303080 -0.386444 16.008499
125 0 1 -18.061081 -1.262156 15.739899
126 0 1 -17.667080 -2.102986 16.002899
127 0 1 -16.805779 -2.355435 15.760101
128 0 1 -16.142780 -3.031445 16.089005
129 0 1 -15.799481 -2.560215 16.874603
130 0 1 -15.345380 -3.300394 17.180801
131 0 1 -15.116281 -3.622826 18.083694
132 0 1 -14.679620 -4.422755 18.511398
133 0 1 -13.702439 -4.388735 18.535202
134 0 1 -13.119229 -3.736845 18.164597
135 0 1 -13.103379 -3.172505 18.925400
136 0 1 -12.249850 -3.579085 18.755203
137 0 1 -11.676311 -4.013056 19.295197
138 0 1 -11.218600 -4.763056 18.976700
139 0 1 -10.812751 -5.032485 18.169006
140 0 1 -10.167150 -5.668625 17.913605
141 0 1 -9.760110 -4.901585 18.247604
142 0 1 -9.425250 -4.772465 17.305908
143 0 1 -9.102620 -3.806734 17.237106
144 0 1 -8.547341 -3.915215 18.032898
145 0 1 -7.895141 -3.302105 18.459900
146 0 1 -7.496850 -3.912365 19.119202
147 0 1 -8.358720 -4.364645 19.309601
148 0 1 -7.866010 -5.131766 18.926300
149 0 1 -7.513761 -6.056506 18.996902
150 0 1 -8.113091 -6.014065 18.249802
151 0 1 -7.387090 -6.593676 17.967606
152 0 1 -7.967490 -7.391085 18.016205
153 0 1 -7.401841 -7.891945 17.437195
154 0 1 -6.850341 -7.879496 16.694901
155 0 1 -6.118770 -7.288245 17.052399
156 0 1 -5.708982 -8.057615 17.172806
157 0 1 -5.330527 -8.160036 16.299301
158 0 1 -6.126260 -7.703335 15.876602
159 0 1 -7.051261 -7.575915 15.775406
160 0 1 -6.934110 -6.703415 16.086395
161 0 1 -7.881120 -6.421296 16.118607
162 0 1 -7.700051 -5.444695 16.121704
163 0 1 -6.782460 -5.293946 16.490799
164 0 1 -6.406291 -5.370745 17.358002
165 0 1 -5.721007 -5.200106 18.009506
166 0 1 -5.318997 -4.429135 18.363007
167 0 1 -4.357995 -4.372456 18.373199
168 0 1 -3.626900 -4.321356 17.770004
169 0 1 -2.986062 -3.677256 18.190308
170 0 1 -2.109811 -3.515764 17.767899
171 0 1 -1.973962 -4.462386 17.968201
172 0 1 -2.084698 -4.035796 18.821396
173 0 1 -1.965672 -4.967795 19.129807
174 0 1 -2.860001 -5.067675 18.956299
175 0 1 -3.161549 -4.875775 19.861801
176 0 1 -3.372771 -4.021525 20.090393
177 0 1 -2.622449 -3.646836 20.516006
178 0 1 -2.974728 -2.740105 20.585403
179 0 1 -1.964001 -2.540905 20.378006
180 0 1 -1.545670 -1.673396 20.598404
181 0 1 -2.217469 -0.989876 20.091492
182 0 1 -2.149689 -0.123144 19.507294
183 0 1 -2.285649 0.503750 20.257294
184 0 1 -3.017892 -0.065621 20.340698
185 0 1 -3.583590 -0.194041 19.629196
186 0 1 -3.227010 -0.151141 18.725601
187 0 1 -3.602830 0.003179 17.827896
188 0 1 -3.951836 0.619905 18.473907
189 0 1 -3.749390 1.322513 19.089706
190 0 1 -4.560391 1.132381 19.552399
191 0 1 -5.264182 0.739614 20.045502
192 0 1 -5.874560 1.209869 19.452698
193 0 1 -6.235620 1.028894 18.562698
194 0 1 -7.180701 0.849346 18.772995
195 0 1 -7.541770 1.621454 18.399704
196 0 1 -7.585580 1.963455 17.512299
197 0 1 -7.206441 2.827814 17.342407
198 0 1 -6.612130 2.352686 16.744797
199 0 1 -6.380090 3.195944 16.429596
200 0 1 -6.541471 3.995806 15.962204
201 0 1 -6.674281 4.522455 16.772491
202 0 1 -5.685817 4.745683 16.840302
203 0 1 -5.838361 5.089365 15.934494
204 0 1 -5.549809 5.960096 15.808594
205 0 1 -6.069531 6.398496 16.470901
206 0 1 -5.591443 6.443143 17.289505
207 0 1 -5.047154 6.708383 18.073105
208 0 1 -4.092273 6.600824 18.187805
209 0 1 -3.950482 5.735723 17.961700
210 0 1 -3.277219 5.423086 18.547104
211 0 1 -3.572360 4.898393 19.267395
212 0 1 -4.510005 5.051065 19.076599
213 0 1 -4.632037 5.931734 19.444092
214 0 1 -5.165660 5.357164 19.963104
215 0 1 -5.321248 4.801496 20.692398
216 0 1 -4.688272 4.075815 20.791000
217 0 1 -3.722920 4.045114 20.964905
218 0 1 -2.846761 4.385896 20.660294
219 0 1 -2.601571 3.551985 21.101807
220 0 1 -1.931401 3.717485 21.787506
221 0 1 -1.927369 2.762094 21.537003
222 0 1 -2.611100 2.310556 22.078094
223 0 1 -3.078439 1.955734 22.810211
224 0 1 -4.037179 2.110395 23.033386
225 0 1 -4.693902 1.600206 22.538391
226 0 1 -4.963159 1.965965 23.408295
227 0 1 -4.581491 1.204927 23.797394
228 0 1 -4.873801 0.234619 23.787415
229 0 1 -4.002656 0.086303 24.149597
230 0 1 -4.231692 -0.525505 24.798798
231 0 1 -3.784261 -1.051615 24.158905
232 0 1 -4.531529 -1.155405 23.515900
233 0 1 -4.164260 -2.005884 23.199493
234 0 1 -3.168278 -1.995886 23.166290
235 0 1 -2.301701 -1.872855 23.551910
236 0 1 -1.437859 -1.867306 23.163788
237 0 1 -1.471429 -2.539746 23.924591
238 0 1 -0.725220 -2.775255 23.406799
239 0 1 0.170779 -2.846646 23.513489
240 0 1 0.113971 -2.770195 22.570404
241 0 1 0.943759 -2.387804 22.069199
242 0 1 1.429549 -2.053515 22.778687
243 0 1 2.248950 -1.586916 22.723389
244 0 1 2.860851 -2.175646 22.406204
245 0 1 2.456088 -2.442095 23.301300
246 0 1 2.364719 -1.669955 23.850098
247 0 1 2.628928 -0.819615 24.162109
248 0 1 2.873279 0.046146 24.630005
249 0 1 3.097499 0.665449 25.278290
250 0 1 3.897441 0.528648 25.730988
251 0 1 3.909629 1.425020 26.108490
252 0 1 3.198238 1.683534 25.522400
253 0 1 2.738490 2.549696 25.534485
254 0 1 2.262050 2.553045 26.369812
255 0 1 1.798190 3.275453 26.844299
256 0 1 2.194179 2.854383 27.639404
257 0 1 3.124851 3.052175 27.635803
258 0 1 3.981979 3.479784 27.678589
259 0 1 3.443378 3.880045 28.329498
260 0 1 3.910880 4.458055 28.916687
261 0 1 3.074191 4.923696 29.052094
262 0 1 3.290561 5.089986 28.115204
263 0 1 3.228919 5.423105 27.231903
264 0 1 3.519099 6.136075 26.612915
265 0 1 4.222919 6.241983 25.917511
266 0 1 4.224719 6.891294 25.225403
267 0 1 4.291919 7.286085 24.319611
268 0 1 3.766200 7.196035 23.494995
269 0 1 4.221087 6.976896 22.610199
270 0 1 4.094920 7.367265 21.766296
271 0 1 4.363040 7.872854 21.021805
272 0 1 4.952571 7.197225 20.682297
273 0 1 5.243819 7.322183 21.596405
274 0 1 6.232120 7.232374 21.633698
275 0 1 6.668319 7.789365 21.043701
276 0 1 7.426620 7.254625 20.926605
277 0 1 7.832118 6.624383 20.302200
278 0 1 8.595321 6.939676 20.733398
279 0 1 9.043422 6.054025 20.850800
280 0 1 8.713019 6.055856 21.740799
281 0 1 9.026721 6.763826 22.348801
282 0 1 9.513221 6.876115 23.141785
283 0 1 10.071620 6.665113 22.390594
284 0 1 9.983020 5.743894 22.482208
285 0 1 10.076819 4.812955 22.152100
286 0 1 10.883517 4.723684 22.703003
287 0 1 10.964419 4.039594 23.351807
288 0 1 10.311519 3.389555 23.767487
289 0 1 9.910022 2.659487 24.188904
290 0 1 9.226420 1.985464 24.151398
291 0 1 9.096320 1.312843 24.871490
292 0 1 8.164821 1.146083 25.088806
293 0 1 7.580920 1.748754 25.619293
294 0 1 6.937720 2.462213 25.797699
295 0 1 6.126521 2.936933 25.722809
296 0 1 6.529319 3.593763 26.365601
297 0 1 6.146419 4.228773 26.933502
298 0 1 6.387519 5.179883 27.048584
299 0 1 7.308520 5.380903 27.148407
300 0 1 7.584121 6.231115 26.744293
301 0 1 8.317821 5.737413 26.236786
302 0 1 8.219119 5.281995 25.299500
303 0 1 9.011920 4.722806 25.171814
304 0 1 9.700419 4.083765 25.540497
305 0 1 9.991118 3.658705 26.371887
306 0 1 10.387721 3.709684 27.244995
307 0 1 10.907119 4.328214 26.742493
308 0 1 11.581317 4.178033 27.412201
309 0 1 11.840922 3.836176 26.571594
310 0 1 12.715419 4.087564 26.788086
311 0 1 13.196422 3.401216 27.395813
312 0 1 13.287520 2.932184 28.166290
313 0 1 13.134620 3.325594 29.048798
314 0 1 13.631919 3.145105 29.848206
315 0 1 14.415721 2.911505 29.295990
316 0 1 15.122317 3.557523 29.469910
317 0 1 15.134517 4.542325 29.490997
318 0 1 15.344920 5.237184 28.854095
319 0 1 15.939517 4.596765 28.294098
320 0 1 16.365520 3.756185 27.973114
321 0 1 17.136318 3.675806 28.539093
322 0 1 16.584522 2.923544 28.775909
323 0 1 16.240620 3.296884 29.571106
324 0 1 15.843921 3.862814 30.269196
325 0 1 15.311320 4.360487 30.856201
326 0 1 15.488219 5.141515 31.426300
327 0 1 15.220920 6.031915 31.256592
328 0 1 14.703921 6.265203 30.456116
329 0 1 13.848918 6.193384 30.892395
330 0 1 13.560321 6.365694 29.931396
331 0 1 13.801021 6.855966 29.170288
332 0 1 13.970721 7.772703 29.000793
333 0 1 14.670520 7.106916 28.759888
334 0 1 15.204719 7.446416 28.067810
335 0 1 15.554519 8.303637 28.248596
336 0 1 16.201618 8.284594 27.481293
337 0 1 16.389523 7.422266 27.390289
338 0 1 17.337421 7.352636 27.741394
339 0 1 17.949120 8.004744 27.406708
340 0 1 17.436718 8.656385 26.823090
341 0 1 17.334019 8.830877 27.755310
342 0 1 17.392021 9.658735 27.239105
343 0 1 17.057819 10.558577 27.126312
344 0 1 16.278919 9.965345 27.493713
345 0 1 16.126820 10.227404 28.376190
346 0 1 15.224322 10.425035 28.658112
347 0 1 14.949618 10.948786 29.388214
348 0 1 14.817019 11.338583 30.267395
349 0 1 14.124419 11.371786 31.009399
350 0 1 14.296817 10.546736 30.559387
351 0 1 14.226718 9.870207 31.313812
352 0 1 15.185618 9.988104 31.432495
353 0 1 15.591517 10.016195 32.358887
354 0 1 15.953719 9.488176 33.090088
355 0 1 16.442623 8.772356 32.620087
356 0 1 17.251919 8.270933 32.438812
357 0 1 17.445820 9.056257 32.863098
358 0 1 18.019821 9.708994 33.188293
359 0 1 18.398220 10.098974 34.023804
360 0 1 17.974323 10.868383 34.095795
361 0 1 17.174721 10.333475 34.225800
362 0 1 16.963421 9.680624 34.954590
363 0 1 16.101521 10.133894 35.158997
364 0 1 15.605220 10.649504 34.566406
365 0 1 15.537620 11.476786 34.020996
366 0 1 14.627219 11.851385 34.336212
367 0 1 14.080020 11.637384 35.091888
368 0 1 13.336322 11.755186 34.537811
369 0 1 13.271518 10.947786 35.033813
370 0 1 13.448520 11.206884 35.913208
371 0 1 13.919620 10.888884 36.666412
372 0 1 12.973117 11.040983 36.874695
373 0 1 12.086322 10.763086 36.501099
374 0 1 11.355517 11.293386 36.731293
375 0 1 10.955420 10.821287 37.492096
376 0 1 11.659617 10.774485 38.250702
377 0 1 12.611819 10.975485 38.273315
378 0 1 12.543017 11.822386 37.853088
379 0 1 13.480319 12.244284 37.693207
380 0 1 13.299121 12.764185 38.498901
381 0 1 14.109420 12.345186 38.604706
382 0 1 14.416217 11.540983 38.169708
383 0 1 15.161517 10.979986 38.199585
384 0 1 16.135120 10.974184 38.264893
385 0 1 17.069019 11.130484 38.667694
386 0 1 16.763218 10.292925 39.135712
387 0 1 17.647121 10.431765 39.651489
388 0 1 18.199619 10.605394 40.441711
389 0 1 18.667221 9.907507 39.866913
390 0 1 18.757721 9.072157 39.455017
391 0 1 18.307919 8.481264 38.899689
392 0 1 17.587719 7.961244 39.293396
393 0 1 17.371220 7.062093 39.600586
394 0 1 16.798618 6.604764 39.001404
395 0 1 17.300518 5.973096 38.523407
396 0 1 17.855923 5.991144 37.767395
397 0 1 18.529221 5.845083 37.039093
398 0 1 19.123219 5.125696 36.727905
399 0 1 19.081120 4.188436 36.387085
400 0 1 19.862522 3.796564 36.058899
401 0 1 20.167622 3.460314 35.187592
402 0 1 19.350819 2.952036 35.229706
403 0 1 18.987720 2.113195 35.116516
404 0 1 18.222622 1.802024 34.646698
405 0 1 19.069019 1.636774 34.158295
406 0 1 19.695019 1.577175 33.420410
407 0 1 20.181019 0.766449 33.182312
408 0 1 20.301521 0.366483 32.335388
409 0 1 19.412121 0.336116 32.025696
410 0 1 20.026623 0.289291 31.276703
411 0 1 19.220921 -0.147953 30.962189
412 0 1 18.847721 -0.638575 31.648712
413 0 1 19.132122 -1.409136 31.210205
414 0 1 18.185322 -1.412535 30.935089
415 0 1 18.501522 -1.554436 30.081909
416 0 1 19.259922 -0.927586 29.961792
417 0 1 19.579418 -0.088368 29.693298
418 0 1 19.437820 0.746895 29.145691
419 0 1 19.366020 1.431169 28.561096
420 0 1 18.938519 1.824545 29.321289
421 0 1 17.980419 1.777145 29.484314
422 0 1 17.143520 2.176574 29.658997
423 0 1 17.774620 2.907484 29.955688
424 0 1 18.560520 3.481596 29.697601
425 0 1 18.234921 3.209944 28.862396
426 0 1 18.484219 4.056814 28.505798
427 0 1 19.134621 3.349375 28.468811
428 0 1 19.524620 3.287786 27.583588
429 0 1 18.754520 2.652673 27.568787
430 0 1 18.011723 2.110784 27.858795
431 0 1 17.180321 1.575311 27.899292
432 0 1 17.140018 1.332853 26.940308
433 0 1 17.097321 1.556795 25.964905
434 0 1 17.946121 1.309456 25.581696
435 0 1 17.216221 0.689401 25.239014
436 0 1 16.286320 0.947593 25.543304
437 0 1 15.976119 0.187301 26.095612
438 0 1 15.762317 -0.730425 26.193512
439 0 1 15.128718 -1.416275 26.482788
440 0 1 15.488917 -2.164484 26.938599
441 0 1 15.472018 -3.092196 27.091095
442 0 1 16.077721 -2.762434 26.477814
443 0 1 15.780818 -2.567585 25.569305
444 0 1 16.157719 -3.437636 25.326813
445 0 1 15.930621 -4.368895 25.501007
446 0 1 16.006420 -5.240576 25.729614
447 0 1 15.690417 -6.051665 25.291290
448 0 1 15.943622 -6.696726 24.557312
449 0 1 16.069420 -7.329655 23.952789
450 0 1 15.803420 -7.774794 24.745514
451 0 1 15.926921 -8.796194 24.822906
452 0 1 15.478820 -9.528915 24.324005
453 0 1 14.591220 -9.800714 23.950714
454 0 1 14.040019 -10.454714 24.348206
455 0 1 14.822619 -10.833414 23.936310
456 0 1 14.326720 -10.756914 23.091492
457 0 1 14.708320 -11.617615 22.750305
458 0 1 14.034617 -12.096216 22.300507
459 0 1 13.718120 -11.255716 22.335693
460 0 1 13.249419 -11.540014 23.118286
461 0 1 12.637519 -12.265516 22.934601
462 0 1 12.135020 -12.960314 22.503296
463 0 1 12.669520 -13.316315 21.776001
464 0 1 13.449618 -13.139215 22.388397
465 0 1 13.859218 -13.891715 21.853897
466 0 1 14.385821 -14.010415 22.669189
467 0 1 13.903621 -14.771914 22.323700
468 0 1 13.079921 -14.746815 22.842590
469 0 1 12.838122 -14.299115 23.690796
470 0 1 12.339717 -14.047315 24.472290
471 0 1 11.647120 -14.725315 24.151306
472 0 1 11.524020 -15.003115 23.270203
473 0 1 11.987117 -14.930715 22.453796
474 0 1 11.092818 -14.926915 22.194702
475 0 1 10.948020 -15.727116 22.729492
476 0 1 10.398921 -16.564116 22.766998
477 0 1 11.079120 -17.200815 22.692596
478 0 1 11.533717 -17.543316 23.407104
479 0 1 11.872119 -18.477415 23.566803
480 0 1 12.646220 -18.300014 24.121704
481 0 1 12.640620 -17.708315 24.934601
482 0 1 13.036021 -18.594515 25.043396
483 0 1 13.806018 -18.766214 24.533203
484 0 1 14.337520 -18.158915 25.096985
485 0 1 14.880122 -17.537815 25.653503
486 0 1 15.762317 -17.437916 25.268097
487 0 1 15.932319 -18.224014 24.700897
488 0 1 16.707920 -18.020315 24.160400
489 0 1 16.524921 -17.125814 24.410706
490 0 1 16.529320 -16.260015 24.887085
491 0 1 17.404621 -15.878414 25.218994
492 0 1 16.981518 -15.760015 26.115295
493 0 1 16.085220 -15.831415 26.505798
494 0 1 15.669421 -15.765116 25.608887
495 0 1 14.851817 -15.861515 25.060913
496 0 1 14.003818 -15.910315 24.736389
497 0 1 13.922519 -15.963116 25.660309
498 0 1 13.214221 -15.295315 25.758209
499 0 1 12.407020 -15.039715 26.234589
500 0 1 12.705417 -14.427215 26.876587
501 0 1 12.506820 -13.566816 26.445007
502 0 1 12.314620 -12.700014 26.780487
503 0 1 12.072421 -11.946615 26.231689
504 0 1 11.534419 -12.231215 25.468689
505 0 1 11.020221 -12.511415 24.683594
506 0 1 10.219520 -12.073416 24.380615
507 0 1 9.702220 -11.772915 25.169586
508 0 1 9.757720 -10.954115 25.581604
509 0 1 9.512622 -10.579214 24.753296
510 0 1 9.604121 -10.988214 23.841705
511 0 1 9.438220 -11.611715 23.152802
512 0 1 9.447921 -12.486814 23.481293
513 0 1 8.924720 -13.282515 23.694885
514 0 1 8.796718 -14.270215 23.673309
515 0 1 8.696521 -13.803816 24.563995
516 0 1 8.757819 -13.046515 25.108795
517 0 1 8.126018 -13.423014 25.692596
518 0 1 8.154120 -13.510515 26.713593
519 0 1 8.435519 -12.824316 27.397003
520 0 1 8.056918 -13.441315 27.999298
521 0 1 7.156322 -13.662815 27.803192
522 0 1 6.418818 -14.184315 28.216095
523 0 1 6.097621 -14.226515 27.356903
524 0 1 6.517020 -14.073915 26.518799
525 0 1 5.771918 -14.578115 26.071503
526 0 1 6.309817 -15.362616 26.244385
527 0 1 6.847220 -15.322914 25.469299
528 0 1 7.400619 -14.849915 24.914490
529 0 1 7.453319 -14.972115 23.945190
530 0 1 6.616717 -14.977415 23.589386
531 0 1 6.603320 -14.405715 24.353088
532 0 1 6.072921 -13.622316 23.924103
533 0 1 6.833220 -13.167515 24.361389
534 0 1 6.912417 -12.257116 24.577911
535 0 1 6.818118 -11.547215 23.978607
536 0 1 6.484321 -10.699915 23.577911
537 0 1 5.762420 -10.852114 22.975494
538 0 1 5.063151 -10.746515 22.299103
539 0 1 5.609618 -11.047014 21.526199
540 0 1 5.523520 -10.942215 20.530197
541 0 1 6.245818 -11.370314 20.013000
542 0 1 5.965919 -11.730715 19.157303
543 0 1 5.045321 -11.570314 19.114807
544 0 1 4.948501 -11.359715 18.137405
545 0 1 4.939708 -10.748514 17.378998
546 0 1 5.685821 -10.772715 16.735001
547 0 1 5.756820 -9.994915 16.247894
548 0 1 4.975772 -10.433115 16.048996
549 0 1 5.516818 -10.225815 15.243195
550 0 1 5.742419 -10.822615 14.525894
551 0 1 6.539821 -11.205715 14.287903
552 0 1 6.997119 -11.949215 13.986801
553 0 1 7.238620 -12.686815 14.548096
554 0 1 8.004420 -12.460516 15.079895
555 0 1 8.756919 -12.281614 14.430695
556 0 1 9.735221 -12.416815 14.536697
557 0 1 10.025420 -12.544016 13.673203
558 0 1 10.467818 -11.699915 13.522003
559 0 1 9.706721 -11.153715 13.347794
560 0 1 9.824321 -10.770514 14.195496
561 0 1 9.913520 -10.912016 15.198303
562 0 1 10.287620 -10.027216 15.022705
563 0 1 10.333117 -9.137955 14.649002
564 0 1 10.029819 -9.165594 15.677002
565 0 1 9.644221 -8.892555 16.477295
566 0 1 10.467818 -9.466814 16.574402
567 0 1 10.554320 -10.235815 16.054001
568 0 1 9.808719 -10.816614 16.267899
569 0 1 9.291221 -10.889116 17.031204
570 0 1 10.148120 -11.155815 17.406403
571 0 1 10.693320 -11.552916 16.726105
572 0 1 11.502620 -11.838415 16.361694
573 0 1 11.192218 -12.345316 15.612198
574 0 1 10.393020 -12.777014 15.581406
575 0 1 9.883719 -13.599314 15.688004
576 0 1 10.593020 -13.951315 15.066605
577 0 1 10.401622 -14.566915 15.720901
578 0 1 9.942321 -14.877415 16.540298
579 0 1 9.549621 -14.671215 17.397202
580 0 1 9.445918 -13.829815 16.959198
581 0 1 9.254619 -13.048914 16.341995
582 0 1 9.613219 -12.736414 17.151001
583 0 1 10.505321 -13.087614 17.174805
584 0 1 11.011317 -12.754316 17.977203
585 0 1 11.506419 -12.006115 17.527100
586 0 1 12.452121 -12.130816 17.520905
587 0 1 12.876521 -12.923115 17.083206
588 0 1 12.892718 -13.878515 17.366699
589 0 1 13.031020 -13.479715 18.241608
590 0 1 13.923919 -13.163015 18.186203
591 0 1 13.808322 -13.097216 19.097107
592 0 1 14.578620 -13.209715 19.677795
593 0 1 14.487720 -12.229515 19.647491
594 0 1 14.570720 -11.455515 19.094208
595 0 1 14.656421 -10.578115 18.708206
596 0 1 14.041419 -9.903116 18.563202
597 0 1 13.969020 -9.436716 19.456299
598 0 1 13.520419 -8.982416 20.174408
599 0 1 13.600120 -8.652275 21.089706
600 0 1 13.227321 -7.774436 21.255493
601 0 1 13.329318 -7.563925 20.290604
602 0 1 13.928920 -7.774455 19.616699
603 0 1 14.446719 -8.489004 19.233704
604 0 1 13.870219 -8.204275 18.517197
605 0 1 13.617717 -7.525336 17.830292
606 0 1 14.244517 -6.955975 18.300705
607 0 1 15.020518 -7.450156 17.964996
608 0 1 15.309817 -7.258545 17.095001
609 0 1 16.031021 -7.479586 16.463104
610 0 1 16.019421 -8.167536 17.106705
611 0 1 15.579417 -8.503954 17.972397
612 0 1 15.305621 -9.016436 17.197098
613 0 1 14.847419 -8.321966 16.652802
614 0 1 14.092921 -8.801226 16.255905
615 0 1 13.709117 -7.937075 16.036896
616 0 1 12.833217 -8.479815 16.007996
617 0 1 12.337718 -7.615645 15.944702
618 0 1 11.987117 -8.227655 15.214005
619 0 1 12.413318 -8.986734 14.833099
620 0 1 12.372317 -9.555315 15.595398
621 0 1 12.370517 -10.250216 16.271500
622 0 1 12.418220 -10.984816 16.944092
623 0 1 12.622218 -10.295815 17.598404
624 0 1 12.150420 -10.019815 18.339706
625 0 1 11.869720 -9.521215 19.114197
626 0 1 12.015521 -8.817526 19.720703
627 0 1 11.087218 -8.382895 19.676895
628 0 1 11.154120 -7.528407 19.159195
629 0 1 11.994720 -7.089036 18.955292
630 0 1 12.087321 -6.170126 19.300598
631 0 1 11.739020 -5.246676 19.378403
632 0 1 11.363219 -5.285204 20.298492
633 0 1 10.588618 -5.089674 20.885696
634 0 1 9.620719 -4.966986 20.856995
635 0 1 9.236419 -5.344775 21.652802
636 0 1 8.440619 -5.004405 22.045303
637 0 1 7.734218 -5.086125 21.304794
638 0 1 8.074821 -4.918545 20.423996
639 0 1 8.152221 -4.829115 19.501404
640 0 1 7.842418 -4.001956 19.213196
641 0 1 7.279918 -3.621004 18.610992
642 0 1 7.558719 -3.953726 17.711502
643 0 1 8.214618 -4.527726 17.298996
644 0 1 8.817019 -3.794886 17.192795
645 0 1 9.662219 -3.507035 17.374100
646 0 1 9.706820 -3.616616 16.359802
647 0 1 10.488318 -3.101946 16.122894
648 0 1 11.361819 -2.738344 16.540497
649 0 1 11.773921 -3.520596 16.035095
650 0 1 12.286822 -3.673805 15.242905
651 0 1 12.763721 -4.405156 15.534103
652 0 1 13.337119 -4.821425 14.853394
653 0 1 13.827022 -4.452805 14.159897
654 0 1 14.742717 -4.600325 14.080307
655 0 1 15.266017 -4.576966 14.871597
656 0 1 15.151919 -3.666926 15.260101
657 0 1 14.301318 -3.265635 15.624298
658 0 1 13.822818 -3.354254 14.836395
659 0 1 12.996619 -3.383936 14.291107
660 0 1 13.167521 -2.492445 14.059998
661 0 1 12.649920 -2.270596 14.848801
662 0 1 12.066119 -1.936135 14.220001
663 0 1 11.397319 -2.568255 13.939392
664 0 1 11.555118 -3.412335 13.451004
665 0 1 10.854018 -3.537924 12.721603
666 0 1 10.585219 -3.188605 11.909393
667 0 1 10.108619 -2.357916 11.626205
668 0 1 9.446521 -1.932764 12.299103
669 0 1 9.106921 -1.861166 13.203705
670 0 1 8.954619 -0.886404 13.084106
671 0 1 8.778819 0.087583 13.003998
672 0 1 9.513419 -0.121073 13.546097
673 0 1 10.226119 -0.780985 13.365692
674 0 1 11.247420 -0.592634 13.270798
675 0 1 10.602618 -0.081654 12.783798
676 0 1 10.007220 0.684576 12.828995
677 0 1 10.040622 1.630365 13.099396
678 0 1 10.766818 1.940715 12.625000
679 0 1 11.558520 2.512125 12.460205
680 0 1 10.971019 3.278375 12.545898
681 0 1 9.994517 3.188017 12.281601
682 0 1 9.907222 2.991464 11.379196
683 0 1 9.975520 2.061765 11.305893
684 0 1 10.183120 1.717365 10.309692
685 0 1 9.459418 1.144468 10.020096
686 0 1 8.581420 1.039617 9.604294
687 0 1 8.223620 0.961744 8.773956
688 0 1 7.290721 0.739073 9.072266
689 0 1 7.581019 0.465650 8.193222
690 0 1 7.761920 -0.496664 7.885498
691 0 1 8.718619 -0.606095 7.805191
692 0 1 9.102221 -0.360245 6.947418
693 0 1 9.534221 0.536007 7.183395
694 0 1 8.499419 0.648636 7.293243
695 0 1 8.168818 0.669466 6.400406
696 0 1 8.720321 0.454206 5.662613
697 0 1 9.495521 0.829740 6.110001
698 0 1 9.610419 1.616645 6.599075
699 0 1 9.614421 2.259706 7.340088
700 0 1 10.116920 1.975175 8.154343
701 0 1 10.057719 2.856104 8.252289
702 0 1 10.396319 3.448004 8.955124
703 0 1 10.677718 3.724516 8.021255
704 0 1 9.928721 4.229375 8.268951
705 0 1 9.771220 4.272985 7.333817
706 0 1 9.528720 3.894064 6.490860
707 0 1 10.367019 4.108915 6.012085
708 0 1 10.570121 4.512224 5.137161
709 0 1 11.202819 5.236635 5.351807
710 0 1 11.711120 5.268175 4.524307
711 0 1 12.645419 4.885595 4.383148
712 0 1 12.567821 5.539766 3.678101
713 0 1 12.845420 5.895185 2.796753
714 0 1 13.017119 6.463766 2.028122
715 0 1 13.744220 6.328054 1.442886
716 0 1 14.682120 6.016553 1.319626
717 0 1 15.446319 6.333795 1.815765
718 0 1 15.896022 7.051946 2.299683
719 0 1 16.510319 7.699396 2.668106
720 0 1 16.390118 8.665705 2.756042
721 0 1 16.248821 9.652777 2.676300
722 0 1 16.755322 10.207556 3.274353
723 0 1 16.149822 10.838884 2.848282
724 0 1 16.711620 11.537985 2.451935
725 0 1 16.804218 12.282087 2.969574
726 0 1 17.527821 12.798384 2.615906
727 0 1 17.201618 13.332884 3.394028
728 0 1 16.305622 13.660585 3.423904
729 0 1 15.704219 13.179586 2.705460
730 0 1 15.238421 14.014685 2.500626
731 0 1 15.189822 14.966085 2.702301
732 0 1 15.416720 15.925886 3.082352
733 0 1 15.639220 16.871588 2.842667
734 0 1 16.231419 16.570486 3.521896
735 0 1 15.788218 16.024984 4.246414
736 0 1 15.791919 15.180185 3.774872
737 0 1 16.425121 15.150984 3.009094
738 0 1 16.488422 14.791784 2.112961
739 0 1 17.350918 15.266287 1.999573
740 0 1 18.029621 15.998686 1.687286
741 0 1 17.488018 16.790785 1.465103
742 0 1 16.543423 16.839186 1.611298
743 0 1 16.156120 16.924986 0.756973
744 0 1 16.184120 15.910383 0.483673
745 0 1 15.425921 16.242884 -0.054810
746 0 1 14.694320 15.729383 -0.515244
747 0 1 13.744418 15.641886 -0.846253
748 0 1 14.210818 16.426886 -1.369217
749 0 1 14.079318 16.898886 -0.552475
750 0 1 14.033420 17.454184 0.267441
751 0 1 13.073817 17.119787 0.256348
752 0 1 12.719520 16.959486 -0.616837
753 0 1 12.437419 17.244684 -1.525406
754 0 1 11.677821 17.502783 -1.056961
755 0 1 11.440921 16.618784 -1.529678
756 0 1 11.405818 15.752085 -1.117706
757 0 1 10.569118 16.154184 -1.469254
758 0 1 9.919219 16.889982 -1.300934
759 0 1 9.587920 16.207285 -1.833878
760 0 1 8.947120 15.746183 -1.283661
761 0 1 8.602820 16.647684 -1.087006
762 0 1 8.586921 17.629885 -1.319916
763 0 1 7.901721 18.243986 -0.997315
764 0 1 7.449519 19.055285 -1.165314
765 0 1 8.248919 19.423685 -1.580887
766 0 1 7.831519 19.672888 -2.413986
767 0 1 8.599319 19.820185 -2.969070
768 0 1 7.903220 20.464888 -3.091919
769 0 1 7.545920 20.021383 -3.921814
770 0 1 7.975421 19.818285 -4.791351
771 0 1 8.680621 20.208586 -5.269745
772 0 1 9.508719 19.822485 -4.914917
773 0 1 9.368720 19.407885 -5.792984
774 0 1 8.949618 20.026384 -6.345596
775 0 1 8.007319 19.811285 -6.206787
776 0 1 8.243819 20.354383 -6.961548
777 0 1 7.658221 19.804487 -7.450912
778 0 1 7.635718 20.662786 -7.857025
779 0 1 6.683520 20.814688 -7.689713
780 0 1 5.904120 20.464186 -7.179886
781 0 1 5.461219 20.159986 -6.346481
782 0 1 5.177852 20.271086 -5.501541
783 0 1 5.836719 20.022486 -4.916183
784 0 1 5.831721 19.055285 -4.696365
785 0 1 6.262721 18.132383 -4.300323
786 0 1 5.623118 17.876184 -4.917694
787 0 1 5.421618 17.973585 -5.884598
788 0 1 5.547019 17.160383 -6.398087
789 0 1 4.905841 16.605284 -6.906586
790 0 1 5.829619 16.678885 -7.216599