LAMMPS data file via MDAnalysis

        2000  atoms
        1999  bonds
           0  angles
           0  dihedrals
           0  impropers

           1  atom types
           1  bond types
           0  angle types
           0  dihedral types
           0  improper types

-30.5 30.5 xlo xhi
-30.5 30.5 ylo yhi
-233.5 233.5 zlo zhi


Masses

1 1.000000

Atoms

1 0 1 -5.823555 -19.469976 71.955597
2 0 1 -5.077875 -19.108475 71.508209
3 0 1 -4.907403 -18.687376 72.459503
4 0 1 -5.407884 -19.126677 73.173004
5 0 1 -5.795013 -18.748775 73.964996
6 0 1 -6.264625 -17.899176 73.863281
7 0 1 -6.796344 -17.956776 74.718292
8 0 1 -6.308984 -17.165775 75.061493
9 0 1 -5.651334 -17.890175 75.397705
10 0 1 -6.152824 -18.482376 76.025085
11 0 1 -5.976284 -17.959276 76.819702
12 0 1 -6.429355 -18.222876 77.679016
13 0 1 -6.150985 -18.824976 78.364594
14 0 1 -6.197803 -19.754477 78.460999
15 0 1 -5.977064 -19.891075 77.556885
16 0 1 -6.030284 -20.494677 76.821899
17 0 1 -6.454944 -21.261976 77.042114
18 0 1 -6.651103 -20.967476 77.942810
19 0 1 -7.158554 -21.686775 77.589417
20 0 1 -6.597675 -22.460075 77.768097
21 0 1 -6.802444 -22.434875 78.705994
22 0 1 -6.599945 -23.382076 78.679108
23 0 1 -7.270574 -23.996576 78.980896
24 0 1 -6.597175 -24.602276 79.256195
25 0 1 -7.289283 -24.510475 79.927094
26 0 1 -7.347124 -24.515276 80.868896
27 0 1 -6.767143 -24.676676 81.576294
28 0 1 -6.805633 -23.935175 82.190308
29 0 1 -5.888305 -23.835976 81.990784
30 0 1 -5.144683 -23.280075 82.414490
31 0 1 -5.910894 -22.651775 82.364990
32 0 1 -6.378505 -22.758976 81.468018
33 0 1 -5.546485 -22.288176 81.411682
34 0 1 -6.006855 -22.005575 80.675110
35 0 1 -6.721813 -21.363276 80.744690
36 0 1 -6.773635 -20.547775 80.207306
37 0 1 -6.232475 -20.331476 79.465881
38 0 1 -5.365154 -20.047176 79.666687
39 0 1 -4.405925 -20.179676 79.362183
40 0 1 -3.857094 -19.406275 79.392395
41 0 1 -3.888334 -18.551476 78.893311
42 0 1 -3.891063 -18.926876 77.981384
43 0 1 -3.329304 -18.868376 77.201691
44 0 1 -3.044344 -19.520876 77.820984
45 0 1 -2.186764 -19.921875 77.510315
46 0 1 -1.307894 -19.805676 77.180298
47 0 1 -0.769485 -20.468876 76.750793
48 0 1 -1.228504 -21.209776 77.022003
49 0 1 -2.102424 -20.990276 76.577606
50 0 1 -1.849785 -20.797075 75.617310
51 0 1 -2.429075 -20.531576 74.860107
52 0 1 -1.964704 -19.742176 74.611298
53 0 1 -1.700195 -18.940975 74.075195
54 0 1 -1.028274 -19.201777 74.798492
55 0 1 -0.804695 -19.764076 74.023682
56 0 1 -0.162704 -19.585375 73.402802
57 0 1 -0.324444 -18.795475 72.872314
58 0 1 0.572365 -18.611376 73.020905
59 0 1 0.679955 -17.763075 72.450409
60 0 1 1.101616 -16.968975 71.897308
61 0 1 1.096707 -16.528875 70.984100
62 0 1 0.228985 -16.890375 70.968109
63 0 1 -0.333225 -16.516075 71.595581
64 0 1 -0.868025 -16.420675 70.799805
65 0 1 -0.725034 -15.460575 70.906891
66 0 1 -1.673595 -15.210476 70.586395
67 0 1 -2.617405 -14.975775 70.377411
68 0 1 -3.596504 -15.065975 70.675201
69 0 1 -3.146583 -15.453775 71.425781
70 0 1 -3.741714 -16.197275 71.290710
71 0 1 -4.585294 -16.376677 71.846191
72 0 1 -5.046705 -16.977575 71.234100
73 0 1 -5.340604 -17.796175 70.735199
74 0 1 -5.761783 -17.720875 71.574493
75 0 1 -6.640335 -17.907776 71.247498
76 0 1 -6.779994 -17.025875 71.545715
77 0 1 -6.777784 -16.137976 71.883118
78 0 1 -6.740234 -16.062376 70.959808
79 0 1 -7.060884 -15.189075 71.268494
80 0 1 -7.950714 -14.855875 71.509003
81 0 1 -7.974514 -15.044775 70.598694
82 0 1 -8.603615 -15.532976 71.088196
83 0 1 -9.348515 -15.806477 71.600403
84 0 1 -10.296215 -15.562975 71.501404
85 0 1 -10.613514 -14.666475 71.506287
86 0 1 -11.339914 -14.659075 72.181610
87 0 1 -11.492914 -15.527975 72.346985
88 0 1 -12.257814 -15.903276 72.695496
89 0 1 -12.864514 -16.438675 73.213989
90 0 1 -13.250215 -16.533676 72.284119
91 0 1 -13.863914 -17.169575 72.109985
92 0 1 -14.735514 -17.219376 71.759308
93 0 1 -15.107714 -16.353975 71.888000
94 0 1 -14.803415 -16.235975 70.920715
95 0 1 -15.432415 -15.474276 70.959991
96 0 1 -16.295715 -15.150476 70.767517
97 0 1 -15.813814 -14.865376 69.937988
98 0 1 -15.395914 -15.741877 69.745697
99 0 1 -15.319315 -16.060175 68.852203
100 0 1 -15.338514 -16.343576 67.939789
101 0 1 -14.610115 -16.251776 67.364410
102 0 1 -14.083414 -16.524675 66.598083
103 0 1 -13.119215 -16.303776 66.654785
104 0 1 -12.793115 -16.897875 65.922791
105 0 1 -12.537114 -16.543976 65.014709
106 0 1 -11.783115 -16.563776 64.273895
107 0 1 -11.071714 -17.194275 64.350006
108 0 1 -11.570415 -17.696375 64.888306
109 0 1 -11.049213 -18.357775 65.445709
110 0 1 -11.553413 -19.101675 65.773987
111 0 1 -10.761314 -19.128275 66.313416
112 0 1 -10.200615 -18.794075 66.987701
113 0 1 -10.511414 -18.190275 67.688293
114 0 1 -10.485714 -19.074276 68.064301
115 0 1 -9.641014 -19.057276 68.601593
116 0 1 -9.610415 -19.695076 69.359589
117 0 1 -9.362816 -20.557076 69.066803
118 0 1 -8.938015 -20.383976 69.948608
119 0 1 -8.452314 -19.789776 70.574310
120 0 1 -7.895814 -19.399275 71.295410
121 0 1 -8.621216 -18.910675 71.694305
122 0 1 -8.723816 -17.996275 71.481903
123 0 1 -9.177216 -18.290375 70.713318
124 0 1 -8.917515 -18.088375 69.743500
125 0 1 -9.344315 -17.470875 69.012390
126 0 1 -8.483913 -16.983776 69.046814
127 0 1 -8.087114 -17.864876 68.851593
128 0 1 -7.066984 -17.733576 68.699799
129 0 1 -6.247594 -17.258575 68.642792
130 0 1 -6.707714 -17.373676 67.794800
131 0 1 -6.525224 -18.286776 67.434082
132 0 1 -5.687343 -17.952477 67.299011
133 0 1 -5.655853 -17.444777 66.484802
134 0 1 -5.800704 -16.712175 65.838684
135 0 1 -6.700864 -16.251776 65.978210
136 0 1 -7.302804 -15.525675 66.041809
137 0 1 -7.351194 -14.511076 65.924591
138 0 1 -8.032515 -13.788475 65.880402
139 0 1 -8.649115 -13.333576 65.240295
140 0 1 -8.203915 -14.074476 64.816895
141 0 1 -7.275733 -14.224276 64.843292
142 0 1 -6.605554 -13.618277 64.951904
143 0 1 -6.793983 -12.801176 64.554291
144 0 1 -6.614543 -11.872275 64.364594
145 0 1 -7.517894 -11.599876 64.089111
146 0 1 -7.017644 -10.758377 63.910309
147 0 1 -7.698215 -10.077776 63.914917
148 0 1 -8.370316 -10.390976 64.542694
149 0 1 -8.895815 -11.121975 64.243805
150 0 1 -8.795513 -12.082776 64.113281
151 0 1 -9.540615 -12.671176 64.238007
152 0 1 -10.009714 -12.804775 63.395508
153 0 1 -10.396416 -12.153376 64.019196
154 0 1 -10.398415 -11.540676 63.310699
155 0 1 -11.281715 -11.305676 63.648987
156 0 1 -11.368916 -10.361176 63.589905
157 0 1 -10.635513 -10.758976 64.056702
158 0 1 -10.148514 -10.205475 64.609406
159 0 1 -9.767115 -9.303576 64.440002
160 0 1 -9.583214 -9.463375 63.496307
161 0 1 -8.821215 -9.154575 63.962402
162 0 1 -8.027115 -8.687977 63.604797
163 0 1 -7.963714 -9.182976 62.776489
164 0 1 -7.061574 -9.000675 62.898102
165 0 1 -6.768283 -9.699776 63.581787
166 0 1 -6.149185 -9.983376 62.934601
167 0 1 -5.836544 -10.740974 62.371307
168 0 1 -5.130794 -11.014774 61.691895
169 0 1 -4.724214 -11.213575 62.560486
170 0 1 -4.232044 -11.418076 63.359802
171 0 1 -4.091054 -12.143576 62.794098
172 0 1 -3.266035 -12.527575 62.324310
173 0 1 -2.346885 -12.635076 62.649506
174 0 1 -2.319294 -12.330476 61.774689
175 0 1 -1.972854 -12.830775 61.071411
176 0 1 -1.538574 -11.942976 61.085602
177 0 1 -0.854034 -12.512476 61.396606
178 0 1 -0.195724 -12.696976 60.739288
179 0 1 0.659806 -12.817876 61.221497
180 0 1 0.565546 -13.737875 61.385315
181 0 1 -0.348375 -13.637075 61.250397
182 0 1 -0.914995 -14.374775 61.013702
183 0 1 -1.602224 -14.543875 61.675598
184 0 1 -2.238455 -15.117476 62.189209
185 0 1 -1.374775 -15.564476 62.256195
186 0 1 -2.064825 -16.194275 62.377808
187 0 1 -2.553674 -17.067875 62.421997
188 0 1 -3.477115 -16.790276 62.315308
189 0 1 -3.753074 -16.041576 61.822113
190 0 1 -3.485725 -15.205576 61.541199
191 0 1 -3.289064 -15.894375 60.938293
192 0 1 -3.427374 -15.456276 60.113007
193 0 1 -3.058874 -14.794176 59.465607
194 0 1 -2.812755 -13.880375 59.535095
195 0 1 -2.119255 -13.387177 59.153290
196 0 1 -1.494184 -13.810076 58.562408
197 0 1 -1.834804 -14.172276 57.774597
198 0 1 -1.265314 -14.801775 57.372192
199 0 1 -0.513565 -14.388876 56.842407
200 0 1 0.219555 -14.663275 56.227692
201 0 1 -0.047445 -15.357576 56.894714
202 0 1 0.081536 -16.080776 56.266296
203 0 1 -0.595894 -16.583475 55.789185
204 0 1 -0.598005 -16.213575 54.938416
205 0 1 -0.532955 -16.204376 53.854309
206 0 1 -1.045965 -15.537075 54.210083
207 0 1 -1.268043 -15.077875 55.025787
208 0 1 -2.019474 -15.390875 54.490509
209 0 1 -1.799824 -16.093775 55.081512
210 0 1 -2.014845 -17.013475 55.055298
211 0 1 -2.876714 -16.983976 54.620209
212 0 1 -2.958654 -17.885475 55.076508
213 0 1 -3.938434 -18.134975 55.172302
214 0 1 -4.175554 -18.152576 54.163391
215 0 1 -4.222894 -17.186975 53.968811
216 0 1 -4.222024 -16.837776 53.036499
217 0 1 -5.025033 -16.501776 52.643616
218 0 1 -5.933534 -16.143976 52.762604
219 0 1 -5.503154 -15.505575 53.372589
220 0 1 -6.287744 -15.015375 53.580505
221 0 1 -6.431163 -15.004875 52.597809
222 0 1 -7.442855 -14.850775 52.771606
223 0 1 -8.023214 -15.282976 53.461792
224 0 1 -8.800915 -15.324875 52.830017
225 0 1 -8.597015 -15.864376 52.075195
226 0 1 -8.272915 -16.626575 52.725006
227 0 1 -7.804414 -17.410675 52.304596
228 0 1 -8.708614 -17.807276 52.253387
229 0 1 -8.912615 -18.632475 52.589996
230 0 1 -8.248615 -19.348875 52.657898
231 0 1 -8.833015 -20.025476 52.370483
232 0 1 -9.100615 -20.458376 53.160797
233 0 1 -9.364815 -20.923475 52.340912
234 0 1 -10.130714 -21.244276 51.645813
235 0 1 -10.736916 -20.795275 52.288910
236 0 1 -11.567314 -21.170576 52.420197
237 0 1 -11.086514 -21.845175 52.903198
238 0 1 -10.965214 -21.088575 53.507507
239 0 1 -11.204815 -20.242476 53.067902
240 0 1 -12.160814 -20.175877 52.770508
241 0 1 -12.157115 -19.198475 52.724915
242 0 1 -12.554714 -18.345875 52.566895
243 0 1 -12.255614 -17.468275 52.919708
244 0 1 -11.751816 -16.877676 52.329803
245 0 1 -12.302614 -16.318476 51.687103
246 0 1 -11.609015 -15.863876 52.054504
247 0 1 -11.909016 -14.986975 51.612915
248 0 1 -11.389416 -14.935076 50.811584
249 0 1 -10.581715 -15.532276 50.432709
250 0 1 -9.989716 -15.006475 49.917908
251 0 1 -10.662415 -14.200377 49.836487
252 0 1 -10.937315 -14.798876 49.123199
253 0 1 -10.383215 -14.689775 48.345795
254 0 1 -9.615913 -14.578676 47.788086
255 0 1 -8.687115 -14.202076 47.840210
256 0 1 -8.217514 -15.021875 47.608612
257 0 1 -7.895114 -15.052076 46.650208
258 0 1 -7.905113 -14.069975 46.629700
259 0 1 -7.166473 -13.385675 46.383087
260 0 1 -7.043415 -12.477976 46.568207
261 0 1 -6.570444 -11.860876 45.955688
262 0 1 -6.555995 -11.997275 45.048584
263 0 1 -6.433963 -11.068874 45.246307
264 0 1 -6.221923 -10.250875 45.841309
265 0 1 -5.518064 -10.068874 46.393890
266 0 1 -5.740615 -10.837074 46.879395
267 0 1 -6.062774 -10.042175 47.348907
268 0 1 -6.470413 -9.708675 48.132904
269 0 1 -6.331974 -9.239574 49.026917
270 0 1 -7.343894 -9.565075 49.015198
271 0 1 -8.018515 -9.207874 49.654999
272 0 1 -7.912315 -8.453175 49.026001
273 0 1 -7.861614 -7.592175 48.795105
274 0 1 -7.113594 -7.579376 48.189514
275 0 1 -6.290864 -8.010675 48.434814
276 0 1 -5.793643 -7.270176 48.744110
277 0 1 -4.861413 -7.268375 48.923096
278 0 1 -4.226804 -7.949575 49.250916
279 0 1 -4.479684 -8.430077 48.489288
280 0 1 -5.077764 -8.067875 47.855804
281 0 1 -5.105764 -8.634075 47.076294
282 0 1 -5.972454 -8.642475 46.669617
283 0 1 -6.321273 -8.591375 45.744904
284 0 1 -5.993633 -7.736774 45.648590
285 0 1 -5.503805 -7.012085 46.050507
286 0 1 -4.877294 -6.658186 45.490692
287 0 1 -4.055385 -7.011387 45.970001
288 0 1 -3.919063 -6.103506 45.789307
289 0 1 -3.234375 -5.658127 45.394104
290 0 1 -2.512104 -5.197685 44.885803
291 0 1 -3.172884 -4.538145 45.036407
292 0 1 -3.282074 -4.703575 44.102203
293 0 1 -3.988775 -4.069527 43.855408
294 0 1 -3.703874 -3.584566 43.051605
295 0 1 -2.976104 -2.932956 43.215302
296 0 1 -3.249544 -2.110636 43.636597
297 0 1 -3.446344 -1.167026 43.578003
298 0 1 -3.414095 -0.168695 43.618896
299 0 1 -3.438644 -0.024986 42.663696
300 0 1 -3.563465 0.171845 41.728699
301 0 1 -4.407644 0.547535 41.580200
302 0 1 -5.316844 0.474785 41.972504
303 0 1 -6.192825 0.317425 41.898987
304 0 1 -6.419734 -0.139095 42.709991
305 0 1 -5.936985 -1.023956 42.818390
306 0 1 -6.402414 -1.768036 43.037994
307 0 1 -6.933803 -1.434566 43.826111
308 0 1 -7.082904 -0.892355 44.635712
309 0 1 -7.824014 -0.579046 44.013916
310 0 1 -7.961814 0.113705 43.331787
311 0 1 -8.866415 -0.280886 43.564697
312 0 1 -9.715015 -0.621326 43.945312
313 0 1 -10.452114 -0.584705 44.575409
314 0 1 -10.814415 -1.380266 44.122192
315 0 1 -11.568214 -0.738025 44.117889
316 0 1 -12.400615 -0.275736 43.779907
317 0 1 -12.417515 0.162045 44.579407
318 0 1 -12.342814 -0.650795 45.174408
319 0 1 -13.210714 -0.251095 45.570984
320 0 1 -13.957615 -0.051456 46.120697
321 0 1 -14.231314 -0.937296 45.823395
322 0 1 -14.909115 -0.215736 45.557190
323 0 1 -15.719114 0.189135 45.985413
324 0 1 -16.618614 0.178164 45.718811
325 0 1 -16.759615 -0.128515 46.587708
326 0 1 -16.580915 -0.166736 47.548187
327 0 1 -16.934114 -0.112085 48.400604
328 0 1 -16.061014 -0.078876 48.844910
329 0 1 -15.320415 0.332665 48.379517
330 0 1 -14.707115 -0.318605 47.908813
331 0 1 -14.234514 0.537794 47.778900
332 0 1 -13.345315 0.240275 47.862915
333 0 1 -13.464314 0.681944 48.763489
334 0 1 -13.715515 1.000015 49.591309
335 0 1 -13.872215 1.702564 48.892090
336 0 1 -14.065815 2.688883 48.908386
337 0 1 -13.820215 3.461981 48.428284
338 0 1 -14.283215 4.268934 48.114105
339 0 1 -13.602215 4.202614 47.490509
340 0 1 -13.082015 5.094513 47.338989
341 0 1 -12.722215 5.945835 46.944794
342 0 1 -12.161715 6.286224 46.260193
343 0 1 -11.552914 5.781265 45.764191
344 0 1 -11.317215 4.947315 45.453308
345 0 1 -10.762915 4.478252 46.070007
346 0 1 -10.468716 5.039196 46.824585
347 0 1 -10.127615 5.762646 46.204498
348 0 1 -9.400616 5.178185 45.766296
349 0 1 -8.947315 5.327656 44.899292
350 0 1 -8.017115 5.327385 44.607697
351 0 1 -7.668914 6.214043 44.487610
352 0 1 -7.630615 6.257046 45.549500
353 0 1 -7.207334 6.379295 46.357697
354 0 1 -6.572404 6.779575 45.743103
355 0 1 -5.959754 7.067875 45.079803
356 0 1 -5.214935 6.461334 44.788391
357 0 1 -4.712715 5.978535 44.068512
358 0 1 -3.986555 6.442875 44.456512
359 0 1 -3.695453 7.328625 44.461792
360 0 1 -4.018434 8.020405 45.005005
361 0 1 -4.317625 8.239674 45.920593
362 0 1 -3.851845 8.761356 46.508789
363 0 1 -2.909164 8.707886 46.401794
364 0 1 -2.195694 8.101673 46.236298
365 0 1 -2.236835 7.253086 45.806396
366 0 1 -2.971254 6.863564 46.307404
367 0 1 -2.335844 6.241074 45.899597
368 0 1 -2.184334 5.648136 45.121490
369 0 1 -3.089744 5.770515 45.363495
370 0 1 -3.086433 5.549133 44.414001
371 0 1 -2.422464 4.879093 43.966095
372 0 1 -3.152944 4.249815 44.119904
373 0 1 -3.167335 3.596876 43.475311
374 0 1 -3.639724 2.951351 43.005890
375 0 1 -2.829975 2.701531 42.528412
376 0 1 -3.211464 3.523674 42.177399
377 0 1 -3.255474 4.316734 41.650208
378 0 1 -3.800974 4.005024 40.928406
379 0 1 -3.402115 4.173365 40.097198
380 0 1 -4.261095 4.457146 39.761597
381 0 1 -5.234653 4.211014 39.731689
382 0 1 -5.304883 5.206383 39.884216
383 0 1 -4.637844 5.836796 39.523193
384 0 1 -4.019304 6.638474 39.738190
385 0 1 -3.399334 7.086506 39.157196
386 0 1 -3.627064 7.593063 38.377991
387 0 1 -3.892833 6.720795 37.984497
388 0 1 -4.575294 6.711376 37.346191
389 0 1 -4.940294 6.600086 36.475586
390 0 1 -5.101465 7.254005 35.815491
391 0 1 -5.194274 7.571476 34.942200
392 0 1 -4.315303 7.903416 35.114105
393 0 1 -3.668234 8.071423 34.454803
394 0 1 -3.388494 8.473854 35.273315
395 0 1 -3.219404 7.535725 35.439911
396 0 1 -2.705295 8.028263 36.087891
397 0 1 -2.120714 8.781025 35.927094
398 0 1 -2.272924 9.389565 35.209595
399 0 1 -2.257524 8.654335 34.632904
400 0 1 -1.609974 8.342144 33.984406
401 0 1 -1.290405 7.470943 33.882202
402 0 1 -0.764663 7.395885 34.633606
403 0 1 -1.045334 7.030205 35.505493
404 0 1 -1.398245 6.107346 35.384613
405 0 1 -1.583975 5.114834 35.413391
406 0 1 -0.897545 4.901443 34.720490
407 0 1 -0.164434 4.332695 34.492401
408 0 1 0.103216 3.805201 33.692413
409 0 1 -0.156135 3.462927 32.741608
410 0 1 0.066166 3.496048 31.761292
411 0 1 1.108196 3.610642 31.923004
412 0 1 1.373307 3.290272 31.075409
413 0 1 1.046955 4.068205 30.535797
414 0 1 2.019602 4.270695 30.562012
415 0 1 2.459831 4.233614 29.711212
416 0 1 3.024489 4.766743 30.308899
417 0 1 3.302521 3.821516 30.479889
418 0 1 4.095765 3.197838 30.422302
419 0 1 4.920174 2.719965 30.196289
420 0 1 4.714196 3.179157 29.420593
421 0 1 4.939908 3.997164 29.887299
422 0 1 5.470345 3.780051 29.034485
423 0 1 4.895516 3.366787 28.385712
424 0 1 4.945035 3.177424 27.463287
425 0 1 4.880345 2.182324 27.665314
426 0 1 5.231446 1.285605 27.484497
427 0 1 5.044365 0.620794 28.115387
428 0 1 5.477437 1.381294 28.448608
429 0 1 5.432835 1.629294 29.401093
430 0 1 5.317826 1.175354 30.296387
431 0 1 5.591607 0.584154 29.628693
432 0 1 6.490937 0.914295 29.845001
433 0 1 7.228146 1.012434 29.067810
434 0 1 8.025375 0.895235 28.627594
435 0 1 7.919995 1.934975 28.482208
436 0 1 7.607625 2.752640 28.005707
437 0 1 8.157696 3.459082 28.358215
438 0 1 8.668434 3.325491 27.562897
439 0 1 9.310474 3.233896 28.204895
440 0 1 9.820404 2.913143 28.931000
441 0 1 9.876476 2.358330 29.735809
442 0 1 9.927326 2.093989 30.650513
443 0 1 9.545807 1.235294 30.756104
444 0 1 9.470005 1.028734 29.737701
445 0 1 9.029217 0.373755 30.310303
446 0 1 9.024994 -0.175386 31.097687
447 0 1 8.393444 -0.704595 30.571594
448 0 1 7.840577 -1.392525 30.255188
449 0 1 7.012677 -1.396305 29.706299
450 0 1 7.537865 -1.201025 28.902405
451 0 1 8.418266 -1.506315 29.119202
452 0 1 8.918243 -0.611845 29.190094
453 0 1 9.567116 -1.351227 29.247589
454 0 1 9.152626 -2.095335 29.698914
455 0 1 9.835705 -2.607616 29.286194
456 0 1 10.088047 -2.565626 30.244507
457 0 1 10.586704 -1.808685 30.021301
458 0 1 11.355576 -2.296255 30.343903
459 0 1 11.944763 -2.231075 29.529785
460 0 1 12.425686 -1.572025 30.045410
461 0 1 13.285286 -1.153086 30.241089
462 0 1 12.628086 -0.610786 29.706116
463 0 1 13.366783 -0.300766 29.244385
464 0 1 13.240185 0.622675 29.116913
465 0 1 12.854187 0.287634 28.270813
466 0 1 11.958633 -0.162115 28.381897
467 0 1 11.162155 0.026465 28.886597
468 0 1 10.945515 0.955404 28.769806
469 0 1 10.771984 0.773325 27.781708
470 0 1 10.821964 -0.215185 27.718689
471 0 1 10.553837 0.025095 26.796204
472 0 1 9.883205 0.191984 27.502808
473 0 1 9.627266 0.867405 26.785309
474 0 1 10.139374 0.790363 25.964813
475 0 1 9.796734 -0.076126 25.851593
476 0 1 9.956356 -0.751056 25.268402
477 0 1 9.591057 -1.593176 24.944794
478 0 1 8.851067 -1.469826 24.350311
479 0 1 8.380424 -1.477655 25.180115
480 0 1 8.577156 -2.351536 25.536316
481 0 1 8.219086 -2.755895 24.673889
482 0 1 7.468205 -3.095886 24.178101
483 0 1 6.817807 -2.986986 23.474792
484 0 1 6.442116 -2.616134 22.670013
485 0 1 6.934525 -1.827286 23.062592
486 0 1 7.912415 -1.942005 22.930298
487 0 1 7.537835 -1.660755 22.109299
488 0 1 8.185314 -0.966696 22.016296
489 0 1 7.685967 -0.171926 21.705399
490 0 1 8.389107 -0.420986 21.104706
491 0 1 8.716354 -1.254036 20.599396
492 0 1 9.558796 -1.074896 20.039001
493 0 1 10.240913 -1.713825 19.702103
494 0 1 9.730896 -2.140415 18.958405
495 0 1 9.150646 -2.668266 18.357895
496 0 1 9.424484 -3.541206 18.505493
497 0 1 8.472107 -3.733646 18.361404
498 0 1 8.312965 -3.645096 17.436096
499 0 1 8.810394 -2.920465 17.208298
500 0 1 8.718357 -2.125585 16.692795
501 0 1 8.082336 -1.467457 16.597000
502 0 1 7.574425 -0.835485 16.146896
503 0 1 8.358635 -0.609526 15.591095
504 0 1 8.729355 -0.136955 14.864395
505 0 1 9.110004 -0.803634 14.221207
506 0 1 8.982758 -1.524435 14.881607
507 0 1 8.092377 -1.479475 14.602707
508 0 1 7.401787 -0.924946 14.203903
509 0 1 7.138085 -1.020166 15.088501
510 0 1 7.678967 -0.184727 15.079605
511 0 1 7.683327 0.769964 14.937195
512 0 1 6.808217 0.977535 14.533096
513 0 1 7.081574 1.429865 13.644897
514 0 1 7.640168 2.243445 13.883194
515 0 1 8.276165 1.552315 13.945694
516 0 1 9.144836 1.393164 14.253204
517 0 1 9.912174 1.045485 13.724304
518 0 1 9.872894 1.711275 13.056305
519 0 1 9.908195 0.816464 12.711899
520 0 1 10.411495 0.270535 12.097198
521 0 1 11.294724 0.531164 12.030106
522 0 1 11.983875 0.813484 12.687805
523 0 1 12.592987 0.088095 12.766403
524 0 1 11.980583 -0.603824 13.048004
525 0 1 11.996006 -0.636955 12.070206
526 0 1 12.192665 -1.426775 11.646194
527 0 1 12.371178 -2.433595 11.738693
528 0 1 11.507626 -2.204706 12.285904
529 0 1 11.143265 -2.997696 11.834595
530 0 1 10.298027 -3.138025 11.518600
531 0 1 9.379494 -3.386865 11.702499
532 0 1 9.392246 -2.537475 12.082901
533 0 1 9.844444 -2.482496 12.914902
534 0 1 9.567074 -1.580856 12.490997
535 0 1 10.249107 -1.330456 13.135406
536 0 1 10.654938 -0.576855 13.638397
537 0 1 11.511444 -0.270965 13.986908
538 0 1 12.121315 -0.988655 14.212799
539 0 1 12.149094 -1.600475 13.447800
540 0 1 11.686047 -2.373035 13.813797
541 0 1 12.197174 -3.178226 13.600800
542 0 1 12.383045 -3.245495 14.516998
543 0 1 13.056885 -2.595785 14.248703
544 0 1 13.834885 -3.021696 14.559402
545 0 1 13.341187 -3.878895 14.697098
546 0 1 14.228287 -3.902046 14.998199
547 0 1 14.649986 -3.954696 15.830994
548 0 1 14.094086 -4.712786 16.155502
549 0 1 14.374584 -5.395435 15.446106
550 0 1 14.355686 -6.246326 15.028900
551 0 1 13.623486 -5.847694 14.587204
552 0 1 13.299988 -6.615576 14.265396
553 0 1 12.748283 -6.333576 14.998001
554 0 1 13.157288 -6.882505 15.664597
555 0 1 12.634586 -7.638676 15.362396
556 0 1 12.201946 -8.078976 14.610397
557 0 1 12.614086 -7.953476 13.794403
558 0 1 13.465187 -8.239777 13.549103
559 0 1 13.367287 -7.337276 13.305206
560 0 1 14.107086 -7.345575 12.630493
561 0 1 14.854984 -6.727316 12.465500
562 0 1 13.948986 -6.338436 12.693604
563 0 1 13.305084 -5.782394 12.311905
564 0 1 12.645287 -6.222956 11.742493
565 0 1 12.119625 -6.019985 10.991104
566 0 1 11.527115 -6.624846 11.456100
567 0 1 11.583046 -7.592876 11.147598
568 0 1 11.205437 -7.756077 12.032806
569 0 1 11.461044 -7.869076 12.932800
570 0 1 11.276375 -8.783176 13.036896
571 0 1 11.265015 -9.707275 12.878098
572 0 1 11.620876 -9.990875 12.026306
573 0 1 11.832436 -10.661877 11.386002
574 0 1 12.299286 -11.486977 11.580597
575 0 1 12.902584 -10.758476 11.797104
576 0 1 13.658386 -11.156675 11.291702
577 0 1 13.690384 -11.244076 12.307800
578 0 1 13.516384 -12.242476 12.445297
579 0 1 14.383286 -11.814675 12.651794
580 0 1 14.183388 -12.137176 13.574799
581 0 1 14.195984 -12.783175 14.309097
582 0 1 13.669487 -12.035175 14.640808
583 0 1 13.280586 -11.499374 15.318497
584 0 1 12.375954 -11.430176 14.996307
585 0 1 11.559116 -11.058376 15.260803
586 0 1 10.627075 -11.298876 15.343201
587 0 1 9.999763 -11.304577 16.085907
588 0 1 9.701256 -11.803676 16.898697
589 0 1 9.345116 -12.647176 16.470505
590 0 1 9.093876 -13.120275 15.646194
591 0 1 8.348747 -13.303576 15.040497
592 0 1 9.143715 -13.885576 14.770294
593 0 1 9.012566 -13.995575 13.811707
594 0 1 8.155167 -14.202375 14.081100
595 0 1 7.283875 -14.070776 14.425903
596 0 1 6.295395 -14.180777 14.481995
597 0 1 5.927327 -14.262877 15.361099
598 0 1 5.462456 -13.466675 15.219604
599 0 1 5.509594 -12.659276 15.835602
600 0 1 4.967537 -11.962775 15.555206
601 0 1 5.648255 -11.291176 15.650101
602 0 1 4.884926 -11.036776 15.007294
603 0 1 3.927195 -11.158676 14.861496
604 0 1 3.275755 -11.405174 15.637207
605 0 1 2.782551 -10.621777 15.420105
606 0 1 1.946804 -10.664677 14.918106
607 0 1 1.748268 -11.594975 14.570694
608 0 1 1.459435 -12.594376 14.439392
609 0 1 1.229836 -12.496276 13.494400
610 0 1 0.628445 -13.054376 13.016693
611 0 1 -0.194994 -12.940776 13.505600
612 0 1 -1.038284 -12.565975 13.355698
613 0 1 -0.802734 -11.731875 12.865692
614 0 1 0.126995 -11.854576 12.679001
615 0 1 0.525166 -11.446276 11.911606
616 0 1 1.112036 -12.093076 11.535797
617 0 1 0.894665 -12.379375 10.628296
618 0 1 0.700976 -12.718076 9.758392
619 0 1 1.313965 -13.344776 10.109406
620 0 1 1.850180 -14.061075 9.721649
621 0 1 1.091946 -14.559776 9.268066
622 0 1 1.590067 -15.384676 9.570572
623 0 1 1.190356 -15.544676 10.439499
624 0 1 0.613486 -15.259676 11.166504
625 0 1 0.400265 -14.467775 11.717194
626 0 1 -0.284824 -14.161476 11.081207
627 0 1 -1.058405 -14.719076 11.203094
628 0 1 -1.713745 -14.972275 10.550201
629 0 1 -1.975345 -15.148676 11.443497
630 0 1 -1.532644 -15.970175 11.208405
631 0 1 -2.227566 -16.545475 11.700302
632 0 1 -2.112613 -17.498676 11.429398
633 0 1 -2.928484 -17.132076 10.854294
634 0 1 -3.529484 -17.360676 11.650696
635 0 1 -3.721744 -17.894176 10.842407
636 0 1 -4.115734 -17.054575 10.608795
637 0 1 -4.965644 -16.633875 10.942993
638 0 1 -4.619464 -16.305777 10.083801
639 0 1 -5.222414 -15.558975 10.275101
640 0 1 -5.802883 -16.306776 10.013504
641 0 1 -5.728603 -16.221075 8.991455
642 0 1 -6.406404 -15.594576 8.888153
643 0 1 -5.862344 -14.826576 9.169983
644 0 1 -5.018344 -15.019575 8.729492
645 0 1 -5.284914 -14.130877 8.454926
646 0 1 -5.585304 -13.857475 7.601486
647 0 1 -5.470914 -13.156576 8.237900
648 0 1 -5.908973 -12.752175 8.911072
649 0 1 -6.484924 -12.353576 8.124237
650 0 1 -5.816854 -11.640877 7.981354
651 0 1 -5.577743 -12.023076 7.131714
652 0 1 -5.897884 -12.205676 6.214447
653 0 1 -5.367965 -12.404976 5.460480
654 0 1 -6.136795 -12.309175 4.868637
655 0 1 -6.791704 -12.756276 5.388138
656 0 1 -7.190614 -12.438875 4.485855
657 0 1 -7.350534 -13.338575 4.303406
658 0 1 -7.285915 -13.572275 3.336303
659 0 1 -7.732215 -13.188576 2.575653
660 0 1 -8.198914 -12.591676 2.003982
661 0 1 -8.455114 -13.461775 1.544067
662 0 1 -7.795413 -12.780576 1.160904
663 0 1 -7.947513 -13.016476 0.208740
664 0 1 -8.795115 -13.554575 0.359955
665 0 1 -9.137014 -13.042376 -0.418778
666 0 1 -8.292015 -12.634576 -0.728516
667 0 1 -7.784915 -11.961776 -0.293930
668 0 1 -8.068516 -11.678576 0.588577
669 0 1 -8.768116 -11.528275 1.148788
670 0 1 -9.040014 -11.723676 2.014526
671 0 1 -9.188715 -11.832376 2.990310
672 0 1 -9.966114 -11.305176 2.896576
673 0 1 -9.220514 -10.970575 3.441574
674 0 1 -8.896614 -10.560276 2.596954
675 0 1 -8.186014 -10.109575 3.038147
676 0 1 -7.359745 -9.567575 3.208984
677 0 1 -6.424613 -9.803576 3.466644
678 0 1 -6.327234 -9.019676 2.924667
679 0 1 -6.095123 -9.163475 1.958923
680 0 1 -6.447374 -9.181274 1.049820
681 0 1 -6.228134 -9.701977 0.253738
682 0 1 -5.326314 -9.585876 -0.181061
683 0 1 -5.585834 -10.080175 -0.939041
684 0 1 -5.639163 -10.048576 -1.870346
685 0 1 -4.841835 -9.750875 -1.615555
686 0 1 -3.892864 -9.722576 -1.570343
687 0 1 -3.263834 -9.358974 -0.925202
688 0 1 -2.391924 -9.368876 -1.300568
689 0 1 -2.603754 -10.300877 -1.399948
690 0 1 -1.778003 -10.689377 -0.996933
691 0 1 -1.595104 -11.604576 -1.078003
692 0 1 -1.732044 -11.681576 -1.990814
693 0 1 -2.444244 -11.539474 -2.660675
694 0 1 -2.985954 -10.831177 -2.914078
695 0 1 -2.493435 -10.061075 -3.424927
696 0 1 -2.089094 -9.771376 -2.588654
697 0 1 -1.277014 -9.795675 -2.026535
698 0 1 -0.797924 -9.045576 -1.760056
699 0 1 -0.853464 -8.549477 -0.889282
700 0 1 -1.015135 -7.633575 -0.916763
701 0 1 -1.049864 -7.141096 -0.095307
702 0 1 -0.571104 -6.458876 0.522278
703 0 1 0.004835 -6.509476 -0.234802
704 0 1 -0.439895 -6.197445 -1.035187
705 0 1 -1.305584 -6.297026 -1.311966
706 0 1 -1.368835 -5.378586 -1.650040
707 0 1 -1.010954 -5.336525 -0.754486
708 0 1 -1.264663 -5.524166 0.187607
709 0 1 -2.091453 -5.738485 -0.281067
710 0 1 -2.748085 -5.036165 -0.250199
711 0 1 -3.629425 -5.175175 -0.019272
712 0 1 -3.745374 -4.327866 -0.462967
713 0 1 -3.229614 -3.752096 -1.013504
714 0 1 -3.246883 -3.659935 -1.950897
715 0 1 -3.532734 -2.828695 -2.421463
716 0 1 -3.533813 -2.386215 -1.604203
717 0 1 -4.333484 -2.132225 -2.049225
718 0 1 -4.036853 -1.561466 -2.730286
719 0 1 -4.462064 -0.883776 -2.230469
720 0 1 -3.843065 -0.140226 -2.384339
721 0 1 -3.132574 -0.032175 -3.034226
722 0 1 -2.606605 -0.752395 -3.032883
723 0 1 -2.427934 -1.212215 -3.823075
724 0 1 -2.000284 -1.871626 -4.442215
725 0 1 -2.162475 -2.671806 -3.983414
726 0 1 -1.540313 -3.040355 -3.353607
727 0 1 -1.012884 -2.992916 -2.552414
728 0 1 -1.281345 -2.784904 -1.603913
729 0 1 -1.787164 -1.923475 -1.309403
730 0 1 -2.335033 -2.705755 -1.527573
731 0 1 -1.799145 -3.169204 -0.854508
732 0 1 -1.079324 -3.502846 -0.253296
733 0 1 -0.614525 -4.025206 0.421615
734 0 1 -0.951154 -3.835605 1.316986
735 0 1 -0.577415 -3.977266 2.168854
736 0 1 0.126175 -4.581516 1.886215
737 0 1 0.604367 -4.284676 1.174042
738 0 1 1.422356 -4.408926 0.711410
739 0 1 0.948857 -5.188156 0.415512
740 0 1 1.908306 -5.358227 0.435379
741 0 1 2.298092 -5.608706 -0.348755
742 0 1 2.981142 -5.774895 -0.981873
743 0 1 3.541685 -6.352757 -1.628937
744 0 1 3.644717 -6.900616 -2.427719
745 0 1 2.845112 -7.357676 -2.172547
746 0 1 3.668196 -7.804676 -1.780014
747 0 1 3.921376 -8.572975 -2.371704
748 0 1 4.272717 -8.107975 -3.089875
749 0 1 4.259804 -8.368176 -4.011673
750 0 1 3.920965 -8.640976 -4.899948
751 0 1 3.335842 -8.517277 -5.708160
752 0 1 3.651156 -9.221176 -6.318069
753 0 1 4.249966 -9.895876 -6.618073
754 0 1 4.894047 -9.989676 -5.912445
755 0 1 5.286698 -9.245174 -6.314529
756 0 1 6.083607 -8.674477 -6.328918
757 0 1 5.762734 -7.869276 -5.950211
758 0 1 5.811085 -7.270176 -5.231995
759 0 1 5.827378 -6.788525 -6.041916
760 0 1 6.383587 -6.203526 -5.520584
761 0 1 6.840806 -5.724636 -4.849609
762 0 1 7.343777 -4.941025 -4.873444
763 0 1 6.585255 -4.436176 -4.750565
764 0 1 6.139866 -3.835495 -4.160065
765 0 1 6.275338 -3.112556 -4.780487
766 0 1 5.424736 -2.681465 -4.625305
767 0 1 4.745408 -2.841116 -4.003067
768 0 1 4.153447 -2.048435 -4.131714
769 0 1 4.403904 -1.844675 -5.037308
770 0 1 3.867525 -1.218735 -5.505096
771 0 1 4.164517 -0.311136 -5.563766
772 0 1 3.819956 0.441784 -6.134155
773 0 1 4.166035 1.376083 -6.349106
774 0 1 4.937836 1.883309 -6.583115
775 0 1 4.433537 2.587662 -6.151871
776 0 1 4.439717 3.471901 -5.821213
777 0 1 4.174534 3.553740 -6.734360
778 0 1 4.957226 4.111404 -7.088058
779 0 1 5.306904 3.232380 -7.081863
780 0 1 6.077706 3.188322 -7.601242