LAMMPS data file via MDAnalysis

        2000  atoms
        1999  bonds
           0  angles
           0  dihedrals
           0  impropers

           1  atom types
           1  bond types
           0  angle types
           0  dihedral types
           0  improper types

-30.5 30.5 xlo xhi
-30.5 30.5 ylo yhi
-233.5 233.5 zlo zhi


Masses

1 1.000000

Atoms

1 0 1 -7.803417 -24.225508 80.213806
2 0 1 -7.048559 -24.514406 79.700897
3 0 1 -6.783533 -23.698107 80.140411
4 0 1 -7.129080 -23.330606 79.346191
5 0 1 -7.356052 -24.050707 78.831909
6 0 1 -8.285849 -23.763308 78.686310
7 0 1 -9.202747 -24.068707 78.684601
8 0 1 -10.182858 -24.130808 78.492798
9 0 1 -10.905357 -24.599308 78.047485
10 0 1 -11.334148 -24.071608 77.304810
11 0 1 -10.937208 -23.354708 77.789490
12 0 1 -10.294807 -23.993107 77.325500
13 0 1 -9.893177 -23.085407 77.142303
14 0 1 -9.158478 -22.680107 76.639496
15 0 1 -8.378258 -23.174908 76.412689
16 0 1 -8.371208 -22.318707 75.955597
17 0 1 -7.467163 -22.123108 75.650818
18 0 1 -6.989149 -21.393806 76.071198
19 0 1 -6.752790 -20.943707 75.246307
20 0 1 -7.531458 -20.330406 75.432892
21 0 1 -8.425669 -19.992907 75.436798
22 0 1 -7.902779 -19.182207 75.403992
23 0 1 -7.121458 -18.564608 75.355286
24 0 1 -6.956718 -17.576906 75.505981
25 0 1 -6.091536 -17.390007 75.224182
26 0 1 -5.335777 -16.859808 75.551697
27 0 1 -4.691809 -17.318108 75.004883
28 0 1 -3.997526 -17.855507 75.266205
29 0 1 -4.576757 -18.400007 75.909393
30 0 1 -4.986197 -17.747307 76.499298
31 0 1 -4.708376 -16.844007 76.604889
32 0 1 -3.719378 -16.704206 76.610107
33 0 1 -3.155008 -17.501007 76.401398
34 0 1 -3.354166 -17.865307 77.295105
35 0 1 -3.829107 -17.414007 78.032715
36 0 1 -4.731520 -17.376608 78.219208
37 0 1 -5.486967 -17.545107 78.764496
38 0 1 -5.076618 -18.382208 79.128113
39 0 1 -5.071898 -17.866907 79.918091
40 0 1 -5.402819 -17.341608 80.665588
41 0 1 -4.689146 -17.791708 81.056610
42 0 1 -3.781889 -17.486406 81.265991
43 0 1 -4.161638 -16.707006 80.824005
44 0 1 -3.423800 -16.012808 80.874908
45 0 1 -2.512117 -16.366707 80.505981
46 0 1 -2.433947 -16.096107 81.387695
47 0 1 -1.468329 -16.182007 81.436584
48 0 1 -1.244089 -15.962408 80.571289
49 0 1 -0.667788 -16.732607 80.484589
50 0 1 -0.102766 -15.996107 80.750488
51 0 1 0.707811 -15.514708 80.795288
52 0 1 1.366583 -15.680008 81.492188
53 0 1 1.731790 -14.757007 81.925293
54 0 1 1.036131 -14.671407 82.603394
55 0 1 0.106424 -14.635707 82.726990
56 0 1 0.577181 -14.021708 83.338318
57 0 1 0.057531 -13.307306 83.778687
58 0 1 0.238123 -13.014208 82.910889
59 0 1 0.076712 -12.960608 81.939301
60 0 1 0.664472 -12.220907 82.217590
61 0 1 1.612512 -12.291107 82.287994
62 0 1 1.234381 -13.076406 82.625488
63 0 1 1.872892 -13.796309 82.659210
64 0 1 2.292192 -13.657707 83.452515
65 0 1 2.417894 -12.696407 83.252594
66 0 1 3.216932 -13.212606 83.316101
67 0 1 4.071211 -13.580107 83.155609
68 0 1 4.978914 -13.265507 83.037903
69 0 1 4.287012 -12.562407 82.981995
70 0 1 4.833212 -11.827507 83.364685
71 0 1 5.568213 -11.165207 83.414612
72 0 1 6.010614 -11.891306 82.953796
73 0 1 6.742613 -12.482307 82.526489
74 0 1 7.671213 -12.369806 82.894989
75 0 1 7.570112 -12.862507 82.038605
76 0 1 8.433313 -12.935308 81.600006
77 0 1 9.052813 -13.638708 81.826202
78 0 1 9.139311 -13.129007 82.627106
79 0 1 9.980310 -12.712507 82.750610
80 0 1 9.654810 -12.532307 81.865692
81 0 1 9.360910 -11.826807 82.453796
82 0 1 8.919413 -11.207506 83.172607
83 0 1 8.180212 -11.209806 83.793610
84 0 1 8.125212 -11.791506 84.617798
85 0 1 8.575811 -12.579508 84.259705
86 0 1 8.735613 -12.949207 85.136505
87 0 1 9.311712 -12.223907 85.313110
88 0 1 9.111811 -11.839607 86.136292
89 0 1 9.102911 -10.890108 85.795715
90 0 1 8.798113 -10.798208 86.681519
91 0 1 8.484514 -10.099207 87.406189
92 0 1 7.957212 -9.827806 86.614014
93 0 1 7.588015 -9.116737 86.191101
94 0 1 6.862810 -8.836386 86.724609
95 0 1 6.599314 -7.837168 86.510315
96 0 1 6.446512 -6.934468 86.414703
97 0 1 6.235415 -7.311778 85.539795
98 0 1 7.085512 -7.520808 85.031708
99 0 1 7.355112 -6.850707 85.648193
100 0 1 8.001413 -6.716847 84.955200
101 0 1 8.897112 -6.820418 84.651794
102 0 1 9.532015 -6.294528 84.148987
103 0 1 10.301615 -6.569027 84.756104
104 0 1 10.644915 -7.351527 84.373596
105 0 1 11.633715 -7.602599 84.649506
106 0 1 11.665712 -8.089767 83.844299
107 0 1 11.856112 -7.156989 83.689606
108 0 1 11.714212 -6.976908 82.773407
109 0 1 10.719210 -7.150607 82.832214
110 0 1 9.813513 -6.892157 82.433807
111 0 1 9.529112 -6.010169 82.206390
112 0 1 9.482912 -5.031718 82.189514
113 0 1 9.453512 -4.243828 82.779694
114 0 1 9.494513 -4.879508 83.490509
115 0 1 9.370714 -4.567519 84.407898
116 0 1 9.456911 -3.779797 84.906494
117 0 1 9.930513 -3.149077 85.519196
118 0 1 10.818811 -3.483588 85.748901
119 0 1 11.688513 -3.795248 85.682617
120 0 1 11.592611 -4.236977 84.881500
121 0 1 10.906912 -4.334948 84.240906
122 0 1 11.202715 -3.604967 83.693787
123 0 1 12.044912 -3.741888 83.273102
124 0 1 12.848909 -3.508427 83.779205
125 0 1 13.802515 -3.347208 83.901611
126 0 1 14.318312 -3.945078 83.381104
127 0 1 14.690210 -3.877537 82.562500
128 0 1 14.427210 -4.386258 81.826508
129 0 1 14.637011 -5.155917 81.273102
130 0 1 15.526514 -5.207716 80.963409
131 0 1 15.149714 -5.386279 80.094910
132 0 1 14.627111 -4.541398 80.013916
133 0 1 14.053614 -4.367907 79.219116
134 0 1 15.064814 -4.391268 79.015686
135 0 1 15.205912 -3.516348 78.552094
136 0 1 15.663813 -3.374138 77.740692
137 0 1 16.405611 -3.925226 77.401001
138 0 1 16.839212 -4.172247 76.604614
139 0 1 16.894712 -4.813868 75.903198
140 0 1 17.278513 -5.669787 75.726013
141 0 1 17.679110 -4.957737 75.211395
142 0 1 18.113810 -4.202008 74.916504
143 0 1 18.669214 -4.838297 74.499695
144 0 1 17.871012 -4.752768 73.953491
145 0 1 18.540514 -5.065947 73.317810
146 0 1 18.638113 -4.493857 72.527710
147 0 1 19.442514 -4.752747 72.020905
148 0 1 20.091211 -4.370938 71.423218
149 0 1 20.257612 -5.034697 70.706299
150 0 1 19.550611 -5.550747 70.258698
151 0 1 19.073011 -4.995097 71.070801
152 0 1 18.629412 -5.617817 71.608704
153 0 1 17.793913 -5.294617 71.483887
154 0 1 17.242613 -5.704487 72.195099
155 0 1 16.844713 -5.685467 73.067383
156 0 1 16.082811 -5.490988 73.625092
157 0 1 15.617510 -6.343647 73.609009
158 0 1 15.137415 -6.599547 72.754303
159 0 1 15.389910 -7.265877 72.088501
160 0 1 14.857813 -7.684939 71.389893
161 0 1 14.339613 -7.205237 70.726196
162 0 1 14.774012 -6.443068 70.237396
163 0 1 14.818911 -7.110548 69.494293
164 0 1 14.465014 -6.730387 68.733093
165 0 1 14.277414 -6.384837 67.876495
166 0 1 13.749311 -6.796507 67.207703
167 0 1 13.154810 -7.064997 66.563690
168 0 1 13.384413 -7.508008 65.667206
169 0 1 13.817911 -8.127668 64.924103
170 0 1 13.103914 -8.368246 64.270294
171 0 1 12.631411 -8.114458 63.438599
172 0 1 11.753813 -8.510859 63.725891
173 0 1 12.216410 -8.884237 62.959290
174 0 1 11.874414 -9.322798 62.209991
175 0 1 11.294413 -8.964657 61.472595
176 0 1 11.278612 -8.015627 61.904297
177 0 1 10.896814 -7.781699 61.004700
178 0 1 11.006113 -7.431477 60.079803
179 0 1 10.182611 -7.967448 60.061798
180 0 1 9.800013 -7.300288 60.638184
181 0 1 9.069910 -6.900698 60.212189
182 0 1 8.974112 -7.084147 59.235107
183 0 1 9.901312 -7.243668 59.332214
184 0 1 10.169710 -6.765147 58.491516
185 0 1 10.179415 -6.527138 57.533691
186 0 1 9.688211 -6.793198 56.773010
187 0 1 8.990610 -7.149117 56.247406
188 0 1 8.035410 -6.890318 56.276001
189 0 1 8.327913 -6.058787 55.872314
190 0 1 9.177412 -6.108447 55.478210
191 0 1 9.424311 -5.158038 55.709991
192 0 1 9.673410 -4.307127 55.315704
193 0 1 9.242613 -3.487627 55.022491
194 0 1 8.973711 -3.524227 54.086700
195 0 1 8.825411 -4.429377 53.915009
196 0 1 7.926714 -4.617938 54.149689
197 0 1 8.603212 -5.322758 54.555786
198 0 1 8.828512 -5.979998 53.878296
199 0 1 9.410212 -6.697617 53.614502
200 0 1 9.392412 -7.588877 53.175690
201 0 1 8.629812 -8.142397 52.965515
202 0 1 9.198812 -8.146257 52.187592
203 0 1 8.940413 -9.007067 52.384888
204 0 1 8.719412 -9.921907 52.646606
205 0 1 9.301313 -10.085608 53.336609
206 0 1 9.284914 -10.240307 54.249207
207 0 1 8.527910 -10.392607 54.854187
208 0 1 8.586710 -11.086407 55.470398
209 0 1 8.243410 -11.865107 54.905884
210 0 1 8.480211 -12.281107 54.066284
211 0 1 7.848612 -12.269506 53.288208
212 0 1 6.920912 -12.162306 52.978790
213 0 1 6.674612 -12.150808 52.066284
214 0 1 6.153315 -12.737707 51.589417
215 0 1 6.163912 -11.759108 51.132294
216 0 1 7.075510 -11.811308 50.740112
217 0 1 7.074114 -12.163107 49.833405
218 0 1 7.710512 -12.624308 49.291901
219 0 1 7.937212 -11.942007 48.643799
220 0 1 7.094110 -12.241007 48.298096
221 0 1 6.321314 -11.955008 48.814087
222 0 1 5.517912 -12.313707 48.389801
223 0 1 4.661013 -11.886908 48.112915
224 0 1 4.200411 -12.170507 48.873291
225 0 1 3.334604 -11.822508 48.916595
226 0 1 2.959093 -12.640408 49.146912
227 0 1 2.261713 -12.929308 48.581787
228 0 1 1.917761 -12.031107 48.559387
229 0 1 1.500143 -11.227907 48.336304
230 0 1 0.672693 -11.479609 47.924316
231 0 1 1.438433 -12.015007 47.424500
232 0 1 1.592901 -11.256607 46.900391
233 0 1 1.718752 -10.546808 47.527100
234 0 1 2.534304 -10.796507 47.934204
235 0 1 2.826891 -11.139406 47.070709
236 0 1 2.825693 -10.446608 46.358093
237 0 1 3.668413 -9.917608 46.265900
238 0 1 3.039251 -9.256388 46.252106
239 0 1 2.950670 -8.721048 45.515106
240 0 1 3.649412 -8.109367 45.273010
241 0 1 3.712313 -7.403798 44.618286
242 0 1 3.884314 -6.486428 44.676910
243 0 1 3.854815 -5.530947 44.647583
244 0 1 3.348883 -5.801648 45.450592
245 0 1 3.401621 -5.098988 46.178497
246 0 1 2.561132 -4.746397 46.575500
247 0 1 3.117311 -3.950577 46.819000
248 0 1 2.891253 -3.192057 47.346008
249 0 1 3.063723 -2.215597 47.062408
250 0 1 2.451551 -2.436177 46.359314
251 0 1 3.150293 -1.860098 45.899597
252 0 1 3.271193 -1.490448 45.084900
253 0 1 3.390192 -0.977677 44.288391
254 0 1 3.307951 -0.072539 44.514587
255 0 1 2.728113 -0.152308 43.771698
256 0 1 2.188021 0.599184 43.665802
257 0 1 1.632700 1.139078 43.216187
258 0 1 1.024382 0.787563 43.850494
259 0 1 1.336290 -0.110022 43.541412
260 0 1 0.621511 -0.216038 42.876312
261 0 1 0.831354 0.552168 42.272491
262 0 1 0.289251 1.129629 42.812683
263 0 1 -0.689596 1.097622 42.894104
264 0 1 -0.525129 1.244255 43.858215
265 0 1 -0.175177 0.686222 44.498993
266 0 1 -1.169478 0.638044 44.576904
267 0 1 -1.174608 1.159796 45.399811
268 0 1 -1.923216 1.371582 44.839600
269 0 1 -2.049707 2.236833 44.376709
270 0 1 -2.257376 2.766042 45.180115
271 0 1 -2.694986 3.293493 44.487091
272 0 1 -2.460989 4.082742 43.928406
273 0 1 -2.342939 4.911005 44.340912
274 0 1 -3.205519 5.188993 44.293488
275 0 1 -3.675287 5.638113 44.998993
276 0 1 -3.486017 6.337892 45.585205
277 0 1 -4.357069 6.274423 46.109100
278 0 1 -5.213377 6.484891 45.762604
279 0 1 -5.227657 6.142534 44.839417
280 0 1 -5.795689 5.452852 44.563904
281 0 1 -6.758249 5.447881 44.584106
282 0 1 -6.554489 4.528421 44.790405
283 0 1 -6.508743 4.041841 44.003387
284 0 1 -6.758171 4.833971 43.528107
285 0 1 -5.874542 5.197591 43.195099
286 0 1 -6.086864 4.776742 42.315887
287 0 1 -6.470022 4.109403 41.711609
288 0 1 -6.687626 3.654611 42.603394
289 0 1 -5.832548 3.318434 42.913513
290 0 1 -6.121267 2.891474 42.099609
291 0 1 -5.462927 2.531011 41.342010
292 0 1 -5.453629 1.532614 41.480591
293 0 1 -6.269394 1.193863 41.029907
294 0 1 -6.918110 1.787653 41.414185
295 0 1 -7.038410 2.514143 40.758484
296 0 1 -7.947847 2.481943 40.447510
297 0 1 -8.066868 1.793533 39.787903
298 0 1 -8.287237 1.610063 40.746490
299 0 1 -8.772257 1.852583 41.567810
300 0 1 -9.655518 2.106611 41.117401
301 0 1 -10.449488 2.162004 41.661407
302 0 1 -11.249407 2.256792 42.082794
303 0 1 -11.263008 2.240541 43.095398
304 0 1 -12.218048 2.093534 42.722809
305 0 1 -12.178478 2.828363 42.115784
306 0 1 -12.097628 3.712324 41.592407
307 0 1 -12.628948 4.488122 41.419891
308 0 1 -12.614897 4.399412 42.444702
309 0 1 -13.474728 4.602853 42.046814
310 0 1 -14.007368 5.085474 41.540009
311 0 1 -13.384207 5.643411 41.067291
312 0 1 -13.453358 6.036104 40.212097
313 0 1 -12.853518 6.763101 40.066589
314 0 1 -13.248398 6.574201 39.107208
315 0 1 -12.978098 7.516233 39.186890
316 0 1 -13.319117 8.131132 39.810303
317 0 1 -13.529787 8.660772 40.548889
318 0 1 -14.395248 8.671713 40.907013
319 0 1 -14.321589 8.214804 41.737000
320 0 1 -14.938848 7.751192 42.264008
321 0 1 -14.966509 8.192991 43.137085
322 0 1 -14.273758 7.656332 43.674805
323 0 1 -13.654608 8.392923 43.645508
324 0 1 -13.473747 9.309214 43.731598
325 0 1 -13.639097 9.972094 43.021606
326 0 1 -13.284597 9.744211 42.136597
327 0 1 -13.519648 8.774382 42.364410
328 0 1 -12.778748 8.634344 42.863312
329 0 1 -11.929579 8.343775 43.195984
330 0 1 -11.122608 8.365362 43.749084
331 0 1 -10.243717 8.867914 43.959717
332 0 1 -9.572298 8.668154 43.326996
333 0 1 -8.972288 9.334543 42.948212
334 0 1 -8.261808 8.945765 43.364807
335 0 1 -7.705778 9.154612 44.098083
336 0 1 -7.458666 8.724031 44.909088
337 0 1 -7.722399 9.553232 45.354889
338 0 1 -7.352924 10.280252 45.901794
339 0 1 -6.508993 10.740492 46.029907
340 0 1 -5.772224 11.292795 45.981598
341 0 1 -6.408195 11.953993 45.828613
342 0 1 -6.771147 12.386694 45.077301
343 0 1 -7.628078 12.020292 44.947510
344 0 1 -7.667177 11.957693 45.937592
345 0 1 -8.366417 11.390394 45.597992
346 0 1 -8.929708 11.196993 44.864410
347 0 1 -9.755938 11.614492 44.516693
348 0 1 -10.498888 11.662794 43.792694
349 0 1 -11.164038 12.222895 43.350403
350 0 1 -12.087969 12.102091 43.229614
351 0 1 -12.345737 12.346895 42.345490
352 0 1 -11.844948 13.221094 42.420502
353 0 1 -11.991537 13.715395 43.265289
354 0 1 -12.871468 13.894693 43.579803
355 0 1 -13.521017 14.536993 43.806305
356 0 1 -13.472698 13.811991 44.421600
357 0 1 -13.169897 13.605093 45.295715
358 0 1 -13.092527 14.438292 45.773499
359 0 1 -12.396349 14.813093 45.294495
360 0 1 -11.821127 15.118792 45.987305
361 0 1 -11.893717 15.133692 46.892517
362 0 1 -11.927877 15.974394 47.320984
363 0 1 -11.310167 15.717295 47.999603
364 0 1 -10.423779 15.366991 47.928406
365 0 1 -10.439777 16.165392 47.407990
366 0 1 -9.553328 16.566893 47.162994
367 0 1 -9.675838 16.761892 46.261597
368 0 1 -10.117268 17.474390 45.767517
369 0 1 -9.414478 17.105890 45.256104
370 0 1 -8.831018 16.343893 45.225189
371 0 1 -8.689018 16.301794 44.208405
372 0 1 -9.187647 15.488493 44.036987
373 0 1 -8.308487 15.422091 43.707001
374 0 1 -8.840637 15.046492 42.971710
375 0 1 -8.600637 15.237993 42.081512
376 0 1 -8.672958 14.302393 41.868011
377 0 1 -9.082848 13.693293 41.241913
378 0 1 -8.996027 14.169092 40.383911
379 0 1 -8.676409 14.989992 39.990601
380 0 1 -8.772818 15.783991 39.421509
381 0 1 -8.278728 16.270292 38.760590
382 0 1 -7.856607 16.719690 39.547913
383 0 1 -7.831968 17.562094 39.901794
384 0 1 -8.031208 18.477991 39.824585
385 0 1 -7.764439 18.583490 40.739105
386 0 1 -6.815851 18.790293 40.383301
387 0 1 -6.504921 19.532892 40.996216
388 0 1 -5.576559 19.293592 41.002686
389 0 1 -4.919310 18.669394 41.444702
390 0 1 -4.697809 18.063494 40.760712
391 0 1 -4.374086 18.043695 39.901398
392 0 1 -3.441446 18.075991 39.964905
393 0 1 -3.593657 17.259691 39.507111
394 0 1 -3.160566 16.402693 39.459595
395 0 1 -2.387976 16.038294 39.895203
396 0 1 -1.920508 16.770792 39.395508
397 0 1 -1.713209 17.181593 40.220886
398 0 1 -2.098028 16.454393 40.744904
399 0 1 -1.608729 15.682493 40.486298
400 0 1 -1.430597 15.917494 41.358795
401 0 1 -1.087637 16.404291 42.130310
402 0 1 -0.905729 15.546892 42.643707
403 0 1 -0.817907 15.096292 43.509094
404 0 1 -1.273039 15.802393 44.043091
405 0 1 -2.233877 15.662294 44.002411
406 0 1 -2.619379 16.523294 44.335205
407 0 1 -2.396559 17.249491 45.027588
408 0 1 -3.111307 16.778894 45.571198
409 0 1 -3.039160 17.500391 46.162292
410 0 1 -2.701349 18.138292 46.730804
411 0 1 -2.643099 19.059294 47.083588
412 0 1 -2.427969 18.469393 47.778107
413 0 1 -1.724806 18.030893 48.211700
414 0 1 -1.172110 17.273592 48.582306
415 0 1 -1.826288 16.559793 48.465790
416 0 1 -1.143107 16.004492 47.925110
417 0 1 -0.425516 16.010092 48.510803
418 0 1 -0.109739 15.573294 49.365601
419 0 1 -0.032438 14.620493 49.380005
420 0 1 0.887651 14.435392 49.629089
421 0 1 1.137041 15.365191 49.733307
422 0 1 1.053644 16.302092 49.845703
423 0 1 2.014212 16.227694 49.496887
424 0 1 2.487341 16.547495 50.354614
425 0 1 1.766092 17.069593 50.796814
426 0 1 2.651182 17.561193 50.953308
427 0 1 3.045061 16.960192 51.538696
428 0 1 3.465231 16.460794 52.266388
429 0 1 2.627153 16.474993 52.707092
430 0 1 3.248331 15.893293 53.243713
431 0 1 3.137602 15.158194 53.883087
432 0 1 2.257013 15.084291 54.217712
433 0 1 2.631670 15.729692 54.733093
434 0 1 3.239912 15.785891 55.527100
435 0 1 4.130411 15.757292 55.899597
436 0 1 4.259611 16.137594 56.775299
437 0 1 3.719412 15.545595 57.263092
438 0 1 4.504412 15.138994 57.801300
439 0 1 4.802210 14.268091 58.282898
440 0 1 4.615511 13.694792 57.523712
441 0 1 4.621912 12.822992 57.036591
442 0 1 4.679411 13.397394 56.235992
443 0 1 4.133512 14.213892 56.332214
444 0 1 3.445192 13.660395 56.597992
445 0 1 2.885733 13.168894 56.017303
446 0 1 2.576075 12.895594 55.086914
447 0 1 2.150461 12.402094 54.395996
448 0 1 2.376581 12.461493 53.450104
449 0 1 2.924704 13.258493 53.545593
450 0 1 3.474840 13.891191 53.205994
451 0 1 4.174410 13.285692 52.762390
452 0 1 4.288111 12.411192 53.105896
453 0 1 4.415911 11.593992 53.553284
454 0 1 3.525614 11.262293 53.779602
455 0 1 3.138613 10.671991 53.109985
456 0 1 2.755323 9.969683 52.529907
457 0 1 2.034952 10.576792 52.917297
458 0 1 2.184114 10.309282 53.844391
459 0 1 2.594484 9.422232 53.617096
460 0 1 2.887152 9.620455 54.581909
461 0 1 3.803911 9.541872 54.154785
462 0 1 4.530111 9.567152 54.775787
463 0 1 5.118013 9.912592 55.382111
464 0 1 5.240713 10.581591 56.075409
465 0 1 5.335814 11.189093 55.309204
466 0 1 4.572214 11.454592 54.761902
467 0 1 4.631212 12.282393 54.325806
468 0 1 5.523111 11.822893 54.232300
469 0 1 5.833414 12.646593 54.623413
470 0 1 6.621912 13.212294 54.623688
471 0 1 7.140913 13.791094 54.033691
472 0 1 7.357714 14.648794 53.652893
473 0 1 8.285513 14.651594 53.965607
474 0 1 8.396311 13.755793 53.710693
475 0 1 7.747011 13.242392 53.094391
476 0 1 6.922812 12.808992 52.931305
477 0 1 6.692514 12.143793 52.325989
478 0 1 7.588812 11.844992 52.156311
479 0 1 7.896311 10.970793 52.025391
480 0 1 8.525614 11.566694 52.444885
481 0 1 8.987913 11.928694 53.220001
482 0 1 9.875212 11.620592 53.265503
483 0 1 9.976213 12.492292 52.848602
484 0 1 9.823011 13.440493 53.030609
485 0 1 9.650110 14.217993 52.501099
486 0 1 9.198713 15.051493 52.418213
487 0 1 9.473413 15.480894 53.179199
488 0 1 10.251013 15.902491 53.616302
489 0 1 10.409014 16.583895 54.321716
490 0 1 11.227213 16.239695 53.938995
491 0 1 11.337812 15.948393 53.041809
492 0 1 11.460810 15.624392 52.153107
493 0 1 12.373011 15.418692 51.772003
494 0 1 12.874414 16.100893 51.254517
495 0 1 13.644014 16.370493 50.726807
496 0 1 14.538111 16.111792 51.017303
497 0 1 15.350012 15.649992 50.712494
498 0 1 15.899912 14.941393 50.496887
499 0 1 15.011515 14.702291 50.464203
500 0 1 14.679811 14.635691 51.343811
501 0 1 13.899111 14.066294 51.208893
502 0 1 13.731714 14.868593 50.699585
503 0 1 14.105310 15.410192 49.956390
504 0 1 13.734110 14.868891 49.156189
505 0 1 14.736315 14.825693 49.119995
506 0 1 14.361113 14.758295 48.137695
507 0 1 14.091814 15.507193 47.576813
508 0 1 13.955812 15.261095 46.655792
509 0 1 13.445612 16.122694 46.589294
510 0 1 13.920214 16.603090 45.821594
511 0 1 13.138514 16.682894 45.268097
512 0 1 13.312014 17.110094 44.400604
513 0 1 12.493113 17.684393 44.228790
514 0 1 12.428713 17.350695 43.288513
515 0 1 12.259310 16.847391 42.582489
516 0 1 11.798014 16.024794 42.462585
517 0 1 12.258512 16.094591 41.666595
518 0 1 12.686712 15.239492 41.562988
519 0 1 12.312212 15.611292 40.786194
520 0 1 11.490213 15.212992 40.605713
521 0 1 11.787615 14.271791 40.495209
522 0 1 12.601313 13.726992 40.537506
523 0 1 11.980013 13.013895 40.347107
524 0 1 11.523813 13.254892 41.210510
525 0 1 11.065714 12.559694 41.684998
526 0 1 10.796213 13.474592 42.009003
527 0 1 10.045511 13.401392 42.596802
528 0 1 9.877111 13.081591 41.683502
529 0 1 8.984613 13.607492 41.701111
530 0 1 8.470213 14.241091 41.187805
531 0 1 8.446913 14.885691 41.948395
532 0 1 7.762812 15.470392 42.382202
533 0 1 7.857111 16.417391 42.549103
534 0 1 8.293810 17.015696 41.977692
535 0 1 8.027514 17.888594 41.858887
536 0 1 7.303911 18.199190 42.375916
537 0 1 6.360212 18.399492 42.092712
538 0 1 5.859713 18.647593 41.304199
539 0 1 6.653112 18.942293 40.886810
540 0 1 6.734514 19.131495 39.975586
541 0 1 6.775614 18.216192 39.667389
542 0 1 6.889811 17.206293 39.622101
543 0 1 7.157114 16.866594 40.479004
544 0 1 7.545610 16.019594 40.262207
545 0 1 7.823114 15.815294 39.350006
546 0 1 7.497110 14.858095 39.177307
547 0 1 7.388414 13.924692 39.445496
548 0 1 7.128214 13.339991 38.717712
549 0 1 7.812410 12.616892 38.870789
550 0 1 8.076311 11.766592 39.195984
551 0 1 8.436811 11.569994 40.105286
552 0 1 8.345011 10.618792 39.935791
553 0 1 8.293211 10.535093 38.958496
554 0 1 8.239412 9.560583 39.122894
555 0 1 7.880312 8.986143 38.421997
556 0 1 8.760313 8.583605 38.501709
557 0 1 8.267412 8.038012 39.095215
558 0 1 8.122313 7.416742 39.813416
559 0 1 8.164812 6.515123 39.480591
560 0 1 7.958612 6.181612 38.619385
561 0 1 8.022512 6.395673 37.689697
562 0 1 8.155413 6.377103 36.744995
563 0 1 9.062014 6.550481 36.863800
564 0 1 9.646212 5.764482 37.251495
565 0 1 9.904314 5.054372 36.695312
566 0 1 9.565210 4.423151 37.379089
567 0 1 8.899511 5.097631 37.617798
568 0 1 8.386911 4.289144 37.645599
569 0 1 8.128012 3.567522 38.180389
570 0 1 7.221712 3.466844 38.263611
571 0 1 6.534113 3.199571 37.670990
572 0 1 6.095011 3.690351 36.932983
573 0 1 5.659914 4.318452 37.560089
574 0 1 5.653612 5.059953 36.932983
575 0 1 5.055513 4.377183 36.670807
576 0 1 5.844713 4.369401 36.173096
577 0 1 5.910612 4.023981 35.293213
578 0 1 5.318811 3.433054 34.915009
579 0 1 5.501013 3.679113 33.991211
580 0 1 5.833612 2.763754 34.084900
581 0 1 5.748812 1.846073 33.795197
582 0 1 5.962713 0.899166 33.802612
583 0 1 6.894312 0.637607 33.728394
584 0 1 6.687613 0.860256 34.677399
585 0 1 6.796713 1.795492 34.466187
586 0 1 7.465712 2.202661 33.957397
587 0 1 7.183813 3.136553 33.832001
588 0 1 7.865213 3.081411 33.121887
589 0 1 7.587511 3.959913 32.734192
590 0 1 8.398714 4.258344 32.313202
591 0 1 8.751013 3.478063 31.960114
592 0 1 8.589811 4.030160 31.205109
593 0 1 8.902514 4.605443 30.541412
594 0 1 9.690310 4.361784 29.993195
595 0 1 9.957109 5.044405 29.373505
596 0 1 10.842813 4.510072 29.389893
597 0 1 11.134413 5.406763 29.364899
598 0 1 10.520510 5.873682 29.893799
599 0 1 11.294012 6.398702 30.321106
600 0 1 11.599112 7.400262 30.286804
601 0 1 11.705713 7.102674 29.352112
602 0 1 12.545813 6.668554 29.596497
603 0 1 13.295214 7.123453 30.086609
604 0 1 14.100611 6.600042 30.236694
605 0 1 14.157114 6.376771 31.151886
606 0 1 13.321413 6.373434 31.695984
607 0 1 12.538012 6.158372 32.083099
608 0 1 13.298113 5.861703 32.600403
609 0 1 13.920012 5.277662 32.146912
610 0 1 14.009615 4.269544 31.971313
611 0 1 13.914614 4.356523 33.002991
612 0 1 13.732512 3.382395 32.769897
613 0 1 13.020712 3.288103 33.417999
614 0 1 12.025515 3.332773 33.541992
615 0 1 12.181211 4.165441 33.121796
616 0 1 11.565512 3.788393 32.535095
617 0 1 11.039110 3.117655 32.917908
618 0 1 11.868814 2.724073 32.656097
619 0 1 12.260813 2.409223 31.775787
620 0 1 12.559912 2.797903 30.980713
621 0 1 13.455011 2.841383 31.291504
622 0 1 13.684610 1.849523 31.496704
623 0 1 13.233110 1.000171 31.385315
624 0 1 12.793711 0.259521 31.004700
625 0 1 12.511515 -0.622347 31.255890
626 0 1 12.351313 -1.343638 30.519196
627 0 1 13.249712 -1.180428 30.526489
628 0 1 13.157114 -1.550947 29.643097
629 0 1 13.162714 -0.614218 29.217590
630 0 1 12.632013 -0.836397 28.426788
631 0 1 12.610312 0.219494 28.403412
632 0 1 11.763113 0.301157 28.041107
633 0 1 10.928011 -0.191441 27.973389
634 0 1 10.227015 -0.825838 28.028015
635 0 1 9.369413 -1.301888 28.034302
636 0 1 8.928514 -0.409317 28.087006
637 0 1 9.026712 0.466697 28.158691
638 0 1 9.658812 0.806204 28.701416
639 0 1 10.261110 1.290130 29.272614
640 0 1 9.798712 1.830442 29.945709
641 0 1 8.865511 1.622112 29.958984
642 0 1 8.894510 1.952951 29.069092
643 0 1 8.096514 2.341444 28.874084
644 0 1 7.860910 3.169481 29.239899
645 0 1 7.234613 3.348402 28.589294
646 0 1 6.566214 2.931303 29.137299
647 0 1 5.589411 3.048052 29.213196
648 0 1 5.660410 2.957624 28.299194
649 0 1 4.787813 2.658731 28.079590
650 0 1 4.801210 2.756864 27.142212
651 0 1 5.138811 3.487173 26.531708
652 0 1 5.596514 3.324331 25.667786
653 0 1 5.763613 3.141111 24.750793
654 0 1 5.774012 4.032812 24.753510
655 0 1 6.098013 4.875261 24.872101
656 0 1 6.091211 5.773061 25.244812
657 0 1 6.096811 5.907922 26.240204
658 0 1 6.531115 6.586862 26.764893
659 0 1 5.901613 7.341894 26.864807
660 0 1 6.080912 7.919961 27.623596
661 0 1 5.651812 8.474012 26.920105
662 0 1 5.740313 9.302164 27.285309
663 0 1 6.187014 9.133032 28.103394
664 0 1 5.328211 9.395281 28.394196
665 0 1 5.549913 10.314371 28.541290
666 0 1 6.354914 10.789293 28.813293
667 0 1 7.199911 10.627695 28.376709
668 0 1 8.049311 10.275331 28.303101
669 0 1 8.189512 10.362795 27.325989
670 0 1 7.379911 9.884501 27.505096
671 0 1 7.212011 10.814993 27.224609
672 0 1 7.861712 10.924494 26.438812
673 0 1 8.392313 11.760492 26.490906
674 0 1 8.304010 12.369993 25.754303
675 0 1 7.631613 13.059191 25.840912
676 0 1 6.850313 13.703093 25.695496
677 0 1 6.932512 13.900694 24.727509
678 0 1 6.168512 13.322493 24.820892
679 0 1 6.260813 13.152895 23.866913
680 0 1 5.476511 12.545694 23.968292
681 0 1 5.484312 11.748095 24.588684
682 0 1 5.025713 11.033194 24.270111
683 0 1 4.684114 11.164694 25.125916
684 0 1 4.078112 11.271193 25.855408
685 0 1 3.203253 11.430693 25.560699
686 0 1 2.546831 11.992693 25.123199
687 0 1 2.316263 12.429792 24.299713
688 0 1 1.767271 13.200594 24.309814
689 0 1 1.822534 14.180895 24.300903
690 0 1 2.226671 14.969492 24.739014
691 0 1 1.237070 15.032991 24.956604
692 0 1 1.310984 15.931993 24.636292
693 0 1 1.046522 15.442694 23.820099
694 0 1 0.425974 15.080694 23.176208
695 0 1 -0.254709 14.394091 23.312988
696 0 1 0.066324 14.357893 24.266693
697 0 1 0.705980 14.162195 23.626495
698 0 1 1.012392 14.167994 22.670105
699 0 1 1.092893 13.609892 21.943695
700 0 1 0.577631 13.375792 21.144699
701 0 1 -0.116087 13.642191 20.415100
702 0 1 -0.603056 14.357592 19.950897
703 0 1 -1.036848 13.781191 19.368195
704 0 1 -0.245176 13.288294 19.385498
705 0 1 0.698171 13.373293 19.133606
706 0 1 1.256422 13.536894 18.373199
707 0 1 0.499933 13.815592 17.850006
708 0 1 0.182363 13.667692 16.905594
709 0 1 -0.575850 14.231691 16.770294
710 0 1 -1.384249 13.890291 16.344406
711 0 1 -0.820429 14.042292 15.578598
712 0 1 -0.667379 13.840292 14.596207
713 0 1 -1.255697 13.104593 14.415405
714 0 1 -1.886316 12.695192 13.826996
715 0 1 -1.771017 11.891092 14.347794
716 0 1 -2.218077 11.109793 14.710297
717 0 1 -2.947008 10.596392 14.408905
718 0 1 -2.914358 9.743113 14.774292
719 0 1 -3.818148 9.390123 14.858902
720 0 1 -3.663649 9.480803 13.891800
721 0 1 -4.118448 8.685511 13.586700
722 0 1 -4.014639 7.836423 13.179596
723 0 1 -3.162947 7.750562 12.717300
724 0 1 -2.927088 6.994901 12.208298
725 0 1 -2.699556 7.782701 11.564804
726 0 1 -2.093618 7.814462 10.823700
727 0 1 -2.666109 8.573492 11.011093
728 0 1 -2.973158 9.091394 10.274597
729 0 1 -3.158018 9.867933 9.689789
730 0 1 -3.072496 10.447393 10.379105
731 0 1 -3.707350 11.059793 10.154099
732 0 1 -3.540567 11.450193 9.267487
733 0 1 -2.967360 11.874292 8.642151
734 0 1 -2.215628 12.423994 8.936951
735 0 1 -2.822847 12.850294 9.554565
736 0 1 -3.666727 12.583593 9.998627
737 0 1 -4.150198 13.385691 10.227493
738 0 1 -4.168489 13.593992 9.277496
739 0 1 -3.567999 14.275194 9.511536
740 0 1 -2.998178 14.996794 9.285553
741 0 1 -3.192457 14.514692 8.385986
742 0 1 -3.888418 14.305895 7.758835
743 0 1 -4.651308 13.790293 7.871216
744 0 1 -5.065248 13.081793 7.289429
745 0 1 -5.477417 12.156492 7.371506
746 0 1 -5.566059 12.077692 6.427902
747 0 1 -6.221325 12.646692 5.942261
748 0 1 -6.710138 11.766493 6.026321
749 0 1 -6.906816 10.830294 5.777237
750 0 1 -6.896959 9.935534 5.549103
751 0 1 -6.314495 9.336672 5.121490
752 0 1 -6.946695 8.807333 4.670395
753 0 1 -6.676590 9.000692 3.805283
754 0 1 -6.440641 8.753622 2.916184
755 0 1 -7.245523 8.265184 2.668839
756 0 1 -6.688732 8.367693 1.905335
757 0 1 -6.082081 8.020304 1.210160
758 0 1 -5.425407 7.750333 0.603379
759 0 1 -4.547548 7.897382 0.969452
760 0 1 -3.742678 8.552984 1.131714
761 0 1 -4.540056 9.017374 1.366226
762 0 1 -4.882799 8.398794 2.020676
763 0 1 -3.988070 8.211115 2.277085
764 0 1 -3.276278 8.919622 2.350006
765 0 1 -2.511396 9.450521 2.615982
766 0 1 -2.135698 8.584063 2.345093
767 0 1 -1.154120 8.542852 2.512436
768 0 1 -0.574869 7.917043 3.038254
769 0 1 0.117662 8.538942 3.352799
770 0 1 0.597711 8.052141 2.730408
771 0 1 0.469004 7.623392 1.927170
772 0 1 0.882112 7.066782 2.649597
773 0 1 1.869051 7.247262 2.460785
774 0 1 2.261183 8.052153 2.853134
775 0 1 2.949823 8.732443 2.700043
776 0 1 2.469484 9.505964 2.902954
777 0 1 2.081053 9.712873 2.081665
778 0 1 1.216642 9.406454 1.754486
779 0 1 1.453363 8.714785 1.060166
780 0 1 2.456343 8.965864 1.196198
781 0 1 2.706392 9.557932 0.485367
782 0 1 3.315203 9.358515 -0.189667
783 0 1 3.208563 10.127203 -0.754654
784 0 1 2.822851 10.305223 -1.600143
785 0 1 3.570112 10.585093 -2.192947
786 0 1 3.606813 10.466494 -3.239593
787 0 1 3.989412 9.616262 -3.401504
788 0 1 3.304792 9.095312 -2.950226
789 0 1 2.442560 8.957014 -2.505646
790 0 1 2.600653 8.015673 -2.596481
791 0 1 3.162142 7.288282 -2.322494
792 0 1 3.656214 6.465833 -2.416137
793 0 1 4.147612 5.676542 -2.136474
794 0 1 4.825014 5.813032 -2.881729
795 0 1 4.188711 5.096223 -3.036987