LAMMPS data file via MDAnalysis

        2000  atoms
        1999  bonds
           0  angles
           0  dihedrals
           0  impropers

           1  atom types
           1  bond types
           0  angle types
           0  dihedral types
           0  improper types

-30.5 30.5 xlo xhi
-30.5 30.5 ylo yhi
-233.5 233.5 zlo zhi


Masses

1 1.000000

Atoms

1 0 1 13.390840 2.109841 42.984589
2 0 1 13.131143 2.910809 42.526093
3 0 1 12.879342 3.858540 42.531189
4 0 1 13.948243 3.666901 42.519104
5 0 1 14.763040 3.991650 42.883087
6 0 1 14.257340 4.672989 42.495911
7 0 1 14.604642 5.534520 42.655701
8 0 1 14.245542 6.097889 41.948914
9 0 1 14.877740 5.548211 41.518097
10 0 1 14.099141 5.114529 41.071991
11 0 1 13.616342 5.869252 40.709717
12 0 1 13.251641 5.660752 39.884308
13 0 1 13.464242 6.537362 39.592987
14 0 1 14.391541 6.245942 39.772003
15 0 1 15.024240 6.954121 39.949707
16 0 1 14.543641 7.567162 39.401917
17 0 1 14.177541 7.973900 38.657806
18 0 1 15.020043 8.577600 38.587311
19 0 1 14.822640 9.129342 37.780701
20 0 1 15.477742 9.671021 38.169403
21 0 1 14.978440 10.069619 38.842804
22 0 1 14.198640 9.620320 39.256104
23 0 1 14.521043 9.943521 40.156311
24 0 1 14.483140 10.476521 40.967896
25 0 1 15.040841 11.296521 40.957794
26 0 1 14.538644 11.837522 40.316498
27 0 1 14.567243 12.025521 39.337708
28 0 1 15.151242 12.793622 39.154694
29 0 1 15.356843 13.796422 39.205811
30 0 1 15.388242 14.012422 40.115906
31 0 1 15.275140 14.140420 41.049194
32 0 1 14.432443 13.832322 41.253784
33 0 1 15.053342 13.097821 41.475708
34 0 1 15.590642 12.387021 41.074585
35 0 1 15.467141 12.277719 42.023499
36 0 1 14.890244 11.521020 42.410400
37 0 1 14.373742 10.789720 42.753601
38 0 1 13.891141 11.444119 42.257599
39 0 1 13.867242 11.988122 43.026184
40 0 1 13.620240 11.661420 43.863495
41 0 1 13.295041 12.485421 44.080505
42 0 1 13.781640 12.653020 44.853302
43 0 1 14.554444 12.186120 44.460205
44 0 1 14.789544 13.190820 44.280609
45 0 1 14.564240 14.006120 43.831207
46 0 1 13.638242 13.776021 44.112488
47 0 1 12.677243 13.494523 43.971313
48 0 1 12.524743 13.476823 43.049408
49 0 1 12.083840 14.279023 42.648010
50 0 1 12.429440 15.055722 42.199310
51 0 1 13.236840 14.848821 41.776001
52 0 1 13.781743 15.341722 42.377106
53 0 1 13.341241 15.195821 43.190094
54 0 1 13.390840 14.957719 44.157806
55 0 1 12.931741 15.772622 44.316193
56 0 1 13.041043 16.638321 43.841187
57 0 1 13.322141 17.582817 43.569397
58 0 1 14.100041 17.235020 43.116394
59 0 1 15.020440 16.793121 43.293793
60 0 1 14.362943 16.258320 43.739502
61 0 1 14.812242 16.861221 44.377197
62 0 1 14.823941 16.083920 44.997192
63 0 1 13.966943 16.501518 44.718994
64 0 1 13.495843 16.397522 45.537598
65 0 1 12.605542 16.494320 45.096710
66 0 1 12.419042 17.378220 44.747406
67 0 1 11.635041 17.949417 44.736694
68 0 1 11.365144 17.658920 45.570801
69 0 1 11.507543 17.292419 46.402588
70 0 1 11.145543 18.143723 46.636108
71 0 1 10.442544 18.821720 46.911499
72 0 1 10.579343 19.402821 47.651794
73 0 1 10.671243 18.706619 48.319702
74 0 1 10.461041 17.761818 48.450897
75 0 1 10.207242 16.978020 49.015289
76 0 1 9.336442 17.234322 48.915588
77 0 1 8.552941 16.857323 49.313690
78 0 1 7.766442 16.225922 49.129791
79 0 1 7.456811 16.329819 48.244507
80 0 1 6.753274 16.909321 47.959808
81 0 1 5.893170 16.821617 48.437988
82 0 1 5.148923 17.353218 48.773499
83 0 1 4.318341 16.985920 48.504211
84 0 1 3.533643 16.805222 47.836700
85 0 1 2.847760 16.226822 47.411896
86 0 1 2.921521 15.308022 47.131409
87 0 1 3.517892 14.623822 46.717102
88 0 1 3.740724 13.709821 46.911499
89 0 1 4.057721 14.326219 47.574005
90 0 1 3.316953 14.758721 48.009094
91 0 1 2.580232 15.010621 48.592499
92 0 1 1.697110 15.026422 49.063293
93 0 1 1.245122 14.212720 49.052490
94 0 1 2.111863 13.844121 48.755798
95 0 1 3.003003 13.805520 49.013092
96 0 1 2.510312 14.281522 49.698212
97 0 1 2.397901 15.220323 50.031891
98 0 1 1.707791 15.927323 49.791107
99 0 1 1.847783 16.932320 49.838684
100 0 1 2.447621 16.910320 49.062103
101 0 1 1.584790 17.263618 48.839294
102 0 1 0.990102 18.022720 48.974609
103 0 1 0.386552 17.383221 48.607117
104 0 1 -0.409759 16.799820 48.465393
105 0 1 -1.360309 16.656719 48.321198
106 0 1 -1.448974 16.110420 49.105713
107 0 1 -2.181867 16.682320 48.924805
108 0 1 -2.568536 16.404022 48.067200
109 0 1 -3.257138 15.873620 47.649506
110 0 1 -3.316409 16.351620 46.824493
111 0 1 -3.984918 16.978119 47.129913
112 0 1 -3.660449 17.863720 47.250305
113 0 1 -2.680968 17.765518 47.141602
114 0 1 -2.711907 18.565121 46.584991
115 0 1 -2.824079 19.243420 45.994690
116 0 1 -2.716878 18.913219 45.073700
117 0 1 -2.849328 18.342220 44.342102
118 0 1 -3.359849 17.895821 43.701996
119 0 1 -3.635768 18.057518 42.824188
120 0 1 -3.590158 19.001923 42.904114
121 0 1 -3.537719 19.728920 42.279388
122 0 1 -4.097428 20.177219 41.539093
123 0 1 -4.190738 19.206619 41.209412
124 0 1 -4.277299 19.966118 40.543610
125 0 1 -5.128867 20.500221 40.435089
126 0 1 -5.721988 20.040119 39.834991
127 0 1 -5.416848 20.706322 39.221405
128 0 1 -6.042459 21.437519 39.500916
129 0 1 -5.579528 22.293221 39.392212
130 0 1 -4.793218 21.792919 39.203613
131 0 1 -4.931079 22.642719 38.837585
132 0 1 -5.028918 22.235619 37.937500
133 0 1 -5.430968 22.425522 37.072906
134 0 1 -5.397967 21.507019 37.133911
135 0 1 -4.636178 21.281521 37.677094
136 0 1 -4.542289 20.389320 38.212006
137 0 1 -4.997939 19.854019 37.519897
138 0 1 -4.455977 19.030922 37.336792
139 0 1 -4.872478 18.539322 36.517395
140 0 1 -4.955329 18.013821 37.304596
141 0 1 -5.164918 17.093121 37.454102
142 0 1 -6.088387 16.938118 37.703308
143 0 1 -5.995988 17.177422 38.630310
144 0 1 -5.227229 17.222919 39.220001
145 0 1 -4.401298 17.675018 39.554688
146 0 1 -3.724338 17.659920 38.855194
147 0 1 -2.829198 17.284119 39.027802
148 0 1 -2.438926 16.466419 39.450012
149 0 1 -3.120358 15.913423 39.086487
150 0 1 -3.755769 15.706223 39.782196
151 0 1 -3.446898 15.320123 40.680786
152 0 1 -2.853889 14.816522 41.278015
153 0 1 -2.333924 14.154519 41.911316
154 0 1 -1.694810 14.239923 42.581207
155 0 1 -1.366006 13.571321 41.949310
156 0 1 -1.981900 12.890023 42.070404
157 0 1 -2.335124 12.905320 41.191010
158 0 1 -1.659608 12.303422 40.885101
159 0 1 -1.035018 12.292821 40.125488
160 0 1 -0.932637 11.338922 40.283813
161 0 1 -0.038386 10.959420 40.291199
162 0 1 -0.631097 10.166120 40.661011
163 0 1 -0.639585 10.230622 39.684601
164 0 1 -0.911704 9.315221 39.377106
165 0 1 -0.372798 8.610780 39.833191
166 0 1 -0.442819 8.013429 39.020508
167 0 1 -1.097541 7.363930 38.911102
168 0 1 -0.571857 6.912339 39.626099
169 0 1 -0.438138 6.422471 38.794006
170 0 1 -0.177407 5.708008 38.227783
171 0 1 -0.899896 5.105011 38.258301
172 0 1 -1.550748 4.460518 37.986084
173 0 1 -1.850017 3.545392 37.920990
174 0 1 -2.578038 3.567238 37.269196
175 0 1 -2.901399 4.458352 37.561005
176 0 1 -3.807849 4.450490 37.358612
177 0 1 -4.254788 5.277531 37.273407
178 0 1 -3.950528 5.752942 38.039612
179 0 1 -4.275939 6.605301 38.214691
180 0 1 -4.609649 6.582070 37.250488
181 0 1 -4.202289 7.113110 36.531494
182 0 1 -3.919158 7.192959 37.404785
183 0 1 -3.090068 7.308209 36.861389
184 0 1 -3.259837 7.775250 35.959808
185 0 1 -3.239139 7.076752 35.285095
186 0 1 -4.052838 7.127831 34.801605
187 0 1 -4.791577 6.593731 34.929199
188 0 1 -5.564258 6.030709 34.979004
189 0 1 -6.457179 6.212288 35.364502
190 0 1 -6.981418 6.468422 34.691803
191 0 1 -6.846019 5.960072 33.863708
192 0 1 -7.746308 5.718430 33.513092
193 0 1 -8.279868 4.905159 33.477692
194 0 1 -8.431468 5.549969 32.781403
195 0 1 -8.305728 5.827561 31.843597
196 0 1 -8.354718 6.765099 32.213593
197 0 1 -8.033797 7.178849 31.367004
198 0 1 -7.577619 7.243962 30.541016
199 0 1 -7.012328 6.874569 31.233307
200 0 1 -6.426528 7.475091 31.767609
201 0 1 -6.399838 8.236501 31.158203
202 0 1 -5.788299 8.997331 31.048706
203 0 1 -4.801139 9.091622 31.167297
204 0 1 -4.680768 9.723123 31.902588
205 0 1 -4.781329 8.906270 32.309204
206 0 1 -5.523488 8.780641 32.906616
207 0 1 -4.761958 8.153562 33.104797
208 0 1 -4.187129 8.767022 33.584991
209 0 1 -3.818278 8.931031 32.704803
210 0 1 -3.126008 8.328500 32.361389
211 0 1 -3.791488 8.157071 31.711090
212 0 1 -3.039397 7.882260 31.213409
213 0 1 -3.096528 7.665848 30.270996
214 0 1 -3.249719 8.672601 30.355103
215 0 1 -2.909638 9.364160 30.939911
216 0 1 -2.243651 10.160119 31.127502
217 0 1 -1.706958 10.306722 30.332794
218 0 1 -1.715716 11.232919 29.919800
219 0 1 -0.796281 11.255021 29.885895
220 0 1 -0.357127 12.053220 30.282013
221 0 1 -0.731889 11.467221 30.948303
222 0 1 -0.115739 10.780122 30.797485
223 0 1 0.026303 10.223619 29.990204
224 0 1 0.954942 10.156220 30.051300
225 0 1 1.827863 9.889020 29.866211
226 0 1 1.747983 10.744821 29.471191
227 0 1 2.633122 10.383622 29.186890
228 0 1 2.886113 10.606820 28.280396
229 0 1 2.223653 10.596322 27.566711
230 0 1 1.331841 10.749120 27.434296
231 0 1 1.811131 11.576623 27.720093
232 0 1 2.406430 11.827722 27.053497
233 0 1 1.864213 12.509320 27.409210
234 0 1 1.360310 13.283021 27.259796
235 0 1 1.895772 14.070321 27.101807
236 0 1 2.848222 14.176721 26.851501
237 0 1 2.626332 14.785020 27.521790
238 0 1 3.252473 15.350522 28.039703
239 0 1 2.942750 15.721421 28.912598
240 0 1 2.008821 15.445123 29.098297
241 0 1 1.116891 15.721921 29.325806
242 0 1 0.322164 15.980119 28.798309
243 0 1 -0.244268 16.073219 28.048492
244 0 1 0.376813 16.486019 27.467285
245 0 1 0.953980 16.861320 26.808014
246 0 1 1.217061 15.991220 26.467407
247 0 1 1.335103 15.194421 25.839905
248 0 1 0.744672 15.849221 25.290802
249 0 1 0.947850 15.582620 24.334412
250 0 1 0.416150 14.919820 23.807587
251 0 1 0.184693 15.913018 23.718292
252 0 1 -0.407317 15.913918 24.491791
253 0 1 -1.235986 16.359222 24.379395
254 0 1 -1.913818 15.808221 24.801392
255 0 1 -1.195491 15.272721 24.580414
256 0 1 -1.303764 14.357121 24.380096
257 0 1 -1.960784 13.604920 24.470703
258 0 1 -2.424752 13.060319 23.836792
259 0 1 -1.672010 12.415822 23.985291
260 0 1 -1.294944 13.099820 23.409912
261 0 1 -0.269109 13.227822 23.400208
262 0 1 -0.024596 13.280519 24.326904
263 0 1 -0.230928 12.792619 25.080292
264 0 1 0.726922 12.631322 24.903503
265 0 1 0.488664 11.726720 25.013794
266 0 1 1.039002 11.236520 24.403992
267 0 1 1.928201 11.226022 23.887299
268 0 1 2.609151 11.900922 23.756104
269 0 1 3.087274 12.519921 24.223297
270 0 1 3.630383 11.781720 24.136108
271 0 1 3.264443 11.770120 25.056396
272 0 1 2.638661 11.309922 25.669495
273 0 1 3.558812 11.315221 25.963104
274 0 1 4.135560 11.892320 26.468903
275 0 1 4.340173 12.200219 27.319305
276 0 1 3.598462 12.601720 27.772705
277 0 1 3.083444 12.543519 28.572815
278 0 1 3.009152 13.555020 28.528809
279 0 1 3.870461 13.926019 28.346802
280 0 1 4.647531 13.828420 28.985687
281 0 1 5.555692 14.212922 28.935608
282 0 1 6.408422 14.514821 28.803314
283 0 1 7.269181 14.626622 29.249908
284 0 1 6.864991 15.392320 29.774200
285 0 1 7.006722 15.253121 30.744507
286 0 1 7.344251 14.994523 31.580688
287 0 1 7.344361 14.167722 31.084808
288 0 1 7.438600 13.728921 31.967896
289 0 1 7.838830 13.045220 31.473114
290 0 1 8.720643 12.624719 31.372314
291 0 1 8.575143 11.835721 31.836792
292 0 1 8.361360 10.961522 31.491699
293 0 1 7.715131 11.187322 32.186310
294 0 1 7.061273 11.875722 32.378906
295 0 1 7.550431 11.688821 33.256592
296 0 1 6.998502 11.037919 33.800598
297 0 1 6.101651 10.637620 34.077911
298 0 1 5.679254 10.767720 33.171600
299 0 1 5.178163 11.173722 32.405090
300 0 1 4.203702 11.197122 32.696808
301 0 1 3.495763 11.851720 32.715393
302 0 1 3.964021 12.497521 33.217407
303 0 1 4.393853 12.927423 32.471100
304 0 1 4.573243 13.716119 32.025787
305 0 1 5.089044 14.301522 32.631104
306 0 1 4.701402 15.043920 33.024689
307 0 1 5.062242 14.345819 33.654297
308 0 1 4.361592 14.126420 34.220093
309 0 1 4.556581 13.263421 34.579193
310 0 1 4.336984 12.394219 35.111603
311 0 1 4.917291 11.628621 35.253510
312 0 1 5.518243 11.879621 34.555389
313 0 1 6.017213 12.587922 34.834412
314 0 1 6.858651 12.873219 35.116394
315 0 1 7.554402 13.397920 35.615112
316 0 1 7.438981 13.851022 36.491089
317 0 1 6.949044 14.524320 36.027893
318 0 1 7.638131 15.294320 35.931488
319 0 1 8.426263 15.630822 36.254608
320 0 1 9.282441 15.174821 36.472504
321 0 1 8.853440 15.052922 37.379791
322 0 1 9.767343 14.740621 37.618805
323 0 1 10.015443 13.972123 38.191101
324 0 1 9.467542 13.228120 38.531494
325 0 1 9.742143 12.342622 38.536407
326 0 1 10.690343 12.453820 38.733398
327 0 1 11.375443 11.995221 39.169708
328 0 1 11.946942 12.138921 38.412689
329 0 1 11.454743 11.784322 37.619202
330 0 1 11.120442 10.900220 37.834900
331 0 1 10.757340 10.889722 38.677185
332 0 1 11.427743 10.201520 38.914612
333 0 1 11.874143 9.711621 38.155090
334 0 1 12.735543 10.078221 38.225311
335 0 1 12.696942 11.071919 38.397491
336 0 1 13.014344 11.638120 37.717987
337 0 1 12.962640 11.757421 36.768005
338 0 1 14.020440 11.738420 36.909912
339 0 1 13.719342 11.374719 36.102112
340 0 1 13.464944 10.498719 36.449310
341 0 1 12.836942 10.027020 37.089905
342 0 1 12.123242 10.619523 36.860504
343 0 1 11.103543 10.597322 36.637787
344 0 1 10.860143 10.391419 35.718292
345 0 1 10.847043 11.280923 35.449005
346 0 1 10.096444 11.114820 36.047699
347 0 1 10.470040 11.993321 36.094116
348 0 1 9.763642 12.614022 36.019287
349 0 1 10.663342 12.969323 36.279510
350 0 1 10.544343 13.637219 35.639709
351 0 1 10.408643 14.583421 35.782898
352 0 1 10.536641 15.295823 35.147400
353 0 1 11.389741 15.023522 35.429199
354 0 1 11.915242 15.306821 34.656616
355 0 1 12.400342 15.378419 35.523010
356 0 1 12.141141 16.297920 35.506805
357 0 1 13.010743 16.098320 35.101685
358 0 1 13.837842 16.458420 35.340515
359 0 1 13.347341 17.088417 34.910187
360 0 1 12.520242 17.630520 35.202393
361 0 1 11.642144 17.567619 34.874817
362 0 1 11.602643 17.993523 33.994293
363 0 1 12.220841 18.617020 34.254700
364 0 1 12.824742 18.236820 33.646301
365 0 1 12.673841 17.360222 33.190613
366 0 1 13.319642 16.966820 32.574402
367 0 1 13.272042 17.946922 32.549988
368 0 1 12.528943 17.464722 32.162994
369 0 1 11.913041 17.720222 31.520905
370 0 1 11.027543 17.916122 31.852203
371 0 1 10.127740 17.583420 31.657990
372 0 1 10.120442 17.984921 30.721710
373 0 1 10.595342 18.112419 29.925812
374 0 1 9.736142 18.231018 29.481506
375 0 1 9.459542 19.199219 29.181885
376 0 1 10.051541 19.727020 28.518097
377 0 1 10.752542 18.983917 28.210510
378 0 1 11.089944 19.550522 27.527893
379 0 1 11.974343 19.339317 27.090302
380 0 1 12.363244 19.816422 26.323914
381 0 1 12.876241 19.345222 25.570312
382 0 1 13.202443 18.564621 26.023193
383 0 1 13.789441 19.392719 26.053314
384 0 1 13.946343 19.806519 26.901794
385 0 1 14.560540 19.071720 27.112488
386 0 1 14.802140 18.216217 26.729095
387 0 1 15.370240 18.416821 26.017914
388 0 1 15.372941 17.534821 25.574493
389 0 1 14.639840 16.864319 25.775513
390 0 1 14.192842 16.393520 26.489288
391 0 1 13.549443 16.631519 25.916992
392 0 1 12.888444 16.020119 25.994507
393 0 1 12.927644 15.080922 25.870911
394 0 1 12.860742 14.289422 26.487793
395 0 1 12.364541 13.716222 27.044403
396 0 1 12.311944 13.479321 26.028198
397 0 1 13.100244 12.997922 26.368805
398 0 1 12.957940 12.254422 25.832794
399 0 1 13.158044 11.333920 25.860413
400 0 1 14.089143 11.564122 26.092407
401 0 1 14.275140 10.953919 25.375793
402 0 1 15.205239 11.173722 25.363403
403 0 1 15.469140 12.089921 25.245209
404 0 1 15.948541 11.861920 24.465515
405 0 1 16.508339 12.493821 23.790192
406 0 1 16.822144 13.342420 23.477112
407 0 1 17.108341 12.869721 22.645294
408 0 1 17.886742 12.151120 22.645691
409 0 1 18.020042 12.728723 23.376007
410 0 1 18.023140 12.135320 24.082886
411 0 1 18.824539 12.482720 24.568207
412 0 1 19.060638 11.574422 24.601898
413 0 1 19.865940 11.380219 25.140594
414 0 1 20.821941 11.293721 25.050995
415 0 1 20.697342 10.364720 25.248688
416 0 1 19.798439 10.133222 25.297791
417 0 1 19.580139 9.553910 24.606598
418 0 1 18.623138 9.627923 24.275696
419 0 1 17.751141 9.884919 24.621613
420 0 1 17.806042 8.947099 24.645813
421 0 1 18.359138 8.213891 24.511414
422 0 1 17.808441 7.744759 25.106506
423 0 1 18.622742 7.522049 25.604095
424 0 1 18.611938 7.833569 26.473907
425 0 1 18.515141 7.310029 27.212494
426 0 1 18.876244 6.702221 26.582703
427 0 1 17.984341 6.299710 26.753204
428 0 1 17.580341 5.756119 26.088898
429 0 1 16.920540 6.323170 26.373291
430 0 1 16.142941 5.912720 26.747314
431 0 1 16.224838 5.564862 25.751709
432 0 1 15.740743 4.780011 26.035492
433 0 1 15.778939 4.176701 26.809906
434 0 1 16.356041 3.513779 27.027802
435 0 1 15.671842 2.908322 27.118103
436 0 1 14.847543 3.516320 27.329712
437 0 1 14.538239 2.729821 27.799500
438 0 1 13.972241 2.526730 27.065613
439 0 1 13.508042 1.645791 27.187195
440 0 1 13.442140 0.969481 26.477692
441 0 1 12.761743 1.525731 26.032806
442 0 1 11.881642 1.870671 25.851410
443 0 1 10.979341 1.683300 26.098511
444 0 1 10.165143 1.612721 26.625702
445 0 1 10.218541 0.683751 26.404999
446 0 1 10.293641 -0.326787 26.246887
447 0 1 11.000741 -0.094125 25.556885
448 0 1 11.559541 -0.705936 25.992310
449 0 1 11.455041 -0.487760 26.944794
450 0 1 10.856942 -1.268692 27.048187
451 0 1 11.778543 -1.588329 26.804688
452 0 1 12.004041 -2.130079 27.541687
453 0 1 12.816941 -2.059160 28.070312
454 0 1 13.165544 -2.352220 28.910889
455 0 1 13.737943 -3.116849 29.052887
456 0 1 14.488244 -2.726970 29.548798
457 0 1 14.643342 -2.361549 28.679688
458 0 1 14.704442 -1.620040 29.264801
459 0 1 14.463742 -0.805562 28.838501
460 0 1 15.359342 -0.550767 28.509491
461 0 1 15.271844 -0.218860 29.431305
462 0 1 15.512139 -0.687145 30.201508
463 0 1 15.974942 -0.402843 30.992493
464 0 1 15.313439 0.393683 30.946899
465 0 1 14.782945 0.874161 30.280609
466 0 1 15.359342 1.626080 30.573914
467 0 1 15.134942 2.118821 31.478790
468 0 1 15.737741 1.669449 31.984009
469 0 1 15.578042 1.198029 32.790588
470 0 1 16.043243 0.433335 32.369904
471 0 1 16.576042 -0.019079 32.984406
472 0 1 16.884338 0.954880 32.977783
473 0 1 16.752541 1.195820 33.828613
474 0 1 15.956841 0.747130 33.719696
475 0 1 15.593343 1.077290 34.565186
476 0 1 15.130944 1.070519 35.402588
477 0 1 15.951241 1.192132 35.953613
478 0 1 16.432343 0.976821 36.714417
479 0 1 16.998543 0.209485 36.772491
480 0 1 16.796638 -0.500947 37.363586
481 0 1 17.637444 -0.961521 37.520386
482 0 1 17.945442 -0.082803 37.405090
483 0 1 18.283741 0.100915 38.295410
484 0 1 17.808144 0.813370 37.953796
485 0 1 17.767242 1.473370 37.254089
486 0 1 17.360939 1.914162 38.030212
487 0 1 16.484940 2.136109 38.082306
488 0 1 16.552742 3.111271 38.024109
489 0 1 16.647942 3.122891 39.019592
490 0 1 17.477638 3.358120 39.348694
491 0 1 18.179840 2.806271 39.771301
492 0 1 17.531540 2.376282 40.408508
493 0 1 16.799541 1.987931 39.925293
494 0 1 16.761139 1.077599 39.954590
495 0 1 17.500141 0.984700 40.569489
496 0 1 17.778740 0.104954 40.130798
497 0 1 18.558540 -0.360515 40.436188
498 0 1 17.705940 -0.755294 40.670197
499 0 1 16.763443 -0.729614 40.588806
500 0 1 17.149643 -0.971288 41.438202
501 0 1 16.420143 -1.019729 42.185791
502 0 1 15.669843 -1.424989 42.757599
503 0 1 15.039842 -2.111330 42.646393
504 0 1 15.515740 -3.060619 42.635010
505 0 1 14.520539 -3.105030 42.515289
506 0 1 13.597840 -3.219989 42.729889
507 0 1 13.588243 -3.758199 41.958496
508 0 1 13.212441 -4.500419 41.580688
509 0 1 14.056344 -4.924560 41.307709
510 0 1 14.451341 -5.513889 42.009094
511 0 1 14.452844 -6.364580 41.504395
512 0 1 13.460542 -6.512580 41.688416
513 0 1 14.130242 -7.183380 41.929291
514 0 1 14.386743 -7.910301 41.416290
515 0 1 15.296441 -7.970069 41.062805
516 0 1 16.178642 -7.675390 40.820312
517 0 1 15.627442 -7.448619 40.012299
518 0 1 15.445642 -7.097150 39.174500
519 0 1 15.115743 -7.912941 38.795502
520 0 1 15.312242 -8.770438 38.275513
521 0 1 15.895642 -8.652839 37.448608
522 0 1 15.721444 -8.993018 36.525513
523 0 1 16.284843 -8.353059 36.122589
524 0 1 16.523842 -7.668470 35.489807
525 0 1 15.655244 -7.576290 35.800598
526 0 1 14.960942 -7.290090 36.407898
527 0 1 14.150041 -7.100469 35.962097
528 0 1 13.764741 -7.221059 36.811798
529 0 1 13.319242 -6.451519 37.239807
530 0 1 14.232041 -6.336639 37.604797
531 0 1 13.726541 -5.505710 37.851105
532 0 1 13.621743 -4.975370 37.021210
533 0 1 13.493142 -4.040380 36.885315
534 0 1 12.912541 -3.419040 36.411407
535 0 1 12.731641 -3.032089 37.214691
536 0 1 13.690743 -2.889539 37.077911
537 0 1 14.280541 -3.562820 37.470795
538 0 1 15.107842 -3.055870 37.477692
539 0 1 15.760842 -2.616859 36.936890
540 0 1 16.496441 -3.099910 37.378113
541 0 1 16.101242 -3.801149 36.850006
542 0 1 16.348141 -4.738330 36.673096
543 0 1 17.080643 -4.963150 37.260986
544 0 1 17.790543 -5.585769 37.465088
545 0 1 18.486542 -4.903221 37.282013
546 0 1 17.888340 -4.134281 37.193787
547 0 1 18.062538 -4.126010 38.122589
548 0 1 17.763741 -4.554969 38.872589
549 0 1 18.710941 -4.338480 39.112396
550 0 1 18.324944 -4.388111 39.948090
551 0 1 18.855640 -4.260829 40.723694
552 0 1 17.873940 -4.230030 40.849487
553 0 1 17.204338 -3.784929 40.365509
554 0 1 17.896942 -3.304430 39.967896
555 0 1 17.181938 -2.662750 40.008209
556 0 1 17.901543 -2.078960 40.234406
557 0 1 18.145844 -1.440399 39.576904
558 0 1 18.901039 -0.812358 39.597809
559 0 1 19.280739 -0.031743 39.236084
560 0 1 19.724041 0.769681 38.871796
561 0 1 20.261238 -0.111591 39.018311
562 0 1 20.790039 0.623240 38.681488
563 0 1 21.199741 -0.039630 38.119995
564 0 1 21.999641 0.362492 38.605591
565 0 1 22.630043 1.029971 38.644012
566 0 1 23.525242 0.706671 38.549500
567 0 1 23.962540 1.599461 38.436401
568 0 1 23.834541 1.618931 39.345001
569 0 1 23.005638 1.306382 39.746216
570 0 1 22.272438 1.808682 40.047791
571 0 1 22.376244 2.562859 40.623291
572 0 1 22.734341 3.423752 40.629791
573 0 1 23.118141 4.118660 41.207886
574 0 1 23.015141 5.082242 41.184998
575 0 1 23.757042 5.702500 40.963501
576 0 1 23.227341 5.973191 41.694489
577 0 1 23.396339 6.536202 42.482391
578 0 1 23.571941 6.739472 43.410583
579 0 1 23.222343 5.870430 43.551086
580 0 1 22.967140 5.943242 44.502411
581 0 1 23.178341 6.646790 45.104187
582 0 1 22.963638 6.183922 45.950897
583 0 1 22.903442 5.217362 45.939911
584 0 1 22.271942 5.569520 45.394501
585 0 1 21.426941 5.102070 45.014191
586 0 1 21.124741 4.184151 45.012909
587 0 1 21.543041 3.354050 44.805603
588 0 1 21.185143 3.261410 45.749298
589 0 1 21.606441 2.575390 46.213593
590 0 1 20.690941 2.285771 46.308502
591 0 1 21.149239 1.983212 47.050201
592 0 1 21.489841 1.290009 46.544098
593 0 1 22.365440 1.639271 46.275299
594 0 1 21.962742 1.958592 45.444000
595 0 1 22.392841 2.880822 45.519287
596 0 1 23.270340 3.211312 45.677094
597 0 1 23.567543 2.530461 46.287903
598 0 1 24.337341 3.114880 46.361694
599 0 1 25.015640 3.740429 46.250488
600 0 1 24.918140 4.723179 45.942688
601 0 1 24.705441 5.694611 46.062897
602 0 1 24.709740 5.469658 47.008606
603 0 1 24.715240 5.194500 47.986511
604 0 1 24.786041 4.745629 48.891785
605 0 1 24.652443 4.105111 49.634705
606 0 1 23.881439 3.987889 50.261108
607 0 1 22.929340 3.990750 49.922699
608 0 1 22.936142 4.512799 50.658508
609 0 1 23.382339 5.233860 51.107300
610 0 1 22.775341 4.896901 51.780090
611 0 1 21.939842 4.936749 52.328888
612 0 1 21.684143 5.072651 51.428284
613 0 1 20.809841 4.791630 51.572205
614 0 1 20.693039 5.375012 50.739807
615 0 1 20.012341 5.744832 51.349213
616 0 1 20.201340 6.685402 51.599091
617 0 1 19.278141 6.970421 51.689606
618 0 1 18.653343 7.230259 50.930908
619 0 1 18.278839 8.169942 50.935211
620 0 1 18.311043 8.421273 50.011200
621 0 1 18.554241 9.181230 50.525085
622 0 1 18.541641 10.000421 49.939789
623 0 1 18.540939 10.939321 49.882111
624 0 1 18.971142 11.217320 49.045715
625 0 1 19.794342 11.573220 49.428589
626 0 1 19.675640 12.527619 49.241089
627 0 1 19.917042 13.463120 49.259796
628 0 1 19.677139 14.183621 48.761200
629 0 1 19.009041 14.876721 48.931793
630 0 1 18.676643 14.917020 49.846008
631 0 1 18.432140 14.014020 49.739990
632 0 1 18.637241 13.327523 50.456604
633 0 1 18.411640 12.959321 51.351685
634 0 1 18.423241 12.344720 50.580994
635 0 1 18.418541 12.068620 49.647095
636 0 1 18.073841 12.952920 49.276001
637 0 1 17.155941 13.210622 49.279205
638 0 1 17.016243 12.298722 48.856506
639 0 1 17.258438 11.938119 47.954712
640 0 1 17.199741 12.407521 47.189911
641 0 1 16.814743 12.983121 46.530609
642 0 1 17.023140 13.843720 46.102905
643 0 1 16.491341 14.147119 45.394012
644 0 1 15.520341 14.242620 45.307190
645 0 1 14.543344 14.304521 45.098602
646 0 1 14.804444 13.573022 45.619995
647 0 1 14.260644 13.301820 46.354095
648 0 1 15.100442 13.668321 46.613892
649 0 1 14.640840 13.996022 47.374603
650 0 1 13.920842 14.506722 47.733490
651 0 1 13.715943 13.605821 47.725891
652 0 1 13.315942 13.380219 46.840912
653 0 1 12.433244 13.162621 47.062012
654 0 1 12.069341 13.503419 47.852692
655 0 1 12.638841 14.135121 48.373505
656 0 1 13.159440 13.379720 48.685089
657 0 1 13.435540 13.072419 49.674408
658 0 1 13.758241 12.895921 50.586700
659 0 1 13.125142 13.687421 50.694611
660 0 1 12.292642 13.696622 50.233612
661 0 1 11.423944 13.641419 50.864502
662 0 1 11.416444 12.788720 51.158997
663 0 1 11.100343 12.879823 50.250916
664 0 1 10.822541 12.415719 49.441101
665 0 1 10.890943 12.808122 48.556396
666 0 1 11.115541 12.106820 47.945099
667 0 1 11.443742 11.258321 47.974487
668 0 1 10.621842 11.110520 47.548401
669 0 1 10.807343 10.170320 47.603394
670 0 1 10.451241 10.028123 48.492706
671 0 1 10.331941 9.306329 47.792603
672 0 1 11.138242 9.142522 47.284607
673 0 1 11.618043 8.466149 46.735992
674 0 1 12.196740 8.208459 47.493896
675 0 1 12.120042 7.415822 47.980011
676 0 1 12.944341 7.362042 48.429993
677 0 1 12.473142 7.461709 49.335815
678 0 1 12.955041 7.058461 50.019806
679 0 1 13.223344 6.235001 49.452789
680 0 1 13.750443 5.466321 49.224609
681 0 1 12.825044 5.234200 49.065887
682 0 1 12.522042 4.599370 49.693787
683 0 1 11.942342 4.120450 50.305908
684 0 1 12.892243 3.832829 50.313202
685 0 1 12.744340 3.613221 49.342896
686 0 1 13.389443 3.309311 48.696716
687 0 1 14.203744 3.114659 49.241211
688 0 1 14.310441 2.282940 49.576508
689 0 1 13.428140 1.864472 49.482483
690 0 1 13.926843 1.141549 49.024597
691 0 1 13.324643 0.488898 49.434387
692 0 1 13.233743 0.418252 48.451508
693 0 1 12.380540 -0.075365 48.535706
694 0 1 12.182240 -0.623937 49.276306
695 0 1 12.686841 -1.026504 49.997589
696 0 1 13.622842 -0.875726 50.234100
697 0 1 14.082543 -1.530160 49.641602
698 0 1 14.366841 -2.417900 49.691803
699 0 1 13.487241 -2.826490 49.602295
700 0 1 12.760442 -2.535869 50.203888
701 0 1 12.155740 -3.284439 50.515198
702 0 1 11.404042 -2.696899 50.261993
703 0 1 10.732743 -2.554639 50.931213
704 0 1 10.327443 -2.593679 50.057007
705 0 1 9.592843 -2.123830 49.623291
706 0 1 9.180741 -1.687129 50.344788
707 0 1 8.530740 -0.959926 50.046997
708 0 1 9.242841 -0.442003 49.808105
709 0 1 9.269143 -0.207469 50.773712
710 0 1 9.510240 0.396287 51.564514
711 0 1 8.929940 0.333210 52.407898
712 0 1 8.032323 0.326899 52.228394
713 0 1 7.349084 -0.382125 52.160095
714 0 1 7.462342 -1.326398 52.015991
715 0 1 6.528062 -1.272064 52.014313
716 0 1 6.559541 -2.254810 52.109802
717 0 1 6.540681 -3.183099 52.126404
718 0 1 6.108972 -3.558500 52.878998
719 0 1 6.155351 -4.489269 53.346710
720 0 1 6.417481 -4.840539 52.497314
721 0 1 7.108571 -4.837921 51.840210
722 0 1 7.450093 -5.524629 51.252197
723 0 1 7.365022 -5.172229 50.320099
724 0 1 6.645753 -5.105011 49.730499
725 0 1 6.936372 -5.942899 49.289185
726 0 1 6.134233 -5.877639 48.673187
727 0 1 5.548882 -5.165039 49.034790
728 0 1 5.103883 -5.115570 49.887909
729 0 1 4.329881 -4.467639 49.527496
730 0 1 4.097733 -3.535869 49.486694
731 0 1 4.581071 -3.667829 50.335510
732 0 1 5.084191 -3.029899 50.756287
733 0 1 5.513261 -2.241550 51.080597
734 0 1 4.722943 -1.748920 50.993988
735 0 1 4.339730 -2.299089 51.708405
736 0 1 3.820271 -2.247680 52.499207
737 0 1 2.934140 -1.879579 52.328705
738 0 1 2.020402 -2.023750 52.652313
739 0 1 1.154221 -1.489179 52.848297
740 0 1 0.794480 -1.173707 52.060303
741 0 1 1.194341 -1.376762 51.126709
742 0 1 1.625443 -1.952110 51.714294
743 0 1 2.055882 -1.969329 50.829895
744 0 1 1.806691 -2.882669 50.590698
745 0 1 2.103570 -2.870269 51.491516
746 0 1 1.157163 -3.068590 51.385712
747 0 1 1.286862 -4.035020 51.368500
748 0 1 1.879800 -4.740579 51.493011
749 0 1 2.601483 -5.087860 50.994202
750 0 1 1.819032 -5.380451 50.501404
751 0 1 0.904290 -5.208879 50.262207
752 0 1 0.141503 -5.697299 50.528687
753 0 1 0.449353 -6.349710 51.135986
754 0 1 0.541913 -7.177310 50.658997
755 0 1 0.045213 -7.978620 50.773712
756 0 1 -0.789516 -8.279929 50.314911
757 0 1 -1.024985 -7.402719 49.885986
758 0 1 -1.186446 -7.355270 50.836792
759 0 1 -1.983441 -7.892860 50.712311
760 0 1 -2.397210 -7.507650 51.641693
761 0 1 -2.907588 -6.791549 51.270905
762 0 1 -2.845448 -5.878839 51.548584
763 0 1 -2.997779 -5.634559 50.627808
764 0 1 -3.155759 -5.026531 49.939606
765 0 1 -3.719098 -5.832250 49.891907
766 0 1 -3.967809 -5.456510 49.053894
767 0 1 -4.018449 -4.441900 48.994507
768 0 1 -3.430078 -4.265340 48.265411
769 0 1 -3.064748 -3.570810 47.725189
770 0 1 -3.270598 -2.808940 47.090088
771 0 1 -3.386928 -2.009540 46.489105
772 0 1 -2.585269 -1.726909 46.091309
773 0 1 -1.945779 -1.387254 45.398407
774 0 1 -2.022998 -1.221517 44.472595
775 0 1 -1.062429 -0.849159 44.513611
776 0 1 -0.427049 -1.275390 43.960388
777 0 1 -0.292449 -0.660089 43.255096
778 0 1 -1.150375 -1.139581 43.199799
779 0 1 -0.989738 -1.532140 42.384399
780 0 1 -1.049331 -1.052265 41.490997
781 0 1 -1.841277 -1.402349 41.820007
782 0 1 -1.674878 -1.909780 40.993896
783 0 1 -1.834314 -1.585140 40.090912
784 0 1 -2.786489 -1.395627 40.343384
785 0 1 -2.583758 -0.903997 39.579712
786 0 1 -2.939609 -1.054817 38.666290
787 0 1 -2.891288 -2.002969 38.350891
788 0 1 -2.323924 -2.822490 38.569794
789 0 1 -2.472783 -3.776939 38.742310
790 0 1 -1.593267 -3.864620 38.323700
791 0 1 -2.061475 -4.571840 37.895203
792 0 1 -3.005448 -4.952499 37.792114