LAMMPS data file via MDAnalysis

        2000  atoms
        1999  bonds
           0  angles
           0  dihedrals
           0  impropers

           1  atom types
           1  bond types
           0  angle types
           0  dihedral types
           0  improper types

-30.5 30.5 xlo xhi
-30.5 30.5 ylo yhi
-233.5 233.5 zlo zhi


Masses

1 1.000000

Atoms

1 0 1 2.457298 14.137576 64.754395
2 0 1 2.673721 14.879275 64.087799
3 0 1 3.499649 15.323375 63.812317
4 0 1 2.854549 15.957774 64.125702
5 0 1 3.282291 16.826571 64.020508
6 0 1 3.477928 17.729673 64.429199
7 0 1 3.462509 17.882975 65.489197
8 0 1 4.275711 17.346170 65.500793
9 0 1 5.124889 16.942373 65.339783
10 0 1 5.786469 16.446871 64.776184
11 0 1 6.502930 16.183073 65.338684
12 0 1 7.173828 16.061670 64.626099
13 0 1 7.562229 15.549075 63.814514
14 0 1 7.657730 15.167174 64.718597
15 0 1 7.757931 14.156474 65.009491
16 0 1 8.429531 14.664973 65.549988
17 0 1 7.692932 14.123775 65.994385
18 0 1 7.555328 13.166675 66.009888
19 0 1 6.612530 13.117373 65.603790
20 0 1 6.078030 12.360171 65.799988
21 0 1 6.868729 11.823474 65.595886
22 0 1 7.348530 11.100173 65.239319
23 0 1 7.524628 10.371074 64.619293
24 0 1 7.717331 9.448672 64.346191
25 0 1 7.056129 8.927676 63.914490
26 0 1 7.378731 8.958476 63.046509
27 0 1 8.273331 8.900073 63.365387
28 0 1 8.348030 9.796573 63.075897
29 0 1 8.644829 10.310775 62.299194
30 0 1 8.576630 11.274474 62.363495
31 0 1 9.293129 11.432273 63.079803
32 0 1 10.060928 10.780173 62.896301
33 0 1 10.907730 10.816073 62.561096
34 0 1 11.478828 11.622375 62.296204
35 0 1 11.026829 12.172572 63.032898
36 0 1 10.275330 12.069873 63.581299
37 0 1 10.643127 12.465774 64.390411
38 0 1 10.749931 13.520976 64.450500
39 0 1 10.827332 13.762874 65.393311
40 0 1 10.668629 12.847873 65.326691
41 0 1 10.131432 13.072673 66.035400
42 0 1 10.498131 13.721072 66.640198
43 0 1 10.597130 14.520274 67.260315
44 0 1 10.430428 15.446174 66.990692
45 0 1 10.433430 15.489573 66.028687
46 0 1 10.533630 14.796973 65.336090
47 0 1 10.524731 15.088275 64.402802
48 0 1 11.160828 14.586772 63.797485
49 0 1 12.010231 14.560176 63.346802
50 0 1 12.668530 14.160571 62.766113
51 0 1 12.570930 14.943873 62.233490
52 0 1 13.433331 14.872874 62.591614
53 0 1 14.028831 14.853774 61.825287
54 0 1 13.667130 15.151973 60.942993
55 0 1 13.447830 15.185672 60.010498
56 0 1 13.091728 15.625873 59.198914
57 0 1 12.305832 15.878474 58.648987
58 0 1 11.563129 16.412672 58.985687
59 0 1 11.225731 16.967875 59.698303
60 0 1 10.280128 17.381372 59.604004
61 0 1 10.680328 17.213671 58.725311
62 0 1 10.238930 17.459070 57.907196
63 0 1 10.890030 16.799974 57.723999
64 0 1 10.751328 16.760572 56.785004
65 0 1 11.495129 17.181475 56.457092
66 0 1 10.893028 17.954676 56.333893
67 0 1 11.354729 18.201273 55.473389
68 0 1 10.641228 17.613474 55.000397
69 0 1 11.295731 17.104876 55.465088
70 0 1 11.434929 16.325872 54.882690
71 0 1 11.612030 15.351474 54.739410
72 0 1 11.579231 15.229274 55.667389
73 0 1 12.358528 15.786273 55.614288
74 0 1 12.317429 16.768873 55.506287
75 0 1 12.892731 17.410772 55.032990
76 0 1 12.017731 17.721373 54.753784
77 0 1 11.380829 17.715773 53.994812
78 0 1 11.415230 17.378275 53.094513
79 0 1 11.322330 17.000071 52.156891
80 0 1 10.524231 16.831270 51.640503
81 0 1 10.261131 17.827772 51.717987
82 0 1 11.034729 17.775873 51.114502
83 0 1 10.291428 18.020773 50.609009
84 0 1 9.422531 17.899874 50.988098
85 0 1 9.766830 17.130175 50.651611
86 0 1 8.732731 17.168074 50.665497
87 0 1 8.639729 16.607775 49.878113
88 0 1 9.453331 16.362673 49.453888
89 0 1 9.065430 17.004572 48.853088
90 0 1 8.869530 17.046072 47.902008
91 0 1 8.380131 17.756571 47.350891
92 0 1 7.694832 17.575373 48.000488
93 0 1 7.332729 18.184671 48.739807
94 0 1 7.682831 18.697573 49.495605
95 0 1 7.368828 18.431376 50.418396
96 0 1 6.592529 18.746271 49.928284
97 0 1 6.151630 17.855272 49.918304
98 0 1 6.663132 17.037573 49.995789
99 0 1 7.283028 16.321276 49.815002
100 0 1 7.218830 16.879572 49.049103
101 0 1 6.883232 15.935374 48.982910
102 0 1 5.869789 15.856471 48.809601
103 0 1 4.961922 15.952273 48.781097
104 0 1 4.601109 16.076571 49.717194
105 0 1 3.674911 16.202074 50.132507
106 0 1 3.869030 17.111071 50.409607
107 0 1 3.593639 17.519472 51.177887
108 0 1 2.612598 17.397074 51.156097
109 0 1 2.029480 16.707674 51.245605
110 0 1 1.295158 16.796671 51.772797
111 0 1 0.663738 16.788774 52.532898
112 0 1 0.499970 15.945376 52.942902
113 0 1 1.304192 15.612575 52.605896
114 0 1 1.046459 14.718974 52.703186
115 0 1 1.492981 14.140376 52.054016
116 0 1 1.477402 13.317775 51.550903
117 0 1 2.001598 13.304774 52.379913
118 0 1 2.414349 13.555171 53.212402
119 0 1 3.389381 13.385272 53.430511
120 0 1 4.099339 13.794276 52.855896
121 0 1 4.008739 13.386874 51.979706
122 0 1 3.399109 13.928172 51.484894
123 0 1 3.360352 14.937774 51.498108
124 0 1 2.473850 15.100173 51.302795
125 0 1 2.481850 15.719172 50.534485
126 0 1 3.048698 14.942775 50.328796
127 0 1 3.995079 14.792377 50.094910
128 0 1 4.674210 14.199176 50.439087
129 0 1 5.573601 14.448974 50.722992
130 0 1 5.389530 15.237071 50.294312
131 0 1 6.051029 14.750674 49.777313
132 0 1 6.764931 14.297774 50.275513
133 0 1 7.554729 14.144473 49.688110
134 0 1 8.178631 13.554072 50.031097
135 0 1 8.728630 13.502975 50.768616
136 0 1 9.188229 13.089473 51.460693
137 0 1 8.859032 12.866275 52.362701
138 0 1 8.184830 12.345172 51.824799
139 0 1 8.068829 11.766074 51.042786
140 0 1 8.925430 11.280673 50.946289
141 0 1 9.878731 11.311175 51.125397
142 0 1 10.667030 10.893176 50.772095
143 0 1 10.993729 10.487975 51.544708
144 0 1 11.041031 9.802775 50.766785
145 0 1 11.375729 9.112075 50.227905
146 0 1 12.190029 9.383773 49.858704
147 0 1 12.395130 8.508876 50.300293
148 0 1 11.903328 7.883075 50.946716
149 0 1 11.178230 7.845172 51.536896
150 0 1 11.266830 6.899272 51.274200
151 0 1 11.766228 6.461673 50.598816
152 0 1 12.565929 6.022075 50.222107
153 0 1 11.995331 5.498805 50.868408
154 0 1 11.496929 4.571395 50.873901
155 0 1 11.037830 4.738696 50.000702
156 0 1 11.525230 5.120044 49.203308
157 0 1 10.851028 5.735576 48.841492
158 0 1 11.153530 5.556674 47.941284
159 0 1 10.296028 5.582873 47.497009
160 0 1 9.575329 6.102672 47.838684
161 0 1 9.605530 6.508174 46.934113
162 0 1 10.535431 6.673373 46.723511
163 0 1 10.637730 7.588775 46.876190
164 0 1 10.649429 8.126273 46.030884
165 0 1 10.368530 7.149474 45.800293
166 0 1 10.049030 7.552173 45.004089
167 0 1 9.162529 7.162475 45.123993
168 0 1 8.824429 7.686774 45.902405
169 0 1 7.904430 7.945075 46.143005
170 0 1 7.153431 7.510272 45.743011
171 0 1 6.871330 6.731273 45.204590
172 0 1 6.582630 6.475074 44.176910
173 0 1 6.516129 5.674975 44.693207
174 0 1 5.920681 6.035472 45.376312
175 0 1 5.587231 6.272674 46.319092
176 0 1 5.428791 6.940272 47.028503
177 0 1 5.627041 7.759273 46.533905
178 0 1 6.373528 8.293773 46.773590
179 0 1 6.950432 8.882174 47.311401
180 0 1 7.006729 8.733375 48.279999
181 0 1 7.456631 9.200675 49.069305
182 0 1 6.652630 8.847274 49.311188
183 0 1 6.044128 9.549373 49.648804
184 0 1 6.171028 10.539573 49.705597
185 0 1 6.063030 11.226573 49.049896
186 0 1 6.437931 10.858073 48.282410
187 0 1 7.334431 11.069972 48.570709
188 0 1 8.023628 11.002273 47.835693
189 0 1 8.884129 10.649375 48.092590
190 0 1 9.559231 10.209476 48.601410
191 0 1 8.783230 9.861575 49.117889
192 0 1 9.349831 9.350974 49.725098
193 0 1 9.756229 9.465373 50.665802
194 0 1 8.963531 9.274776 51.089996
195 0 1 8.772629 8.415172 51.546387
196 0 1 8.028431 8.680675 50.937195
197 0 1 7.462730 7.906573 51.010315
198 0 1 6.927429 7.170974 50.666595
199 0 1 6.809731 6.597175 51.426605
200 0 1 7.142231 7.274173 52.013794
201 0 1 7.914928 7.031875 51.459595
202 0 1 8.691830 7.083674 51.934296
203 0 1 8.365028 7.431972 52.741302
204 0 1 9.131531 7.974074 52.549011
205 0 1 8.875130 8.925673 52.682983
206 0 1 9.797729 9.224772 52.929413
207 0 1 9.375031 10.045173 53.396912
208 0 1 9.134727 9.356975 53.959290
209 0 1 8.211929 9.574176 54.099915
210 0 1 7.327629 9.844375 54.449493
211 0 1 7.478729 8.906672 54.665588
212 0 1 7.378929 7.961974 54.615204
213 0 1 7.041931 7.162475 54.916504
214 0 1 6.780632 7.596873 55.718689
215 0 1 6.164730 7.506774 56.503601
216 0 1 6.899628 7.207675 57.017792
217 0 1 7.266430 6.441875 57.589600
218 0 1 6.364231 6.304576 57.561401
219 0 1 6.039948 5.972774 58.356995
220 0 1 5.309349 6.168273 58.989502
221 0 1 4.546429 5.634574 59.379517
222 0 1 4.280472 4.709323 59.374603
223 0 1 3.921341 4.424922 60.230011
224 0 1 4.159721 5.356326 60.389313
225 0 1 4.134480 4.932803 61.340607
226 0 1 4.309120 5.921073 61.667511
227 0 1 3.744591 6.161574 62.405090
228 0 1 3.943779 7.075076 62.257385
229 0 1 3.105701 7.022273 61.844391
230 0 1 2.335999 7.557975 61.777008
231 0 1 2.922531 7.752376 62.599609
232 0 1 2.176811 7.175174 62.894714
233 0 1 2.565701 7.616374 63.660400
234 0 1 3.379200 7.857272 63.989685
235 0 1 3.656330 7.940372 64.868103
236 0 1 3.140629 8.524272 65.533813
237 0 1 3.027771 9.439372 65.694885
238 0 1 2.166710 9.741073 65.885895
239 0 1 2.549721 9.423472 66.758118
240 0 1 2.255699 9.499873 67.695618
241 0 1 1.640171 10.080676 68.129303
242 0 1 1.751301 9.360274 68.860718
243 0 1 2.195759 8.619472 69.297211
244 0 1 1.761429 8.144973 69.998108
245 0 1 1.856232 7.453673 70.613281
246 0 1 2.634430 7.322074 70.024200
247 0 1 3.351971 7.446074 69.478394
248 0 1 3.985310 6.890376 69.959991
249 0 1 3.522308 6.289676 69.276306
250 0 1 3.086571 6.113574 70.118591
251 0 1 3.030388 5.580375 70.946716
252 0 1 2.104729 5.315623 71.110992
253 0 1 1.968479 5.268313 72.067993
254 0 1 1.956341 6.146174 72.506592
255 0 1 1.216621 6.468574 72.022217
256 0 1 0.453529 5.916774 72.304199
257 0 1 -0.347969 6.114875 71.827606
258 0 1 -1.116810 6.797175 71.795288
259 0 1 -1.227180 7.347175 72.592102
260 0 1 -1.022869 6.475375 72.953094
261 0 1 -1.702061 5.825873 72.676605
262 0 1 -2.423119 5.840873 72.080902
263 0 1 -2.895170 5.575973 72.929382
264 0 1 -3.669386 5.236392 72.417786
265 0 1 -4.109762 4.773692 71.684692
266 0 1 -4.121185 3.873492 71.689514
267 0 1 -3.697607 4.089904 70.829193
268 0 1 -2.907181 4.575992 70.730286
269 0 1 -2.093430 3.996692 70.679016
270 0 1 -1.258171 3.881255 70.151306
271 0 1 -0.584228 4.562892 69.946808
272 0 1 0.035931 5.274814 69.533691
273 0 1 0.471771 4.439822 69.347504
274 0 1 0.854729 3.597003 69.518616
275 0 1 1.852318 3.876464 69.639191
276 0 1 2.236820 2.992602 69.749298
277 0 1 1.672878 3.042052 70.545715
278 0 1 0.765888 2.774253 70.952209
279 0 1 1.204929 2.009303 71.348297
280 0 1 0.457512 1.711524 70.734802
281 0 1 0.102490 1.633372 69.910583
282 0 1 0.119129 0.686423 70.169189
283 0 1 -0.086929 -0.083535 70.708496
284 0 1 -0.772362 0.062102 71.345215
285 0 1 -1.271290 -0.432286 72.036896
286 0 1 -1.757832 -0.834775 72.782288
287 0 1 -2.314289 -0.544175 71.942017
288 0 1 -3.248123 -0.513185 71.595398
289 0 1 -2.846830 -0.893968 70.747406
290 0 1 -3.262396 -0.946977 69.886292
291 0 1 -3.884859 -1.425878 70.431213
292 0 1 -4.403296 -2.219174 70.627197
293 0 1 -4.790903 -2.502194 71.434601
294 0 1 -5.695030 -2.824265 71.450500
295 0 1 -6.581400 -2.622056 71.249908
296 0 1 -7.502590 -2.352887 71.235718
297 0 1 -7.942020 -1.562696 71.605591
298 0 1 -8.126120 -1.423837 70.645508
299 0 1 -7.737150 -1.769647 69.793701
300 0 1 -8.519751 -1.916616 69.253113
301 0 1 -8.832251 -1.050088 68.816193
302 0 1 -9.842239 -1.094457 69.040405
303 0 1 -10.720001 -0.652375 68.949707
304 0 1 -10.909241 -0.614106 69.880981
305 0 1 -10.596550 -0.952516 70.774994
306 0 1 -11.315319 -1.469556 70.408905
307 0 1 -10.569540 -1.926786 70.038391
308 0 1 -9.960430 -1.884046 70.742981
309 0 1 -9.142799 -1.865567 70.214203
310 0 1 -8.813011 -2.783345 70.433105
311 0 1 -8.078861 -3.449746 70.432404
312 0 1 -7.611750 -2.928735 69.824707
313 0 1 -7.843670 -3.849643 69.545898
314 0 1 -7.734221 -4.741729 69.152496
315 0 1 -7.782761 -5.487765 68.465088
316 0 1 -7.951981 -6.277837 67.973297
317 0 1 -7.221189 -6.660186 67.515503
318 0 1 -7.999861 -7.335296 67.514893
319 0 1 -8.463610 -7.475257 66.625092
320 0 1 -7.962290 -7.729596 65.820618
321 0 1 -8.662540 -8.296096 65.460388
322 0 1 -8.012070 -7.973416 64.803284
323 0 1 -8.140079 -7.523456 63.986511
324 0 1 -7.160000 -7.571446 63.973297
325 0 1 -6.611610 -6.917895 63.452698
326 0 1 -5.926811 -6.831237 64.135315
327 0 1 -5.866621 -7.225106 65.100494
328 0 1 -4.982050 -7.144546 65.238495
329 0 1 -4.981689 -8.017495 65.548706
330 0 1 -4.703039 -7.354207 66.170715
331 0 1 -5.343269 -6.989865 66.754608
332 0 1 -4.754929 -6.224875 66.975006
333 0 1 -4.379877 -6.025105 66.070984
334 0 1 -5.020229 -5.328828 65.781708
335 0 1 -5.778170 -4.710685 65.473999
336 0 1 -5.700321 -3.914002 66.013000
337 0 1 -5.116600 -3.573623 65.324493
338 0 1 -5.538351 -2.717816 65.444092
339 0 1 -6.004320 -2.089475 65.981293
340 0 1 -6.040781 -1.321645 65.258698
341 0 1 -6.502581 -0.960668 66.062592
342 0 1 -6.738821 -0.256955 65.492401
343 0 1 -6.602020 -0.513566 64.518890
344 0 1 -6.221941 -0.696187 63.668701
345 0 1 -5.598751 -0.980195 64.410492
346 0 1 -5.173410 -0.441026 63.679504
347 0 1 -5.477230 0.383662 63.194489
348 0 1 -5.220301 0.582583 62.273987
349 0 1 -5.657560 1.056582 61.511688
350 0 1 -5.988850 0.267253 61.153412
351 0 1 -6.881411 0.076144 60.922302
352 0 1 -7.350311 -0.459676 60.284210
353 0 1 -8.193470 0.001796 60.166107
354 0 1 -9.056860 0.388095 60.397003
355 0 1 -9.103741 -0.328027 59.755798
356 0 1 -10.001200 -0.183896 59.348297
357 0 1 -9.455070 0.617232 59.338593
358 0 1 -8.660410 0.362742 58.892700
359 0 1 -8.238630 -0.451558 58.923096
360 0 1 -8.964390 -1.023778 58.677704
361 0 1 -8.795509 -1.554006 59.468201
362 0 1 -8.315220 -2.060006 60.121490
363 0 1 -8.011061 -2.047807 61.002106
364 0 1 -7.438641 -1.720468 61.750916
365 0 1 -8.093491 -0.999436 61.883301
366 0 1 -8.801670 -1.610158 61.854614
367 0 1 -9.577230 -2.103776 62.029907
368 0 1 -9.755711 -2.588357 61.217102
369 0 1 -10.095160 -3.362897 60.744812
370 0 1 -10.195101 -4.249381 60.348389
371 0 1 -9.326361 -4.414994 59.995697
372 0 1 -8.847200 -4.460208 60.904999
373 0 1 -9.399191 -5.259191 61.009613
374 0 1 -9.918970 -5.979787 61.354401
375 0 1 -9.728340 -6.844956 61.724487
376 0 1 -9.394329 -7.729207 61.934296
377 0 1 -8.684219 -8.003707 62.615204
378 0 1 -9.036200 -8.907105 62.549896
379 0 1 -9.521980 -9.776336 62.587891
380 0 1 -9.700010 -9.541226 63.502411
381 0 1 -10.062290 -8.830285 62.945984
382 0 1 -10.688681 -8.903886 62.241516
383 0 1 -11.282560 -8.483066 61.593109
384 0 1 -11.768391 -8.614575 62.481689
385 0 1 -11.325691 -7.780536 62.623199
386 0 1 -11.833881 -7.043817 62.282990
387 0 1 -11.689810 -6.926085 61.353790
388 0 1 -11.349100 -7.647786 60.829590
389 0 1 -11.075300 -8.264247 60.172211
390 0 1 -10.419029 -7.643376 60.236298
391 0 1 -10.694691 -6.660645 60.039307
392 0 1 -10.634529 -6.490516 59.048492
393 0 1 -10.819229 -6.237086 58.130402
394 0 1 -10.964710 -7.154216 58.196716
395 0 1 -11.792610 -6.978387 58.591187
396 0 1 -12.328510 -6.500226 57.927307
397 0 1 -12.185452 -7.390576 57.547089
398 0 1 -12.303860 -7.974616 58.246796
399 0 1 -13.156181 -8.268186 58.699005
400 0 1 -13.355789 -8.554187 57.774506
401 0 1 -12.959621 -8.065415 56.977600
402 0 1 -12.662399 -8.533727 56.245392
403 0 1 -13.508471 -8.763656 55.920990
404 0 1 -14.159569 -9.377416 56.441895
405 0 1 -14.807270 -9.033135 55.810303
406 0 1 -14.629871 -9.936786 55.534607
407 0 1 -14.803270 -10.889146 55.388306
408 0 1 -14.083069 -11.218837 56.018402
409 0 1 -13.135521 -11.103967 55.905884
410 0 1 -13.217270 -11.763566 56.616699
411 0 1 -12.766899 -12.501187 57.102905
412 0 1 -11.921791 -12.910905 56.849213
413 0 1 -11.441429 -12.761416 55.929810
414 0 1 -11.320200 -12.040256 55.252014
415 0 1 -11.593920 -11.544835 56.093384
416 0 1 -11.864050 -11.409226 57.033905
417 0 1 -11.323580 -11.054616 57.759308
418 0 1 -10.442410 -10.795926 57.373901
419 0 1 -9.889200 -10.059155 57.031311
420 0 1 -10.006451 -9.651757 56.159912
421 0 1 -10.145599 -9.196286 55.367401
422 0 1 -9.798290 -8.304585 55.160095
423 0 1 -8.977840 -8.280616 55.738495
424 0 1 -8.552000 -7.452435 55.976288
425 0 1 -8.310160 -6.779716 56.602692
426 0 1 -7.798130 -5.916856 56.536102
427 0 1 -8.267250 -5.126246 56.138611
428 0 1 -8.667870 -5.641656 56.843201
429 0 1 -9.351900 -4.997519 56.913605
430 0 1 -9.872141 -4.105615 57.098206
431 0 1 -10.837130 -4.219893 56.913910
432 0 1 -10.551550 -4.717149 56.137207
433 0 1 -10.345730 -4.365922 55.295807
434 0 1 -9.786680 -4.493876 54.559296
435 0 1 -9.026621 -5.055898 54.463409
436 0 1 -8.084660 -4.866025 54.297607
437 0 1 -8.406071 -5.719926 54.166992
438 0 1 -7.791811 -6.016366 53.477203
439 0 1 -7.372700 -5.262136 53.025909
440 0 1 -6.577471 -5.010507 53.483795
441 0 1 -5.980700 -5.204648 52.769897
442 0 1 -5.734180 -5.766536 51.890686
443 0 1 -5.892500 -6.133866 51.060089
444 0 1 -5.040291 -5.924186 51.105896
445 0 1 -5.021360 -5.203364 50.417389
446 0 1 -4.257814 -4.931415 49.831696
447 0 1 -3.717842 -4.405786 49.136414
448 0 1 -2.900160 -4.495322 48.566193
449 0 1 -3.557583 -5.002164 48.091095
450 0 1 -3.610638 -5.249454 47.161316
451 0 1 -2.626341 -5.169366 47.158600
452 0 1 -1.886082 -5.780606 47.510193
453 0 1 -1.338531 -6.160605 48.179413
454 0 1 -0.601349 -5.564876 47.989899
455 0 1 -0.588169 -4.575135 48.100800
456 0 1 -1.422970 -4.571700 48.640198
457 0 1 -2.087929 -4.784158 49.333710
458 0 1 -1.544510 -4.070046 49.658203
459 0 1 -1.886532 -3.636180 48.796692
460 0 1 -1.718330 -3.820968 47.794617
461 0 1 -2.413849 -3.823134 47.134399
462 0 1 -2.433121 -3.826489 46.163696
463 0 1 -1.706280 -3.165977 46.215088
464 0 1 -1.312698 -3.391187 45.388092
465 0 1 -0.960030 -2.850717 44.639008
466 0 1 -0.595009 -3.240016 43.841309
467 0 1 -1.265892 -3.812335 43.444214
468 0 1 -1.090561 -4.418443 44.179413
469 0 1 -1.619961 -5.088433 43.734802
470 0 1 -2.379971 -4.587235 44.141998
471 0 1 -2.966612 -4.981561 44.785492
472 0 1 -3.442080 -4.402076 44.244385
473 0 1 -4.247318 -4.664901 43.732605
474 0 1 -3.390022 -4.661864 43.196808
475 0 1 -3.594225 -4.603686 42.273193
476 0 1 -3.179966 -5.381673 41.977905
477 0 1 -2.845510 -5.259002 41.048187
478 0 1 -2.812330 -4.495996 40.538605
479 0 1 -2.305241 -3.819781 40.188293
480 0 1 -1.378590 -4.004781 40.263000
481 0 1 -1.452641 -3.844821 39.352112
482 0 1 -2.355362 -3.679276 38.999084
483 0 1 -2.716051 -3.729901 38.112915
484 0 1 -1.830910 -3.995296 37.955811
485 0 1 -1.423431 -3.214246 37.439209
486 0 1 -1.903130 -2.482965 36.961487
487 0 1 -2.258530 -1.707795 36.514313
488 0 1 -1.723221 -2.224057 35.910095
489 0 1 -1.813709 -3.174026 35.831116
490 0 1 -1.228451 -3.891189 35.518311
491 0 1 -1.884041 -4.459271 35.895996
492 0 1 -1.326080 -4.989488 35.351410
493 0 1 -1.942951 -5.820416 35.518311
494 0 1 -2.296230 -6.712417 35.994995
495 0 1 -3.118980 -6.682117 36.392303
496 0 1 -3.424112 -6.077676 35.655090
497 0 1 -3.163895 -5.423007 36.272888
498 0 1 -3.502670 -4.679322 36.817291
499 0 1 -4.384317 -4.845214 37.013397
500 0 1 -5.186861 -5.436318 37.195587
501 0 1 -5.871639 -5.576556 37.930511
502 0 1 -6.026810 -6.597905 37.725098
503 0 1 -6.779610 -6.067706 38.024506
504 0 1 -7.177299 -6.211766 38.831207
505 0 1 -7.229891 -5.919137 39.766388
506 0 1 -8.066090 -6.374066 39.567688
507 0 1 -9.004770 -6.647006 39.562195
508 0 1 -9.243401 -7.463067 39.877991
509 0 1 -9.085590 -8.244956 40.517609
510 0 1 -8.799850 -8.932675 39.915894
511 0 1 -8.600241 -9.674855 40.496796
512 0 1 -8.133760 -9.124875 41.059509
513 0 1 -7.643530 -9.503655 41.797089
514 0 1 -7.496799 -8.733975 42.364990
515 0 1 -7.148621 -9.500356 42.814697
516 0 1 -7.412951 -10.389895 42.795197
517 0 1 -8.017879 -11.039016 43.103912
518 0 1 -8.387531 -11.378556 42.214996
519 0 1 -9.237940 -11.382047 41.844696
520 0 1 -9.168390 -10.409846 41.681702
521 0 1 -9.923611 -10.050225 42.184998
522 0 1 -10.346010 -10.193536 43.011414
523 0 1 -9.876600 -11.050305 43.127106
524 0 1 -10.114731 -11.785926 43.677399
525 0 1 -10.866930 -11.763886 43.089111
526 0 1 -11.572319 -12.437076 42.922913
527 0 1 -12.294651 -12.003987 43.421509
528 0 1 -12.643131 -12.796807 43.044891
529 0 1 -12.641232 -12.881116 42.060089
530 0 1 -13.354990 -12.537377 41.586212
531 0 1 -13.925711 -12.109456 42.238403
532 0 1 -14.070271 -11.204066 41.790192
533 0 1 -13.918020 -11.081025 42.739685
534 0 1 -13.902790 -11.969987 43.272217
535 0 1 -13.566730 -12.015527 44.197693
536 0 1 -13.220001 -12.890725 44.063416
537 0 1 -12.555080 -13.568496 44.333801
538 0 1 -11.523090 -13.552537 44.337189
539 0 1 -11.917480 -12.790166 44.847595
540 0 1 -11.763809 -11.898175 45.043304
541 0 1 -12.635590 -11.479596 45.398193
542 0 1 -13.040310 -10.785275 45.935486
543 0 1 -13.469570 -9.993535 46.355896
544 0 1 -14.406971 -9.777455 46.432312
545 0 1 -14.461571 -9.446746 45.394501
546 0 1 -15.282169 -9.760957 44.950195
547 0 1 -16.271570 -9.763267 44.922607
548 0 1 -16.102770 -10.052495 43.974792
549 0 1 -16.081169 -11.024516 43.947510
550 0 1 -16.933870 -10.729856 44.258392
551 0 1 -17.606171 -10.939586 44.945709
552 0 1 -17.006870 -10.989726 45.718903
553 0 1 -17.303970 -10.585656 46.544891
554 0 1 -17.104271 -11.427997 47.036896
555 0 1 -17.127369 -11.973157 47.902191
556 0 1 -17.486370 -12.785085 48.475189
557 0 1 -18.217072 -13.391826 48.121307
558 0 1 -18.727369 -12.542165 48.007294
559 0 1 -19.247669 -12.557027 47.209991
560 0 1 -19.572269 -11.853566 46.595886
561 0 1 -19.301769 -11.222856 45.887909
562 0 1 -19.763269 -11.827697 45.382904
563 0 1 -19.784969 -11.245656 44.659302
564 0 1 -20.450171 -10.579467 44.675598
565 0 1 -19.557369 -10.160827 44.494110
566 0 1 -19.241369 -10.311097 43.590393
567 0 1 -18.715969 -10.462857 42.792297
568 0 1 -18.308470 -11.004117 42.097198
569 0 1 -18.145969 -11.717015 42.696106
570 0 1 -19.093269 -11.887286 42.865784
571 0 1 -19.414669 -12.700196 42.484589
572 0 1 -19.757870 -13.681386 42.614105
573 0 1 -19.339069 -14.501027 42.514008
574 0 1 -18.646170 -14.424336 41.849304
575 0 1 -18.238871 -14.441415 40.943390
576 0 1 -19.007370 -14.565026 40.392395
577 0 1 -19.757570 -14.937627 39.930786
578 0 1 -20.716671 -15.076825 39.638397
579 0 1 -20.380470 -15.503427 38.881104
580 0 1 -19.863670 -15.156426 38.175415
581 0 1 -19.704769 -15.646028 37.322601
582 0 1 -19.542170 -16.597128 37.484711
583 0 1 -19.169870 -16.791027 38.421112
584 0 1 -19.140471 -17.052328 39.359192
585 0 1 -19.252769 -17.063427 40.277588
586 0 1 -18.328869 -16.962126 40.106689
587 0 1 -17.900770 -17.676126 39.643311
588 0 1 -18.016369 -18.633226 39.612213
589 0 1 -17.200871 -18.522627 40.045502
590 0 1 -17.348570 -19.124826 40.750092
591 0 1 -18.224072 -19.484827 40.981812
592 0 1 -18.792070 -20.303627 41.069000
593 0 1 -18.078869 -20.535027 41.692291
594 0 1 -18.868771 -20.642227 42.205688
595 0 1 -19.437370 -20.034227 42.687195
596 0 1 -19.922871 -19.411926 43.187897
597 0 1 -20.781771 -19.312428 43.708801
598 0 1 -21.113770 -18.903826 42.901093
599 0 1 -21.143869 -19.000227 41.984894
600 0 1 -21.626171 -18.793528 41.165009
601 0 1 -21.517870 -17.968126 40.670715
602 0 1 -20.740370 -18.380327 40.128510
603 0 1 -20.829470 -17.411827 39.799805
604 0 1 -20.668070 -16.453428 39.553101
605 0 1 -20.379971 -16.719927 38.678101
606 0 1 -20.033670 -17.474627 38.254913
607 0 1 -20.472170 -18.073126 38.884308
608 0 1 -21.028971 -18.049627 38.114990
609 0 1 -21.919970 -18.140028 37.724609
610 0 1 -21.647570 -17.588728 36.925903
611 0 1 -21.552271 -16.734426 37.434692
612 0 1 -21.312370 -15.897428 37.763702
613 0 1 -22.212170 -15.887925 37.311493
614 0 1 -22.223770 -15.260726 36.634491
615 0 1 -21.418770 -14.763627 36.472809
616 0 1 -21.542170 -14.464147 37.348602
617 0 1 -22.176170 -14.306306 38.018707
618 0 1 -22.918871 -14.411706 38.585693
619 0 1 -22.820271 -13.415296 38.580811
620 0 1 -23.164671 -12.610616 38.211304
621 0 1 -23.853870 -12.645135 38.828094
622 0 1 -24.272871 -13.409665 38.537811
623 0 1 -23.754271 -13.521676 37.687683
624 0 1 -23.550570 -13.679196 36.720001
625 0 1 -23.345871 -14.598325 36.777802
626 0 1 -23.300970 -14.956426 35.910492
627 0 1 -23.961269 -15.389926 36.484406
628 0 1 -23.154369 -15.885327 36.553406
629 0 1 -23.531870 -15.828027 37.523193
630 0 1 -24.151470 -16.509127 37.542694
631 0 1 -24.709270 -15.861825 38.016205
632 0 1 -24.760071 -15.849427 37.092712
633 0 1 -25.098970 -15.555127 36.244293
634 0 1 -24.697771 -16.441126 36.094299
635 0 1 -24.604170 -17.446928 36.078796
636 0 1 -25.098570 -17.875826 35.416016
637 0 1 -25.358870 -18.461727 34.610504
638 0 1 -25.515471 -19.099527 33.865601
639 0 1 -24.960470 -18.296127 33.752686
640 0 1 -24.037970 -18.280428 33.519714
641 0 1 -23.739870 -18.999626 33.027893
642 0 1 -22.989771 -18.965326 32.406311
643 0 1 -22.768869 -19.355827 31.588808
644 0 1 -23.304770 -18.750326 31.092501
645 0 1 -22.559471 -18.239227 30.803713
646 0 1 -22.657070 -18.516226 29.901613
647 0 1 -22.542669 -17.853027 29.260408
648 0 1 -22.053970 -16.998228 29.471895
649 0 1 -21.336969 -17.458529 29.115602
650 0 1 -20.612270 -17.614126 29.825594
651 0 1 -20.464571 -18.589527 29.648592
652 0 1 -19.638870 -18.946627 29.995607
653 0 1 -18.780069 -19.296827 29.750399
654 0 1 -17.968071 -19.664326 30.120516
655 0 1 -17.367569 -19.226126 30.686586
656 0 1 -16.920071 -19.460026 31.481600
657 0 1 -16.677971 -19.414127 32.430786
658 0 1 -15.785271 -19.066526 32.431396
659 0 1 -15.482769 -18.150026 32.376190
660 0 1 -14.856670 -18.258827 31.673708
661 0 1 -14.870770 -17.531427 30.996889
662 0 1 -14.536070 -16.693628 30.733309
663 0 1 -15.354071 -16.611927 30.167910
664 0 1 -15.931770 -15.903226 29.920015
665 0 1 -16.848570 -16.135626 30.153292
666 0 1 -16.775871 -16.993727 29.736300
667 0 1 -17.379871 -17.113728 29.024691
668 0 1 -18.272369 -16.945028 28.684908
669 0 1 -17.560970 -16.576628 28.148195
670 0 1 -17.246971 -16.969126 27.313814
671 0 1 -16.811171 -17.845526 27.012911
672 0 1 -15.861170 -17.869127 27.170900
673 0 1 -15.699070 -18.818327 27.524202
674 0 1 -15.405769 -18.937027 26.616304
675 0 1 -15.516670 -19.882627 26.221712
676 0 1 -16.225170 -20.207226 25.559999
677 0 1 -15.593769 -19.875126 24.959810
678 0 1 -14.713970 -19.916126 24.475313
679 0 1 -14.822269 -20.749327 25.003298
680 0 1 -14.575871 -21.068027 25.881899
681 0 1 -15.500271 -21.140127 26.188601
682 0 1 -15.527271 -21.995827 25.706789
683 0 1 -15.933470 -22.581827 25.065096
684 0 1 -16.046270 -23.543427 25.340609
685 0 1 -15.440971 -24.193327 24.977205
686 0 1 -14.706270 -23.590727 24.775393
687 0 1 -14.723570 -23.050127 23.971498
688 0 1 -14.105970 -22.769327 23.269197
689 0 1 -14.457170 -23.619026 22.963503
690 0 1 -14.094570 -23.880028 22.107805
691 0 1 -14.463970 -23.421926 21.304796
692 0 1 -13.710840 -22.859226 21.627596
693 0 1 -13.373560 -22.232227 22.250307
694 0 1 -14.263569 -21.850227 22.215502
695 0 1 -14.865971 -21.230627 21.695299
696 0 1 -15.786572 -21.063526 22.037401
697 0 1 -16.601370 -20.707228 22.485903
698 0 1 -16.647070 -21.496428 23.006502
699 0 1 -17.504669 -21.040827 23.257387
700 0 1 -17.846670 -20.272026 22.747194
701 0 1 -18.658770 -19.824127 23.011202
702 0 1 -19.565569 -19.603727 22.958803
703 0 1 -19.751270 -20.270227 22.363710
704 0 1 -19.979971 -19.459127 21.713396
705 0 1 -19.262970 -18.984127 21.353395
706 0 1 -18.992870 -18.104227 21.274508
707 0 1 -18.480669 -17.315928 21.357210
708 0 1 -18.082569 -16.926527 22.112398
709 0 1 -17.161470 -17.226126 22.540316
710 0 1 -16.330872 -16.946428 22.156404
711 0 1 -15.419371 -16.929426 21.803698
712 0 1 -15.015369 -17.612528 22.418200
713 0 1 -15.188770 -18.014627 23.282900
714 0 1 -14.896870 -17.210127 23.773104
715 0 1 -15.533270 -16.653326 23.299501
716 0 1 -14.807869 -16.512926 22.624300
717 0 1 -14.860069 -15.543626 22.557589
718 0 1 -14.576069 -14.649625 22.558107
719 0 1 -13.937691 -14.042935 22.952517
720 0 1 -14.367371 -13.143285 23.165407
721 0 1 -14.692270 -13.681497 23.895693
722 0 1 -14.589670 -12.784556 24.165102
723 0 1 -13.956890 -12.355065 23.535616
724 0 1 -13.415380 -12.124766 22.744905
725 0 1 -13.663660 -11.642415 21.948198
726 0 1 -14.189869 -11.275126 21.305407
727 0 1 -13.720451 -10.490735 21.582705
728 0 1 -12.892080 -10.463876 22.052401
729 0 1 -12.172989 -10.312427 22.633791
730 0 1 -12.151772 -11.028497 23.198610
731 0 1 -11.556110 -10.282647 23.443209
732 0 1 -11.790640 -9.856666 24.230410
733 0 1 -11.901890 -9.716376 25.232393
734 0 1 -12.751240 -9.911006 24.766207
735 0 1 -13.462349 -10.024266 24.069796
736 0 1 -14.115669 -10.680846 23.808107
737 0 1 -15.049570 -10.844956 23.504305
738 0 1 -15.478870 -9.991296 23.714907
739 0 1 -15.773972 -9.678926 24.525393
740 0 1 -16.127571 -8.792186 24.700106
741 0 1 -15.539471 -8.234046 24.119814
742 0 1 -15.764570 -7.771127 23.277193
743 0 1 -16.619770 -8.195167 23.366915
744 0 1 -16.459171 -8.074056 22.455507
745 0 1 -16.060970 -7.406167 21.910997
746 0 1 -15.231470 -7.167396 21.422701
747 0 1 -14.960470 -6.290227 21.261110
748 0 1 -14.856369 -5.340016 21.274599
749 0 1 -15.541069 -5.138579 20.688005
750 0 1 -15.597969 -4.967977 19.773897
751 0 1 -16.206871 -4.170690 19.950502
752 0 1 -15.735170 -3.876271 20.752504
753 0 1 -15.939270 -3.536815 21.681307
754 0 1 -16.587070 -4.016736 22.147493
755 0 1 -16.743071 -4.570863 21.397997
756 0 1 -17.591070 -4.206597 21.551394
757 0 1 -17.901070 -4.808217 22.239809
758 0 1 -18.398071 -4.849570 21.362307
759 0 1 -19.372169 -4.889649 21.284807
760 0 1 -20.034470 -4.203147 21.220903
761 0 1 -20.190371 -3.241326 21.362307
762 0 1 -20.217270 -2.340566 21.564394
763 0 1 -19.294769 -1.846227 21.544298
764 0 1 -18.862570 -1.208436 20.864809
765 0 1 -19.092770 -0.481256 20.175600
766 0 1 -19.135969 0.477042 20.164904
767 0 1 -18.388569 0.247882 19.638903
768 0 1 -17.794670 -0.549436 19.606905
769 0 1 -17.208069 -1.092275 20.149096
770 0 1 -16.583969 -1.321817 19.472795
771 0 1 -16.661070 -0.398538 19.259310
772 0 1 -16.705872 -0.295896 18.302095
773 0 1 -16.005470 -0.934457 18.113298
774 0 1 -16.198669 -0.728856 17.175005
775 0 1 -15.790871 -0.452916 16.288301
776 0 1 -15.082771 -0.157338 15.722506
777 0 1 -14.985970 -0.674245 14.945208