LAMMPS data file via MDAnalysis

        2000  atoms
        1999  bonds
           0  angles
           0  dihedrals
           0  impropers

           1  atom types
           1  bond types
           0  angle types
           0  dihedral types
           0  improper types

-30.5 30.5 xlo xhi
-30.5 30.5 ylo yhi
-233.5 233.5 zlo zhi


Masses

1 1.000000

Atoms

1 0 1 -8.933507 -13.403804 26.000214
2 0 1 -8.621087 -14.298804 26.161804
3 0 1 -9.323049 -14.974704 26.056702
4 0 1 -9.638858 -15.669404 25.417389
5 0 1 -9.667687 -16.629204 25.100189
6 0 1 -8.713218 -16.758303 25.081787
7 0 1 -8.634858 -17.608503 25.437500
8 0 1 -9.525628 -17.881403 25.284210
9 0 1 -10.488938 -17.538504 25.167297
10 0 1 -10.956117 -16.816004 25.478699
11 0 1 -11.748986 -16.452503 25.006897
12 0 1 -11.432958 -16.804703 24.189697
13 0 1 -10.905438 -16.073603 23.838409
14 0 1 -11.036098 -15.145104 23.452911
15 0 1 -10.592118 -15.202104 22.606689
16 0 1 -9.895318 -15.802304 22.665894
17 0 1 -9.492618 -16.290703 23.439514
18 0 1 -9.969857 -16.808804 22.759796
19 0 1 -9.710967 -17.075003 21.868607
20 0 1 -9.292537 -16.181704 21.711594
21 0 1 -9.450288 -15.237603 21.568298
22 0 1 -10.218238 -15.449803 20.994095
23 0 1 -10.666078 -14.985604 20.309296
24 0 1 -11.579488 -14.994603 20.530106
25 0 1 -11.779786 -15.328004 21.422806
26 0 1 -11.585248 -16.154602 20.969101
27 0 1 -11.186917 -15.812505 20.100098
28 0 1 -12.011188 -16.358004 20.136597
29 0 1 -12.010888 -17.317204 20.357407
30 0 1 -12.527589 -17.409903 21.194305
31 0 1 -13.172688 -17.254704 21.898102
32 0 1 -14.030288 -16.888403 22.233795
33 0 1 -14.773488 -16.278803 22.275803
34 0 1 -15.112988 -15.484004 22.670807
35 0 1 -15.990289 -15.574405 22.269501
36 0 1 -16.749989 -15.402703 21.685104
37 0 1 -16.841488 -14.720304 21.040497
38 0 1 -16.977888 -14.923305 20.105804
39 0 1 -17.268188 -14.202205 19.624908
40 0 1 -17.940588 -14.386403 18.804199
41 0 1 -18.328289 -15.277305 18.679108
42 0 1 -18.265789 -15.695603 17.767899
43 0 1 -17.579187 -15.028203 17.893005
44 0 1 -17.012688 -14.524003 17.226196
45 0 1 -17.253988 -14.203605 16.305099
46 0 1 -17.642288 -14.628203 15.504395
47 0 1 -17.957888 -14.513503 14.554703
48 0 1 -17.624588 -14.434804 13.634308
49 0 1 -17.882389 -13.484405 13.529800
50 0 1 -18.753288 -13.088304 13.711304
51 0 1 -18.833689 -12.138305 13.447998
52 0 1 -18.608988 -11.538505 14.213501
53 0 1 -19.293488 -10.808804 14.216202
54 0 1 -18.668388 -10.611804 14.897507
55 0 1 -18.105789 -11.355904 15.243698
56 0 1 -17.265287 -11.376404 14.796295
57 0 1 -16.949287 -12.066903 15.420303
58 0 1 -16.505388 -11.497705 16.075104
59 0 1 -15.853587 -10.999804 16.597992
60 0 1 -16.107088 -11.251504 17.458694
61 0 1 -16.423388 -10.335504 17.557892
62 0 1 -16.861887 -10.265404 16.706406
63 0 1 -17.366087 -9.787404 17.426498
64 0 1 -17.651888 -10.104804 18.249207
65 0 1 -17.817688 -10.338004 19.247604
66 0 1 -17.326187 -11.227804 19.142197
67 0 1 -16.427288 -11.104204 19.338806
68 0 1 -16.184387 -10.256504 19.654694
69 0 1 -15.396487 -9.708304 19.819794
70 0 1 -15.329988 -9.365104 20.739197
71 0 1 -14.665189 -10.017303 20.973495
72 0 1 -13.749688 -9.674804 21.257507
73 0 1 -13.615788 -9.375403 22.187500
74 0 1 -13.779988 -9.003703 23.095001
75 0 1 -14.457486 -8.320304 22.851593
76 0 1 -14.087289 -7.453904 22.483002
77 0 1 -14.020087 -6.511504 22.566498
78 0 1 -14.595487 -5.788905 22.779602
79 0 1 -14.987887 -5.426083 23.530487
80 0 1 -15.364787 -6.315403 23.735291
81 0 1 -15.480388 -7.356904 23.708710
82 0 1 -15.269486 -6.915305 24.523712
83 0 1 -14.752788 -7.616904 24.809998
84 0 1 -15.274087 -8.146705 25.369385
85 0 1 -14.540387 -8.644704 24.893707
86 0 1 -14.985288 -9.297305 25.448792
87 0 1 -15.786988 -9.211204 26.038513
88 0 1 -16.594688 -8.810103 25.873505
89 0 1 -17.010088 -7.927403 26.036804
90 0 1 -17.500088 -8.242503 25.294891
91 0 1 -17.277088 -8.866504 24.609711
92 0 1 -18.153288 -9.216804 24.336700
93 0 1 -17.766588 -8.501803 23.702698
94 0 1 -18.058289 -7.990504 22.949707
95 0 1 -18.857288 -7.671004 23.525696
96 0 1 -19.495489 -8.046203 24.142090
97 0 1 -19.797289 -7.701502 25.000092
98 0 1 -19.279289 -7.660704 25.788300
99 0 1 -19.797188 -7.572003 26.553894
100 0 1 -19.643089 -6.619103 26.633606
101 0 1 -20.147789 -5.992703 26.033112
102 0 1 -19.502388 -6.198304 25.420990
103 0 1 -20.189888 -5.875603 24.833801
104 0 1 -19.827089 -6.106802 23.934692
105 0 1 -20.306889 -5.941203 23.129089
106 0 1 -19.642689 -5.374625 22.752991
107 0 1 -18.996788 -5.833003 23.348816
108 0 1 -18.052088 -5.698504 23.169495
109 0 1 -17.298187 -6.197104 23.644012
110 0 1 -17.400587 -5.562003 24.338898
111 0 1 -16.807089 -5.019843 24.891388
112 0 1 -16.357088 -5.410784 25.627106
113 0 1 -16.055189 -4.448733 25.648987
114 0 1 -16.653488 -3.735653 26.016510
115 0 1 -16.061089 -2.959944 26.083313
116 0 1 -15.873588 -2.492693 25.237488
117 0 1 -16.792889 -2.109393 24.936188
118 0 1 -16.659687 -1.184353 24.628204
119 0 1 -16.071388 -0.476563 24.266205
120 0 1 -15.296086 -1.130724 24.454285
121 0 1 -14.961987 -1.766734 25.074707
122 0 1 -14.307788 -2.043574 25.709808
123 0 1 -14.402589 -2.910073 25.331116
124 0 1 -14.113687 -3.660174 25.840302
125 0 1 -14.560987 -4.110623 26.653595
126 0 1 -15.250688 -4.681902 26.458496
127 0 1 -15.013387 -4.926795 25.623108
128 0 1 -14.517287 -5.772803 25.723602
129 0 1 -15.285989 -5.836802 26.361908
130 0 1 -15.154286 -6.716504 25.832214
131 0 1 -14.884889 -7.178803 26.690094
132 0 1 -15.327088 -6.785204 27.441010
133 0 1 -16.269987 -6.665404 27.460388
134 0 1 -16.051289 -6.222804 28.273407
135 0 1 -15.134488 -6.331202 28.643188
136 0 1 -14.465589 -5.684004 28.356812
137 0 1 -13.848187 -4.975504 28.065704
138 0 1 -14.373887 -4.700613 28.774109
139 0 1 -13.542787 -4.273474 28.963501
140 0 1 -13.729688 -3.582964 28.429993
141 0 1 -12.939887 -3.191834 28.102112
142 0 1 -12.368188 -2.806273 27.408905
143 0 1 -13.257588 -2.555212 27.140991
144 0 1 -12.667188 -1.804854 27.200714
145 0 1 -12.950688 -1.678353 28.102203
146 0 1 -13.214087 -0.737124 27.969116
147 0 1 -13.022388 -0.318423 28.811401
148 0 1 -13.562787 -0.717324 29.477112
149 0 1 -13.623487 -1.591183 29.765198
150 0 1 -12.887187 -1.698584 29.239807
151 0 1 -12.610887 -2.623253 29.316498
152 0 1 -11.822288 -2.945393 29.701813
153 0 1 -11.564698 -3.781144 29.992401
154 0 1 -11.514997 -4.264393 29.146484
155 0 1 -10.685449 -4.424754 28.774689
156 0 1 -10.189527 -5.194453 28.989014
157 0 1 -9.971017 -6.083603 29.250916
158 0 1 -9.344798 -6.128703 28.381500
159 0 1 -9.004308 -6.847603 27.833313
160 0 1 -8.426167 -6.661303 27.116913
161 0 1 -7.728498 -6.127503 27.522614
162 0 1 -7.467988 -6.597104 26.699188
163 0 1 -8.028537 -5.887303 26.391205
164 0 1 -9.004138 -5.819003 26.499298
165 0 1 -8.906327 -6.635603 26.014099
166 0 1 -9.061408 -7.480204 25.506104
167 0 1 -8.262328 -7.653002 26.052490
168 0 1 -8.396218 -8.399203 26.672791
169 0 1 -8.736318 -8.976703 25.945496
170 0 1 -9.254428 -8.629504 25.231598
171 0 1 -8.972348 -9.433904 24.829102
172 0 1 -8.654077 -10.348404 24.784302
173 0 1 -8.932157 -10.865204 25.588501
174 0 1 -8.061967 -11.419603 25.427887
175 0 1 -7.604898 -12.035903 24.817291
176 0 1 -7.014589 -12.305804 24.061890
177 0 1 -7.486139 -11.964604 23.286591
178 0 1 -7.290067 -12.874503 23.083710
179 0 1 -7.238508 -12.345803 22.162994
180 0 1 -6.553697 -11.771903 22.333801
181 0 1 -5.706907 -11.509105 22.636902
182 0 1 -5.087327 -10.779304 22.756897
183 0 1 -5.008419 -11.156204 21.901505
184 0 1 -5.918998 -10.768804 21.921295
185 0 1 -6.050357 -9.831704 21.905701
186 0 1 -6.310188 -9.431205 21.089203
187 0 1 -7.033727 -8.949504 21.505096
188 0 1 -7.124008 -8.021604 21.174408
189 0 1 -8.093787 -8.007104 21.139694
190 0 1 -8.085526 -8.384204 20.235901
191 0 1 -8.005567 -8.829904 19.305801
192 0 1 -7.932657 -9.462304 20.048492
193 0 1 -8.837007 -9.666604 20.402893
194 0 1 -9.144797 -10.019904 19.547501
195 0 1 -9.254527 -9.085803 19.637299
196 0 1 -9.197587 -9.146903 18.639893
197 0 1 -9.315396 -8.240304 18.377808
198 0 1 -9.052697 -8.313504 17.485107
199 0 1 -9.740928 -8.118503 16.893707
200 0 1 -9.048047 -8.661504 16.502396
201 0 1 -8.858747 -9.474105 16.118408
202 0 1 -8.651208 -9.965104 16.986694
203 0 1 -7.920457 -9.530004 16.486206
204 0 1 -7.432268 -9.700603 17.238297
205 0 1 -7.214548 -8.768004 17.471298
206 0 1 -7.538099 -8.372005 16.634903
207 0 1 -7.584589 -7.443102 16.643204
208 0 1 -7.749517 -6.550604 16.855408
209 0 1 -7.538167 -5.573905 16.743500
210 0 1 -7.323247 -4.744914 17.279800
211 0 1 -6.410848 -4.499163 17.498901
212 0 1 -6.601598 -5.388335 17.944092
213 0 1 -7.340047 -4.862082 18.325302
214 0 1 -7.509868 -4.343733 19.188293
215 0 1 -6.645198 -4.485043 19.643600
216 0 1 -6.564779 -5.122933 20.412994
217 0 1 -6.840648 -4.315543 20.811005
218 0 1 -7.797369 -4.310584 20.531403
219 0 1 -7.305498 -3.705874 19.918793
220 0 1 -6.608499 -3.084673 20.194199
221 0 1 -5.647209 -3.121832 20.001007
222 0 1 -4.734468 -3.463442 20.379105
223 0 1 -5.298229 -2.946843 20.932404
224 0 1 -5.668968 -2.484644 21.757599
225 0 1 -4.839807 -2.901064 22.049606
226 0 1 -4.112379 -2.267243 21.941101
227 0 1 -3.455778 -2.463404 22.632111
228 0 1 -3.194189 -3.182414 22.118896
229 0 1 -2.752058 -3.821852 21.613892
230 0 1 -2.179201 -3.045693 21.775497
231 0 1 -1.628541 -3.324683 21.079605
232 0 1 -1.891868 -2.802084 20.277893
233 0 1 -2.348577 -3.617922 20.171692
234 0 1 -1.906539 -3.422194 19.356995
235 0 1 -1.420787 -3.541443 18.514694
236 0 1 -0.777715 -3.796774 17.900604
237 0 1 -0.243028 -3.930872 18.763596
238 0 1 -0.439428 -3.058173 18.923904
239 0 1 -0.074949 -2.973744 19.853394
240 0 1 0.791724 -2.422743 19.573105
241 0 1 1.069983 -3.058903 18.908401
242 0 1 0.925173 -3.238823 17.969894
243 0 1 1.124041 -4.083563 17.494003
244 0 1 0.661891 -4.581442 18.082001
245 0 1 0.765212 -5.363123 18.598694
246 0 1 1.697932 -5.500603 18.565796
247 0 1 2.400794 -5.981604 18.068604
248 0 1 2.419791 -6.892804 18.374802
249 0 1 2.446322 -7.720404 18.804901
250 0 1 3.156031 -7.889704 18.264694
251 0 1 3.278643 -8.642804 18.878799
252 0 1 3.668150 -9.308404 18.346100
253 0 1 3.643900 -9.895604 17.599792
254 0 1 4.346251 -10.269904 17.159393
255 0 1 5.004961 -10.597604 17.854599
256 0 1 5.639933 -10.053803 18.354202
257 0 1 6.458994 -9.627704 18.628296
258 0 1 7.297812 -9.653104 18.241898
259 0 1 7.788760 -10.089804 17.549103
260 0 1 8.681712 -10.040904 17.343094
261 0 1 9.344913 -9.494304 17.686493
262 0 1 9.953914 -9.952804 18.261292
263 0 1 10.523711 -10.704904 18.447800
264 0 1 10.523913 -11.653705 18.039795
265 0 1 11.109614 -10.944004 17.632797
266 0 1 12.022410 -10.869803 17.447403
267 0 1 12.224113 -11.298704 16.615494
268 0 1 12.669513 -12.041604 17.012894
269 0 1 12.611213 -12.991303 16.941605
270 0 1 12.350814 -13.454804 16.157501
271 0 1 13.282512 -13.199704 15.775299
272 0 1 13.285014 -13.130303 14.835205
273 0 1 13.177814 -13.445704 13.915802
274 0 1 12.621512 -12.764705 13.407501
275 0 1 12.060512 -12.550204 14.138702
276 0 1 12.132915 -11.703504 14.563599
277 0 1 11.933414 -11.557803 13.607407
278 0 1 11.500415 -10.758404 13.364395
279 0 1 12.107413 -10.702404 14.143494
280 0 1 12.831813 -10.215804 13.853607
281 0 1 12.971110 -9.829904 14.728806
282 0 1 13.207713 -9.910003 15.719894
283 0 1 12.448215 -9.309505 15.549194
284 0 1 11.852912 -8.615603 15.602600
285 0 1 11.801013 -7.687203 15.384399
286 0 1 11.323314 -6.864804 15.199997
287 0 1 10.570712 -6.732302 14.565796
288 0 1 9.968310 -6.057604 14.320892
289 0 1 10.320514 -5.136115 14.129700
290 0 1 10.125415 -4.253165 14.470901
291 0 1 9.434314 -3.634253 14.817902
292 0 1 9.187114 -3.390704 13.951096
293 0 1 8.291301 -3.065524 13.974792
294 0 1 7.818911 -2.290814 14.464294
295 0 1 7.666384 -1.661213 15.157700
296 0 1 7.180232 -1.770064 16.030701
297 0 1 6.773043 -2.641783 15.735397
298 0 1 6.689372 -2.864844 16.609192
299 0 1 5.845744 -2.601883 16.968796
300 0 1 5.882132 -1.723183 17.332397
301 0 1 6.582880 -1.108374 17.547699
302 0 1 6.781024 -0.608702 18.381302
303 0 1 6.246733 -1.186253 18.892502
304 0 1 6.653761 -0.687563 19.621994
305 0 1 5.732783 -0.516613 19.913605
306 0 1 5.551760 -1.429783 20.045593
307 0 1 4.873812 -1.950093 20.358398
308 0 1 4.587843 -1.042944 20.570496
309 0 1 3.951361 -1.403994 19.971298
310 0 1 3.218451 -1.893942 20.496307
311 0 1 3.339522 -2.351023 19.696304
312 0 1 3.208384 -3.148264 20.218994
313 0 1 2.283961 -2.857794 20.626694
314 0 1 2.044653 -3.241534 21.456497
315 0 1 2.284121 -4.054804 20.962708
316 0 1 1.820693 -3.728873 20.245499
317 0 1 2.042613 -4.478003 19.728195
318 0 1 2.557551 -5.033864 20.384003
319 0 1 3.435412 -5.271174 20.124802
320 0 1 3.374804 -6.219103 20.031906
321 0 1 2.480593 -6.557303 20.031799
322 0 1 1.508414 -6.661402 20.261292
323 0 1 0.835051 -6.889403 20.829193
324 0 1 0.369631 -6.212504 21.490204
325 0 1 -0.412578 -5.865004 20.938995
326 0 1 -0.162866 -5.010222 21.306107
327 0 1 0.419921 -4.504073 21.830902
328 0 1 1.178622 -4.169302 22.261002
329 0 1 0.910613 -3.763583 23.016602
330 0 1 1.582484 -3.308983 23.510010
331 0 1 2.503710 -2.932024 23.834595
332 0 1 2.475974 -3.860064 24.097412
333 0 1 3.290053 -4.380053 24.327789
334 0 1 4.236472 -4.350194 24.229095
335 0 1 5.165881 -4.644463 24.401093
336 0 1 5.488101 -5.512904 24.568115
337 0 1 5.663542 -6.450305 24.755707
338 0 1 6.354014 -6.903502 25.162903
339 0 1 6.810874 -6.120303 25.507385
340 0 1 7.109251 -5.277224 25.041809
341 0 1 7.455832 -5.071475 25.887085
342 0 1 8.204021 -5.108584 26.501801
343 0 1 9.021613 -4.720593 26.380798
344 0 1 9.427913 -4.002364 25.938995
345 0 1 9.426112 -3.371163 25.173401
346 0 1 10.116214 -3.604125 24.454102
347 0 1 9.380412 -4.201624 24.389008
348 0 1 8.655612 -4.879874 24.308807
349 0 1 8.737613 -5.779704 23.859009
350 0 1 7.963042 -5.488404 23.334503
351 0 1 7.826563 -6.328204 22.766510
352 0 1 7.629870 -6.448603 21.839401
353 0 1 7.353144 -7.387703 21.868805
354 0 1 8.238704 -7.480303 21.595200
355 0 1 9.084712 -7.627104 21.154297
356 0 1 8.955413 -8.500304 20.922897
357 0 1 9.843612 -8.434505 21.243698
358 0 1 9.640613 -9.124305 20.537399
359 0 1 10.125712 -9.754905 21.125092
360 0 1 9.921012 -10.559504 21.599106
361 0 1 9.200313 -11.127704 21.919601
362 0 1 8.644610 -11.986104 21.874496
363 0 1 8.806613 -12.988904 21.954498
364 0 1 9.790011 -12.820104 21.902298
365 0 1 10.689311 -12.989903 22.030594
366 0 1 11.548713 -13.227904 22.442108
367 0 1 11.370711 -12.440804 22.923492
368 0 1 12.304313 -12.187003 22.725708
369 0 1 12.980815 -12.145204 23.459106
370 0 1 13.575614 -12.879804 23.478516
371 0 1 13.934314 -13.762504 23.165314
372 0 1 14.000812 -13.140405 22.449295
373 0 1 14.873912 -13.039804 22.733002
374 0 1 15.407611 -12.351604 22.315796
375 0 1 15.945811 -11.572703 22.635895
376 0 1 15.452510 -12.088603 23.291199
377 0 1 15.686915 -11.351704 23.895599
378 0 1 15.912913 -11.804803 24.691895
379 0 1 15.788310 -11.845904 25.680389
380 0 1 15.465812 -11.306404 26.438416
381 0 1 15.824813 -10.392704 26.148987
382 0 1 15.477511 -10.123303 25.250610
383 0 1 15.628810 -9.562604 24.498596
384 0 1 15.703513 -8.859704 25.191193
385 0 1 14.804313 -8.539804 25.236084
386 0 1 14.241912 -7.864604 24.927307
387 0 1 13.688514 -7.958704 25.696289
388 0 1 13.873614 -8.411704 26.495514
389 0 1 14.345515 -7.999203 27.247589
390 0 1 13.445613 -7.542002 27.069000
391 0 1 12.995513 -7.889502 27.891510
392 0 1 12.552012 -7.832602 28.717590
393 0 1 11.856212 -7.547602 29.372711
394 0 1 11.724711 -7.167304 28.537292
395 0 1 12.206412 -6.510403 29.113098
396 0 1 11.467113 -6.150803 28.580902
397 0 1 10.516612 -6.255103 28.182587
398 0 1 10.061511 -6.441403 27.390808
399 0 1 9.691112 -5.602805 27.566101
400 0 1 9.782611 -5.174284 28.449585
401 0 1 9.635913 -4.366244 27.894897
402 0 1 10.657214 -4.709113 27.699310
403 0 1 10.858314 -4.038302 28.398895
404 0 1 10.194011 -3.418093 28.749695
405 0 1 10.781711 -2.681233 28.924591
406 0 1 11.096713 -1.849574 29.442688
407 0 1 11.413913 -0.981223 29.766785
408 0 1 11.750613 -0.219992 29.348206
409 0 1 11.704413 0.724016 29.091705
410 0 1 11.355212 1.591466 29.284088
411 0 1 12.052714 1.809408 29.972595
412 0 1 11.430812 1.811447 30.728607
413 0 1 11.799212 1.783576 31.594513
414 0 1 11.853911 1.088047 32.322906
415 0 1 12.114314 0.597267 31.526611
416 0 1 13.029414 0.969476 31.481384
417 0 1 12.971911 1.485746 32.275787
418 0 1 12.709212 2.373327 32.452606
419 0 1 13.265914 3.120117 32.902008
420 0 1 12.880713 3.999322 33.139893
421 0 1 13.112113 4.903165 33.257690
422 0 1 13.781112 5.443370 32.768188
423 0 1 13.593612 4.694255 32.166901
424 0 1 13.205913 4.258358 31.391693
425 0 1 12.568713 4.596307 30.807404
426 0 1 12.795413 4.444774 29.861206
427 0 1 11.958114 4.562864 29.358398
428 0 1 12.094413 4.920011 28.456696
429 0 1 11.418315 4.318288 28.260315
430 0 1 10.793513 4.771949 27.678192
431 0 1 11.689013 4.944976 27.486298
432 0 1 11.547912 5.275293 26.584503
433 0 1 10.721011 5.716907 26.332214
434 0 1 10.105712 5.387529 25.665405
435 0 1 9.736213 5.536546 24.764313
436 0 1 10.400210 6.178556 25.002014
437 0 1 11.101012 6.623685 25.355988
438 0 1 10.822513 7.415887 25.883087
439 0 1 10.394813 7.998285 25.300507
440 0 1 11.185012 8.595178 25.447815
441 0 1 11.317912 9.279557 26.161316
442 0 1 11.573413 8.796617 27.000916
443 0 1 12.076312 9.622125 27.064514
444 0 1 11.224113 9.956628 26.882111
445 0 1 10.694312 10.591687 26.396484
446 0 1 11.590915 10.929708 25.978607
447 0 1 12.278415 10.285558 25.927887
448 0 1 12.868411 10.931165 25.525696
449 0 1 13.089114 10.063478 25.088989
450 0 1 13.382712 9.214967 24.762207
451 0 1 13.059611 8.517377 25.272705
452 0 1 12.246715 8.633245 25.790894
453 0 1 12.184913 8.990335 24.872589
454 0 1 11.392215 9.318265 24.411987
455 0 1 10.690715 8.658425 24.482391
456 0 1 9.929614 8.047627 24.291992
457 0 1 9.599513 8.614625 23.530487
458 0 1 10.202914 7.955816 23.028412
459 0 1 10.606112 7.218118 22.629303
460 0 1 10.798915 7.059648 21.686905
461 0 1 10.942912 8.011765 21.776901
462 0 1 10.994914 8.773736 22.403397
463 0 1 11.710113 9.416066 22.398102
464 0 1 10.787013 9.819077 22.515015
465 0 1 9.950114 10.104466 22.153992
466 0 1 9.395015 10.705106 22.530090
467 0 1 9.621612 11.663255 22.427505
468 0 1 9.663913 12.477307 21.977692
469 0 1 9.301612 13.400617 21.960297
470 0 1 9.989314 14.137246 22.022308
471 0 1 9.906314 14.722295 21.268097
472 0 1 10.084514 15.259595 20.417496
473 0 1 10.959113 15.236695 20.061996
474 0 1 10.476710 14.534696 19.672104
475 0 1 11.422610 14.295526 19.665695
476 0 1 11.206511 14.600797 18.798798
477 0 1 10.464011 14.921597 18.240005
478 0 1 11.262111 14.700196 17.697495
479 0 1 11.328212 15.668397 17.595398
480 0 1 10.797412 16.011797 16.898193
481 0 1 10.632613 15.069894 16.882401
482 0 1 9.958114 14.578496 16.424301
483 0 1 10.262614 13.715528 16.187408
484 0 1 10.858012 13.709386 15.370895
485 0 1 11.000514 14.586198 14.994003
486 0 1 10.081012 14.680696 14.796799
487 0 1 9.131911 14.511537 15.061798
488 0 1 8.317122 14.569497 14.569901
489 0 1 7.832331 14.140897 13.818298
490 0 1 6.905253 14.360055 13.758102
491 0 1 6.458544 13.812776 14.388901
492 0 1 6.786292 13.480035 15.246094
493 0 1 6.880751 12.692056 15.812698
494 0 1 7.057520 12.158074 15.070404
495 0 1 6.461031 11.500245 15.444107
496 0 1 6.266852 10.679208 15.953903
497 0 1 6.426394 10.556256 14.957504
498 0 1 5.543940 10.421117 14.999298
499 0 1 5.642951 9.492246 15.229294
500 0 1 6.132651 8.701276 15.063400
501 0 1 6.867922 8.512788 14.404694
502 0 1 6.945910 7.859788 15.113602
503 0 1 7.310923 7.397367 15.845200
504 0 1 8.242072 7.406785 15.735596
505 0 1 8.754313 7.634317 14.969101
506 0 1 9.064212 8.146867 14.210098
507 0 1 8.575713 7.722917 13.452194
508 0 1 8.928615 6.968675 12.946106
509 0 1 7.994532 7.055727 12.950195
510 0 1 8.046901 6.589887 12.077698
511 0 1 8.025561 6.019536 12.836304
512 0 1 7.914443 5.327203 12.210495
513 0 1 7.033572 4.754430 12.288696
514 0 1 6.592772 5.550867 12.039200
515 0 1 6.126200 6.387357 11.830994
516 0 1 6.570223 7.139215 11.400406
517 0 1 7.271754 7.305326 10.780106
518 0 1 6.734492 7.731016 10.050507
519 0 1 5.837862 7.646886 9.825714
520 0 1 5.070643 7.087465 9.496643
521 0 1 5.071101 6.686449 8.680359
522 0 1 4.149092 6.672346 8.553574
523 0 1 3.547770 6.097387 8.070328
524 0 1 2.605303 5.825357 7.983201
525 0 1 2.468920 5.085411 8.623825
526 0 1 2.718962 4.292070 9.247177
527 0 1 2.387022 4.802639 10.118805
528 0 1 3.223200 4.329057 10.175705
529 0 1 4.190943 4.187820 10.093704
530 0 1 4.115141 3.333757 10.602097
531 0 1 4.460093 3.478687 11.496307
532 0 1 4.998393 2.698497 11.806198
533 0 1 4.149611 2.655996 12.239502
534 0 1 3.198954 2.726196 12.288696
535 0 1 3.035231 1.931777 12.807602
536 0 1 3.336363 1.042987 12.674194
537 0 1 3.100840 1.052507 13.617905
538 0 1 2.382273 0.996027 14.265198
539 0 1 1.546054 0.865266 13.686707
540 0 1 1.092494 0.467247 12.975006
541 0 1 2.027712 0.301977 12.731293
542 0 1 2.557562 0.743476 12.018799
543 0 1 2.172472 1.436277 11.515594
544 0 1 2.303744 2.348707 11.250198
545 0 1 1.438651 2.758806 11.397003
546 0 1 0.809832 3.478517 11.541992
547 0 1 0.439002 3.606182 12.463501
548 0 1 -0.192008 4.288402 12.551804
549 0 1 0.668101 4.740051 12.521698
550 0 1 1.534121 5.231632 12.562897
551 0 1 1.697623 6.127996 12.895004
552 0 1 1.534651 6.490938 13.767197
553 0 1 0.901194 6.964708 13.253601
554 0 1 1.320571 7.463586 14.043106
555 0 1 1.519244 7.050046 15.020996
556 0 1 1.542372 7.785837 15.634094
557 0 1 1.927432 8.415097 16.292603
558 0 1 2.185183 9.331197 16.341705
559 0 1 2.473223 10.237695 16.164703
560 0 1 3.220191 10.469357 16.684998
561 0 1 3.746661 11.144586 16.070297
562 0 1 3.936793 12.063958 16.384995
563 0 1 3.511683 12.407166 15.610504
564 0 1 2.894011 13.134248 15.767395
565 0 1 2.044642 13.515687 16.022995
566 0 1 1.954180 13.880677 16.934296
567 0 1 1.228640 14.165006 17.592407
568 0 1 0.836981 14.656896 16.851807
569 0 1 0.395274 15.608697 16.911804
570 0 1 -0.254709 16.259195 17.287094
571 0 1 -0.760726 16.695196 17.966797
572 0 1 -1.697311 16.492395 17.690308
573 0 1 -2.393579 17.145796 17.503204
574 0 1 -2.958438 17.725698 18.219208
575 0 1 -3.306448 18.387499 18.753799
576 0 1 -2.398069 18.519796 19.166702
577 0 1 -1.578618 18.286295 18.837204
578 0 1 -1.559715 19.144697 19.240204
579 0 1 -1.978626 20.019796 19.457703
580 0 1 -1.412822 20.656099 19.831299
581 0 1 -0.742652 20.196695 20.420593
582 0 1 -1.289104 19.697496 21.040695
583 0 1 -1.835292 19.093496 21.632401
584 0 1 -2.239313 19.916498 21.929306
585 0 1 -2.817838 19.617098 21.219803
586 0 1 -3.662467 20.046396 21.292801
587 0 1 -3.319198 20.084795 20.313004
588 0 1 -2.791559 20.916998 20.056900
589 0 1 -3.574378 21.608995 20.176392
590 0 1 -3.585937 22.376898 20.729492
591 0 1 -3.510587 23.230700 20.274292
592 0 1 -4.187377 23.832399 20.637405
593 0 1 -4.756307 24.543097 20.926895
594 0 1 -4.871988 23.776499 21.526199
595 0 1 -4.942548 24.500097 22.164597
596 0 1 -5.479167 25.162497 22.564514
597 0 1 -6.396669 25.617899 22.646484
598 0 1 -7.079128 26.043596 22.187195
599 0 1 -7.501647 25.218996 22.259399
600 0 1 -6.880579 24.686598 21.775803
601 0 1 -5.942638 24.674700 21.342499
602 0 1 -5.840307 23.739595 21.277008
603 0 1 -5.814878 22.721197 21.537003
604 0 1 -6.245359 22.533197 20.724197
605 0 1 -5.447717 22.430895 20.213806
606 0 1 -5.983327 22.550798 19.425293
607 0 1 -6.884778 22.393797 19.246201
608 0 1 -7.254808 22.197100 18.332092
609 0 1 -7.903478 22.232897 19.021698
610 0 1 -8.576547 21.802896 19.561905
611 0 1 -8.809657 21.109995 18.980103
612 0 1 -8.093087 20.668299 18.541794
613 0 1 -8.634337 20.167898 17.858994
614 0 1 -8.990438 19.301699 17.701797
615 0 1 -9.364917 18.713297 17.074600
616 0 1 -8.918998 18.900499 16.267792
617 0 1 -8.309457 18.391695 15.631607
618 0 1 -9.084958 17.944597 15.238800
619 0 1 -8.366017 17.266596 14.991608
620 0 1 -8.220317 16.541399 15.709198
621 0 1 -9.052957 16.214998 15.455200
622 0 1 -9.371137 15.849797 16.302307
623 0 1 -9.484008 14.866494 16.097000
624 0 1 -10.152778 14.212426 16.092300
625 0 1 -10.618546 13.881188 16.863297
626 0 1 -10.865848 14.879495 16.822998
627 0 1 -11.551578 14.647496 16.102402
628 0 1 -12.118888 14.635396 15.221695
629 0 1 -12.604487 13.839028 15.285004
630 0 1 -12.112489 13.056615 15.512695
631 0 1 -12.302186 12.568166 14.728699
632 0 1 -12.604987 11.725785 14.219803
633 0 1 -12.292989 11.239335 14.982101
634 0 1 -11.575427 11.805535 15.261902
635 0 1 -11.375909 11.565778 16.246796
636 0 1 -11.736588 10.843045 15.713303
637 0 1 -11.051877 10.145646 15.646103
638 0 1 -10.198478 10.027177 16.050293
639 0 1 -10.191247 9.408235 15.329697
640 0 1 -10.166207 8.878537 14.535400
641 0 1 -10.460858 8.817357 13.628998
642 0 1 -11.461648 8.621728 13.684998
643 0 1 -11.078069 7.780748 13.324707
644 0 1 -10.151467 7.567258 13.331802
645 0 1 -10.199798 6.543546 13.108093
646 0 1 -9.331668 6.401987 12.802200
647 0 1 -8.714368 5.688556 12.519592
648 0 1 -9.622006 5.623947 12.197098
649 0 1 -10.453359 5.907176 11.662903
650 0 1 -10.436406 4.870193 11.665894
651 0 1 -11.074637 4.364664 11.167999
652 0 1 -11.322717 5.290678 11.250000
653 0 1 -12.114287 5.476501 11.735992
654 0 1 -12.876388 5.998836 11.335999
655 0 1 -12.892587 5.867317 10.418594
656 0 1 -12.956887 6.847047 10.213898
657 0 1 -12.283387 7.013078 10.932907
658 0 1 -12.574388 6.985036 11.875198
659 0 1 -12.952287 6.706556 12.696503
660 0 1 -13.213887 5.814876 12.594208
661 0 1 -13.248689 5.528228 13.556198
662 0 1 -13.541688 6.395307 13.778595
663 0 1 -13.712087 7.094575 14.453995
664 0 1 -14.491387 7.685716 14.619202
665 0 1 -14.070687 7.613977 15.456497
666 0 1 -14.867988 7.427778 15.971695
667 0 1 -15.419787 8.037545 15.476700
668 0 1 -15.639386 8.767266 16.051697
669 0 1 -16.396988 9.226987 16.401306
670 0 1 -15.978587 10.082547 16.313705
671 0 1 -15.410188 9.625306 16.908005
672 0 1 -14.559487 9.378247 17.298096
673 0 1 -15.082088 8.580487 17.382294
674 0 1 -15.708087 8.117707 17.986298
675 0 1 -15.031789 8.405416 18.530502
676 0 1 -15.829888 8.972417 18.478302
677 0 1 -16.773687 8.630944 18.623108
678 0 1 -16.255188 8.453538 19.459106
679 0 1 -15.620288 8.702928 20.192001
680 0 1 -15.543286 7.806978 20.532501
681 0 1 -16.358387 7.585088 21.055603
682 0 1 -16.552387 6.903505 21.764297
683 0 1 -16.256289 6.409326 20.971802
684 0 1 -15.770886 6.156969 20.165405
685 0 1 -15.318189 5.283967 20.130203
686 0 1 -15.182387 5.324186 19.117401
687 0 1 -15.754987 4.546361 18.959702
688 0 1 -16.602287 4.898031 18.915192
689 0 1 -16.259687 5.628067 18.398300
690 0 1 -17.098288 6.033987 18.187195
691 0 1 -18.110088 6.106699 18.001694
692 0 1 -17.551989 6.099527 17.174500
693 0 1 -18.015388 6.166955 16.324997
694 0 1 -18.604088 6.706945 16.888092
695 0 1 -19.024889 7.298917 17.535995
696 0 1 -19.789789 7.131795 16.996704
697 0 1 -20.642389 7.183836 17.509399
698 0 1 -20.713188 6.256677 17.312698
699 0 1 -21.143789 6.251588 16.457001
700 0 1 -22.047388 6.600587 16.428802
701 0 1 -22.923288 6.767145 16.637894
702 0 1 -23.024889 7.120065 15.743500
703 0 1 -23.599289 7.026807 15.041000
704 0 1 -22.768188 7.400735 14.744202
705 0 1 -22.383789 6.585416 14.395798
706 0 1 -21.791689 7.171747 13.832199
707 0 1 -20.901888 7.485887 13.549500
708 0 1 -21.391489 6.840486 12.933899
709 0 1 -21.350388 5.968826 12.459198
710 0 1 -20.463188 5.734537 12.329895
711 0 1 -19.542988 5.856287 12.536194
712 0 1 -19.392889 4.852247 12.482605
713 0 1 -19.378788 4.047603 11.963806
714 0 1 -19.742887 3.482856 11.327805
715 0 1 -19.175188 3.036237 10.661102
716 0 1 -18.376888 2.593627 10.245605
717 0 1 -18.007988 3.308696 9.682281
718 0 1 -17.524488 2.585577 9.263138
719 0 1 -17.748688 1.765977 8.770416
720 0 1 -17.112587 1.043146 8.788513
721 0 1 -16.698788 1.693037 9.313278
722 0 1 -16.370089 2.545337 8.900803
723 0 1 -15.507787 2.271766 8.566483
724 0 1 -14.715688 2.723197 8.277328
725 0 1 -13.988788 3.012517 8.881302
726 0 1 -13.267587 2.645257 9.396149
727 0 1 -12.491487 2.234586 9.769653
728 0 1 -11.542497 2.171106 10.034698
729 0 1 -10.841268 1.692697 10.445694
730 0 1 -10.448808 2.574977 10.655792
731 0 1 -10.819638 3.166847 10.017105
732 0 1 -11.620587 3.447086 9.561584
733 0 1 -11.202466 4.270822 9.336945
734 0 1 -12.041287 4.692825 9.090332
735 0 1 -11.751786 5.052440 8.243683
736 0 1 -10.950307 5.155336 7.666611
737 0 1 -10.726027 4.956041 6.769349
738 0 1 -10.646958 5.830167 6.576584
739 0 1 -10.210837 6.396627 5.986054
740 0 1 -9.823407 6.720445 6.809098
741 0 1 -9.796746 7.375116 6.121109
742 0 1 -10.264306 8.205766 6.138794
743 0 1 -10.021527 8.885625 6.813538
744 0 1 -9.575578 8.302045 7.498368
745 0 1 -8.645097 8.023328 7.381363
746 0 1 -7.991579 8.712235 7.132676
747 0 1 -7.449178 9.365975 6.649460
748 0 1 -6.579408 9.457185 7.074677
749 0 1 -6.054338 9.743165 7.812745
750 0 1 -5.454988 10.378938 7.536103
751 0 1 -6.034498 10.428308 6.797745
752 0 1 -5.957548 11.184655 6.176056
753 0 1 -5.936487 12.110257 5.988862
754 0 1 -5.013319 12.297715 6.279496
755 0 1 -4.324218 12.852296 5.958054
756 0 1 -3.719799 13.592118 6.055268
757 0 1 -2.827207 13.988175 6.031907
758 0 1 -1.889425 13.949536 5.943741
759 0 1 -1.681638 13.104745 6.344803
760 0 1 -1.908090 13.060777 7.342728
761 0 1 -1.550842 13.580056 8.006516
762 0 1 -1.644313 12.585008 8.255981
763 0 1 -2.311653 12.479146 8.909714
764 0 1 -3.133398 12.693894 8.439194
765 0 1 -3.944728 12.183606 8.823059
766 0 1 -3.463977 12.135377 9.755646
767 0 1 -4.359188 12.369164 9.982574
768 0 1 -4.963327 13.190064 10.194901
769 0 1 -5.378929 13.350648 11.001495
770 0 1 -5.896627 12.623776 11.362793
771 0 1 -6.202148 12.467156 10.397797
772 0 1 -5.523128 12.491387 9.669647
773 0 1 -5.093837 11.811036 9.187759
774 0 1 -5.647989 11.533448 8.403824
775 0 1 -6.550317 11.431027 8.870712
776 0 1 -6.789188 12.307855 8.528885
777 0 1 -7.705497 12.364865 8.921555
778 0 1 -8.588178 12.678636 8.652252
779 0 1 -8.340648 12.086755 7.973343
780 0 1 -8.751107 12.475427 7.173279
781 0 1 -9.317677 11.688077 7.380448
782 0 1 -9.943307 11.963758 6.662323
783 0 1 -10.751119 12.492455 6.478898
784 0 1 -11.044467 13.425858 6.770905
785 0 1 -11.960889 13.644956 6.822464