LAMMPS data file via MDAnalysis

        2000  atoms
        1999  bonds
           0  angles
           0  dihedrals
           0  impropers

           1  atom types
           1  bond types
           0  angle types
           0  dihedral types
           0  improper types

-30.5 30.5 xlo xhi
-30.5 30.5 ylo yhi
-233.5 233.5 zlo zhi


Masses

1 1.000000

Atoms

1 0 1 -20.116365 -10.970998 41.945099
2 0 1 -19.633266 -10.368397 42.538696
3 0 1 -18.928967 -9.754898 42.657013
4 0 1 -18.915266 -9.345198 43.543884
5 0 1 -18.146866 -8.988398 43.074097
6 0 1 -17.725567 -9.835598 42.691406
7 0 1 -17.546366 -10.697798 42.333099
8 0 1 -18.151566 -10.979498 43.039703
9 0 1 -17.442266 -11.008597 43.682983
10 0 1 -16.906567 -11.334397 42.882904
11 0 1 -17.002066 -11.667097 41.968384
12 0 1 -16.098366 -11.321097 41.578308
13 0 1 -15.475266 -11.026897 40.904694
14 0 1 -15.044367 -10.388798 41.466797
15 0 1 -14.259166 -9.827297 41.570984
16 0 1 -13.369566 -9.742798 41.883301
17 0 1 -12.794365 -9.016499 42.287292
18 0 1 -12.899166 -8.155499 41.877808
19 0 1 -13.767366 -8.206299 41.597595
20 0 1 -14.665266 -7.908496 41.779205
21 0 1 -14.279466 -7.406398 42.479889
22 0 1 -14.949766 -7.254997 43.138184
23 0 1 -14.932865 -7.003597 44.034302
24 0 1 -15.167366 -6.202407 43.565308
25 0 1 -15.898365 -6.123378 44.097412
26 0 1 -16.804266 -6.435298 43.998901
27 0 1 -17.102467 -5.966468 44.779510
28 0 1 -17.442366 -5.109386 44.569794
29 0 1 -17.349365 -4.829267 43.668091
30 0 1 -17.195766 -3.944847 43.177002
31 0 1 -17.234266 -3.987037 42.218384
32 0 1 -17.739765 -3.488308 41.534302
33 0 1 -18.423466 -2.928108 41.341797
34 0 1 -18.871567 -3.724897 41.133301
35 0 1 -18.719366 -4.142318 41.977295
36 0 1 -18.922867 -4.227157 42.925201
37 0 1 -18.464666 -4.482177 43.703094
38 0 1 -18.069567 -4.109397 44.527710
39 0 1 -17.474867 -3.259086 44.610504
40 0 1 -17.679867 -3.456836 45.570404
41 0 1 -17.050165 -2.712978 45.802094
42 0 1 -17.414566 -1.973938 46.302307
43 0 1 -17.185266 -1.336437 45.570984
44 0 1 -16.476267 -0.632538 45.592102
45 0 1 -15.589367 -0.477176 45.188995
46 0 1 -15.774366 0.440293 45.327515
47 0 1 -16.418266 1.099993 45.611603
48 0 1 -15.650066 1.137263 46.138702
49 0 1 -15.939865 0.201742 46.348083
50 0 1 -16.278166 -0.168897 47.199310
51 0 1 -16.513765 -0.077297 48.178711
52 0 1 -16.923866 -0.213508 49.097992
53 0 1 -17.635366 -0.759708 49.397491
54 0 1 -18.451466 -1.203497 49.476685
55 0 1 -18.588766 -1.061576 48.522797
56 0 1 -17.923965 -1.751087 48.527008
57 0 1 -17.314865 -2.291437 49.014313
58 0 1 -16.371166 -2.196956 49.209290
59 0 1 -16.259966 -1.714187 48.392609
60 0 1 -15.499666 -1.153717 48.180511
61 0 1 -14.992167 -0.312607 48.028900
62 0 1 -14.075566 -0.137067 47.874695
63 0 1 -13.956866 0.156393 48.784210
64 0 1 -14.060566 0.520632 49.655487
65 0 1 -14.254866 1.454533 49.554596
66 0 1 -13.544566 1.465592 50.188416
67 0 1 -14.436766 1.288453 50.600403
68 0 1 -15.228765 0.753712 50.663208
69 0 1 -15.977066 0.837242 51.263702
70 0 1 -15.702967 1.741053 51.498413
71 0 1 -14.810066 1.731312 51.846191
72 0 1 -14.375866 1.565363 52.776306
73 0 1 -14.559166 0.600903 52.601501
74 0 1 -13.716066 0.499632 53.040802
75 0 1 -13.889866 1.135413 53.748505
76 0 1 -14.574665 1.341072 54.330811
77 0 1 -14.764767 2.212433 53.973907
78 0 1 -14.461466 2.811537 53.256104
79 0 1 -15.039267 3.384577 53.744110
80 0 1 -15.801765 3.901728 53.682312
81 0 1 -15.967667 3.543667 54.536499
82 0 1 -15.326666 3.584814 55.228088
83 0 1 -14.695967 4.338433 55.016113
84 0 1 -14.310766 4.231423 55.842194
85 0 1 -14.326566 5.050744 56.439209
86 0 1 -14.280066 4.877984 57.381195
87 0 1 -14.296566 3.892163 57.554108
88 0 1 -13.791366 3.103590 57.604187
89 0 1 -13.756966 2.971880 58.559601
90 0 1 -14.077566 2.050772 58.503113
91 0 1 -13.850166 1.195513 58.921509
92 0 1 -13.039066 0.762743 58.688812
93 0 1 -12.563465 0.329893 59.358887
94 0 1 -12.621067 -0.500477 58.881805
95 0 1 -13.162966 -0.609108 59.667694
96 0 1 -12.708866 -1.519037 59.910492
97 0 1 -12.500166 -2.433557 60.236511
98 0 1 -12.805065 -2.032238 61.067810
99 0 1 -13.460066 -1.728277 61.672211
100 0 1 -14.291266 -2.035747 61.914917
101 0 1 -14.993265 -1.860717 62.706604
102 0 1 -14.932066 -2.797088 62.892792
103 0 1 -14.073766 -2.660818 63.296997
104 0 1 -13.692566 -3.470068 63.686401
105 0 1 -12.798767 -3.765098 63.607910
106 0 1 -13.005165 -4.708316 63.451813
107 0 1 -13.578966 -5.483207 63.720093
108 0 1 -12.762165 -5.635078 64.213501
109 0 1 -12.084965 -6.102357 63.712189
110 0 1 -12.183666 -5.415088 63.064911
111 0 1 -11.393665 -5.507148 62.503784
112 0 1 -10.644766 -5.410837 61.871796
113 0 1 -10.850365 -6.343498 62.107605
114 0 1 -10.684666 -6.659597 61.228516
115 0 1 -10.061266 -6.040357 60.865204
116 0 1 -9.084965 -5.888917 60.758087
117 0 1 -8.271637 -5.616727 61.056885
118 0 1 -8.019115 -6.377697 61.474487
119 0 1 -8.111935 -7.217197 62.041809
120 0 1 -7.650185 -7.417297 62.896912
121 0 1 -7.086937 -8.164597 62.842407
122 0 1 -7.788715 -8.799896 62.885895
123 0 1 -8.440277 -8.185997 63.286194
124 0 1 -8.693565 -8.808998 64.057404
125 0 1 -7.883587 -8.473598 64.355896
126 0 1 -7.931536 -7.909997 65.180908
127 0 1 -8.136606 -7.873096 66.149597
128 0 1 -8.895466 -7.294498 66.305115
129 0 1 -9.372665 -6.501796 66.624390
130 0 1 -10.275066 -6.352697 66.881714
131 0 1 -10.550167 -7.262798 67.252594
132 0 1 -11.133965 -7.272998 68.000000
133 0 1 -10.738365 -8.075397 68.374908
134 0 1 -10.976166 -9.092098 68.389709
135 0 1 -10.033566 -8.956299 68.727295
136 0 1 -9.389666 -8.444098 68.156799
137 0 1 -9.292267 -7.593196 68.665009
138 0 1 -8.478867 -7.238296 68.240417
139 0 1 -8.634365 -6.635498 68.989197
140 0 1 -8.829966 -5.835197 69.621307
141 0 1 -8.566067 -4.906757 69.403992
142 0 1 -8.563465 -5.037687 70.391785
143 0 1 -8.586666 -5.056837 71.356506
144 0 1 -8.343216 -5.941066 71.125092
145 0 1 -8.968067 -6.586196 71.081482
146 0 1 -9.098267 -6.095327 71.951508
147 0 1 -8.543606 -6.591697 72.580017
148 0 1 -7.640575 -6.245758 72.471497
149 0 1 -6.742056 -5.922737 72.521210
150 0 1 -6.943665 -5.355266 73.281494
151 0 1 -7.934887 -5.362537 73.182892
152 0 1 -8.734467 -5.310207 73.689209
153 0 1 -9.365866 -4.624547 73.392090
154 0 1 -9.494667 -3.932478 74.099304
155 0 1 -9.744267 -3.471428 73.349487
156 0 1 -10.561066 -3.141977 73.805603
157 0 1 -11.038765 -2.282947 73.753601
158 0 1 -11.427765 -1.427547 73.534607
159 0 1 -11.114166 -1.074627 74.384705
160 0 1 -10.819767 -0.149458 74.416992
161 0 1 -11.494865 0.307253 73.904297
162 0 1 -11.427666 1.290993 73.683289
163 0 1 -10.955366 1.664233 72.937592
164 0 1 -11.148865 2.584263 73.120300
165 0 1 -11.816166 3.043104 73.663513
166 0 1 -12.311466 2.272534 74.139099
167 0 1 -13.044666 1.672003 74.483398
168 0 1 -13.234066 1.931513 73.548401
169 0 1 -13.369366 1.485922 72.647797
170 0 1 -14.230466 1.845103 72.717285
171 0 1 -14.944466 1.599533 72.264587
172 0 1 -15.760166 1.085614 72.247314
173 0 1 -15.463966 0.416962 72.911896
174 0 1 -15.418467 -0.012367 72.093506
175 0 1 -16.142666 -0.035837 71.455292
176 0 1 -16.265467 -0.706117 70.707703
177 0 1 -16.545166 0.216282 70.565399
178 0 1 -16.976767 0.878113 69.914398
179 0 1 -16.566566 0.366772 69.231018
180 0 1 -15.641066 0.718043 69.372314
181 0 1 -14.894066 1.289093 69.547913
182 0 1 -14.462466 2.057204 69.893616
183 0 1 -15.103765 2.705992 69.609711
184 0 1 -15.254967 2.827114 70.624817
185 0 1 -14.299266 2.897595 70.606689
186 0 1 -13.936266 3.712504 70.913086
187 0 1 -13.823866 4.351134 70.167603
188 0 1 -13.444166 3.603424 69.730194
189 0 1 -13.562966 3.486470 68.789490
190 0 1 -12.906967 3.849259 68.223602
191 0 1 -12.969765 4.184596 67.297394
192 0 1 -13.736266 4.381012 66.785217
193 0 1 -14.336366 5.064133 66.376099
194 0 1 -15.276167 5.084363 66.287415
195 0 1 -16.004766 4.930123 66.866699
196 0 1 -16.789967 5.489693 66.785400
197 0 1 -16.154266 6.336804 66.763611
198 0 1 -15.818066 5.989033 67.588318
199 0 1 -14.870466 5.750893 67.752594
200 0 1 -14.183266 6.089253 68.259216
201 0 1 -14.147266 6.992543 68.307617
202 0 1 -13.742966 7.903412 68.061401
203 0 1 -12.918966 7.509892 68.189606
204 0 1 -13.007465 7.152222 69.089111
205 0 1 -12.166065 6.813622 69.326202
206 0 1 -11.349865 6.453404 69.005188
207 0 1 -11.461166 6.352852 68.069305
208 0 1 -11.952566 5.666344 67.582397
209 0 1 -12.458065 6.336224 67.152008
210 0 1 -12.873367 6.180333 66.302612
211 0 1 -13.103065 6.993134 65.893890
212 0 1 -12.515966 7.561802 65.397003
213 0 1 -12.139366 8.317711 65.867615
214 0 1 -11.225666 8.663334 65.785706
215 0 1 -10.544466 8.332184 66.378998
216 0 1 -10.021767 9.129032 66.597809
217 0 1 -10.375366 9.578484 65.741394
218 0 1 -10.667366 9.567421 64.755310
219 0 1 -11.026266 9.018211 64.077606
220 0 1 -10.421967 9.817032 63.757599
221 0 1 -10.062166 9.379303 62.965088
222 0 1 -9.690666 8.626812 62.521484
223 0 1 -8.960266 7.993153 62.434387
224 0 1 -9.397465 7.209313 62.196899
225 0 1 -10.392765 6.995434 62.392700
226 0 1 -10.400066 6.533452 61.589691
227 0 1 -10.481766 5.600705 61.664612
228 0 1 -10.015366 5.318501 60.856384
229 0 1 -9.574066 4.488181 60.674805
230 0 1 -9.147966 3.832804 61.391998
231 0 1 -8.704966 3.463192 60.628113
232 0 1 -8.200207 3.364620 61.435699
233 0 1 -8.781466 2.531273 61.244690
234 0 1 -8.750565 1.653433 60.884491
235 0 1 -7.844156 2.100102 61.015686
236 0 1 -7.105495 1.883744 60.371002
237 0 1 -7.560715 1.092682 60.168610
238 0 1 -8.182747 1.195933 59.454895
239 0 1 -8.317547 0.282772 59.092194
240 0 1 -8.339825 -0.477527 58.567108
241 0 1 -7.609106 -1.132677 58.416016
242 0 1 -8.387287 -1.621658 58.027893
243 0 1 -7.907606 -1.457286 57.200592
244 0 1 -7.196556 -0.845287 57.123108
245 0 1 -6.522306 -0.566368 56.467712
246 0 1 -5.663237 -0.671858 56.797913
247 0 1 -4.743656 -0.917598 57.197906
248 0 1 -4.071556 -0.497898 57.837891
249 0 1 -3.881506 -0.284057 58.756714
250 0 1 -3.011967 -0.109317 58.432983
251 0 1 -2.863747 0.648003 57.827393
252 0 1 -2.579037 1.104523 58.609100
253 0 1 -2.230677 1.932633 58.826202
254 0 1 -2.226807 1.820923 57.928284
255 0 1 -2.350435 1.619383 56.932190
256 0 1 -2.127146 2.135702 56.129791
257 0 1 -1.652195 2.969290 56.083313
258 0 1 -0.842056 3.142494 55.562988
259 0 1 -0.476227 3.774935 54.973907
260 0 1 -0.675026 4.453072 55.671997
261 0 1 0.260624 4.740590 55.405090
262 0 1 0.314773 3.830597 55.786316
263 0 1 1.096468 3.290348 55.796387
264 0 1 1.490303 2.450653 56.155792
265 0 1 0.999363 2.032282 56.894989
266 0 1 0.863401 1.180422 57.391602
267 0 1 0.944214 0.473393 57.998291
268 0 1 0.782400 1.171543 58.618896
269 0 1 1.212751 1.247683 59.462799
270 0 1 1.982305 0.894244 60.096008
271 0 1 1.227159 0.520123 60.614288
272 0 1 1.824543 0.623503 61.411987
273 0 1 1.953657 1.407122 61.927307
274 0 1 1.110069 1.968663 61.705017
275 0 1 0.655901 1.516022 62.439301
276 0 1 0.966410 2.320063 62.842712
277 0 1 0.045513 2.289183 63.112915
278 0 1 0.058904 2.928932 63.842010
279 0 1 0.599897 3.520966 63.350311
280 0 1 1.235784 3.809567 62.762512
281 0 1 2.033451 3.419964 63.137604
282 0 1 2.192787 3.931038 63.915497
283 0 1 3.082195 3.666924 64.042297
284 0 1 2.930254 3.294562 64.887299
285 0 1 3.197284 2.501173 64.507812
286 0 1 2.392696 2.581663 63.972412
287 0 1 1.945694 2.385763 64.810211
288 0 1 1.378261 2.515492 65.624084
289 0 1 0.754030 2.846237 65.002106
290 0 1 0.065824 3.433880 65.438202
291 0 1 0.222315 3.867821 66.289795
292 0 1 -0.723005 4.006844 66.539398
293 0 1 -1.004456 4.873852 65.995300
294 0 1 -1.861796 4.563103 65.660583
295 0 1 -2.382296 5.065283 66.261810
296 0 1 -2.780836 5.477261 67.046906
297 0 1 -3.634106 5.209794 67.425781
298 0 1 -4.032055 6.016331 67.770386
299 0 1 -4.184196 6.855725 68.134491
300 0 1 -3.785076 6.574242 68.977112
301 0 1 -4.368055 5.746483 68.889801
302 0 1 -4.499556 5.736363 69.837402
303 0 1 -4.235886 4.822392 69.912598
304 0 1 -3.220406 4.987063 69.815186
305 0 1 -2.922535 4.056353 69.882202
306 0 1 -3.534466 4.111599 70.636597
307 0 1 -3.419997 4.164561 71.578186
308 0 1 -3.117077 4.954342 71.125183
309 0 1 -2.926655 5.609822 71.783508
310 0 1 -2.163496 5.844384 71.177094
311 0 1 -1.264647 6.113053 71.221191
312 0 1 -0.363356 6.252583 70.949005
313 0 1 0.503048 6.373131 71.351990
314 0 1 0.595184 7.288693 71.582703
315 0 1 1.333194 7.642292 71.141418
316 0 1 1.488502 8.645664 71.028503
317 0 1 1.879581 8.450001 70.195007
318 0 1 2.472734 9.167271 70.446503
319 0 1 3.045353 9.876343 70.278595
320 0 1 2.554483 10.519043 69.896210
321 0 1 2.404157 11.464104 69.776184
322 0 1 2.878534 11.389072 68.893494
323 0 1 2.449684 11.352722 68.005707
324 0 1 3.327175 10.897060 67.960602
325 0 1 2.772915 10.243092 68.350494
326 0 1 3.656082 9.904152 68.338501
327 0 1 3.787796 9.040562 68.632812
328 0 1 4.522232 9.275833 69.253693
329 0 1 5.386703 9.233440 68.742096
330 0 1 6.278233 9.490253 68.586395
331 0 1 6.583176 8.557693 68.515289
332 0 1 6.396084 8.267254 67.673889
333 0 1 6.396194 7.445954 68.121307
334 0 1 6.942795 7.302674 69.020691
335 0 1 7.282093 7.931744 69.618805
336 0 1 7.425945 7.055882 70.047699
337 0 1 7.982265 6.447373 69.477783
338 0 1 8.015663 5.602532 69.986908
339 0 1 8.582264 5.411885 70.725891
340 0 1 9.229282 5.880673 70.201202
341 0 1 8.797615 5.898972 69.284393
342 0 1 8.902393 6.758214 68.971313
343 0 1 9.828274 6.921433 69.125702
344 0 1 10.238483 7.696972 69.455994
345 0 1 10.903442 7.890202 68.760895
346 0 1 11.861233 7.749413 68.567596
347 0 1 12.567436 8.287731 68.169189
348 0 1 12.539234 8.890461 67.438110
349 0 1 13.437836 9.034401 67.213989
350 0 1 13.588734 8.207684 67.677307
351 0 1 13.806534 7.206402 67.787201
352 0 1 14.372734 7.308121 67.031097
353 0 1 13.699833 7.378811 66.289307
354 0 1 13.310432 6.901104 65.516205
355 0 1 12.760334 7.515133 66.051605
356 0 1 12.486034 7.696003 65.199005
357 0 1 12.143833 7.553544 64.246399
358 0 1 12.136833 6.681504 63.793884
359 0 1 11.424343 6.009923 63.708588
360 0 1 10.562904 6.247624 64.010498
361 0 1 10.007435 5.556263 63.685486
362 0 1 9.646416 4.918133 63.148010
363 0 1 10.293953 5.503312 62.666016
364 0 1 10.368073 4.726557 62.045502
365 0 1 9.633163 4.687373 61.455109
366 0 1 10.274803 3.924372 61.434814
367 0 1 10.935066 3.278786 61.392395
368 0 1 11.738235 3.776697 61.113190
369 0 1 11.383446 3.185663 60.473083
370 0 1 10.912163 3.853873 59.987488
371 0 1 10.350494 4.541863 60.397217
372 0 1 10.159893 5.077902 59.626007
373 0 1 9.922752 4.234145 59.087585
374 0 1 10.488686 4.632872 58.482391
375 0 1 10.992012 3.836668 58.517303
376 0 1 11.677933 3.226311 58.273315
377 0 1 11.626335 2.736714 59.067413
378 0 1 11.084003 2.013603 59.549713
379 0 1 10.471924 2.107533 58.769989
380 0 1 9.584965 2.500023 58.908600
381 0 1 9.596165 2.493553 59.864197
382 0 1 8.683662 2.320612 59.643097
383 0 1 9.207325 1.489033 59.531891
384 0 1 8.472843 1.090823 59.102295
385 0 1 7.828476 1.007433 59.788910
386 0 1 7.649685 1.849062 59.352203
387 0 1 7.912636 1.827942 58.386597
388 0 1 8.610332 2.412043 58.130096
389 0 1 8.877773 2.525103 57.248413
390 0 1 9.645023 2.336064 57.803406
391 0 1 9.853565 3.127817 57.326202
392 0 1 10.108364 2.712992 56.502502
393 0 1 10.632935 3.319046 55.927795
394 0 1 10.246185 3.119784 55.031006
395 0 1 10.400673 2.958765 54.069000
396 0 1 9.938835 2.685513 53.163910
397 0 1 9.995304 3.379683 52.400208
398 0 1 10.789955 3.788227 51.962494
399 0 1 11.333263 4.366187 52.540283
400 0 1 11.391155 5.404004 52.677094
401 0 1 11.287262 5.404633 53.612213
402 0 1 11.897835 5.976162 54.098083
403 0 1 12.603836 5.310112 53.997192
404 0 1 13.163334 4.738284 54.554413
405 0 1 14.063534 4.290226 54.829803
406 0 1 14.938633 3.984019 54.460907
407 0 1 15.654335 4.600457 54.247894
408 0 1 16.032635 4.959584 53.417114
409 0 1 16.706535 4.517081 53.000183
410 0 1 16.231934 3.947230 52.379608
411 0 1 17.091736 3.917799 51.933502
412 0 1 17.583832 3.475806 51.245605
413 0 1 17.403133 3.179590 50.302094
414 0 1 16.817734 2.822840 49.706787
415 0 1 16.471832 2.370432 50.592499
416 0 1 15.717735 1.871394 50.216309
417 0 1 15.794334 1.049464 50.786591
418 0 1 14.981232 0.404753 50.726990
419 0 1 15.644634 0.005562 50.178589
420 0 1 15.508434 -0.491737 51.011108
421 0 1 15.098034 -1.279197 50.611298
422 0 1 16.035534 -1.660137 50.580597
423 0 1 16.055634 -2.451517 50.039612
424 0 1 16.499035 -3.223297 50.476013
425 0 1 16.968834 -3.821628 51.055786
426 0 1 17.546635 -4.434757 50.662201
427 0 1 18.356434 -4.794036 50.319611
428 0 1 18.730534 -3.999517 50.638489
429 0 1 18.309734 -3.346748 50.067688
430 0 1 18.591034 -3.775327 49.240112
431 0 1 18.472534 -4.593477 48.729889
432 0 1 18.742035 -4.324247 47.768616
433 0 1 19.414833 -4.986917 48.059998
434 0 1 20.321732 -5.050758 47.545410
435 0 1 21.109234 -5.645067 47.720398
436 0 1 22.019035 -5.818107 47.700012
437 0 1 22.058037 -5.601936 48.722412
438 0 1 22.040733 -5.292457 49.645996
439 0 1 22.043236 -4.571247 50.225586
440 0 1 22.936432 -4.474967 50.554291
441 0 1 22.875732 -5.318748 51.041107
442 0 1 23.506432 -6.093547 51.355011
443 0 1 23.438034 -5.624717 52.240204
444 0 1 24.032433 -4.874017 52.007111
445 0 1 24.683434 -5.466827 51.594910
446 0 1 25.430336 -5.723056 51.079285
447 0 1 25.273335 -5.198116 50.308502
448 0 1 25.283733 -4.348258 50.678802
449 0 1 25.439034 -4.397506 51.672394
450 0 1 25.947235 -5.038427 52.237000
451 0 1 26.507034 -5.857986 52.151489
452 0 1 26.223831 -6.319698 51.385498
453 0 1 26.278336 -7.211498 51.187408
454 0 1 25.334133 -7.054698 51.556702
455 0 1 24.409233 -7.027397 51.730804
456 0 1 23.860634 -7.675598 52.174103
457 0 1 23.733234 -8.304497 52.949493
458 0 1 24.016335 -9.076298 52.464294
459 0 1 23.142036 -9.169897 52.045105
460 0 1 22.979836 -10.082098 51.907806
461 0 1 22.736435 -10.899797 51.493408
462 0 1 22.303135 -11.743797 51.568787
463 0 1 21.701836 -11.502398 50.811707
464 0 1 21.048233 -10.749098 51.057312
465 0 1 21.242836 -9.848997 50.770508
466 0 1 20.249931 -9.808998 50.833893
467 0 1 19.392834 -9.576698 50.520996
468 0 1 19.862633 -9.812897 49.735413
469 0 1 19.681633 -10.769998 49.853790
470 0 1 18.883034 -11.129598 50.241516
471 0 1 18.804234 -11.176898 49.252991
472 0 1 18.081833 -11.729097 49.493103
473 0 1 17.760536 -11.188098 50.211487
474 0 1 18.144333 -12.078197 50.526611
475 0 1 17.657936 -12.622498 51.114288
476 0 1 17.044033 -13.191298 50.592804
477 0 1 16.126236 -13.129597 51.056305
478 0 1 16.519234 -12.301098 51.479004
479 0 1 16.541733 -12.628397 52.486511
480 0 1 16.260033 -11.939298 53.152008
481 0 1 16.323532 -11.460897 54.013611
482 0 1 16.426434 -11.368298 54.945496
483 0 1 15.936432 -11.508098 55.789795
484 0 1 16.023434 -10.610598 55.968903
485 0 1 16.770134 -10.527199 55.393402
486 0 1 16.857735 -9.577198 55.488190
487 0 1 16.654934 -8.789898 54.973999
488 0 1 17.026134 -7.937496 54.671692
489 0 1 16.446133 -7.196796 54.971100
490 0 1 16.112732 -6.302196 55.139801
491 0 1 16.013134 -5.353008 54.875000
492 0 1 16.090633 -4.787616 54.007294
493 0 1 16.896133 -4.242967 54.032410
494 0 1 16.860832 -3.314258 54.288300
495 0 1 17.735634 -3.339218 53.994995
496 0 1 18.149635 -3.110597 54.839996
497 0 1 18.289833 -2.485857 54.076691
498 0 1 18.920834 -2.612007 53.361206
499 0 1 18.536533 -2.142248 52.619812
500 0 1 18.511536 -2.092746 51.663391
501 0 1 18.233234 -1.177436 51.538696
502 0 1 17.619434 -0.553177 51.852600
503 0 1 17.186432 0.265972 51.609985
504 0 1 17.961834 0.552052 51.138184
505 0 1 18.112034 0.993582 50.332886
506 0 1 18.290733 1.245043 49.343384
507 0 1 18.708237 1.686734 48.531708
508 0 1 18.003136 2.264384 48.600189
509 0 1 17.097435 2.476794 48.629395
510 0 1 16.869434 1.718912 48.056305
511 0 1 16.213634 1.328003 47.478302
512 0 1 15.731232 2.109692 47.233704
513 0 1 15.988235 2.906939 47.722992
514 0 1 15.749634 3.766094 48.013092
515 0 1 15.270435 3.935457 47.116302
516 0 1 14.489933 4.467246 46.919098
517 0 1 14.287636 3.638073 47.364594
518 0 1 14.632534 4.000201 48.202606
519 0 1 14.657635 4.585454 48.980194
520 0 1 14.649933 5.422772 49.374603
521 0 1 13.735035 5.788174 49.291595
522 0 1 13.086235 6.107522 48.697113
523 0 1 12.484932 5.328911 48.494507
524 0 1 13.443134 5.197623 48.328491
525 0 1 13.697334 5.225472 47.396088
526 0 1 13.465134 5.953114 46.863800
527 0 1 12.987236 6.810822 46.701691
528 0 1 12.987034 6.378052 45.878510
529 0 1 13.507835 5.703911 45.391296
530 0 1 13.508335 4.747626 45.721313
531 0 1 14.076233 5.006173 44.883911
532 0 1 13.205235 4.993002 44.449585
533 0 1 12.801334 5.553074 43.802185
534 0 1 11.947433 4.884694 43.686005
535 0 1 12.767334 4.841322 43.131989
536 0 1 13.417732 4.848732 42.384796
537 0 1 14.146534 5.224392 41.957611
538 0 1 14.748333 4.999873 41.240112
539 0 1 15.595833 4.497971 40.943207
540 0 1 16.018135 3.757452 41.201508
541 0 1 16.757332 3.104977 41.227600
542 0 1 16.749634 3.576662 40.345612
543 0 1 17.620232 3.439039 40.597809
544 0 1 17.469734 2.806921 39.905487
545 0 1 17.098934 2.736023 39.026489
546 0 1 16.885334 2.075493 38.397491
547 0 1 16.923935 2.950623 37.957886
548 0 1 17.222534 3.616738 37.337708
549 0 1 17.672733 2.778385 37.224915
550 0 1 18.543034 2.448872 37.055786
551 0 1 18.500435 3.207649 37.663696
552 0 1 18.104233 3.603403 38.467499
553 0 1 18.359135 3.526852 39.430603
554 0 1 19.010433 3.231318 38.726196
555 0 1 19.151932 2.691153 39.499817
556 0 1 19.644936 2.357394 40.305695
557 0 1 20.212936 1.755553 39.851410
558 0 1 19.382233 1.430973 39.407104
559 0 1 19.713734 0.998543 38.590210
560 0 1 20.338234 1.545163 38.084412
561 0 1 20.676735 2.250172 37.470703
562 0 1 21.440933 2.534292 36.896606
563 0 1 21.857235 2.507252 35.942993
564 0 1 22.707031 2.757454 36.432983
565 0 1 23.628632 2.581133 36.678406
566 0 1 23.698235 2.839865 35.794891
567 0 1 24.490635 3.220610 36.034485
568 0 1 25.166435 3.199558 35.387695
569 0 1 25.505531 2.766989 34.572998
570 0 1 25.812431 2.366204 33.712189
571 0 1 26.656631 2.842367 33.630096
572 0 1 27.361336 2.176712 33.979309
573 0 1 26.796333 1.654492 34.563904
574 0 1 26.077232 1.817482 35.162415
575 0 1 26.633034 1.875973 36.037598
576 0 1 26.744637 2.649893 36.540009
577 0 1 26.916336 3.527981 37.026794
578 0 1 26.933834 2.858706 37.722198
579 0 1 27.191334 1.934653 37.448395
580 0 1 28.120636 2.068302 37.661591
581 0 1 28.842434 1.441634 37.433807
582 0 1 29.450035 1.546852 36.717987
583 0 1 29.814835 0.911963 36.052795
584 0 1 30.649334 0.803612 35.510010
585 0 1 30.136635 0.076542 35.221405
586 0 1 29.604633 -0.540127 35.690613
587 0 1 28.923935 -1.166128 35.592010
588 0 1 28.079132 -1.161897 35.060913
589 0 1 27.887535 -2.032608 34.856995
590 0 1 28.615635 -2.690347 34.959991
591 0 1 29.300636 -2.222606 35.433197
592 0 1 29.091331 -1.710487 34.599609
593 0 1 29.622734 -2.353307 34.086487
594 0 1 28.724434 -2.363527 33.777008
595 0 1 28.397736 -1.866417 33.028992
596 0 1 28.705132 -1.374698 32.304291
597 0 1 29.366734 -0.623657 32.499603
598 0 1 29.623833 -0.537258 31.576813
599 0 1 28.790234 -0.105417 31.746399
600 0 1 28.219234 0.485932 31.212311
601 0 1 28.702435 0.542134 30.370087
602 0 1 28.599834 0.838522 29.434998
603 0 1 28.504433 1.662283 28.926605
604 0 1 28.717335 2.603022 28.697998
605 0 1 29.620834 2.808785 28.749695
606 0 1 29.819237 3.483515 28.065796
607 0 1 30.778633 3.604895 28.191193
608 0 1 30.501236 4.517724 28.188995
609 0 1 30.244034 5.210694 27.572510
610 0 1 29.857933 5.541272 26.787201
611 0 1 29.165634 6.072354 26.522400
612 0 1 28.546635 5.448563 25.905212
613 0 1 28.257935 4.887333 26.621490
614 0 1 27.277336 4.961613 26.790802
615 0 1 27.341232 5.263752 27.674988
616 0 1 26.827435 5.822781 28.335510
617 0 1 26.795036 6.743271 27.957306
618 0 1 26.476036 7.424325 28.500488
619 0 1 25.738033 7.498574 29.149200
620 0 1 24.878136 7.270394 28.706604
621 0 1 25.377731 6.509533 28.339905
622 0 1 24.890034 5.761944 28.447205
623 0 1 24.197533 5.405404 29.001404
624 0 1 23.727634 6.078644 28.386292
625 0 1 23.125134 6.458615 27.730103
626 0 1 22.889133 5.908871 27.066193
627 0 1 22.587334 6.595093 26.537811
628 0 1 23.557632 6.583851 26.447510
629 0 1 24.205933 7.240212 26.469788
630 0 1 24.756935 7.695672 25.652893
631 0 1 25.495434 8.311543 25.754395
632 0 1 25.844437 8.174213 24.848511
633 0 1 26.152634 8.811993 24.254608
634 0 1 26.684036 8.984871 23.475006
635 0 1 25.767937 8.800713 22.920288
636 0 1 24.984634 8.528152 22.354996
637 0 1 25.132332 8.010132 23.096802
638 0 1 25.242535 7.405964 22.412994
639 0 1 24.870537 7.102204 21.631699
640 0 1 23.962631 6.731781 21.427399
641 0 1 23.725433 5.924283 21.851303
642 0 1 23.397133 5.455285 21.049606
643 0 1 22.476532 5.278374 20.904404
644 0 1 22.191132 4.413310 21.254303
645 0 1 21.178535 4.294753 21.561707
646 0 1 20.724533 4.009690 20.798706
647 0 1 20.602734 4.983943 20.759308
648 0 1 20.392632 5.967934 21.117004
649 0 1 19.498932 5.976693 21.498108
650 0 1 18.955833 5.562241 20.807205
651 0 1 18.552132 6.391984 20.413803
652 0 1 17.723732 5.897065 20.102295
653 0 1 17.809235 5.225853 19.489105
654 0 1 16.919334 5.204342 19.151596
655 0 1 17.211735 5.715634 18.330399
656 0 1 16.817436 5.880845 17.481400
657 0 1 16.270935 6.638901 17.698792
658 0 1 16.796234 7.376355 17.374603
659 0 1 15.980335 7.921525 17.253403
660 0 1 16.204933 8.786934 17.104599
661 0 1 16.621334 9.235874 17.852203
662 0 1 16.684135 9.054413 18.839905
663 0 1 16.160934 9.900204 18.888199
664 0 1 15.462234 9.319832 19.271698
665 0 1 15.346436 9.334873 18.302597
666 0 1 14.773533 10.082314 18.543900
667 0 1 14.846535 10.868591 17.966797
668 0 1 15.516136 10.901363 18.661804
669 0 1 15.506435 11.909473 18.488800
670 0 1 16.375233 12.142490 18.667801
671 0 1 16.348434 11.607281 17.832001
672 0 1 17.090935 11.785763 17.187698
673 0 1 17.069233 11.057533 16.434494
674 0 1 16.660534 10.544464 15.750000
675 0 1 16.550735 11.035763 14.950699
676 0 1 17.317436 11.585842 14.819794
677 0 1 16.799934 12.195683 14.267105
678 0 1 17.534935 11.631104 13.901505
679 0 1 17.727135 10.842243 13.341904
680 0 1 18.064133 9.951832 13.671600
681 0 1 18.954033 9.560753 13.767807
682 0 1 18.504734 9.186771 14.519897
683 0 1 17.863033 8.823742 13.882004
684 0 1 17.038635 8.841591 14.386093
685 0 1 16.907635 7.933922 14.259705
686 0 1 16.145535 7.980763 13.665802
687 0 1 15.866234 8.777992 13.211792
688 0 1 15.048134 8.650600 12.770996
689 0 1 14.673733 7.814171 12.626801
690 0 1 13.712734 7.836033 12.713806
691 0 1 13.327633 8.093422 11.797501
692 0 1 12.432632 7.991654 11.525101
693 0 1 11.694435 8.554092 11.539795
694 0 1 12.131233 9.039593 10.897705
695 0 1 12.379532 8.508614 10.171692
696 0 1 12.159233 8.189713 9.277954
697 0 1 11.461334 7.505013 9.351868
698 0 1 11.045834 6.776722 8.863556
699 0 1 11.366344 6.729535 7.946823
700 0 1 11.215954 5.785473 8.004532
701 0 1 10.663193 5.054183 7.534225
702 0 1 10.195103 4.334433 8.003937
703 0 1 10.444744 3.842379 8.867035
704 0 1 10.082363 4.220555 9.688049
705 0 1 10.095264 5.188263 9.629242
706 0 1 9.997623 6.216584 9.739044
707 0 1 9.322773 6.493172 10.358505
708 0 1 9.443634 6.781792 11.275101
709 0 1 8.560562 7.229363 11.404602
710 0 1 7.802563 7.094365 10.823395
711 0 1 6.991592 7.190503 11.389206
712 0 1 6.220406 7.021882 10.887695
713 0 1 5.978344 6.780262 9.983704
714 0 1 5.612686 6.241131 10.658401
715 0 1 6.071445 5.287163 10.638702
716 0 1 5.978264 5.102732 11.571594
717 0 1 5.041794 5.184153 11.668198
718 0 1 5.084602 5.013823 12.559296
719 0 1 4.087456 5.273533 12.585999
720 0 1 4.271984 5.905312 13.284607
721 0 1 4.779835 5.895463 14.161194
722 0 1 4.836586 6.109723 15.112503
723 0 1 5.765045 5.890194 15.345901
724 0 1 6.070206 6.264672 14.473602
725 0 1 5.763676 7.134602 14.830200
726 0 1 5.160336 7.564324 15.550400
727 0 1 4.294323 7.914673 15.302307
728 0 1 4.446705 8.903393 15.332092
729 0 1 4.518345 8.856831 14.352600
730 0 1 4.214314 8.967651 13.449005
731 0 1 4.256233 8.267052 12.755295
732 0 1 4.795944 8.675201 12.092896
733 0 1 4.164444 9.337624 11.807098
734 0 1 3.704193 8.987823 11.030304
735 0 1 3.289215 9.869293 11.142105
736 0 1 2.770023 10.683834 11.112305
737 0 1 3.334366 11.343712 11.505600
738 0 1 4.193604 11.643654 11.886398
739 0 1 4.418694 10.827003 11.413208
740 0 1 5.109024 10.998623 10.739807
741 0 1 5.725033 10.334034 10.995895
742 0 1 6.563305 10.702091 10.607498
743 0 1 6.070793 11.378014 11.038803
744 0 1 7.008972 11.685131 10.961792
745 0 1 6.464073 12.452763 10.816498
746 0 1 6.021202 12.681892 9.901749
747 0 1 5.451523 12.738861 10.682297
748 0 1 5.114265 13.597221 10.738297
749 0 1 4.880634 14.073101 11.513092
750 0 1 4.577602 14.988804 11.529205
751 0 1 4.301643 15.002102 12.474197
752 0 1 3.422844 15.394100 12.443405
753 0 1 3.327892 15.901604 11.609604
754 0 1 2.906444 15.943401 10.776001
755 0 1 3.484726 15.633904 9.977875
756 0 1 4.116135 16.328403 9.762817
757 0 1 4.434944 17.210804 9.577087
758 0 1 5.365044 17.385803 9.405075
759 0 1 5.286724 16.474201 9.606491
760 0 1 5.948193 16.483105 8.955475
761 0 1 5.535786 16.520405 8.056732
762 0 1 4.577984 16.465504 8.099777
763 0 1 4.286724 17.351704 7.859268
764 0 1 5.101772 17.802402 7.888565
765 0 1 5.305134 18.371002 7.128464
766 0 1 5.549755 18.484501 6.171677
767 0 1 5.540573 17.801804 5.453613
768 0 1 5.597282 17.331402 6.269180
769 0 1 6.599594 17.235004 6.327927
770 0 1 6.630333 16.242001 6.402054
771 0 1 6.137905 16.451504 5.665817
772 0 1 6.526714 16.327801 4.760101
773 0 1 6.093872 16.210602 3.876816
774 0 1 5.784492 16.351604 2.934585
775 0 1 5.523445 15.495003 2.649017
776 0 1 5.211243 15.125301 3.538604
777 0 1 4.254642 14.996502 3.512893
778 0 1 4.526203 14.934402 2.572845
779 0 1 4.417034 13.984104 2.315552
780 0 1 4.966995 13.231731 2.588363
781 0 1 4.968822 12.485981 2.020965
782 0 1 5.067833 12.065952 1.142975
783 0 1 5.688683 11.650734 1.718979
784 0 1 6.276863 12.321102 2.134506
785 0 1 6.200424 12.939114 2.933761
786 0 1 5.449986 13.090214 3.541092
787 0 1 5.744663 13.928501 3.340408
788 0 1 5.452103 14.035702 4.289536
789 0 1 4.528362 13.988300 4.070404
790 0 1 4.512253 13.062405 4.259064
791 0 1 5.288315 12.599892 4.639465
792 0 1 6.042145 13.160873 4.764465
793 0 1 6.090153 13.658112 5.644974
794 0 1 5.958992 12.844963 6.018539
795 0 1 5.475815 12.587742 6.841904