LAMMPS data file via MDAnalysis

        2000  atoms
        1999  bonds
           0  angles
           0  dihedrals
           0  impropers

           1  atom types
           1  bond types
           0  angle types
           0  dihedral types
           0  improper types

-30.5 30.5 xlo xhi
-30.5 30.5 ylo yhi
-233.5 233.5 zlo zhi


Masses

1 1.000000

Atoms

1 0 1 -0.426043 21.117737 70.325897
2 0 1 -0.536439 20.195236 70.162415
3 0 1 0.062133 19.662437 69.610413
4 0 1 0.951064 19.657635 69.362793
5 0 1 1.550696 19.444035 68.566193
6 0 1 2.050475 19.541035 67.703613
7 0 1 2.226756 20.429237 67.466400
8 0 1 2.968493 20.033138 67.963409
9 0 1 3.592883 19.514339 67.482483
10 0 1 3.171653 18.629635 67.400696
11 0 1 3.780765 18.385838 68.120483
12 0 1 3.706336 17.536335 67.516296
13 0 1 4.042304 16.954739 68.228607
14 0 1 3.390685 16.345036 68.569397
15 0 1 3.310214 15.431938 68.341797
16 0 1 2.842185 15.299038 67.449310
17 0 1 2.192084 14.505238 67.391602
18 0 1 1.917846 13.652439 67.893799
19 0 1 1.301154 14.292736 68.393982
20 0 1 1.104884 14.446239 67.461792
21 0 1 0.387647 14.223637 66.805115
22 0 1 0.114154 13.888538 65.987915
23 0 1 -0.311602 14.663239 65.493591
24 0 1 -0.850125 13.924839 65.609589
25 0 1 -0.580022 13.062138 65.274200
26 0 1 -0.651822 13.115536 64.265106
27 0 1 -1.615775 13.134338 64.089905
28 0 1 -1.660975 13.762238 63.376495
29 0 1 -2.542665 13.832935 62.874207
30 0 1 -3.470635 14.031937 62.671997
31 0 1 -3.965625 14.808136 63.065186
32 0 1 -3.845586 15.293839 62.225189
33 0 1 -3.390815 16.176537 62.174713
34 0 1 -2.597835 16.177036 61.735199
35 0 1 -2.389424 15.409435 61.229797
36 0 1 -1.658675 15.822338 60.698303
37 0 1 -0.783645 16.031837 60.509491
38 0 1 -0.435466 15.917439 59.602692
39 0 1 -0.722072 16.844936 59.614288
40 0 1 -0.662368 17.097939 60.536713
41 0 1 0.063460 17.528538 60.117493
42 0 1 0.331630 17.298038 60.991302
43 0 1 0.455815 16.316738 60.679901
44 0 1 1.115865 15.947536 61.297089
45 0 1 0.600888 15.504536 61.981201
46 0 1 0.816955 14.623638 61.931213
47 0 1 0.924054 13.697136 62.052307
48 0 1 0.797586 13.829838 63.006805
49 0 1 1.673526 13.529236 63.287292
50 0 1 2.160636 13.034237 64.044983
51 0 1 1.653747 13.527237 64.721710
52 0 1 1.065515 13.077038 65.342194
53 0 1 1.700904 13.165138 66.052094
54 0 1 2.577964 13.597538 66.089600
55 0 1 3.238963 14.250938 65.976685
56 0 1 3.854754 14.780037 65.403809
57 0 1 4.089194 14.607937 64.468597
58 0 1 4.168845 14.644238 63.452606
59 0 1 3.789126 13.739838 63.793304
60 0 1 4.282886 12.960537 64.108398
61 0 1 5.077666 12.934635 63.556213
62 0 1 4.992595 11.984188 63.389313
63 0 1 4.959075 11.165977 63.865112
64 0 1 5.388877 10.603878 63.213287
65 0 1 6.272296 10.254009 63.283112
66 0 1 6.982764 10.762596 62.953003
67 0 1 7.765025 11.352356 63.273499
68 0 1 7.592593 11.092339 64.183594
69 0 1 8.377425 11.485916 64.606201
70 0 1 8.169486 11.055176 65.453491
71 0 1 8.184234 10.241177 65.898804
72 0 1 8.962256 10.249008 65.383484
73 0 1 9.549884 10.113586 66.083710
74 0 1 10.345756 9.978127 65.519409
75 0 1 10.507255 9.389946 66.337189
76 0 1 10.970054 10.211765 66.483215
77 0 1 11.127852 11.029446 66.901184
78 0 1 11.598155 10.850967 67.674591
79 0 1 12.196853 10.101238 67.779297
80 0 1 11.514853 9.993149 68.419708
81 0 1 10.985354 10.659916 68.876587
82 0 1 10.425857 9.966568 68.419006
83 0 1 9.784854 9.340519 68.010101
84 0 1 9.126513 8.661636 67.851105
85 0 1 9.339366 8.615257 68.798096
86 0 1 9.760764 7.724347 68.625610
87 0 1 10.351256 7.035729 68.356506
88 0 1 10.552154 6.173466 68.621887
89 0 1 11.350455 6.540307 68.145691
90 0 1 11.383353 6.615887 67.194794
91 0 1 12.238555 6.551919 67.681000
92 0 1 12.813857 7.052727 68.266907
93 0 1 13.729354 7.027489 67.996796
94 0 1 13.838054 6.481617 68.812592
95 0 1 13.832156 5.737477 68.177399
96 0 1 14.534453 6.214539 67.615906
97 0 1 15.031356 5.493989 67.283386
98 0 1 15.820655 5.439518 67.879303
99 0 1 16.315353 5.291478 67.007996
100 0 1 16.314957 6.265187 67.230103
101 0 1 16.629456 6.494168 68.097412
102 0 1 17.078056 5.604268 67.997192
103 0 1 17.002457 4.700726 67.908813
104 0 1 17.366455 3.897606 68.216003
105 0 1 17.034355 3.082360 67.889191
106 0 1 16.135353 3.330815 67.350494
107 0 1 15.601256 3.453848 68.065613
108 0 1 15.450953 2.544579 67.764801
109 0 1 15.834357 1.689923 67.724304
110 0 1 15.176154 1.431292 68.338898
111 0 1 15.151053 0.681588 69.014496
112 0 1 15.420653 0.103827 69.777802
113 0 1 15.044555 0.918358 69.987701
114 0 1 15.796855 0.728627 70.523102
115 0 1 14.963454 0.206147 70.721100
116 0 1 14.003955 0.203328 70.537598
117 0 1 13.648353 0.733368 69.815491
118 0 1 12.904254 0.939537 70.510193
119 0 1 12.694556 0.632418 69.682983
120 0 1 13.076156 -0.251943 69.868896
121 0 1 12.733554 -0.767543 70.629517
122 0 1 12.438556 -1.125702 69.748810
123 0 1 11.662856 -1.381183 70.315704
124 0 1 11.836555 -2.158952 70.890900
125 0 1 10.889155 -2.433853 71.161011
126 0 1 10.582953 -1.753093 70.571808
127 0 1 9.891253 -1.390493 69.990906
128 0 1 8.939734 -1.588623 70.171906
129 0 1 8.543216 -1.601102 69.225403
130 0 1 7.954776 -1.376543 69.902008
131 0 1 7.073016 -1.274143 69.520905
132 0 1 7.488666 -1.777403 68.700317
133 0 1 7.279113 -2.669992 69.018097
134 0 1 6.378386 -2.545063 69.271393
135 0 1 6.682296 -3.228343 69.888916
136 0 1 5.976073 -3.211643 70.595093
137 0 1 5.335784 -2.575843 71.007690
138 0 1 4.517043 -2.013103 71.024414
139 0 1 4.267745 -1.318283 71.642212
140 0 1 3.581954 -2.065893 71.530396
141 0 1 2.831386 -2.470953 70.997406
142 0 1 3.053454 -2.978153 71.841095
143 0 1 2.865813 -2.209962 72.400299
144 0 1 2.119987 -2.864273 72.083313
145 0 1 1.982234 -3.618713 72.745911
146 0 1 1.196235 -3.857433 73.223602
147 0 1 0.787734 -4.585002 73.783295
148 0 1 0.895925 -4.561653 74.691498
149 0 1 1.610915 -4.134212 75.263184
150 0 1 1.456786 -3.407833 74.682709
151 0 1 0.556844 -3.234672 74.836090
152 0 1 0.108661 -2.784242 74.100006
153 0 1 0.284751 -1.886901 73.857117
154 0 1 -0.615064 -2.066793 73.453094
155 0 1 -0.389003 -1.196403 73.370300
156 0 1 -0.239158 -0.750743 74.219788
157 0 1 -1.047536 -1.300642 74.171906
158 0 1 -1.679875 -0.634492 73.888702
159 0 1 -2.367755 -0.475273 74.540894
160 0 1 -2.740525 0.436968 74.307495
161 0 1 -2.469975 0.962977 73.525085
162 0 1 -2.968595 1.530566 74.269409
163 0 1 -3.960416 1.657591 74.317688
164 0 1 -3.959765 2.579485 74.746704
165 0 1 -4.505124 3.405198 74.692810
166 0 1 -3.603856 3.673958 74.649811
167 0 1 -3.210216 4.123990 75.364014
168 0 1 -2.515016 4.047429 74.717194
169 0 1 -2.585774 4.893277 74.288513
170 0 1 -1.981746 5.278576 73.614594
171 0 1 -2.010036 4.412869 73.306610
172 0 1 -1.890115 3.524897 72.964996
173 0 1 -1.148385 3.500187 73.623901
174 0 1 -0.338288 3.357447 73.153503
175 0 1 -0.249337 3.056143 72.254303
176 0 1 0.268575 2.644722 71.592407
177 0 1 0.737931 1.929430 72.153015
178 0 1 1.159095 1.096487 72.131409
179 0 1 1.591964 1.282198 71.251282
180 0 1 0.782285 0.879788 70.994904
181 0 1 0.005489 0.300427 71.234497
182 0 1 -0.336223 -0.576223 70.920898
183 0 1 0.097041 -1.337124 71.266785
184 0 1 -0.581759 -1.601093 71.993805
185 0 1 -0.946233 -2.403612 72.429810
186 0 1 -1.272975 -3.023292 71.720215
187 0 1 -1.956645 -3.554142 71.276703
188 0 1 -2.832524 -3.349332 70.924011
189 0 1 -2.750985 -2.363492 71.068390
190 0 1 -2.646445 -1.495021 70.626282
191 0 1 -2.506875 -2.049032 69.757111
192 0 1 -2.071015 -2.791343 70.332611
193 0 1 -1.581136 -3.041652 69.508789
194 0 1 -1.177560 -2.816682 68.615417
195 0 1 -0.878426 -2.091192 69.173798
196 0 1 -0.002566 -1.756961 69.359100
197 0 1 -0.277160 -0.875293 68.854706
198 0 1 0.292712 -1.121452 68.174194
199 0 1 -0.109645 -1.763023 67.587189
200 0 1 0.552461 -2.059682 66.962402
201 0 1 1.325126 -2.406473 66.630707
202 0 1 1.831206 -3.172443 66.300690
203 0 1 1.744445 -4.175703 66.300201
204 0 1 1.028165 -3.758672 65.925690
205 0 1 1.047235 -4.218732 65.129211
206 0 1 0.925914 -4.976081 65.662506
207 0 1 1.145064 -5.881511 65.317505
208 0 1 0.691815 -6.355873 64.659119
209 0 1 1.523234 -6.073944 64.320892
210 0 1 1.192115 -6.106163 63.427185
211 0 1 0.881885 -6.578273 62.606995
212 0 1 1.271615 -7.318773 62.080383
213 0 1 1.352496 -8.234863 62.473389
214 0 1 1.274945 -8.603363 61.620392
215 0 1 1.611476 -9.504263 61.546692
216 0 1 0.869914 -9.341663 62.113098
217 0 1 0.614686 -8.988064 63.000397
218 0 1 0.193475 -9.860563 62.860596
219 0 1 -0.732266 -9.524063 63.111694
220 0 1 -0.383450 -8.920763 63.788513
221 0 1 -0.662064 -8.426163 63.045197
222 0 1 -1.427935 -7.984561 63.309509
223 0 1 -1.992455 -7.417652 63.815796
224 0 1 -2.814694 -7.772462 63.548401
225 0 1 -3.389476 -7.815063 64.379303
226 0 1 -3.698674 -7.023813 63.919617
227 0 1 -4.038985 -7.083961 63.077789
228 0 1 -4.447425 -7.892562 62.639191
229 0 1 -4.882165 -8.504662 63.243896
230 0 1 -5.170396 -8.337463 64.104889
231 0 1 -5.705045 -9.123663 64.082886
232 0 1 -6.331944 -9.451664 64.788696
233 0 1 -5.892505 -8.680763 65.036896
234 0 1 -4.918866 -8.576462 65.166595
235 0 1 -4.431775 -7.737262 64.906403
236 0 1 -4.678596 -6.832382 64.844482
237 0 1 -4.896935 -6.077121 65.344299
238 0 1 -4.846105 -6.794612 65.899414
239 0 1 -3.873176 -6.668571 66.051910
240 0 1 -2.925576 -6.329662 66.214905
241 0 1 -2.881986 -6.281581 67.200409
242 0 1 -3.181636 -6.270483 68.041290
243 0 1 -3.270675 -6.547523 68.971985
244 0 1 -4.121285 -7.061481 68.900818
245 0 1 -4.931756 -6.902273 68.358093
246 0 1 -4.884086 -7.825462 68.226318
247 0 1 -5.243855 -8.383963 68.889282
248 0 1 -6.075845 -8.066763 69.282104
249 0 1 -7.050576 -8.289762 69.228210
250 0 1 -7.638055 -8.050064 68.535706
251 0 1 -7.939626 -8.151863 67.637390
252 0 1 -8.125846 -7.275531 67.998505
253 0 1 -8.576365 -6.528062 68.347198
254 0 1 -9.430684 -6.612861 68.679901
255 0 1 -9.859605 -6.741352 67.812805
256 0 1 -10.554746 -7.327774 68.089111
257 0 1 -10.942544 -6.533872 67.678101
258 0 1 -11.124545 -5.681102 67.272705
259 0 1 -10.428945 -5.132602 67.045715
260 0 1 -9.894975 -5.586862 67.684998
261 0 1 -9.589185 -5.425312 68.602905
262 0 1 -9.709336 -4.911592 69.359314
263 0 1 -9.239615 -3.991252 69.375092
264 0 1 -9.006656 -3.283422 68.809387
265 0 1 -8.848645 -2.518531 68.219208
266 0 1 -8.009475 -2.167812 68.390594
267 0 1 -7.623256 -1.303602 68.510406
268 0 1 -7.507485 -1.157442 69.460205
269 0 1 -7.442485 -2.075283 69.744598
270 0 1 -6.527425 -2.015502 69.588196
271 0 1 -5.911275 -1.581882 70.162689
272 0 1 -5.331185 -1.060222 70.655884
273 0 1 -4.753514 -0.974542 69.912994
274 0 1 -4.054036 -1.182472 69.313202
275 0 1 -3.745975 -1.120933 68.454407
276 0 1 -3.523305 -0.208263 68.143616
277 0 1 -4.218595 0.277337 67.652405
278 0 1 -4.436234 0.484097 66.769806
279 0 1 -3.937764 1.294398 66.841919
280 0 1 -3.456565 1.282858 65.946503
281 0 1 -3.027656 2.209715 65.972717
282 0 1 -2.866546 3.177462 65.699402
283 0 1 -2.580146 2.542449 65.065002
284 0 1 -2.347486 2.514506 64.154419
285 0 1 -2.773696 3.339005 64.538818
286 0 1 -3.051965 4.006089 63.882385
287 0 1 -2.022416 4.095116 63.997192
288 0 1 -1.064422 3.991059 63.933807
289 0 1 -0.905105 3.057885 64.243713
290 0 1 -1.045075 2.180899 63.746613
291 0 1 -0.304698 1.862389 63.196594
292 0 1 -0.196706 2.839907 63.127502
293 0 1 -0.506875 2.515490 62.253784
294 0 1 -0.840058 1.619662 62.338013
295 0 1 -0.458821 1.747761 61.441711
296 0 1 0.323981 1.336527 61.929413
297 0 1 1.159225 0.908268 62.091614
298 0 1 1.106095 1.646883 62.681885
299 0 1 1.703673 1.959351 63.363312
300 0 1 2.360873 1.485331 63.925995
301 0 1 2.758544 1.170147 64.708313
302 0 1 2.290305 1.875573 65.093201
303 0 1 2.157645 2.566384 65.737488
304 0 1 2.250663 3.531807 65.728210
305 0 1 3.104983 3.551007 65.226013
306 0 1 3.025905 4.582978 65.176697
307 0 1 3.987327 4.665719 65.112610
308 0 1 4.050673 5.332596 64.372894
309 0 1 4.045733 6.217816 64.910583
310 0 1 3.914954 6.356019 65.860718
311 0 1 3.198916 7.051987 65.821289
312 0 1 2.899894 6.289288 66.540192
313 0 1 1.957446 6.539029 66.508484
314 0 1 1.615813 5.916218 65.870209
315 0 1 0.679647 5.818539 65.439392
316 0 1 0.075580 5.335167 64.916199
317 0 1 -0.777764 5.822957 64.801605
318 0 1 -0.074729 6.480336 64.973816
319 0 1 0.132905 6.733098 65.868805
320 0 1 0.463723 7.595437 65.721893
321 0 1 0.975354 7.556298 66.534607
322 0 1 1.747226 7.802578 66.042206
323 0 1 1.777484 8.603386 66.583984
324 0 1 0.949945 9.011906 66.205902
325 0 1 0.257478 9.622269 66.470001
326 0 1 -0.230948 10.082996 65.650085
327 0 1 -0.394704 9.967487 64.730408
328 0 1 0.097762 9.179699 64.621216
329 0 1 0.903674 9.810535 64.467590
330 0 1 0.847285 9.387947 63.600098
331 0 1 1.457145 9.188236 62.865295
332 0 1 1.756847 8.431866 62.410706
333 0 1 0.787376 8.500599 62.257812
334 0 1 0.616405 7.631249 62.539093
335 0 1 0.270564 6.878788 62.080994
336 0 1 1.105994 6.543427 62.342712
337 0 1 1.932235 6.131577 62.099396
338 0 1 2.169066 6.637467 61.253906
339 0 1 2.674514 6.487137 60.446411
340 0 1 2.718024 6.837517 59.570312
341 0 1 2.313155 5.953446 59.294800
342 0 1 2.478423 5.039708 59.102203
343 0 1 2.717334 5.318997 58.180695
344 0 1 2.775405 6.233246 57.902893
345 0 1 2.670596 5.621399 57.114410
346 0 1 1.782714 5.357407 56.902496
347 0 1 1.958995 5.170426 55.985992
348 0 1 2.555724 4.461857 55.844696
349 0 1 3.373866 4.867836 55.412598
350 0 1 4.218856 4.537407 55.328308
351 0 1 5.172076 4.247696 55.370483
352 0 1 5.685294 4.546319 54.560608
353 0 1 5.049945 4.522927 53.769989
354 0 1 4.232383 4.941308 53.517883
355 0 1 3.322986 5.308297 53.785309
356 0 1 2.496676 4.889367 53.476013
357 0 1 1.825286 5.316647 52.933502
358 0 1 1.363486 5.632256 52.119507
359 0 1 0.395045 5.352757 52.095490
360 0 1 0.005702 6.189408 51.763489
361 0 1 -0.658133 6.808980 51.992401
362 0 1 -1.494725 6.763997 51.555206
363 0 1 -1.063702 6.869137 50.730896
364 0 1 -0.298032 7.235966 50.315399
365 0 1 0.061715 6.356289 49.999298
366 0 1 0.901284 6.535977 50.465790
367 0 1 1.779407 6.795517 50.697205
368 0 1 2.527926 6.321377 50.377594
369 0 1 1.740733 5.814606 50.143799
370 0 1 2.395896 5.877728 49.431610
371 0 1 1.520415 6.092309 49.099792
372 0 1 1.260434 5.658177 48.324188
373 0 1 1.163304 4.891316 48.817505
374 0 1 1.673675 4.083088 48.739105
375 0 1 2.123713 3.705678 49.423004
376 0 1 2.645194 3.222573 50.123993
377 0 1 2.159083 3.393637 50.973206
378 0 1 1.902026 2.421582 51.062897
379 0 1 1.419376 2.564040 51.955811
380 0 1 0.758329 2.117852 51.425293
381 0 1 0.848165 1.555006 52.217499
382 0 1 0.737785 1.916697 53.063995
383 0 1 1.338515 1.206208 53.294891
384 0 1 1.881866 0.464768 53.729309
385 0 1 1.545016 -0.244173 53.125000
386 0 1 1.673133 -0.890863 53.866608
387 0 1 0.853135 -1.166713 54.286407
388 0 1 0.388373 -1.659523 53.679810
389 0 1 0.263021 -2.398363 54.391785
390 0 1 0.292142 -2.496753 55.405212
391 0 1 -0.184400 -3.173954 55.848602
392 0 1 -0.158227 -3.080213 56.841614
393 0 1 -0.053887 -4.006793 56.566284
394 0 1 0.011140 -4.942173 56.849915
395 0 1 0.133281 -5.049263 55.893005
396 0 1 -0.326280 -4.372283 55.355988
397 0 1 -1.074118 -4.675193 55.908508
398 0 1 -1.647796 -4.428052 55.152710
399 0 1 -2.112655 -3.687171 54.744812
400 0 1 -2.967195 -4.065023 54.608795
401 0 1 -3.722665 -4.279262 55.061584
402 0 1 -4.304175 -4.111572 54.274292
403 0 1 -3.859555 -4.811843 53.830902
404 0 1 -2.934476 -5.020393 53.900604
405 0 1 -3.162065 -5.917072 53.969788
406 0 1 -3.486676 -6.443973 53.264709
407 0 1 -4.267955 -7.064804 53.084900
408 0 1 -4.711785 -6.431034 52.454895
409 0 1 -5.133185 -6.616832 51.539398
410 0 1 -5.562135 -7.034133 52.304810
411 0 1 -6.109065 -7.619632 51.819214
412 0 1 -6.592956 -7.234684 51.139404
413 0 1 -6.049516 -7.304763 50.349609
414 0 1 -5.293836 -7.833063 50.664917
415 0 1 -4.456704 -8.047062 50.208405
416 0 1 -3.601186 -8.568863 50.346893
417 0 1 -3.056926 -8.861963 49.590790
418 0 1 -3.505885 -8.584862 48.738403
419 0 1 -4.137305 -9.063562 48.081390
420 0 1 -4.021865 -9.739763 47.486389
421 0 1 -3.180526 -10.138462 47.227692
422 0 1 -2.269746 -10.103764 47.468384
423 0 1 -1.336736 -10.147963 47.306488
424 0 1 -0.983058 -9.453262 47.907288
425 0 1 -0.256591 -9.847063 47.365997
426 0 1 -0.145997 -10.606964 47.930115
427 0 1 -0.799529 -11.270061 48.056885
428 0 1 -1.221305 -11.700163 47.331116
429 0 1 -1.296666 -11.182163 46.545105
430 0 1 -0.349204 -11.025263 46.476685
431 0 1 -0.616940 -10.751663 45.575104
432 0 1 -0.934010 -9.905964 45.754211
433 0 1 -1.466096 -9.157661 46.103302
434 0 1 -1.575145 -8.902962 47.050415
435 0 1 -1.044164 -8.176863 47.278687
436 0 1 -0.190045 -8.382063 47.725189
437 0 1 0.589881 -8.481064 47.265808
438 0 1 0.793645 -8.354862 46.300507
439 0 1 1.249974 -9.231663 46.434387
440 0 1 1.589404 -8.977463 45.518890
441 0 1 1.949275 -9.483662 44.780396
442 0 1 2.723456 -9.979963 44.788086
443 0 1 2.762553 -10.803364 45.318207
444 0 1 3.056586 -11.549463 45.834503
445 0 1 2.077186 -11.703463 45.898804
446 0 1 2.665774 -12.177763 46.531494
447 0 1 2.484946 -12.867863 47.137909
448 0 1 1.715125 -12.315163 47.160706
449 0 1 1.204585 -11.968662 47.823914
450 0 1 0.447797 -12.499763 48.258789
451 0 1 1.011665 -12.326163 49.079102
452 0 1 1.966716 -12.160063 49.263702
453 0 1 1.798495 -13.072463 49.345490
454 0 1 1.366134 -13.116763 50.161316
455 0 1 1.582595 -12.566063 50.965088
456 0 1 0.880885 -12.960463 51.502197
457 0 1 -0.086961 -12.918863 51.543396
458 0 1 -0.120627 -12.118462 50.912415
459 0 1 -0.786107 -12.081062 51.548004
460 0 1 -1.436906 -11.323263 51.497314
461 0 1 -1.413085 -10.473963 51.975586
462 0 1 -0.546601 -10.821163 52.274414
463 0 1 -0.628978 -10.659863 53.245209
464 0 1 -0.791615 -11.537964 53.565094
465 0 1 -0.387698 -12.375063 53.579803
466 0 1 -0.738948 -13.256563 53.791412
467 0 1 -0.422736 -13.059963 54.687592
468 0 1 0.420383 -13.418563 54.414490
469 0 1 0.265025 -13.606563 55.359802
470 0 1 1.061216 -13.072863 55.630096
471 0 1 1.250945 -12.758263 54.737091
472 0 1 1.634364 -12.066963 54.157013
473 0 1 2.262305 -12.044163 53.437683
474 0 1 2.447696 -11.257462 52.959198
475 0 1 3.350776 -11.620064 52.605896
476 0 1 2.906215 -11.111263 51.950897
477 0 1 3.277755 -10.292164 52.415283
478 0 1 3.816825 -9.643661 52.027008
479 0 1 4.741126 -9.236963 52.020111
480 0 1 5.045245 -10.139063 51.994598
481 0 1 5.284625 -10.519863 52.869202
482 0 1 5.745963 -11.391563 53.024994
483 0 1 5.431136 -12.181063 52.639893
484 0 1 5.926795 -12.761963 52.019196
485 0 1 5.994895 -12.817963 51.045197
486 0 1 6.606616 -13.204463 50.443695
487 0 1 6.165435 -13.369663 49.571503
488 0 1 6.902396 -12.948163 49.252197
489 0 1 6.917594 -13.915564 49.089905
490 0 1 7.692367 -13.721163 48.443298
491 0 1 7.896945 -14.698763 48.244690
492 0 1 8.574103 -14.287962 47.802307
493 0 1 9.525764 -14.656862 48.009003
494 0 1 9.860953 -14.277063 48.791901
495 0 1 9.761546 -14.938864 49.505188
496 0 1 10.441253 -15.432062 49.938202
497 0 1 11.201156 -15.853563 50.375610
498 0 1 11.746955 -15.994062 51.144501
499 0 1 12.588355 -16.343662 51.338104
500 0 1 13.178756 -16.285763 52.082703
501 0 1 12.993255 -15.411364 52.459900
502 0 1 12.625155 -15.248663 53.321289
503 0 1 11.898555 -14.575163 53.441284
504 0 1 11.906257 -13.742462 53.843689
505 0 1 11.832053 -13.094563 54.506805
506 0 1 12.346854 -12.492863 55.126312
507 0 1 12.881854 -13.282662 55.056305
508 0 1 13.564254 -13.373863 54.428406
509 0 1 13.840854 -13.080763 55.292999
510 0 1 14.679854 -13.115963 54.852509
511 0 1 15.669356 -13.074063 54.801086
512 0 1 15.424155 -13.959263 55.160706
513 0 1 16.051456 -13.968563 55.898590
514 0 1 16.603958 -14.710163 55.483490
515 0 1 17.096954 -14.073463 54.850586
516 0 1 17.940956 -13.950163 54.213593
517 0 1 18.246155 -13.634363 53.359314
518 0 1 17.396454 -13.490463 52.890991
519 0 1 17.758957 -13.735262 52.045288
520 0 1 17.658058 -12.929263 51.620605
521 0 1 17.893856 -12.245663 50.955811
522 0 1 18.658958 -12.798963 50.617188
523 0 1 19.061256 -12.742463 49.829193
524 0 1 18.943356 -12.704863 48.878693
525 0 1 18.634457 -13.627163 49.033997
526 0 1 18.717857 -13.670563 48.065308
527 0 1 19.499557 -13.529363 47.477295
528 0 1 19.786655 -14.463863 47.628510
529 0 1 20.289455 -15.089563 48.083984
530 0 1 19.497253 -15.520863 47.721893
531 0 1 19.635555 -15.621464 46.786591
532 0 1 18.893856 -16.013363 46.365387
533 0 1 18.231758 -16.744062 46.297791
534 0 1 17.911255 -16.874863 47.220306
535 0 1 17.323555 -16.281363 47.640198
536 0 1 16.992958 -16.048563 46.764893
537 0 1 16.783157 -15.131662 47.048187
538 0 1 16.544556 -14.854662 46.218384
539 0 1 16.465057 -15.055464 45.282715
540 0 1 15.647353 -15.352562 45.006500
541 0 1 14.901954 -14.795464 44.705811
542 0 1 14.129157 -14.272062 44.957214
543 0 1 14.730857 -13.551563 44.710693
544 0 1 14.134955 -12.911162 44.325684
545 0 1 13.393554 -13.403663 44.564789
546 0 1 12.569053 -13.063063 44.323303
547 0 1 12.241855 -13.976263 44.366913
548 0 1 11.845855 -13.341863 44.988708
549 0 1 10.984656 -12.959863 45.077698
550 0 1 11.135653 -12.434663 45.845398
551 0 1 10.866652 -12.038963 46.655304
552 0 1 10.160754 -12.690463 46.595398
553 0 1 10.473254 -13.282463 47.315186
554 0 1 10.286555 -12.491363 47.852997
555 0 1 11.230254 -12.649962 48.107391
556 0 1 12.086356 -12.760163 47.629608
557 0 1 12.147353 -13.639563 47.982910
558 0 1 11.480453 -14.219162 47.550110
559 0 1 11.081454 -14.359364 46.704895
560 0 1 11.876555 -14.171164 46.124512
561 0 1 12.761954 -13.773064 46.061584
562 0 1 13.278754 -12.955263 46.324707
563 0 1 13.416053 -12.301863 45.684113
564 0 1 13.571155 -11.373163 45.507996
565 0 1 12.735255 -11.014362 45.997009
566 0 1 12.487357 -10.144764 45.525696
567 0 1 13.431655 -9.776962 45.362701
568 0 1 13.278556 -9.296162 44.553101
569 0 1 14.061355 -9.545162 44.033386
570 0 1 14.686454 -9.055563 44.595398
571 0 1 15.026454 -8.362963 43.999207
572 0 1 14.879455 -7.326023 43.829803
573 0 1 15.383655 -7.123394 44.688110
574 0 1 15.582656 -6.212951 44.519989
575 0 1 15.617553 -6.258392 43.588409
576 0 1 15.242854 -6.772064 42.869507
577 0 1 16.189758 -6.930992 42.626709
578 0 1 16.226055 -6.016883 42.182800
579 0 1 16.340755 -5.073482 41.995087
580 0 1 15.743655 -5.406023 41.383301
581 0 1 15.116157 -4.827672 40.798096
582 0 1 15.208354 -3.885532 40.728790
583 0 1 15.436656 -3.948183 39.829895
584 0 1 14.655555 -4.551052 39.849213
585 0 1 14.951655 -4.993522 39.080505
586 0 1 15.233253 -4.147613 38.577209
587 0 1 14.732654 -3.351932 38.485504
588 0 1 14.169456 -3.180282 37.762390
589 0 1 13.607757 -2.665843 38.382507
590 0 1 13.890357 -1.731514 38.253906
591 0 1 14.504355 -1.333303 37.614410
592 0 1 13.945952 -1.618322 36.826202
593 0 1 13.638953 -2.489473 37.043213
594 0 1 13.409755 -3.283512 36.623993
595 0 1 13.489856 -2.820953 35.676086
596 0 1 12.597556 -2.524662 35.316406
597 0 1 11.625052 -2.410432 35.310303
598 0 1 11.180457 -3.024532 35.931488
599 0 1 10.463653 -2.698963 35.288696
600 0 1 9.901454 -3.416183 34.789093
601 0 1 9.800155 -2.567943 34.346710
602 0 1 8.907043 -2.346702 33.992798
603 0 1 9.041915 -1.390882 34.046204
604 0 1 8.573886 -0.731182 34.510895
605 0 1 7.685985 -0.659082 34.654785
606 0 1 7.288363 0.167738 34.529907
607 0 1 7.083163 0.475958 35.484985
608 0 1 7.919864 1.032498 35.602997
609 0 1 8.420363 1.894278 35.808990
610 0 1 9.013064 2.417294 35.283600
611 0 1 9.240146 3.299420 34.995789
612 0 1 9.988955 2.674937 35.387085
613 0 1 10.364154 2.831345 34.520508
614 0 1 9.890254 2.372054 33.674500
615 0 1 10.007957 3.286812 33.363007
616 0 1 9.279586 2.969872 32.833893
617 0 1 8.503024 3.507838 33.129608
618 0 1 8.569903 4.324467 32.554688
619 0 1 9.421134 4.761826 32.676514
620 0 1 9.523726 5.609959 32.149292
621 0 1 8.721084 6.026059 31.811096
622 0 1 8.568664 5.196827 31.218811
623 0 1 8.707686 5.406987 30.323486
624 0 1 8.002433 5.393677 29.670105
625 0 1 8.726115 5.462018 28.970093
626 0 1 9.600204 5.050778 29.085114
627 0 1 10.043654 5.845757 29.521301
628 0 1 10.345756 6.692688 29.739807
629 0 1 9.374213 6.901539 29.898193
630 0 1 9.882957 7.772316 30.014191
631 0 1 9.074553 8.313686 30.120087
632 0 1 8.808097 7.682248 30.807404
633 0 1 8.388576 7.052067 30.133484
634 0 1 7.438113 7.267956 30.184998
635 0 1 7.247775 7.645619 31.005493
636 0 1 6.333426 7.290379 30.685486
637 0 1 6.287223 7.386319 29.723999
638 0 1 6.162494 8.307236 29.416687
639 0 1 5.851645 9.042297 28.919312
640 0 1 5.150096 9.574738 28.608887
641 0 1 4.240695 9.781116 28.291992
642 0 1 3.903514 8.959797 27.983704
643 0 1 4.765113 9.191666 27.524292
644 0 1 4.422065 8.601189 26.862091
645 0 1 5.247115 8.205906 26.499908
646 0 1 5.552966 8.326866 27.437988
647 0 1 6.469905 8.009647 27.227386
648 0 1 6.915076 7.194626 27.362213
649 0 1 7.238734 6.745759 28.203186
650 0 1 6.757335 6.034508 27.823395
651 0 1 7.741183 5.881276 27.799713
652 0 1 8.567733 6.381489 27.546295
653 0 1 9.097533 6.679478 26.810394
654 0 1 9.904754 7.193120 26.986298
655 0 1 9.590404 7.884636 26.441803
656 0 1 9.225043 8.218975 25.499298
657 0 1 9.705626 7.881989 24.722809
658 0 1 9.833255 8.879337 24.618408
659 0 1 10.044356 8.413036 23.846008
660 0 1 10.839454 8.037907 23.609497
661 0 1 11.115954 7.571259 22.780487
662 0 1 10.872657 6.763196 22.309097
663 0 1 10.516456 6.214726 21.539505
664 0 1 10.709353 5.241768 21.589996
665 0 1 9.822753 5.146687 21.979599
666 0 1 9.488364 4.318219 21.786102
667 0 1 8.829616 3.697567 21.583893
668 0 1 8.236136 4.188088 22.113998
669 0 1 7.383605 4.540596 22.396805
670 0 1 7.260383 4.323117 23.327087
671 0 1 7.583064 3.458869 23.358887
672 0 1 8.005084 3.823378 24.141785
673 0 1 8.192077 3.560778 25.098389
674 0 1 8.088725 2.639241 24.850708
675 0 1 7.902175 2.799284 25.772888
676 0 1 8.572165 1.964215 25.957886
677 0 1 9.087623 2.294316 26.718292
678 0 1 9.930655 1.861504 26.419800
679 0 1 10.149554 1.842867 25.488190
680 0 1 9.386573 1.889397 24.893616
681 0 1 9.984756 2.751370 24.883301
682 0 1 9.611213 3.465577 24.301788
683 0 1 9.119956 4.164986 24.787598
684 0 1 9.218596 4.192547 25.739288
685 0 1 8.948356 3.712687 26.551788
686 0 1 8.266875 4.223507 26.956787
687 0 1 7.848693 4.176518 27.834106
688 0 1 8.384673 3.663317 28.451813
689 0 1 8.043155 2.897961 28.019104
690 0 1 8.531867 2.136984 28.244202
691 0 1 8.488315 1.630440 27.379303
692 0 1 9.147414 0.923438 26.918610
693 0 1 8.688895 0.146527 27.425995
694 0 1 8.863563 -0.749122 27.467804
695 0 1 9.064963 -1.357683 28.177002
696 0 1 9.292495 -2.244941 27.980194
697 0 1 10.185454 -2.655532 28.396088
698 0 1 9.538154 -3.356153 28.149902
699 0 1 9.045634 -4.191993 27.979492
700 0 1 9.446715 -4.210302 28.841003
701 0 1 9.629455 -4.842662 29.554993
702 0 1 9.764594 -4.913492 30.514008
703 0 1 10.652354 -4.631942 30.096588
704 0 1 10.838653 -5.104583 29.242493
705 0 1 11.670554 -5.452182 29.615204
706 0 1 11.378955 -6.254581 29.173309
707 0 1 10.964953 -6.233451 28.322205
708 0 1 10.039756 -5.922943 28.563202
709 0 1 10.112357 -6.551754 29.331390
710 0 1 9.659396 -6.613643 30.195587
711 0 1 9.424235 -6.093132 30.934296
712 0 1 8.540755 -5.719772 30.883392
713 0 1 7.800746 -5.689672 31.589294
714 0 1 7.296065 -4.830642 31.622101
715 0 1 7.645385 -4.003942 31.886902
716 0 1 7.293593 -3.140182 32.305908
717 0 1 7.754653 -2.195922 32.322906
718 0 1 7.578956 -2.259841 31.416412
719 0 1 6.762465 -1.756012 31.247101
720 0 1 6.736007 -1.259422 32.122009
721 0 1 6.514564 -0.422752 31.893707
722 0 1 5.569175 -0.127973 31.901093
723 0 1 5.324195 -0.963703 32.406311
724 0 1 4.484305 -1.174312 31.981201
725 0 1 3.953383 -1.874193 32.262787
726 0 1 3.003783 -1.615982 32.446503
727 0 1 2.419826 -2.314363 32.531616
728 0 1 2.571185 -2.342983 33.416412
729 0 1 1.656825 -2.440652 33.612488
730 0 1 1.206966 -3.038692 34.196594
731 0 1 0.762160 -3.980432 34.300507
732 0 1 1.232696 -4.093223 33.417511
733 0 1 1.972846 -3.994333 34.019196
734 0 1 2.071036 -4.938503 33.958588
735 0 1 2.622523 -5.793972 33.836090
736 0 1 3.284316 -5.896102 34.518005
737 0 1 3.909945 -5.474042 33.897308
738 0 1 3.449336 -5.619941 33.069305
739 0 1 3.321395 -6.556903 32.879700
740 0 1 3.045806 -6.531463 31.967712
741 0 1 3.409526 -6.231891 31.123596
742 0 1 3.845473 -7.131473 31.019806
743 0 1 3.820876 -7.629182 30.204987
744 0 1 3.454825 -7.758064 29.295197
745 0 1 3.490005 -6.885433 29.523712
746 0 1 3.312995 -5.954603 29.577911
747 0 1 2.508105 -5.460342 29.338989
748 0 1 3.096946 -5.464801 28.606903
749 0 1 2.584476 -6.222602 28.225800
750 0 1 1.655536 -6.384521 28.364685
751 0 1 1.552066 -7.352851 28.524292
752 0 1 1.616885 -8.241962 28.337311
753 0 1 0.903895 -8.639664 27.816498
754 0 1 0.355661 -8.528164 26.996613
755 0 1 -0.309111 -9.116562 26.649689
756 0 1 -0.327411 -9.323763 25.697113
757 0 1 -0.955802 -10.022463 25.935211
758 0 1 -1.484244 -10.826363 25.581512
759 0 1 -0.736058 -11.241463 25.106903
760 0 1 -0.894591 -11.886463 25.848511
761 0 1 -0.629123 -12.752663 25.484314
762 0 1 -0.901561 -13.046863 26.424591
763 0 1 -0.806022 -14.003263 26.303314
764 0 1 -0.264945 -14.447662 26.924805
765 0 1 0.167632 -13.808764 27.507507
766 0 1 1.219884 -13.921562 27.697510
767 0 1 1.360805 -14.328262 28.506409
768 0 1 0.873916 -13.776762 29.104095
769 0 1 0.546481 -14.453962 29.704895
770 0 1 -0.171248 -14.831663 29.241913
771 0 1 -1.120904 -14.608664 29.154205
772 0 1 -1.997174 -15.093763 29.124390
773 0 1 -2.697995 -14.757362 29.723511
774 0 1 -2.176925 -13.997362 29.823303
775 0 1 -1.527594 -13.444563 30.195312
776 0 1 -2.416595 -12.885163 30.208099
777 0 1 -3.389016 -12.873563 30.256500
778 0 1 -4.203404 -12.547163 29.872589
779 0 1 -4.648076 -12.151063 29.152100
780 0 1 -4.266635 -12.385863 28.249786
781 0 1 -4.275414 -11.483963 27.883209
782 0 1 -4.880326 -11.011063 28.499908
783 0 1 -4.657784 -10.372162 27.826111
784 0 1 -3.908986 -9.973164 27.355499
785 0 1 -3.650084 -9.965763 26.400909
786 0 1 -3.843955 -9.783863 25.505310
787 0 1 -4.785645 -9.794863 25.382202
788 0 1 -5.217725 -9.425663 26.100586
789 0 1 -5.748115 -8.937862 25.449707
790 0 1 -6.467355 -9.317162 25.074310
791 0 1 -7.096805 -8.644463 25.272614
792 0 1 -7.939055 -9.107464 25.009308
793 0 1 -8.547585 -8.992764 24.215210
794 0 1 -8.016925 -9.136162 23.429199
795 0 1 -7.928685 -10.097363 23.220215