LAMMPS data file via MDAnalysis

        2000  atoms
        1999  bonds
           0  angles
           0  dihedrals
           0  impropers

           1  atom types
           1  bond types
           0  angle types
           0  dihedral types
           0  improper types

-30.5 30.5 xlo xhi
-30.5 30.5 ylo yhi
-233.5 233.5 zlo zhi


Masses

1 1.000000

Atoms

1 0 1 -28.415030 -5.657518 80.969696
2 0 1 -28.723530 -5.570629 81.907990
3 0 1 -28.453430 -6.520908 81.709290
4 0 1 -28.247129 -6.862607 80.826691
5 0 1 -27.999531 -7.672267 81.477783
6 0 1 -28.445730 -8.487598 81.321594
7 0 1 -29.205931 -8.926249 80.924408
8 0 1 -29.242929 -8.631138 80.056610
9 0 1 -29.395031 -9.528278 79.615997
10 0 1 -28.531530 -9.574820 79.958313
11 0 1 -27.736031 -9.923239 79.597595
12 0 1 -28.189831 -10.592949 79.041016
13 0 1 -28.875231 -10.384418 78.362091
14 0 1 -29.144831 -11.062819 79.063995
15 0 1 -29.751631 -11.549997 78.427795
16 0 1 -30.591631 -11.153738 78.115417
17 0 1 -30.686529 -11.514097 77.206390
18 0 1 -31.429529 -11.959679 77.649902
19 0 1 -31.673929 -11.104908 77.996094
20 0 1 -31.418030 -10.762468 78.883698
21 0 1 -32.233032 -10.762407 79.437805
22 0 1 -33.138432 -10.602789 79.707397
23 0 1 -33.101933 -9.742649 79.304108
24 0 1 -33.522530 -9.036768 79.825592
25 0 1 -33.320129 -8.673828 78.990601
26 0 1 -32.355930 -8.491138 79.179199
27 0 1 -31.762630 -9.174898 78.861908
28 0 1 -31.220930 -8.463999 79.220215
29 0 1 -30.926430 -8.199299 78.330292
30 0 1 -30.463230 -7.390749 78.454407
31 0 1 -30.095030 -6.683877 77.868591
32 0 1 -30.507530 -7.208047 77.176300
33 0 1 -29.621731 -6.921077 76.839417
34 0 1 -29.445030 -7.139879 75.954285
35 0 1 -29.206131 -6.456909 75.294708
36 0 1 -28.216431 -6.568708 75.270508
37 0 1 -27.551830 -7.245347 75.478790
38 0 1 -28.068430 -7.442169 76.220093
39 0 1 -28.224930 -8.026678 76.940796
40 0 1 -27.209730 -7.878088 76.682098
41 0 1 -26.801630 -8.612858 77.151489
42 0 1 -25.933729 -9.020338 77.114197
43 0 1 -25.364830 -8.258078 76.850800
44 0 1 -25.114731 -7.594478 77.499207
45 0 1 -25.674129 -6.997367 77.026093
46 0 1 -25.776331 -6.328098 77.640289
47 0 1 -26.682030 -6.349798 78.021393
48 0 1 -27.414431 -6.777168 78.443604
49 0 1 -28.110729 -6.222269 78.731506
50 0 1 -27.426229 -5.892627 79.374298
51 0 1 -26.790331 -6.266838 80.059296
52 0 1 -26.946030 -6.170679 81.029785
53 0 1 -26.869829 -5.889158 81.955200
54 0 1 -26.329929 -6.430528 82.557098
55 0 1 -25.996929 -5.581428 82.977783
56 0 1 -25.719830 -5.111408 83.709991
57 0 1 -25.701830 -4.266958 84.161102
58 0 1 -26.675930 -4.055669 84.157715
59 0 1 -26.728130 -4.385658 85.081909
60 0 1 -26.530230 -5.400157 84.993713
61 0 1 -26.281429 -5.609478 85.891113
62 0 1 -25.400431 -5.914148 86.267303
63 0 1 -24.858431 -6.798677 86.314087
64 0 1 -24.226030 -7.501848 86.065704
65 0 1 -24.628830 -8.071308 85.397217
66 0 1 -23.873329 -7.460878 85.200806
67 0 1 -23.403629 -8.180588 84.681885
68 0 1 -23.273331 -9.163448 84.773590
69 0 1 -23.265430 -10.105417 84.569794
70 0 1 -23.140030 -11.098867 84.770813
71 0 1 -22.812531 -11.827389 84.261200
72 0 1 -23.737230 -11.965078 83.854004
73 0 1 -24.322531 -12.702948 83.520203
74 0 1 -24.474930 -13.017469 82.595001
75 0 1 -25.407129 -12.834620 82.625610
76 0 1 -25.455231 -13.349798 83.433716
77 0 1 -26.305630 -13.266008 83.807312
78 0 1 -26.932030 -13.143698 84.585999
79 0 1 -27.087629 -12.606977 85.447205
80 0 1 -26.493731 -12.818548 86.158508
81 0 1 -25.926929 -12.786497 87.020905
82 0 1 -25.574030 -11.906889 87.020996
83 0 1 -24.849930 -12.229670 87.610291
84 0 1 -24.439131 -11.795877 88.449890
85 0 1 -23.728430 -11.132698 88.660889
86 0 1 -23.041830 -10.918098 89.313599
87 0 1 -23.604031 -10.143377 89.001099
88 0 1 -23.027929 -10.282339 88.198608
89 0 1 -22.657829 -9.730898 88.894287
90 0 1 -22.313730 -8.809618 88.858490
91 0 1 -22.175930 -8.119419 89.512085
92 0 1 -21.454430 -7.412958 89.616394
93 0 1 -20.931231 -6.584798 89.676819
94 0 1 -20.114330 -7.165187 89.762390
95 0 1 -19.968330 -6.631258 90.588196
96 0 1 -19.026430 -6.344398 90.609985
97 0 1 -19.396730 -6.255628 91.493805
98 0 1 -19.115829 -6.962047 92.042114
99 0 1 -18.141430 -7.035379 91.706696
100 0 1 -18.313129 -6.084648 91.840210
101 0 1 -18.349630 -5.533218 92.673706
102 0 1 -17.786331 -4.664646 92.589508
103 0 1 -16.965130 -4.558641 92.100708
104 0 1 -16.704830 -4.778047 91.221985
105 0 1 -16.150631 -5.295087 90.596313
106 0 1 -16.110931 -6.265548 90.703705
107 0 1 -16.568830 -6.509307 91.571198
108 0 1 -16.101030 -6.660928 92.347504
109 0 1 -15.409830 -7.036409 91.842712
110 0 1 -15.161331 -7.634468 92.536499
111 0 1 -14.924961 -8.002598 91.658081
112 0 1 -14.465221 -8.963928 91.528687
113 0 1 -13.924671 -9.836819 91.558807
114 0 1 -14.232550 -10.714849 91.947083
115 0 1 -13.889740 -11.633198 92.196503
116 0 1 -14.050240 -11.900377 91.322906
117 0 1 -14.246929 -12.282339 90.519806
118 0 1 -14.172220 -13.025618 89.849091
119 0 1 -13.508020 -13.660368 89.506714
120 0 1 -12.723360 -13.135260 89.480103
121 0 1 -12.549210 -14.092108 89.334991
122 0 1 -12.203369 -14.805408 88.723816
123 0 1 -11.472900 -14.458908 89.226318
124 0 1 -10.798481 -15.190908 89.234497
125 0 1 -10.893351 -15.233908 90.177094
126 0 1 -11.305180 -15.987608 90.539612
127 0 1 -10.856930 -16.805208 90.280518
128 0 1 -11.581020 -17.076509 89.661682
129 0 1 -11.974781 -16.909609 88.750305
130 0 1 -12.625641 -17.324408 88.084106
131 0 1 -13.461601 -16.842607 88.103516
132 0 1 -13.767689 -17.674608 87.707092
133 0 1 -13.364670 -18.377008 87.210083
134 0 1 -12.554991 -18.565708 86.777893
135 0 1 -12.307560 -19.396708 87.177399
136 0 1 -11.729881 -18.797308 87.679016
137 0 1 -11.912540 -17.890909 87.405609
138 0 1 -11.282351 -18.285109 86.820190
139 0 1 -10.539909 -18.431408 86.351105
140 0 1 -10.065161 -18.967909 85.678284
141 0 1 -9.194550 -18.563108 85.676086
142 0 1 -9.499710 -17.827509 85.117096
143 0 1 -8.644520 -17.404409 85.233398
144 0 1 -7.990980 -18.136908 85.156006
145 0 1 -7.075241 -18.110508 85.528900
146 0 1 -6.400410 -17.899809 86.201111
147 0 1 -6.054140 -17.098509 85.661194
148 0 1 -5.731583 -17.119509 84.794098
149 0 1 -6.262260 -17.760008 84.340607
150 0 1 -5.501165 -18.329208 84.152710
151 0 1 -5.031166 -19.127508 84.542999
152 0 1 -5.044788 -19.616508 83.615692
153 0 1 -5.438372 -18.985008 82.956696
154 0 1 -5.250679 -19.561607 82.210510
155 0 1 -6.094959 -19.330507 81.938507
156 0 1 -5.893940 -20.093508 81.376892
157 0 1 -5.815680 -20.948008 80.955688
158 0 1 -6.267130 -21.690708 80.421906
159 0 1 -6.837120 -21.977108 81.145905
160 0 1 -6.211620 -21.999109 81.896698
161 0 1 -6.406191 -22.775509 82.438904
162 0 1 -6.754681 -22.051208 83.023407
163 0 1 -7.356680 -21.849508 83.750183
164 0 1 -8.269011 -21.715208 83.622589
165 0 1 -8.180960 -22.532309 84.157898
166 0 1 -7.984369 -22.592709 85.139099
167 0 1 -7.094120 -22.240108 84.788696
168 0 1 -6.282459 -22.252909 85.314392
169 0 1 -5.854801 -21.715609 86.014496
170 0 1 -5.606806 -20.939108 86.533081
171 0 1 -4.706230 -20.738708 86.807190
172 0 1 -3.974300 -20.658508 86.264587
173 0 1 -3.923450 -21.654108 86.454285
174 0 1 -3.671089 -22.550308 86.019409
175 0 1 -4.286007 -23.257809 86.326599
176 0 1 -3.702930 -23.237009 87.086182
177 0 1 -4.121683 -23.667709 87.862793
178 0 1 -4.683481 -23.104309 88.576782
179 0 1 -4.823549 -22.297308 89.087311
180 0 1 -5.614988 -21.791809 88.732910
181 0 1 -6.028156 -22.525408 89.267303
182 0 1 -5.677279 -21.847208 89.781708
183 0 1 -5.193832 -21.758709 90.641205
184 0 1 -4.610720 -21.040108 90.721405
185 0 1 -3.872869 -21.599909 90.410309
186 0 1 -3.434978 -20.764109 90.082611
187 0 1 -3.555771 -20.714808 91.108704
188 0 1 -4.069618 -21.271809 91.648804
189 0 1 -3.356270 -21.408607 92.301910
190 0 1 -2.582020 -20.890009 91.833496
191 0 1 -1.898010 -20.729809 92.490692
192 0 1 -1.203171 -21.007109 91.947388
193 0 1 -0.773270 -21.684809 91.445801
194 0 1 0.100609 -22.185308 91.486694
195 0 1 0.663551 -21.512209 91.909210
196 0 1 1.223419 -22.067709 91.213989
197 0 1 1.858070 -21.393808 90.899200
198 0 1 2.202042 -21.387709 90.036896
199 0 1 3.079800 -21.122509 90.389587
200 0 1 3.593769 -20.560308 89.819794
201 0 1 4.008381 -20.037708 89.127106
202 0 1 4.128979 -20.700909 88.446808
203 0 1 4.667820 -20.005009 88.074097
204 0 1 4.840771 -19.499107 87.271790
205 0 1 5.087269 -19.984608 86.492096
206 0 1 5.758671 -19.310108 86.537598
207 0 1 5.258568 -18.553907 86.152191
208 0 1 4.660961 -18.724209 85.447601
209 0 1 3.854080 -19.207808 85.450806
210 0 1 4.089661 -19.654009 86.352783
211 0 1 3.130882 -19.402708 86.553101
212 0 1 2.245888 -19.287708 86.173218
213 0 1 2.270302 -18.231810 86.188995
214 0 1 1.523071 -18.194408 86.753784
215 0 1 0.980091 -18.273209 85.946503
216 0 1 0.449879 -17.723808 86.490417
217 0 1 0.108929 -18.524307 86.844391
218 0 1 0.294491 -19.405909 86.533691
219 0 1 -0.537781 -19.324007 85.999695
220 0 1 -1.338188 -18.816307 86.213318
221 0 1 -1.991421 -18.202509 86.418701
222 0 1 -2.255432 -17.357809 86.157196
223 0 1 -2.630341 -16.554609 85.562988
224 0 1 -3.585510 -16.271509 85.561096
225 0 1 -3.289082 -15.729609 84.832886
226 0 1 -3.096851 -16.266008 84.064911
227 0 1 -2.132839 -16.181108 84.265289
228 0 1 -1.221249 -16.146307 84.125183
229 0 1 -0.827629 -16.718708 83.394196
230 0 1 -0.210609 -16.028608 83.492493
231 0 1 0.225441 -16.779808 83.033997
232 0 1 0.936130 -16.935408 82.334717
233 0 1 1.476349 -16.876207 81.554993
234 0 1 2.173191 -16.643309 82.146790
235 0 1 2.754890 -17.440809 82.319611
236 0 1 3.669708 -17.293608 82.097198
237 0 1 3.502361 -16.621408 82.733582
238 0 1 4.064018 -16.177309 82.131500
239 0 1 4.402630 -15.879210 83.012695
240 0 1 5.236870 -16.174009 83.354187
241 0 1 5.932770 -16.753908 82.966797
242 0 1 5.590569 -17.665110 82.917694
243 0 1 6.151268 -18.370108 82.468689
244 0 1 6.985168 -18.566507 81.927795
245 0 1 7.099571 -17.723608 82.326691
246 0 1 6.818470 -16.821207 82.030304
247 0 1 6.221870 -17.257608 81.495483
248 0 1 6.742569 -16.879908 80.798096
249 0 1 6.009670 -16.264109 80.960205
250 0 1 6.153271 -16.539709 80.052185
251 0 1 6.551769 -15.658808 79.804382
252 0 1 6.324871 -15.967009 78.885101
253 0 1 6.512470 -15.198408 78.318604
254 0 1 6.198769 -14.625910 77.536499
255 0 1 6.399071 -13.745649 77.219116
256 0 1 7.121170 -13.245459 77.502808
257 0 1 7.151070 -12.284378 77.254883
258 0 1 6.685669 -12.124758 76.423218
259 0 1 6.985672 -12.379309 75.524506
260 0 1 7.458870 -13.093927 75.204498
261 0 1 7.782471 -12.688089 74.423401
262 0 1 7.061470 -13.117538 73.963898
263 0 1 7.057770 -12.371878 73.333191
264 0 1 6.106171 -12.394178 72.990601
265 0 1 5.934170 -11.478218 72.658508
266 0 1 5.197868 -11.400068 72.077606
267 0 1 4.720329 -11.637369 71.229706
268 0 1 5.291672 -11.830019 70.466003
269 0 1 6.182472 -12.087278 70.356995
270 0 1 6.583370 -11.593019 69.574219
271 0 1 5.747971 -11.034208 69.670715
272 0 1 6.202568 -10.158298 69.660492
273 0 1 7.060871 -10.596449 69.449890
274 0 1 7.262669 -10.147848 70.265686
275 0 1 8.163071 -10.373348 70.497009
276 0 1 8.293968 -10.174139 71.370483
277 0 1 9.037071 -10.821888 71.305389
278 0 1 9.814369 -10.416819 71.833405
279 0 1 9.846268 -9.631159 72.355011
280 0 1 9.935471 -8.913347 71.744385
281 0 1 9.460571 -8.693708 70.973511
282 0 1 9.128868 -7.949089 70.507507
283 0 1 8.979172 -7.653497 69.590210
284 0 1 9.348270 -7.004388 68.991516
285 0 1 10.186668 -7.047267 68.532104
286 0 1 11.094070 -7.185157 68.280701
287 0 1 11.765270 -7.804378 67.988403
288 0 1 12.567471 -7.432838 67.641693
289 0 1 12.791267 -7.462759 66.685089
290 0 1 12.211372 -8.200338 66.414093
291 0 1 11.747871 -8.441278 65.660706
292 0 1 11.656769 -9.002157 64.917511
293 0 1 12.068371 -8.562458 64.158600
294 0 1 12.169373 -8.474718 63.215515
295 0 1 11.441772 -7.905717 62.883209
296 0 1 11.721069 -7.425687 62.109497
297 0 1 12.377373 -6.834978 62.436707
298 0 1 13.124573 -7.362308 62.111298
299 0 1 13.525772 -8.082619 62.678589
300 0 1 14.069069 -7.806919 63.396606
301 0 1 15.001068 -8.309668 63.495789
302 0 1 14.985870 -8.200089 62.532990
303 0 1 15.106670 -8.564228 61.623810
304 0 1 15.159172 -9.361828 61.045807
305 0 1 15.175468 -10.153978 60.483704
306 0 1 14.776970 -10.072819 59.560486
307 0 1 14.488869 -10.891169 59.410187
308 0 1 14.696369 -10.723019 58.438293
309 0 1 13.745770 -10.813358 58.347504
310 0 1 13.059967 -10.116928 58.363098
311 0 1 12.331673 -9.535538 58.002899
312 0 1 11.487572 -9.590038 58.610504
313 0 1 11.178070 -8.680349 58.919495
314 0 1 11.465370 -9.197119 59.690887
315 0 1 10.489769 -9.117958 59.798492
316 0 1 10.665470 -9.776659 59.129211
317 0 1 10.191170 -10.542288 58.681213
318 0 1 9.415970 -10.803709 58.100586
319 0 1 9.286072 -9.979319 57.650696
320 0 1 8.433170 -10.235609 57.987213
321 0 1 8.426571 -10.855038 57.300415
322 0 1 7.534470 -11.136759 57.561401
323 0 1 7.067570 -11.953447 57.697205
324 0 1 7.268570 -12.398338 56.893494
325 0 1 7.874371 -12.535990 56.201111
326 0 1 7.356869 -11.661688 56.107208
327 0 1 6.929871 -10.894659 55.825989
328 0 1 6.353371 -10.776749 55.096985
329 0 1 5.604271 -10.178907 54.999084
330 0 1 5.331669 -9.228308 54.949097
331 0 1 4.929901 -9.275549 55.758301
332 0 1 3.923340 -9.106188 56.012604
333 0 1 3.002342 -9.358747 56.113586
334 0 1 2.678970 -9.980928 55.495300
335 0 1 2.060841 -9.369699 55.016602
336 0 1 1.610039 -8.556238 54.922485
337 0 1 2.028770 -7.706077 55.094391
338 0 1 1.948028 -7.615098 54.133911
339 0 1 1.467541 -7.279808 53.364014
340 0 1 0.579861 -7.013628 53.814087
341 0 1 0.647129 -6.908208 54.748291
342 0 1 0.309990 -6.731819 55.631409
343 0 1 -0.263409 -7.425619 55.218292
344 0 1 -0.668320 -8.254229 55.372009
345 0 1 -0.347221 -9.177359 55.434906
346 0 1 -1.157711 -9.359478 55.902008
347 0 1 -1.753922 -9.918888 56.398193
348 0 1 -1.193180 -10.626318 56.598694
349 0 1 -0.923279 -11.307459 56.066498
350 0 1 -1.270001 -12.206589 56.284485
351 0 1 -0.559811 -11.940840 56.862000
352 0 1 -0.499382 -11.539068 57.717987
353 0 1 0.208801 -11.585678 58.405487
354 0 1 -0.303570 -10.988888 59.003906
355 0 1 -0.303532 -10.276398 59.674011
356 0 1 -0.250881 -10.519739 60.639587
357 0 1 -0.399120 -11.363039 60.206390
358 0 1 -1.376228 -11.589819 59.934296
359 0 1 -2.350800 -11.376808 60.073486
360 0 1 -2.899231 -10.730179 59.562592
361 0 1 -2.906670 -10.314589 58.670990
362 0 1 -2.805859 -11.169739 58.342712
363 0 1 -2.000149 -11.605648 58.171204
364 0 1 -2.523529 -11.900028 57.394592
365 0 1 -3.395100 -11.503099 57.145599
366 0 1 -4.113918 -10.925978 57.125183
367 0 1 -4.917843 -11.334818 56.738586
368 0 1 -5.730196 -12.056429 56.582397
369 0 1 -6.067909 -12.857819 56.198914
370 0 1 -6.719240 -13.500648 56.417511
371 0 1 -6.737711 -13.672428 55.411102
372 0 1 -6.981050 -13.620447 54.532288
373 0 1 -6.089560 -13.827608 54.539398
374 0 1 -6.444870 -14.501509 53.997192
375 0 1 -6.866661 -15.391108 53.825989
376 0 1 -7.389580 -15.181808 52.999817
377 0 1 -7.750731 -14.494009 52.394989
378 0 1 -8.276461 -13.675367 52.692017
379 0 1 -8.460781 -13.118757 51.855408
380 0 1 -8.730961 -12.222788 52.108398
381 0 1 -7.972530 -12.064758 51.486206
382 0 1 -7.284019 -11.406828 51.388397
383 0 1 -6.833870 -11.319818 52.368988
384 0 1 -6.371059 -12.025549 51.747192
385 0 1 -6.534950 -12.785208 51.185608
386 0 1 -6.088581 -13.556578 50.916199
387 0 1 -5.347275 -14.044310 51.387207
388 0 1 -5.241386 -14.891508 50.985199
389 0 1 -5.376745 -14.397409 50.144501
390 0 1 -5.785469 -13.862309 49.422485
391 0 1 -5.573809 -14.698507 48.851105
392 0 1 -6.463659 -15.119009 49.042206
393 0 1 -6.708220 -14.633207 48.228607
394 0 1 -6.596590 -15.481308 47.734985
395 0 1 -7.263439 -15.996809 48.151794
396 0 1 -7.446550 -16.491407 47.323608
397 0 1 -6.588909 -17.038809 47.670898
398 0 1 -6.906820 -17.435308 46.884399
399 0 1 -6.157640 -18.020208 47.174011
400 0 1 -5.404446 -18.224209 47.695587
401 0 1 -4.728773 -17.529608 47.496490
402 0 1 -5.142704 -17.340609 46.657990
403 0 1 -5.732874 -16.733809 46.122101
404 0 1 -5.119272 -16.920109 45.415192
405 0 1 -4.205238 -16.881510 45.757202
406 0 1 -4.213928 -16.744308 44.863007
407 0 1 -3.362839 -17.076609 44.564514
408 0 1 -2.589989 -16.733007 44.068512
409 0 1 -1.776112 -16.833908 43.578888
410 0 1 -1.935059 -16.569609 42.653595
411 0 1 -2.518669 -15.885710 42.320801
412 0 1 -2.645161 -14.973808 42.031616
413 0 1 -3.425251 -15.141409 41.495605
414 0 1 -3.843210 -14.920008 40.649597
415 0 1 -4.555529 -14.424809 40.229004
416 0 1 -3.910200 -13.908308 39.818298
417 0 1 -3.634090 -14.025309 38.838287
418 0 1 -2.906879 -13.941710 39.451996
419 0 1 -3.219749 -14.854307 39.616302
420 0 1 -2.897141 -15.692209 39.573212
421 0 1 -2.408199 -16.491108 39.599609
422 0 1 -2.869331 -16.591108 40.480408
423 0 1 -3.019421 -17.350008 39.939301
424 0 1 -3.738121 -16.626808 40.097412
425 0 1 -4.483521 -16.181910 39.841003
426 0 1 -5.091152 -15.644009 40.313507
427 0 1 -5.838142 -15.762609 39.728607
428 0 1 -6.151220 -14.854809 39.585693
429 0 1 -5.523022 -14.084808 39.540283
430 0 1 -5.961687 -13.142868 39.617706
431 0 1 -6.025833 -12.257078 39.905792
432 0 1 -5.689770 -12.636629 40.749695
433 0 1 -5.725636 -12.567327 41.714508
434 0 1 -6.165171 -11.843969 42.170410
435 0 1 -6.938709 -12.021830 41.616211
436 0 1 -7.729040 -11.465219 41.760986
437 0 1 -7.538330 -10.785048 41.110596
438 0 1 -7.918400 -10.541258 40.260101
439 0 1 -8.252050 -10.733078 39.325287
440 0 1 -8.999990 -10.244368 39.669312
441 0 1 -9.402229 -10.965778 39.145599
442 0 1 -10.196180 -10.425188 39.452209
443 0 1 -10.806721 -11.042219 39.804596
444 0 1 -11.647240 -11.536499 39.942413
445 0 1 -12.616770 -11.812319 39.941498
446 0 1 -12.947500 -11.012838 39.471100
447 0 1 -13.750280 -10.671528 39.049316
448 0 1 -13.502979 -10.933107 38.154602
449 0 1 -14.055620 -11.756798 38.320312
450 0 1 -13.748810 -11.650818 37.365784
451 0 1 -12.828020 -11.781738 37.299896
452 0 1 -11.959961 -11.848299 37.073090
453 0 1 -11.925180 -12.390678 37.868591
454 0 1 -11.089170 -11.971437 38.194397
455 0 1 -10.872980 -12.486189 37.455017
456 0 1 -11.039211 -12.854517 36.571594
457 0 1 -10.449780 -13.546478 36.929016
458 0 1 -9.460880 -13.326319 37.080383
459 0 1 -8.700590 -13.296709 36.541595
460 0 1 -8.891340 -14.025507 35.958496
461 0 1 -9.854210 -14.309008 35.882599
462 0 1 -10.701960 -14.301809 36.349091
463 0 1 -11.670450 -14.450508 36.427094
464 0 1 -12.413391 -14.031008 36.146210
465 0 1 -13.283871 -13.766298 35.701691
466 0 1 -13.141491 -13.303349 36.546204
467 0 1 -14.024780 -13.215979 36.045197
468 0 1 -14.666870 -13.515808 35.447906
469 0 1 -15.353830 -13.998808 35.971497
470 0 1 -16.240631 -13.911207 36.303009
471 0 1 -16.390530 -13.077078 36.578400
472 0 1 -15.653330 -13.084648 37.157013
473 0 1 -15.234230 -13.936407 37.186401
474 0 1 -14.982090 -14.413710 37.995483
475 0 1 -15.858330 -14.868307 38.005615
476 0 1 -16.821129 -14.927908 37.820312
477 0 1 -17.623230 -15.262209 38.229889
478 0 1 -18.400730 -15.603109 38.634308
479 0 1 -19.268030 -16.018007 38.991913
480 0 1 -19.684931 -15.190508 39.181305
481 0 1 -19.830330 -14.446409 39.744202
482 0 1 -20.185831 -13.921408 40.493408
483 0 1 -21.069630 -14.389408 40.570099
484 0 1 -21.928530 -14.425207 40.942200
485 0 1 -22.309830 -14.224308 41.828613
486 0 1 -22.696831 -13.335279 41.724396
487 0 1 -23.404030 -14.020409 41.748810
488 0 1 -24.128031 -14.235008 41.054108
489 0 1 -24.969530 -13.675497 41.103912
490 0 1 -24.909330 -14.126509 41.959198
491 0 1 -25.650030 -14.682709 41.729401
492 0 1 -25.822229 -15.374807 42.368896
493 0 1 -26.243931 -16.154409 41.900391
494 0 1 -25.786530 -16.857708 41.359985
495 0 1 -25.658730 -16.007109 40.921204
496 0 1 -24.908030 -16.063009 41.427094
497 0 1 -24.048731 -16.169909 41.876892
498 0 1 -24.761129 -16.250809 42.544617
499 0 1 -24.678030 -16.883808 43.361084
500 0 1 -24.504330 -16.442709 44.235992
501 0 1 -25.240330 -15.816710 44.198395
502 0 1 -25.824430 -14.977509 44.292206
503 0 1 -26.557529 -14.951208 44.873505
504 0 1 -26.998930 -14.145807 45.161316
505 0 1 -26.348431 -13.752378 44.600189
506 0 1 -25.828730 -13.277399 45.147888
507 0 1 -26.558430 -12.839758 45.637299
508 0 1 -26.783630 -12.436487 46.531189
509 0 1 -27.344931 -11.758249 47.090790
510 0 1 -26.744829 -11.047539 47.365784
511 0 1 -26.965130 -10.594088 46.434998
512 0 1 -27.142130 -9.623739 46.051300
513 0 1 -26.622330 -8.812778 45.950989
514 0 1 -26.136530 -8.291779 45.332703
515 0 1 -26.431530 -8.177229 44.353394
516 0 1 -26.675730 -7.244009 44.551392
517 0 1 -26.081131 -6.534078 44.263000
518 0 1 -25.330130 -5.941408 44.207794
519 0 1 -25.446030 -5.064527 44.638092
520 0 1 -25.613029 -5.118127 45.586700
521 0 1 -25.871031 -4.243873 45.821503
522 0 1 -25.479330 -3.726078 46.566803
523 0 1 -24.715231 -3.308692 46.228394
524 0 1 -24.428730 -3.056959 47.132690
525 0 1 -23.817831 -3.744825 47.550690
526 0 1 -22.965731 -4.006679 47.755005
527 0 1 -22.921530 -3.509971 46.857208
528 0 1 -22.363630 -3.174234 47.552612
529 0 1 -21.822130 -3.293540 46.677307
530 0 1 -21.173229 -2.908046 46.039795
531 0 1 -21.593430 -2.040376 45.757507
532 0 1 -21.686230 -1.255720 46.219208
533 0 1 -21.184830 -1.697290 46.921204
534 0 1 -21.339630 -1.252557 47.791901
535 0 1 -21.966330 -0.904287 47.188995
536 0 1 -21.987431 -0.160226 47.820892
537 0 1 -22.422331 -0.354467 48.680389
538 0 1 -21.932131 0.285143 49.139191
539 0 1 -21.243231 -0.338129 48.975586
540 0 1 -20.265930 -0.604257 49.051514
541 0 1 -19.652531 -0.163789 48.414001
542 0 1 -19.677931 0.523791 49.055786
543 0 1 -20.015930 1.397212 48.823914
544 0 1 -19.026730 1.490771 48.556610
545 0 1 -18.355129 2.188170 48.442017
546 0 1 -18.051830 2.235701 47.499207
547 0 1 -17.495630 2.797244 48.070587
548 0 1 -17.014330 1.979411 47.892395
549 0 1 -16.820230 1.500563 47.066498
550 0 1 -16.156530 0.824271 47.288513
551 0 1 -15.671829 0.111601 46.951813
552 0 1 -14.961891 0.382700 46.409088
553 0 1 -14.477871 -0.332227 46.876404
554 0 1 -13.913200 -0.637758 46.138306
555 0 1 -14.632351 -0.615396 45.534088
556 0 1 -14.745501 0.245390 45.197906
557 0 1 -15.592430 -0.048589 44.936310
558 0 1 -15.454330 0.418013 44.155701
559 0 1 -16.250229 0.677561 43.742615
560 0 1 -17.027431 1.270300 43.730499
561 0 1 -17.245131 2.040152 44.342499
562 0 1 -17.859430 2.724482 44.720215
563 0 1 -17.487129 2.898982 45.686798
564 0 1 -16.600529 3.009333 46.169098
565 0 1 -16.701630 2.859732 47.104004
566 0 1 -17.311131 3.534422 46.897003
567 0 1 -17.904831 4.355650 46.942413
568 0 1 -18.590729 4.244891 47.740784
569 0 1 -18.319830 4.310412 48.662201
570 0 1 -17.586330 4.814353 48.632599
571 0 1 -17.362030 5.662550 48.932709
572 0 1 -17.544731 6.296690 49.655884
573 0 1 -16.777130 6.013731 50.069611
574 0 1 -16.612831 6.846694 49.528992
575 0 1 -16.063330 7.507792 50.035583
576 0 1 -15.559631 7.842894 50.740509
577 0 1 -14.736561 7.443991 51.023315
578 0 1 -14.143349 8.232092 51.233093
579 0 1 -13.302320 7.907691 50.878296
580 0 1 -12.836319 7.486292 51.565491
581 0 1 -12.360590 6.927290 50.951599
582 0 1 -12.122520 6.551791 50.031403
583 0 1 -11.451590 7.307993 50.192291
584 0 1 -11.174610 7.327792 49.292786
585 0 1 -10.897381 8.268393 49.062195
586 0 1 -10.614670 9.238291 49.334991
587 0 1 -9.864269 8.770990 49.704895
588 0 1 -8.944340 8.900793 49.375916
589 0 1 -8.456841 8.399691 48.764801
590 0 1 -8.573330 8.325392 47.805695
591 0 1 -8.492960 9.144690 47.271301
592 0 1 -8.342720 8.299994 46.756195
593 0 1 -7.476631 8.409292 47.254517
594 0 1 -6.642290 8.772692 47.723907
595 0 1 -6.523149 9.749891 47.577393
596 0 1 -5.537546 9.702391 47.509399
597 0 1 -4.851837 9.448690 46.910492
598 0 1 -4.315315 9.691092 46.129303
599 0 1 -4.062654 10.061193 45.324799
600 0 1 -4.197086 10.540293 44.515594
601 0 1 -4.401709 10.759390 43.630402
602 0 1 -3.627741 10.372992 43.264709
603 0 1 -4.191557 9.883894 42.516998
604 0 1 -3.807690 9.679392 41.695801
605 0 1 -4.011850 8.770590 41.971710
606 0 1 -4.937445 8.632292 41.717010
607 0 1 -5.089527 7.626692 41.831696
608 0 1 -4.903730 7.623793 40.933807
609 0 1 -4.712921 7.023692 40.218811
610 0 1 -4.429672 6.814993 39.318207
611 0 1 -4.997198 6.074622 38.956207
612 0 1 -4.482002 5.325541 39.175293
613 0 1 -4.479975 4.551951 38.531311
614 0 1 -5.484987 4.531832 38.506897
615 0 1 -6.284370 3.955664 38.369202
616 0 1 -6.781530 3.133730 38.194092
617 0 1 -6.724310 2.325354 38.733490
618 0 1 -6.601130 1.324522 38.740692
619 0 1 -7.405420 1.396983 38.218597
620 0 1 -7.697140 1.916972 37.456787
621 0 1 -8.214279 2.077563 36.676208
622 0 1 -7.773460 2.951083 36.573700
623 0 1 -7.899750 3.241831 35.669495
624 0 1 -7.104420 2.911444 35.235504
625 0 1 -6.968090 3.839114 35.410797
626 0 1 -7.479111 4.222533 36.133789
627 0 1 -8.194700 3.935072 36.636597
628 0 1 -8.734779 4.526881 36.068207
629 0 1 -7.983139 5.125212 35.876099
630 0 1 -7.787491 5.764933 36.551697
631 0 1 -7.921120 6.603091 37.074799
632 0 1 -7.928169 6.974593 37.988495
633 0 1 -8.329731 7.918593 38.146301
634 0 1 -7.644440 8.496290 37.881989
635 0 1 -7.312050 9.394690 37.713684
636 0 1 -6.543760 9.741892 38.082214
637 0 1 -6.452610 10.302691 38.870697
638 0 1 -5.530638 10.555391 39.019104
639 0 1 -4.856230 11.320192 38.901001
640 0 1 -4.285616 11.842894 39.449585
641 0 1 -4.061758 12.458593 38.801605
642 0 1 -3.482681 13.179090 38.538391
643 0 1 -4.164249 13.797293 38.081299
644 0 1 -3.424171 14.217993 37.683716
645 0 1 -3.522621 14.587992 36.824402
646 0 1 -3.948299 13.777693 36.494598
647 0 1 -3.305470 13.545191 35.771790
648 0 1 -2.969021 13.089193 36.534912
649 0 1 -2.204720 12.551794 36.214600
650 0 1 -1.398861 12.689390 35.628601
651 0 1 -1.168701 11.786592 35.577789
652 0 1 -2.112289 11.587790 35.609985
653 0 1 -2.929119 10.984091 35.600586
654 0 1 -3.910749 11.101892 35.716797
655 0 1 -4.213476 11.703192 35.018005
656 0 1 -5.166058 11.661390 35.019592
657 0 1 -5.906435 11.148390 34.648590
658 0 1 -5.325735 10.391493 34.577087
659 0 1 -4.444248 10.097692 34.607208
660 0 1 -4.761669 9.245993 34.852905
661 0 1 -4.059673 9.270094 35.502106
662 0 1 -3.695240 8.898291 34.725800
663 0 1 -3.915291 8.783293 33.784790
664 0 1 -3.450378 8.851690 32.954010
665 0 1 -2.999840 8.164892 33.532715
666 0 1 -2.344631 8.514193 32.932312
667 0 1 -2.509178 8.026190 32.054901
668 0 1 -3.137939 8.952791 31.929596
669 0 1 -3.522442 9.738993 32.245392
670 0 1 -4.087580 10.484591 31.855713
671 0 1 -3.634621 11.369192 31.936707
672 0 1 -4.394335 11.198992 32.594116
673 0 1 -4.697836 12.063192 32.411407
674 0 1 -5.595863 11.924093 31.975311
675 0 1 -5.475243 12.124891 31.025787
676 0 1 -4.750673 11.651091 30.572906
677 0 1 -5.519932 11.378092 29.963287
678 0 1 -5.787464 11.508390 29.072815
679 0 1 -5.316761 12.178991 28.580994
680 0 1 -4.571602 12.345892 28.030304
681 0 1 -5.472681 12.438692 27.621399
682 0 1 -5.894432 11.742090 26.983215
683 0 1 -5.302074 11.294092 26.345795
684 0 1 -5.983414 11.353491 25.658600
685 0 1 -5.504883 10.547689 25.218903
686 0 1 -4.522694 10.380892 25.150208
687 0 1 -3.965660 10.602491 24.448914
688 0 1 -3.808439 11.251192 25.244293
689 0 1 -3.069191 10.806692 25.715302
690 0 1 -2.506039 11.551893 25.429108
691 0 1 -2.861980 11.459990 24.535004
692 0 1 -2.092628 11.497793 23.965088
693 0 1 -1.237492 11.345991 24.413910
694 0 1 -1.158020 10.974791 25.301300
695 0 1 -0.238632 11.331289 25.400513
696 0 1 0.455151 11.801592 25.849213
697 0 1 1.332710 12.176191 26.180115
698 0 1 1.960312 12.909891 26.359894
699 0 1 2.796410 13.170790 26.425690
700 0 1 3.042702 12.389891 25.811890
701 0 1 3.435871 13.245291 25.417908
702 0 1 2.869228 12.815592 24.700409
703 0 1 2.329861 13.558092 24.415314
704 0 1 3.000130 14.221090 24.188416
705 0 1 3.154301 14.518293 25.117310
706 0 1 3.024551 15.426794 25.261200
707 0 1 3.663162 16.017591 24.823700
708 0 1 4.153999 15.894590 23.974396
709 0 1 3.991779 15.071890 24.448608
710 0 1 4.332458 14.349890 23.909607
711 0 1 5.084869 13.939894 24.434814
712 0 1 5.298470 13.332190 23.704285
713 0 1 5.230072 13.344591 22.744812
714 0 1 5.902069 13.953390 22.923706
715 0 1 5.663170 14.458292 22.063507
716 0 1 5.117771 14.211992 21.285904
717 0 1 5.958870 14.484091 20.822403
718 0 1 6.487671 15.361292 20.921005
719 0 1 6.601768 15.305292 21.870895
720 0 1 7.188072 14.547392 21.782196
721 0 1 7.336868 13.831892 21.174301
722 0 1 8.245071 13.699789 21.210907
723 0 1 8.249870 13.722792 20.206406
724 0 1 8.105671 14.480490 19.615005
725 0 1 7.511269 14.649591 20.376297
726 0 1 8.206772 15.081892 20.845001
727 0 1 9.091072 15.378092 20.460907
728 0 1 10.014572 15.257093 20.689896
729 0 1 9.596569 15.314192 21.541397
730 0 1 9.046070 15.174692 22.312302
731 0 1 8.541370 14.409792 22.694611
732 0 1 9.363171 14.259691 23.250305
733 0 1 9.916672 14.307989 22.404694
734 0 1 10.855270 14.497892 22.214096
735 0 1 11.391472 15.185293 22.534393
736 0 1 10.938869 15.967291 22.231400
737 0 1 11.187469 16.559591 22.913208
738 0 1 10.742271 16.887091 23.697388
739 0 1 10.157970 16.673292 24.451202
740 0 1 9.534470 15.982691 24.296509
741 0 1 9.219368 15.697294 25.172791
742 0 1 9.019070 14.729292 25.300812
743 0 1 8.794868 14.042494 25.937988
744 0 1 8.409470 13.361090 25.424011
745 0 1 8.139969 12.769194 26.105499
746 0 1 7.294472 12.349691 26.044189
747 0 1 7.715969 11.775591 26.762604
748 0 1 7.090271 11.320089 27.321594
749 0 1 6.295471 10.996092 27.778412
750 0 1 6.379070 10.241194 28.328308
751 0 1 5.874771 10.863592 28.844208
752 0 1 6.287769 11.654291 29.237091
753 0 1 6.069069 12.502989 28.901611
754 0 1 6.142769 12.480192 27.945312
755 0 1 5.378971 12.244291 27.364502
756 0 1 5.063770 11.777891 26.585297
757 0 1 4.709152 10.944593 26.976013
758 0 1 4.869991 10.621794 27.859192
759 0 1 3.899498 10.378092 27.809296
760 0 1 3.897701 9.574591 28.348816
761 0 1 3.254879 8.976789 28.909088
762 0 1 3.183792 8.894892 27.944092
763 0 1 2.828590 7.933791 28.079285
764 0 1 2.996979 8.172293 27.084686
765 0 1 3.109901 7.838793 26.204803
766 0 1 2.529751 7.289393 26.739594
767 0 1 3.234772 6.800791 27.143188
768 0 1 3.781860 7.266192 27.838409
769 0 1 4.674511 7.260893 27.537506
770 0 1 5.385769 7.050292 28.127686
771 0 1 6.189972 6.770194 27.618103
772 0 1 6.137772 5.786643 27.607391