LAMMPS data file via write_data, version 29 Sep 2021, timestep = 103000000

405 atoms
3 atom types
405 bonds
2 bond types

-62 62 xlo xhi
-62 62 ylo yhi
-62 62 zlo zhi

Masses

1 1
2 125
3 1

PairIJ Coeffs # lj/cut

1 1 1 1 1.12246
1 2 1 3 3.36739
1 3 1 1 1.12246
2 2 1 5 5.61231
2 3 1 3 3.36739
3 3 1 1 1.12246

Bond Coeffs # fene

1 30 1.5 1 1
2 3.33333 4.5 1 3

Atoms # bond

69 1 1 -1.0857410653645776 -10.075876667098663 -9.901733299269514 0 0 0
62 1 1 -0.19185629407230143 -12.114269325877286 -10.013739059003818 0 0 0
61 1 1 -0.5602099268537015 -12.620199673271658 -10.757789182269843 0 0 0
65 1 1 -2.288970595042879 -11.099959046315238 -10.135919819347484 0 0 0
57 1 1 1.620188368943461 -11.258396645195404 -10.545514521471235 0 0 0
60 1 1 0.13851001312801084 -12.709178694905368 -11.454241266625493 0 0 0
58 1 1 1.139301141971499 -11.881398612724796 -11.161728703703401 0 0 0
55 1 1 3.1257300084006037 -10.39308507354275 -10.918452631262978 0 0 0
59 1 1 1.07546088827667 -12.787155812035877 -11.462461061051577 0 0 0
56 1 1 2.492458940914018 -10.878901728773313 -10.372769382996882 0 0 0
54 1 1 3.582402289539319 -11.20608697929585 -10.920547173379441 0 0 0
53 1 1 3.5878154244318767 -11.515374676393142 -9.953802364991047 0 0 0
70 1 1 -0.8325095626462029 -9.433716120124345 -10.546543175311314 0 0 0
71 1 1 -0.260816558065611 -8.680701945440072 -10.258574098456245 0 0 0
72 1 1 -0.7878014140059708 -7.913058247999718 -9.895145512613883 0 0 0
146 1 1 -4.330081730084905 -0.34999417814823824 -10.506275616341757 0 0 0
148 1 1 -5.995585940392103 -0.414377749909925 -9.84005107608798 0 0 0
147 1 1 -5.1350689682664346 -0.8540603569457864 -10.177298627195093 0 0 0
108 1 1 3.538353601594474 -2.751739994230074 -9.821023627749094 0 0 0
160 1 1 -11.047826462812203 1.9037536306540965 -10.579898195283137 0 0 0
161 1 1 -10.373086613905553 1.9193620992704232 -9.841173324596495 0 0 0
158 1 1 -10.126550234337941 2.156126608710703 -11.308004771037078 0 0 0
159 1 1 -10.24267350514769 1.409675618712697 -10.765784058499028 0 0 0
156 1 1 -10.071591633665049 1.345165693626721 -12.25217945228955 0 0 0
157 1 1 -10.330147156400466 2.256376997013629 -12.252406236006749 0 0 0
154 1 1 -8.919827497303324 1.2001006697455845 -10.706424319405357 0 0 0
153 1 1 -8.001745016642467 1.6472734218381824 -10.645904262770925 0 0 0
162 1 1 -9.364063668632884 1.9380542141826063 -10.034634718786561 0 0 0
155 1 1 -9.33224871032855 1.222344611604928 -11.576529136999094 0 0 0
152 1 1 -7.057899192323205 1.657557095137221 -10.656570098950489 0 0 0
150 1 1 -6.739624825518885 0.5191876571820907 -10.32056644246146 0 0 0
151 1 1 -6.325836777481697 1.382940986646359 -10.076780110111027 0 0 0
130 1 1 -2.124327995739159 2.90349024297016 -10.48690302516176 0 0 0
129 1 1 -2.0026932639467026 2.037287136173081 -10.042699021373558 0 0 0
128 1 1 -1.0822744427169648 2.2417314011578173 -10.158696447500681 0 0 0
127 1 1 -1.20097143989923 3.1455133043547883 -10.033351587244255 0 0 0
138 1 1 -4.4508703674551455 4.256921033584326 -10.452910057165084 0 0 0
137 1 1 -4.188733438652763 4.64527654328087 -11.297919942392353 0 0 0
140 1 1 -5.879733858535601 3.756052413480619 -9.83583646883674 0 0 0
136 1 1 -3.3754300103585932 4.994205276276 -11.761530905731448 0 0 0
132 1 1 -1.2388167479849568 3.953360551016085 -11.66978718958452 0 0 0
134 1 1 -1.961688816224009 4.895427838039391 -11.234953861067758 0 0 0
135 1 1 -2.514943139738799 4.559367082442221 -11.937670482598461 0 0 0
133 1 1 -1.0405965023513426 4.65795720687916 -10.990117186883861 0 0 0
131 1 1 -1.8135334772823744 3.646330591866738 -10.97869429154178 0 0 0
68 1 1 -1.1018303622114565 -10.419912835286835 -9.044334057346182 0 0 0
66 1 1 -2.3989894511817407 -10.480609889888814 -9.457637114400907 0 0 0
64 1 1 -1.580950094794073 -11.50990734963499 -9.646149266445487 0 0 0
63 1 1 -0.9566241615848595 -12.236186234156847 -9.429590751023918 0 0 0
67 1 1 -1.9472807681232982 -10.06795326345506 -8.754682895116845 0 0 0
52 1 1 4.297931862741868 -11.710184515826313 -9.312651928639347 0 0 0
51 1 1 4.740532028800426 -11.666403507681922 -8.42437613817975 0 0 0
50 1 1 5.36547350755813 -11.295053146117153 -7.801100644152005 0 0 0
49 1 1 4.667941814339013 -10.894212057706133 -7.286578526586837 0 0 0
73 1 1 -1.3928469790896558 -7.366793124383748 -9.40235335174423 0 0 0
74 1 1 -2.0211751665170077 -8.099129300624002 -9.565720575420324 0 0 0
75 1 1 -2.66294345382247 -8.092206376746802 -8.832190068742541 0 0 0
76 1 1 -2.8482540636971763 -7.808591176122354 -7.844815814375291 0 0 0
77 1 1 -1.919715029457867 -7.4080238646194365 -7.706826708665315 0 0 0
78 1 1 -1.213210417250429 -6.808030127606162 -8.000742462242085 0 0 0
80 1 1 -0.7086016383284925 -5.592493678281171 -7.367320282071076 0 0 0
79 1 1 -1.1625539344608542 -6.395609567953391 -7.108874979235814 0 0 0
81 1 1 0.2025654143178927 -5.447548907584825 -7.38487508183598 0 0 0
111 1 1 2.3665936696050935 -3.5616964221463157 -8.675584530599744 0 0 0
109 1 1 3.2294371755611557 -3.572867528631494 -9.51134407832855 0 0 0
149 1 1 -6.939082376607373 -0.07610508802329954 -9.545703566368491 0 0 0
117 1 1 -1.7535119860746993 -1.6454323585332438 -8.59607464590836 0 0 0
116 1 1 -0.9126043022788956 -2.1570811764238997 -8.697248559465082 0 0 0
118 1 1 -2.216833803655013 -0.8701300169980627 -8.984981020848998 0 0 0
115 1 1 -0.43055796877820784 -2.053513712293162 -7.877267162840389 0 0 0
120 1 1 -1.2349574910617456 -0.3286039113990899 -8.632011764465267 0 0 0
119 1 1 -2.0384812696386856 -0.40428816564916686 -8.17512115810102 0 0 0
110 1 1 2.5102585651685265 -2.872164392725636 -9.439649447478793 0 0 0
114 1 1 0.5203911533622038 -2.1056254952252123 -7.712636394695162 0 0 0
113 1 1 1.4454546723883452 -2.5041608072997597 -7.714555725941652 0 0 0
112 1 1 2.122515648180895 -3.123974561696795 -7.841300295025021 0 0 0
85 1 1 2.237784078828387 -3.104265570861573 -6.729597860916229 0 0 0
107 1 1 4.371349741758765 -2.322337685627622 -9.556974532957334 0 0 0
106 1 1 4.805742221221307 -1.495870811653356 -9.283375840583075 0 0 0
105 1 1 5.171003211453753 -2.2742280611673653 -8.691112028929304 0 0 0
104 1 1 6.095598676404182 -2.2860829587887523 -8.8185285940492 0 0 0
102 1 1 7.161174005760531 -1.698821250585782 -8.36633113608466 0 0 0
103 1 1 6.670504385916939 -2.4843555292612742 -8.09122174905497 0 0 0
101 1 1 8.127619441282711 -1.8586543688820047 -8.261323951296749 0 0 0
100 1 1 8.044351128426566 -2.1618991223608464 -7.299350073914788 0 0 0
99 1 1 8.076338339432809 -1.2497163518054353 -6.994206947681247 0 0 0
192 1 1 -19.092736299499826 1.356719343860029 -6.547975070203393 0 0 0
145 1 1 -4.089171446527324 0.059637071341811315 -9.600537604104076 0 0 0
142 1 1 -4.4264707584711624 2.7825259834328833 -9.128964897699797 0 0 0
141 1 1 -5.166456223865671 3.0683760929146136 -9.559624285218232 0 0 0
143 1 1 -4.391435886287742 1.9073889217594524 -9.55359400194878 0 0 0
144 1 1 -4.355045572599293 0.9870382144366082 -9.584570033343088 0 0 0
121 1 1 -1.267341309840717 0.457292513203822 -7.979685727326998 0 0 0
125 1 1 -1.6174781554673587 2.981342811801144 -8.648323417594645 0 0 0
124 1 1 -0.9904094835260309 2.5358906840613655 -8.159429221935797 0 0 0
123 1 1 -1.2510926121581003 1.6138729759768462 -7.862166232828353 0 0 0
122 1 1 -0.5419913474639209 0.956327738488114 -7.731223694146396 0 0 0
126 1 1 -0.7995049350228877 2.898774223397843 -9.18891596502993 0 0 0
96 1 1 6.015105266219903 0.5592867387281436 -6.584864193967131 0 0 0
186 1 1 -21.03138687948395 5.10085032398317 -7.50925683303617 0 0 0
185 1 1 -21.641198854942235 5.7071617033606135 -7.913198354833272 0 0 0
187 1 1 -20.947552721142483 4.3090323256492296 -6.980127593574281 0 0 0
183 1 1 -20.473315805053357 6.328862010233398 -7.1617203756839345 0 0 0
180 1 1 -19.251171607584705 6.159641025975251 -6.953918717525583 0 0 0
179 1 1 -18.531124265611272 6.482363255965691 -7.570666796977046 0 0 0
178 1 1 -18.803356046725373 5.704769883385162 -8.131047173918066 0 0 0
176 1 1 -18.144073085051904 4.878812060470925 -8.552464884301367 0 0 0
174 1 1 -17.610517022886825 5.597109369608131 -7.6108852062513535 0 0 0
173 1 1 -17.812128363771752 5.66895804285221 -6.660903286194612 0 0 0
177 1 1 -19.076103443518896 4.8362101836300395 -8.32702525113656 0 0 0
175 1 1 -18.16030259860611 4.817396251569098 -7.614660422174332 0 0 0
167 1 1 -14.585045078959018 5.833977999603371 -6.782923070388087 0 0 0
166 1 1 -13.868746561796305 5.1052135153503055 -6.651664756378373 0 0 0
164 1 1 -12.265391756388045 5.284594018999842 -7.717700467831731 0 0 0
165 1 1 -13.049996550690134 5.2924594068716555 -7.12522206591043 0 0 0
163 1 2 -9.711805742944481 4.821209489258455 -9.146986139956464 0 0 0
139 1 1 -5.024041716886917 4.227309149291288 -9.678000969125682 0 0 0
184 1 1 -21.320704598492327 6.548282576631422 -7.553148662571507 0 0 0
182 1 1 -20.13645383388067 7.160316136545232 -6.78190556456275 0 0 0
181 1 1 -19.18472630070899 7.086389981614227 -6.9589733608274615 0 0 0
46 1 1 4.667986634051541 -12.076772130210577 -6.198023669995157 0 0 0
45 1 1 4.713022805242769 -12.275355007791687 -5.252621560335122 0 0 0
43 1 1 5.5937524926420075 -11.041416951514876 -4.579851798299217 0 0 0
42 1 1 5.646086826701666 -10.609770539303613 -3.661238739812334 0 0 0
44 1 1 5.303185334789396 -11.47815988278074 -5.414928801584103 0 0 0
48 1 1 5.124082510010553 -10.648600331772435 -6.463433653156533 0 0 0
47 1 1 4.394861510581241 -11.16303279691357 -6.289381559478232 0 0 0
40 1 1 6.08804488691254 -11.65840281278404 -3.8025061026669835 0 0 0
39 1 1 6.882994024134073 -11.89245905803098 -3.400110601446327 0 0 0
82 1 2 1.0808961012364902 -6.352214310337622 -4.700636489706499 0 0 0
83 1 1 1.8337787233849123 -3.608200240263563 -5.575628862011843 0 0 0
86 1 1 2.759019037607136 -3.825496330550822 -6.312932641791426 0 0 0
87 1 1 3.2437975102074557 -3.690804287588902 -5.539046327657029 0 0 0
88 1 1 3.799063772437886 -3.579690654681414 -4.694901208473524 0 0 0
201 1 1 -16.692578800325254 -0.5987507493802409 -4.695614976481686 0 0 0
204 1 1 -16.434048506728907 -1.241882142577129 -3.5778248467897016 0 0 0
202 1 1 -16.6990349532087 -1.5331285995732864 -4.600538235391345 0 0 0
203 1 1 -16.040755661591334 -1.9471371219151183 -4.020753873400411 0 0 0
84 1 1 1.9587457788622766 -2.66820215605679 -5.910986632986877 0 0 0
89 1 1 4.283375693974423 -3.1236743282596415 -5.312373863047532 0 0 0
90 1 1 4.777987476960609 -2.653482663069588 -6.106415660585498 0 0 0
91 1 1 5.499040264631368 -2.899403008799781 -5.521977410742544 0 0 0
93 1 1 5.817698445841562 -1.1274561767229516 -4.900892801755745 0 0 0
94 1 1 5.91351592141834 -0.2835151707333699 -5.390743503612486 0 0 0
92 1 1 5.861967921144618 -1.9494197974340726 -5.401109385605371 0 0 0
98 1 1 7.315053680546761 -0.8529548512428623 -6.5062955300175105 0 0 0
189 1 1 -20.958570860306843 2.968840423671575 -5.833655403705966 0 0 0
190 1 1 -20.520350029245677 2.3392157496415606 -6.405374715108378 0 0 0
194 1 1 -18.755721877801943 1.5659778479053952 -4.767483608481627 0 0 0
191 1 1 -19.517167418283503 2.1626680145478074 -6.220397653175413 0 0 0
193 1 1 -19.04821329255435 1.033682505603663 -5.589851325634306 0 0 0
195 1 1 -18.706111231133615 1.685449666823497 -3.8126744591524275 0 0 0
198 1 1 -16.868454821423754 1.0360068370280044 -3.4341600453465015 0 0 0
199 1 1 -16.36066111351385 0.9662038441223658 -4.2045539555155305 0 0 0
200 1 1 -16.38303702427876 0.027254214530175305 -4.071327286896582 0 0 0
95 1 1 5.473576957485672 0.4855295444583036 -5.809085662851612 0 0 0
97 1 1 6.873497232690042 0.08304360955509162 -6.451627631075839 0 0 0
188 1 1 -20.559972732868935 3.591751831454528 -6.441173419942964 0 0 0
172 1 1 -17.058539827829936 5.859778145850199 -6.2523195288961215 0 0 0
171 1 1 -16.738868782333043 6.253022470370748 -5.4071285711412695 0 0 0
168 1 1 -14.510155731616093 6.017197067368569 -5.7987694093224444 0 0 0
169 1 1 -15.24435068111876 6.623161255987599 -5.554944621086857 0 0 0
170 1 1 -16.142341904204834 7.041575822067271 -5.448824402035841 0 0 0
41 1 1 5.680463386998 -11.3903980935268 -2.97369065488255 0 0 0
29 1 1 6.19805544737683 -10.917727160733707 -0.268511316898116 0 0 0
37 1 1 7.196482256769899 -10.941217325716185 -2.010920751117558 0 0 0
31 1 1 6.740175398228043 -10.074468327363805 -1.6552598413670643 0 0 0
30 1 1 6.8231766919534085 -10.407472928750247 -0.7132086199789188 0 0 0
38 1 1 6.814218218832696 -11.699241385535009 -2.4330936315052503 0 0 0
36 1 1 7.7004358385902805 -11.787365338570583 -1.8949723233707156 0 0 0
35 1 1 8.457003857096213 -11.171321484496971 -1.6343992644645355 0 0 0
34 1 1 8.422441132186652 -10.439581456535189 -1.0722046225936828 0 0 0
32 1 1 7.676048860203715 -10.035019565776055 -2.079762667520475 0 0 0
33 1 1 8.563324806839251 -9.83675038907768 -1.8278420210100226 0 0 0
20 1 1 6.459232482297008 -6.904076962443257 -0.9028704756145363 0 0 0
23 1 1 5.390103036287247 -8.596282471035856 -0.7763428232646711 0 0 0
21 1 1 5.9663450190058835 -7.5947154918988975 -1.3439533289922418 0 0 0
22 1 1 5.872811334695921 -8.561523716343297 -1.5550213355953255 0 0 0
19 1 1 5.7645864354973275 -6.231117747507892 -1.0494575818577436 0 0 0
18 1 1 5.334684114020971 -5.569097258754195 -0.49623912864299774 0 0 0
206 1 1 -16.69113490550647 -1.6494808674761958 -2.096363768784038 0 0 0
205 1 1 -16.607371829675717 -0.9025682532581666 -2.689375283135062 0 0 0
210 1 1 -14.526965200683339 -1.432108313774911 -1.8269475941624205 0 0 0
209 1 1 -14.610743166728609 -0.945241021425931 -2.590556175897709 0 0 0
211 1 1 -15.032202653625108 -1.2449489833138414 -0.9902773353451301 0 0 0
213 1 1 -13.269846071458252 -1.742807972544135 -0.5344834604685585 0 0 0
212 1 1 -14.00525712757388 -1.2240639392776487 -0.9444178053020668 0 0 0
207 1 1 -15.803253783854634 -1.4521629210545255 -2.212337745985797 0 0 0
208 1 1 -15.411436825101601 -0.5639400107633795 -2.115470853206447 0 0 0
215 1 1 -12.116968670225413 -0.296894296341196 -0.3073486142872214 0 0 0
214 1 1 -12.893483734547523 -0.9046253770183632 -0.23850876206353344 0 0 0
216 1 1 -11.311593444973111 -0.7631691011893017 -0.5967841817085248 0 0 0
217 1 1 -10.542385443547808 -0.9272117793825546 -0.15258564377609612 0 0 0
219 1 1 -9.117303949012456 -0.14098177503610052 -0.2761669627083261 0 0 0
196 1 1 -18.244476841660994 1.1930735539170272 -3.1698541334088572 0 0 0
197 1 1 -17.560724915910725 0.5095953163168319 -2.9638477660096787 0 0 0
225 1 1 -9.895102265317107 2.567996131830123 -0.34654793903856446 0 0 0
224 1 1 -9.993592172857717 1.6940638636491878 -0.6635292823042073 0 0 0
223 1 1 -10.87545838351509 1.3739128481583873 -0.28196472926001404 0 0 0
227 1 1 -9.993777653043306 3.138208687118547 -1.2889744915920371 0 0 0
220 1 1 -9.568657668906413 0.3788352517713724 -0.9374679081625933 0 0 0
221 1 1 -9.210603832299139 0.8784019949710868 -0.1489439926482626 0 0 0
226 1 1 -10.084257072392415 3.501617832391544 -0.4320480897221075 0 0 0
229 1 1 -9.594213109317083 4.728622372001934 -0.9082880528367517 0 0 0
230 1 1 -8.700406443884116 4.537234767919551 -0.49972039624346914 0 0 0
228 1 1 -9.4410260475895 3.9025073407243096 -1.3006539120680192 0 0 0
315 1 1 2.424330832139389 7.102760383828744 -0.054861814758098884 0 0 0
320 1 1 5.128176467051761 8.09265653588307 -1.3796298961286069 0 0 0
322 1 1 5.876811908073556 7.082924933219496 -1.4430699941084013 0 0 0
321 1 1 5.648143318189723 7.786843507471253 -2.128446381999132 0 0 0
318 1 1 5.250461243150128 7.172056648149604 -0.42435660927526997 0 0 0
319 1 1 5.335858655252581 8.095929354988638 -0.461116613648909 0 0 0
316 1 1 3.411219967688591 6.879890162499857 -0.041001583265278994 0 0 0
317 1 1 4.265510239535074 6.907360670401751 -0.44495600864644663 0 0 0
324 1 1 7.111509444495656 6.662152235652312 -0.1908631701725528 0 0 0
323 1 1 6.6002854496560746 7.254200667627638 -0.7911432342905331 0 0 0
28 1 1 5.65466926990369 -11.033384338883694 0.463984881787356 0 0 0
27 1 1 6.171315081402256 -10.591273242420955 1.11564922314468 0 0 0
24 1 1 5.765620530946859 -8.918763599298316 0.052013189372409896 0 0 0
25 1 1 6.41772311409962 -9.28050965354533 0.6157450747721077 0 0 0
26 1 1 6.489509206369894 -9.67462611381888 1.4923286450769064 0 0 0
12 1 1 3.4164053223512116 -6.879248201082616 1.9334267419409503 0 0 0
11 1 1 4.377375336192322 -6.908443471001339 2.0263920644516866 0 0 0
7 1 1 4.402450828126373 -8.603896993462701 2.4986199189127496 0 0 0
6 1 1 3.698807943756621 -9.169291874474283 2.2296421836995313 0 0 0
5 1 1 3.942473938316949 -9.383929480275633 3.125445041121989 0 0 0
10 1 1 4.366208909538408 -6.936644857068422 2.902896051681236 0 0 0
9 1 1 3.663892340766479 -7.558280884688309 2.912841142622954 0 0 0
17 1 1 5.307625359144395 -5.488322241238665 0.48696528551516544 0 0 0
14 1 1 3.4300306127318483 -5.113268638992438 1.3935912534206287 0 0 0
15 1 1 3.988709223703484 -4.4641735361879205 0.9912458524641581 0 0 0
13 1 1 3.521148953814169 -6.0875532998608985 1.383712867177861 0 0 0
16 1 1 4.727349545802846 -4.996480126988689 1.0091661527320375 0 0 0
393 1 1 5.480160855081533 -4.136140283761716 3.2232651532829752 0 0 0
390 1 1 7.190224099820849 -5.465391920932065 3.1477798402446155 0 0 0
218 1 1 -9.64381295506292 -0.7260336899798145 0.27128944773472347 0 0 0
364 1 1 15.281618039473198 -1.589551580878823 1.820533013153212 0 0 0
365 1 1 15.697077297286038 -2.023659958178381 2.591906959179463 0 0 0
366 1 1 15.082188605552872 -2.551083192420712 3.121109577709175 0 0 0
361 1 1 15.164978161813623 -1.0981937644705224 0.720616106000084 0 0 0
363 1 1 14.795392016867702 -1.9679496270838266 1.1083988536839295 0 0 0
362 1 1 15.080753800419284 -1.9178151995269186 0.17418111993716862 0 0 0
360 1 1 16.116196832616733 -1.2945793553976732 0.8125791406860657 0 0 0
359 1 1 16.42205750007543 -0.6591147094355296 1.45821784710838 0 0 0
358 1 1 17.167401838130118 -1.1972157782673287 1.5753518524452226 0 0 0
356 1 1 18.37477901781706 -0.855477044382748 2.449237416041785 0 0 0
357 1 1 18.11336804425597 -1.4563786657899291 1.7721630870195662 0 0 0
355 1 1 18.917687279218907 -0.060450310491246106 2.074204764565342 0 0 0
222 1 1 -10.15072771610203 0.922284007835524 0.25719217789234683 0 0 0
331 1 1 9.602165434417843 2.252034921720853 2.9409389708280003 0 0 0
332 1 1 10.263096409295475 3.0318733210441393 2.9947873314442535 0 0 0
346 1 1 15.817472440264469 2.723090585760867 2.9867916321487247 0 0 0
345 1 1 14.874242029813312 2.833089762025846 3.004297864148094 0 0 0
354 1 1 18.558413990432395 0.01515099556177015 2.9498604827503137 0 0 0
232 1 1 -8.213450818450406 5.203055986782024 0.9078055411076412 0 0 0
231 1 1 -9.02303382331432 4.735457466031598 0.5566562261900275 0 0 0
233 1 1 -7.522756322163893 4.594937077505735 1.2641212583451154 0 0 0
234 1 1 -7.20859230737389 4.672687888785859 2.180077664140523 0 0 0
235 1 1 -7.361439166348514 4.615787409681038 3.1567906103411945 0 0 0
311 1 1 1.430492279767827 6.24450063043305 3.0214426332902007 0 0 0
314 1 1 2.210178352040327 6.331573688622594 0.3605902550178383 0 0 0
313 1 1 2.28108531692909 6.305248078965873 1.3239474355325629 0 0 0
312 1 1 1.6982104666119902 6.338727090591172 2.1121361394343827 0 0 0
325 1 2 9.062075957738955 4.714108738273173 0.6500051484732492 0 0 0
335 1 1 12.189910710945345 4.457120201769855 2.6158728611008075 0 0 0
337 1 1 11.56852341607385 6.2543335334067764 3.223278753950042 0 0 0
336 1 1 11.82393998119415 5.3475546188112935 2.8770918942417727 0 0 0
333 1 1 11.161417544346474 3.3188068773908244 2.7911722051918324 0 0 0
334 1 1 12.003776319869294 3.658436713257149 3.085665255963822 0 0 0
347 1 1 16.34360059163806 3.3978116911526537 2.654124933868553 0 0 0
302 1 1 -1.230278430926081 8.815280475677447 1.577875888802908 0 0 0
301 1 1 -0.6566176358715895 9.458730595282265 2.1428374805164876 0 0 0
304 1 1 -0.11819996571606337 9.406225240209267 0.7895747010284312 0 0 0
303 1 1 -1.0572985271749356 9.137881785739719 0.6389955595755237 0 0 0
305 1 1 0.5178498114825704 8.989801082929047 0.2331076331685258 0 0 0
306 1 1 0.34529200274643695 8.538936025034772 1.068643268982496 0 0 0
307 1 1 0.6118035239481922 7.831619087538856 1.7116088519193033 0 0 0
308 1 1 0.2871365780182984 7.9251152891198 2.658303340946726 0 0 0
300 1 1 -1.534140076858444 9.80180340929253 2.175528619214016 0 0 0
299 1 1 -1.6780532613912629 10.50380195735586 2.803750851654809 0 0 0
3 1 1 3.3002069906464793 -9.174529284613865 4.385327515713046 0 0 0
4 1 1 4.054864109619671 -9.720306874562702 4.093854272704587 0 0 0
1 1 2 6.459706659199584 -8.447406021152883 6.4139155006975255 0 0 0
8 1 1 4.290411912975649 -8.147169914170915 3.3287581739275156 0 0 0
2 1 1 4.1972582742565745 -8.827153212927804 4.457272483097124 0 0 0
391 1 1 6.4678479618857265 -4.957281846462473 3.6209352532051984 0 0 0
394 1 1 5.7574182548708634 -3.3165999711494054 3.6654619901906025 0 0 0
392 1 1 5.537275253004028 -5.14268071147087 3.421791271147812 0 0 0
389 1 1 7.078007250091022 -6.020753511372715 3.904089618171469 0 0 0
388 1 1 7.647707821741572 -5.507022390417201 4.3960411931377665 0 0 0
387 1 1 8.644811586118315 -5.410399754716216 4.402826092589401 0 0 0
386 1 1 8.735208906688818 -4.652901761417468 3.7951837434571387 0 0 0
384 1 1 8.79682837514765 -3.2975401227821965 3.8228811390159287 0 0 0
385 1 1 9.438747683174629 -4.003806670510758 3.7471125133815693 0 0 0
397 1 1 7.7761195525331255 -3.4675430308669477 4.847633497818247 0 0 0
405 1 1 6.751148331055018 -5.5112517174714535 6.00064905465955 0 0 0
396 1 1 6.906031503194001 -3.573408375926747 4.594126035077635 0 0 0
399 1 1 8.69394213448959 -4.823093401706807 5.685286798370344 0 0 0
404 1 1 6.930722612700969 -4.61488419500539 6.382339115176858 0 0 0
398 1 1 8.29243899789601 -4.256084095075927 5.059867335612095 0 0 0
373 1 1 12.238279433432494 -4.65949159328814 5.201995719104176 0 0 0
374 1 1 12.345457760944615 -3.7554741127636935 5.557146854990117 0 0 0
368 1 1 15.006638346227211 -3.4607695277526362 4.319944278654335 0 0 0
369 1 1 14.952551002859352 -4.374889826328291 4.422477940665946 0 0 0
372 1 1 13.088303870783195 -4.426306225141412 4.93308414857098 0 0 0
371 1 1 13.745608900775048 -4.656698057209919 4.323781856445646 0 0 0
370 1 1 14.41377232792874 -5.014153688873724 4.91077098835906 0 0 0
395 1 1 6.3903387179744096 -2.8354199988637734 4.294748935441426 0 0 0
383 1 1 9.557975590083409 -2.927231327726114 3.4325958756545245 0 0 0
381 1 1 10.794112820838592 -1.7980931702465177 4.251404903508644 0 0 0
380 1 1 11.65602042670937 -2.2135147100786634 4.3929140712061585 0 0 0
382 1 1 10.15398371166603 -2.442167240911567 3.8935440003931556 0 0 0
379 1 1 11.731913978698795 -1.1978613327283256 4.444617269172865 0 0 0
376 1 1 12.577278494804014 -2.2933076557542367 5.85932381927612 0 0 0
377 1 1 12.384778185194481 -1.5909242673504387 5.236321939126241 0 0 0
378 1 1 12.64018115213241 -1.2371190721936693 4.294627367751922 0 0 0
375 1 1 12.312766888943207 -3.137568129960376 6.283666157937856 0 0 0
367 1 1 15.551870255534388 -2.8415532477273437 3.8711272004146977 0 0 0
330 1 1 9.40338189017263 2.7578827136213033 3.816082628825334 0 0 0
353 1 1 18.22274933036448 0.651276886283836 3.570339946365165 0 0 0
351 1 1 17.54072747248917 2.25977828336471 3.9034176711098305 0 0 0
352 1 1 18.185913141463196 1.5165633463697066 3.9689031787671314 0 0 0
350 1 1 16.56253171253754 2.4085628849709297 3.8633209406228834 0 0 0
237 1 1 -7.166389944784706 5.174707824726205 5.060244248094458 0 0 0
238 1 1 -7.420217211423126 5.985937473201553 5.591329025286171 0 0 0
236 1 1 -7.2733490027206 4.792278235700779 4.149038347038143 0 0 0
326 1 1 9.343657079887015 5.031959853295785 3.4157952845004105 0 0 0
327 1 1 8.893597567344582 5.417533049469218 4.175448110695013 0 0 0
329 1 1 9.120187443261601 3.6488948225666125 3.7022853047254833 0 0 0
328 1 1 8.806223110942582 4.447546165025323 4.052577191220756 0 0 0
338 1 1 10.860595940511391 5.694457807482704 3.5515781473810866 0 0 0
341 1 1 12.481908266686832 4.891380165346523 3.8139787800814298 0 0 0
340 1 1 11.720432990931208 5.030076865100118 4.381136044411442 0 0 0
339 1 1 10.795904790728454 5.059233567033292 4.2653699507684575 0 0 0
344 1 1 14.32011174635855 3.2769762166371015 3.6396169418509423 0 0 0
343 1 1 14.167744219309379 4.2177798353892095 3.7544025562155747 0 0 0
342 1 1 13.22077862124372 4.3437760214413625 3.924660055858432 0 0 0
348 1 1 15.898435698369367 3.664831625291901 3.458315590327093 0 0 0
349 1 1 16.647913965347932 3.3786000807314855 3.930338699539287 0 0 0
239 1 1 -7.717573408955249 6.827247336196176 5.928753149328227 0 0 0
240 1 1 -7.077348263511024 7.538545863693866 5.9005137354056245 0 0 0
241 1 1 -6.211733571906029 7.52277875310024 6.198190393314462 0 0 0
242 1 1 -6.2084921010023075 6.595315393814721 6.404509503103803 0 0 0
290 1 1 -0.271485507166076 9.215982926578203 6.4896901228620765 0 0 0
310 1 1 1.2319781558857028 7.031796432123007 3.614761400017153 0 0 0
309 1 1 0.7888284139349323 7.9124827618475635 3.5222030032779683 0 0 0
295 1 1 -2.8689632744263727 11.073040249741986 4.860807523011352 0 0 0
298 1 1 -2.282334386803654 10.908587524464373 3.43940355970934 0 0 0
296 1 1 -3.0815553295813345 11.67385313192713 4.208432614840142 0 0 0
297 1 1 -2.122869618100916 11.685302049809348 4.011834096205466 0 0 0
294 1 1 -3.035664149260369 11.041979702759528 5.84892797344929 0 0 0
291 1 1 -1.0467391578905199 9.863113716330167 6.336658052843874 0 0 0
293 1 1 -2.8266214042939604 10.151511811328229 6.065110207727713 0 0 0
292 1 1 -1.9159631533764294 9.919091119077624 5.849542683213018 0 0 0
403 1 1 7.0602135185019534 -5.078883847487913 7.247542757471905 0 0 0
402 1 1 7.5742583136031225 -5.3818769951456495 7.96956069476749 0 0 0
401 1 1 8.491441141953276 -5.4340611724178 7.591494737846096 0 0 0
400 1 1 8.496190076527217 -5.095319556129112 6.658638498104166 0 0 0
244 1 2 -6.559225607854435 4.773224346247588 9.712742143002297 0 0 0
246 1 1 -3.308345136733423 5.100442050089383 8.428295355657156 0 0 0
243 1 1 -6.1857415077876645 5.886715974749048 7.0959659655150675 0 0 0
245 1 1 -3.88788577554218 4.536900163410925 8.91505768956448 0 0 0
247 1 1 -2.7275664267583686 4.779160296688425 9.093660366919291 0 0 0
248 1 1 -2.9935647929857057 3.9470247889922105 8.641878758006623 0 0 0
249 1 1 -2.4078112055084273 3.824429177154683 9.489050775452203 0 0 0
284 1 1 -3.28539653044878 9.554576932268695 8.175024656862991 0 0 0
286 1 1 -2.2730114906280225 9.753961133477338 7.656574168994418 0 0 0
285 1 1 -2.408612082511501 9.296121311421732 8.490841475924771 0 0 0
289 1 1 -0.02341075740878784 9.383605378909307 7.385312365987052 0 0 0
283 1 1 -3.5407578383305407 10.096826818133879 9.043420433977808 0 0 0
288 1 1 -0.5766101880885951 10.005160840126454 7.9335997429055025 0 0 0
287 1 1 -1.4331907851682997 10.08105127345705 7.504831306034748 0 0 0
282 1 1 -3.1552523879189165 10.876500319710859 9.462800056208795 0 0 0
250 1 1 -2.1371203855380982 4.635776690597545 9.931908067472738 0 0 0
251 1 1 -1.418428907696908 5.136192342649911 10.322467117069026 0 0 0
252 1 1 -2.143569795219463 5.597969214227424 9.832053581929607 0 0 0
253 1 1 -1.9747553374282136 6.134835287377843 10.56872218141005 0 0 0
254 1 1 -2.6444874569647614 6.034682719444295 11.23162586804673 0 0 0
255 1 1 -2.0303506645811304 5.507868154288372 11.64809240631581 0 0 0
257 1 1 -1.2596105309752745 4.820540596195032 11.630411862036304 0 0 0
256 1 1 -1.2457185583888317 5.900724333146157 12.018081270892461 0 0 0
258 1 1 -0.5957483159666672 4.269968116823528 12.030593303420794 0 0 0
261 1 1 -0.34863053442154873 5.18785349375021 12.577440410857749 0 0 0
260 1 1 0.4145237473658332 4.610227837691304 12.514666492946715 0 0 0
259 1 1 0.1776443714755406 3.800056320464657 12.030313470680271 0 0 0
276 1 1 -2.5398264299566202 9.427873893319438 12.725162816610384 0 0 0
281 1 1 -2.5201808707627067 11.46196739573214 9.923958888305732 0 0 0
278 1 1 -2.4984123698091723 11.0656398302025 12.319461889312691 0 0 0
279 1 1 -2.6510828414503873 11.720533784531378 11.645394323246355 0 0 0
280 1 1 -2.067882595200007 11.486575468799128 10.864706121959248 0 0 0
277 1 1 -2.1126789457204276 10.245210903764123 12.666028354855918 0 0 0
263 1 1 -0.532910154400223 5.69714934867902 14.198850146736499 0 0 0
262 1 1 -0.79942797491148 5.5534634328460815 13.319680843639816 0 0 0
267 1 1 -2.5801311298951592 6.205856929388998 15.315135485852565 0 0 0
264 1 1 -1.0697004409887594 6.458506495630967 14.24385297301563 0 0 0
270 1 1 -3.412659332570009 8.502924728603293 15.542770746218077 0 0 0
272 1 1 -3.915416391925515 7.835782294688293 14.344147732011043 0 0 0
271 1 1 -4.187223164156245 8.59520761420239 14.883884438015068 0 0 0
273 1 1 -3.390262108793993 8.542203425420896 13.771784866806595 0 0 0
265 1 1 -1.3523900874434112 6.602630541423605 15.167477285055849 0 0 0
266 1 1 -2.15815877761988 6.971468055773222 14.843067948621925 0 0 0
268 1 1 -3.0109431482476197 6.986668046666408 15.545407171449023 0 0 0
275 1 1 -2.1283510529098786 8.893800836105605 13.435782695593916 0 0 0
269 1 1 -2.692043892110425 7.824840515507307 15.861803588297551 0 0 0
274 1 1 -2.5023563532519226 8.134824782714677 13.87657056011168 0 0 0

Velocities

69 0.8674103046001803 -1.5317527225369767 -0.5315133008174457
62 -1.056588044752681 0.8909364489181397 0.500488916614651
61 -0.0824811251870041 -0.8866765462163765 0.1409131542161746
65 0.6301552212807541 -0.2799662454773347 0.015665736892992912
57 -0.424494631692709 1.6813224290875068 0.06151079655474589
60 -1.6603565268083995 -1.0171218205279258 0.05610484712193876
58 0.5662354970948569 -0.24860845888203156 0.0843196656080003
55 0.5819310261788425 -1.8129719907281905 0.6394413570569409
59 -0.31810157132611944 0.8102509128359632 1.0506542710347082
56 -1.3782774024638202 -0.27558289011491693 -1.4931725890617034
54 0.7997817828561449 -0.163784747925629 -0.14399266046698941
53 -1.090274712237703 -0.3081365858266916 0.22500637416619557
70 0.9899817164924765 1.0085009457874408 1.0906617787053268
71 -0.09779448103731776 0.6122962840229593 -0.41929263949321205
72 -0.623840763851352 0.45182208172195865 1.433827312552643
146 -0.2281894793215456 -0.038237663298922496 -0.5120127742156537
148 -0.6847764093332875 0.34941580279892615 -1.1745269395777558