LAMMPS data file via write_data, version 29 Sep 2021, timestep = 103000000

405 atoms
3 atom types
405 bonds
2 bond types

-48 48 xlo xhi
-48 48 ylo yhi
-48 48 zlo zhi

Masses

1 1
2 1
3 1

PairIJ Coeffs # lj/cut

1 1 1 1 1.12246
1 2 1 1 1.12246
1 3 1 1 1.12246
2 2 1 1 1.12246
2 3 1 1 1.12246
3 3 1 1 1.12246

Bond Coeffs # fene

1 30 1.5 1 1
2 30 1.5 1 1

Atoms # bond

24 1 1 -3.6143232518544703 2.6968880534371986 -14.98456804598973 0 0 0
23 1 1 -3.102919819369119 3.205687146361065 -14.33851670669763 0 0 0
22 1 1 -3.5138096446425595 4.110419149091756 -14.497139707471314 0 0 0
21 1 1 -4.058249308397205 4.768223427655185 -14.86040131298657 0 0 0
19 1 1 -5.143199735823471 5.478114744246961 -14.450321648983582 0 0 0
29 1 1 -6.796289243875144 0.1820781819335586 -13.82398593984679 0 0 0
28 1 1 -6.021146268823089 0.7750282251850198 -13.743376641310455 0 0 0
27 1 1 -5.529516009449615 1.6549221224219839 -13.62078797770812 0 0 0
25 1 1 -4.183822145598633 2.32573916022466 -14.245015648568872 0 0 0
20 1 1 -4.322201548039979 5.127135128747181 -14.039318100330076 0 0 0
18 1 1 -4.598964029890335 6.20553727869849 -14.181346155777005 0 0 0
33 1 1 -8.751005977268369 0.13301565597418866 -13.281268442271017 0 0 0
31 1 1 -7.900872741380041 0.7997902568258353 -13.187312192065564 0 0 0
30 1 1 -7.0919323959436085 1.1306972592080675 -13.565866978825943 0 0 0
26 1 1 -4.832773267617644 2.3150429181060037 -13.506563961287865 0 0 0
17 1 1 -5.238363739820421 6.053199729159192 -13.455548914792498 0 0 0
16 1 1 -5.195882016527734 7.007198663301159 -13.273642946604408 0 0 0
11 1 1 -2.9479429562773567 8.162348561258774 -13.109997773873598 0 0 0
32 1 1 -7.8927362939209145 -0.05837053062802331 -12.777811066511513 0 0 0
34 1 1 -8.821778547571274 0.4366283216185318 -12.375174284451166 0 0 0
36 1 1 -10.065133908843926 1.1397188044241935 -12.549998056681938 0 0 0
37 1 1 -9.178891314746057 1.6452458069467677 -12.569903131218648 0 0 0
42 1 1 -6.481203812692133 3.6518043227216404 -12.214852385691483 0 0 0
15 1 1 -4.784490311374976 7.636994538970447 -12.65451059226731 0 0 0
10 1 1 -3.1744759435775114 7.832275079338202 -12.20275596101765 0 0 0
13 1 1 -4.280678541658849 8.7671950946604 -12.838332815188464 0 0 0
12 1 1 -3.327436249382736 8.795621876923448 -12.476523537199725 0 0 0
35 1 1 -9.534338155674316 0.8987724482593762 -11.782649390738358 0 0 0
38 1 1 -8.826869958563856 2.10256972721476 -11.846361015760564 0 0 0
39 1 1 -7.974203789520794 2.5748846659090514 -11.615358914900098 0 0 0
40 1 1 -6.989074610306917 2.433362092534179 -11.528385239994076 0 0 0
41 1 1 -7.191418970032085 3.3760370347129953 -11.568313362601934 0 0 0
14 1 1 -4.370703689277736 8.273479687252943 -11.994061152435302 0 0 0
7 1 1 -2.133692709905458 9.0750970481246 -11.848404701917113 0 0 0
43 1 1 -6.152528657913712 3.707404681303625 -11.331765691382223 0 0 0
9 1 1 -2.7824847058469024 8.005931653891562 -11.345988725555495 0 0 0
8 1 1 -1.9815533605405369 8.481635000358107 -11.136081047087348 0 0 0
6 1 1 -2.1904327527529897 9.485230320781655 -11.021873848495922 0 0 0
3 1 1 -1.1963222000440767 10.741900434815275 -10.935632743718223 0 0 0
45 1 1 -7.206302252743506 2.787755284913638 -10.606981701982317 0 0 0
44 1 1 -6.336096325710492 3.227231503515897 -10.472075244473197 0 0 0
5 1 1 -2.139285545354039 10.028921339620997 -10.229242831687241 0 0 0
4 1 1 -1.1670869033814295 10.2822318728097 -10.099085452357683 0 0 0
1 1 2 -0.6355206384819009 11.163519820482218 -10.120929673525668 0 0 0
2 1 1 -1.371763766598959 11.601158421581825 -10.501682228076577 0 0 0
46 1 1 -7.584863927839385 2.2113220282762898 -9.930911833155676 0 0 0
53 1 1 -9.902075446796776 0.5510222225310191 -8.827372433546016 0 0 0
52 1 1 -9.362283043029603 1.3099001052021881 -8.684804638557463 0 0 0
47 1 1 -8.136781204444627 2.184966467130241 -9.121503158446789 0 0 0
48 1 1 -8.60314860519479 2.8917115689636836 -8.621665358295648 0 0 0
405 1 1 -0.721894347764113 11.436062420413498 -9.220230576821086 0 0 0
403 1 1 0.08577169570960996 12.467009718679858 -8.913023609810667 0 0 0
54 1 1 -10.591460338075647 0.34333654229338956 -8.098334450872468 0 0 0
51 1 1 -9.981674479512082 1.5279614042927052 -7.981948468062639 0 0 0
404 1 1 -0.6670057842264974 12.052464903416341 -8.498208394880786 0 0 0
402 1 1 0.7312910970870401 13.007417035676546 -8.444659105310812 0 0 0
55 1 1 -9.918494159000806 0.3211052936794289 -7.4559364422321925 0 0 0
50 1 1 -9.578803991646708 2.2785730385379286 -7.595914923937416 0 0 0
49 1 1 -9.030383514513602 3.0653247951460174 -7.80614431264435 0 0 0
401 1 1 0.5062299031226886 13.390849101274869 -7.5707368629361955 0 0 0
399 1 1 -0.7896740403228836 14.477485037655585 -7.489218734282076 0 0 0
398 1 1 -1.4642875665295305 15.093572049182121 -7.817449798219709 0 0 0
56 1 1 -9.24809328261932 -0.03130146395213332 -6.887844164526865 0 0 0
394 1 1 -1.2010656572902654 14.08960326109359 -6.464380896507373 0 0 0
400 1 1 -0.10832037404900398 13.941945397244288 -7.067240967968516 0 0 0
397 1 1 -1.0654115979562064 15.508589110400225 -6.964453924441438 0 0 0
396 1 1 -0.20043010057735947 15.135382814850344 -6.953880909831652 0 0 0
57 1 1 -9.025900039363515 -0.8243936061535627 -6.34256313639772 0 0 0
61 1 1 -11.679137248087866 -0.2796604503788377 -6.402286462628072 0 0 0
60 1 1 -10.736529376900483 -0.2602379098418439 -6.302067722900681 0 0 0
58 1 1 -9.236995717765422 -0.046765913291589564 -5.844327146841446 0 0 0
393 1 1 -0.8385780465586418 13.470661963891617 -5.811358618589708 0 0 0
395 1 1 -0.3712784443836386 14.536431114808478 -6.296660823801776 0 0 0
62 1 1 -11.783173366862336 -1.01060285992754 -5.716580466201428 0 0 0
63 1 1 -12.27523110411061 -0.26779982782718953 -5.382356482159949 0 0 0
59 1 1 -10.160539899652735 -0.2765289433170897 -5.544471702772484 0 0 0
392 1 1 -1.2013605891635528 14.002687213074148 -5.192018167048318 0 0 0
156 1 1 -6.874417551484482 -10.515199686558292 -4.81165372534642 0 0 0
155 1 1 -6.0145946619842015 -10.703751388967518 -4.4652217976790824 0 0 0
64 1 1 -12.175185349658733 0.1817501911816774 -4.515523725253821 0 0 0
65 1 1 -11.256367422019029 0.37998559549018585 -4.476954466562333 0 0 0
391 1 1 -1.6953242300168452 14.522884953639348 -4.593763611982116 0 0 0
149 1 1 -3.249339425361101 -13.13465586869302 -3.9386207914028293 0 0 0
151 1 1 -4.0573277172752205 -12.185230346766776 -4.235384416524969 0 0 0
150 1 1 -3.084300041945869 -12.238772545701107 -4.080896272207189 0 0 0
154 1 1 -5.534869552130852 -10.371799802524473 -3.72192828445144 0 0 0
157 1 1 -7.376886779755559 -9.959797649600885 -4.248578476177612 0 0 0
66 1 1 -10.695403274511557 0.7577090944749161 -3.7907001248282213 0 0 0
390 1 1 -1.2324193081331587 14.459563385645096 -3.711986889425078 0 0 0
389 1 1 -0.23535748594712733 14.366403272726808 -4.0105286730424785 0 0 0
387 1 1 0.059423082015522904 16.145438548921984 -3.8220720787218587 0 0 0
148 1 1 -3.909891276479307 -13.762856049443762 -3.5728075799569328 0 0 0
152 1 1 -4.752634661387364 -11.949091123781882 -3.5201474629758684 0 0 0
153 1 1 -5.310109954822423 -11.205740986820015 -3.3881623146487203 0 0 0
158 1 1 -7.254106765619167 -9.976624039198825 -3.288847560581945 0 0 0
69 1 1 -10.941990445409546 -1.4594901859268554 -3.1807188980302668 0 0 0
67 1 1 -11.137414617597333 0.04809282989473043 -3.3212532741564043 0 0 0
388 1 1 -0.24218135385463696 15.251796369510162 -3.578700506249769 0 0 0
386 1 1 0.48541557954371467 16.569701497706887 -3.0847914304219417 0 0 0
146 1 1 -5.001395277337012 -13.739038278313467 -2.4305724963345696 0 0 0
147 1 1 -4.0800595994287026 -13.999401916176357 -2.6937196771067264 0 0 0
145 1 1 -5.50927633034344 -12.992161979818027 -2.6815430411193883 0 0 0
141 1 1 -7.607360586504176 -12.42713048380237 -2.215776112353649 0 0 0
144 1 1 -5.648984373438428 -12.07441821804208 -2.3508648404710275 0 0 0
159 1 1 -7.336436323795227 -10.22308463837346 -2.316512714438814 0 0 0
160 1 1 -8.113357607340223 -9.703830957566112 -2.336913604802234 0 0 0
172 1 1 -5.246099964825825 -8.198964916591313 -2.3688087950286536 0 0 0
70 1 1 -10.976674676316726 -1.7553413391588844 -2.2038512997298634 0 0 0
68 1 1 -10.6058059574581 -0.5708746698011339 -2.8030901397701085 0 0 0
274 1 1 12.544279752715969 4.0814722173315845 -2.1792921311734363 0 0 0
381 1 1 0.08692591252106349 13.716636808207635 -2.184782598994986 0 0 0
383 1 1 0.0388921818530598 15.228910226447665 -2.338894817163558 0 0 0
385 1 1 -0.44521380836621754 16.369460192375755 -2.844548765763989 0 0 0
140 1 1 -8.152502895629967 -13.012540499421027 -1.7021040596305017 0 0 0
143 1 1 -6.3230839488019575 -12.568091351450452 -1.8317025643564484 0 0 0
142 1 1 -7.048160169306129 -12.085137699597386 -1.5209685250355887 0 0 0
162 1 1 -9.045870188698627 -9.814358022176917 -1.435877177408159 0 0 0
161 1 1 -8.441837750649553 -9.145405798547479 -1.618694263779033 0 0 0
171 1 1 -5.46833773953327 -8.75652863356069 -1.5909085511043086 0 0 0
173 1 1 -4.974113947019493 -7.392471719412807 -2.0308108815748036 0 0 0
175 1 1 -4.389151810885983 -6.1135911366845574 -1.4827112602731798 0 0 0
191 1 1 0.038872329369626556 -4.041306147489585 -1.5697315896244075 0 0 0
192 1 1 0.8389900481866845 -4.03861555056293 -2.148856568019631 0 0 0
193 1 1 0.8206864783604454 -3.3554584213265684 -1.4791279133054034 0 0 0
72 1 1 -9.805773961929882 -2.404864406547199 -1.6424057291627225 0 0 0
71 1 1 -9.98827234030221 -1.5950564503458096 -2.069462309938716 0 0 0
277 1 1 10.70695498020116 2.5680447133816484 -1.4724580794502913 0 0 0
276 1 1 10.729886214649413 3.3290693382234506 -2.050232543341272 0 0 0
275 1 1 11.652487953181453 3.656256450728749 -2.0764589535537024 0 0 0
380 1 1 -0.09308250019490556 12.92230266695287 -1.6718141399729793 0 0 0
382 1 1 0.18329558335197035 14.503766363125358 -1.665920223693291 0 0 0
384 1 1 -0.19227512894031326 16.07421039413542 -1.927655653968016 0 0 0
104 1 1 -3.2168979007259506 -13.261752068507095 -1.408651544790769 0 0 0
135 1 1 -10.763425246308508 -12.709326947051139 -1.2419676641997035 0 0 0
138 1 1 -9.368097323830504 -12.835755660085157 -0.7949476980633005 0 0 0
139 1 1 -8.59973322673296 -12.304412331614337 -1.205070357362754 0 0 0
105 1 1 -3.5599581253011947 -12.3533489081711 -1.4025578979942432 0 0 0
106 1 1 -4.177613670792543 -11.679813472296528 -1.126763776532703 0 0 0
168 1 1 -6.184236162583178 -10.749722374222944 -0.8968509663392585 0 0 0
163 1 2 -8.093669464211294 -10.063350800220476 -1.043098414086769 0 0 0
170 1 1 -6.040490831472753 -9.482857195503499 -1.3432574309979721 0 0 0
174 1 1 -4.550007912243347 -7.0549865152607 -1.1781656742557711 0 0 0
176 1 1 -4.411317407297039 -5.573766214005008 -0.7423618225236638 0 0 0
177 1 1 -4.5292341959612745 -4.7913185536937295 -1.3067085614164873 0 0 0
190 1 1 -0.7356179692202581 -4.479015622111142 -1.3010432276792199 0 0 0
178 1 1 -3.774076181768513 -4.200726355786644 -1.3201274130565328 0 0 0
179 1 1 -4.178744460357957 -3.360132506433186 -1.0808324970363765 0 0 0
73 1 1 -9.103091010705116 -2.180859634304588 -1.0966324462101904 0 0 0
181 1 1 -4.384382777425976 -1.8633986069526958 -0.8157245219724516 0 0 0
74 1 1 -8.545153965857029 -1.3864187560058316 -0.8341510665592563 0 0 0
75 1 1 -7.587634686516172 -1.2448873962161051 -1.0394203399992075 0 0 0
279 1 1 8.996722449051495 2.2558348826615853 -0.8914149363043998 0 0 0
278 1 1 9.94124303807156 2.1807755996467133 -1.126365994516587 0 0 0
273 1 1 12.690292106420353 4.677626432955697 -1.3861283272313523 0 0 0
272 1 1 12.75934500594064 5.368854371835019 -0.7253336987972749 0 0 0
378 1 1 0.09090323753470807 13.174286720127123 -0.7393227862607898 0 0 0
379 1 1 0.8186388980530703 13.054645463445565 -1.3542741390475026 0 0 0
103 1 1 -3.3285027789848916 -13.969537510452616 -0.6987146887027367 0 0 0
134 1 1 -11.338789349919074 -13.244692637667075 -0.7011065073445505 0 0 0
136 1 1 -10.351533486751446 -13.11838626950218 -0.5039656382929096 0 0 0
108 1 1 -4.944182374108913 -13.14835656934346 -0.5901665619565124 0 0 0
102 1 1 -2.9130555454493856 -13.473083688837916 -0.024838600522744142 0 0 0
107 1 1 -4.254853057334069 -12.41479794934457 -0.5674493987466168 0 0 0
167 1 1 -6.59631855466681 -11.309960954896965 -0.23438877028959548 0 0 0
97 1 1 -3.3964545067093885 -11.14499919598616 -0.5546546619723778 0 0 0
166 1 1 -7.4816564676859825 -10.734438539229377 -0.1284459784233435 0 0 0
96 1 1 -4.1725403222263875 -10.647974538648814 -0.14801021696467223 0 0 0
164 1 1 -8.342992764390486 -9.460663826962048 -0.3586828590492763 0 0 0
169 1 1 -5.8235189921382045 -9.93695574470695 -0.5492258407958476 0 0 0
90 1 1 -5.659162690756673 -6.731640320745279 -0.23807087287708725 0 0 0
189 1 1 -0.861590644133156 -4.370803496870104 -0.2598009207312383 0 0 0
195 1 1 1.6351612199610377 -3.9885217858374022 -0.2218796080367821 0 0 0
194 1 1 1.4208073996958053 -3.240268598997889 -0.6978887049339925 0 0 0
180 1 1 -4.602248166636997 -2.7011939670905694 -0.46080158908704655 0 0 0
185 1 1 -1.743240179268911 -2.4966718300160706 -0.26833769778342853 0 0 0
186 1 1 -0.7840049744895083 -2.7887346215790836 -0.14516354888347813 0 0 0
76 1 1 -7.339827191464682 -1.497469336308761 -0.12350276747590261 0 0 0
182 1 1 -3.5138367310482614 -1.440930346844482 -0.703294092313715 0 0 0
77 1 1 -6.372270036714608 -1.1883367189928795 -0.17021502293043406 0 0 0
280 1 1 8.12806165804115 2.618267781268716 -0.7067346815851658 0 0 0
271 1 1 13.162137319701124 4.668888158499742 -0.21693313756053886 0 0 0
377 1 1 0.6807959802000935 12.583107820207813 -0.2139607617840199 0 0 0
133 1 1 -11.74201785792132 -13.068596971247675 0.15227611078997785 0 0 0
137 1 1 -9.594752576293176 -13.429674524083529 0.049464924381427536 0 0 0
110 1 1 -6.186482403524833 -13.241124574423765 0.5419781157190282 0 0 0
109 1 1 -5.334118618291937 -12.849894947929801 0.1807170469070273 0 0 0
101 1 1 -2.450127543449798 -12.876434384363108 0.679752069549054 0 0 0
98 1 1 -3.8968562464832663 -11.621343496426322 0.1674294808592368 0 0 0
99 1 1 -2.9936102086474907 -11.88169675928297 0.2071151508260284 0 0 0
165 1 1 -8.264342363281378 -10.297969727532816 0.13441881257478072 0 0 0
95 1 1 -4.263248162356504 -10.0462167441599 0.6266010606526804 0 0 0
92 1 1 -5.60097062727592 -8.472325569151982 0.3347125586788289 0 0 0
91 1 1 -5.8201748005154865 -7.5657244098749254 0.22146736142863713 0 0 0
89 1 1 -5.903713462804063 -6.407762407102338 0.6185227104408467 0 0 0
85 1 1 -4.906482553831863 -5.892163162020269 0.6771349304209671 0 0 0
83 1 1 -4.799718126492646 -4.5211204033077 0.47011686462735974 0 0 0
82 1 2 -5.586117541837415 -4.242460683010971 0.06980805458344885 0 0 0
188 1 1 -0.466073917778263 -4.061099210966451 0.5832390876926941 0 0 0
196 1 1 1.9378816715775415 -3.842290743169015 0.6335168524332312 0 0 0
81 1 1 -5.386464271174331 -3.288940413308106 0.17882325160267448 0 0 0
187 1 1 -0.09777700612186255 -3.3748681972761405 0.03908227513083665 0 0 0
184 1 1 -2.5376776006380464 -2.244798930571877 0.30862300225346245 0 0 0
79 1 1 -5.8189056197118845 -2.074742361314368 0.3459300435710352 0 0 0
183 1 1 -3.1185793697113104 -1.5144706979598772 0.26016086773312197 0 0 0
78 1 1 -5.80622769966496 -1.1358495573541278 0.5896373397273142 0 0 0
282 1 1 7.232095679308697 2.718257250357775 0.09516376454105446 0 0 0
281 1 1 8.239494309369965 2.6504943214117684 0.25413943984163134 0 0 0
270 1 1 13.07692573023862 4.114229862007638 0.5469821158299262 0 0 0
372 1 1 -1.9481673410603164 11.83165725613456 0.6542663011159677 0 0 0
376 1 1 -0.12791217843653566 12.136791262095176 0.03262357661957608 0 0 0
111 1 1 -5.407321165090702 -13.489743073275294 1.0240311669445736 0 0 0
132 1 1 -11.739364832916076 -12.796348745327858 1.0658455045608255 0 0 0
100 1 1 -3.346636169395509 -12.544041406752324 0.8050377539434674 0 0 0
94 1 1 -4.560373372827825 -9.497954474984008 1.390351245156344 0 0 0
93 1 1 -5.345447214379484 -8.98219496825073 1.1947897699863799 0 0 0
88 1 1 -5.384003476847585 -6.889641601264452 1.2639237847454747 0 0 0
86 1 1 -4.222498902273515 -6.500047509443446 1.1007931883560165 0 0 0
84 1 1 -4.811958603483356 -5.127137371783138 1.2257523342641443 0 0 0
80 1 1 -5.463061598112887 -2.7550022195862605 0.9484639518403947 0 0 0
283 1 1 6.550656887521251 2.8175948827280672 0.7648747800984834 0 0 0
267 1 1 12.906433365424764 3.083354909938798 1.1592038530302948 0 0 0
269 1 1 12.823673588373898 4.797925251655392 1.1618791667623096 0 0 0
373 1 1 -1.9682764063108 11.227917596786584 1.4059219242540404 0 0 0
374 1 1 -1.1434260520438406 11.255860161482394 0.90372511823642 0 0 0
371 1 1 -2.887626624141127 11.873387482322167 0.9359060818784636 0 0 0
375 1 1 -0.24030213164640066 11.641092955514107 0.8251066148681903 0 0 0
370 1 1 -3.51091736538897 12.355949680162823 1.401463195102987 0 0 0
131 1 1 -11.00965572260743 -12.518940737041785 1.7165115188607538 0 0 0
112 1 1 -5.261478401754808 -12.801044180419893 1.7400317142175588 0 0 0
113 1 1 -5.759900077065784 -12.12429195980289 2.146712638853981 0 0 0
87 1 1 -4.652153486175997 -6.800949033002718 1.9302544684689151 0 0 0
197 1 1 1.5924963690747485 -4.048741074323843 1.5211925016317895 0 0 0
265 1 1 11.777750009261897 1.8424898292030596 1.8077803076000347 0 0 0
266 1 1 12.544874678899651 2.4650730740835605 1.8002664710263852 0 0 0
284 1 1 6.077068279100887 3.0186113138904536 1.5958269698368641 0 0 0
268 1 1 12.997935580513428 3.9326380234692646 1.6043275045726066 0 0 0
287 1 1 6.325683222561431 4.953242035242131 2.123315316513156 0 0 0
288 1 1 5.778993909348936 5.71510614986266 2.0681599982213172 0 0 0
289 1 1 5.716810849224468 6.552869974148494 1.526620574074851 0 0 0
369 1 1 -3.2415241070570606 13.132343052037603 1.8311622703757655 0 0 0
129 1 1 -11.419799469141301 -12.434666246227804 2.763929900043973 0 0 0
114 1 1 -6.457389759591935 -12.293972076266504 2.765752163133716 0 0 0
130 1 1 -11.00072524175648 -11.715409289232266 2.2808099520315537 0 0 0
198 1 1 1.8818378723309575 -3.365897931877702 2.2660135745319394 0 0 0
248 1 1 9.79523522255508 -3.0524380418070574 2.704698478993556 0 0 0
199 1 1 1.997576388078034 -2.378006767747547 2.193241042612418 0 0 0
201 1 1 3.8047646068112444 -2.3803123592068656 2.29362481823545 0 0 0
200 1 1 2.877290480747348 -2.0508365908410733 2.309273694265684 0 0 0
264 1 1 12.435477887947778 1.3289353219904507 2.2682865466413613 0 0 0
285 1 1 6.403243232936566 3.3961423598910065 2.45379339080239 0 0 0
286 1 1 6.9463560371539765 4.199457237392045 2.219097076577403 0 0 0
290 1 1 6.284218445807588 6.81468289263242 2.3413467968404778 0 0 0
368 1 1 -2.91395255845016 12.290575669509547 2.2711889290586793 0 0 0
115 1 1 -6.478404861214817 -13.210644889170863 3.0935092964415167 0 0 0
243 1 1 8.035505804042481 -4.489188068338946 2.9747481191778182 0 0 0
244 1 2 8.72263727761929 -4.2203565259577065 3.571844575027443 0 0 0
245 1 1 9.535705150626313 -4.2203281759286915 3.126186061788647 0 0 0
247 1 1 10.186415915966766 -3.3918968054113527 3.4906117401474215 0 0 0
202 1 1 3.6106192841040583 -2.3837068640558523 3.1902745157420958 0 0 0
249 1 1 10.057729838272946 -2.216061008621684 3.0203345507771218 0 0 0
250 1 1 11.024286280898174 -2.168876955889829 3.0088006633270923 0 0 0
251 1 1 11.92883807245441 -2.20327797701745 3.3845504650820897 0 0 0
263 1 1 12.219919406210305 0.8625686417246853 3.1260440452403717 0 0 0
291 1 1 6.34243489605091 6.7777351403595425 3.354169083382076 0 0 0
367 1 1 -2.1675464438242207 12.348961979361045 2.888944227397334 0 0 0
366 1 1 -1.2403429164989725 12.55254897360855 3.301498179807825 0 0 0
116 1 1 -6.619487979906285 -12.948011387446348 4.003892442883641 0 0 0
128 1 1 -11.63552851673504 -12.231244945616512 3.7144856130324353 0 0 0
127 1 1 -10.711229075519089 -12.10707030951243 3.8675297512657223 0 0 0
214 1 1 3.11450434480829 -7.203245320552157 3.786803952400978 0 0 0
209 1 1 5.381503931581069 -6.072815335159756 4.121719579525838 0 0 0
241 1 1 7.4199358587076425 -5.675019445917245 3.9882501408698543 0 0 0
242 1 1 8.090261549238859 -5.111606217271075 3.670552905649056 0 0 0
205 1 1 3.6107395774561755 -4.104637306531557 3.9843726547788543 0 0 0
246 1 1 9.690644054716778 -4.111020531654867 4.024307882742207 0 0 0
253 1 1 11.783178937369788 -3.6914787286827258 3.7295357463412104 0 0 0
252 1 1 12.230156239768375 -2.9195036184006398 3.9489312387978 0 0 0
203 1 1 3.1537856269234283 -2.617541289395975 3.986747523663035 0 0 0
261 1 1 12.587710339971686 -0.5858221622803759 4.206805375426484 0 0 0
262 1 1 12.56718123284661 0.21687482750284853 3.7651148853117298 0 0 0
313 1 1 10.38855449937797 6.418218345432782 4.144252017151293 0 0 0
315 1 1 12.24628836830899 6.260248040767592 3.6969774928154537 0 0 0
316 1 1 13.079477228966756 6.195519288865121 4.1680864920891425 0 0 0
292 1 1 6.589034609991723 6.699591208677032 4.2541299393662895 0 0 0
314 1 1 11.249537892473482 6.536673867042409 3.643026866099694 0 0 0
365 1 1 -0.578051180686869 12.065365388894541 3.825245108571192 0 0 0
363 1 1 -0.8208638509884726 13.227949574975781 4.260039919040634 0 0 0
362 1 1 0.1584378452076022 13.507692186199028 4.169621457272062 0 0 0
117 1 1 -7.347252194111863 -12.902049014356237 4.709983401910711 0 0 0
126 1 1 -10.78702603110475 -11.776563031460816 4.777074621786401 0 0 0
118 1 1 -7.028806958151223 -12.103271508451229 4.411384166350109 0 0 0
215 1 1 2.691022475788179 -7.330054799654331 4.697906195433471 0 0 0
213 1 1 3.8043007991399276 -7.540423831985477 4.3711583236675144 0 0 0
212 1 1 4.695338719816155 -7.685975470018786 4.679164052947981 0 0 0
210 1 1 4.815345363768223 -6.317221984561168 4.921807259884058 0 0 0
239 1 1 6.368471702817201 -6.407074039899267 4.9918529873649655 0 0 0
240 1 1 6.507433780002446 -5.758910265217304 4.3168026615631065 0 0 0
208 1 1 4.852218281144564 -5.316379038388424 4.502107264592118 0 0 0
206 1 1 4.187193078143239 -4.379786079069295 4.748071377275296 0 0 0
254 1 1 11.773732397837868 -4.352919102418821 4.429818486684519 0 0 0
255 1 1 11.60101757360075 -3.591449622383805 4.998927243271986 0 0 0
204 1 1 3.122757382954033 -3.477679700047453 4.514174469811596 0 0 0
257 1 1 12.492764641103758 -2.2124619544056507 4.825838923580264 0 0 0
312 1 1 10.120336306355117 6.884783585160974 4.959045758159461 0 0 0
317 1 1 13.435623357680463 6.548173332654766 4.975996694325702 0 0 0
293 1 1 6.270314576566567 7.186187282484108 5.009414302479531 0 0 0
357 1 1 1.0363973271742504 11.526515563130435 4.306175810714158 0 0 0
364 1 1 -1.3033671819464534 12.331597562907287 4.38139320832426 0 0 0
125 1 1 -10.695372512014472 -12.266912150434496 5.616432237108143 0 0 0
124 1 1 -9.818569163924074 -12.357196677149188 5.618186722076709 0 0 0
119 1 1 -7.696262884866225 -11.64030089525937 5.056948289669237 0 0 0
120 1 1 -7.004585376288952 -12.147189449139082 5.54228636145331 0 0 0
228 1 1 4.545322713662747 -11.89613731962351 5.399776356545896 0 0 0
229 1 1 5.439475773640037 -11.605502371990829 5.714578535013213 0 0 0
227 1 1 3.754343334858251 -11.33702303236141 5.299959963297935 0 0 0
218 1 1 2.380351013859328 -9.092907496631275 5.459687992398212 0 0 0
217 1 1 1.9261283357121755 -8.295834285247201 5.022333298672981 0 0 0
216 1 1 2.4526212580852738 -7.644166781298672 5.580082655248365 0 0 0
238 1 1 7.042931895612889 -7.1743613765026115 5.136355736027835 0 0 0
237 1 1 7.801280481091808 -7.853517797861459 5.33314491343531 0 0 0
211 1 1 4.471863809827584 -7.035235849123293 5.422807522595444 0 0 0
207 1 1 5.121579406341405 -4.596533861464346 5.057026447158893 0 0 0
256 1 1 11.924894260129344 -2.785277464916184 5.3792469912212715 0 0 0
258 1 1 13.368692077797037 -1.744071503034622 5.158030102610456 0 0 0
259 1 1 13.182443403382333 -0.8519099738799173 5.627559783114534 0 0 0
260 1 1 12.431261076107923 -0.4192798530520946 5.129881390941552 0 0 0
311 1 1 9.531005005178567 6.241739941755109 5.317699781416372 0 0 0
318 1 1 13.373644850225068 5.954299302393928 5.709148573790987 0 0 0
319 1 1 14.263711445532849 5.9719265817210845 5.343033245405378 0 0 0
295 1 1 5.541182042318598 6.541964157185702 5.451235319431646 0 0 0
294 1 1 5.417116923026226 7.428987703257884 5.0902782426284885 0 0 0
356 1 1 1.2996735645747737 10.949746444042319 5.080421722681266 0 0 0
355 1 1 1.9912356804332212 11.394946387874247 5.595047113190772 0 0 0
359 1 1 -0.25874854810163367 11.981322386039743 5.321384410741791 0 0 0
358 1 1 0.7020180697529842 11.839245799909717 5.135017681037609 0 0 0
360 1 1 0.09205169186664604 12.881170343577313 5.340804588465504 0 0 0
361 1 1 0.12198578958785944 13.77374569567514 5.083924223735217 0 0 0
123 1 1 -9.344411117101004 -12.130533240952833 6.401275214296989 0 0 0
121 1 1 -7.8479551504076595 -12.045101111331329 6.024041397283865 0 0 0
226 1 1 4.040585932791052 -11.195987618366578 6.166488531524709 0 0 0
220 1 1 1.922753295896651 -10.140670559792342 6.360450854022424 0 0 0
233 1 1 6.754186548093423 -10.235605214080671 5.990565498988561 0 0 0
219 1 1 2.6275925439608954 -9.558071982847842 6.278428235339338 0 0 0
234 1 1 7.21421604126229 -9.498629254731796 6.255289694778522 0 0 0
235 1 1 8.127983540623124 -9.358194905318227 5.9053223379193085 0 0 0
236 1 1 7.910499916042772 -8.441079037839941 6.125943492680962 0 0 0
296 1 1 5.342447466962994 5.7499949739271825 6.016832536425545 0 0 0
320 1 1 14.028080418327777 6.408687513861536 6.220415397307065 0 0 0
309 1 1 9.294705744750669 6.964323851271557 6.3383656242386825 0 0 0
310 1 1 10.066678743056697 6.511327860145319 6.093050795661889 0 0 0
354 1 1 1.6207082702922009 10.735999693087917 6.2603648016073565 0 0 0
224 1 1 3.029149605810716 -12.373072338152719 6.4674919985967 0 0 0
122 1 1 -8.546356463518618 -11.57372947522599 6.493072211670366 0 0 0
225 1 1 3.846521037193918 -11.994239748162183 6.674297282983802 0 0 0
230 1 1 5.707758962616118 -11.834184611020632 6.610135714544813 0 0 0
231 1 1 6.612236268572028 -11.607543024073792 6.833793706398701 0 0 0
222 1 1 2.312246615154418 -10.924642891134694 7.14359255380061 0 0 0
232 1 1 6.144196806729674 -10.830015422771645 6.492048936702647 0 0 0
297 1 1 6.0453674144709115 6.167602029163761 6.5396367663760255 0 0 0
308 1 1 9.703752031395997 6.3080572662036785 6.945079356861505 0 0 0
321 1 1 13.956141671947933 7.300784497264296 6.468935180853466 0 0 0
322 1 1 14.25417844455704 8.182182157925233 6.683772828075915 0 0 0
223 1 1 2.849809148279541 -11.766695883268339 7.168450105208703 0 0 0
221 1 1 1.681197671800935 -10.227004048098586 7.275197040899346 0 0 0
298 1 1 6.699652701672016 6.09786235454623 7.271880194100656 0 0 0
307 1 1 10.414708643418763 5.842319456297125 7.442327039044619 0 0 0
299 1 1 5.972683956461616 6.5260197382458935 7.853124171448891 0 0 0
340 1 1 6.725765169787679 8.100168928331549 7.851540935049044 0 0 0
323 1 1 14.589891459691652 8.093117393235806 7.5872038856140165 0 0 0
346 1 1 4.660413676965426 9.996909433607437 7.211389283790432 0 0 0
353 1 1 1.5605107570995789 10.735866497950859 7.189696972647977 0 0 0
352 1 1 2.235143381858892 10.843075486541744 7.838813276546229 0 0 0
347 1 1 4.409260488320886 10.920817670949514 7.338563616416895 0 0 0
306 1 1 10.009782537320097 6.353841723111322 8.199665315019462 0 0 0
301 1 1 7.455569775209979 6.9309658136430485 8.43532605992343 0 0 0
341 1 1 5.952450250849383 7.819886978598796 8.339366776113664 0 0 0
326 1 1 12.265404327829332 7.435786276830125 8.408672128130354 0 0 0
325 1 2 13.214193670172355 7.79991659358557 8.541143126381888 0 0 0
324 1 1 13.86432913949686 8.397744905398387 8.174175629572291 0 0 0
343 1 1 4.813917901565271 8.807794083520047 7.899424959688905 0 0 0
339 1 1 6.745493518296555 8.81520835961933 8.486850690719734 0 0 0
345 1 1 4.230265949873329 9.934449176119095 8.112427174284962 0 0 0
344 1 1 5.123825301209127 9.555198102085756 8.403965302888741 0 0 0
336 1 1 7.75845215348499 10.380813295558248 8.438291641249554 0 0 0
348 1 1 3.9026021417829186 10.928814547811413 8.222378297750577 0 0 0
351 1 1 2.1483529658787544 11.868611474133699 7.960408806121864 0 0 0
350 1 1 3.0080082226302225 11.640532320825812 8.372814393799626 0 0 0
305 1 1 9.595433901164082 6.416901347270538 9.133982083468304 0 0 0
300 1 1 6.496933201117616 6.822826685139138 8.61805833974827 0 0 0
302 1 1 8.286553809238558 6.5630097190959935 8.768466285722111 0 0 0
327 1 1 11.621262565618755 7.816330382646762 9.051852489945936 0 0 0
342 1 1 5.308918366174849 8.460226377991019 8.728772911907077 0 0 0
338 1 1 7.630868750715097 8.715770741149635 8.915371825552274 0 0 0
337 1 1 7.607579807022593 9.65516093922438 9.05191673817989 0 0 0
335 1 1 8.066819693551558 11.083421689597543 9.061539988099025 0 0 0
349 1 1 3.79317511351625 11.626934357797591 8.866434173833762 0 0 0
303 1 1 8.746040878641628 7.123473530461479 9.443161712893001 0 0 0
304 1 1 9.515494489353795 6.80764489767285 10.009829408031452 0 0 0
328 1 1 10.787444767648662 7.665893200985536 9.50507538085306 0 0 0
329 1 1 10.934578059992338 8.59368979236249 9.470126072243357 0 0 0
330 1 1 10.14521691883403 8.75345119842187 10.009444004739391 0 0 0
334 1 1 8.038839129785421 10.471270442268166 9.826667434534418 0 0 0
331 1 1 9.406063772589901 9.187683442139159 10.290524188022635 0 0 0
333 1 1 8.74030965064723 10.554798724712091 10.484161303572652 0 0 0
332 1 1 9.600686404312286 10.1427843774948 10.380464046331204 0 0 0

Velocities

24 -0.8755277019401991 0.9837850617954218 0.35460439900494095
23 0.7079555877221005 -0.39775195471827834 -0.12244354687761312
22 0.28593241411652187 1.0790864872666646 -1.3451075448387202
21 0.707861764334893 -0.920820446133695 0.24844174274267602
19 -0.7940110251819481 -0.396312446315595 0.32629572430994624
29 -0.5986200695996594 0.7038988189987129 1.5314136957358735
28 0.6291269098641704 0.5864298936793577 0.20734334063581825
27 -0.6668069448267827 0.29139290835109644 1.8675157032891903
25 0.4555753512210082 -0.5071815571830526 -0.05987340464410114
20 -0.06359558786840946 -0.9883695118119737 0.6376474063536773
18 1.2417324277232127 -2.407003883946743 1.159367995956235
33 -0.9909488992566683 -2.3296442476365957 -0.40660571450471455
31 0.6762761114836543 -0.7584910235082327 -0.06803216906202812
30 0.3118897958254973 -1.2570943820474703 -1.5281043500707783
26 -0.22053208000035526 -1.2489390510717457 1.7774365583934115
17 -1.6206686865061535 -1.584995231943052 1.0092300118976965