LAMMPS data file via write_data, version 29 Sep 2021, timestep = 103000000

405 atoms
3 atom types
405 bonds
2 bond types

-55 55 xlo xhi
-55 55 ylo yhi
-55 55 zlo zhi

Masses

1 1
2 27
3 1

PairIJ Coeffs # lj/cut

1 1 1 1 1.12246
1 2 1 2 2.24492
1 3 1 1 1.12246
2 2 1 3 3.36739
2 3 1 2 2.24492
3 3 1 1 1.12246

Bond Coeffs # fene

1 30 1.5 1 1
2 7.5 3 1 2

Atoms # bond

181 1 1 -2.705442402618906 -5.653717638092623 -18.460612847777025 0 0 0
182 1 1 -2.267983068696644 -6.523112322240567 -18.424174286670784 0 0 0
185 1 1 -2.4663712083460143 -7.818823337748303 -17.021272686243368 0 0 0
170 1 1 -8.968576845189586 -5.659729321690048 -17.299042958401852 0 0 0
183 1 1 -1.7389501714756326 -7.026091068638516 -17.755222788864305 0 0 0
184 1 1 -2.6921592986437304 -6.98734145836589 -17.562693778319968 0 0 0
186 1 1 -2.3508952981333606 -6.94226479097705 -16.43982890013002 0 0 0
187 1 1 -1.4271045207174546 -6.750416343992138 -16.58440700183929 0 0 0
188 1 1 -0.5102344053373735 -6.53577754223451 -16.818087491763567 0 0 0
168 1 1 -10.386754528939685 -5.34032843867974 -16.661821837713305 0 0 0
171 1 1 -8.527487289390896 -4.870077296540601 -16.87306685763599 0 0 0
172 1 1 -7.621240158166817 -4.94855118649659 -16.86991148062591 0 0 0
169 1 1 -9.668784840367476 -5.031516609601579 -17.19523679797174 0 0 0
173 1 1 -6.675049317498786 -4.783605700886883 -16.79365717222518 0 0 0
174 1 1 -6.448629207833359 -3.874068152463292 -16.773469405922253 0 0 0
175 1 1 -5.558534123767731 -3.6983881458611427 -16.284960560600844 0 0 0
177 1 1 -4.281665168686879 -4.737862462854675 -16.787612963665627 0 0 0
180 1 1 -3.5881571467946656 -5.357269681593898 -18.12835372295897 0 0 0
178 1 1 -3.4378891972658203 -5.113451025650099 -17.101453716264484 0 0 0
179 1 1 -2.8010596702697392 -4.8550209874912005 -17.773975820777075 0 0 0
163 1 2 -8.901756562780774 -6.126249260955459 -14.060784664592349 0 0 0
189 1 1 -0.6489126203916249 -5.943632395099203 -16.079027049740343 0 0 0
190 1 1 0.009524492255074605 -5.813243348065036 -15.337321201346029 0 0 0
164 1 1 -10.134293834588094 -4.721991105742354 -14.660547159469012 0 0 0
166 1 1 -11.684307254124821 -4.9518036363184645 -15.254949328333183 0 0 0
167 1 1 -11.000228790929471 -5.156495059765966 -15.958379085882067 0 0 0
165 1 1 -11.138334464209589 -4.9008693579005635 -14.462365439944781 0 0 0
176 1 1 -4.898740822038813 -4.429164236667033 -16.074223845135997 0 0 0
191 1 1 0.21244496867685667 -5.074269555442924 -14.833458285967051 0 0 0
192 1 1 -0.4474216656001904 -4.460357430955483 -14.472756007314198 0 0 0
195 1 1 -2.3183439938246297 -2.297688056247115 -14.290290992738964 0 0 0
196 1 1 -1.576442587423735 -1.9913889692608877 -14.819458767762626 0 0 0
194 1 1 -1.5785080448356523 -3.0216864956096345 -14.239043864349533 0 0 0
197 1 1 -0.9092841454683396 -1.5938469926172867 -14.267466030279763 0 0 0
162 1 1 -8.394032827291397 -4.742909919427625 -12.793010404587083 0 0 0
161 1 1 -8.234176925187217 -3.8255107504137413 -12.426205539411647 0 0 0
193 1 1 -1.0285646404408093 -3.8347507682440245 -13.977421743049346 0 0 0
198 1 1 -1.4731570253653434 -2.0018618726423623 -13.587340557820664 0 0 0
199 1 1 -1.4097714197411986 -1.1026819163580084 -13.100907410073692 0 0 0
203 1 1 -3.5831154374468075 0.7355976814945793 -12.862862353955022 0 0 0
200 1 1 -1.5932149720291504 -0.36532615786760236 -13.695266127863716 0 0 0
202 1 1 -2.6943008780063478 0.5918008659564322 -12.520166964719714 0 0 0
201 1 1 -2.285515907425111 0.11683740007939741 -13.254002570461656 0 0 0
205 1 1 -4.5157863874000554 1.574281486847399 -12.757057686995896 0 0 0
204 1 1 -3.6896651397421905 1.483496356171282 -12.223846145758115 0 0 0
206 1 1 -5.364701594363361 1.9191336554424694 -13.052217756193633 0 0 0
207 1 1 -5.16259742298599 2.568676646555506 -13.750329119366336 0 0 0
209 1 1 -6.127546683429578 3.459283978566814 -12.878453894996627 0 0 0
210 1 1 -5.7213477900096725 4.373550514973506 -12.902669618493228 0 0 0
211 1 1 -6.035882203805646 4.862234150517062 -12.15870872875826 0 0 0
208 1 1 -5.247559089019992 3.2792234135087623 -13.161550921508791 0 0 0
213 1 1 -6.183258792188169 5.9395431063853605 -12.181383948441782 0 0 0
247 1 1 5.300248310527614 8.970339879818123 -12.296902566132355 0 0 0
248 1 1 5.894885740378264 9.655139699959085 -11.890963394928603 0 0 0
239 1 1 -0.6222308918052558 10.690800169108744 -11.965432994732877 0 0 0
157 1 1 -8.38859772831215 -5.669930528369445 -11.01983521912731 0 0 0
160 1 1 -7.749940028649058 -4.184402227235881 -11.670318905727711 0 0 0
155 1 1 -8.851240571475882 -4.221304681869901 -11.57468516424693 0 0 0
156 1 1 -8.968608526112767 -4.882075758604462 -10.916899286141694 0 0 0
158 1 1 -8.107258297605126 -5.071660307696791 -10.331059881295872 0 0 0
154 1 1 -9.000324181159064 -3.2797967102723327 -11.827439095766657 0 0 0
159 1 1 -7.439583502259001 -4.6964332712276695 -10.919647980178715 0 0 0
152 1 1 -7.972361062698738 -1.8980565732609487 -11.829772153819132 0 0 0
153 1 1 -8.42795756655026 -2.6600894678010096 -11.486775325743906 0 0 0
151 1 1 -7.127375208693578 -1.9872832605678799 -11.376594157486023 0 0 0
149 1 1 -6.658718000005378 -2.6215541694659166 -9.832726202905938 0 0 0
148 1 1 -5.9798614186428285 -1.9886874780559785 -9.831469745584492 0 0 0
150 1 1 -7.293492092090063 -2.1804324372551926 -10.47015873280414 0 0 0
147 1 1 -5.2810534559705005 -2.379619896320567 -10.438063628946233 0 0 0
146 1 1 -4.342150464590394 -2.2234989794605604 -10.524686728505564 0 0 0
212 1 1 -6.773942439103038 5.330389969165865 -11.769117075481276 0 0 0
215 1 1 -5.54880178670675 6.774275917348618 -11.216121078829564 0 0 0
214 1 1 -6.363288981330444 6.217616481366906 -11.270324913715724 0 0 0
216 1 1 -5.770218215398218 7.633365814555824 -10.756109622318567 0 0 0
217 1 1 -6.736271332413982 7.599213295430627 -10.549553142706905 0 0 0
218 1 1 -6.426764437145312 8.494174583553276 -10.48554171766061 0 0 0
219 1 1 -6.9276811796966875 8.964264196173156 -9.791526980515684 0 0 0
243 1 1 1.8005675530962189 9.52703604761424 -11.306870012406359 0 0 0
244 1 2 3.018080106473101 7.908338105366959 -11.604557610337148 0 0 0
245 1 1 4.821355853338758 8.529308772076167 -11.40428810466831 0 0 0
246 1 1 4.655463757067684 9.431867045697784 -11.735820797887921 0 0 0
234 1 1 -1.9411803324800398 11.197567490372126 -9.96869503054724 0 0 0
241 1 1 0.8839639632417311 11.124439378073125 -11.147932397650955 0 0 0
237 1 1 -0.7429625517336186 9.948845623316643 -10.313699730381193 0 0 0
238 1 1 -0.8094675693642698 10.05834481904765 -11.30410361544327 0 0 0
240 1 1 0.03467531765007982 10.738736971590624 -11.294107009266021 0 0 0
242 1 1 1.5350751719680167 10.415375467607502 -11.093826289911352 0 0 0
251 1 1 5.38270526090948 10.931836079429184 -10.263771325928387 0 0 0
249 1 1 6.459050027938765 9.994609350795836 -11.170363146588949 0 0 0
252 1 1 5.427938836007225 11.75112959211456 -9.919446610534962 0 0 0
250 1 1 6.172841819492969 10.392027034203911 -10.317828269873573 0 0 0
142 1 1 -5.573315742240827 -1.8399261251537233 -8.076041883276517 0 0 0
144 1 1 -4.691086242840156 -1.280369259294994 -9.330203218803048 0 0 0
145 1 1 -4.218929900763394 -2.115020793719211 -9.581224884511508 0 0 0
143 1 1 -4.714258524043021 -1.61730189673619 -8.382165810805867 0 0 0
139 1 1 -4.323591442110484 -2.1424268857797126 -7.5794082944235805 0 0 0
141 1 1 -5.2097415800309745 -2.6472971737701694 -7.690991041166022 0 0 0
221 1 1 -7.485138943814895 9.677616064887356 -9.086445332596254 0 0 0
220 1 1 -6.65427679863422 9.210357773083016 -8.911109563338028 0 0 0
222 1 1 -7.339439777800096 9.733671757886063 -8.085308908819304 0 0 0
233 1 1 -2.503085081574377 11.72687803346484 -9.457794785710863 0 0 0
236 1 1 -1.1748345369325637 9.809516705336758 -9.446074274330915 0 0 0
235 1 1 -1.8799392659862828 10.425953500212827 -9.397676567503302 0 0 0
232 1 1 -3.0397198623641954 11.228442226072174 -8.843810353613996 0 0 0
253 1 1 4.538138105966629 11.644416909679691 -9.654658495299357 0 0 0
230 1 1 -3.382329320492656 12.737811491355968 -8.21044807362949 0 0 0
231 1 1 -2.781211994624167 11.929065623164634 -8.18124222685277 0 0 0
254 1 1 4.3973224596164915 12.527095114379488 -9.216657180583143 0 0 0
255 1 1 5.219617621826404 12.82952700834325 -8.921313908852317 0 0 0
256 1 1 5.952180227558373 13.394553506366195 -8.742161766116359 0 0 0
257 1 1 5.816132364629412 12.857518075297635 -7.877091704963231 0 0 0
136 1 1 -4.023590043735613 -3.887187113061165 -6.455078578735362 0 0 0
135 1 1 -3.0559527435285845 -4.015023283716461 -6.431053970476124 0 0 0
134 1 1 -2.3506998584978334 -3.9561721102194847 -5.755817102512319 0 0 0
140 1 1 -4.908626291338898 -2.2239726849166663 -6.847877482068788 0 0 0
138 1 1 -3.737294799009076 -2.1472505129267216 -6.794371643031398 0 0 0
137 1 1 -4.0941559510706025 -3.0200493764594345 -6.738025812942215 0 0 0
133 1 1 -2.019111433987265 -3.0684287422048984 -5.790693416647046 0 0 0
223 1 1 -7.165500576717916 9.155617936216546 -7.403223376604097 0 0 0
224 1 1 -6.3783214295082535 9.665022747733069 -7.218547738135809 0 0 0
268 1 1 1.650743290239176 8.705903153192727 -5.535318702559304 0 0 0
269 1 1 1.8179141321609542 9.574921678667536 -5.934298774930105 0 0 0
263 1 1 4.5692127289971065 9.697448180484443 -5.516209683445118 0 0 0
225 1 1 -5.408385221389723 9.911785221609714 -6.960019568532719 0 0 0
226 1 1 -4.833264463935314 10.637077204175744 -7.065633108637705 0 0 0
227 1 1 -4.390661469005346 11.266408397792285 -6.415619603992279 0 0 0
228 1 1 -4.160141432871466 11.575804073007538 -7.269462337280342 0 0 0
262 1 1 4.550426620476383 10.632879375430146 -5.779242946110486 0 0 0
261 1 1 5.324654238897082 11.178090883095154 -5.768795495883823 0 0 0
260 1 1 5.745922882282713 11.856501734235577 -6.393749907680935 0 0 0
229 1 1 -3.8035565295845655 12.46073511600918 -7.393308986095674 0 0 0
259 1 1 5.597738705595919 12.671223559295404 -5.950331277743336 0 0 0
258 1 1 5.508094304165328 12.789952086457198 -6.932492267314295 0 0 0
112 1 1 -6.3468254113945815 -8.131535659380816 -3.401288125279992 0 0 0
111 1 1 -6.176346635331014 -9.063003730257373 -3.333010452462568 0 0 0
126 1 1 -5.747318437465462 -6.006341572908598 -4.872254105763499 0 0 0
124 1 1 -6.362217029354859 -6.007901049005777 -4.03286461821969 0 0 0
125 1 1 -5.7191620525321785 -6.736161406941662 -4.280563744274397 0 0 0
113 1 1 -6.228104931076556 -7.102509383441834 -3.390141240424423 0 0 0
127 1 1 -4.986723710309642 -5.464356014361439 -4.743677002033646 0 0 0
123 1 1 -5.8626054193943276 -5.151767042945352 -3.890641508903203 0 0 0
128 1 1 -4.628592822554475 -4.539203871329374 -4.923396183910211 0 0 0
129 1 1 -3.8303472766639723 -4.008746880134305 -4.832846428134613 0 0 0
130 1 1 -3.167862123274368 -3.529594932102714 -4.288842516789756 0 0 0
132 1 1 -1.6783837494571487 -2.9879373703506973 -4.793412565780893 0 0 0
131 1 1 -2.600521267181691 -2.8037727345528913 -4.492137702857355 0 0 0
267 1 1 1.8337372534247611 8.297565492129829 -4.670727628535625 0 0 0
266 1 1 2.71026943448754 8.466515148583087 -4.330160161637408 0 0 0
272 1 1 2.029250179208295 9.501926482863945 -3.918216966011375 0 0 0
264 1 1 4.293360141128055 8.933328376515297 -5.026265616876886 0 0 0
265 1 1 3.631826381041499 8.810599546249305 -4.345905327302467 0 0 0
271 1 1 2.6047659037132695 10.073974485325131 -4.410245823163525 0 0 0
270 1 1 2.1997234859330943 10.167327706495456 -5.271767804363457 0 0 0
273 1 1 1.27720458878973 10.064775068508693 -3.546341742802912 0 0 0
110 1 1 -6.3681523046405815 -10.00998451736209 -3.2162179231400354 0 0 0
107 1 1 -7.732685999719389 -8.571783502970469 -1.6796787251191234 0 0 0
115 1 1 -6.602517443632955 -7.568035434521169 -1.784661150179837 0 0 0
109 1 1 -7.0891562301111515 -9.57946326742099 -2.708711928278798 0 0 0
108 1 1 -7.1964028768136385 -8.671150550428063 -2.4717634565870985 0 0 0
118 1 1 -6.185822225739818 -5.503869774398093 -2.203478661673097 0 0 0
116 1 1 -5.966696075460818 -7.182470138721762 -1.2546493823870228 0 0 0
117 1 1 -5.96228117161453 -6.386619165297904 -1.8894235464957625 0 0 0
114 1 1 -6.825294986539481 -7.35903146193508 -2.7231567640878263 0 0 0
122 1 1 -6.133090332686968 -4.873920600168944 -3.019070702896383 0 0 0
119 1 1 -6.034741947559285 -4.774715531879648 -1.636614476522527 0 0 0
120 1 1 -6.382149239986381 -3.862840014462078 -1.6694171705226228 0 0 0
121 1 1 -6.2723403224055945 -4.011413311335308 -2.5829363639951266 0 0 0
280 1 1 3.808510753697002 7.284717632741076 -1.6978218479981455 0 0 0
276 1 1 2.2749833299041495 9.035609918722379 -2.6399268215743086 0 0 0
277 1 1 2.7142189892937156 9.40254452628331 -1.9549825481182528 0 0 0
279 1 1 3.162138802266554 7.9367995977083785 -1.43242539286567 0 0 0
278 1 1 2.3109288773993066 8.56516410554176 -1.5159283377785742 0 0 0
274 1 1 1.521591318219625 10.632934993277562 -2.8161223434205214 0 0 0
275 1 1 1.714084564979317 9.852034962804 -2.3539184022149024 0 0 0
87 1 1 -6.469298977995506 -16.989183909154676 1.0382843273425497 0 0 0
100 1 1 -6.231265510650095 -12.121928774911753 0.8282822344466394 0 0 0
105 1 1 -7.168524463758484 -9.783176427590202 -0.4877152345799091 0 0 0
102 1 1 -7.151578035526132 -10.705682589169045 0.5434984420388302 0 0 0
101 1 1 -6.471251008061683 -11.331143345284913 0.2048759425974797 0 0 0
106 1 1 -7.819499555670789 -9.047563210184851 -0.7986592755058167 0 0 0
104 1 1 -7.390499742155322 -9.581935674695213 0.39842683423439007 0 0 0
285 1 1 2.7687145448906194 5.185955432969022 0.5866132354909858 0 0 0
284 1 1 3.1556127282376556 5.70213769858772 -0.11933012918919501 0 0 0
281 1 1 3.678076171507755 7.256840767276474 -0.7420440215651377 0 0 0
282 1 1 4.058597922635262 6.61386986198112 -0.18516467850310506 0 0 0
283 1 1 3.722823677675379 6.055851693836347 -0.8374726096591414 0 0 0
79 1 1 0.2990346959526099 -18.565359440731328 2.4396073025094447 0 0 0
75 1 1 1.9057929329744991 -19.181002831909357 2.915620762935046 0 0 0
76 1 1 1.8640165363375545 -18.409489601160654 2.316612291586238 0 0 0
86 1 1 -5.681106752810055 -16.803867071015016 1.541583759097883 0 0 0
88 1 1 -7.1769892498897425 -16.422251722605754 1.5547340755414294 0 0 0
83 1 1 -3.6409613170756545 -16.218889776257175 1.553092974400323 0 0 0
82 1 2 -1.8063067934328625 -16.62730858288392 1.5169449500190668 0 0 0
80 1 1 0.5282489034329989 -17.73369902610936 2.839446467953551 0 0 0
81 1 1 -0.16467548577273367 -17.08779789829665 2.587399061304411 0 0 0
78 1 1 0.5939442404182937 -17.987197146753314 1.7381654625030614 0 0 0
77 1 1 1.5394850621988037 -18.000127843488283 1.519513271774541 0 0 0
89 1 1 -7.140051625400359 -15.495645499974813 1.8103951129494273 0 0 0
92 1 1 -5.873661173021735 -15.299863269036155 2.3793159450528005 0 0 0
91 1 1 -6.135749482683919 -15.240659660794217 1.4376789946487678 0 0 0
90 1 1 -6.9179840086695865 -14.836489930476873 1.116498321885952 0 0 0
85 1 1 -5.250805274525592 -16.053726206731444 1.8924546060777565 0 0 0
84 1 1 -4.4128396152212455 -15.675428302786187 1.7185832415477709 0 0 0
93 1 1 -5.278669658943933 -14.712815198809514 2.9037654229169405 0 0 0
94 1 1 -4.54870673497366 -14.207815179769419 2.401767256299362 0 0 0
95 1 1 -3.7489385498705836 -13.626926343960132 2.6386706571873573 0 0 0
96 1 1 -4.404240984316034 -12.944377917802008 2.456909495047664 0 0 0
97 1 1 -5.062312079946251 -13.41616848155699 2.014360804971205 0 0 0
98 1 1 -5.02378520282552 -12.739801078154812 1.2202500467258521 0 0 0
103 1 1 -7.087709272519118 -10.011328307068142 1.2437520625148646 0 0 0
99 1 1 -5.348458333590718 -11.810533213421582 1.1522469422151098 0 0 0
290 1 1 0.3758020761164 7.328280181316989 2.2422055097813356 0 0 0
291 1 1 -0.5219139228655076 7.135456380415867 1.9486499289021912 0 0 0
287 1 1 2.591381825922734 6.5293109797564695 1.8435193545629283 0 0 0
288 1 1 1.8233477065228074 6.571990298028679 1.288747805883043 0 0 0
286 1 1 2.8896311893908475 5.946820900765523 1.1505983453960773 0 0 0
289 1 1 1.3186644742535345 6.973278488118881 2.0676449148411664 0 0 0
293 1 1 -0.5095093353086871 8.47591087917118 3.169342156391908 0 0 0
292 1 1 -0.7491504937983664 7.704065795639024 2.6709200657624477 0 0 0
319 1 1 4.4287938795742345 12.12392648629438 2.3165494922307803 0 0 0
318 1 1 4.037809232170424 12.914787972254784 2.6553808176445184 0 0 0
74 1 1 1.8248100528880782 -18.442972422158032 3.613717970985159 0 0 0
73 1 1 1.116183148693366 -17.78432634305444 3.6877463357279017 0 0 0
72 1 1 1.5677577864534586 -17.19079864363917 4.299078685360704 0 0 0
71 1 1 2.145649323526012 -16.364572204196126 4.378493728021004 0 0 0
70 1 1 1.6904120636832696 -15.926076459497637 5.047016377037551 0 0 0
300 1 1 -0.7076402575526157 7.46203630100382 5.000026273215109 0 0 0
294 1 1 0.3726879664228253 8.717125930293806 3.629715867396364 0 0 0
295 1 1 0.2985314751802412 8.890497334206671 4.565390129062584 0 0 0
298 1 1 -1.016347469529028 8.919712636880542 4.967215026249156 0 0 0
299 1 1 -1.0288515067905495 8.139922981694648 4.394087310150874 0 0 0
301 1 1 0.18413239919000202 7.651554309161688 5.23966176941605 0 0 0
297 1 1 -0.5929303155006743 9.781403817491135 5.038987573696399 0 0 0
309 1 1 3.840124616907181 11.454823408546515 5.170008509055132 0 0 0
321 1 1 4.851135822926986 12.220413694766961 3.9436679721480354 0 0 0
320 1 1 4.137471950441571 12.082874888242827 3.263226036445582 0 0 0
322 1 1 4.749523448558712 12.52012502761919 4.86502933338856 0 0 0
317 1 1 3.602118782000592 13.323658230625313 3.412849715157547 0 0 0
325 1 2 6.726728934406245 13.105339153323477 4.606831532294206 0 0 0
315 1 1 4.326718774066473 14.244580073590937 4.639519897166126 0 0 0
314 1 1 3.574074214554807 14.07470874074664 5.150440905723822 0 0 0
316 1 1 3.993204872351439 14.206014513149553 3.73548844971605 0 0 0
64 1 1 -0.8680688110849628 -15.892748646644943 7.321438716455725 0 0 0
65 1 1 0.1412262119776304 -15.89106573261642 7.395259703416069 0 0 0
67 1 1 1.3425523672288286 -15.609200967023902 7.309014452469587 0 0 0
69 1 1 1.5384401161163206 -15.201808722269618 5.646663496400306 0 0 0
68 1 1 1.691882646135689 -15.875781105003545 6.389321409426546 0 0 0
54 1 1 -0.3340885327412063 -10.446518930845508 7.329097178021861 0 0 0
53 1 1 0.053125134563372076 -9.654362048317534 6.9803072632682195 0 0 0
51 1 1 -0.38655178159685255 -8.08838007808798 7.261060784816561 0 0 0
52 1 1 -0.5287028715321721 -9.026791270162153 7.382466390094893 0 0 0
302 1 1 0.7226159223701385 7.208254488743837 6.022311721571208 0 0 0
368 1 1 6.671149679297764 6.6790947529832 7.1899897421839825 0 0 0
369 1 1 5.868838752950666 7.071297454642143 7.516094309203846 0 0 0
296 1 1 -0.027556364339330692 9.074573974727361 5.447456651236332 0 0 0
303 1 1 1.0980276366048927 7.646901626514452 6.792503653127535 0 0 0
304 1 1 1.7107762712816064 8.401095650698249 6.731186092339309 0 0 0
306 1 1 2.1301011729469277 9.556392936389294 6.249754691787638 0 0 0
305 1 1 1.5259526706359001 9.338002955816924 6.974317700794814 0 0 0
367 1 1 6.68437369415945 7.644348910337135 7.159188133837523 0 0 0
307 1 1 2.827312150560729 10.2071438733819 6.010225332736386 0 0 0
308 1 1 3.5066372657073384 10.84727983391647 5.829672214528837 0 0 0
327 1 1 5.850395231068574 10.791312489114206 5.9628676735645385 0 0 0
328 1 1 5.805667349762181 11.614021499567116 6.476365907807197 0 0 0
326 1 1 6.320926477919909 11.56081749123486 5.550212040706818 0 0 0
329 1 1 5.7473659333454 11.469883977997334 7.447345503083784 0 0 0
311 1 1 2.562247359183738 12.244985228228884 5.848588875980589 0 0 0
312 1 1 3.0900228140158155 12.990784089202148 6.122624691490491 0 0 0
313 1 1 3.0672938704209747 13.926493546533882 5.976476147650592 0 0 0
323 1 1 5.120278250949694 12.618214620971532 5.798059337459546 0 0 0
310 1 1 3.4606489469441115 11.962002346782747 5.87638802050053 0 0 0
324 1 1 5.70522449838841 13.194450910094798 6.308707781125612 0 0 0
66 1 1 0.9055905702094166 -16.42138052162701 7.686296112558596 0 0 0
62 1 1 -1.8069706376710661 -15.819286279552935 8.736190149150715 0 0 0
59 1 1 -2.633394588034665 -14.094694803365256 9.067832160084283 0 0 0
60 1 1 -1.8122723101949816 -14.655598611337236 9.233600322905552 0 0 0
61 1 1 -2.4409121515727867 -15.042682936794753 8.57661002667308 0 0 0
63 1 1 -0.9734926632350474 -15.902586889937098 8.308100518655083 0 0 0
58 1 1 -1.9571269864167817 -13.545102245946131 8.567758323220929 0 0 0
57 1 1 -1.3248634946033417 -12.734078584960956 8.232625629168908 0 0 0
56 1 1 -1.12163949288293 -11.80232298499359 8.50320127362598 0 0 0
55 1 1 -0.6204316561804509 -11.041459238059108 8.038349792299119 0 0 0
33 1 1 4.485159018931026 -9.820689861409157 8.15325673526335 0 0 0
47 1 1 -1.3364225122348485 -8.36862261149844 9.119592591124395 0 0 0
46 1 1 -1.9238376506842623 -8.888052979209725 9.61697926144445 0 0 0
50 1 1 -0.3114143235975123 -8.160630434529315 8.287023021708018 0 0 0
39 1 1 1.0386425625842404 -8.2424040510997 9.431344755947798 0 0 0
38 1 1 1.8681942906330307 -8.554706733894909 9.133474861076426 0 0 0
37 1 1 1.7968759830638494 -8.743586413687776 8.169484155264788 0 0 0
36 1 1 2.7563007761951157 -8.53252888777104 8.377116443650937 0 0 0
35 1 1 3.181580485514374 -8.959741404496926 7.5921856247381925 0 0 0
32 1 1 4.882790946503835 -9.544504052188158 9.036499956179563 0 0 0
34 1 1 3.7862780733778747 -9.234535448862268 8.337576322879666 0 0 0
48 1 1 -1.500558987461201 -7.469050924212886 8.897595632792864 0 0 0
49 1 1 -0.9891316615316947 -7.490019142126504 8.093442375903859 0 0 0
20 1 1 1.6135628300397424 -5.157355012276765 9.139353720394148 0 0 0
19 1 1 2.5351736298149885 -5.153173377925857 9.417488647414764 0 0 0
18 1 1 2.269522725888132 -4.571339026542886 8.674711472644773 0 0 0
17 1 1 2.9626977201655293 -4.7383206169715315 8.045258902804731 0 0 0
16 1 1 3.6323578802285743 -4.4800616538105915 8.659687066071553 0 0 0
14 1 1 4.079946985600279 -5.346986492482372 9.630951325522537 0 0 0
15 1 1 4.332622730810625 -5.056319306711989 8.767684063453858 0 0 0
357 1 1 2.5103182870652416 7.166739193549692 8.128517324444282 0 0 0
377 1 1 4.232169189864299 6.000163629055653 9.130532645220594 0 0 0
376 1 1 5.023237018864977 5.618282849174219 9.499617188802949 0 0 0
370 1 1 5.2371625601525045 6.548202432686784 8.102175299186444 0 0 0
375 1 1 5.41186140400833 6.448403529130581 9.579007154367533 0 0 0
372 1 1 6.145629880755532 6.13395666752947 8.431030607541468 0 0 0
373 1 1 6.809784843986654 5.805071868979617 9.048986562688533 0 0 0
374 1 1 6.324941562045334 6.2855197993030005 9.703535942040387 0 0 0
371 1 1 5.490892304402301 5.5757844346465495 8.077700959903318 0 0 0
358 1 1 2.8873413079632253 7.872662255324397 7.597178355343158 0 0 0
355 1 1 2.3355851529130143 8.676212634157345 8.396464572275445 0 0 0
354 1 1 2.8509191532550906 9.4048185220689 8.765056779200414 0 0 0
356 1 1 1.9335370013713336 7.81697679272362 8.667498999950244 0 0 0
361 1 1 4.9714341241705835 8.353850634864056 8.35064243984723 0 0 0
360 1 1 4.1309322781024225 7.703899419197925 8.365472797087754 0 0 0
359 1 1 3.7286932184392674 8.298228814618174 7.662473194711473 0 0 0
363 1 1 6.279450910914762 9.626316094805718 8.724819603068983 0 0 0
362 1 1 5.650774497176956 8.823589059609697 8.855895951003246 0 0 0
364 1 1 6.4882731619116125 9.190053034892713 7.86137884824231 0 0 0
365 1 1 6.839992900538793 8.425574493840077 8.34273350389203 0 0 0
366 1 1 7.371298424010713 8.030564774692039 7.670918326950562 0 0 0
352 1 1 2.096985774149279 10.177045508371517 9.515332356103407 0 0 0
351 1 1 3.0199561916079802 9.873647715973027 9.576622886755993 0 0 0
353 1 1 2.334659349928969 10.184184123358804 8.563572642463994 0 0 0
331 1 1 5.315381799962476 11.70951786986999 8.393918117587148 0 0 0
332 1 1 4.3048696784191485 11.482036529568335 8.48254589889311 0 0 0
333 1 1 3.8930673002410683 12.291440403686424 8.630681402781056 0 0 0
335 1 1 3.5586870866142886 12.499283673264364 9.579666890676132 0 0 0
334 1 1 4.479039848229767 12.42245416301234 9.398165584379246 0 0 0
330 1 1 5.024159195110827 12.112677513873175 7.549770724997609 0 0 0
30 1 1 4.398592900788332 -9.949405317980863 10.775135650947263 0 0 0
28 1 1 3.383288475723544 -9.921225773587523 11.625158425595949 0 0 0
29 1 1 3.4920133687307797 -9.732570471741099 10.665084570146735 0 0 0
45 1 1 -2.4259454118127044 -8.992505792368037 10.45961991570071 0 0 0
44 1 1 -1.7832407178832859 -8.126974424420315 10.192938915007824 0 0 0
40 1 1 0.6056684277054383 -7.921858244225104 10.19484457717541 0 0 0
42 1 1 -0.9638309866459316 -8.188535308710117 10.986808010534597 0 0 0
41 1 1 -0.0054865447276973445 -8.285190237470163 10.955695892910176 0 0 0
25 1 1 1.9692008088522326 -8.451862223903014 11.140426059649359 0 0 0
24 1 1 1.5864568233503478 -7.724729158399386 10.661979029405217 0 0 0
26 1 1 2.3710040008764017 -9.256781756464344 11.123952304620193 0 0 0
31 1 1 4.84344478044796 -9.63983360764005 10.030189866861503 0 0 0
43 1 1 -1.4830574980433378 -7.378621376442603 10.605978378575815 0 0 0
21 1 1 1.6964719611795067 -5.611251620976426 10.028024957132077 0 0 0
22 1 1 1.6902912176068694 -5.867542354591269 11.004998373360136 0 0 0
23 1 1 1.849871198570479 -6.773541579276456 10.660157603563409 0 0 0
13 1 1 3.9677566217371574 -6.278515777562189 9.844708689835347 0 0 0
12 1 1 4.713735380781112 -6.641789042720822 10.269588495654592 0 0 0
11 1 1 4.940873334284856 -7.040334305432817 11.067363286888707 0 0 0
379 1 1 4.148136727402853 4.838335493384695 10.034430808524494 0 0 0
381 1 1 5.0600113448608495 5.06262061453435 11.254908875639261 0 0 0
384 1 1 7.0082728044749905 4.369114958212287 10.473447600337378 0 0 0
385 1 1 7.260311406018181 3.901237942840038 11.328125009230146 0 0 0
382 1 1 5.455292552714319 4.822347904856206 10.392512393385344 0 0 0
383 1 1 6.094247488881171 4.139011682071764 10.606393773536144 0 0 0
378 1 1 3.5651557290994873 5.608739516831418 9.707813193490168 0 0 0
380 1 1 4.251470907588861 5.403398414108479 10.75708543545982 0 0 0
346 1 1 1.9973069724995658 8.914909817013932 11.173740762930676 0 0 0
345 1 1 2.3668546308677456 8.060480094699194 11.247402064509844 0 0 0
348 1 1 3.007452691311676 10.179033210155701 11.19216734402326 0 0 0
347 1 1 2.1490363059786466 9.843362608749697 11.061362477184609 0 0 0
350 1 1 3.8819753733227174 10.213411542292638 9.882628523256372 0 0 0
349 1 1 3.4796324791685462 9.72006136562624 10.57351448785634 0 0 0
336 1 1 3.1895473284105247 12.731217294903269 10.41970672048081 0 0 0
337 1 1 3.258656902870861 12.490378823064454 11.317998129751764 0 0 0
27 1 1 2.914436334112616 -9.101941252642003 11.965543393953588 0 0 0
10 1 1 4.920138649935392 -6.9764339349935875 12.010160860914334 0 0 0
8 1 1 4.813953529214495 -6.697190060469429 13.945332826374484 0 0 0
9 1 1 4.922720752345584 -6.92055846331506 12.993343681672853 0 0 0
388 1 1 7.842681081788505 2.9517684901364842 12.633897900644028 0 0 0
389 1 1 7.533862378586951 3.4250741144246253 13.467272628568484 0 0 0
387 1 1 8.277927683603952 3.7136270690757356 12.148438899269282 0 0 0
386 1 1 7.712874046650233 4.42553335969059 11.95651960222759 0 0 0
390 1 1 7.549135954850293 4.1883403605572695 13.939507913077188 0 0 0
344 1 1 3.078635781066416 8.08121700920668 11.877649351897388 0 0 0
343 1 1 3.495610201662613 8.822892449749402 12.30177384564584 0 0 0
342 1 1 3.4051311141629075 9.722211562922602 12.519255556980283 0 0 0
340 1 1 3.531614336719081 11.29335492038178 13.475614162966961 0 0 0
341 1 1 3.6924566670168675 10.38964744325964 13.075075507708958 0 0 0
339 1 1 3.1746190968391574 12.049670973967968 12.981618343540626 0 0 0
338 1 1 3.2069935063126302 12.622741351356822 12.26938194585307 0 0 0
6 1 1 4.313645478866391 -6.009034121313153 15.460908130576902 0 0 0
7 1 1 4.82759916225618 -6.659151531317128 14.854364226919474 0 0 0
5 1 1 4.476160888767649 -5.049766935311393 15.296629747721934 0 0 0
4 1 1 4.8231370085500735 -4.132305247330932 15.286361298743865 0 0 0
1 1 2 2.7981681693890943 -2.5114054806499824 14.394583561970297 0 0 0
405 1 1 2.856977162425579 -1.356208805332911 15.890911737433635 0 0 0
2 1 1 4.196860208265744 -3.0933496254551587 15.654532683759479 0 0 0
3 1 1 4.748606689229989 -3.2110833808908854 14.913111372813805 0 0 0
403 1 1 4.109434729855356 -0.39653038254634154 16.10760564878442 0 0 0
401 1 1 4.352942428742772 0.36610526720686676 15.4813658770203 0 0 0
402 1 1 5.054252515749052 -0.15819906842004136 16.01329845859841 0 0 0
396 1 1 4.855939604454926 2.630982831926204 16.093215329489155 0 0 0
393 1 1 6.294681883537035 3.0650774375358982 15.774242364643593 0 0 0
394 1 1 5.696038212433287 2.5453437666920817 15.216502884010065 0 0 0
395 1 1 5.252700370448715 3.2977658439937323 15.539470434685507 0 0 0
392 1 1 6.435162933103764 3.9169269737000683 15.255694676003491 0 0 0
391 1 1 6.74329673763742 4.01395824759289 14.369037033712392 0 0 0
404 1 1 3.426934010093375 -0.9562403008087185 16.529331461155245 0 0 0
399 1 1 5.305876080973885 0.9886970589292443 16.440641375599 0 0 0
400 1 1 4.327975629493814 0.8591488430429696 16.379388185148198 0 0 0
398 1 1 5.777275746213013 1.7983385255981863 16.7605236530912 0 0 0
397 1 1 5.680564466379885 2.734649304841621 16.660653469063654 0 0 0

Velocities

181 -0.4253995875675066 0.7176413541073132 0.7905631476147585
182 1.8523291565019455 1.2988206907187845 -0.5212228165227731
185 0.9177172198919892 0.15432768506193664 -0.24933602624330017
170 2.798462952784373 1.9891635661225644 -1.2584495249893166
183 -0.2502477160927022 0.7595651886938701 0.18702878434127124
184 1.616261528736602 0.5201147566790331 0.7645727645330072
186 0.10436963092518374 1.0662762185599044 -0.4363467932547126
187 -1.8016109555664763 1.996779847397876 -1.808357086244945
188 -0.6779596389804119 0.8901604675176247 0.2735576574660925
168 -0.20643681239687242 0.5170915814722364 0.3272737202142381
171 -0.250749542183352 -1.3236636012913139 0.955825734269335
172 -0.6876557379530039 1.925368284972723 0.1323718913766939
169 -0.6117593382745545 2.284139956738752 1.5986987375571127
173 0.6034338099073174 -0.7865124231076881 0.6888057348133857
174 -0.3253564383707705 0.1398035415554941 0.32762957389693975
175 0.2145542801864269 -1.1331146255173403 -0.5734854168157673
177 -1.1791502440996378 -0.26054470254588485 -0.7477733383048998
180 -0.5872168815677837 -0.6348608592846865 -0.4045449968431151