LAMMPS data file via write_data, version 29 Sep 2021, timestep = 103000000

405 atoms
3 atom types
405 bonds
2 bond types

-46.5 46.5 xlo xhi
-46.5 46.5 ylo yhi
-46.5 46.5 zlo zhi

Masses

1 1
2 216
3 1

PairIJ Coeffs # lj/cut

1 1 1 1 1.12246
1 2 1 3.5 3.92862
1 3 1 1 1.12246
2 2 1 6 6.73477
2 3 1 3.5 3.92862
3 3 1 1 1.12246

Bond Coeffs # fene

1 30 1.5 1 1
2 2.44898 5.25 1 3.5

Atoms # bond

272 1 1 -11.714657529137488 -13.054136093679658 -11.586019549031798 0 0 0
273 1 1 -11.300929602394246 -12.9605878128231 -10.733098151369582 0 0 0
271 1 1 -12.229498541637458 -12.905286537860345 -12.377081777634316 0 0 0
259 1 1 -17.229543971542387 -8.76193379842025 -12.09542967195197 0 0 0
260 1 1 -16.830335484002145 -9.373520097186013 -12.732426182926721 0 0 0
264 1 1 -16.016663856802097 -10.332786695521321 -14.017002256403968 0 0 0
263 1 1 -16.81873006012743 -10.185800638185093 -13.486684181436747 0 0 0
261 1 1 -17.734604955891207 -9.778591847756768 -12.976271392060003 0 0 0
262 1 1 -17.72082538620009 -10.043636162092149 -13.905830181934837 0 0 0
265 1 1 -15.784230974763402 -11.134860299843218 -13.568981192990057 0 0 0
269 1 1 -13.559746995175672 -13.10338556532938 -13.42533671898204 0 0 0
270 1 1 -12.619183648171946 -13.064588059004647 -13.283573704358751 0 0 0
266 1 1 -15.129216864105237 -11.826390931416114 -14.014763481235793 0 0 0
268 1 1 -14.059766079032316 -12.301757622575055 -13.243656918838552 0 0 0
267 1 1 -14.140307321219584 -11.657700795842446 -13.898567455331442 0 0 0
258 1 1 -17.52748888916363 -8.526609484096918 -11.220194810804609 0 0 0
257 1 1 -17.118532076644613 -9.07629780051294 -10.578380645377102 0 0 0
274 1 1 -11.059447210264423 -13.00217251924084 -9.781613840014339 0 0 0
279 1 1 -9.958560413572634 -13.557503860906793 -8.392360671082676 0 0 0
280 1 1 -9.26646064815597 -13.259947570039015 -7.756133250656681 0 0 0
276 1 1 -10.011979389627863 -12.259463970425184 -9.403238583557965 0 0 0
275 1 1 -10.55198405703757 -12.205670294202525 -10.125390762470893 0 0 0
277 1 1 -10.008365839857985 -11.97838924377277 -8.453975375010213 0 0 0
278 1 1 -10.441453137551994 -12.763555681855724 -8.515855431317954 0 0 0
343 1 1 0.1503229417058871 -12.225204031827298 -9.917787505648338 0 0 0
344 1 1 -0.050022784928876976 -11.509745590480753 -10.447984760386964 0 0 0
256 1 1 -17.876832713605076 -9.274013129735176 -10.00052667338285 0 0 0
254 1 1 -17.394317085112554 -8.675238073495265 -8.760575041592912 0 0 0
253 1 1 -16.826055569012023 -9.262433787498681 -9.28900249964874 0 0 0
255 1 1 -18.252836428378096 -8.826567543974415 -9.202421343238099 0 0 0
252 1 1 -15.887545181044306 -9.196662190269404 -9.592115683634761 0 0 0
251 1 1 -15.175631049164533 -8.853312441771443 -10.069558619915393 0 0 0
250 1 1 -14.749573760402077 -8.0873057142434 -10.45351596156775 0 0 0
249 1 1 -14.427834914757101 -7.151568605447041 -10.373908857398527 0 0 0
247 1 1 -12.638196590624567 -6.325334043254436 -10.260862064735406 0 0 0
246 1 1 -12.459016400859662 -7.247365749270516 -10.300955411813153 0 0 0
248 1 1 -13.433468477333708 -6.97062850107111 -10.371876200114984 0 0 0
245 1 1 -12.455904702103492 -7.2877167214507725 -9.330247434695966 0 0 0
242 1 1 -10.522094995304904 -2.1300173960967617 -7.860306324431195 0 0 0
243 1 1 -10.090481568311198 -3.0303864268674143 -7.808103473887431 0 0 0
241 1 1 -9.738968401251148 -1.5811099308583807 -8.212646037206675 0 0 0
239 1 1 -9.060080767229026 -0.2549390519777059 -9.187834069879786 0 0 0
240 1 1 -9.06165843729468 -1.078861347946973 -8.611469563710495 0 0 0
238 1 1 -8.375157573634038 0.3068365023111811 -8.939943515865433 0 0 0
237 1 1 -8.182178871455855 0.4568533916177544 -9.869141767894469 0 0 0
236 1 1 -8.155364643181608 0.9392378889206687 -10.684623081944446 0 0 0
235 1 1 -8.298694504043455 1.8430204873248692 -10.347879464933564 0 0 0
232 1 1 -7.082807017063588 0.20884703514853145 -8.95628320184539 0 0 0
234 1 1 -7.581161075663526 1.4521120830460255 -9.818103750800182 0 0 0
233 1 1 -6.916267003411203 1.1393413060319721 -9.165087850893704 0 0 0
231 1 1 -7.439485019264411 0.35503838690449574 -8.02963301499598 0 0 0
230 1 1 -7.759880881640638 1.1336871088333267 -8.37541199389942 0 0 0
55 1 1 9.205810471051903 4.987795058314679 -6.356834380346979 0 0 0
54 1 1 8.89951926797431 4.292357069701834 -6.930243277092757 0 0 0
52 1 1 10.029503335462326 5.097482486080492 -7.152840679988032 0 0 0
53 1 1 9.17478818745291 4.987368314630302 -7.566130686175713 0 0 0
64 1 1 11.880755272241883 7.203294402462985 -5.016294638740426 0 0 0
65 1 1 12.559993216089893 7.459885039834971 -4.390149294398284 0 0 0
66 1 1 13.176161388809966 6.8666200800592705 -4.807553182918994 0 0 0
326 1 1 -3.8847992766577324 -16.91299873497315 -3.355792337762687 0 0 0
327 1 1 -3.807533883860698 -17.60170859066914 -4.051950078433739 0 0 0
328 1 1 -3.587627660809505 -18.103701266752918 -4.921452642166073 0 0 0
329 1 1 -3.894824999917937 -17.240360191194096 -5.334985004166816 0 0 0
284 1 1 -6.839140124616702 -13.109045469911292 -7.311096748636793 0 0 0
285 1 1 -6.423015159399309 -13.518866513267984 -6.469451385147509 0 0 0
283 1 1 -7.182696526942795 -13.32194792480278 -8.171705481948125 0 0 0
288 1 1 -5.652198569905466 -13.63751451082444 -4.607713738741959 0 0 0
289 1 1 -6.032513874554357 -13.06084416740267 -3.9179735055448055 0 0 0
330 1 1 -3.440695195040412 -17.01770963007614 -6.229105577416395 0 0 0
335 1 1 -1.5513648632372472 -15.835026453136122 -8.988213879624972 0 0 0
336 1 1 -0.954308437871551 -15.023960194961974 -9.08171907825194 0 0 0
337 1 1 -0.04912760271999478 -14.795399799601007 -9.261606060193797 0 0 0
332 1 1 -2.5578312019304392 -17.726437402008724 -7.719786083384348 0 0 0
331 1 1 -2.779761005611593 -17.228499535706597 -6.874428562194276 0 0 0
333 1 1 -2.1482900355634387 -16.929005109213826 -8.136493343406494 0 0 0
334 1 1 -1.6142749613090261 -16.781778189863793 -9.011577695565036 0 0 0
340 1 1 0.9132447419849211 -13.71140026241434 -7.674039964959998 0 0 0
338 1 1 0.6543026051303181 -14.99500515538434 -8.653315475205465 0 0 0
339 1 1 0.6156141086303629 -14.599296943079656 -7.786376341144704 0 0 0
287 1 1 -6.027267718050865 -13.06054587458425 -5.2976599157529805 0 0 0
286 1 1 -6.709752753039641 -13.75681451045787 -5.568612765571037 0 0 0
281 1 1 -8.609785406877862 -12.940769528781377 -8.41110843483884 0 0 0
282 1 1 -7.9836683915825555 -13.637990611491107 -8.605147900307346 0 0 0
290 1 1 -5.669272168316901 -13.464457453039882 -3.1498855780124475 0 0 0
349 1 1 -0.08626318714809902 -10.796893913351834 -6.845891410298277 0 0 0
350 1 1 -0.35512566286498337 -11.42208390687534 -6.165729392815023 0 0 0
347 1 1 0.09462119408610592 -11.147035996526212 -8.035303125485935 0 0 0
348 1 1 0.0034686094564079614 -10.250771452397851 -7.6017986441279675 0 0 0
346 1 1 -0.22962634014957872 -11.848698684043422 -8.640667395098072 0 0 0
345 1 1 -0.0643591839333511 -11.342244778329135 -9.48915881423869 0 0 0
351 1 1 -0.016877594984110737 -10.875647318936824 -5.500705263531746 0 0 0
352 1 1 -0.6866044479368476 -10.185709565442266 -5.701498904252257 0 0 0
342 1 1 0.5009459033549535 -12.805713180518616 -9.202584417542768 0 0 0
341 1 1 0.6236500581434898 -12.97884015416044 -8.179953665580035 0 0 0
367 1 1 -6.055277784825422 -7.439430709632081 -3.1186135722805366 0 0 0
353 1 1 -1.4169776247594625 -10.740695197844405 -5.554336532512943 0 0 0
354 1 1 -2.371126923174231 -10.57923369463715 -5.571674472173147 0 0 0
355 1 1 -3.2720421375543034 -10.853183182701306 -5.598659640307896 0 0 0
356 1 1 -3.9853143652010603 -10.320577275912303 -5.181966638140516 0 0 0
359 1 1 -3.637877298813485 -9.082870439006278 -3.362745073135341 0 0 0
358 1 1 -3.8175394149604682 -10.016407050064544 -3.2407073883470736 0 0 0
357 1 1 -4.101020425082413 -10.19265712003634 -4.181144515327613 0 0 0
244 1 2 -12.251121393272673 -5.518139003952174 -6.43866564733991 0 0 0
365 1 1 -6.925643408174229 -6.031996476611453 -3.60691923861359 0 0 0
220 1 1 -8.351707922589812 2.358906435115114 -4.899164462791337 0 0 0
229 1 1 -8.709355819734109 1.2146451777269063 -8.417414522079339 0 0 0
227 1 1 -9.529838951245134 2.2583114798332353 -7.392864369264108 0 0 0
228 1 1 -8.995223969378953 2.1279788540191165 -8.220775464602303 0 0 0
226 1 1 -9.062724564986663 1.4069744304814267 -7.401606548453301 0 0 0
225 1 1 -9.322504713362228 0.7869440245728798 -6.748390934527291 0 0 0
222 1 1 -8.053730670590276 1.1982178193824944 -6.02664922927504 0 0 0
221 1 1 -7.902548264839769 1.5161936279720152 -5.132990682807773 0 0 0
223 1 1 -8.288381861696294 0.3112281752510871 -5.7502063363769444 0 0 0
224 1 1 -9.14321219266124 0.7990224988097911 -5.810807344841106 0 0 0
31 1 1 7.53146278816386 3.7484535970396786 -3.6235629840973504 0 0 0
42 1 1 9.744724930871229 4.141408679577037 -4.515860084449048 0 0 0
41 1 1 9.773628572651573 3.6188542304397626 -3.6713184868325675 0 0 0
46 1 1 9.411218254576367 1.4538211028919439 -5.542755054025723 0 0 0
40 1 1 10.096395417096288 2.951875281855894 -2.9204993114374083 0 0 0
218 1 1 -9.197833640206822 3.1822902912619444 -3.774691894270907 0 0 0
219 1 1 -9.128508938161655 2.339329926748788 -4.2709737243037615 0 0 0
217 1 1 -8.718859947824786 3.273699234338528 -2.963105268184057 0 0 0
57 1 1 8.407784673357424 6.454500861156766 -6.195526453817462 0 0 0
58 1 1 8.702210171856743 6.605950857448047 -7.111738183871562 0 0 0
56 1 1 9.165019918591192 5.907160463723342 -6.103341149552789 0 0 0
48 1 1 10.396562611947868 2.0453783483144696 -6.2936323465559445 0 0 0
51 1 1 10.320326967315003 4.236130442801555 -7.508640810819542 0 0 0
47 1 1 10.306023935705943 1.6758042305137941 -5.395235687485216 0 0 0
62 1 1 10.4099921871579 6.719787054576024 -5.810138789359318 0 0 0
63 1 1 11.386172776269568 6.655473563661641 -5.693025661571896 0 0 0
45 1 1 9.4001439812801 1.9876775200701755 -4.685882640967035 0 0 0
49 1 1 10.601253718111408 2.5654033298609145 -7.077703298815351 0 0 0
50 1 1 10.061704392063731 3.3832481988067395 -7.189685102820245 0 0 0
61 1 1 10.241767275843985 7.192816640798192 -6.5590233110433225 0 0 0
59 1 1 9.594289269893752 6.478516582611513 -7.36124849828272 0 0 0
60 1 1 10.092306491422493 7.29074869264577 -7.5148412741888455 0 0 0
69 1 1 15.120608784307214 7.983225316349668 -5.072682467978234 0 0 0
67 1 1 13.578436274464524 7.732091474937012 -4.73643428183415 0 0 0
68 1 1 14.442121986566981 8.004153259296032 -4.374307607933836 0 0 0
71 1 1 15.589698366307658 9.793806863528413 -5.477622283384696 0 0 0
70 1 1 15.184150590542583 8.879270481912613 -5.267198136148718 0 0 0
73 1 1 14.524138622890813 10.920052039736865 -5.278122340862147 0 0 0
72 1 1 15.241852795322732 10.50216092878901 -4.844196996196595 0 0 0
75 1 1 13.802941508255797 11.316359159635851 -4.772872081831421 0 0 0
74 1 1 13.682945149556987 10.973408315167998 -5.707341337291988 0 0 0
76 1 1 12.917766311313436 11.432590721128893 -4.4573188746725645 0 0 0
78 1 1 12.878275422330509 11.147773409269195 -3.1561644801228437 0 0 0
325 1 2 -1.6511864952616226 -18.709706317982363 -1.2232126507086218 0 0 0
292 1 1 -5.6709742066685775 -15.235327613897315 -2.1611266483674223 0 0 0
291 1 1 -5.767264996801955 -14.401841038374307 -2.758874032453419 0 0 0
293 1 1 -6.634058366925821 -15.238025614975987 -2.342683629603447 0 0 0
298 1 1 -6.504442182196792 -17.114275527854893 -0.646129725420277 0 0 0
294 1 1 -6.286638202502532 -16.073923733359585 -2.0892301049141686 0 0 0
296 1 1 -5.925275773465281 -16.899302879962026 -1.6548541075418042 0 0 0
297 1 1 -5.823518519601571 -17.687488194212303 -1.1036434616928883 0 0 0
295 1 1 -5.553424211081793 -16.00774399450036 -1.4201574321453523 0 0 0
369 1 1 -5.645983863634038 -7.034454002340849 -1.329506956272206 0 0 0
368 1 1 -5.941699531289803 -7.498069645668701 -2.1221831464329846 0 0 0
363 1 1 -5.3382137127867795 -6.622840542891792 -4.407004657706608 0 0 0
366 1 1 -6.38038035901806 -6.550668761549731 -3.0740172028170756 0 0 0
370 1 1 -5.873789746122733 -7.1381961344561065 -0.4428000260472264 0 0 0
371 1 1 -5.874184941778846 -6.888175539491527 0.5007570433200718 0 0 0
361 1 1 -4.561591521671446 -7.879846259194048 -4.198748237198356 0 0 0
360 1 1 -4.3743217539899595 -8.747197076767335 -3.8867727252355193 0 0 0
362 1 1 -5.32118599093966 -7.446427492924475 -3.9449806721603538 0 0 0
364 1 1 -6.25233849078028 -6.238652863850421 -4.178735422269046 0 0 0
376 1 1 -3.356082970156795 -8.56202050499537 2.14143951060219 0 0 0
212 1 1 -7.947683859596331 1.6098342395483514 0.25251550609752454 0 0 0
29 1 1 7.572157337588326 4.87674989808984 -3.1508978623082062 0 0 0
30 1 1 7.114778640948903 4.548697792624026 -3.9038939051600177 0 0 0
27 1 1 6.5379226574140645 4.866179970762094 -2.231186968021422 0 0 0
26 1 1 5.662854751319418 4.60180043687725 -1.875863652914072 0 0 0
25 1 1 5.505337647321406 4.098706560789414 -2.7159379896828293 0 0 0
35 1 1 7.427381324175799 1.999961748275704 -1.4372618259746153 0 0 0
34 1 1 7.018191880404005 2.068216141432528 -2.3329009817503152 0 0 0
36 1 1 7.8621830161847015 1.4924909066272132 -2.140443429490506 0 0 0
37 1 1 8.359754697430192 1.58528086697856 -2.998090724170785 0 0 0
33 1 1 7.747957608384792 2.650706301956903 -2.2531996193192816 0 0 0
32 1 1 8.056686024802787 3.2031252759847395 -2.9922192629388693 0 0 0
43 1 1 9.260847190196383 3.803218532610452 -5.260197896815183 0 0 0
44 1 1 9.281341912616389 2.81707968494721 -5.2026104252019385 0 0 0
38 1 1 8.956202419971753 2.403864496563382 -3.054590377873656 0 0 0
39 1 1 9.643182118588417 2.470563178009897 -2.3216268427170603 0 0 0
216 1 1 -8.660988414822109 3.4001037971004253 -2.021765642289226 0 0 0
213 1 1 -7.966699706713018 1.9237757070176689 -0.6351034724161825 0 0 0
214 1 1 -8.044599914191318 2.5728600446185728 -1.2942618027038357 0 0 0
215 1 1 -8.958535589430078 2.7031791919041965 -1.417117736847157 0 0 0
22 1 1 5.6578054455905615 2.4094469365040228 -1.4534533304666333 0 0 0
21 1 1 5.750012839051962 2.939858399185837 -0.6816311203923227 0 0 0
18 1 1 3.9656481763535028 2.5396928257969917 0.97448627077314 0 0 0
19 1 1 4.83090056309466 2.7644084732826015 0.695469405986065 0 0 0
20 1 1 5.235916418313687 3.2937405641887954 0.044140659317947334 0 0 0
28 1 1 7.156169433413661 5.549890505544162 -2.5947845999887424 0 0 0
23 1 1 4.86718185813829 2.760126241016588 -1.7971216970856048 0 0 0
24 1 1 4.953665226201186 3.2910556465088976 -2.615957809869835 0 0 0
77 1 1 12.311066035085386 11.634095980637545 -3.724315657913227 0 0 0
80 1 1 13.7927460329098 12.044248909028857 -2.547026395922733 0 0 0
79 1 1 13.769422916185283 11.552979042801253 -3.3780859541188155 0 0 0
81 1 1 14.169998905544604 11.836839248731383 -1.7128511270667874 0 0 0
85 1 1 18.489908354321432 14.369334637526304 -0.06676426024129384 0 0 0
89 1 1 17.554929555876107 16.85378258257022 0.567875265666843 0 0 0
87 1 1 17.695544575565822 15.712221828485742 -0.4789799977076599 0 0 0
88 1 1 17.83126582237896 16.66811266089531 -0.3247479904465093 0 0 0
86 1 1 18.360305488353095 15.06565541106785 -0.6974300285671002 0 0 0
84 1 1 18.620525077798778 13.73957907143155 0.6210519046954093 0 0 0
316 1 1 -4.205648966422733 -18.18431617820053 4.737101402874493 0 0 0
315 1 1 -5.039532810611548 -18.743251737744156 4.67669712969288 0 0 0
318 1 1 -3.078536468979108 -17.21568260842499 4.29879158160053 0 0 0
317 1 1 -3.292850386958107 -18.12208313098453 4.839989894873642 0 0 0
319 1 1 -2.4351260122120593 -17.27369856857645 3.5782726866570393 0 0 0
312 1 1 -6.882596269951177 -17.199963614386643 5.031310661679887 0 0 0
313 1 1 -6.107620964810124 -17.419847231994975 4.534763169420558 0 0 0
314 1 1 -5.972129967390189 -18.387427692577724 4.527603316611861 0 0 0
309 1 1 -8.944842384628346 -16.291902997310952 3.8016521321429693 0 0 0
322 1 1 -0.4811153995492145 -19.070809604223726 3.210701620297169 0 0 0
320 1 1 -1.6630891837113433 -17.531237263973846 3.1517641656557798 0 0 0
321 1 1 -1.1726022719481468 -18.31327048441683 3.3553619696154913 0 0 0
310 1 1 -8.312558997523569 -16.346237832001258 4.505688904498475 0 0 0
324 1 1 -0.1629160095785114 -19.04210389669219 2.0270955350817945 0 0 0
323 1 1 -0.31574215286203283 -19.77229377608674 2.6074481582757563 0 0 0
303 1 1 -8.058701467679423 -14.607551889842613 1.119490600988282 0 0 0
308 1 1 -9.834530920363008 -16.059958110372424 3.3925529686134017 0 0 0
307 1 1 -10.13138650267809 -15.649289465269463 2.6107100257528955 0 0 0
305 1 1 -9.210602392429092 -14.721113310859488 2.0324220269359197 0 0 0
304 1 1 -8.769568597409819 -14.069243535163931 1.5526931328567601 0 0 0
302 1 1 -8.397145605748241 -15.011609250085025 0.26262062043840156 0 0 0
301 1 1 -8.165959693627585 -15.982818896492208 0.3269748569813139 0 0 0
306 1 1 -9.525673401009032 -15.587801574997592 1.866045675972374 0 0 0
299 1 1 -7.044741098567588 -16.395547959422263 -0.26030991959846517 0 0 0
300 1 1 -7.536732290188374 -16.682796076992414 0.5667388029176955 0 0 0
372 1 1 -6.277840852086873 -7.794559852020334 0.45980603599394476 0 0 0
374 1 1 -4.454799467514361 -8.224821622821068 1.0245326648443864 0 0 0
373 1 1 -5.3531368561960155 -8.027752221355243 0.70600522590926 0 0 0
375 1 1 -3.6781541757828577 -7.905852185416781 1.5249007987801493 0 0 0
377 1 1 -3.5845071096638126 -7.762551767590358 2.621440244266342 0 0 0
381 1 1 -2.248267826215979 -5.6365642983755135 4.346562250246709 0 0 0
380 1 1 -2.893266162338204 -6.253236953701543 4.047269792902477 0 0 0
378 1 1 -2.7971024070084396 -7.274094649776916 2.906459125305793 0 0 0
379 1 1 -3.449132509692413 -6.75050691852387 3.313845257783335 0 0 0
211 1 1 -7.80754328169492 2.554330000520685 0.2695395405752819 0 0 0
210 1 1 -6.913391895545502 2.2098955545759713 0.13611365834744946 0 0 0
209 1 1 -6.806742632130409 2.741557226156421 0.9905987521597079 0 0 0
208 1 1 -6.441100316384734 3.6850354828538623 1.1853000613914997 0 0 0
207 1 1 -7.265169204896224 4.234224284448455 1.226647686311079 0 0 0
206 1 1 -7.225661604729305 3.934949552141538 2.104059299154496 0 0 0
202 1 1 -8.536454919599484 6.887896081312001 0.9212334803155082 0 0 0
204 1 1 -7.817524079875565 5.4938444529921 1.6942758316954791 0 0 0
203 1 1 -8.558078426756206 6.062230133691217 1.419719637403558 0 0 0
205 1 1 -7.170668943838688 4.895207372176718 1.9418588629424336 0 0 0
174 1 1 -3.3531982742054005 6.1188763639901875 1.0171469777443671 0 0 0
175 1 1 -3.8457390141039114 5.370560815459406 1.3325670236008818 0 0 0
176 1 1 -3.8026624502086146 5.090925359031204 2.2866903544547985 0 0 0
177 1 1 -3.9185471912369856 4.118595008204988 2.1629580838355786 0 0 0
168 1 1 -1.2081399754808395 8.531425327872993 2.610792303698014 0 0 0
172 1 1 -3.0892349418217173 7.8423596817743055 1.6486460271328018 0 0 0
169 1 1 -1.4886774760243717 7.588235164812718 2.5591670602361125 0 0 0
173 1 1 -2.9902646419190617 6.918426150270699 1.4841171324109539 0 0 0
171 1 1 -2.1254375199526567 7.886746508819599 1.7316016225975543 0 0 0
170 1 1 -1.577524649832012 7.091644586210023 1.7480695135402553 0 0 0
14 1 1 3.2862471168358436 3.8799773326156353 3.124163390044278 0 0 0
15 1 1 4.145338656591352 3.6147270897019883 2.881732214529129 0 0 0
16 1 1 4.728633788669069 2.9010883646062533 2.593577035156836 0 0 0
17 1 1 4.223465561232904 3.1379884145852572 1.75261435678169 0 0 0
11 1 1 3.190028930043688 3.3212862540198436 4.0541259453089085 0 0 0
13 1 1 3.6949212778360314 4.616835916624993 3.6223677682245854 0 0 0
12 1 1 3.6828517943368126 4.026948036279867 4.367399743418916 0 0 0
197 1 1 -6.47326961442938 6.0623125268124545 3.2310810043844813 0 0 0
196 1 1 -5.89104423243971 6.847472752221985 3.4599334845024883 0 0 0
198 1 1 -6.693926642182004 6.601094835024042 2.505047192566171 0 0 0
199 1 1 -7.220074167094711 6.916237920215902 1.7513521834021433 0 0 0
201 1 1 -8.285936537884453 7.739781675502069 1.3103779091087593 0 0 0
200 1 1 -7.308177710919363 7.753980226532953 1.25970732887082 0 0 0
167 1 1 -1.3677450069497938 8.87837635718279 3.4446224522832107 0 0 0
166 1 1 -0.7699143415416757 9.311625842438144 4.130442771474166 0 0 0
165 1 1 0.1748557382442121 9.229931550388816 4.141051873132037 0 0 0
164 1 1 0.3477601924795038 10.272506254124666 4.229304601149347 0 0 0
163 1 2 -0.157846528494664 13.063235059750623 2.773682440984866 0 0 0
116 1 1 7.027374307867248 16.748331814711044 4.012649281058054 0 0 0
114 1 1 7.186922936680031 17.809933759529436 3.1588173048665853 0 0 0
112 1 1 8.390096599886455 16.630109340224337 3.5588031300481506 0 0 0
111 1 1 9.250842710308703 16.264419488910665 3.832442868673886 0 0 0
110 1 1 9.315663328114015 15.633395298494293 4.520830839276698 0 0 0
109 1 1 10.167523699368974 15.176191790536313 4.862150555888825 0 0 0
82 1 2 15.762823464338243 11.201808585669946 1.1188738672268344 0 0 0
83 1 1 17.70935668191499 13.928266657961828 0.35432053909572975 0 0 0
97 1 1 15.624509828835437 15.75943111413487 3.2426276069594686 0 0 0
98 1 1 14.681607931698526 15.55331316455911 3.38631384710861 0 0 0
95 1 1 15.460239199148777 16.386813704423346 2.260977152220694 0 0 0
106 1 1 11.27117988683397 14.446589685243119 3.3625502778999987 0 0 0
107 1 1 10.330678773469629 14.257882218523761 3.699380946365273 0 0 0
90 1 1 17.328572476349674 17.310469295654762 1.4062238014398531 0 0 0
91 1 1 17.1043758627447 16.4911305856255 1.9411758095939584 0 0 0
94 1 1 15.697178261627215 17.21634541496482 2.5215105053898044 0 0 0
92 1 1 16.191338717798516 16.603847044530095 1.5070735991239594 0 0 0
93 1 1 15.612359097659658 17.42129347034029 1.5507095812797114 0 0 0
96 1 1 15.658585584640909 15.410175927054617 2.323804559317419 0 0 0
311 1 1 -7.399132880753477 -16.46727041815315 4.652020201104549 0 0 0
382 1 1 -2.9338231168232807 -5.011616087494634 4.506547524100342 0 0 0
383 1 1 -3.503029802851822 -4.964368980713663 5.245426836247036 0 0 0
384 1 1 -3.5383138011734974 -4.359634008930327 6.056091049704119 0 0 0
385 1 1 -4.388550329383657 -4.174656057969368 6.525869149485873 0 0 0
386 1 1 -4.845063383943956 -3.7845227244341584 5.7817401946691 0 0 0
388 1 1 -5.473234052985772 -3.299115874701826 7.45184324070865 0 0 0
387 1 1 -5.450144776459859 -3.559638050842635 6.560386231092056 0 0 0
389 1 1 -5.515932272737953 -2.5760081590720456 8.164526529355204 0 0 0
1 1 2 -0.2727981685314854 -1.5347910696526879 5.466755111085862 0 0 0
4 1 1 0.366220815631399 1.6632186414525718 3.676494490611041 0 0 0
3 1 1 0.30301591252385257 2.0805070235269216 4.536896038191214 0 0 0
2 1 1 0.9347838857138118 1.4829009458088596 4.894670927699989 0 0 0
192 1 1 -6.581051362262507 7.519752409836593 5.00214339922129 0 0 0
191 1 1 -6.066996920571313 6.958009550721383 5.513455540280305 0 0 0
178 1 1 -4.265089879818502 4.131966457398025 3.0295491408516804 0 0 0
189 1 1 -4.441866137195221 7.551642313077006 5.2875636129141705 0 0 0
190 1 1 -5.107074749285212 6.818192601722798 5.521865042019888 0 0 0
187 1 1 -3.92427204072772 6.791920736006433 3.6334472729743634 0 0 0
179 1 1 -3.3192309791358747 4.332165992742563 3.1238441820471907 0 0 0
181 1 1 -1.6493926390493188 4.299351925189015 3.6895148742394186 0 0 0
182 1 1 -1.7451262856851715 4.820919375377008 4.437198975615382 0 0 0
180 1 1 -2.598883429278709 4.558165760282734 3.762695755555519 0 0 0
8 1 1 2.4590723825122 2.386090039186015 4.586818907137805 0 0 0
7 1 1 1.7637516466088827 1.7175977843119528 4.216292557511421 0 0 0
6 1 1 1.3890466720854637 2.1786104583746466 3.4040228356389646 0 0 0
5 1 1 1.1672019275207863 1.2706829670466957 3.360752952330768 0 0 0
10 1 1 2.7353808420817436 3.411047045351156 4.88087098697292 0 0 0
9 1 1 2.476390481975674 2.7540857422719816 5.514232380283895 0 0 0
195 1 1 -5.048993354774303 7.187597969273979 3.7385131118565305 0 0 0
194 1 1 -5.690212141658311 7.753469149618611 4.059288013236804 0 0 0
193 1 1 -6.203752780098205 8.316729974356683 4.623908979661359 0 0 0
188 1 1 -3.919491159570944 7.020976514018653 4.565472712640998 0 0 0
183 1 1 -2.211988879434094 5.44394973030247 5.015565639320593 0 0 0
186 1 1 -2.9931444183770823 6.501983240135027 3.6537915490541497 0 0 0
185 1 1 -2.473066557748994 5.898153815270301 3.0843883016000455 0 0 0
184 1 1 -2.388332242653023 5.759536894522152 4.093937027364738 0 0 0
115 1 1 6.68638806896294 16.945108886724896 3.1473263305303827 0 0 0
113 1 1 7.903310001080235 17.25932936498359 2.9070242340313643 0 0 0
162 1 1 -1.4484799865606475 14.962985822020817 5.28657429427345 0 0 0
155 1 1 -2.944653917597998 17.66157470251871 5.545575795403989 0 0 0
156 1 1 -2.013776849476237 17.495219081607647 5.25114573682679 0 0 0
157 1 1 -2.4809197009172643 16.836680373300823 4.739488698889381 0 0 0
161 1 1 -1.4922345921265494 15.592040787140496 6.007079019377837 0 0 0
160 1 1 -0.8246925398054434 16.103088532168233 6.3788964774179515 0 0 0
159 1 1 -0.953788902661461 16.419264934178273 5.488233869210079 0 0 0
158 1 1 -1.5405333643755372 16.577116698098433 4.704616187311223 0 0 0
134 1 1 2.817466102866255 17.635006838628236 5.061148209028284 0 0 0
133 1 1 3.3080937802342314 16.937581256640225 4.691523067783458 0 0 0
135 1 1 1.8408047487274328 17.741643239688848 4.970825617259316 0 0 0
131 1 1 3.64445814566467 15.576274323913665 3.948283848015292 0 0 0
132 1 1 3.447368418676711 16.521777811988652 3.837170073592928 0 0 0
130 1 1 4.1360192496657024 14.730140935465057 4.007507109401536 0 0 0
117 1 1 6.5819579854480175 15.957088103491158 4.0533720334175225 0 0 0
121 1 1 5.277615693568895 17.482582125495256 5.851139010925624 0 0 0
120 1 1 4.458082526104526 16.95514948548948 5.71368433869444 0 0 0
122 1 1 6.109258986280138 16.961676522195262 5.91518949739177 0 0 0
119 1 1 5.161274061435781 16.720440993381466 5.10129663116009 0 0 0
118 1 1 5.791390765623753 16.342401273134588 4.507561172496119 0 0 0
123 1 1 6.738731894593514 16.299487237599795 5.581509531903515 0 0 0
124 1 1 6.33420031514657 15.797030680657318 6.4109012806485275 0 0 0
127 1 1 4.301323910097363 15.26025230942158 5.509583749603383 0 0 0
129 1 1 4.959286978284976 14.441742329594941 4.489453973624749 0 0 0
126 1 1 5.129080940514486 15.460494862237976 5.829277316300341 0 0 0
99 1 1 14.32447789026797 14.875519228432463 2.7595931204551327 0 0 0
105 1 1 11.370286825346444 15.253134514450794 3.854804792575187 0 0 0
108 1 1 9.75217182452367 14.396827255873186 4.472089062840909 0 0 0
103 1 1 12.464666429668975 15.26528708392076 4.313809076900329 0 0 0
104 1 1 11.903927961764916 16.004830314587707 4.169335078449677 0 0 0
100 1 1 13.716569990116822 14.383555998334186 3.351006414510824 0 0 0
101 1 1 12.734553623816556 14.310049144023088 3.2282871313832633 0 0 0
102 1 1 12.711296654151669 15.248660322088318 3.3657246223387802 0 0 0
154 1 1 -3.583016873635043 17.29134785785821 6.1684800115717575 0 0 0
153 1 1 -2.8584329446967307 16.725608947684872 6.310438790056023 0 0 0
152 1 1 -1.9279838165482284 17.051335072432412 6.342448144125306 0 0 0
140 1 1 1.2841130620514654 20.312192887702587 6.0451854869762975 0 0 0
139 1 1 0.7041792788917494 20.322380946963506 5.237739321188154 0 0 0
137 1 1 1.7156378862574577 19.53036682740345 5.192636958751494 0 0 0
136 1 1 1.451875293717963 18.586135300086152 5.1975277826588115 0 0 0
150 1 1 -1.6182127795354557 17.608155357166982 7.809647538870548 0 0 0
151 1 1 -2.1175118722589077 17.709491572543644 6.971206192641153 0 0 0
145 1 1 1.4669174182516689 19.04324441989867 8.217895463677465 0 0 0
144 1 1 2.1713359070861253 19.572625238969696 7.867085044957272 0 0 0
138 1 1 0.8203275686569858 19.479455709900222 4.717983424137132 0 0 0
125 1 1 6.030858466307638 15.341619589795336 5.662509477192392 0 0 0
390 1 1 -5.593208067291107 -1.5798838346278101 8.283963561065395 0 0 0
391 1 1 -5.072107335947357 -1.2045204239750493 7.467443721691438 0 0 0
392 1 1 -5.390386012497045 -0.42662958146322083 8.14485910910036 0 0 0
393 1 1 -5.591266694567508 0.060935446330742105 9.008003679097515 0 0 0
402 1 1 -2.239185533471997 -2.5410850186050755 10.160001140418935 0 0 0
403 1 1 -1.5519588888093305 -3.0011046058982997 9.600446660746874 0 0 0
404 1 1 -0.9678731613583356 -2.7660239643964237 8.950186746960915 0 0 0
405 1 1 -0.9963039464814245 -3.2509068323325674 8.136251021766022 0 0 0
395 1 1 -4.770328547112427 -1.1206238393197507 8.783164620887401 0 0 0
394 1 1 -4.720121669656082 -0.1488983395978851 9.108610401424878 0 0 0
397 1 1 -3.2278402610403614 -1.1101237223218672 9.746967684153821 0 0 0
401 1 1 -2.12726466174804 -1.7632978052812711 10.804584923568742 0 0 0
398 1 1 -2.432047862223845 -1.2219727669133336 9.242081387875274 0 0 0
399 1 1 -2.5034821801536298 -0.3038163916658175 9.649559977204511 0 0 0
400 1 1 -2.305568996765271 -1.039925911176041 10.253952989405509 0 0 0
128 1 1 4.183878758706274 14.386082592438132 5.0843426610433005 0 0 0
146 1 1 1.154538445029398 19.37610504612629 9.024958364856744 0 0 0
141 1 1 0.9317238304255502 20.52751243717862 6.976077321048806 0 0 0
142 1 1 1.807740413267877 20.853017672100123 6.7624210932784194 0 0 0
147 1 1 0.37784575317407293 18.840285319537063 8.84918742544061 0 0 0
148 1 1 -0.4778758317665377 18.41292919039524 8.875136432301751 0 0 0
149 1 1 -1.1091489470886238 18.34650746243062 8.093777660547822 0 0 0
143 1 1 2.3781399009907203 20.32389086544863 7.375158708107057 0 0 0
396 1 1 -3.9219088398572763 -1.4247454952878904 9.198040416597937 0 0 0

Velocities

272 2.419686475101889 0.9304542787729942 -0.5147471224799612
273 -0.2787139010825192 0.8957874146261502 1.5094899971902758
271 0.3856699148777192 -1.3005194498703363 -0.38500003681122186
259 0.07830660581325365 -0.31762023695697433 -1.9088920434396448
260 1.1278398158067158 -2.3698659905415727 -0.9852165078206233
264 1.4397487711501127 1.5174854727620215 0.30696457649091063
263 -1.6806583030338564 0.7041430033752698 0.030041801161821
261 1.2506198058748348 0.4449730026116808 0.014306105860837451
262 -0.46810752706689496 0.7053116028089165 1.8963622840745344
265 -0.5590439927186766 1.1446289008739963 -0.11294180859350754
269 0.14994080781036062 -1.1840356272469856 0.774895707546261
270 -0.09993071521729141 2.0310478661663383 -1.0489394878375575
266 -0.6135559070246502 0.5159816642540408 -1.3263001461602482
268 -0.0010319712916764196 0.739811381857471 0.8340735704450711
267 0.13470706076904482 0.6922375092218841 -0.3916727811266488
258 0.8248112728868852 0.8938516684995129 0.9111882525657954