LAMMPS data file via MDAnalysis

        2000  atoms
        1999  bonds
           0  angles
           0  dihedrals
           0  impropers

           1  atom types
           1  bond types
           0  angle types
           0  dihedral types
           0  improper types

-30.5 30.5 xlo xhi
-30.5 30.5 ylo yhi
-233.5 233.5 zlo zhi


Masses

1 1.000000

Atoms

1 0 1 6.320328 21.667223 64.819214
2 0 1 5.474239 22.190622 64.855408
3 0 1 6.097126 22.682421 65.389801
4 0 1 6.869698 22.758821 65.878296
5 0 1 6.246029 22.485224 66.567108
6 0 1 6.537746 23.119921 67.320007
7 0 1 6.864197 24.029322 67.569611
8 0 1 7.481747 23.347124 67.287903
9 0 1 7.179207 22.886820 68.014282
10 0 1 7.214649 22.695620 68.975189
11 0 1 7.149220 21.779623 68.843201
12 0 1 8.118347 21.627024 69.058289
13 0 1 8.310658 21.815523 68.150696
14 0 1 9.242828 21.913923 68.553894
15 0 1 9.836506 21.651823 67.780396
16 0 1 10.589298 22.238024 67.476501
17 0 1 10.341610 22.031523 66.503113
18 0 1 9.547421 22.572321 66.286987
19 0 1 9.160557 21.821825 65.935913
20 0 1 8.263866 22.059725 65.654419
21 0 1 7.862858 22.610224 64.989990
22 0 1 8.407429 23.463522 64.768005
23 0 1 7.497120 23.763422 64.440094
24 0 1 6.740368 23.334520 64.046600
25 0 1 6.514599 22.427225 63.815399
26 0 1 6.451397 22.115122 62.866089
27 0 1 6.686230 21.468023 62.121216
28 0 1 7.059368 21.606722 61.248596
29 0 1 7.827049 21.942423 61.844910
30 0 1 8.464699 22.005922 61.104889
31 0 1 9.255009 21.719923 61.602295
32 0 1 9.270309 22.383921 62.345490
33 0 1 9.622036 23.054621 61.724304
34 0 1 9.285290 23.652323 61.039185
35 0 1 9.970169 24.185320 60.551392
36 0 1 9.726299 24.511923 61.471893
37 0 1 9.867409 25.446722 61.447113
38 0 1 10.341537 25.548220 60.612793
39 0 1 10.051830 26.499022 60.682495
40 0 1 10.915398 27.050524 60.579895
41 0 1 11.355099 26.677523 61.457489
42 0 1 11.547897 25.745623 61.804016
43 0 1 11.405499 24.873621 62.203491
44 0 1 11.840397 24.176020 61.756592
45 0 1 11.785297 23.198023 61.706604
46 0 1 11.927597 22.239622 61.499817
47 0 1 12.521599 22.753523 60.974701
48 0 1 13.349998 23.033121 60.512604
49 0 1 13.836899 22.329920 60.843384
50 0 1 13.286800 21.591524 60.468384
51 0 1 12.885197 20.706423 60.829803
52 0 1 13.000500 20.760221 61.781311
53 0 1 13.228497 19.837923 61.422302
54 0 1 13.308300 19.604822 60.461212
55 0 1 12.841297 18.946123 60.963196
56 0 1 12.844898 18.308222 61.617706
57 0 1 11.969997 18.479021 61.372498
58 0 1 11.300697 19.132921 61.245697
59 0 1 11.586197 19.179823 60.325195
60 0 1 10.930099 19.722925 59.903290
61 0 1 10.828697 19.000322 59.323303
62 0 1 10.113937 19.087122 59.934387
63 0 1 10.272556 18.173120 59.854797
64 0 1 9.969830 18.038023 58.975311
65 0 1 10.592499 18.126421 58.205292
66 0 1 10.066078 17.681921 57.538605
67 0 1 9.384029 17.942423 56.905212
68 0 1 8.819630 17.857424 57.675903
69 0 1 8.479527 18.742521 58.103394
70 0 1 7.738239 18.382524 57.608307
71 0 1 7.546307 18.177622 56.771484
72 0 1 7.883579 18.494524 55.907593
73 0 1 8.055218 18.804922 55.047211
74 0 1 8.702999 18.148523 54.666199
75 0 1 7.807819 17.934523 54.421204
76 0 1 7.924557 17.033625 54.721008
77 0 1 7.894409 16.512522 53.900513
78 0 1 7.106350 16.509424 53.377899
79 0 1 6.632427 17.365023 53.531189
80 0 1 6.148449 17.947222 54.113586
81 0 1 5.422478 18.621820 54.122498
82 0 1 5.057518 17.907724 53.624512
83 0 1 4.098557 18.148321 53.458496
84 0 1 3.206360 18.365023 53.282898
85 0 1 2.325588 18.164324 52.994690
86 0 1 2.567978 17.428225 53.446808
87 0 1 2.149460 17.645723 54.254791
88 0 1 2.569866 18.518423 54.337402
89 0 1 2.742207 19.338923 54.872803
90 0 1 2.858177 20.237322 54.301086
91 0 1 3.487637 21.028521 54.165588
92 0 1 3.496449 21.688921 54.880493
93 0 1 3.096737 21.336622 55.684113
94 0 1 2.193657 21.168825 55.598694
95 0 1 1.954086 22.058825 55.313110
96 0 1 1.387718 22.814123 55.561707
97 0 1 1.974930 22.757524 56.265808
98 0 1 1.882439 23.678820 56.446411
99 0 1 1.568928 24.458323 56.867706
100 0 1 1.214684 23.576220 57.324310
101 0 1 0.456640 23.529322 56.702087
102 0 1 0.014202 23.505320 57.527710
103 0 1 -0.722471 23.641222 58.162811
104 0 1 -1.142382 23.036921 57.503510
105 0 1 -1.547851 22.619020 58.324707
106 0 1 -2.339451 22.928022 58.763306
107 0 1 -2.749361 23.148424 57.928802
108 0 1 -3.358143 23.435122 58.599701
109 0 1 -3.962101 23.991220 58.003998
110 0 1 -4.475132 24.054323 58.819092
111 0 1 -5.389242 24.332521 58.769012
112 0 1 -5.628862 23.474123 58.420197
113 0 1 -5.439672 23.944323 57.528900
114 0 1 -5.514212 24.815325 57.776306
115 0 1 -6.320162 25.243822 57.997986
116 0 1 -7.064102 24.777822 57.614594
117 0 1 -7.648083 24.259123 56.960297
118 0 1 -7.727783 24.932222 56.317200
119 0 1 -6.844002 25.259722 56.463684
120 0 1 -6.826893 25.308222 55.485504
121 0 1 -6.328161 24.629824 55.851593
122 0 1 -5.940792 23.952223 56.368408
123 0 1 -6.039322 23.171022 56.873688
124 0 1 -6.182793 23.056223 55.926605
125 0 1 -7.110722 23.094023 55.502594
126 0 1 -7.256382 23.248720 54.532288
127 0 1 -7.309113 24.067923 54.012299
128 0 1 -7.231083 24.968523 53.669189
129 0 1 -6.357782 25.441324 53.587585
130 0 1 -6.014473 25.950022 52.836395
131 0 1 -6.961533 25.782022 52.667206
132 0 1 -7.913012 25.733622 52.965790
133 0 1 -8.721493 26.151224 52.565887
134 0 1 -8.630291 27.088625 52.513916
135 0 1 -7.824202 27.214323 53.036316
136 0 1 -7.956572 28.132921 53.273895
137 0 1 -8.721922 28.606623 53.462402
138 0 1 -8.941792 27.894625 54.089417
139 0 1 -9.790703 28.213423 53.893707
140 0 1 -10.146702 28.188322 53.007294
141 0 1 -10.827801 27.759920 53.530396
142 0 1 -11.456703 27.038122 53.619202
143 0 1 -12.428602 27.037325 53.859985
144 0 1 -13.104502 27.267122 54.522797
145 0 1 -13.913902 27.202120 55.247498
146 0 1 -14.758801 26.642923 55.195312
147 0 1 -15.717001 26.495424 55.254700
148 0 1 -16.594002 26.141722 55.155396
149 0 1 -16.235302 25.955622 56.029114
150 0 1 -16.905703 26.140520 56.666199
151 0 1 -16.014202 26.429125 56.963287
152 0 1 -15.576702 25.641623 57.400604
153 0 1 -14.951102 25.355120 56.664490
154 0 1 -15.421202 24.991522 55.915497
155 0 1 -14.973602 24.239923 55.371704
156 0 1 -14.156002 24.617323 54.996613
157 0 1 -14.058802 24.989321 55.890411
158 0 1 -13.189102 25.351122 56.055908
159 0 1 -12.863302 25.315325 56.992004
160 0 1 -12.438103 24.457922 56.699402
161 0 1 -12.653202 24.014223 55.837799
162 0 1 -12.810402 24.722025 55.151001
163 0 1 -11.854202 24.628122 55.298004
164 0 1 -11.796303 23.686724 55.227509
165 0 1 -10.863903 23.799524 55.130188
166 0 1 -10.780602 22.933924 54.756500
167 0 1 -10.317802 22.179323 55.169006
168 0 1 -9.628511 22.718721 54.764801
169 0 1 -9.901703 23.641222 54.522888
170 0 1 -9.935602 24.479021 54.049316
171 0 1 -10.141602 23.647921 53.558197
172 0 1 -9.260983 24.008020 53.256409
173 0 1 -9.972603 24.195925 52.617188
174 0 1 -10.767200 24.320925 52.069092
175 0 1 -11.359501 24.986620 51.735199
176 0 1 -11.313402 24.425920 50.979401
177 0 1 -12.036201 23.988825 50.548096
178 0 1 -11.453503 23.317522 50.338287
179 0 1 -11.442303 22.603121 49.674805
180 0 1 -12.428303 22.787325 49.689789
181 0 1 -12.216602 22.449221 48.776398
182 0 1 -11.605001 21.749823 49.013916
183 0 1 -11.043503 21.070620 48.653687
184 0 1 -10.399502 20.570124 49.102997
185 0 1 -9.892702 19.765223 49.404999
186 0 1 -9.100353 19.238623 49.155090
187 0 1 -9.114002 18.512621 48.415894
188 0 1 -8.674641 17.674223 48.652496
189 0 1 -8.310211 18.203321 47.897003
190 0 1 -7.686441 18.968122 47.977783
191 0 1 -7.387032 18.430620 48.649689
192 0 1 -7.228971 17.547022 48.911591
193 0 1 -7.153372 17.335123 49.871216
194 0 1 -6.278923 16.905024 49.810913
195 0 1 -5.951412 16.665121 50.709808
196 0 1 -5.519342 17.402323 51.245483
197 0 1 -6.480232 17.477522 51.403595
198 0 1 -6.072361 18.387823 51.338898
199 0 1 -5.857271 18.866323 50.476288
200 0 1 -5.273962 18.804323 49.729004
201 0 1 -5.485071 18.873224 48.779205
202 0 1 -5.050293 18.076223 48.411713
203 0 1 -5.629702 17.476824 47.796906
204 0 1 -5.184412 17.043520 47.019104
205 0 1 -5.920063 16.550623 46.506409
206 0 1 -5.579601 15.702322 46.440002
207 0 1 -6.041153 15.349321 45.587708
208 0 1 -6.688633 15.901922 46.000397
209 0 1 -6.780102 15.303225 46.842590
210 0 1 -7.618202 15.040621 46.360596
211 0 1 -8.325691 14.942823 45.680786
212 0 1 -7.626301 15.097124 45.019012
213 0 1 -7.470201 14.205423 45.419098
214 0 1 -8.278111 13.487925 45.153290
215 0 1 -7.743893 13.471521 44.376892
216 0 1 -8.647552 13.552023 44.094604
217 0 1 -8.614052 14.495424 44.041901
218 0 1 -8.614353 14.491823 43.068207
219 0 1 -8.608042 15.515924 43.147888
220 0 1 -9.535322 15.691023 43.238708
221 0 1 -9.379890 16.240622 42.488098
222 0 1 -10.042002 16.271021 41.806610
223 0 1 -10.534401 15.648920 41.208191
224 0 1 -10.420502 14.688124 41.050812
225 0 1 -9.612812 14.145723 41.255615
226 0 1 -9.052883 14.289522 42.028992
227 0 1 -8.474802 15.000021 42.208801
228 0 1 -8.509272 14.952421 41.170593
229 0 1 -7.655642 14.569021 40.903900
230 0 1 -7.064461 13.775824 40.835602
231 0 1 -7.639042 13.145224 40.345490
232 0 1 -7.212452 12.353624 40.676697
233 0 1 -7.059511 11.610392 40.137909
234 0 1 -6.272182 11.572142 39.601685
235 0 1 -5.621071 11.475870 38.881897
236 0 1 -6.122131 10.943811 38.214417
237 0 1 -5.253151 10.316442 38.113007
238 0 1 -5.174412 9.560633 37.552887
239 0 1 -5.790562 8.874151 37.990784
240 0 1 -6.047922 8.441702 37.151794
241 0 1 -6.106592 7.438342 37.223297
242 0 1 -6.640951 6.602801 37.245087
243 0 1 -7.166502 5.828173 37.042297
244 0 1 -7.024311 4.857333 37.175598
245 0 1 -6.457912 5.293711 36.498901
246 0 1 -5.700901 5.629412 36.036713
247 0 1 -5.134912 5.136431 36.657196
248 0 1 -4.395191 4.812731 37.092896
249 0 1 -4.505922 4.431622 36.257507
250 0 1 -3.571583 4.410653 36.061798
251 0 1 -3.174973 3.956562 36.821808
252 0 1 -3.581102 4.230214 37.689911
253 0 1 -3.200422 5.061831 37.988190
254 0 1 -3.232512 5.588564 38.775513
255 0 1 -3.558912 6.009234 39.589996
256 0 1 -4.457703 5.733454 39.803497
257 0 1 -4.864471 5.711112 40.670197
258 0 1 -4.358181 5.571951 41.484802
259 0 1 -4.864773 4.755724 41.225708
260 0 1 -4.424511 4.266324 41.908386
261 0 1 -3.965733 3.659889 41.188995
262 0 1 -4.410902 3.019068 41.744293
263 0 1 -4.222841 2.290264 41.113098
264 0 1 -4.662781 2.567097 40.355896
265 0 1 -3.854893 2.262493 39.737396
266 0 1 -3.776892 1.499033 40.412506
267 0 1 -3.755972 0.503603 40.470398
268 0 1 -3.265522 -0.256077 40.709198
269 0 1 -2.907932 -0.395197 41.587097
270 0 1 -3.595121 -0.743107 42.172791
271 0 1 -3.519552 -1.623037 42.259491
272 0 1 -3.380871 -1.743618 41.342285
273 0 1 -3.573933 -2.660948 41.487915
274 0 1 -3.404732 -3.429987 40.879303
275 0 1 -2.996181 -4.281208 40.705597
276 0 1 -2.578552 -5.153038 40.460297
277 0 1 -2.165081 -4.606597 39.775513
278 0 1 -2.480501 -3.687767 39.764587
279 0 1 -2.360962 -2.816337 39.311493
280 0 1 -2.852871 -2.165777 39.809692
281 0 1 -2.071362 -2.167038 40.432098
282 0 1 -2.404593 -1.322248 40.805511
283 0 1 -2.404572 -0.916078 39.966888
284 0 1 -2.134922 -0.565597 39.182983
285 0 1 -2.758322 0.103382 39.191010
286 0 1 -3.305422 -0.432897 38.543091
287 0 1 -2.445723 -0.551717 38.056702
288 0 1 -2.536053 -0.464998 37.055115
289 0 1 -2.920172 -1.302278 36.780884
290 0 1 -2.310041 -1.744417 36.219788
291 0 1 -1.398542 -2.101698 36.191193
292 0 1 -1.364382 -2.909528 36.670593
293 0 1 -0.777111 -2.618498 37.353088
294 0 1 0.108631 -3.057317 37.035309
295 0 1 0.823361 -2.425127 36.756714
296 0 1 0.714592 -1.454567 36.660492
297 0 1 1.249674 -0.734897 37.018311
298 0 1 1.746819 -1.045368 37.748688
299 0 1 1.542229 -0.571657 38.547791
300 0 1 0.917387 -0.017088 38.952087
301 0 1 0.324593 0.722843 38.823212
302 0 1 0.318419 0.458952 37.853607
303 0 1 0.719675 1.315172 37.567505
304 0 1 0.977530 1.832743 36.767792
305 0 1 1.525068 0.981543 36.781616
306 0 1 2.373817 0.812933 36.343292
307 0 1 2.847137 0.003523 36.271790
308 0 1 2.396069 0.148102 35.454895
309 0 1 3.001968 -0.339027 34.866608
310 0 1 3.852367 -0.616157 35.200409
311 0 1 3.388447 -1.015087 35.992798
312 0 1 3.719597 -1.915937 35.732910
313 0 1 3.808838 -2.884407 35.810394
314 0 1 3.917747 -3.769418 35.503296
315 0 1 4.041328 -3.442598 34.667694
316 0 1 4.945740 -3.643627 34.673309
317 0 1 5.142719 -3.495638 33.761902
318 0 1 6.002357 -3.972908 33.898315
319 0 1 6.841396 -3.704489 33.342804
320 0 1 6.301380 -4.351797 32.886505
321 0 1 6.614559 -4.694898 32.082306
322 0 1 6.515347 -4.678808 31.103607
323 0 1 5.671379 -4.350067 31.283203
324 0 1 4.717510 -4.166267 31.519714
325 0 1 4.870029 -3.793817 30.622894
326 0 1 4.314678 -3.711527 29.837189
327 0 1 3.951309 -4.433347 29.232086
328 0 1 3.346546 -4.619176 28.536987
329 0 1 3.012108 -5.224727 27.893707
330 0 1 3.810429 -4.982618 27.473389
331 0 1 3.892399 -3.986017 27.335510
332 0 1 3.580669 -3.953598 26.418396
333 0 1 3.469727 -3.025087 26.157806
334 0 1 3.810040 -2.119978 26.449707
335 0 1 4.402878 -1.941747 25.729004
336 0 1 5.105759 -1.338728 25.946991
337 0 1 6.006378 -1.568647 26.036987
338 0 1 6.413670 -0.781147 25.648193
339 0 1 7.154739 -1.067167 26.246704
340 0 1 7.891617 -1.425009 25.877991
341 0 1 8.413006 -2.070787 25.330597
342 0 1 8.488010 -2.402899 26.249603
343 0 1 8.089249 -3.307268 26.240601
344 0 1 7.630009 -4.074537 25.851685
345 0 1 7.395897 -4.261337 24.949585
346 0 1 6.780777 -4.929597 24.927185
347 0 1 6.063549 -5.259256 24.350006
348 0 1 5.164249 -5.587497 24.234894
349 0 1 4.644466 -5.268686 24.972198
350 0 1 4.089558 -4.650716 25.407013
351 0 1 3.448128 -5.229528 24.928314
352 0 1 2.886837 -6.075037 24.889008
353 0 1 3.215656 -6.213808 24.032593
354 0 1 2.823620 -6.767208 23.473602
355 0 1 2.618317 -7.691976 23.226501
356 0 1 2.301819 -8.127277 22.407700
357 0 1 2.560097 -7.463377 21.851303
358 0 1 3.278248 -8.163778 21.592194
359 0 1 4.268017 -8.234877 21.712006
360 0 1 4.279217 -7.800378 20.849594
361 0 1 4.877289 -7.071977 21.091797
362 0 1 5.528427 -7.645978 20.589600
363 0 1 6.184917 -8.012678 19.999603
364 0 1 6.737709 -7.260477 20.140701
365 0 1 7.688667 -7.342678 19.872299
366 0 1 8.004967 -6.539037 19.498901
367 0 1 7.517559 -5.786148 19.115906
368 0 1 6.786167 -5.406648 19.708694
369 0 1 6.992889 -4.476287 19.490005
370 0 1 7.538067 -4.089237 18.844803
371 0 1 8.316177 -3.716417 18.511597
372 0 1 8.829197 -2.941488 18.439606
373 0 1 9.488358 -2.275158 18.851303
374 0 1 10.018467 -1.729257 19.460602
375 0 1 9.573059 -1.256048 18.809204
376 0 1 9.637527 -0.718816 19.611694
377 0 1 9.793488 0.103613 19.008804
378 0 1 10.208050 0.346512 18.217499
379 0 1 9.923897 0.652102 17.375504
380 0 1 9.476109 1.523073 17.238708
381 0 1 10.294987 1.910572 17.440201
382 0 1 10.404198 2.525681 18.143997
383 0 1 11.234497 2.150353 18.057495
384 0 1 11.693501 2.137524 18.968704
385 0 1 11.557098 2.999983 19.350403
386 0 1 10.726898 3.387615 19.774994
387 0 1 10.031887 4.075043 19.759201
388 0 1 9.581207 4.674445 19.115601
389 0 1 9.037327 4.610442 18.315994
390 0 1 9.073288 4.345164 17.377396
391 0 1 9.410347 5.169993 17.007401
392 0 1 9.475227 5.863863 17.677704
393 0 1 8.630779 6.006983 18.011200
394 0 1 8.095360 6.786051 17.660995
395 0 1 7.557980 7.599513 17.811707
396 0 1 6.883938 7.564974 17.124802
397 0 1 6.301208 6.835474 17.472000
398 0 1 6.322548 5.877062 17.296906
399 0 1 5.892670 5.371981 17.972000
400 0 1 5.230358 5.948962 17.556503
401 0 1 4.812157 5.131682 17.373306
402 0 1 4.792698 4.627112 18.189606
403 0 1 4.718899 4.488753 19.171600
404 0 1 5.626198 4.373682 19.387894
405 0 1 6.464027 4.092824 19.612305
406 0 1 6.896458 4.268683 20.464600
407 0 1 6.927757 5.175223 20.296097
408 0 1 6.038727 5.478541 19.952103
409 0 1 6.296909 6.518343 20.041992
410 0 1 6.818478 7.301562 20.312408
411 0 1 6.151508 7.671122 19.755493
412 0 1 5.273529 7.496764 20.143997
413 0 1 5.253899 8.474623 20.044296
414 0 1 4.481037 8.098242 19.620605
415 0 1 4.688038 8.402712 18.738602
416 0 1 4.100529 8.971853 18.151596
417 0 1 3.408890 8.533274 18.596893
418 0 1 2.548199 8.542742 19.014603
419 0 1 2.051018 8.492281 18.213806
420 0 1 1.328505 7.738593 18.227692
421 0 1 0.552105 7.586672 18.799301
422 0 1 -0.239344 8.016752 18.783203
423 0 1 0.287258 8.585691 18.257797
424 0 1 1.055821 9.204473 18.199005
425 0 1 0.728973 9.934423 17.648499
426 0 1 0.395321 9.376062 16.964996
427 0 1 -0.162214 10.028952 16.517105
428 0 1 -0.235836 9.152514 16.086700
429 0 1 -0.024342 9.463263 15.176804
430 0 1 -0.119966 8.775373 14.464508
431 0 1 -0.104278 7.840891 14.126495
432 0 1 0.087767 7.021761 13.573593
433 0 1 0.236427 6.236342 13.015701
434 0 1 0.722851 6.831713 12.332504
435 0 1 -0.198971 6.905844 12.101395
436 0 1 -0.992241 6.825694 11.584396
437 0 1 -1.366642 6.730742 10.732803
438 0 1 -1.776741 6.152995 10.033997
439 0 1 -2.182941 6.513762 9.197937
440 0 1 -2.962112 5.998934 8.916718
441 0 1 -2.779312 5.056372 9.164566
442 0 1 -1.957891 4.873782 9.633575
443 0 1 -2.199532 4.180212 10.210205
444 0 1 -2.817951 4.978964 10.328201
445 0 1 -3.701092 4.478312 10.183197
446 0 1 -4.092911 3.567993 10.218903
447 0 1 -4.569262 2.717566 10.078506
448 0 1 -4.172192 1.836493 10.009598
449 0 1 -3.817812 1.046293 9.508194
450 0 1 -4.605732 1.000853 8.939117
451 0 1 -4.812632 1.897663 8.670135
452 0 1 -5.470472 1.721253 9.356537
453 0 1 -6.287512 1.202702 9.135117
454 0 1 -6.803152 1.240193 8.304535
455 0 1 -7.235052 1.705424 7.670868
456 0 1 -6.332092 2.184061 7.624115
457 0 1 -6.551851 3.093193 7.104493
458 0 1 -6.634552 2.469694 6.394150
459 0 1 -6.023031 1.881212 5.990464
460 0 1 -5.187061 2.205166 6.238068
461 0 1 -4.569832 1.672653 5.741272
462 0 1 -4.857042 0.763182 5.704453
463 0 1 -4.736023 -0.149868 5.306656
464 0 1 -5.528292 -0.436878 5.770356
465 0 1 -6.312622 -0.258417 5.121598
466 0 1 -6.962872 -0.162458 4.308243
467 0 1 -6.866352 0.563372 3.637024
468 0 1 -5.900072 0.463583 3.583985
469 0 1 -5.252502 -0.189447 3.294770
470 0 1 -4.520863 -0.373148 2.709122
471 0 1 -5.023262 -0.857217 2.029602
472 0 1 -5.267061 -0.944797 1.026840
473 0 1 -6.148712 -0.732998 1.377640
474 0 1 -6.918081 -1.185919 1.581864
475 0 1 -7.209023 -2.013708 2.024231
476 0 1 -7.869072 -2.679579 2.056107
477 0 1 -7.794701 -2.482618 1.106964
478 0 1 -7.797482 -2.339998 0.167557
479 0 1 -8.051941 -2.784467 -0.602127
480 0 1 -8.802282 -2.974916 -1.136505
481 0 1 -8.525322 -3.536848 -1.920227
482 0 1 -8.323292 -3.920057 -1.066971
483 0 1 -7.363302 -3.959377 -1.611786
484 0 1 -7.006351 -4.003578 -2.512542
485 0 1 -6.547302 -4.859426 -2.547470
486 0 1 -6.237602 -4.741388 -1.615158
487 0 1 -6.404352 -3.840078 -1.269119
488 0 1 -6.895401 -3.063907 -1.006317
489 0 1 -7.153482 -3.450317 -0.164901
490 0 1 -6.768492 -3.462847 0.735184
491 0 1 -6.441652 -3.366777 1.643387
492 0 1 -6.394102 -4.058008 2.283921
493 0 1 -7.260181 -4.175018 2.696457
494 0 1 -6.739092 -4.600387 3.441056
495 0 1 -5.824741 -4.377218 3.874802
496 0 1 -5.870913 -3.413778 4.187424
497 0 1 -6.336601 -3.581897 4.972260
498 0 1 -6.980902 -2.941868 5.398072
499 0 1 -6.363361 -2.256197 5.456818
500 0 1 -5.474882 -2.661958 5.587708
501 0 1 -5.512312 -3.237207 6.312180
502 0 1 -5.074991 -2.373998 6.531220
503 0 1 -5.082792 -2.143827 7.508622
504 0 1 -6.077951 -2.214658 7.567444
505 0 1 -6.477972 -1.601658 8.215744
506 0 1 -7.169132 -1.792269 7.538590
507 0 1 -7.929363 -1.849447 8.127167
508 0 1 -8.171282 -0.914377 7.877503
509 0 1 -8.673771 -0.977817 6.995530
510 0 1 -8.974823 0.014342 7.044724
511 0 1 -8.774672 -0.215448 6.078431
512 0 1 -8.478792 -0.903726 5.468827
513 0 1 -9.194092 -0.653436 4.825104
514 0 1 -9.662403 0.114373 5.207535
515 0 1 -10.042702 0.981913 5.077561
516 0 1 -10.277603 1.392952 5.896744
517 0 1 -10.000103 1.986674 6.582306
518 0 1 -10.607903 2.441290 5.968125
519 0 1 -11.576502 2.632900 6.350754
520 0 1 -11.944103 2.712570 7.210343
521 0 1 -12.209503 3.561161 6.761185
522 0 1 -12.021801 4.496943 6.526993
523 0 1 -12.735302 4.263234 5.929398
524 0 1 -12.549801 5.205214 5.991013
525 0 1 -12.935402 6.051974 5.625107
526 0 1 -12.972502 6.991511 5.646531
527 0 1 -13.487001 7.473624 4.999405
528 0 1 -12.445301 7.588183 4.750885
529 0 1 -12.679802 8.432371 5.063736
530 0 1 -12.639400 8.264273 5.983155
531 0 1 -13.074703 7.885623 6.762375
532 0 1 -13.713703 7.284384 7.112259
533 0 1 -14.166202 7.959155 6.621155
534 0 1 -14.821301 8.594362 6.899537
535 0 1 -14.778802 8.506990 5.946946
536 0 1 -15.165302 9.402254 6.036728
537 0 1 -14.794702 10.297651 6.211686
538 0 1 -15.227901 10.526922 5.380631
539 0 1 -14.834102 11.253733 4.769471
540 0 1 -15.148002 11.191690 3.869889
541 0 1 -15.926702 10.598932 3.728607
542 0 1 -16.273802 11.047743 4.505890
543 0 1 -16.941101 10.501944 5.105820
544 0 1 -16.806702 10.398733 6.022278
545 0 1 -16.476202 9.808764 6.712845
546 0 1 -16.997402 9.692961 7.533631
547 0 1 -17.017601 9.676924 8.460007
548 0 1 -17.909702 10.116213 8.670578
549 0 1 -17.856503 10.039534 9.644638
550 0 1 -18.161303 10.690184 10.279907
551 0 1 -18.435501 10.126352 11.151703
552 0 1 -19.406403 10.318892 10.917404
553 0 1 -20.287302 10.702353 10.913498
554 0 1 -20.893501 10.067781 11.309402
555 0 1 -20.811802 10.459173 12.164093
556 0 1 -20.422602 10.754641 13.032700
557 0 1 -19.460901 10.763502 13.506393
558 0 1 -18.968401 10.960474 14.384399
559 0 1 -19.761501 11.515532 14.320602
560 0 1 -19.503902 11.648554 15.232605
561 0 1 -19.885302 10.768221 15.648499
562 0 1 -19.453802 10.749422 16.518600
563 0 1 -18.824501 11.284033 17.018097
564 0 1 -17.878202 11.176493 17.064606
565 0 1 -18.191202 10.342783 17.468796
566 0 1 -17.213202 10.357401 17.362396
567 0 1 -16.293303 10.078211 17.482208
568 0 1 -16.305801 10.625692 18.213898
569 0 1 -15.609502 9.936373 18.339996
570 0 1 -14.908102 9.947344 17.644394
571 0 1 -14.190902 9.620184 18.086792
572 0 1 -13.452801 9.048353 17.837494
573 0 1 -12.637802 8.978090 17.387604
574 0 1 -11.918201 9.088274 18.061905
575 0 1 -11.213402 8.827383 18.690094
576 0 1 -10.475601 8.377203 18.197098
577 0 1 -10.441202 7.992354 19.077606
578 0 1 -10.229202 7.067233 19.168793
579 0 1 -9.350422 7.570155 19.128799
580 0 1 -8.623152 7.618365 19.759308
581 0 1 -8.082932 7.630473 20.548203
582 0 1 -7.726131 7.363162 21.363007
583 0 1 -7.788572 6.619162 21.925095
584 0 1 -7.789892 5.897063 22.553406
585 0 1 -8.238281 5.643702 23.331604
586 0 1 -8.853691 6.250922 23.798889
587 0 1 -9.015612 5.405272 24.180786
588 0 1 -9.304943 4.575533 24.579193
589 0 1 -9.602543 3.705086 24.477203
590 0 1 -9.560562 2.849589 24.906616
591 0 1 -10.400303 2.499111 24.706696
592 0 1 -11.207703 2.175709 24.185913
593 0 1 -10.957001 3.060389 24.121307
594 0 1 -11.048002 2.991909 23.148102
595 0 1 -10.112202 2.911965 22.943115
596 0 1 -9.223082 2.631420 22.694885
597 0 1 -8.841103 2.640644 21.794708
598 0 1 -8.991022 3.180979 21.026199
599 0 1 -9.541182 2.482514 20.563599
600 0 1 -10.369402 2.635369 20.947403
601 0 1 -10.614502 3.537169 20.806793
602 0 1 -10.003201 3.759655 20.107803
603 0 1 -9.744001 4.307772 19.384705
604 0 1 -10.560202 4.761195 19.351593
605 0 1 -11.266903 5.371714 19.711105
606 0 1 -12.025402 6.011923 19.798401
607 0 1 -11.809803 6.401225 20.685699
608 0 1 -12.054203 5.566683 21.123596
609 0 1 -12.852201 5.299754 21.647491
610 0 1 -13.391403 5.830424 22.286697
611 0 1 -13.476803 6.802474 22.095306
612 0 1 -14.029701 6.893492 21.335907
613 0 1 -14.175502 7.836974 21.271194
614 0 1 -14.361102 7.701643 20.278000
615 0 1 -14.203102 6.740073 20.064392
616 0 1 -14.674102 6.615653 19.244293
617 0 1 -14.404002 5.803141 19.602203
618 0 1 -13.903603 5.123892 20.091904
619 0 1 -14.732602 5.019194 20.583893
620 0 1 -15.525102 5.586771 20.499496
621 0 1 -16.133501 5.564902 19.694000
622 0 1 -16.821001 5.690974 18.975998
623 0 1 -17.330502 5.670695 19.796295
624 0 1 -17.613802 4.770571 19.865402
625 0 1 -17.951601 4.533673 18.983994
626 0 1 -17.362701 4.079773 18.403000
627 0 1 -18.129202 3.610934 18.051605
628 0 1 -18.741602 3.985361 17.319092
629 0 1 -17.986902 3.601975 16.870895
630 0 1 -17.804602 3.176619 16.006302
631 0 1 -17.999302 2.407688 15.398407
632 0 1 -17.228901 2.556309 14.838699
633 0 1 -16.368902 2.487198 14.446899
634 0 1 -16.050201 1.783953 13.813293
635 0 1 -15.635302 1.165093 14.386795
636 0 1 -14.775302 1.323422 14.901794
637 0 1 -14.701502 0.993912 15.787399
638 0 1 -14.332602 0.072752 15.565308
639 0 1 -14.642302 -0.658588 16.110794
640 0 1 -14.555101 -0.439848 17.067200
641 0 1 -14.795802 -1.271538 17.544998
642 0 1 -15.269202 -0.713037 18.117905
643 0 1 -15.138302 -0.977018 19.019394
644 0 1 -15.323102 -1.752908 18.465393
645 0 1 -14.972802 -2.180687 19.201401
646 0 1 -15.863102 -2.445757 19.073700
647 0 1 -16.735802 -2.514017 19.391296
648 0 1 -17.646101 -2.147228 19.505493
649 0 1 -17.745602 -1.678377 18.646606
650 0 1 -18.260702 -1.490217 17.868698
651 0 1 -18.025202 -2.270517 17.427505
652 0 1 -17.952002 -1.558967 16.757904
653 0 1 -17.927002 -0.503557 16.659897
654 0 1 -17.436901 -0.829698 15.863403
655 0 1 -16.926702 -1.347238 15.187897
656 0 1 -17.746302 -1.664367 14.716705
657 0 1 -18.276402 -2.512098 14.738495
658 0 1 -18.664103 -3.191097 14.182404
659 0 1 -18.612402 -3.161546 13.258499
660 0 1 -19.417501 -2.667698 13.342102
661 0 1 -19.649101 -3.424307 12.793503
662 0 1 -19.724802 -4.308797 12.415100
663 0 1 -19.341803 -4.490367 13.308807
664 0 1 -19.029402 -5.034986 12.609406
665 0 1 -18.838001 -5.982337 12.385300
666 0 1 -19.125502 -6.898088 12.445007
667 0 1 -18.620401 -6.984277 13.265594
668 0 1 -18.454702 -7.780677 13.768600
669 0 1 -18.865301 -8.641878 13.670303
670 0 1 -19.335001 -9.343576 14.087799
671 0 1 -18.750801 -10.073578 14.395599
672 0 1 -17.832401 -9.842678 14.174698
673 0 1 -17.016401 -9.735678 13.700806
674 0 1 -17.494402 -9.102577 13.127197
675 0 1 -16.965202 -8.874777 12.282700
676 0 1 -16.247602 -9.594278 12.307800
677 0 1 -16.611801 -10.491978 12.022797
678 0 1 -16.739902 -10.380178 11.125793
679 0 1 -17.657501 -10.281578 10.720398
680 0 1 -17.106802 -9.599077 10.514206
681 0 1 -17.988503 -9.234478 10.320496
682 0 1 -18.036402 -9.078077 9.363098
683 0 1 -18.946102 -8.915876 9.147308
684 0 1 -19.398003 -8.568977 8.415070
685 0 1 -19.098501 -8.573278 7.535645
686 0 1 -19.167702 -7.747976 6.910050
687 0 1 -19.969603 -7.830678 7.517914
688 0 1 -20.768103 -7.365877 7.403107
689 0 1 -21.074303 -7.540678 6.534668
690 0 1 -20.773703 -7.577177 5.661866
691 0 1 -20.631903 -6.629137 5.784592
692 0 1 -20.589102 -6.665327 4.797028
693 0 1 -21.168402 -6.104497 4.192154
694 0 1 -21.369602 -7.013677 3.855744
695 0 1 -21.102303 -7.904378 4.088562
696 0 1 -20.481703 -8.520079 3.607804
697 0 1 -20.005901 -9.102478 4.109787
698 0 1 -20.717102 -8.826677 4.746155
699 0 1 -20.609802 -9.396479 5.536057
700 0 1 -20.146902 -10.159777 6.022217
701 0 1 -20.686602 -9.785479 6.666245
702 0 1 -21.591402 -9.330278 6.660645
703 0 1 -22.181702 -8.610777 6.299958
704 0 1 -22.079802 -7.891878 6.866669
705 0 1 -22.031801 -7.398178 7.665070
706 0 1 -22.820402 -7.228078 7.288804
707 0 1 -23.484001 -6.543008 6.869095
708 0 1 -23.200802 -5.647777 7.178925
709 0 1 -23.423801 -5.552497 8.108475
710 0 1 -23.463402 -4.737508 8.594666
711 0 1 -23.689701 -4.653978 7.655991
712 0 1 -23.244402 -4.676187 6.784791
713 0 1 -23.002003 -3.731397 6.782731
714 0 1 -23.131203 -2.968927 7.305069
715 0 1 -22.836102 -2.636337 6.418107
716 0 1 -23.657301 -2.178327 6.410798
717 0 1 -24.209202 -2.745678 5.853287
718 0 1 -24.943302 -2.377958 6.151871
719 0 1 -25.191902 -2.826547 5.374955
720 0 1 -25.919601 -3.540918 5.184525
721 0 1 -26.612402 -4.102148 5.633835
722 0 1 -26.735401 -3.919779 6.574158
723 0 1 -27.407202 -3.693468 7.224122
724 0 1 -26.770203 -4.401857 7.470536
725 0 1 -26.669802 -5.151927 8.023300
726 0 1 -26.096601 -4.989286 8.834045
727 0 1 -25.306501 -5.489467 9.050583
728 0 1 -24.435303 -5.832517 9.011673
729 0 1 -23.990902 -5.875047 9.890274
730 0 1 -24.418503 -6.608396 10.429398
731 0 1 -25.301203 -6.465856 10.281403
732 0 1 -25.434801 -6.296678 11.226501
733 0 1 -24.688803 -6.187837 11.807999
734 0 1 -24.358902 -5.407136 12.249100
735 0 1 -23.615103 -4.749637 12.220703
736 0 1 -24.531002 -4.251956 12.291702
737 0 1 -24.604202 -4.145837 13.258804
738 0 1 -24.878002 -3.715997 14.060608
739 0 1 -24.073902 -4.151367 14.376999
740 0 1 -23.563501 -4.895887 14.090103
741 0 1 -23.143202 -5.505987 14.658600
742 0 1 -23.628902 -4.943986 15.309006
743 0 1 -24.514502 -5.158308 15.128403
744 0 1 -24.381002 -4.956586 16.103897
745 0 1 -23.709301 -4.229717 16.236496
746 0 1 -23.171103 -4.362707 16.991104
747 0 1 -23.341702 -5.207637 17.356201
748 0 1 -23.760801 -6.001497 16.955704
749 0 1 -23.316101 -6.451587 16.228104
750 0 1 -22.436901 -6.879497 16.264404
751 0 1 -23.085201 -7.334978 15.679001
752 0 1 -23.609503 -7.703878 16.404495
753 0 1 -24.107702 -8.606277 16.440994
754 0 1 -24.148502 -9.316679 15.856293
755 0 1 -25.024202 -9.275679 16.313293
756 0 1 -25.214703 -8.510576 16.858002
757 0 1 -24.812002 -8.442377 17.702393
758 0 1 -24.443401 -8.013678 18.501007
759 0 1 -24.772802 -7.336177 17.888901
760 0 1 -25.711401 -7.381477 17.886703
761 0 1 -25.272102 -6.647777 17.405396
762 0 1 -24.683903 -5.827108 17.538406
763 0 1 -24.146202 -6.135587 18.299301
764 0 1 -23.341402 -5.816637 18.849899
765 0 1 -23.637102 -4.988737 19.473907
766 0 1 -23.328901 -4.093606 19.680603
767 0 1 -22.994402 -3.910497 20.522095
768 0 1 -22.988503 -4.341737 21.495392
769 0 1 -23.891302 -4.272308 21.682693
770 0 1 -24.670902 -4.405887 22.128998
771 0 1 -24.523602 -4.561857 23.076508
772 0 1 -23.762102 -5.086427 22.954193
773 0 1 -22.781902 -5.277738 23.038086
774 0 1 -23.303202 -5.812047 23.674286
775 0 1 -22.408401 -5.780576 24.102295
776 0 1 -22.366503 -6.686098 23.775604
777 0 1 -22.090302 -7.263578 22.981903
778 0 1 -23.112501 -7.184679 22.857910
779 0 1 -23.765402 -6.983078 23.541016
780 0 1 -23.267403 -7.614976 24.065308
781 0 1 -22.368402 -7.808977 24.356110
782 0 1 -21.759003 -8.488077 24.743713
783 0 1 -20.836302 -8.177778 24.627502
784 0 1 -20.197203 -8.889877 24.628204
785 0 1 -19.303501 -8.703978 24.858795
786 0 1 -18.449102 -9.026777 24.759186
787 0 1 -18.510202 -9.745878 24.052185
788 0 1 -19.198101 -9.110579 23.849304
789 0 1 -19.483301 -8.315178 23.331787