LAMMPS data file via MDAnalysis

        2000  atoms
        1999  bonds
           0  angles
           0  dihedrals
           0  impropers

           1  atom types
           1  bond types
           0  angle types
           0  dihedral types
           0  improper types

-30.5 30.5 xlo xhi
-30.5 30.5 ylo yhi
-233.5 233.5 zlo zhi


Masses

1 1.000000

Atoms

1 0 1 -4.965411 -9.093307 93.577606
2 0 1 -5.090271 -8.119278 93.604797
3 0 1 -5.387742 -7.964588 92.688599
4 0 1 -4.725142 -7.783436 92.010101
5 0 1 -4.189251 -6.990368 91.714294
6 0 1 -4.589510 -6.272198 91.229797
7 0 1 -5.563120 -6.318357 91.302094
8 0 1 -5.808541 -7.257967 91.407196
9 0 1 -6.746781 -7.425518 91.745392
10 0 1 -7.402281 -6.758337 92.018311
11 0 1 -8.131181 -6.902626 92.652893
12 0 1 -8.973592 -6.661028 93.129395
13 0 1 -9.565511 -6.799147 93.847595
14 0 1 -10.225762 -7.394398 93.578003
15 0 1 -10.428151 -8.154316 94.258484
16 0 1 -10.325292 -9.110407 94.118103
17 0 1 -10.400352 -8.576187 93.313904
18 0 1 -11.094771 -8.101406 92.807709
19 0 1 -11.805522 -7.897766 93.504303
20 0 1 -12.045321 -7.079317 93.825684
21 0 1 -11.186042 -6.744888 94.191589
22 0 1 -11.162480 -6.544197 95.176514
23 0 1 -11.675841 -6.704536 95.967194
24 0 1 -12.362021 -6.403948 96.562103
25 0 1 -12.775422 -5.897707 95.833099
26 0 1 -13.059621 -6.756706 95.397491
27 0 1 -13.372022 -7.411697 94.832794
28 0 1 -14.214122 -7.744698 95.084595
29 0 1 -14.567822 -7.410557 94.304016
30 0 1 -14.567620 -7.378637 93.304382
31 0 1 -14.892220 -7.788368 92.470398
32 0 1 -14.460023 -8.635777 92.073608
33 0 1 -15.287923 -9.189707 92.175995
34 0 1 -15.590322 -8.468348 91.596100
35 0 1 -16.243721 -8.909107 91.046906
36 0 1 -17.231621 -8.677597 91.068298
37 0 1 -17.524820 -8.326118 90.202789
38 0 1 -18.324621 -7.974247 89.895294
39 0 1 -19.004320 -7.890759 90.669403
40 0 1 -19.511021 -7.337458 91.251495
41 0 1 -19.920021 -7.882946 91.950012
42 0 1 -19.188520 -8.412018 92.379089
43 0 1 -18.361120 -8.081837 92.677704
44 0 1 -18.595221 -8.739738 93.372711
45 0 1 -18.857620 -7.946987 93.850586
46 0 1 -19.724720 -8.079718 94.355804
47 0 1 -19.433920 -8.285358 95.239594
48 0 1 -19.443720 -7.351828 95.333313
49 0 1 -18.763321 -7.260977 94.653595
50 0 1 -18.055620 -7.110447 93.927307
51 0 1 -17.746021 -6.363617 94.566193
52 0 1 -17.704021 -5.461737 94.647217
53 0 1 -18.383020 -5.081028 95.268799
54 0 1 -17.824320 -4.352127 95.391418
55 0 1 -17.284922 -3.670818 95.050201
56 0 1 -16.411720 -3.321787 94.972107
57 0 1 -16.447321 -2.400488 94.783813
58 0 1 -17.125521 -2.143837 94.142212
59 0 1 -17.030321 -1.281896 93.605591
60 0 1 -17.962721 -1.680277 93.559082
61 0 1 -18.645021 -1.932977 92.907410
62 0 1 -18.676722 -2.829338 92.484985
63 0 1 -19.209621 -3.520807 92.083191
64 0 1 -19.442122 -4.350376 91.742493
65 0 1 -18.560122 -4.649456 91.842102
66 0 1 -18.188622 -4.836617 92.676392
67 0 1 -17.312622 -4.526318 92.335602
68 0 1 -17.447321 -3.569357 92.284485
69 0 1 -17.915920 -3.712867 91.426392
70 0 1 -17.789921 -4.315107 90.692688
71 0 1 -18.016220 -3.681816 90.011902
72 0 1 -17.854721 -2.941837 89.312683
73 0 1 -17.894421 -1.951816 89.241699
74 0 1 -18.058722 -1.467056 90.135315
75 0 1 -18.776720 -1.180258 89.560913
76 0 1 -19.244822 -0.509468 88.982483
77 0 1 -19.984621 -0.492147 89.608490
78 0 1 -20.741621 -1.057037 89.502502
79 0 1 -21.311020 -0.397096 89.936401
80 0 1 -22.029320 -0.212667 89.408295
81 0 1 -22.845520 0.151564 88.982605
82 0 1 -22.709921 -0.174198 88.095001
83 0 1 -22.383520 -0.883447 87.477295
84 0 1 -21.870621 -0.237127 87.040588
85 0 1 -22.314020 -0.311138 86.186707
86 0 1 -21.904921 -1.183906 86.193787
87 0 1 -21.289520 -1.498407 85.461487
88 0 1 -21.486721 -1.428716 84.513916
89 0 1 -21.173420 -1.474558 83.648804
90 0 1 -20.365721 -1.636837 83.117310
91 0 1 -19.625820 -1.342527 82.593018
92 0 1 -19.510820 -1.494337 81.598389
93 0 1 -18.836321 -2.117357 81.903595
94 0 1 -18.513121 -1.610758 81.145111
95 0 1 -17.858521 -0.908777 81.175995
96 0 1 -17.812420 0.099062 81.099609
97 0 1 -17.709822 0.013712 82.099487
98 0 1 -18.200720 0.099182 82.885498
99 0 1 -18.282721 0.837748 82.186218
100 0 1 -17.928320 1.474970 82.892212
101 0 1 -18.504520 1.997414 83.378113
102 0 1 -17.625822 2.188282 83.568390
103 0 1 -16.833521 1.872957 83.888611
104 0 1 -17.169821 2.670414 84.538208
105 0 1 -16.378721 3.191395 84.803589
106 0 1 -15.982621 2.291683 84.759003
107 0 1 -15.454522 2.710934 85.389099
108 0 1 -15.951222 2.914814 86.210815
109 0 1 -16.821121 2.909752 86.400696
110 0 1 -17.290220 3.587124 86.852692
111 0 1 -16.429321 3.890782 86.566010
112 0 1 -15.638322 3.764721 87.176086
113 0 1 -14.777223 3.444794 87.306305
114 0 1 -14.536721 3.391354 86.368805
115 0 1 -14.020722 2.971653 85.702301
116 0 1 -14.383222 2.380682 84.981506
117 0 1 -14.404820 1.535107 84.526184
118 0 1 -14.588021 0.899655 83.792297
119 0 1 -14.747722 0.659441 82.912109
120 0 1 -15.483321 0.120524 82.954590
121 0 1 -15.084722 -0.828796 82.955902
122 0 1 -14.313321 -1.024128 82.403687
123 0 1 -14.119321 -1.821087 82.828491
124 0 1 -13.337621 -1.479547 82.288086
125 0 1 -12.330922 -1.398197 82.351807
126 0 1 -12.059220 -0.732477 81.652191
127 0 1 -11.478681 0.013912 81.819794
128 0 1 -11.092690 -0.553417 81.031097
129 0 1 -10.481631 -0.144447 81.740997
130 0 1 -9.714471 0.324576 82.187103
131 0 1 -9.783391 0.732533 83.062805
132 0 1 -10.562711 1.266821 83.248901
133 0 1 -11.317021 0.766308 83.609894
134 0 1 -11.232423 1.050488 84.527710
135 0 1 -11.204053 1.974751 84.172485
136 0 1 -10.904351 2.727074 84.736389
137 0 1 -11.644902 3.105053 84.257690
138 0 1 -11.009862 3.713284 83.823395
139 0 1 -10.907552 4.437042 83.170807
140 0 1 -10.951642 5.097984 82.506897
141 0 1 -11.127862 4.465412 81.794617
142 0 1 -10.390450 3.925442 81.567902
143 0 1 -10.222180 3.646313 80.711304
144 0 1 -9.292602 3.979733 80.623199
145 0 1 -9.497811 4.557682 79.878906
146 0 1 -8.601453 4.376114 79.648895
147 0 1 -8.582662 4.371002 78.665009
148 0 1 -7.963311 3.677254 78.836395
149 0 1 -7.046671 3.345024 79.201904
150 0 1 -6.740330 2.817932 78.372589
151 0 1 -6.237961 2.316082 78.945984
152 0 1 -5.738051 1.543280 79.116608
153 0 1 -5.276942 0.924566 78.542786
154 0 1 -6.165680 0.794947 78.107208
155 0 1 -6.109231 1.691410 77.779999
156 0 1 -5.471701 2.215353 77.213013
157 0 1 -4.893961 2.734314 77.743591
158 0 1 -5.622391 3.067204 78.313782
159 0 1 -5.201251 2.385212 78.807983
160 0 1 -4.995621 2.744805 79.684906
161 0 1 -5.577511 2.844063 80.445099
162 0 1 -4.882401 2.403054 80.990692
163 0 1 -3.995301 2.534804 80.619690
164 0 1 -3.979771 1.645224 81.040588
165 0 1 -3.194790 1.864878 81.536987
166 0 1 -2.227959 1.858153 81.428192
167 0 1 -2.568274 1.389723 80.668793
168 0 1 -2.128922 0.562241 80.484100
169 0 1 -3.007792 0.641083 80.064392
170 0 1 -3.676272 0.443373 80.770905
171 0 1 -4.465441 0.304726 80.184906
172 0 1 -5.086371 0.587862 80.893402
173 0 1 -4.731202 0.242796 81.756592
174 0 1 -5.524392 0.594397 82.210999
175 0 1 -5.347081 0.824907 83.167389
176 0 1 -6.010220 1.108206 83.821411
177 0 1 -6.519452 0.922653 84.678589
178 0 1 -6.328452 0.292937 85.320892
179 0 1 -6.764252 -0.261827 84.758698
180 0 1 -7.203871 -0.493337 85.577698
181 0 1 -7.261231 -1.051126 86.422394
182 0 1 -6.895031 -0.604248 87.197083
183 0 1 -6.317671 0.102383 87.554382
184 0 1 -5.645022 -0.403868 86.923096
185 0 1 -4.943902 -1.103626 87.074219
186 0 1 -4.289921 -1.822817 87.299500
187 0 1 -3.930731 -2.543756 87.783081
188 0 1 -2.971602 -2.709806 87.996216
189 0 1 -2.485222 -2.181467 87.313904
190 0 1 -2.402621 -1.272197 87.059998
191 0 1 -2.869751 -0.587637 87.533203
192 0 1 -3.141840 0.098574 86.914795
193 0 1 -3.282320 -0.750076 86.481384
194 0 1 -2.696589 -1.138548 85.831299
195 0 1 -1.793769 -1.064426 86.292603
196 0 1 -1.427476 -0.246757 86.690002
197 0 1 -1.703274 0.059424 87.521606
198 0 1 -1.196837 -0.529417 88.099915
199 0 1 -1.726445 -0.910236 88.794098
200 0 1 -1.315491 -1.738737 88.755981
201 0 1 -0.695212 -2.237438 88.169708
202 0 1 -0.268832 -2.952686 88.632904
203 0 1 0.594760 -2.447067 88.469910
204 0 1 0.713748 -1.840957 87.801514
205 0 1 0.834278 -1.648517 86.833984
206 0 1 1.142139 -2.372757 86.311005
207 0 1 1.839839 -1.818767 85.938995
208 0 1 2.451808 -1.012867 85.924011
209 0 1 3.124340 -1.490577 86.450317
210 0 1 4.053218 -1.822847 86.527100
211 0 1 4.265468 -2.695047 86.819885
212 0 1 4.472469 -2.913606 87.682800
213 0 1 3.617111 -3.352806 87.829498
214 0 1 4.309787 -3.852907 88.331604
215 0 1 4.418289 -3.935516 89.302307
216 0 1 5.129318 -4.554688 89.247314
217 0 1 4.969570 -5.431547 89.752014
218 0 1 5.264129 -6.303238 90.190796
219 0 1 4.732780 -7.120007 90.059906
220 0 1 5.648960 -7.275356 89.941895
221 0 1 6.150020 -8.032478 89.623596
222 0 1 6.545589 -7.544367 88.908905
223 0 1 6.677787 -8.487568 88.852509
224 0 1 7.508331 -8.257198 89.360413
225 0 1 8.443877 -8.571728 89.340302
226 0 1 8.990977 -8.276146 90.064301
227 0 1 9.505778 -7.480467 90.223907
228 0 1 8.952880 -7.120867 89.475403
229 0 1 8.733779 -6.710857 88.612000
230 0 1 9.196979 -6.076328 88.108704
231 0 1 9.291377 -5.562656 87.284210
232 0 1 9.326179 -6.469406 87.109894
233 0 1 10.274879 -6.281368 86.977997
234 0 1 10.839679 -7.032528 86.820007
235 0 1 10.945380 -7.410177 85.956116
236 0 1 10.141978 -6.861008 85.925110
237 0 1 9.600577 -7.541878 85.628296
238 0 1 9.000480 -6.798637 85.945099
239 0 1 8.650077 -6.532516 85.050781
240 0 1 8.006927 -6.588997 85.799591
241 0 1 7.094409 -6.135527 85.823486
242 0 1 6.414188 -6.500868 85.227112
243 0 1 5.871639 -7.149218 85.696991
244 0 1 5.062019 -6.598047 85.890198
245 0 1 4.731239 -6.465147 84.994995
246 0 1 3.859527 -6.171747 84.732300
247 0 1 2.960010 -5.929237 84.605804
248 0 1 1.992420 -6.035067 84.721985
249 0 1 1.981208 -5.417187 84.018616
250 0 1 1.158309 -5.899918 83.954193
251 0 1 0.697917 -6.746798 83.957092
252 0 1 0.063987 -6.357967 83.335907
253 0 1 -0.400021 -5.622337 83.676910
254 0 1 -1.063771 -5.374407 83.037811
255 0 1 -1.923380 -4.873657 82.884583
256 0 1 -1.837845 -5.632896 82.310608
257 0 1 -2.322510 -6.141308 81.594604
258 0 1 -2.025713 -6.558617 80.798492
259 0 1 -2.623477 -6.673697 80.050201
260 0 1 -3.509562 -6.588356 80.476593
261 0 1 -3.576142 -7.210548 79.724701
262 0 1 -4.349350 -7.333057 79.167297
263 0 1 -5.226780 -7.549007 78.958191
264 0 1 -6.072112 -7.984987 79.139496
265 0 1 -6.886570 -8.188297 78.650513
266 0 1 -7.600062 -8.801617 78.720306
267 0 1 -7.580771 -9.462608 78.097290
268 0 1 -7.549382 -9.214508 77.083313
269 0 1 -7.214951 -9.436808 76.179382
270 0 1 -7.451920 -9.365108 75.121002
271 0 1 -7.718430 -9.900307 74.401184
272 0 1 -8.452573 -10.446507 74.682404
273 0 1 -8.247533 -10.855007 73.860596
274 0 1 -7.866271 -10.534107 72.979797
275 0 1 -7.340722 -10.912209 72.316711
276 0 1 -6.416232 -10.703608 72.322205
277 0 1 -6.029011 -11.032707 71.498810
278 0 1 -5.906102 -11.984509 71.606598
279 0 1 -6.032410 -12.714508 71.021118
280 0 1 -5.189362 -12.607807 70.539398
281 0 1 -5.178912 -12.427008 69.612915
282 0 1 -5.188691 -11.519907 69.810699
283 0 1 -5.205121 -10.608807 69.437012
284 0 1 -4.663722 -9.912006 69.842712
285 0 1 -4.460621 -10.122908 70.708008
286 0 1 -4.403431 -9.788208 71.702301
287 0 1 -4.989552 -9.036808 71.744293
288 0 1 -5.396851 -8.182758 71.857788
289 0 1 -5.450192 -8.512806 72.804108
290 0 1 -4.791550 -9.081108 73.169983
291 0 1 -4.229352 -9.427406 73.984009
292 0 1 -4.475352 -10.205906 74.436493
293 0 1 -5.180920 -10.458908 73.788605
294 0 1 -5.770411 -10.261307 74.501892
295 0 1 -6.002032 -9.373608 74.585815
296 0 1 -6.135701 -8.605316 73.994995
297 0 1 -6.258681 -7.677906 73.680206
298 0 1 -5.533720 -7.056057 73.821808
299 0 1 -5.648631 -7.223488 72.931885
300 0 1 -5.316952 -6.339678 72.675507
301 0 1 -4.903592 -5.765047 73.308197
302 0 1 -4.973231 -5.845676 74.223297
303 0 1 -5.041710 -4.947187 74.611603
304 0 1 -5.381951 -5.057018 75.558502
305 0 1 -6.252461 -5.043417 75.239899
306 0 1 -6.540482 -5.284077 74.322205
307 0 1 -6.356492 -4.487247 73.839600
308 0 1 -6.897551 -3.934227 74.420410
309 0 1 -7.724350 -3.882498 74.906097
310 0 1 -7.769511 -3.254476 74.166382
311 0 1 -6.999232 -2.675466 74.430695
312 0 1 -6.560021 -1.960136 73.987610
313 0 1 -6.507370 -1.039108 74.388000
314 0 1 -7.276202 -0.855257 74.880402
315 0 1 -7.966542 -0.301296 75.298004
316 0 1 -7.907212 0.153033 76.140106
317 0 1 -8.824962 0.352875 75.785492
318 0 1 -9.473031 1.106747 76.002808
319 0 1 -9.703952 1.802216 76.638611
320 0 1 -10.260531 1.691277 75.840088
321 0 1 -10.737601 1.511368 74.936218
322 0 1 -10.569840 2.410454 74.588806
323 0 1 -9.863851 2.496083 73.896393
324 0 1 -9.569102 3.284031 73.466400
325 0 1 -8.998651 4.035751 73.697205
326 0 1 -9.783231 4.461662 73.918518
327 0 1 -10.543921 5.123482 74.051392
328 0 1 -11.327172 5.220291 74.544617
329 0 1 -11.649852 6.023823 74.080811
330 0 1 -12.583022 5.803051 73.967804
331 0 1 -13.040221 5.493252 73.130493
332 0 1 -13.854222 5.093281 73.400696
333 0 1 -13.414521 4.413612 72.793610
334 0 1 -13.184422 3.703923 72.124908
335 0 1 -12.499621 2.982823 72.121094
336 0 1 -12.008721 3.812615 72.240601
337 0 1 -11.258821 3.230633 71.983704
338 0 1 -10.851953 3.032234 71.115112
339 0 1 -10.477071 2.229233 71.487305
340 0 1 -10.181951 1.472853 71.023010
341 0 1 -9.488471 1.552452 70.481384
342 0 1 -8.700751 0.975558 70.650604
343 0 1 -7.909852 0.709898 70.218506
344 0 1 -7.403201 0.123793 70.871490
345 0 1 -7.755621 -0.727047 70.960907
346 0 1 -7.097462 -1.439117 70.839294
347 0 1 -6.638901 -1.063106 71.555908
348 0 1 -6.126122 -0.744587 70.847107
349 0 1 -6.486411 -1.165697 69.993805
350 0 1 -7.015702 -1.163517 69.191895
351 0 1 -6.289982 -1.658207 68.851898
352 0 1 -5.437251 -1.683246 68.524506
353 0 1 -4.480681 -1.678627 68.278198
354 0 1 -4.138432 -1.428886 69.139099
355 0 1 -3.431052 -1.261137 69.770905
356 0 1 -2.769341 -0.586378 69.911316
357 0 1 -1.865071 -0.388067 69.676605
358 0 1 -1.568070 0.381071 70.082611
359 0 1 -1.444213 0.773176 70.957886
360 0 1 -2.228875 1.238383 70.675201
361 0 1 -2.570996 0.946758 71.526489
362 0 1 -3.191552 0.486668 72.122101
363 0 1 -3.950680 0.977877 71.779114
364 0 1 -4.536782 1.163428 70.987183
365 0 1 -4.032111 1.402043 70.203705
366 0 1 -3.836522 0.733242 69.527405
367 0 1 -4.566231 0.473467 68.992310
368 0 1 -5.527682 0.334347 69.193909
369 0 1 -5.819701 1.106152 69.578613
370 0 1 -5.978692 1.268296 68.676208
371 0 1 -6.187111 2.171063 69.010590
372 0 1 -6.533711 2.984463 69.521210
373 0 1 -5.848881 3.549053 69.037811
374 0 1 -5.314261 4.224522 69.561493
375 0 1 -5.624300 4.468712 70.433990
376 0 1 -6.325011 3.869873 70.365509
377 0 1 -6.724782 4.004883 69.513702
378 0 1 -7.507681 3.889714 68.919312
379 0 1 -8.457282 4.065693 69.015900
380 0 1 -9.216102 4.531544 69.399597
381 0 1 -10.181031 4.478424 69.774109
382 0 1 -9.539952 4.706303 70.503998
383 0 1 -9.182002 5.543953 70.915009
384 0 1 -8.733361 5.809963 70.007294
385 0 1 -8.074111 6.106731 69.393188
386 0 1 -7.832261 6.375362 68.540802
387 0 1 -7.745602 6.482513 67.565491
388 0 1 -8.268121 6.598652 66.723083
389 0 1 -8.172391 7.607914 66.716187
390 0 1 -8.908261 8.048332 66.191803
391 0 1 -8.829152 8.442791 67.032593
392 0 1 -8.808322 8.972523 66.288391
393 0 1 -7.909062 9.278522 66.027496
394 0 1 -7.796832 9.090832 65.069885
395 0 1 -7.269730 8.303463 64.898315
396 0 1 -6.367331 8.564201 64.706116
397 0 1 -5.787232 7.847462 64.605713
398 0 1 -5.786082 6.920944 64.638489
399 0 1 -6.515341 6.792442 64.013092
400 0 1 -7.083210 6.354881 63.402191
401 0 1 -8.030511 6.055794 63.201202
402 0 1 -7.624352 6.348831 62.411804
403 0 1 -7.175681 5.456242 62.356598
404 0 1 -6.504361 5.725754 61.692505
405 0 1 -6.143631 6.529533 61.323792
406 0 1 -6.837002 6.961452 61.858002
407 0 1 -6.241070 7.698963 62.027496
408 0 1 -5.351040 7.406551 62.044006
409 0 1 -5.598961 7.138401 62.968689
410 0 1 -4.618821 7.001621 62.925903
411 0 1 -3.850590 7.416443 62.565491
412 0 1 -3.519970 6.735615 61.933289
413 0 1 -2.764861 7.397823 62.035187
414 0 1 -2.074194 6.944084 61.559204
415 0 1 -1.095503 6.785744 61.762085
416 0 1 -1.452231 5.942291 61.652496
417 0 1 -2.039988 5.998241 62.407501
418 0 1 -2.526423 5.216892 62.368286
419 0 1 -3.243701 4.605904 62.770508
420 0 1 -3.695551 5.429554 63.142609
421 0 1 -4.130982 4.722263 63.499207
422 0 1 -4.937602 4.906494 63.958313
423 0 1 -4.278401 5.338795 64.477905
424 0 1 -4.846621 6.131561 64.412292
425 0 1 -4.445841 6.431683 65.243805
426 0 1 -4.434672 6.044353 66.150818
427 0 1 -5.067221 5.961613 66.902893
428 0 1 -5.142771 5.060783 66.653503
429 0 1 -5.907452 4.921154 67.191895
430 0 1 -6.396632 5.538483 66.625000
431 0 1 -7.236161 5.169174 66.871216
432 0 1 -7.174681 5.672142 66.026306
433 0 1 -6.950282 6.010994 65.162292
434 0 1 -6.158440 5.649181 65.609711
435 0 1 -5.732321 4.874214 65.258789
436 0 1 -5.158991 4.132633 65.308716
437 0 1 -4.905350 3.124413 65.150208
438 0 1 -5.556042 2.399452 65.392303
439 0 1 -4.718670 2.121542 64.968689
440 0 1 -5.113390 1.573344 65.662811
441 0 1 -4.383961 1.113892 66.140808
442 0 1 -3.755332 0.658627 65.558502
443 0 1 -3.080620 -0.027557 65.370911
444 0 1 -3.469172 -0.499857 64.648590
445 0 1 -3.423541 -0.185898 63.763794
446 0 1 -4.439072 0.054363 64.028381
447 0 1 -4.834221 0.990517 64.170288
448 0 1 -5.472321 0.488014 63.692200
449 0 1 -5.876091 1.403912 63.516388
450 0 1 -5.848942 2.241783 63.001007
451 0 1 -6.739262 2.582422 62.818207
452 0 1 -6.431000 2.480442 61.903503
453 0 1 -7.080901 2.968052 61.511292
454 0 1 -7.240761 3.588555 62.232300
455 0 1 -8.106452 3.690342 61.884491
456 0 1 -8.792272 3.420521 61.236908
457 0 1 -9.095571 4.197754 60.793610
458 0 1 -9.646722 4.645683 61.408600
459 0 1 -10.039502 5.523914 61.470398
460 0 1 -10.438142 5.125004 60.744598
461 0 1 -10.080342 5.079571 59.828888
462 0 1 -10.403512 4.388653 59.155792
463 0 1 -11.173261 4.911034 58.918304
464 0 1 -10.968873 5.764561 58.539398
465 0 1 -10.793202 6.532242 57.965790
466 0 1 -10.522202 5.818745 57.343903
467 0 1 -10.538713 5.832794 56.397003
468 0 1 -10.155541 5.106701 55.900787
469 0 1 -10.601830 5.182621 55.052185
470 0 1 -9.922912 5.609241 54.482391
471 0 1 -9.579402 6.111954 53.775513
472 0 1 -8.964072 6.804844 53.874298
473 0 1 -8.622941 7.626152 54.339813
474 0 1 -8.797061 7.933064 55.197296
475 0 1 -7.953242 8.386414 55.495300
476 0 1 -8.048470 8.483711 56.410004
477 0 1 -7.195012 8.018044 56.378296
478 0 1 -6.430592 8.031872 55.773499
479 0 1 -5.488242 8.033192 55.750488
480 0 1 -5.645331 8.886494 56.017792
481 0 1 -5.946591 9.751842 55.774994
482 0 1 -5.574801 10.532204 56.120087
483 0 1 -4.809712 10.112854 55.752808
484 0 1 -4.044001 9.628834 56.099091
485 0 1 -3.127121 9.553452 56.250305
486 0 1 -3.586220 8.840504 56.807007
487 0 1 -2.922692 8.195034 57.198792
488 0 1 -2.156386 7.859081 57.659088
489 0 1 -2.235108 6.960732 57.894196
490 0 1 -2.258193 6.230621 58.507294
491 0 1 -3.191882 6.183575 58.837891
492 0 1 -2.852591 5.334034 59.317200
493 0 1 -1.968445 5.374844 59.607300
494 0 1 -1.358473 5.079334 60.329803
495 0 1 -1.681924 4.721973 61.135193
496 0 1 -2.202557 3.933625 60.846191
497 0 1 -2.612515 3.256462 61.344513
498 0 1 -3.538882 3.185684 61.064606
499 0 1 -3.499751 3.136463 60.108795
500 0 1 -4.443760 3.018963 59.956390
501 0 1 -4.107871 2.120089 60.227417
502 0 1 -3.795981 2.186074 61.131409
503 0 1 -3.847130 1.338568 61.569702
504 0 1 -3.466591 0.473097 61.670197
505 0 1 -4.422482 0.554365 61.718994
506 0 1 -4.160740 0.189627 60.841187
507 0 1 -4.633730 -0.144367 60.070312
508 0 1 -4.332671 -1.008037 60.450012
509 0 1 -4.500651 -2.052646 60.208984
510 0 1 -5.462182 -1.767387 60.281799
511 0 1 -5.800332 -1.911016 59.424194
512 0 1 -5.290772 -2.302776 58.724701
513 0 1 -5.044220 -3.248638 58.911591
514 0 1 -4.172970 -3.671858 58.967285
515 0 1 -4.197381 -2.852867 59.459991
516 0 1 -3.455031 -2.236458 59.165802
517 0 1 -4.264222 -1.721376 59.110504
518 0 1 -3.555312 -1.082687 58.784607
519 0 1 -3.150200 -0.990887 57.901398
520 0 1 -2.821270 -0.556658 57.083893
521 0 1 -3.687802 -0.670057 56.741699
522 0 1 -3.654332 -1.603348 56.659485
523 0 1 -3.754662 -2.477567 56.434692
524 0 1 -4.253052 -3.082756 56.929199
525 0 1 -4.561442 -3.727037 56.300507
526 0 1 -5.493842 -3.751266 56.397217
527 0 1 -5.825961 -4.647818 56.526489
528 0 1 -5.765191 -4.823818 55.513000
529 0 1 -5.915101 -5.596817 56.157013
530 0 1 -5.805512 -6.178137 56.953705
531 0 1 -5.952582 -6.936256 56.437195
532 0 1 -6.421982 -6.658596 55.650299
533 0 1 -6.918152 -6.286766 54.899902
534 0 1 -5.931241 -6.294876 54.589111
535 0 1 -6.523322 -5.851517 53.949310
536 0 1 -6.858601 -5.640757 53.075684
537 0 1 -6.957741 -6.490078 52.648499
538 0 1 -7.889922 -6.688498 52.651093
539 0 1 -7.451512 -7.214577 52.008484
540 0 1 -7.623322 -8.140156 51.620087
541 0 1 -8.577441 -8.331306 51.608887
542 0 1 -9.005672 -8.871107 50.939606
543 0 1 -9.620772 -8.839676 50.120911
544 0 1 -10.042413 -9.127207 49.323792
545 0 1 -10.396050 -8.260597 49.088409
546 0 1 -11.190221 -8.802868 49.396606
547 0 1 -11.446240 -7.880108 49.346313
548 0 1 -11.549870 -7.931438 50.266907
549 0 1 -12.241221 -8.453106 50.795990
550 0 1 -12.892522 -7.939568 51.358307
551 0 1 -13.583623 -7.263866 51.311493
552 0 1 -14.253720 -7.701736 51.852997
553 0 1 -13.932122 -7.752056 52.798309
554 0 1 -13.565621 -8.614708 53.078186
555 0 1 -13.124621 -9.330307 53.528015
556 0 1 -12.967422 -9.325207 54.494904
557 0 1 -12.187623 -9.076307 54.991913
558 0 1 -11.304751 -9.021408 54.669403
559 0 1 -10.606481 -8.406448 54.472900
560 0 1 -10.103021 -8.711308 53.749512
561 0 1 -10.899611 -8.772997 53.112701
562 0 1 -10.284152 -9.505108 53.125000
563 0 1 -9.433553 -9.320107 52.725586
564 0 1 -8.763642 -9.308107 52.011902
565 0 1 -8.219962 -10.098007 51.920197
566 0 1 -7.447602 -9.610107 51.586090
567 0 1 -6.704072 -9.410809 52.186310
568 0 1 -6.113770 -9.937508 51.683899
569 0 1 -5.442502 -10.030107 51.013184
570 0 1 -5.090191 -9.109407 51.003113
571 0 1 -4.245621 -8.653587 50.956909
572 0 1 -4.404070 -9.250107 50.191406
573 0 1 -4.032280 -10.118807 50.168488
574 0 1 -3.103652 -10.107607 49.983307
575 0 1 -2.163971 -10.278307 49.838409
576 0 1 -2.411797 -10.942007 49.217010
577 0 1 -2.746407 -11.766207 49.086700
578 0 1 -2.830241 -12.728407 49.278595
579 0 1 -2.877301 -12.917007 48.373993
580 0 1 -2.494494 -12.715307 47.483795
581 0 1 -2.865031 -13.597007 47.166290
582 0 1 -2.932211 -13.179808 46.314087
583 0 1 -3.225731 -13.924808 45.788910
584 0 1 -2.896851 -14.319907 44.920807
585 0 1 -2.106816 -14.799407 45.049805
586 0 1 -2.608336 -15.455008 44.584290
587 0 1 -3.531512 -15.667908 44.788696
588 0 1 -3.656182 -15.769506 43.817810
589 0 1 -4.106850 -15.088007 43.245392
590 0 1 -4.672572 -15.469107 42.576904
591 0 1 -4.915652 -15.682507 41.708313
592 0 1 -4.381272 -16.476707 41.719391
593 0 1 -4.972870 -16.989307 42.267303
594 0 1 -5.056071 -17.789907 42.734802
595 0 1 -4.633141 -18.437206 43.322296
596 0 1 -5.067391 -19.216608 42.907501
597 0 1 -5.582772 -19.780807 42.243988
598 0 1 -6.055371 -20.138508 41.431488
599 0 1 -5.460652 -19.549007 40.914795
600 0 1 -5.406981 -18.607107 40.909088
601 0 1 -4.733311 -17.953007 40.920105
602 0 1 -4.841820 -17.162006 40.296112
603 0 1 -3.881522 -17.370707 40.150391
604 0 1 -3.153281 -17.911407 39.766205
605 0 1 -2.590792 -18.727507 39.844696
606 0 1 -2.286686 -18.652607 38.922699
607 0 1 -2.506810 -17.884508 38.355194
608 0 1 -2.447787 -16.935907 38.208405
609 0 1 -1.908255 -16.288908 37.822113
610 0 1 -0.995362 -16.243307 37.682892
611 0 1 -0.712542 -15.838007 38.535797
612 0 1 -0.423260 -16.539007 39.155792
613 0 1 0.053840 -15.920307 39.646301
614 0 1 0.974819 -15.751007 39.515411
615 0 1 1.153671 -16.607206 39.141510
616 0 1 0.756149 -17.441408 39.372986
617 0 1 1.665927 -17.660307 39.108307
618 0 1 2.326869 -18.011208 38.531189
619 0 1 2.658000 -18.800608 38.108612
620 0 1 2.093788 -19.053207 37.244110
621 0 1 1.302287 -19.130707 36.742706
622 0 1 0.603099 -19.700808 37.119202
623 0 1 0.013587 -20.272608 36.699707
624 0 1 -0.878188 -20.476908 37.086700
625 0 1 -1.599980 -20.974707 36.645691
626 0 1 -2.074826 -21.089308 35.784302
627 0 1 -1.662507 -20.506807 35.115112
628 0 1 -1.754630 -19.746807 34.617889
629 0 1 -2.597334 -20.241507 34.502502
630 0 1 -2.775301 -19.614107 33.758789
631 0 1 -3.648671 -19.211906 34.007599
632 0 1 -3.538311 -19.522408 34.951599
633 0 1 -4.447260 -19.662308 35.337189
634 0 1 -3.954482 -20.042107 36.065491
635 0 1 -4.003251 -19.548906 36.824799
636 0 1 -4.077471 -18.796806 36.295807
637 0 1 -4.249381 -17.880507 36.308594
638 0 1 -4.212681 -16.992607 36.687897
639 0 1 -4.622040 -16.880707 37.582794
640 0 1 -3.947781 -16.221107 37.338684
641 0 1 -4.499022 -15.985607 36.514587
642 0 1 -4.740712 -15.492006 37.342590
643 0 1 -4.480931 -14.654107 37.001312
644 0 1 -4.271071 -13.725607 37.142883
645 0 1 -3.288641 -13.394207 37.122192
646 0 1 -3.188811 -12.617508 36.475098
647 0 1 -3.520840 -12.453907 35.559113
648 0 1 -4.107121 -12.698307 34.800812
649 0 1 -3.250571 -13.214008 34.681000
650 0 1 -2.846932 -12.366306 34.511688
651 0 1 -2.002551 -12.307308 34.109192
652 0 1 -2.025765 -11.369507 33.877289
653 0 1 -1.800534 -10.864407 34.616608
654 0 1 -1.719638 -10.010708 34.213501
655 0 1 -1.360165 -9.646708 33.367615
656 0 1 -1.919139 -9.504307 32.566803
657 0 1 -2.864001 -9.343708 32.496704
658 0 1 -3.811532 -9.016006 32.521912
659 0 1 -4.697621 -8.832958 32.533203
660 0 1 -4.703331 -7.896496 32.899994
661 0 1 -4.274022 -7.119297 33.367706
662 0 1 -4.114392 -6.651268 32.533905
663 0 1 -3.234332 -6.976828 32.574402
664 0 1 -2.790072 -6.397636 33.181000
665 0 1 -2.548710 -5.459497 33.294617
666 0 1 -1.991965 -4.665857 33.224213
667 0 1 -2.241787 -4.758448 34.120697
668 0 1 -1.436246 -4.272287 34.276001
669 0 1 -1.672640 -3.396007 34.188293
670 0 1 -1.172545 -2.756897 33.727509
671 0 1 -0.266072 -2.343277 33.576416
672 0 1 -0.055440 -1.389858 33.599304
673 0 1 -0.166470 -0.907087 32.799500
674 0 1 -0.473872 -0.289327 32.060913
675 0 1 -0.253010 0.391972 31.355408
676 0 1 0.158920 0.585118 32.178009
677 0 1 0.793460 1.051991 31.570007
678 0 1 1.528240 0.704085 31.067688
679 0 1 2.033409 -0.113237 30.790314
680 0 1 2.910648 -0.583977 30.831512
681 0 1 2.926700 -0.333977 29.898193
682 0 1 3.631038 -0.191448 29.178009
683 0 1 4.504310 0.056294 28.935486
684 0 1 4.687419 -0.944227 28.932098
685 0 1 5.417079 -1.469566 28.439392
686 0 1 4.973251 -1.338197 27.598907
687 0 1 5.329940 -2.170017 27.334808
688 0 1 4.455078 -2.476486 27.155884
689 0 1 4.088478 -3.413658 26.910187
690 0 1 3.419410 -3.831537 27.413605
691 0 1 2.918258 -3.385816 28.087891
692 0 1 3.535930 -3.695997 28.791809
693 0 1 4.356098 -3.708248 28.294800
694 0 1 4.444450 -4.032618 29.183411
695 0 1 5.271999 -3.431267 29.377197
696 0 1 6.090438 -3.067137 29.106384
697 0 1 6.390007 -2.332058 28.629608
698 0 1 6.868667 -2.387718 29.479889
699 0 1 7.471611 -2.418888 28.661804
700 0 1 7.966918 -1.579946 28.776703
701 0 1 8.558177 -1.126117 28.223816
702 0 1 8.811477 -0.709337 27.343903
703 0 1 8.668078 0.201864 26.938904
704 0 1 7.674709 0.173390 26.913605
705 0 1 7.426727 0.987759 26.443787
706 0 1 6.626529 1.123318 27.060791
707 0 1 5.721210 1.477059 26.990112
708 0 1 5.365470 2.044466 27.724915
709 0 1 5.140388 2.289923 28.685211
710 0 1 4.991848 2.791104 29.505615
711 0 1 4.500247 2.076235 29.827911
712 0 1 3.803920 1.610138 29.355499
713 0 1 2.966011 1.063906 29.493011
714 0 1 2.452079 1.716753 29.102692
715 0 1 3.168037 2.300963 29.047699
716 0 1 2.593578 2.418253 28.308289
717 0 1 2.964519 1.587588 27.952087
718 0 1 2.590667 0.769306 28.386810
719 0 1 2.208869 -0.035797 28.902802
720 0 1 1.512267 -0.008938 28.227295
721 0 1 0.858890 0.626686 27.842010
722 0 1 0.794010 1.328310 27.195587
723 0 1 0.726699 1.913347 26.428406
724 0 1 -0.090081 2.173002 26.843597
725 0 1 -1.066487 2.340224 26.987488
726 0 1 -1.872407 1.989250 26.568604
727 0 1 -1.271771 1.356978 27.052002
728 0 1 -0.567401 0.938786 26.497803
729 0 1 -0.771878 1.078648 25.639587
730 0 1 -1.653714 1.088711 25.072815
731 0 1 -2.397151 0.397198 24.981689
732 0 1 -3.064051 0.289795 24.277405
733 0 1 -2.469613 0.145193 23.490509
734 0 1 -3.061322 -0.061518 22.787201
735 0 1 -2.896761 -0.985996 22.870514
736 0 1 -2.214558 -1.114048 23.480804
737 0 1 -1.393195 -0.783647 23.861084
738 0 1 -0.937802 -1.146356 23.109100
739 0 1 -1.598940 -0.717808 22.587891
740 0 1 -2.205721 -1.236597 21.997894
741 0 1 -1.576832 -0.875017 21.372299
742 0 1 -0.669972 -1.039257 21.821396
743 0 1 -0.470572 -0.328657 21.161194
744 0 1 -0.517750 -0.017257 20.286804
745 0 1 0.110568 0.386343 19.729706
746 0 1 0.496498 1.046759 20.277008
747 0 1 0.144687 1.459847 19.457001
748 0 1 0.966171 1.927635 19.214600
749 0 1 1.307109 1.530009 18.380798
750 0 1 0.549320 1.613224 17.917496
751 0 1 -0.239319 1.682520 17.380600
752 0 1 -0.273470 2.023062 16.492096
753 0 1 -0.201050 2.645872 15.837906
754 0 1 -1.167222 2.646834 15.430801
755 0 1 -1.656308 3.202774 16.074493
756 0 1 -2.530739 3.401913 15.766998
757 0 1 -2.867590 2.824192 16.516403
758 0 1 -2.976092 2.609774 17.386902
759 0 1 -2.460156 2.877491 18.143204
760 0 1 -2.125123 3.762383 18.039703
761 0 1 -1.710980 3.975151 17.250305
762 0 1 -1.605221 4.941204 17.416992
763 0 1 -1.612811 4.839863 16.485397
764 0 1 -2.079270 5.673332 16.149399
765 0 1 -2.340798 6.275051 16.805695
766 0 1 -3.064930 6.631264 16.272400
767 0 1 -3.595501 5.752144 16.235992
768 0 1 -3.979472 4.934772 16.474503
769 0 1 -4.636261 5.044342 15.758392
770 0 1 -5.149901 4.454464 15.137405
771 0 1 -4.509800 3.744103 14.962006
772 0 1 -5.342232 3.265572 15.222107
773 0 1 -5.263470 2.479393 15.738693
774 0 1 -4.867451 1.606856 15.337402
775 0 1 -4.736962 0.655348 15.519897
776 0 1 -5.376591 -0.047388 15.632095
777 0 1 -4.440871 -0.330316 15.332596
778 0 1 -5.011252 0.018913 14.696701
779 0 1 -4.635371 0.796026 14.383392
780 0 1 -3.961451 0.390757 13.902298
781 0 1 -3.050841 0.550801 13.676193
782 0 1 -2.714858 -0.402906 13.479401
783 0 1 -2.144700 -0.461267 12.743698
784 0 1 -1.527991 0.232966 12.954300
785 0 1 -0.594931 0.073014 12.800507
786 0 1 0.089389 -0.420788 12.536194