LAMMPS data file via MDAnalysis

        2000  atoms
        1999  bonds
           0  angles
           0  dihedrals
           0  impropers

           1  atom types
           1  bond types
           0  angle types
           0  dihedral types
           0  improper types

-30.5 30.5 xlo xhi
-30.5 30.5 ylo yhi
-233.5 233.5 zlo zhi


Masses

1 1.000000

Atoms

1 0 1 15.656864 -7.228723 80.110809
2 0 1 15.894165 -7.883153 80.817993
3 0 1 16.516563 -7.669214 81.475800
4 0 1 17.009266 -8.445983 81.223297
5 0 1 17.196465 -7.563613 80.720581
6 0 1 17.712166 -6.992914 81.237915
7 0 1 17.067665 -6.172452 81.315308
8 0 1 16.178566 -6.244403 81.002106
9 0 1 15.628166 -6.929653 81.404999
10 0 1 15.341564 -6.490234 82.209595
11 0 1 15.242867 -5.466203 82.200684
12 0 1 14.346066 -5.384443 81.890808
13 0 1 13.961864 -4.574073 81.493408
14 0 1 13.105667 -4.731424 81.848907
15 0 1 12.521564 -4.896694 81.025299
16 0 1 12.642365 -5.747793 81.411591
17 0 1 12.067066 -6.449243 81.874298
18 0 1 12.071766 -7.374362 82.064911
19 0 1 11.561424 -8.213843 82.211304
20 0 1 12.095066 -8.348903 83.002197
21 0 1 12.840767 -7.726694 82.879883
22 0 1 13.272564 -8.567893 82.926605
23 0 1 13.712864 -8.991092 83.713593
24 0 1 13.256966 -8.470881 84.430481
25 0 1 13.441166 -8.206344 85.344788
26 0 1 13.772064 -7.365764 85.664703
27 0 1 13.876865 -7.498683 86.626709
28 0 1 13.967163 -6.486392 86.734589
29 0 1 14.226864 -6.419584 87.701508
30 0 1 13.592564 -5.608512 87.785217
31 0 1 14.203365 -5.244684 87.098511
32 0 1 14.883965 -4.661903 87.487915
33 0 1 14.162266 -4.067783 87.449799
34 0 1 14.086365 -4.628013 88.254211
35 0 1 14.305164 -4.499174 89.183899
36 0 1 13.897667 -4.257444 89.949707
37 0 1 13.159363 -4.874744 90.152802
38 0 1 12.591564 -5.299644 90.858582
39 0 1 12.549465 -6.218723 90.539307
40 0 1 11.671677 -6.014043 90.843689
41 0 1 11.047783 -6.067863 90.103088
42 0 1 10.485313 -6.877553 89.896790
43 0 1 10.089897 -6.605073 90.717285
44 0 1 9.487495 -5.788124 90.617615
45 0 1 8.665886 -6.130023 90.146912
46 0 1 8.753975 -7.120853 89.771393
47 0 1 7.825226 -7.161514 89.368500
48 0 1 8.077976 -6.267454 89.108307
49 0 1 8.163876 -6.762493 88.339600
50 0 1 8.278004 -7.485652 87.662292
51 0 1 9.113853 -7.762462 87.334900
52 0 1 9.879204 -8.126323 86.884308
53 0 1 10.212914 -8.994153 86.659302
54 0 1 10.582855 -9.912232 86.779999
55 0 1 11.034836 -9.479583 86.038818
56 0 1 11.691505 -9.125962 85.411896
57 0 1 10.849014 -9.254272 84.884094
58 0 1 11.590157 -9.286702 84.251404
59 0 1 11.907566 -10.051543 83.746582
60 0 1 11.918365 -10.578612 83.007294
61 0 1 11.560444 -11.348792 83.433289
62 0 1 11.845665 -11.401492 84.342102
63 0 1 11.688286 -12.281993 83.849609
64 0 1 12.530464 -12.882392 83.789001
65 0 1 13.030563 -12.414393 84.482391
66 0 1 12.866463 -12.291194 85.417389
67 0 1 12.169964 -12.593894 86.009796
68 0 1 12.384064 -12.661893 86.952087
69 0 1 11.587914 -12.350291 87.314789
70 0 1 10.693096 -12.799993 87.432709
71 0 1 10.088493 -12.935292 86.729614
72 0 1 10.746315 -13.660092 86.781891
73 0 1 10.078903 -14.330691 86.720215
74 0 1 9.472786 -15.030494 86.348816
75 0 1 9.035736 -14.322593 85.832306
76 0 1 8.938004 -13.525693 85.330902
77 0 1 9.225586 -12.730792 85.787994
78 0 1 8.421684 -12.293193 85.966003
79 0 1 7.715385 -11.647992 85.981110
80 0 1 8.342163 -11.222392 86.606689
81 0 1 8.716404 -10.563622 87.228882
82 0 1 8.993145 -11.237292 87.894501
83 0 1 8.959465 -10.918233 88.813690
84 0 1 8.116653 -11.224093 89.260498
85 0 1 7.226875 -10.842443 89.291901
86 0 1 7.479836 -10.727323 88.352112
87 0 1 7.134205 -11.251594 87.557098
88 0 1 7.105713 -10.307132 87.403290
89 0 1 6.736675 -9.451093 87.110291
90 0 1 7.232857 -8.748282 87.597290
91 0 1 6.312546 -8.685924 87.762085
92 0 1 5.416515 -8.426732 87.393188
93 0 1 5.633904 -9.115092 86.758392
94 0 1 5.592403 -10.037463 86.659790
95 0 1 6.157684 -10.438613 85.996307
96 0 1 6.290207 -10.634452 85.025818
97 0 1 5.661766 -10.238433 84.472595
98 0 1 5.760815 -10.492562 83.590088
99 0 1 5.159676 -11.238193 83.738800
100 0 1 4.566444 -11.934592 83.506592
101 0 1 3.949635 -11.566192 82.900391
102 0 1 3.475037 -12.129693 82.269409
103 0 1 3.589035 -12.279492 81.254303
104 0 1 2.620285 -12.036893 80.895905
105 0 1 3.162315 -12.368493 80.166016
106 0 1 2.618340 -12.055392 79.398407
107 0 1 3.026215 -11.400493 78.814392
108 0 1 3.722084 -10.685782 79.001282
109 0 1 4.661304 -10.438804 79.064209
110 0 1 4.874496 -11.321792 78.900909
111 0 1 5.049534 -11.222993 77.894592
112 0 1 4.415504 -11.924092 77.847412
113 0 1 4.582893 -11.829892 76.892883
114 0 1 4.896496 -11.054893 76.371002
115 0 1 4.344006 -10.209043 76.317291
116 0 1 3.815914 -10.033744 75.506500
117 0 1 4.411583 -9.444213 75.000793
118 0 1 3.748283 -9.081473 75.743591
119 0 1 2.925344 -8.610103 75.593201
120 0 1 2.287804 -8.049033 75.140289
121 0 1 2.477833 -8.807992 74.490692
122 0 1 2.556934 -9.667253 74.999390
123 0 1 1.801468 -10.073153 75.317688
124 0 1 2.106024 -10.978972 75.445312
125 0 1 2.555107 -11.701892 75.872711
126 0 1 2.938595 -12.402392 76.422485
127 0 1 3.404644 -12.483293 75.592102
128 0 1 4.273525 -12.483792 75.140991
129 0 1 5.153645 -12.112792 74.945801
130 0 1 6.086494 -12.063993 74.966919
131 0 1 5.750145 -12.259791 74.092712
132 0 1 6.022755 -13.042392 73.619507
133 0 1 6.906906 -13.405292 73.727783
134 0 1 7.263336 -14.124694 74.216919
135 0 1 7.973164 -13.704993 74.702698
136 0 1 7.244156 -13.265792 75.198486
137 0 1 7.111465 -12.274993 75.049194
138 0 1 7.832047 -11.892692 75.639099
139 0 1 7.562607 -11.132703 75.219696
140 0 1 7.536026 -10.195762 75.468292
141 0 1 7.359436 -9.730884 74.610901
142 0 1 6.789116 -9.556804 73.767883
143 0 1 6.079006 -8.964383 74.211182
144 0 1 6.533024 -8.166152 74.080109
145 0 1 6.271145 -7.917673 73.193695
146 0 1 5.946877 -7.067773 73.608582
147 0 1 6.758873 -6.530303 73.857483
148 0 1 7.219685 -6.856353 73.141907
149 0 1 7.949074 -6.645433 73.672211
150 0 1 8.081596 -5.809614 74.098083
151 0 1 7.285885 -5.416353 74.461609
152 0 1 7.367905 -5.948974 75.316010
153 0 1 6.526154 -6.154613 75.800201
154 0 1 5.614826 -6.068294 76.065094
155 0 1 5.249485 -6.880603 75.718811
156 0 1 4.450096 -7.360252 75.473602
157 0 1 4.201454 -6.889593 76.201294
158 0 1 4.368515 -7.433073 76.968384
159 0 1 5.409523 -7.602663 76.897217
160 0 1 5.542736 -8.529683 77.101410
161 0 1 5.368805 -9.481784 77.165283
162 0 1 6.327835 -9.813342 77.305786
163 0 1 7.217377 -9.463782 77.145508
164 0 1 7.907524 -9.047763 77.658386
165 0 1 8.389675 -9.578973 77.099609
166 0 1 8.880264 -9.474463 77.945801
167 0 1 9.293503 -9.803432 78.682800
168 0 1 9.253525 -9.769301 79.648499
169 0 1 9.564323 -8.894513 79.554993
170 0 1 9.898476 -8.082541 80.008392
171 0 1 8.928394 -7.948953 80.016785
172 0 1 9.239594 -7.646564 80.883911
173 0 1 8.348736 -7.891372 80.973816
174 0 1 8.205135 -7.156593 80.399902
175 0 1 8.121593 -6.538433 79.647095
176 0 1 8.640007 -5.766223 79.739105
177 0 1 7.826843 -5.689823 80.173218
178 0 1 8.084084 -4.742393 80.209595
179 0 1 8.323776 -4.343624 81.026794
180 0 1 8.438164 -3.584514 81.627106
181 0 1 8.557426 -3.676473 82.551208
182 0 1 7.725647 -4.056653 82.640106
183 0 1 6.956554 -3.640462 82.246002
184 0 1 6.911903 -3.228553 83.061096
185 0 1 5.991405 -2.971813 83.056000
186 0 1 5.278866 -2.970012 82.409210
187 0 1 4.815975 -2.152786 82.746490
188 0 1 4.495255 -1.265789 82.558197
189 0 1 3.772217 -1.947248 82.766418
190 0 1 3.353233 -2.233163 83.593903
191 0 1 2.715813 -1.809356 84.252289
192 0 1 2.303759 -2.309614 84.886719
193 0 1 2.557281 -3.145713 84.548096
194 0 1 2.728992 -4.118993 84.650085
195 0 1 2.953175 -5.061983 84.879791
196 0 1 3.298306 -4.613033 85.738586
197 0 1 2.817585 -3.767984 85.747894
198 0 1 1.956110 -3.947313 86.141907
199 0 1 1.008654 -3.998603 85.927094
200 0 1 0.447895 -3.508173 85.171295
201 0 1 -0.471785 -3.852033 85.231995
202 0 1 -1.243786 -3.267692 85.381897
203 0 1 -0.510666 -2.690313 85.680298
204 0 1 -0.981396 -1.902875 86.027496
205 0 1 -1.245094 -1.056938 85.724487
206 0 1 -1.746605 -0.967126 86.511414
207 0 1 -1.642435 -0.830703 87.490112
208 0 1 -0.887285 -1.206213 88.028687
209 0 1 -0.741285 -0.279724 87.973389
210 0 1 -0.653675 0.098097 88.818115
211 0 1 -1.003975 0.700245 88.166016
212 0 1 -0.462765 1.063096 87.528992
213 0 1 0.371386 1.365998 87.228394
214 0 1 1.150152 1.437478 86.695801
215 0 1 1.716951 0.775216 86.907593
216 0 1 2.167828 0.257897 87.611511
217 0 1 2.698563 0.713456 88.291107
218 0 1 3.441357 0.324627 88.721497
219 0 1 3.362373 -0.662544 88.652100
220 0 1 3.068995 -1.023784 89.465698
221 0 1 3.381485 -1.129323 90.381195
222 0 1 3.399715 -0.218103 90.524597
223 0 1 2.477732 -0.016553 90.401611
224 0 1 2.707769 0.700867 89.859497
225 0 1 3.059465 0.848496 90.729401
226 0 1 3.713444 1.308747 91.247314
227 0 1 4.062504 1.123578 90.388611
228 0 1 3.576614 1.988217 90.250000
229 0 1 3.420425 1.741246 89.360413
230 0 1 2.675102 2.334988 89.208710
231 0 1 2.183079 3.077015 88.867706
232 0 1 3.002174 3.099988 88.293304
233 0 1 2.968485 2.465916 87.573395
234 0 1 2.644028 3.293587 87.080505
235 0 1 2.210371 3.840188 87.778503
236 0 1 2.857136 4.483948 87.563507
237 0 1 3.250263 4.993527 86.839783
238 0 1 2.830536 5.653206 86.322205
239 0 1 3.389786 5.866986 85.540588
240 0 1 3.982124 6.024708 84.764801
241 0 1 4.494637 6.707238 84.297913
242 0 1 4.375145 7.693219 84.142792
243 0 1 4.763817 7.405247 83.328308
244 0 1 4.421635 8.170548 82.973602
245 0 1 5.000736 8.473828 83.714111
246 0 1 5.133057 9.265008 83.247498
247 0 1 5.203094 9.487706 82.327515
248 0 1 5.994797 9.987008 81.899506
249 0 1 6.487904 10.496610 81.207794
250 0 1 7.389114 10.898606 81.367310
251 0 1 7.988907 10.730306 80.545807
252 0 1 8.591076 10.330506 81.147003
253 0 1 8.096443 10.309209 81.951996
254 0 1 8.440044 9.940206 82.782898
255 0 1 8.413006 9.012006 82.847412
256 0 1 7.980965 8.592069 83.549805
257 0 1 8.759205 8.967908 83.975586
258 0 1 8.825783 8.042546 84.325012
259 0 1 9.445484 8.714929 84.724091
260 0 1 10.318394 8.294759 84.784790
261 0 1 10.374176 7.411038 84.375793
262 0 1 10.038696 6.798897 85.012512
263 0 1 10.092846 5.890648 85.030304
264 0 1 10.939266 5.872826 84.494202
265 0 1 10.522255 5.809777 83.638092
266 0 1 9.645546 5.454495 83.354095
267 0 1 9.581524 5.571198 82.405090
268 0 1 9.676456 4.699875 82.091492
269 0 1 8.875595 5.083317 81.658295
270 0 1 8.766823 4.834736 80.708099
271 0 1 8.054356 4.906678 80.073608
272 0 1 7.228504 4.345627 79.784119
273 0 1 6.802235 4.406868 78.907715
274 0 1 5.984097 4.495068 79.400909
275 0 1 5.677277 4.051548 80.175507
276 0 1 4.989826 4.653515 80.494019
277 0 1 4.839966 5.664677 80.690308
278 0 1 3.859177 5.850998 80.841309
279 0 1 3.129545 6.392106 81.050507
280 0 1 2.542501 6.566815 80.302917
281 0 1 1.803049 7.255749 80.005402
282 0 1 1.386759 6.379559 79.856293
283 0 1 1.533596 5.457196 80.058502
284 0 1 2.104174 5.537518 80.887207
285 0 1 1.556515 4.763306 81.005402
286 0 1 1.791155 4.226857 80.329102
287 0 1 2.628229 4.623906 80.587494
288 0 1 2.571182 4.566658 81.611206
289 0 1 2.734861 3.888699 82.257599
290 0 1 2.897045 3.471417 83.113098
291 0 1 3.711945 3.985348 82.879517
292 0 1 3.782425 4.743256 82.373810
293 0 1 3.992867 5.347798 83.045502
294 0 1 3.186674 5.501488 83.475403
295 0 1 2.307936 5.715168 83.178101
296 0 1 1.308266 5.604786 83.031982
297 0 1 0.599325 6.056015 83.380188
298 0 1 -0.242315 6.398839 83.747986
299 0 1 -0.019505 6.465218 84.677094
300 0 1 0.507725 7.307446 84.825012
301 0 1 0.170055 7.803246 85.621307
302 0 1 0.925760 8.227056 85.136810
303 0 1 0.237215 8.865109 85.406311
304 0 1 -0.217735 8.759107 86.216614
305 0 1 -0.974066 8.640077 85.523499
306 0 1 -1.051834 8.551457 84.542297
307 0 1 -1.590305 8.317998 83.791199
308 0 1 -2.347475 7.737946 84.006195
309 0 1 -2.928286 8.430367 83.838989
310 0 1 -2.722515 8.557588 82.857208
311 0 1 -3.549925 8.479138 82.293396
312 0 1 -3.162785 9.315606 82.426819
313 0 1 -2.460106 9.981408 82.480286
314 0 1 -1.668505 9.827008 81.898315
315 0 1 -1.383135 9.813107 82.869385
316 0 1 -0.707035 9.295209 82.398682
317 0 1 -0.171434 8.677129 81.902100
318 0 1 -0.085794 9.306607 81.142395
319 0 1 -0.868984 8.736367 81.079407
320 0 1 -1.612865 8.471787 80.540802
321 0 1 -2.400665 7.932766 80.709808
322 0 1 -3.342356 7.491795 80.919189
323 0 1 -3.726616 6.615468 80.668793
324 0 1 -4.471575 7.128647 80.466400
325 0 1 -4.766685 6.315896 80.778809
326 0 1 -5.495295 5.885808 81.255707
327 0 1 -5.770226 6.811299 81.133911
328 0 1 -6.189865 6.754715 81.946411
329 0 1 -7.143154 6.910126 82.056793
330 0 1 -7.089474 6.459298 81.165894
331 0 1 -6.766376 6.253338 80.260010
332 0 1 -7.363464 5.775696 79.819611
333 0 1 -7.187126 6.071537 78.895203
334 0 1 -7.455065 5.099457 79.036896
335 0 1 -7.046776 4.827706 78.155304
336 0 1 -6.438175 4.447777 77.527710
337 0 1 -7.058876 3.893368 77.053192
338 0 1 -7.515347 4.353608 76.343811
339 0 1 -7.042194 4.509968 75.518494
340 0 1 -6.430676 3.787259 75.634705
341 0 1 -6.875744 3.134457 76.155090
342 0 1 -6.825485 2.679467 75.310608
343 0 1 -7.543556 2.675366 74.595581
344 0 1 -6.872746 2.093075 74.252411
345 0 1 -5.977304 1.704266 74.295410
346 0 1 -6.389565 1.880288 73.441895
347 0 1 -6.306635 1.054585 72.920288
348 0 1 -5.461615 1.433316 73.101807
349 0 1 -4.534445 1.312348 73.403687
350 0 1 -4.005215 1.763268 74.025299
351 0 1 -3.034996 1.861657 74.191406
352 0 1 -3.045176 2.165745 73.263000
353 0 1 -2.850016 2.295418 72.293091
354 0 1 -2.667055 3.222477 71.969482
355 0 1 -2.915665 3.609059 71.132385
356 0 1 -3.571476 3.003216 70.731384
357 0 1 -4.145786 3.221787 71.456116
358 0 1 -4.321615 2.358986 71.787415
359 0 1 -4.717545 1.511597 72.004883
360 0 1 -5.316406 0.885548 71.738892
361 0 1 -5.524565 -0.027273 71.701202
362 0 1 -6.305275 -0.000244 72.265015
363 0 1 -7.247416 -0.372608 72.240692
364 0 1 -6.724445 -0.751369 71.559509
365 0 1 -6.927435 -1.015071 70.630890
366 0 1 -7.573875 -0.535112 70.140503
367 0 1 -8.074726 -0.307725 70.940796
368 0 1 -8.635235 -1.069072 71.104309
369 0 1 -9.099035 -0.969432 70.209290
370 0 1 -9.330536 -0.056283 70.463593
371 0 1 -9.734135 -0.356325 71.341187
372 0 1 -9.868435 -0.593481 72.267700
373 0 1 -9.378536 -0.216649 73.018799
374 0 1 -9.071434 -0.087903 73.866211
375 0 1 -8.841135 -0.204587 74.890015
376 0 1 -9.523235 -0.067632 75.654602
377 0 1 -9.282234 -0.728155 76.209717
378 0 1 -9.510036 -1.420076 76.850800
379 0 1 -10.077736 -2.191312 76.673309
380 0 1 -9.559235 -2.873804 76.143005
381 0 1 -9.008135 -3.635004 75.753418
382 0 1 -8.451534 -4.193992 76.321991
383 0 1 -7.636734 -3.834564 75.887085
384 0 1 -7.013336 -3.403074 75.296814
385 0 1 -6.043425 -3.611463 75.025696
386 0 1 -5.231775 -3.934463 75.395508
387 0 1 -4.438816 -4.357173 75.911499
388 0 1 -4.825226 -4.518894 76.807190
389 0 1 -5.083626 -5.325313 76.325806
390 0 1 -5.539434 -6.170503 76.698700
391 0 1 -5.716385 -6.434143 75.812500
392 0 1 -6.285915 -5.945602 75.270294
393 0 1 -7.010426 -6.002653 74.614319
394 0 1 -7.615124 -5.359962 74.994995
395 0 1 -7.666105 -5.671323 75.916901
396 0 1 -8.256765 -6.450033 76.076202
397 0 1 -7.671104 -6.572353 75.276703
398 0 1 -8.605335 -6.483913 74.990601
399 0 1 -9.414734 -6.782363 74.554291
400 0 1 -9.246635 -6.478683 73.631409
401 0 1 -9.141535 -6.603992 72.680298
402 0 1 -9.115734 -7.021293 71.792908
403 0 1 -9.754536 -7.446443 71.283905
404 0 1 -9.040134 -6.959543 70.778290
405 0 1 -8.639236 -7.280403 69.974487
406 0 1 -7.715324 -7.096982 70.161316
407 0 1 -7.375324 -7.157962 69.274414
408 0 1 -7.153416 -6.259853 68.953186
409 0 1 -7.871555 -5.826494 68.369202
410 0 1 -8.697735 -5.476253 68.383484
411 0 1 -9.002735 -4.553823 68.427795
412 0 1 -9.030136 -4.660573 67.492615
413 0 1 -8.287735 -4.036844 67.224487
414 0 1 -8.090965 -3.244012 67.712006
415 0 1 -7.565725 -2.473123 67.604401
416 0 1 -6.820114 -2.227502 67.121002
417 0 1 -7.204485 -2.667854 66.377991
418 0 1 -7.336494 -3.678863 66.216797
419 0 1 -8.211805 -3.791803 65.765594
420 0 1 -8.859234 -3.364744 66.307892
421 0 1 -9.509935 -3.300003 67.002991
422 0 1 -9.320236 -3.054443 67.899689
423 0 1 -8.937435 -2.368114 67.418518
424 0 1 -9.057735 -1.353185 67.444794
425 0 1 -9.322536 -0.570547 66.909119
426 0 1 -8.517935 -0.050872 66.689392
427 0 1 -7.741524 0.465928 66.422791
428 0 1 -7.583164 0.041346 65.562012
429 0 1 -8.345036 0.279547 64.970093
430 0 1 -8.711435 0.301318 64.066711
431 0 1 -8.828636 0.772317 63.266510
432 0 1 -9.778336 0.345818 63.238190
433 0 1 -9.748837 -0.651100 63.163208
434 0 1 -10.721134 -0.859439 63.193787
435 0 1 -10.361435 -0.845291 64.180298
436 0 1 -10.015636 -1.635917 63.830688
437 0 1 -10.827534 -2.180164 63.840698
438 0 1 -11.547535 -1.979702 63.238892
439 0 1 -11.326635 -1.926157 62.275513
440 0 1 -10.416134 -1.916791 62.345703
441 0 1 -10.431135 -2.195163 61.433990
442 0 1 -10.537235 -3.098724 61.207886
443 0 1 -10.122936 -3.592702 60.475800
444 0 1 -9.803436 -4.526573 60.437683
445 0 1 -9.024235 -4.870113 60.863403
446 0 1 -8.428835 -5.679563 60.756104
447 0 1 -8.401535 -6.354503 61.519104
448 0 1 -8.243225 -6.799472 62.407898
449 0 1 -8.371334 -7.608243 61.856201
450 0 1 -7.661825 -7.220113 61.261292
451 0 1 -6.984135 -7.068433 61.954407
452 0 1 -6.837965 -7.976543 61.780701
453 0 1 -6.729836 -8.510432 62.586914
454 0 1 -7.084055 -7.829963 63.195709
455 0 1 -7.101727 -8.647273 63.610901
456 0 1 -8.085926 -8.851712 63.612488
457 0 1 -8.174755 -8.385003 64.462494
458 0 1 -8.536535 -7.500133 64.164001
459 0 1 -9.379936 -7.845953 64.109100
460 0 1 -9.709534 -8.715243 64.393097
461 0 1 -8.916735 -9.208013 64.671204
462 0 1 -9.384535 -9.388171 65.531006
463 0 1 -9.633636 -10.325984 65.511292
464 0 1 -10.091434 -10.550933 64.708496
465 0 1 -9.645134 -10.712743 63.872803
466 0 1 -9.391434 -11.661792 63.940308
467 0 1 -9.817835 -12.510293 63.896393
468 0 1 -9.670135 -13.311692 63.398315
469 0 1 -9.196236 -13.675593 62.742615
470 0 1 -9.521236 -13.110393 62.108795
471 0 1 -9.175636 -12.370791 62.681885
472 0 1 -8.239044 -12.665294 62.575989
473 0 1 -7.511406 -12.017993 62.637604
474 0 1 -7.235786 -11.366893 61.901794
475 0 1 -6.441856 -10.900233 62.207001
476 0 1 -6.028484 -10.037402 62.129700
477 0 1 -6.981625 -9.864863 62.135895
478 0 1 -7.791145 -9.313563 62.214996
479 0 1 -8.429235 -9.803313 61.656403
480 0 1 -8.901436 -10.482183 61.087189
481 0 1 -9.282536 -10.600183 60.198212
482 0 1 -9.863136 -10.828862 59.484985
483 0 1 -10.395035 -11.626992 59.168793
484 0 1 -11.114035 -11.396392 58.542511
485 0 1 -11.919735 -11.021564 58.860291
486 0 1 -12.187836 -10.523242 58.026184
487 0 1 -12.621536 -11.102214 57.377502
488 0 1 -12.903635 -11.823192 56.883606
489 0 1 -13.616735 -12.171292 56.382599
490 0 1 -14.458435 -11.689792 56.267517
491 0 1 -14.637535 -11.200091 57.153412
492 0 1 -14.322836 -10.352294 56.808899
493 0 1 -15.201035 -9.995013 56.989502
494 0 1 -15.659035 -10.100713 57.827515
495 0 1 -16.140535 -10.004352 58.679413
496 0 1 -15.531635 -10.036933 59.516510
497 0 1 -15.963236 -9.456382 60.135986
498 0 1 -15.429535 -9.950702 60.765289
499 0 1 -14.635435 -10.015922 61.389801
500 0 1 -14.099535 -9.737891 62.118500
501 0 1 -14.223335 -10.425513 62.769409
502 0 1 -14.917536 -11.055432 63.053497
503 0 1 -15.631935 -10.448432 63.288788
504 0 1 -15.191135 -9.797091 62.726685
505 0 1 -15.411936 -8.925353 63.094116
506 0 1 -16.309635 -9.062753 63.418884
507 0 1 -16.018635 -8.174743 63.707886
508 0 1 -16.515736 -8.244964 64.593506
509 0 1 -17.039434 -7.619373 65.136414
510 0 1 -17.475235 -6.857023 64.626709
511 0 1 -18.360935 -6.741083 64.405090
512 0 1 -18.953035 -7.530893 64.005005
513 0 1 -19.789434 -7.155994 63.824310
514 0 1 -20.767635 -7.339773 63.880707
515 0 1 -21.085436 -7.613132 62.905701
516 0 1 -20.970036 -8.679233 62.997314
517 0 1 -21.191435 -9.407363 62.448303
518 0 1 -21.123135 -9.891683 61.633911
519 0 1 -20.743935 -9.079263 61.264404
520 0 1 -21.301535 -8.662553 60.610504
521 0 1 -21.055836 -8.204932 59.830017
522 0 1 -21.311335 -7.260273 59.861206
523 0 1 -21.982635 -7.421764 59.167389
524 0 1 -21.742136 -6.802454 58.397095
525 0 1 -22.716536 -6.913614 58.272797
526 0 1 -23.132135 -6.519332 59.060791
527 0 1 -23.730736 -6.569833 58.302094
528 0 1 -23.837835 -5.826463 57.706909
529 0 1 -23.631636 -4.944953 57.317688
530 0 1 -24.603636 -4.727394 57.216492
531 0 1 -24.683235 -4.111944 57.923584
532 0 1 -24.117035 -3.749063 58.669617
533 0 1 -24.117836 -3.677574 59.657898
534 0 1 -24.797535 -3.178882 60.019012
535 0 1 -24.514635 -2.284643 59.727692
536 0 1 -24.860435 -2.422964 58.846710
537 0 1 -24.147135 -2.104194 58.111816
538 0 1 -23.347235 -2.012062 58.662811
539 0 1 -22.829435 -1.817466 59.449890
540 0 1 -23.197136 -0.951259 59.252899
541 0 1 -22.317434 -0.537979 59.474915
542 0 1 -22.483635 -1.127777 60.271393
543 0 1 -23.346134 -0.647527 60.287811
544 0 1 -23.864235 0.119937 60.379211
545 0 1 -23.301136 0.385556 61.113708
546 0 1 -23.074535 1.240368 60.754395
547 0 1 -22.355434 1.668576 61.102905
548 0 1 -21.863535 2.287758 60.463593
549 0 1 -20.982635 2.697796 60.617889
550 0 1 -20.537535 3.078248 61.339813
551 0 1 -20.789835 3.950955 60.919006
552 0 1 -20.677835 4.580685 60.199493
553 0 1 -20.828436 5.504677 60.502899
554 0 1 -20.334536 5.959557 59.842010
555 0 1 -20.901236 5.512295 59.240906
556 0 1 -20.501835 5.553418 58.383606
557 0 1 -21.111734 5.170498 57.728302
558 0 1 -21.649435 4.610928 57.154205
559 0 1 -22.050936 3.988266 57.770294
560 0 1 -22.312635 3.545907 58.596893
561 0 1 -23.273235 3.896817 58.485291
562 0 1 -23.874435 4.614346 58.239288
563 0 1 -24.189335 5.524457 58.350403
564 0 1 -24.247135 6.313336 58.908691
565 0 1 -24.101034 6.574986 57.997314
566 0 1 -23.875034 6.015667 57.168396
567 0 1 -24.243734 5.106728 56.861298
568 0 1 -23.327635 5.084599 56.934113
569 0 1 -22.805336 4.452977 56.497894
570 0 1 -23.039835 3.613366 56.982300
571 0 1 -23.495134 3.521107 56.095886
572 0 1 -23.864435 3.639569 55.163696
573 0 1 -24.531935 4.367928 55.165497
574 0 1 -24.227036 4.536988 54.202301
575 0 1 -24.565836 4.268837 53.294800
576 0 1 -23.686834 3.842888 53.137085
577 0 1 -23.098635 3.309746 53.686005
578 0 1 -22.518135 3.168538 52.978790
579 0 1 -22.009134 3.226689 52.203491
580 0 1 -21.104635 3.446007 51.877686
581 0 1 -20.331835 3.004376 52.231598
582 0 1 -20.155735 2.430909 52.950195
583 0 1 -20.571436 1.701828 52.543701
584 0 1 -21.218636 1.417687 53.268188
585 0 1 -20.692236 0.909798 53.854187
586 0 1 -21.452435 0.302037 53.967102
587 0 1 -21.502834 -0.490516 53.418304
588 0 1 -20.704235 -0.464055 53.980591
589 0 1 -19.784136 -0.448413 53.733398
590 0 1 -18.915436 -0.760431 53.609497
591 0 1 -18.691635 -0.165586 52.853516
592 0 1 -18.290236 -0.558914 52.079407
593 0 1 -17.696634 -1.050317 51.532410
594 0 1 -17.632336 -1.558292 50.741699
595 0 1 -17.162235 -0.753065 50.333588
596 0 1 -16.466335 -0.105403 50.291504
597 0 1 -16.627935 -0.490003 49.382599
598 0 1 -16.548435 -1.411235 49.051086
599 0 1 -16.358036 -1.995456 48.274994
600 0 1 -16.071634 -2.934984 48.257996
601 0 1 -16.706936 -3.173793 49.043793
602 0 1 -17.446535 -2.598503 49.270905
603 0 1 -17.732336 -1.824399 49.661102
604 0 1 -18.484535 -2.478723 49.715210
605 0 1 -18.543736 -3.138454 49.026093
606 0 1 -18.324434 -3.775934 49.751709
607 0 1 -17.853134 -4.632473 49.807404
608 0 1 -17.427635 -5.424512 49.479309
609 0 1 -17.697136 -5.081764 48.622314
610 0 1 -18.268635 -4.323102 48.896484
611 0 1 -19.147535 -3.943803 48.876190
612 0 1 -19.516335 -3.207223 48.410797
613 0 1 -19.984634 -3.628723 47.662994
614 0 1 -19.292635 -4.003982 47.115387
615 0 1 -19.628136 -3.658203 46.235901
616 0 1 -18.747036 -3.336454 46.067505
617 0 1 -19.254934 -2.570693 45.576691
618 0 1 -19.735334 -2.812303 44.748505
619 0 1 -19.486935 -3.506273 44.104492
620 0 1 -18.926235 -4.250383 44.452209
621 0 1 -18.099634 -3.773283 44.232788
622 0 1 -17.650036 -4.082412 43.463684
623 0 1 -17.372934 -3.173402 43.861084
624 0 1 -17.039434 -2.267543 43.777100
625 0 1 -18.018635 -2.134183 43.565796
626 0 1 -17.938736 -1.752771 42.681793
627 0 1 -17.591234 -0.937953 42.285492
628 0 1 -17.417234 -0.313121 41.589600
629 0 1 -17.921135 -0.353845 40.832489
630 0 1 -17.820835 0.550206 40.423004
631 0 1 -18.203135 1.173737 41.051086
632 0 1 -18.202036 2.066826 40.677490
633 0 1 -17.338936 2.159878 41.180511
634 0 1 -16.736734 2.883217 41.076813
635 0 1 -15.811436 2.552048 41.440399
636 0 1 -14.896034 2.617398 41.373993
637 0 1 -14.616035 2.415478 42.258301
638 0 1 -14.252635 1.473958 42.378601
639 0 1 -13.721235 1.167706 43.042114
640 0 1 -13.949335 1.082028 43.948395
641 0 1 -13.577635 1.826928 44.423889
642 0 1 -12.644634 1.680405 44.775085
643 0 1 -11.986635 0.995186 44.999817
644 0 1 -11.957634 1.675889 45.706909
645 0 1 -12.478935 0.949616 46.139709
646 0 1 -12.826035 -0.034673 46.447388
647 0 1 -12.932535 -0.852848 45.896698
648 0 1 -12.605034 -0.743867 45.031311
649 0 1 -12.556435 -1.683027 44.774292
650 0 1 -12.619934 -1.888336 45.789398
651 0 1 -11.984735 -1.389457 46.247894
652 0 1 -11.201336 -1.974468 46.131500
653 0 1 -10.358234 -2.503473 46.286804
654 0 1 -10.832735 -2.757682 45.534790
655 0 1 -10.051636 -3.337163 45.393402
656 0 1 -9.961935 -4.156623 45.924988
657 0 1 -10.190536 -4.127714 46.830505
658 0 1 -10.674635 -3.537113 47.431213
659 0 1 -11.554134 -3.023822 47.492004
660 0 1 -11.955734 -2.261413 47.892517
661 0 1 -11.268936 -1.627374 47.797485
662 0 1 -10.370935 -1.648582 47.469788
663 0 1 -9.765434 -1.355491 48.126099
664 0 1 -8.846436 -1.079656 47.885101
665 0 1 -9.457735 -0.351633 47.705688
666 0 1 -9.031036 -0.515771 46.871704
667 0 1 -8.512634 -0.198478 46.115112
668 0 1 -8.117615 0.282437 45.310089
669 0 1 -7.953695 0.617486 46.181213
670 0 1 -7.055405 0.356228 46.650787
671 0 1 -6.827015 -0.207853 47.358490
672 0 1 -6.954765 0.721757 47.643402
673 0 1 -7.006115 1.520638 47.009094
674 0 1 -7.627686 2.335148 46.893005
675 0 1 -8.564535 2.181416 46.599701
676 0 1 -9.240635 2.048115 45.910187
677 0 1 -9.359535 2.697937 45.167603
678 0 1 -8.556635 2.376046 44.796295
679 0 1 -7.876316 2.267926 44.144501
680 0 1 -7.695866 3.003975 43.561707
681 0 1 -7.427185 3.839917 43.236206
682 0 1 -6.477646 4.018315 43.249390
683 0 1 -5.660656 3.408139 43.407196
684 0 1 -4.853054 3.407788 43.853302
685 0 1 -5.053436 2.583775 44.282715
686 0 1 -4.915895 2.001038 45.037292
687 0 1 -4.598536 1.168866 45.209900
688 0 1 -4.115456 1.053967 44.366302
689 0 1 -4.262066 1.516358 43.524902
690 0 1 -4.642944 2.338528 43.249084
691 0 1 -3.891075 2.857838 43.458313
692 0 1 -3.014395 2.771828 42.955994
693 0 1 -2.232185 3.394639 42.933411
694 0 1 -1.458055 3.327328 43.484802
695 0 1 -1.701515 4.295098 43.393005
696 0 1 -1.342594 5.195237 43.151794
697 0 1 -1.317265 4.890568 42.235687
698 0 1 -1.697596 5.772007 42.125793
699 0 1 -2.390816 6.487236 41.892883
700 0 1 -2.870275 6.712128 41.132812
701 0 1 -3.733246 6.855435 41.523804
702 0 1 -4.099754 6.229908 40.894897
703 0 1 -4.714556 5.998307 40.194885
704 0 1 -5.200054 5.275948 39.716309
705 0 1 -4.353626 5.241406 39.266907
706 0 1 -3.751554 4.663037 38.824097
707 0 1 -3.730835 3.719388 39.162292
708 0 1 -4.233805 2.853219 39.299103
709 0 1 -4.735195 2.839196 38.465302
710 0 1 -5.285685 2.372216 39.140198
711 0 1 -6.226906 2.336556 39.098602
712 0 1 -5.779495 1.604168 39.563507
713 0 1 -5.139904 1.607235 40.285004
714 0 1 -4.196795 1.837586 40.428192
715 0 1 -3.708735 2.057606 39.596710
716 0 1 -3.522554 1.754078 38.665497
717 0 1 -3.217594 0.933297 39.115601
718 0 1 -2.921495 0.660828 38.239288
719 0 1 -2.000114 0.981759 38.148712
720 0 1 -2.057945 1.925927 38.198792
721 0 1 -1.914314 2.829525 38.201691
722 0 1 -1.067394 2.664666 38.632507
723 0 1 -0.234455 2.825737 38.061401
724 0 1 0.465546 3.114846 37.482117
725 0 1 1.093390 3.233105 36.804901
726 0 1 1.079422 3.063736 35.826813
727 0 1 0.627254 3.285397 35.066589
728 0 1 -0.046925 3.477826 34.398712
729 0 1 -0.715195 4.060887 34.874817
730 0 1 -1.614725 3.629548 34.600189
731 0 1 -2.197676 2.907715 34.528595
732 0 1 -1.884815 2.031369 34.140991
733 0 1 -2.628475 2.024346 34.840515
734 0 1 -3.229805 2.195427 33.987793
735 0 1 -4.060795 2.425267 33.444305
736 0 1 -4.532116 3.224808 33.626007
737 0 1 -3.827126 3.759057 33.401794
738 0 1 -3.515535 4.648266 33.148315
739 0 1 -3.666695 5.315655 32.538910
740 0 1 -2.890215 5.798226 32.122009
741 0 1 -2.243734 5.059018 32.043091
742 0 1 -1.707235 5.811726 32.250610
743 0 1 -1.225285 5.783547 31.442993
744 0 1 -0.709925 6.354668 31.004486
745 0 1 0.148964 6.015347 30.795502
746 0 1 0.039425 5.071286 30.416992
747 0 1 0.245935 4.486027 29.675995
748 0 1 0.379194 4.843457 28.843201
749 0 1 0.762464 4.176518 28.300598
750 0 1 0.513805 3.302319 27.776093
751 0 1 -0.002245 2.458607 27.788696
752 0 1 -0.709236 2.407795 27.082886
753 0 1 -1.285484 2.396126 27.909912
754 0 1 -1.940615 1.743607 28.046692
755 0 1 -2.781355 1.677807 28.502899
756 0 1 -3.275335 1.603608 27.671509
757 0 1 -3.306765 2.477097 28.088013
758 0 1 -4.230215 2.724679 28.074097
759 0 1 -5.145226 2.447297 27.964386
760 0 1 -5.077135 3.407067 28.000092
761 0 1 -5.011965 3.849457 27.060608
762 0 1 -4.533775 3.159329 26.606903
763 0 1 -4.705814 2.257496 26.110199
764 0 1 -5.338394 2.329476 26.845490
765 0 1 -6.013485 2.797097 26.197205
766 0 1 -6.816545 2.293778 26.322906
767 0 1 -7.626404 2.045517 25.922485
768 0 1 -7.753365 1.874417 26.864014
769 0 1 -7.907415 0.953667 26.687988
770 0 1 -8.016495 0.133797 27.154999
771 0 1 -7.377094 -0.375101 27.606201
772 0 1 -7.113186 -1.301645 27.547607
773 0 1 -6.945595 -0.710287 26.774414
774 0 1 -6.691494 -0.703901 25.820007
775 0 1 -7.568205 -0.489791 25.413910
776 0 1 -7.983784 0.029097 24.692291
777 0 1 -8.771135 0.662575 24.635803
778 0 1 -9.086834 0.104167 23.909302
779 0 1 -8.589134 -0.232971 23.199493
780 0 1 -7.727684 -0.646923 23.384705
781 0 1 -7.468674 -0.745094 22.467804
782 0 1 -7.165386 -0.238574 21.686203
783 0 1 -6.666615 -0.215570 20.940598
784 0 1 -7.455585 0.317637 20.850403
785 0 1 -7.195375 1.073777 20.343399
786 0 1 -7.077286 1.920617 20.862793
787 0 1 -6.697315 2.383976 21.618805
788 0 1 -6.778656 3.103009 21.055695
789 0 1 -6.821606 3.424187 20.108002