LAMMPS data file via MDAnalysis

        2000  atoms
        1999  bonds
           0  angles
           0  dihedrals
           0  impropers

           1  atom types
           1  bond types
           0  angle types
           0  dihedral types
           0  improper types

-30.5 30.5 xlo xhi
-30.5 30.5 ylo yhi
-233.5 233.5 zlo zhi


Masses

1 1.000000

Atoms

1 0 1 9.458984 7.041012 48.433502
2 0 1 10.171856 7.084362 49.041992
3 0 1 10.964615 6.853561 49.667603
4 0 1 11.052696 7.114971 50.621887
5 0 1 10.866695 8.038441 50.590210
6 0 1 10.318375 8.427231 51.283203
7 0 1 9.835094 9.250130 51.036407
8 0 1 8.974926 9.296932 50.583099
9 0 1 8.791744 9.196930 51.546509
10 0 1 8.597034 8.523102 52.112793
11 0 1 8.877697 8.438251 53.048492
12 0 1 9.583286 8.648331 53.704285
13 0 1 9.851074 9.262333 53.036804
14 0 1 10.578945 9.931030 53.107208
15 0 1 11.347878 10.370831 53.484192
16 0 1 11.398277 10.262333 54.458405
17 0 1 11.368866 9.365231 54.868713
18 0 1 12.300896 9.546833 54.968201
19 0 1 11.976864 8.508579 55.029694
20 0 1 12.851166 8.236721 55.377808
21 0 1 12.893997 8.488369 54.433716
22 0 1 12.730854 7.570282 54.220703
23 0 1 12.332485 7.406559 55.028595
24 0 1 11.817616 6.647602 54.678192
25 0 1 10.906044 6.428249 54.524109
26 0 1 10.047916 6.093533 54.407288
27 0 1 10.364536 5.260460 54.774292
28 0 1 11.315094 5.156792 54.486908
29 0 1 10.760235 5.005039 53.694214
30 0 1 10.432297 5.105999 52.816284
31 0 1 11.126457 5.056381 52.108795
32 0 1 11.892014 4.527283 52.001892
33 0 1 11.524216 4.633591 51.067993
34 0 1 11.816944 5.370842 50.542786
35 0 1 12.785595 5.381531 50.274597
36 0 1 12.457737 5.763721 49.487000
37 0 1 12.669357 5.995350 48.580017
38 0 1 13.330925 6.698971 48.657410
39 0 1 13.682446 7.258492 49.447296
40 0 1 13.482674 8.205231 49.701813
41 0 1 13.808006 8.318680 48.843689
42 0 1 14.540894 8.200062 48.190796
43 0 1 15.051147 7.812023 48.907715
44 0 1 15.735374 7.991631 49.578888
45 0 1 16.277126 8.718029 49.178589
46 0 1 15.562294 9.306232 48.861084
47 0 1 15.719555 10.381733 48.739685
48 0 1 15.801224 11.284229 48.605408
49 0 1 16.780678 11.484531 48.673004
50 0 1 17.020477 12.115131 49.458496
51 0 1 16.353127 12.259331 50.092499
52 0 1 15.498123 12.779232 50.103607
53 0 1 14.875977 12.882030 49.406616
54 0 1 15.007404 13.619732 48.817413
55 0 1 14.330685 14.165730 49.208008
56 0 1 13.877216 14.474831 49.967010
57 0 1 14.530445 15.156429 49.675812
58 0 1 15.025475 15.975231 50.080811
59 0 1 15.776337 16.567829 49.913910
60 0 1 15.290016 16.874031 49.221710
61 0 1 15.450035 16.396633 48.344788
62 0 1 16.205467 16.167728 47.711914
63 0 1 16.034058 15.247334 47.552612
64 0 1 15.495167 15.179531 46.749207
65 0 1 14.689285 14.812931 46.322296
66 0 1 13.700317 14.848732 46.523010
67 0 1 13.296066 15.453430 45.875183
68 0 1 14.084557 15.978832 45.975006
69 0 1 14.155067 15.316132 45.338898
70 0 1 13.612747 15.197430 44.520111
71 0 1 12.998905 14.442631 44.222504
72 0 1 12.558624 13.758232 44.756012
73 0 1 13.403614 13.267532 44.767609
74 0 1 13.637535 13.101730 45.694397
75 0 1 12.727806 12.932529 45.594513
76 0 1 12.601147 13.768532 46.160583
77 0 1 12.705307 14.016731 47.140198
78 0 1 12.852314 13.087833 47.480804
79 0 1 13.858036 13.211231 47.259705
80 0 1 13.926174 12.266232 47.417389
81 0 1 13.653847 11.856430 46.611908
82 0 1 14.055717 11.342030 45.935913
83 0 1 13.694054 10.790432 45.187317
84 0 1 14.320126 10.126732 44.818390
85 0 1 13.468666 10.352131 44.322601
86 0 1 13.104904 9.506630 43.890991
87 0 1 12.541374 8.944031 43.319794
88 0 1 12.314217 8.561131 42.471710
89 0 1 12.088184 7.643009 42.292511
90 0 1 11.717667 6.832031 42.684601
91 0 1 12.331905 6.434860 43.364288
92 0 1 12.887238 6.769123 42.686005
93 0 1 13.391926 7.575161 42.265900
94 0 1 12.962906 7.722420 41.468811
95 0 1 12.547386 7.043633 41.014008
96 0 1 12.260937 6.355831 40.317017
97 0 1 11.442863 5.890732 40.203094
98 0 1 11.847366 5.170483 40.729401
99 0 1 11.936165 4.509602 41.383209
100 0 1 11.010025 4.479942 41.182983
101 0 1 10.940536 5.370090 41.355499
102 0 1 11.254395 5.408901 42.243805
103 0 1 10.589497 5.796291 42.841888
104 0 1 9.909374 5.897602 43.579010
105 0 1 9.338726 5.714489 42.804993
106 0 1 8.378647 5.447422 42.916901
107 0 1 7.826876 6.179802 42.801605
108 0 1 6.825521 6.271931 42.924500
109 0 1 7.087320 5.702080 43.690796
110 0 1 6.201992 5.921101 44.048401
111 0 1 5.336195 5.501690 43.594299
112 0 1 4.727156 5.450623 44.441589
113 0 1 5.442070 4.796772 44.491211
114 0 1 6.406322 4.731731 44.413910
115 0 1 6.755653 3.984871 43.990906
116 0 1 7.027231 3.773590 44.910095
117 0 1 6.874212 2.769741 44.684509
118 0 1 6.456053 3.037693 45.595001
119 0 1 5.501186 3.021500 45.702087
120 0 1 4.559536 3.109860 45.440796
121 0 1 3.993595 3.251461 46.165192
122 0 1 4.724236 3.836090 46.304688
123 0 1 5.076815 4.602432 46.747314
124 0 1 4.428606 4.111660 47.275909
125 0 1 5.217995 3.579563 47.535187
126 0 1 4.759525 2.751900 47.645813
127 0 1 5.007515 2.609761 48.530304
128 0 1 5.689791 2.144100 49.010712
129 0 1 5.227196 1.751621 49.777008
130 0 1 5.018936 1.724091 50.723511
131 0 1 4.509205 1.254212 51.399597
132 0 1 3.751986 1.383271 50.736694
133 0 1 4.064285 2.285160 50.915894
134 0 1 4.348885 2.540833 50.059509
135 0 1 4.125835 1.683300 49.678894
136 0 1 3.651966 0.989811 49.167908
137 0 1 3.554575 0.123303 49.540710
138 0 1 2.719685 -0.303308 49.296997
139 0 1 2.644156 -0.732607 48.384094
140 0 1 1.942335 -0.651872 47.790283
141 0 1 1.207756 -0.245619 47.256012
142 0 1 0.794615 -0.818090 47.935089
143 0 1 0.548905 -1.558235 47.302002
144 0 1 0.826306 -2.460569 47.338898
145 0 1 0.593037 -3.309749 47.737488
146 0 1 1.148815 -3.670238 48.426086
147 0 1 0.692946 -3.037639 48.996613
148 0 1 0.404745 -3.689739 49.675293
149 0 1 -0.450973 -4.117649 49.757202
150 0 1 -0.464405 -3.969188 48.835205
151 0 1 -1.209215 -4.022499 48.252197
152 0 1 -1.890514 -4.669239 48.183502
153 0 1 -1.865864 -5.418758 47.603912
154 0 1 -2.515684 -5.866890 47.061401
155 0 1 -2.856004 -5.903778 47.966614
156 0 1 -3.332584 -6.526020 48.489197
157 0 1 -3.777923 -7.400629 48.486298
158 0 1 -3.664623 -8.306749 48.799316
159 0 1 -3.058775 -8.211390 48.120483
160 0 1 -2.234825 -8.033529 47.627106
161 0 1 -2.047474 -8.925589 47.276093
162 0 1 -1.485065 -8.905699 46.478790
163 0 1 -0.518394 -8.708549 46.469116
164 0 1 -0.650955 -8.856539 47.452393
165 0 1 -0.512415 -9.799479 47.698212
166 0 1 -0.172165 -10.361549 46.986694
167 0 1 -0.151394 -11.248859 46.761108
168 0 1 -1.098453 -11.237988 46.651489
169 0 1 -1.889484 -11.825069 46.475006
170 0 1 -2.355453 -11.981668 45.714813
171 0 1 -1.518434 -11.951269 45.347809
172 0 1 -0.982284 -11.475468 44.714996
173 0 1 -0.283024 -10.872089 45.052795
174 0 1 0.249735 -11.482769 44.643494
175 0 1 -0.261654 -11.802670 43.902191
176 0 1 -1.052885 -11.845669 43.283508
177 0 1 -1.155824 -12.710968 43.687592
178 0 1 -0.324554 -12.903069 43.172394
179 0 1 0.502516 -12.414869 43.387512
180 0 1 0.954365 -12.027769 44.111511
181 0 1 1.182835 -11.239599 43.713013
182 0 1 1.772536 -10.525379 43.520691
183 0 1 2.360756 -11.189659 43.890686
184 0 1 2.687376 -11.402870 43.031799
185 0 1 2.741757 -10.461559 42.713104
186 0 1 3.598496 -10.419178 43.123810
187 0 1 3.879925 -10.357719 44.049011
188 0 1 4.842665 -10.384220 44.436890
189 0 1 5.266306 -11.285007 44.296997
190 0 1 6.228046 -11.226669 44.234802
191 0 1 6.943232 -10.708050 44.666809
192 0 1 7.040947 -9.823879 44.482208
193 0 1 7.607355 -9.198019 43.994904
194 0 1 7.207497 -9.966799 43.363495
195 0 1 7.930065 -9.480129 42.883789
196 0 1 8.825706 -9.390749 42.653900
197 0 1 8.852985 -8.437529 42.844299
198 0 1 8.396225 -7.641079 42.593109
199 0 1 8.914047 -6.775148 42.829895
200 0 1 8.290947 -5.992668 42.907013
201 0 1 7.499355 -5.525040 43.263184
202 0 1 7.625395 -5.848949 44.209991
203 0 1 7.087929 -5.661339 44.984009
204 0 1 7.711275 -4.898169 44.978394
205 0 1 8.286076 -4.613119 44.283691
206 0 1 8.988064 -4.224079 44.937592
207 0 1 9.525524 -4.134628 45.794006
208 0 1 9.072445 -3.517999 46.293884
209 0 1 8.583694 -2.952858 46.936798
210 0 1 8.879967 -2.197132 47.480988
211 0 1 8.724945 -2.987438 48.046387
212 0 1 9.100334 -3.205738 48.900208
213 0 1 8.748947 -2.541418 49.528992
214 0 1 8.006126 -3.041189 50.043884
215 0 1 7.661415 -3.255108 49.206207
216 0 1 7.236696 -3.199709 48.350189
217 0 1 7.456036 -3.104679 47.301697
218 0 1 6.491316 -3.058439 47.470886
219 0 1 5.599249 -3.285549 47.083893
220 0 1 5.395590 -2.418884 47.453003
221 0 1 4.545286 -2.063984 47.479706
222 0 1 4.522745 -2.607349 48.283112
223 0 1 4.606026 -3.494369 48.654205
224 0 1 4.957285 -3.692289 49.582703
225 0 1 4.539436 -2.821058 49.886810
226 0 1 5.452208 -2.936758 50.005615
227 0 1 6.270916 -3.193269 50.490295
228 0 1 6.137396 -4.111858 50.729889
229 0 1 6.475315 -4.580259 51.443787
230 0 1 7.233574 -4.455738 52.023193
231 0 1 7.357641 -3.806059 52.672211
232 0 1 7.847546 -4.527458 53.167511
233 0 1 8.671825 -4.946320 52.910706
234 0 1 9.483036 -5.210299 53.500183
235 0 1 9.510136 -4.302479 53.843201
236 0 1 9.013504 -3.844648 54.483704
237 0 1 9.966995 -3.669948 54.801208
238 0 1 10.738594 -3.453378 55.304291
239 0 1 10.618736 -4.005779 56.070587
240 0 1 10.795654 -4.840818 55.583710
241 0 1 11.431007 -5.555819 56.029602
242 0 1 11.110497 -4.980419 56.838104
243 0 1 11.557846 -4.168289 56.695007
244 0 1 12.178165 -3.543649 57.051788
245 0 1 12.991875 -3.653629 57.527893
246 0 1 13.166615 -3.552288 58.477783
247 0 1 12.245483 -3.728739 58.747009
248 0 1 11.846165 -4.245569 59.440704
249 0 1 12.591496 -4.602499 60.025208
250 0 1 13.244514 -4.727758 59.311005
251 0 1 13.845684 -5.432579 59.504395
252 0 1 14.316814 -5.655640 60.323486
253 0 1 13.907104 -6.074688 61.094513
254 0 1 14.821796 -6.070539 61.529694
255 0 1 15.380943 -5.569420 62.139404
256 0 1 15.316795 -6.203709 62.904388
257 0 1 14.395206 -5.863749 62.920105
258 0 1 14.493446 -6.457428 63.691010
259 0 1 13.931847 -7.245140 63.514496
260 0 1 13.585434 -7.962599 64.039917
261 0 1 12.877384 -7.322720 64.096100
262 0 1 12.898857 -6.826439 63.279388
263 0 1 12.547157 -7.720699 63.089203
264 0 1 12.375107 -7.748178 62.131897
265 0 1 11.456764 -7.735138 61.921997
266 0 1 10.615925 -7.673218 62.279388
267 0 1 10.579266 -7.198568 63.103912
268 0 1 9.920727 -7.551329 63.719910
269 0 1 9.268894 -8.261379 64.034912
270 0 1 8.918724 -9.021729 63.587799
271 0 1 8.010815 -9.026339 63.355988
272 0 1 8.074287 -9.611008 62.483002
273 0 1 8.696354 -9.094208 61.996704
274 0 1 8.791634 -9.176809 60.913208
275 0 1 8.518486 -8.288010 60.705017
276 0 1 7.593105 -8.443369 60.819214
277 0 1 7.408255 -8.923489 59.963196
278 0 1 6.580439 -8.533239 59.836212
279 0 1 6.355177 -7.643379 60.071289
280 0 1 5.568876 -7.849159 60.607391
281 0 1 5.024885 -7.102579 60.382996
282 0 1 4.191616 -7.074678 59.862488
283 0 1 4.471786 -6.237459 59.449188
284 0 1 4.454485 -5.861479 58.587585
285 0 1 3.452126 -6.035038 58.540100
286 0 1 2.469527 -6.288519 58.394104
287 0 1 2.652016 -6.901918 59.143311
288 0 1 1.901736 -6.534790 59.616394
289 0 1 2.167456 -5.768188 60.030701
290 0 1 1.540695 -5.062868 60.224792
291 0 1 0.819506 -5.079628 59.507294
292 0 1 0.500626 -5.913609 59.303497
293 0 1 0.366135 -6.062799 58.340302
294 0 1 0.480776 -5.458679 57.594910
295 0 1 0.487206 -5.239889 56.677399
296 0 1 -0.369125 -4.638939 56.893402
297 0 1 -0.964744 -4.936749 56.169983
298 0 1 -1.446874 -5.058119 57.013000
299 0 1 -0.898245 -5.392368 57.777100
300 0 1 -1.218164 -5.427448 58.712494
301 0 1 -1.548885 -5.914999 59.433899
302 0 1 -1.726484 -6.734869 60.026611
303 0 1 -2.425964 -6.765160 60.692505
304 0 1 -2.255045 -7.715809 60.431488
305 0 1 -2.009704 -8.202740 59.670715
306 0 1 -1.658195 -8.366219 58.746704
307 0 1 -0.971435 -8.537909 58.097687
308 0 1 -1.696995 -8.625370 57.470093
309 0 1 -1.887493 -9.562958 57.655792
310 0 1 -2.658544 -10.016418 58.076904
311 0 1 -3.543344 -10.421059 58.473816
312 0 1 -3.634424 -10.190979 59.408386
313 0 1 -3.755625 -9.210518 59.322815
314 0 1 -4.361025 -8.458759 59.322815
315 0 1 -5.327024 -8.330978 59.365204
316 0 1 -6.117424 -8.048349 58.898193
317 0 1 -5.798023 -7.153538 58.600403
318 0 1 -5.263124 -6.447680 58.213898
319 0 1 -5.631725 -5.565388 57.871704
320 0 1 -6.246025 -5.285250 57.236511
321 0 1 -6.617624 -4.731730 56.545715
322 0 1 -7.431524 -4.761129 56.970795
323 0 1 -7.448925 -5.564079 56.373291
324 0 1 -8.217224 -6.109699 56.538696
325 0 1 -8.432625 -5.189098 56.448792
326 0 1 -8.760525 -4.351849 56.071503
327 0 1 -9.633324 -4.660599 55.760803
328 0 1 -9.940125 -5.159430 56.531097
329 0 1 -9.710024 -6.130398 56.616608
330 0 1 -9.442824 -6.941189 56.187408
331 0 1 -8.841825 -6.765308 55.431793
332 0 1 -9.799225 -6.601948 55.228302
333 0 1 -9.929525 -5.999180 54.518890
334 0 1 -9.972925 -5.896229 53.583099
335 0 1 -8.990125 -5.758968 53.506714
336 0 1 -8.619824 -6.093819 54.377502
337 0 1 -7.709524 -6.340689 54.559692
338 0 1 -7.768326 -5.579828 53.915405
339 0 1 -7.147324 -5.325989 53.181091
340 0 1 -8.096523 -5.108179 53.020386
341 0 1 -7.533125 -4.499739 52.457092
342 0 1 -6.722923 -3.980058 52.268188
343 0 1 -6.319824 -3.505968 53.034485
344 0 1 -7.103125 -3.961778 53.259094
345 0 1 -7.914623 -3.454269 53.245209
346 0 1 -7.811024 -3.596218 54.170197
347 0 1 -8.641925 -3.215019 54.563690
348 0 1 -9.458124 -2.794109 54.491302
349 0 1 -10.432625 -2.904859 54.448792
350 0 1 -10.969425 -2.402807 55.060303
351 0 1 -11.900824 -2.153936 55.066101
352 0 1 -11.694424 -2.553869 55.923706
353 0 1 -11.950424 -2.487268 56.805695
354 0 1 -12.384125 -2.280260 57.664307
355 0 1 -12.696224 -1.805855 58.491791
356 0 1 -12.618824 -0.833097 58.598999
357 0 1 -12.526625 0.191902 58.736084
358 0 1 -13.409925 -0.180889 58.788605
359 0 1 -14.073425 -0.341308 59.545990
360 0 1 -14.856525 -0.944572 59.326599
361 0 1 -15.482725 -0.219169 59.329498
362 0 1 -16.117624 0.389061 58.914917
363 0 1 -17.008924 0.393120 59.236816
364 0 1 -16.904224 1.402340 59.142212
365 0 1 -16.882124 1.571041 58.161987
366 0 1 -17.342325 1.174950 57.463013
367 0 1 -17.960325 1.919422 57.656189
368 0 1 -18.600424 2.410340 58.278900
369 0 1 -19.187424 2.151150 58.925507
370 0 1 -18.767824 1.784001 59.724915
371 0 1 -18.211124 1.069111 59.907410
372 0 1 -18.960524 0.857151 60.490112
373 0 1 -19.130024 0.484623 59.657806
374 0 1 -19.941225 0.287701 60.128784
375 0 1 -20.684025 -0.118479 59.697906
376 0 1 -20.263124 0.395001 58.998810
377 0 1 -19.666225 -0.339100 58.742798
378 0 1 -19.186325 -1.192798 58.760498
379 0 1 -18.977325 -1.901413 59.446503
380 0 1 -18.681625 -2.706539 58.892792
381 0 1 -18.133125 -3.476169 59.143097
382 0 1 -17.387125 -3.408809 58.486694
383 0 1 -17.347725 -3.584068 57.554199
384 0 1 -16.461824 -3.829139 57.226990
385 0 1 -16.226025 -4.305059 56.416504
386 0 1 -15.539324 -4.150669 55.666016
387 0 1 -15.419125 -3.275188 55.304199
388 0 1 -14.752825 -2.941948 55.884308
389 0 1 -13.837725 -2.716808 55.528290
390 0 1 -13.028124 -2.832369 56.055389
391 0 1 -13.675325 -2.549919 56.779510
392 0 1 -13.333424 -1.620079 56.869995
393 0 1 -12.855724 -1.301428 56.097198
394 0 1 -13.094624 -1.517732 55.190887
395 0 1 -13.345924 -0.606870 55.409088
396 0 1 -13.909624 0.112702 54.987305
397 0 1 -13.325525 -0.152099 54.273102
398 0 1 -12.814125 -1.006214 54.072815
399 0 1 -12.689224 -0.927154 53.178711
400 0 1 -13.598524 -1.114654 53.009796
401 0 1 -14.271324 -0.636858 53.448792
402 0 1 -14.858425 -1.303163 53.005310
403 0 1 -15.019125 -0.871408 52.126190
404 0 1 -15.209425 -0.040268 52.646698
405 0 1 -15.975424 -0.086229 52.078400
406 0 1 -16.765625 0.513832 51.969391
407 0 1 -17.434025 0.934330 51.388306
408 0 1 -17.726324 0.213543 50.892090
409 0 1 -16.944424 -0.329719 51.060608
410 0 1 -17.203024 -1.154459 50.543396
411 0 1 -17.449224 -1.343889 51.520996
412 0 1 -17.691624 -1.560177 52.463013
413 0 1 -17.275425 -1.584635 53.352997
414 0 1 -16.588724 -1.866832 54.029388
415 0 1 -16.277525 -1.227936 54.666595
416 0 1 -16.892424 -0.533211 54.349396
417 0 1 -16.584625 0.389260 54.318695
418 0 1 -16.819824 0.882813 53.539703
419 0 1 -16.671825 1.672962 52.936707
420 0 1 -17.439325 2.242703 52.572906
421 0 1 -16.969124 2.659550 51.867889
422 0 1 -16.755825 1.723641 51.743713
423 0 1 -15.804024 1.992623 51.808594
424 0 1 -14.915924 2.371922 51.830017
425 0 1 -14.789024 1.660912 51.175110
426 0 1 -15.136524 2.373661 50.583099
427 0 1 -14.409025 2.132660 50.058197
428 0 1 -13.592924 1.641472 49.946899
429 0 1 -12.957325 1.201931 49.379395
430 0 1 -12.997925 0.702511 48.555695
431 0 1 -13.101925 -0.202888 48.193390
432 0 1 -12.324524 0.178391 47.885590
433 0 1 -12.334425 0.909222 47.294312
434 0 1 -12.524424 1.719143 46.735596
435 0 1 -12.301924 2.195061 45.965393
436 0 1 -11.708624 2.439270 45.282593
437 0 1 -11.274725 1.552922 45.244904
438 0 1 -10.839825 0.810040 45.716797
439 0 1 -11.425524 0.206452 45.329102
440 0 1 -11.326624 -0.723350 45.738708
441 0 1 -11.986824 -1.300222 45.382507
442 0 1 -11.228224 -1.615991 44.878693
443 0 1 -10.665224 -1.595108 44.107910
444 0 1 -11.506025 -2.065471 43.880707
445 0 1 -12.070724 -1.521362 43.313110
446 0 1 -12.755625 -2.082067 43.782410
447 0 1 -13.136024 -2.031505 42.884491
448 0 1 -12.972925 -2.197748 41.970612
449 0 1 -12.158524 -2.597318 42.218292
450 0 1 -12.160925 -3.527698 41.888306
451 0 1 -11.663824 -3.581438 42.689514
452 0 1 -11.343224 -3.966049 43.506714
453 0 1 -11.560225 -3.547230 44.382690
454 0 1 -10.680325 -3.598928 44.746002
455 0 1 -10.565525 -3.082939 43.963196
456 0 1 -9.659525 -2.867208 44.171204
457 0 1 -9.726324 -1.862234 44.287689
458 0 1 -9.302625 -1.017713 44.204102
459 0 1 -9.413025 -0.112318 44.559601
460 0 1 -8.596825 -0.364479 45.066010
461 0 1 -8.217224 0.138272 45.751007
462 0 1 -7.325125 -0.021889 46.064514
463 0 1 -6.598125 -0.450210 46.516510
464 0 1 -5.751724 0.023251 46.409912
465 0 1 -5.468025 0.409302 47.320099
466 0 1 -5.210625 -0.552553 47.161316
467 0 1 -4.979424 -0.733063 48.024200
468 0 1 -5.575726 -0.379719 48.748199
469 0 1 -5.736225 0.513943 48.623199
470 0 1 -6.226225 1.169441 48.227600
471 0 1 -7.114624 1.397850 48.256409
472 0 1 -8.091324 1.356533 48.592499
473 0 1 -7.645624 1.506253 49.429199
474 0 1 -7.289825 2.282002 48.954712
475 0 1 -7.106424 2.584240 49.825989
476 0 1 -7.949326 2.975651 49.742096
477 0 1 -8.133624 3.935311 49.823303
478 0 1 -8.262025 4.231632 48.942413
479 0 1 -9.151224 3.886311 48.727905
480 0 1 -9.937025 3.368500 49.021912
481 0 1 -10.872725 3.114441 49.263916
482 0 1 -10.362925 2.332711 49.675201
483 0 1 -9.817524 1.687111 50.207001
484 0 1 -9.427625 1.542313 49.316711
485 0 1 -9.632124 0.571121 49.423706
486 0 1 -8.965525 0.428120 50.029694
487 0 1 -9.276424 0.231941 50.911194
488 0 1 -10.255325 0.134182 50.725098
489 0 1 -10.762924 -0.561430 51.170410
490 0 1 -10.667425 -1.359375 51.748505
491 0 1 -10.763424 -2.107891 51.190186
492 0 1 -9.803024 -1.833784 51.077698
493 0 1 -8.948025 -2.269085 50.911713
494 0 1 -8.137424 -1.665668 50.765106
495 0 1 -7.201824 -1.987886 50.732483
496 0 1 -6.720123 -1.197716 50.878510
497 0 1 -6.812626 -0.577743 50.136810
498 0 1 -7.124125 -0.125248 50.950287
499 0 1 -6.539326 0.640591 50.922089
500 0 1 -6.409725 0.974171 51.788696
501 0 1 -5.787624 0.390850 52.222687
502 0 1 -4.859524 0.403420 51.932587
503 0 1 -4.704426 1.312382 51.811493
504 0 1 -4.992825 2.090679 52.388184
505 0 1 -4.259323 2.723492 52.315887
506 0 1 -4.809425 3.251351 52.900208
507 0 1 -4.362425 4.085659 53.097290
508 0 1 -3.914123 4.468250 53.880798
509 0 1 -3.175735 4.474552 53.208984
510 0 1 -2.444805 4.197342 52.645599
511 0 1 -2.321445 5.115982 52.692688
512 0 1 -1.918415 5.532211 53.419708
513 0 1 -1.358635 6.330273 53.654205
514 0 1 -1.219934 6.421619 52.725800
515 0 1 -1.291544 7.360180 52.997803
516 0 1 -1.609154 7.757763 53.778992
517 0 1 -1.704035 8.630932 53.475891
518 0 1 -2.122295 8.874729 52.592499
519 0 1 -3.045425 8.791931 52.469910
520 0 1 -3.299644 9.386730 51.825104
521 0 1 -3.205623 9.031231 50.928406
522 0 1 -3.224874 8.173290 51.384308
523 0 1 -3.105373 7.209179 51.531403
524 0 1 -3.682823 6.746723 50.916992
525 0 1 -3.542644 6.000202 51.569305
526 0 1 -4.282724 5.530231 51.234009
527 0 1 -4.304924 5.676952 50.273987
528 0 1 -3.874624 6.065071 49.395203
529 0 1 -3.013544 6.542652 49.155304
530 0 1 -2.341314 7.057751 49.521698
531 0 1 -2.287544 6.883892 48.538391
532 0 1 -2.371975 6.878082 47.490112
533 0 1 -2.847364 7.645321 47.795288
534 0 1 -2.226463 8.363182 48.264496
535 0 1 -1.588264 8.798031 47.643707
536 0 1 -1.849106 9.312931 46.851685
537 0 1 -1.048355 9.657932 46.576202
538 0 1 -1.611545 10.307430 46.073608
539 0 1 -2.466814 10.164333 45.757996
540 0 1 -3.193393 10.084831 46.382385
541 0 1 -3.117325 11.017830 46.208893
542 0 1 -3.049774 11.413532 47.051300
543 0 1 -3.096233 12.291931 47.419800
544 0 1 -2.705543 12.453129 46.478210
545 0 1 -1.869156 12.706631 46.087799
546 0 1 -1.440454 13.486629 45.653290
547 0 1 -1.551664 12.633831 45.154510
548 0 1 -1.162185 13.032932 44.260010
549 0 1 -0.439274 13.621532 44.293793
550 0 1 0.407246 13.908833 44.597809
551 0 1 0.743466 14.810833 44.805908
552 0 1 1.237465 15.525032 45.114502
553 0 1 1.416056 15.245331 45.982788
554 0 1 0.659216 15.084930 46.600891
555 0 1 1.002196 15.950329 46.969910
556 0 1 0.918205 16.163929 47.862091
557 0 1 0.612805 16.289433 48.807983
558 0 1 -0.264705 15.962132 48.970306
559 0 1 -0.566185 16.277332 48.078186
560 0 1 -0.783344 16.597233 47.187805
561 0 1 -1.217853 17.057430 46.504791
562 0 1 -0.877384 17.908131 46.696716
563 0 1 -0.128105 18.226429 46.192200
564 0 1 0.154106 18.356632 45.277313
565 0 1 0.652775 17.564030 45.515289
566 0 1 0.897446 17.600632 44.534912
567 0 1 1.139195 17.178730 43.664093
568 0 1 1.117506 17.120331 42.696503
569 0 1 0.147595 16.939632 42.573792
570 0 1 0.265196 16.961529 41.631897
571 0 1 0.356747 16.523930 40.695404
572 0 1 -0.274004 16.571934 39.949493
573 0 1 -0.775314 15.783230 39.725311
574 0 1 -0.581943 15.016628 39.186798
575 0 1 -0.774235 15.710831 38.526917
576 0 1 -0.491174 16.538334 38.015503
577 0 1 -1.038374 17.041931 37.426514
578 0 1 -1.339164 16.169231 37.255890
579 0 1 -1.391063 16.230431 36.306396
580 0 1 -1.610695 15.276131 35.907990
581 0 1 -2.407964 14.761532 35.598999
582 0 1 -1.752765 13.998730 35.656494
583 0 1 -1.737564 13.025932 35.716614
584 0 1 -1.470394 12.640331 34.826294
585 0 1 -0.685394 12.399830 35.360413
586 0 1 -0.471775 11.489231 35.469299
587 0 1 0.147936 11.118732 34.807587
588 0 1 0.723576 11.224430 34.093689
589 0 1 1.650055 11.496731 34.217499
590 0 1 2.350327 11.615833 33.534912
591 0 1 3.150046 11.204830 33.285400
592 0 1 3.726135 11.818432 32.870789
593 0 1 4.186565 11.347431 32.109497
594 0 1 4.106895 10.886333 31.285004
595 0 1 4.165316 10.941730 30.346405
596 0 1 3.918625 10.590530 29.494995
597 0 1 4.369616 9.716732 29.623505
598 0 1 4.991135 9.889629 28.904510
599 0 1 5.596783 10.356533 28.308807
600 0 1 6.332300 9.826031 28.280304
601 0 1 6.290977 9.688129 29.205414
602 0 1 6.012886 8.817730 29.133301
603 0 1 6.361876 8.094013 28.656799
604 0 1 6.230341 7.149509 28.747803
605 0 1 6.755867 7.314953 27.897400
606 0 1 7.682976 7.432262 27.473389
607 0 1 7.544886 7.084049 26.616913
608 0 1 8.332314 7.739719 26.582703
609 0 1 8.437355 8.281342 25.843597
610 0 1 9.081966 7.567631 25.905609
611 0 1 8.982944 6.639442 26.070404
612 0 1 9.601486 5.849472 25.990295
613 0 1 9.013916 5.558132 25.273590
614 0 1 8.217617 5.109463 25.581604
615 0 1 7.312458 5.055481 25.375793
616 0 1 6.618116 4.683212 24.925690
617 0 1 6.430368 5.125141 24.092712
618 0 1 6.523655 6.110821 24.174988
619 0 1 5.762932 6.357971 24.691895
620 0 1 4.952425 6.258282 24.143890
621 0 1 5.172846 7.130470 24.471588
622 0 1 4.716396 6.630630 25.129700
623 0 1 3.946186 6.926281 25.641510
624 0 1 3.032006 6.692333 25.598389
625 0 1 2.414835 7.329052 25.211090
626 0 1 1.760016 7.648720 25.851807
627 0 1 0.965826 7.785290 26.318787
628 0 1 0.058296 7.658840 25.890991
629 0 1 -0.898685 7.671642 25.707611
630 0 1 -0.743545 6.862091 26.144989
631 0 1 -1.670194 6.809170 25.993011
632 0 1 -2.545505 7.201042 26.005493
633 0 1 -2.645324 8.143791 26.038513
634 0 1 -3.576154 7.889030 26.044006
635 0 1 -4.464725 7.897362 25.802094
636 0 1 -4.645725 7.600483 26.705200
637 0 1 -4.561226 7.282310 27.665192
638 0 1 -5.591625 7.049839 27.682495
639 0 1 -6.407225 7.602432 27.505798
640 0 1 -7.394424 7.599010 27.419098
641 0 1 -7.656025 6.691059 27.650513
642 0 1 -7.590124 5.774853 27.751007
643 0 1 -7.662825 6.101250 28.637604
644 0 1 -8.383624 5.431450 28.500610
645 0 1 -9.324124 5.478710 28.441406
646 0 1 -9.952625 4.837681 28.670288
647 0 1 -10.628225 4.942081 29.363586
648 0 1 -10.304125 4.727119 30.291901
649 0 1 -9.384225 4.363583 30.397491
650 0 1 -8.798724 4.207901 29.696198
651 0 1 -8.963124 3.266903 29.422913
652 0 1 -8.169925 2.953781 28.917114
653 0 1 -8.030025 2.484223 28.046906
654 0 1 -8.615325 1.897991 27.502991
655 0 1 -9.548525 2.125141 27.776001
656 0 1 -9.290725 2.170601 28.684387
657 0 1 -10.136225 2.688851 28.700287
658 0 1 -9.922325 2.327172 29.580414
659 0 1 -10.507925 2.734532 30.265686
660 0 1 -11.118124 2.137593 29.873688
661 0 1 -11.688524 1.537312 30.398987
662 0 1 -11.422924 1.298741 31.278595
663 0 1 -12.094725 0.537541 31.434204
664 0 1 -11.466124 0.107613 32.052795
665 0 1 -12.004025 0.047692 32.836090
666 0 1 -12.343124 0.869221 32.526184
667 0 1 -12.153725 1.766373 32.609406
668 0 1 -11.595224 2.217583 33.230011
669 0 1 -11.344025 2.078041 34.203705
670 0 1 -11.430325 1.120861 33.956787
671 0 1 -12.233824 1.544972 34.291504
672 0 1 -12.610924 2.000843 35.109802
673 0 1 -13.237425 1.322991 35.036713
674 0 1 -13.501425 0.896870 34.226807
675 0 1 -13.360825 1.472573 33.436005
676 0 1 -13.086124 2.360161 33.525085
677 0 1 -13.267824 3.299961 33.567810
678 0 1 -12.867424 3.773243 32.750092
679 0 1 -12.238424 3.871201 33.470886
680 0 1 -11.853224 4.753262 33.397217
681 0 1 -10.831524 4.725620 33.216309
682 0 1 -10.806124 5.467072 33.837006
683 0 1 -10.165825 6.186020 33.772217
684 0 1 -10.505625 6.357033 32.845490
685 0 1 -9.721825 6.906860 33.036407
686 0 1 -9.668325 6.991890 32.059509
687 0 1 -10.506025 6.610821 31.822205
688 0 1 -11.111124 7.142071 31.315887
689 0 1 -11.516325 7.605183 32.039795
690 0 1 -11.491924 8.391003 31.489502
691 0 1 -12.170124 9.108330 31.309906
692 0 1 -12.013424 9.264133 32.327911
693 0 1 -11.563925 10.148632 32.363007
694 0 1 -10.946724 10.698231 32.784607
695 0 1 -10.431225 10.505329 32.059509
696 0 1 -9.576324 10.906631 32.130615
697 0 1 -9.623824 11.700733 32.689606
698 0 1 -9.330424 11.966129 33.584991
699 0 1 -9.670425 11.272930 34.167297
700 0 1 -9.362325 10.393230 33.986816
701 0 1 -8.518425 10.554630 34.483704
702 0 1 -8.106224 11.431232 34.424591
703 0 1 -7.467424 10.850731 34.028015
704 0 1 -6.977123 10.049332 33.800812
705 0 1 -7.191223 10.354130 32.876495
706 0 1 -6.784824 10.421230 32.036987
707 0 1 -7.005224 10.465229 31.081787
708 0 1 -7.928326 10.598133 30.815491
709 0 1 -8.387824 11.381229 30.432007
710 0 1 -7.559124 11.717232 30.820892
711 0 1 -7.305424 11.516132 29.906708
712 0 1 -6.532225 12.027233 30.219910
713 0 1 -5.758024 12.059231 30.898712
714 0 1 -6.017525 12.791729 31.513000
715 0 1 -6.538824 13.523029 31.831512
716 0 1 -7.104525 14.135632 31.324188
717 0 1 -7.680225 14.875431 31.145691
718 0 1 -7.368025 15.016830 30.243195
719 0 1 -6.753325 15.636929 29.980011
720 0 1 -7.331924 16.172932 30.551514
721 0 1 -6.602425 16.787930 30.693512
722 0 1 -6.394325 17.747829 30.969788
723 0 1 -5.612925 18.049831 30.433289
724 0 1 -4.820925 17.492931 30.196991
725 0 1 -4.107325 17.914433 30.720490
726 0 1 -4.327925 18.788631 31.203400
727 0 1 -4.590424 19.684231 31.361389
728 0 1 -4.872925 19.806530 30.420593
729 0 1 -4.989723 19.424732 29.512909
730 0 1 -4.530926 19.215633 28.704987
731 0 1 -4.199224 18.340931 28.489410
732 0 1 -3.796123 17.416031 28.558594
733 0 1 -3.364155 17.980831 27.927887
734 0 1 -2.711914 17.268631 27.660400
735 0 1 -1.817116 16.873432 27.790100
736 0 1 -2.212024 16.038029 28.056000
737 0 1 -1.972864 15.670933 27.212494
738 0 1 -1.884304 14.806232 26.857910
739 0 1 -2.804313 14.640232 26.618195
740 0 1 -2.782474 14.535030 25.656891
741 0 1 -2.602384 14.222431 24.722504
742 0 1 -2.115194 14.831532 24.234009
743 0 1 -1.680855 15.487732 23.702209
744 0 1 -0.781765 15.088932 23.988007
745 0 1 -0.072944 14.754330 23.511505
746 0 1 -0.750185 14.130230 23.786194
747 0 1 -0.929674 13.501530 23.146301
748 0 1 -1.678165 13.640831 22.611084
749 0 1 -2.369024 12.985931 22.772095
750 0 1 -1.862285 12.293530 22.329193
751 0 1 -1.768543 11.299030 22.250702
752 0 1 -1.354845 10.604130 21.709396
753 0 1 -0.565794 10.221931 21.996704
754 0 1 -0.952944 9.394329 22.091202
755 0 1 -1.936794 9.263931 22.180099
756 0 1 -1.933744 9.411129 23.113403
757 0 1 -1.909275 8.447910 22.934906
758 0 1 -1.013815 8.540363 22.713409
759 0 1 -0.342634 7.868443 22.478500
760 0 1 0.422196 8.012642 21.733307
761 0 1 1.239315 8.120960 21.312408
762 0 1 1.873316 7.997520 21.986801
763 0 1 2.066435 7.946712 22.901184
764 0 1 2.839386 7.390121 22.864014
765 0 1 3.713785 7.083363 23.214111
766 0 1 3.778696 6.658180 24.157715
767 0 1 3.349255 5.814133 24.143005
768 0 1 3.543446 4.883331 24.143890
769 0 1 4.370125 4.445580 24.614502
770 0 1 4.720495 4.156670 23.831604
771 0 1 4.353355 3.292443 23.685699
772 0 1 4.259045 3.028580 22.766785
773 0 1 4.619516 3.882542 22.365997
774 0 1 3.914246 4.500351 22.204407
775 0 1 4.669165 5.005821 21.889893
776 0 1 4.929626 4.752460 20.944901
777 0 1 4.748585 4.638081 19.994797
778 0 1 5.631357 4.633022 19.710098
779 0 1 6.063507 4.344032 20.571594
780 0 1 6.068056 3.607502 19.920303
781 0 1 5.762697 3.700333 19.015503
782 0 1 4.936836 3.965012 18.721298
783 0 1 4.565596 3.381871 18.107101
784 0 1 5.362785 3.336842 17.528503
785 0 1 5.654736 2.480603 17.306396
786 0 1 6.624868 2.365292 17.490692
787 0 1 7.190849 1.527439 17.488602
788 0 1 7.779425 1.076130 18.112793
789 0 1 8.406254 1.593601 17.515106
790 0 1 8.468945 0.980061 16.751099
791 0 1 7.714655 0.434063 16.599106
792 0 1 8.117744 0.136650 17.403595