LAMMPS data file via MDAnalysis

        2000  atoms
        1999  bonds
           0  angles
           0  dihedrals
           0  impropers

           1  atom types
           1  bond types
           0  angle types
           0  dihedral types
           0  improper types

-30.5 30.5 xlo xhi
-30.5 30.5 ylo yhi
-233.5 233.5 zlo zhi


Masses

1 1.000000

Atoms

1 0 1 7.070924 3.169060 50.442291
2 0 1 6.207765 2.655793 50.431305
3 0 1 5.557474 3.168721 49.920990
4 0 1 4.894155 3.254811 49.292511
5 0 1 4.090715 2.965851 49.789093
6 0 1 3.550746 3.181611 50.512787
7 0 1 3.243903 3.668263 49.759796
8 0 1 4.043165 4.216641 49.464600
9 0 1 4.212274 5.149533 49.585297
10 0 1 5.049345 4.713440 49.612793
11 0 1 5.898153 4.928509 49.181885
12 0 1 6.609674 5.642910 49.150909
13 0 1 7.132345 6.006199 48.405701
14 0 1 7.620225 6.026112 47.601288
15 0 1 7.833795 6.980710 47.298706
16 0 1 8.799493 7.089001 47.317017
17 0 1 8.467404 7.019471 46.402008
18 0 1 8.316754 7.956440 46.633698
19 0 1 7.501344 7.628399 46.266998
20 0 1 7.649934 7.042870 45.540710
21 0 1 6.831884 7.483090 45.378906
22 0 1 6.904703 8.431831 45.515991
23 0 1 6.502016 8.375362 44.688995
24 0 1 6.284185 8.943840 43.839294
25 0 1 6.644945 8.418861 43.207703
26 0 1 6.181993 7.745579 42.576416
27 0 1 5.261083 7.780762 42.455811
28 0 1 4.536203 7.358490 41.960907
29 0 1 4.299823 7.762612 42.824005
30 0 1 3.559039 7.168869 42.680603
31 0 1 3.103755 6.743840 41.949493
32 0 1 2.965356 5.920422 42.298187
33 0 1 3.467332 5.120461 42.276184
34 0 1 2.603343 4.854691 42.344391
35 0 1 2.022456 4.783982 41.592590
36 0 1 1.439563 4.107701 41.313416
37 0 1 1.025264 3.362652 41.668091
38 0 1 0.610423 2.524701 41.375702
39 0 1 1.101564 1.903035 41.979797
40 0 1 0.657304 1.254111 41.312317
41 0 1 0.175495 0.437966 41.423584
42 0 1 0.775644 0.117611 40.747986
43 0 1 0.096244 -0.476909 40.995789
44 0 1 0.577705 -1.321168 41.354095
45 0 1 -0.266066 -1.319158 41.876709
46 0 1 -0.581086 -1.095329 42.823212
47 0 1 0.319164 -1.289789 42.749207
48 0 1 0.687644 -2.127569 42.969391
49 0 1 0.415304 -2.584770 43.805115
50 0 1 -0.157117 -1.850700 43.926392
51 0 1 -0.248147 -1.392330 44.762909
52 0 1 -0.721427 -2.127248 45.294403
53 0 1 -0.265746 -2.917490 45.372803
54 0 1 -1.023677 -2.882598 45.927795
55 0 1 -1.243037 -2.805509 46.831207
56 0 1 -2.137786 -3.105878 46.718811
57 0 1 -3.079406 -2.798950 46.711212
58 0 1 -3.685586 -2.090469 47.056610
59 0 1 -2.776746 -1.912939 47.374603
60 0 1 -2.977946 -1.610399 48.204895
61 0 1 -2.414805 -0.858240 48.126190
62 0 1 -2.574706 -0.934280 49.075409
63 0 1 -2.677106 -0.563459 49.976288
64 0 1 -3.278065 -1.242849 50.278015
65 0 1 -2.472497 -1.273220 50.824890
66 0 1 -2.776995 -0.344968 51.097290
67 0 1 -3.687516 -0.405710 50.892517
68 0 1 -4.582587 -0.131179 51.132507
69 0 1 -4.219786 0.588166 51.663391
70 0 1 -3.986026 0.679282 50.748901
71 0 1 -4.316426 1.608109 50.681610
72 0 1 -5.170905 2.021472 50.694214
73 0 1 -5.099656 1.913620 51.688599
74 0 1 -5.785216 2.563632 51.449707
75 0 1 -6.690966 2.354641 51.537109
76 0 1 -7.300156 2.086131 50.883911
77 0 1 -7.364455 1.212479 50.424591
78 0 1 -7.484057 1.836182 49.636108
79 0 1 -7.818255 2.754471 49.344208
80 0 1 -8.618857 2.273612 49.187592
81 0 1 -8.790557 1.356492 49.130005
82 0 1 -8.860057 1.586590 48.137207
83 0 1 -9.083957 1.227614 47.268402
84 0 1 -9.540755 2.081524 47.457489
85 0 1 -10.511558 2.364842 47.362488
86 0 1 -11.003657 1.532019 47.300903
87 0 1 -11.334657 0.681237 47.485687
88 0 1 -10.642056 0.515120 48.138611
89 0 1 -9.856156 0.574509 48.612396
90 0 1 -9.623157 0.198859 47.742004
91 0 1 -9.525657 -0.659158 48.397003
92 0 1 -9.741958 -1.290779 49.100800
93 0 1 -8.955356 -1.767608 48.766113
94 0 1 -8.454556 -2.528678 48.370483
95 0 1 -8.797256 -1.952878 47.584900
96 0 1 -9.718556 -2.161949 47.515503
97 0 1 -9.517556 -2.683059 46.732117
98 0 1 -9.564157 -2.456890 45.765015
99 0 1 -9.478755 -3.428360 45.907593
100 0 1 -9.514056 -4.395809 46.202606
101 0 1 -9.704856 -4.542188 45.262085
102 0 1 -8.971755 -5.146110 45.032013
103 0 1 -9.573657 -5.916149 45.103516
104 0 1 -9.900355 -6.279739 44.292206
105 0 1 -10.682157 -5.796520 44.439514
106 0 1 -11.524456 -5.744518 43.979095
107 0 1 -11.441356 -5.149898 44.719116
108 0 1 -11.022456 -4.472148 44.118286
109 0 1 -11.630756 -4.326339 43.354889
110 0 1 -11.460055 -3.327468 43.215302
111 0 1 -11.453856 -2.601120 42.606506
112 0 1 -10.810355 -1.856060 42.344208
113 0 1 -10.641656 -1.462669 41.485687
114 0 1 -11.574256 -1.210939 41.431000
115 0 1 -12.312356 -0.590688 41.484100
116 0 1 -11.493856 -0.104330 41.072693
117 0 1 -10.539956 -0.059999 41.276184
118 0 1 -9.699456 0.337300 41.519287
119 0 1 -9.274257 0.396513 42.381897
120 0 1 -8.786857 -0.368438 42.768799
121 0 1 -7.846255 -0.484769 42.502686
122 0 1 -7.193255 -1.035079 42.114014
123 0 1 -7.074156 -1.884208 42.578094
124 0 1 -6.718047 -2.371749 43.345490
125 0 1 -6.788947 -2.067049 44.284485
126 0 1 -7.564257 -2.646518 44.279694
127 0 1 -7.860356 -2.130128 45.023895
128 0 1 -7.744357 -1.317810 45.695892
129 0 1 -7.740355 -0.329879 45.554413
130 0 1 -8.048356 0.234789 46.282501
131 0 1 -7.069956 0.105711 46.156189
132 0 1 -7.062457 -0.006288 47.105011
133 0 1 -6.524806 -0.780349 47.298187
134 0 1 -5.838976 -1.437648 47.132294
135 0 1 -6.146155 -2.315498 47.131287
136 0 1 -5.113616 -2.160959 47.461914
137 0 1 -4.805285 -2.194959 48.457092
138 0 1 -4.950285 -1.554189 49.156403
139 0 1 -4.945696 -0.543310 49.087097
140 0 1 -4.878165 0.088952 49.812897
141 0 1 -5.798125 -0.119138 50.103394
142 0 1 -6.542956 0.281935 50.571198
143 0 1 -7.001256 -0.113868 49.835999
144 0 1 -6.697947 -0.871109 50.366302
145 0 1 -6.827437 -1.802059 50.072815
146 0 1 -7.319256 -2.626739 49.860199
147 0 1 -7.566157 -3.524950 49.661896
148 0 1 -7.648856 -4.369798 49.324402
149 0 1 -7.321356 -4.164459 48.408691
150 0 1 -6.656916 -4.734338 48.698486
151 0 1 -6.195626 -5.287729 47.977905
152 0 1 -6.784396 -5.706558 47.383789
153 0 1 -6.702786 -5.226528 46.498596
154 0 1 -5.943167 -4.763889 46.100494
155 0 1 -5.099036 -5.298669 45.996307
156 0 1 -5.417126 -5.910459 46.653290
157 0 1 -5.934195 -6.395389 45.968903
158 0 1 -6.293425 -7.308658 45.980103
159 0 1 -6.525927 -7.948629 45.342102
160 0 1 -7.218556 -7.281848 45.416901
161 0 1 -8.075156 -6.977558 45.199097
162 0 1 -7.938256 -6.081119 45.088196
163 0 1 -6.967886 -6.226678 45.071716
164 0 1 -6.775795 -5.232868 45.145813
165 0 1 -6.748965 -4.717929 44.272705
166 0 1 -5.836766 -5.040769 44.376495
167 0 1 -4.966616 -4.857620 44.626801
168 0 1 -4.792975 -4.580759 43.722687
169 0 1 -4.651465 -4.052679 42.977905
170 0 1 -4.167567 -4.467239 42.265991
171 0 1 -3.430247 -4.281719 42.943207
172 0 1 -3.884707 -4.042480 43.743500
173 0 1 -3.188857 -3.634140 44.272003
174 0 1 -3.154586 -4.024309 45.134705
175 0 1 -3.616637 -3.780550 45.951813
176 0 1 -4.321536 -4.243019 46.416199
177 0 1 -3.422375 -4.427688 46.718597
178 0 1 -3.335227 -5.364910 46.652710
179 0 1 -3.263066 -5.089599 47.590698
180 0 1 -3.487597 -5.931968 48.127594
181 0 1 -4.052145 -5.765779 48.962494
182 0 1 -4.305506 -5.083339 49.679901
183 0 1 -3.327437 -4.957368 49.468201
184 0 1 -2.732375 -4.894840 50.299805
185 0 1 -2.278336 -4.100278 50.157806
186 0 1 -1.687106 -3.951849 50.905701
187 0 1 -1.615746 -4.932569 50.796814
188 0 1 -1.052306 -5.800748 50.723694
189 0 1 -1.010356 -6.480730 51.412201
190 0 1 -1.595595 -6.973299 51.930206
191 0 1 -1.470816 -6.119449 52.494110
192 0 1 -1.951756 -6.040168 53.313904
193 0 1 -1.942687 -5.115509 53.179108
194 0 1 -1.359616 -4.430290 53.546600
195 0 1 -0.493386 -4.222778 53.871796
196 0 1 -0.382256 -3.459329 53.188293
197 0 1 0.410314 -3.566268 53.777405
198 0 1 1.251014 -3.509519 54.296509
199 0 1 1.713245 -3.225509 53.512299
200 0 1 2.026317 -3.162948 52.612000
201 0 1 2.660756 -2.487379 52.916809
202 0 1 2.971179 -2.048238 53.658112
203 0 1 3.681218 -1.873720 54.345093
204 0 1 3.647966 -1.095479 54.983887
205 0 1 4.540544 -1.073589 54.737701
206 0 1 4.941453 -1.918178 54.722687
207 0 1 5.521814 -1.877119 53.851013
208 0 1 5.253095 -2.709579 53.509705
209 0 1 4.992124 -3.003519 54.381989
210 0 1 5.251844 -3.761919 53.827209
211 0 1 5.664815 -4.638359 53.621704
212 0 1 5.333684 -4.826429 54.519104
213 0 1 5.753046 -4.213150 55.082794
214 0 1 5.794336 -5.125089 55.584595
215 0 1 5.914335 -5.597929 56.379517
216 0 1 6.800806 -5.645359 56.453705
217 0 1 7.335153 -6.386299 56.220490
218 0 1 8.188413 -5.909500 56.334717
219 0 1 8.134194 -5.286579 55.533203
220 0 1 9.040692 -5.519279 55.714417
221 0 1 9.845975 -5.580219 56.296295
222 0 1 10.560014 -5.628358 55.712189
223 0 1 10.609674 -4.623310 55.633484
224 0 1 11.121243 -4.165569 54.959595
225 0 1 11.688703 -5.007989 54.889404
226 0 1 11.864663 -5.701669 54.191010
227 0 1 11.142224 -5.762208 53.526306
228 0 1 10.589993 -5.061470 53.115112
229 0 1 9.940125 -5.231060 53.913605
230 0 1 9.542012 -4.468938 53.413605
231 0 1 8.946832 -5.174808 53.497009
232 0 1 8.186654 -4.839689 53.003906
233 0 1 8.319566 -3.954959 52.549316
234 0 1 8.344163 -4.381969 51.692017
235 0 1 7.675745 -5.116748 51.596100
236 0 1 8.265473 -5.934860 51.482391
237 0 1 8.624112 -6.003089 50.576202
238 0 1 8.279244 -6.219129 49.678284
239 0 1 8.808763 -6.106349 48.936401
240 0 1 8.164865 -5.505359 48.570007
241 0 1 8.619752 -5.174148 47.770386
242 0 1 8.959462 -5.771369 47.118713
243 0 1 8.468984 -6.600709 47.514313
244 0 1 8.519082 -6.759569 46.549408
245 0 1 7.699213 -6.214489 46.356903
246 0 1 6.976816 -6.642398 46.915192
247 0 1 6.364793 -7.373550 47.008911
248 0 1 5.716215 -7.525238 47.632507
249 0 1 5.159284 -8.213980 47.222809
250 0 1 4.888853 -9.101410 47.022217
251 0 1 4.214254 -9.493908 47.536591
252 0 1 3.453477 -9.266109 48.216187
253 0 1 3.970969 -9.350609 49.015900
254 0 1 3.194387 -9.475809 49.586792
255 0 1 2.847875 -10.310209 49.191101
256 0 1 3.392602 -10.535610 49.959717
257 0 1 3.333350 -11.304008 49.424805
258 0 1 3.991107 -11.826710 49.901611
259 0 1 3.357045 -12.729010 49.922485
260 0 1 2.615739 -13.273209 49.546112
261 0 1 2.295297 -12.990709 48.603516
262 0 1 2.645751 -13.507910 47.903809
263 0 1 2.091199 -12.987209 47.178406
264 0 1 2.785304 -13.219009 46.582397
265 0 1 2.918834 -12.818310 45.672913
266 0 1 2.548820 -12.359108 44.885010
267 0 1 2.132600 -12.450310 44.036194
268 0 1 1.751884 -13.336109 43.995911
269 0 1 2.653163 -13.502210 44.267700
270 0 1 3.013774 -13.888909 45.235809
271 0 1 3.202647 -14.760509 44.938293
272 0 1 2.641092 -15.361710 45.374512
273 0 1 2.928754 -15.930408 44.660095
274 0 1 3.052324 -16.752209 45.107605
275 0 1 3.078597 -16.986710 44.168610
276 0 1 3.940728 -17.417009 44.272797
277 0 1 4.477764 -18.261909 44.296997
278 0 1 5.305955 -18.680109 44.168701
279 0 1 6.148042 -18.325008 43.882904
280 0 1 5.897905 -17.360209 43.892395
281 0 1 4.998933 -16.966009 43.988495
282 0 1 5.163805 -16.196009 43.282806
283 0 1 5.248983 -17.041510 42.798401
284 0 1 4.640024 -16.851410 42.068390
285 0 1 5.217943 -16.352810 41.460083
286 0 1 5.967412 -16.384708 40.873413
287 0 1 5.885023 -17.271210 40.594788
288 0 1 6.451253 -18.133610 40.672913
289 0 1 6.878545 -18.785210 40.142517
290 0 1 6.586416 -18.329910 39.324310
291 0 1 6.329343 -17.706009 38.620605
292 0 1 6.944063 -17.535309 37.891602
293 0 1 6.829584 -18.471609 38.195984
294 0 1 6.701303 -19.375710 38.388000
295 0 1 6.743852 -19.443110 37.380402
296 0 1 7.366994 -19.412209 36.623413
297 0 1 7.090963 -18.868210 35.862701
298 0 1 7.070154 -19.099510 34.937897
299 0 1 6.387056 -19.772209 34.706696
300 0 1 5.595415 -20.302809 34.853210
301 0 1 5.376474 -19.701210 34.143890
302 0 1 4.462524 -19.772509 34.302795
303 0 1 3.704684 -19.611010 33.755707
304 0 1 3.159553 -20.264910 34.163513
305 0 1 2.268089 -20.484409 34.336914
306 0 1 2.712083 -21.308409 34.595612
307 0 1 1.956064 -21.323709 35.232605
308 0 1 1.067153 -21.605509 35.217407
309 0 1 0.269014 -21.345310 34.795990
310 0 1 0.253703 -22.202709 35.269287
311 0 1 -0.637866 -22.251610 34.930115
312 0 1 -1.562337 -22.393110 34.935211
313 0 1 -1.600016 -21.780609 35.651611
314 0 1 -1.663645 -21.016710 36.204803
315 0 1 -1.751336 -20.415009 36.965302
316 0 1 -2.440856 -19.937309 37.432892
317 0 1 -2.945225 -19.237709 37.084503
318 0 1 -3.607825 -19.934010 37.152313
319 0 1 -4.181315 -20.822109 37.169708
320 0 1 -4.600825 -20.106510 37.748993
321 0 1 -5.554446 -20.061008 37.642517
322 0 1 -6.210896 -19.861109 36.942688
323 0 1 -6.463116 -20.488008 36.290802
324 0 1 -7.389555 -20.584610 36.568909
325 0 1 -7.713156 -20.721609 37.400787
326 0 1 -7.840956 -20.801710 38.369293
327 0 1 -8.574756 -20.796509 38.968689
328 0 1 -9.008157 -20.142609 39.532196
329 0 1 -8.297957 -19.565809 39.152191
330 0 1 -7.935256 -18.898510 39.760193
331 0 1 -8.330956 -18.481209 40.495087
332 0 1 -8.109157 -17.724510 41.089905
333 0 1 -7.536555 -17.466110 41.834290
334 0 1 -7.608557 -17.749409 42.752502
335 0 1 -7.748557 -17.823809 43.687592
336 0 1 -8.250857 -18.615709 43.818512
337 0 1 -8.198056 -19.609009 43.820312
338 0 1 -7.383156 -20.082109 43.823792
339 0 1 -6.863467 -20.763710 44.272400
340 0 1 -5.894476 -20.671209 44.412689
341 0 1 -4.928216 -20.557009 44.489197
342 0 1 -3.881837 -20.356909 44.309296
343 0 1 -3.911116 -21.278509 44.156708
344 0 1 -4.055066 -22.127409 44.586304
345 0 1 -4.362727 -22.827410 45.151093
346 0 1 -3.460076 -22.633709 45.174500
347 0 1 -2.801387 -23.140509 45.560608
348 0 1 -1.984986 -23.056410 46.166504
349 0 1 -1.385485 -22.668610 46.785706
350 0 1 -0.932665 -22.671309 45.916595
351 0 1 -0.885066 -22.127409 45.054413
352 0 1 -1.303616 -21.426010 45.635101
353 0 1 -1.194056 -20.634609 46.144104
354 0 1 -0.450236 -20.757010 45.599915
355 0 1 -0.517275 -19.777409 45.334106
356 0 1 -0.852717 -18.853409 45.363800
357 0 1 -0.522545 -18.605110 46.288696
358 0 1 -0.639645 -17.853809 46.910187
359 0 1 -1.218426 -18.376009 47.437897
360 0 1 -1.159756 -17.693110 48.154602
361 0 1 -1.081557 -16.809509 47.767792
362 0 1 -0.862586 -15.867809 47.831512
363 0 1 -0.416266 -14.997610 47.945312
364 0 1 -1.045497 -14.673009 47.257111
365 0 1 -0.682397 -13.796410 47.032898
366 0 1 -0.395566 -13.529010 47.927399
367 0 1 -0.468877 -14.076509 48.703796
368 0 1 -1.328036 -13.957310 49.158112
369 0 1 -1.553897 -13.504410 48.351410
370 0 1 -1.146725 -12.799910 48.832001
371 0 1 -0.864827 -12.870010 49.738892
372 0 1 -0.635787 -11.937010 49.808716
373 0 1 -1.416485 -11.382111 49.661591
374 0 1 -1.981366 -10.986710 48.957306
375 0 1 -2.750926 -11.353508 49.375092
376 0 1 -2.965127 -10.891209 48.546692
377 0 1 -2.732367 -10.081709 48.010803
378 0 1 -2.326396 -9.190310 48.091705
379 0 1 -3.197387 -8.837309 48.119507
380 0 1 -3.096575 -7.962459 47.700104
381 0 1 -2.200785 -7.853059 47.505096
382 0 1 -2.698315 -7.372230 46.840515
383 0 1 -1.956607 -7.550788 46.213593
384 0 1 -2.676686 -7.438720 45.427887
385 0 1 -3.271996 -8.174740 44.928192
386 0 1 -3.888957 -8.814720 44.644501
387 0 1 -3.922116 -8.186588 43.920502
388 0 1 -3.658147 -9.073009 43.472290
389 0 1 -4.197325 -9.676208 43.878784
390 0 1 -4.445616 -10.564209 43.601410
391 0 1 -4.847506 -10.032310 42.857117
392 0 1 -5.009497 -9.067410 42.901093
393 0 1 -5.684077 -8.337629 42.662109
394 0 1 -5.410727 -8.416618 41.739899
395 0 1 -5.490006 -9.030609 41.021210
396 0 1 -6.401545 -9.290508 40.617401
397 0 1 -6.605376 -9.933208 41.298706
398 0 1 -7.540957 -10.002110 41.249817
399 0 1 -7.948056 -9.274809 40.755707
400 0 1 -7.876956 -8.856171 39.836487
401 0 1 -8.635257 -8.343809 39.477417
402 0 1 -9.541057 -8.556089 39.407288
403 0 1 -10.403956 -8.356810 39.806488
404 0 1 -11.301955 -8.757130 39.965393
405 0 1 -10.832156 -9.011608 40.785187
406 0 1 -11.182857 -8.954809 41.632996
407 0 1 -11.617056 -9.750610 41.352112
408 0 1 -12.547956 -9.594509 41.124084
409 0 1 -12.292656 -8.736118 41.469208
410 0 1 -12.830956 -8.373980 42.251190
411 0 1 -12.630056 -8.935009 43.037109
412 0 1 -11.818956 -8.745649 42.476410
413 0 1 -11.780856 -7.769920 42.619110
414 0 1 -12.440156 -7.723178 43.407196
415 0 1 -13.328256 -7.994998 43.115692
416 0 1 -13.672757 -8.710619 43.529114
417 0 1 -14.433156 -8.704769 44.053589
418 0 1 -14.010856 -8.056799 44.646606
419 0 1 -14.116357 -7.890598 45.554993
420 0 1 -13.880857 -8.063549 46.511292
421 0 1 -14.447156 -8.850960 46.707214
422 0 1 -14.016656 -9.505711 46.139587
423 0 1 -13.965957 -10.389408 45.811890
424 0 1 -14.313355 -10.977711 46.548096
425 0 1 -13.889855 -11.013510 47.397491
426 0 1 -14.145257 -10.055109 47.548096
427 0 1 -14.530456 -9.598110 48.316803
428 0 1 -15.142957 -9.555510 48.985107
429 0 1 -14.962157 -10.185509 49.636810
430 0 1 -15.797256 -9.946209 50.068115
431 0 1 -16.128456 -10.266708 50.870392
432 0 1 -15.698457 -11.131109 50.700012
433 0 1 -16.661255 -11.365509 50.730988
434 0 1 -17.429155 -11.136810 51.243286
435 0 1 -18.288256 -10.834009 50.875305
436 0 1 -18.812956 -11.049110 51.755402
437 0 1 -18.682156 -10.778910 52.655884
438 0 1 -19.542856 -10.539410 53.049988
439 0 1 -19.710855 -9.586309 52.878113
440 0 1 -19.425455 -9.230610 52.040894
441 0 1 -19.672855 -8.200079 51.974304
442 0 1 -19.953556 -8.093590 51.093811
443 0 1 -19.913656 -7.178348 51.318695
444 0 1 -20.121256 -6.528789 50.622192
445 0 1 -20.512556 -5.688489 50.898193
446 0 1 -19.743355 -5.111499 50.790009
447 0 1 -20.080256 -4.548439 50.085510
448 0 1 -19.643156 -4.392238 49.252106
449 0 1 -19.701756 -5.223579 48.739685
450 0 1 -19.785856 -4.581789 48.048096
451 0 1 -20.759455 -4.508529 47.961304
452 0 1 -20.804556 -5.253889 47.371307
453 0 1 -21.343155 -5.562038 46.672211
454 0 1 -20.398855 -5.177759 46.360596
455 0 1 -21.072155 -5.022110 45.665588
456 0 1 -20.886255 -4.123209 45.420105
457 0 1 -20.389956 -3.880908 44.546387
458 0 1 -20.954355 -4.389568 43.915405
459 0 1 -21.514555 -4.425640 43.128601
460 0 1 -21.242556 -3.402050 43.263092
461 0 1 -21.978956 -2.860729 43.056885
462 0 1 -21.764555 -2.144619 42.442596
463 0 1 -20.989956 -1.735260 41.986694
464 0 1 -20.443254 -1.944299 42.741913
465 0 1 -20.409956 -1.093469 43.197815
466 0 1 -20.512356 -0.053520 42.997803
467 0 1 -20.807856 -0.299478 42.126404
468 0 1 -21.510256 0.197567 41.630707
469 0 1 -21.864855 -0.567110 41.119507
470 0 1 -22.376554 -1.210498 41.522705
471 0 1 -22.044455 -1.552179 40.626587
472 0 1 -22.604755 -0.951158 40.109589
473 0 1 -23.223955 -1.290920 39.491699
474 0 1 -23.504055 -2.244758 39.441498
475 0 1 -22.714355 -2.718139 39.055695
476 0 1 -21.763155 -2.773839 39.307007
477 0 1 -21.968155 -3.199049 38.470795
478 0 1 -22.654655 -3.796579 38.294312
479 0 1 -22.808155 -3.966438 37.341400
480 0 1 -22.398056 -4.617858 36.826904
481 0 1 -22.579855 -4.392910 35.916016
482 0 1 -21.962156 -3.806379 36.205017
483 0 1 -22.844656 -3.412618 36.163696
484 0 1 -22.383055 -2.618049 36.476196
485 0 1 -22.873955 -2.371749 35.556610
486 0 1 -22.205156 -1.755298 35.275391
487 0 1 -22.426355 -0.848548 35.439697
488 0 1 -22.384954 -0.691879 34.485504
489 0 1 -22.406855 -1.199390 33.571503
490 0 1 -22.622656 -1.573989 32.678009
491 0 1 -21.824356 -2.133789 32.559204
492 0 1 -20.963156 -2.529079 32.453308
493 0 1 -20.491255 -2.089738 33.150085
494 0 1 -19.529556 -2.187589 33.165588
495 0 1 -18.859156 -2.567098 32.560394
496 0 1 -18.262255 -3.253229 32.947205
497 0 1 -17.511354 -2.655359 33.006714
498 0 1 -16.558855 -2.795949 32.863007
499 0 1 -15.662257 -2.623498 33.184296
500 0 1 -15.635556 -2.562999 32.208984
501 0 1 -14.720456 -2.269208 32.265198
502 0 1 -14.361156 -2.477178 33.101990
503 0 1 -13.700856 -2.830968 32.477905
504 0 1 -12.986156 -3.482990 32.601105
505 0 1 -12.262056 -2.933469 32.226898
506 0 1 -12.548356 -2.972000 31.310303
507 0 1 -13.095056 -2.181409 31.161499
508 0 1 -13.138556 -1.622530 31.960999
509 0 1 -12.838157 -0.784269 32.409912
510 0 1 -11.893056 -0.888849 32.654297
511 0 1 -11.741157 -0.557748 31.705811
512 0 1 -12.207557 -0.214279 30.870514
513 0 1 -13.009955 -0.348148 30.484802
514 0 1 -12.813256 -0.498100 29.579712
515 0 1 -13.708556 -0.038938 29.567993
516 0 1 -13.057357 0.425168 29.049011
517 0 1 -13.481656 0.539561 28.191986
518 0 1 -14.349156 0.383698 28.602295
519 0 1 -14.496057 -0.360189 28.047211
520 0 1 -14.377757 -0.545559 27.078003
521 0 1 -13.888757 -0.154798 26.417694
522 0 1 -14.770656 -0.387069 25.996796
523 0 1 -15.698956 -0.407249 26.269806
524 0 1 -16.220856 0.349139 26.601288
525 0 1 -16.725155 1.147479 26.671692
526 0 1 -16.843056 2.083367 26.967194
527 0 1 -16.009855 1.952321 27.362213
528 0 1 -15.238156 2.101864 27.975403
529 0 1 -15.564256 2.998921 27.817688
530 0 1 -16.521755 3.208260 27.768402
531 0 1 -15.931756 4.058602 27.782501
532 0 1 -16.459955 4.602490 28.363586
533 0 1 -15.557755 4.902691 28.392212
534 0 1 -14.912656 4.709351 27.671112
535 0 1 -14.457656 5.190583 28.382294
536 0 1 -14.668956 6.061371 28.679016
537 0 1 -14.859357 6.265210 27.730194
538 0 1 -14.804955 6.599820 26.854797
539 0 1 -14.282956 7.253991 26.300903
540 0 1 -13.809257 6.617123 25.724792
541 0 1 -14.611156 6.296990 25.318390
542 0 1 -14.995156 5.621071 24.718903
543 0 1 -14.697957 5.172970 23.898712
544 0 1 -13.807956 5.003743 23.640808
545 0 1 -13.288657 4.225522 23.561188
546 0 1 -12.468856 4.647942 23.536011
547 0 1 -11.906556 4.992611 24.241608
548 0 1 -11.281056 4.967530 25.019806
549 0 1 -10.621556 4.595780 25.544006
550 0 1 -9.814757 4.495511 25.892395
551 0 1 -9.393056 4.338341 25.069214
552 0 1 -8.929057 3.575921 25.395386
553 0 1 -8.091456 3.178341 25.166199
554 0 1 -7.320155 3.683091 25.337585
555 0 1 -6.659205 3.051541 25.104187
556 0 1 -6.353365 2.617951 25.960999
557 0 1 -5.706946 3.172383 26.442596
558 0 1 -5.450116 3.199772 25.496613
559 0 1 -4.635966 3.731492 25.107208
560 0 1 -4.145476 3.115162 24.533508
561 0 1 -3.161517 2.856900 24.561493
562 0 1 -2.345755 2.567622 24.915314
563 0 1 -1.566115 3.084919 24.806305
564 0 1 -2.179126 3.813702 24.420197
565 0 1 -1.714976 4.045800 23.639709
566 0 1 -2.685096 4.352360 23.236389
567 0 1 -2.186625 5.075253 23.663788
568 0 1 -1.376816 5.066830 23.159210
569 0 1 -0.572245 5.611180 23.159088
570 0 1 -1.260296 6.322510 23.209991
571 0 1 -1.689665 7.167740 22.985504
572 0 1 -1.898726 7.974812 23.474701
573 0 1 -1.277655 8.343533 24.112793
574 0 1 -0.446517 7.892190 24.068909
575 0 1 -0.111235 8.102531 23.215607
576 0 1 0.416154 7.697163 22.556610
577 0 1 1.299375 7.789971 22.030197
578 0 1 1.450504 7.131600 22.685699
579 0 1 2.124240 7.012440 21.950500
580 0 1 2.252280 6.692791 21.011398
581 0 1 1.851465 7.468842 20.647095
582 0 1 2.052354 7.193142 19.765106
583 0 1 1.159444 7.518933 19.610504
584 0 1 0.809934 6.772351 19.035706
585 0 1 1.045974 5.962231 19.390396
586 0 1 0.391075 5.374642 19.883194
587 0 1 0.865083 4.956852 19.195007
588 0 1 0.881435 4.988720 18.193695
589 0 1 0.832923 5.562661 17.401093
590 0 1 1.637655 5.437180 16.955704
591 0 1 2.025504 4.860180 16.283508
592 0 1 1.951074 5.616780 15.657104
593 0 1 2.527520 5.530503 14.853393
594 0 1 3.311321 5.237233 15.349395
595 0 1 3.635858 5.215291 16.307800
596 0 1 3.676942 4.789242 17.170593
597 0 1 4.483715 4.418690 16.840302
598 0 1 4.345563 4.038319 17.708008
599 0 1 4.772623 4.813550 17.937897
600 0 1 5.735815 4.527661 18.020905
601 0 1 6.255853 5.318161 18.312103
602 0 1 5.481996 5.864220 18.450104
603 0 1 4.879236 5.652661 19.139801
604 0 1 5.348783 5.436432 20.000900
605 0 1 4.499235 5.397461 20.444199
606 0 1 4.739496 4.779282 21.118195
607 0 1 5.118555 3.956723 21.666397
608 0 1 5.026254 3.849923 20.712799
609 0 1 4.956453 3.217541 19.957504
610 0 1 4.129135 2.916890 19.812500
611 0 1 4.576433 2.137475 19.697006
612 0 1 4.894926 1.933926 18.806793
613 0 1 5.809743 2.188601 18.620605
614 0 1 6.092145 2.396271 17.693100
615 0 1 6.814935 1.743050 17.615997
616 0 1 6.852544 1.423462 18.522308
617 0 1 7.771844 1.750718 18.199295
618 0 1 7.892816 1.790339 19.140503
619 0 1 8.465302 1.045023 18.876297
620 0 1 8.987355 1.019175 18.114594
621 0 1 9.140744 0.871695 17.171402
622 0 1 9.945424 1.006253 17.593704
623 0 1 10.778424 1.544283 17.639297
624 0 1 11.030385 0.876179 18.340698
625 0 1 11.805654 1.331213 18.120499
626 0 1 12.343034 1.889594 17.536102
627 0 1 12.784184 2.097331 16.653503
628 0 1 13.309342 2.703991 17.183594
629 0 1 14.039144 2.814011 16.567505
630 0 1 14.615342 2.176812 16.235001
631 0 1 15.226743 2.865460 15.955596
632 0 1 16.010546 3.033181 16.538300
633 0 1 16.803843 2.605160 16.134598
634 0 1 17.191244 1.751605 16.005997
635 0 1 16.594843 1.197232 15.602294
636 0 1 15.779344 1.180123 16.133698
637 0 1 16.583445 0.811228 16.558594
638 0 1 15.810845 0.510840 16.929108
639 0 1 14.773843 0.527007 17.041702
640 0 1 14.929345 -0.435190 16.829605
641 0 1 15.679643 -0.987669 16.853302
642 0 1 16.527246 -1.205709 17.205200
643 0 1 17.215647 -1.285999 17.905197
644 0 1 16.965647 -0.421279 18.245895
645 0 1 17.526945 0.385291 18.468597
646 0 1 18.071245 0.486086 19.257706
647 0 1 18.467844 -0.046379 19.997803
648 0 1 18.598246 0.926249 20.207901
649 0 1 17.600546 0.870034 20.193100
650 0 1 16.739843 1.382838 20.352203
651 0 1 15.987943 1.335814 19.728699
652 0 1 15.780244 0.555350 19.296494
653 0 1 15.131143 0.667901 19.938995
654 0 1 14.934442 1.490410 19.565094
655 0 1 15.435342 1.832451 18.850998
656 0 1 15.942143 2.589331 19.156906
657 0 1 16.162844 3.505082 19.191193
658 0 1 16.279543 4.237702 18.623108
659 0 1 15.428243 4.630032 18.481995
660 0 1 15.574445 5.010361 19.368698
661 0 1 15.278642 5.418801 20.194702
662 0 1 14.536244 5.233880 20.807892
663 0 1 15.136643 4.884102 21.553604
664 0 1 14.466645 4.336071 21.229095
665 0 1 14.025544 4.032231 22.027405
666 0 1 13.472844 3.411622 21.421402
667 0 1 14.088845 2.871960 20.910599
668 0 1 14.713342 2.185002 20.686707
669 0 1 14.874143 1.616454 21.453003
670 0 1 14.546945 0.969893 22.178497
671 0 1 14.658643 1.361992 23.026886
672 0 1 14.430142 2.152371 23.512695
673 0 1 14.174844 2.375632 22.625793
674 0 1 13.349744 2.013386 22.924011
675 0 1 13.000985 1.812453 23.778015
676 0 1 13.319043 1.572968 24.627991
677 0 1 12.729653 2.125596 25.095093
678 0 1 13.039945 1.522864 25.791901
679 0 1 12.213063 1.886158 26.232300
680 0 1 12.566403 1.222867 26.825287
681 0 1 11.829202 0.987883 27.299591
682 0 1 11.225823 0.279206 26.837311
683 0 1 11.546632 -0.630560 27.081787
684 0 1 10.937783 -0.555910 27.869690
685 0 1 10.070874 -0.894088 27.714386
686 0 1 9.536653 -1.804729 27.820099
687 0 1 10.258115 -2.173818 28.355194
688 0 1 9.527204 -1.708210 28.808105
689 0 1 8.894914 -2.017629 29.510010
690 0 1 9.834973 -2.422880 29.480194
691 0 1 10.211373 -1.526788 29.552795
692 0 1 9.887063 -0.577669 29.521301
693 0 1 8.995515 -0.789339 29.417999
694 0 1 8.226285 -0.443618 28.936310
695 0 1 7.953973 -0.643280 28.021912
696 0 1 7.475954 0.126872 28.427887
697 0 1 7.168314 0.731684 29.183411
698 0 1 7.243272 0.324757 30.025787
699 0 1 7.987134 -0.036329 30.489105
700 0 1 7.852426 0.639096 31.243805
701 0 1 7.179895 -0.096050 31.376892
702 0 1 7.479776 -0.595169 32.191498
703 0 1 7.788255 -1.463109 32.091888
704 0 1 8.221215 -2.359949 32.079010
705 0 1 7.298265 -2.561368 32.466003
706 0 1 7.026495 -3.404800 32.749298
707 0 1 7.080896 -4.349418 32.982300
708 0 1 6.394094 -4.119039 32.265015
709 0 1 5.770643 -3.594558 32.708893
710 0 1 5.467134 -3.306638 33.546295
711 0 1 4.742643 -2.760808 33.934998
712 0 1 5.272844 -3.368408 34.517517
713 0 1 5.069414 -3.338329 35.466797
714 0 1 5.297235 -2.417789 35.537109
715 0 1 4.518606 -2.526218 36.013611
716 0 1 4.334295 -2.407400 36.926605
717 0 1 4.569482 -1.718019 37.538391
718 0 1 4.296215 -1.646839 38.531006
719 0 1 3.791003 -1.905969 39.309814
720 0 1 4.482885 -2.452989 39.663086
721 0 1 5.378576 -2.347530 39.199005
722 0 1 4.993536 -1.548608 39.569397
723 0 1 5.791086 -1.821298 39.956787
724 0 1 5.932806 -2.811389 40.164703
725 0 1 6.555685 -2.506179 39.517395
726 0 1 6.307226 -2.331480 38.634613
727 0 1 7.200273 -2.553678 38.503204
728 0 1 7.534853 -1.648599 38.745209
729 0 1 7.808122 -1.695888 37.871002
730 0 1 7.537714 -1.254138 37.009216
731 0 1 7.035455 -1.963230 36.611206
732 0 1 7.957304 -2.129419 36.860687
733 0 1 8.048184 -1.965700 35.961487
734 0 1 8.284684 -2.634960 35.279785
735 0 1 8.148202 -3.557819 35.271301
736 0 1 7.234884 -3.479429 35.543610
737 0 1 6.927194 -2.799839 34.984589
738 0 1 6.949075 -1.878540 34.770294
739 0 1 7.408063 -1.045909 34.626709
740 0 1 7.750413 -0.729929 35.454407
741 0 1 8.457826 -0.278530 34.965912
742 0 1 8.881925 0.280709 35.559998
743 0 1 8.795255 1.206564 35.703888
744 0 1 8.166795 1.603581 36.306702
745 0 1 7.312265 2.096058 36.392212
746 0 1 6.892095 2.830151 35.973206
747 0 1 6.047224 3.187642 36.230286
748 0 1 6.076192 4.063191 36.800903
749 0 1 6.947553 4.577130 36.688293
750 0 1 7.066366 3.939221 37.385101
751 0 1 6.768125 3.649052 38.268494
752 0 1 6.094675 4.309929 38.015411
753 0 1 5.576173 4.878560 37.366913
754 0 1 5.464475 5.453461 36.603912
755 0 1 4.798852 6.126080 36.546387
756 0 1 4.742094 7.085232 36.389191
757 0 1 4.867834 8.012691 36.539703
758 0 1 4.435625 8.621281 36.035400
759 0 1 3.961154 9.073231 36.705200
760 0 1 3.307510 9.299931 37.314392
761 0 1 3.249515 8.396229 37.650909
762 0 1 3.341167 7.478131 37.278412
763 0 1 3.157226 7.842572 36.396088
764 0 1 2.611169 8.268932 35.707306
765 0 1 3.455020 8.538563 35.560303
766 0 1 3.343555 7.834309 34.967194
767 0 1 2.509479 7.386860 35.248108
768 0 1 2.446054 6.367600 35.067596
769 0 1 1.765174 6.382000 35.849915
770 0 1 0.841354 6.158001 35.994812
771 0 1 0.098634 6.730412 36.451202
772 0 1 -0.221217 6.151471 35.727905
773 0 1 -0.527396 5.880299 34.873596
774 0 1 -1.404967 5.725819 34.556702
775 0 1 -2.232735 5.222012 34.372986
776 0 1 -2.527486 4.492623 34.948212
777 0 1 -1.746615 3.968743 35.023987
778 0 1 -2.422477 3.341492 34.770813
779 0 1 -3.275616 2.906453 34.927887
780 0 1 -2.806636 2.260802 34.475311
781 0 1 -3.180707 2.565451 33.630310
782 0 1 -3.722556 1.754651 33.725189
783 0 1 -4.475956 1.650851 34.345703
784 0 1 -4.618416 2.679112 34.345612
785 0 1 -5.311026 2.641991 33.636688
786 0 1 -5.472006 3.226620 34.392303
787 0 1 -5.205405 4.203221 34.344513
788 0 1 -5.855166 4.802552 33.952087
789 0 1 -6.500546 4.492131 33.162903