LAMMPS data file via MDAnalysis

        2000  atoms
        1999  bonds
           0  angles
           0  dihedrals
           0  impropers

           1  atom types
           1  bond types
           0  angle types
           0  dihedral types
           0  improper types

-30.5 30.5 xlo xhi
-30.5 30.5 ylo yhi
-233.5 233.5 zlo zhi


Masses

1 1.000000

Atoms

1 0 1 -1.288478 7.165070 60.072998
2 0 1 -1.024167 6.294472 59.781616
3 0 1 -1.275579 5.815491 60.570587
4 0 1 -0.627258 5.810802 61.302399
5 0 1 0.024213 5.180882 61.688599
6 0 1 0.918563 5.376091 61.925598
7 0 1 0.956851 6.125561 62.498199
8 0 1 1.626792 5.526562 62.747101
9 0 1 2.583293 5.589470 62.947998
10 0 1 2.730881 6.139690 63.707397
11 0 1 3.514197 6.314301 64.235107
12 0 1 3.845160 7.236000 64.307404
13 0 1 3.232560 7.938492 64.602203
14 0 1 2.407222 7.978264 64.937897
15 0 1 2.646012 7.645470 65.771606
16 0 1 2.671372 8.314293 66.573914
17 0 1 1.978732 8.651581 66.034912
18 0 1 2.856692 9.106083 65.967407
19 0 1 3.622918 9.648712 66.366394
20 0 1 3.826977 10.140781 65.564514
21 0 1 4.668919 10.511681 65.958618
22 0 1 5.499411 11.066582 66.323608
23 0 1 6.272662 11.553982 66.570709
24 0 1 5.648470 12.203079 66.216705
25 0 1 5.779463 13.054382 66.636414
26 0 1 5.714850 13.516582 65.791107
27 0 1 5.796740 14.396080 66.127197
28 0 1 6.670840 14.743683 66.144409
29 0 1 6.659701 15.611782 66.565399
30 0 1 6.028731 16.342781 66.511292
31 0 1 5.446383 16.237183 65.703003
32 0 1 5.043942 16.463783 64.891205
33 0 1 5.225581 16.859081 63.916901
34 0 1 4.395062 16.708183 63.585510
35 0 1 4.453721 16.869980 62.602600
36 0 1 4.815426 16.381981 61.864502
37 0 1 5.381472 16.794682 61.194489
38 0 1 5.778723 16.000282 61.623505
39 0 1 5.635531 15.088081 61.250000
40 0 1 6.126261 15.648983 60.672394
41 0 1 6.608050 15.016781 60.040710
42 0 1 6.161322 14.397282 59.504395
43 0 1 6.615691 13.639782 59.958710
44 0 1 5.781813 13.840881 60.522491
45 0 1 5.246962 13.079880 60.751190
46 0 1 4.617379 13.434681 61.406494
47 0 1 4.150181 13.170483 60.577515
48 0 1 3.500827 13.618881 61.102600
49 0 1 2.918206 13.041580 61.601410
50 0 1 2.087962 12.834579 60.988312
51 0 1 2.591292 12.104584 61.308105
52 0 1 3.079627 12.009083 62.210388
53 0 1 3.811539 11.418381 61.945312
54 0 1 4.416665 11.294983 62.603302
55 0 1 3.553693 11.281780 63.088806
56 0 1 3.967950 10.420780 63.131195
57 0 1 3.116524 10.013481 63.295990
58 0 1 2.480502 9.600651 62.717407
59 0 1 1.572772 9.321232 62.798798
60 0 1 1.119382 8.539482 62.580902
61 0 1 0.155661 8.726120 62.778503
62 0 1 -0.656247 8.680740 62.314087
63 0 1 -1.096139 7.895412 62.065887
64 0 1 -1.812268 8.503681 62.252686
65 0 1 -2.197858 7.641392 62.136688
66 0 1 -2.252479 7.323971 61.235809
67 0 1 -2.508338 7.133030 60.320496
68 0 1 -2.060727 6.249611 60.164307
69 0 1 -2.790649 6.185482 60.842712
70 0 1 -3.530048 5.776333 60.357910
71 0 1 -3.976819 6.555500 60.716003
72 0 1 -4.918209 6.707542 61.021393
73 0 1 -5.565507 7.374172 61.322601
74 0 1 -5.539209 7.181183 62.300903
75 0 1 -6.037069 7.635342 63.042389
76 0 1 -5.853168 7.194462 63.891296
77 0 1 -5.976469 7.878990 64.524292
78 0 1 -5.403348 7.485882 65.222595
79 0 1 -4.517728 7.860580 65.036316
80 0 1 -4.333498 8.038692 65.932312
81 0 1 -3.915918 7.198952 65.937500
82 0 1 -4.384099 6.670532 66.753296
83 0 1 -4.442869 7.396481 67.444000
84 0 1 -4.622167 7.055023 68.298401
85 0 1 -4.521339 6.157642 68.643005
86 0 1 -3.929488 5.881493 69.351501
87 0 1 -4.230398 5.772373 70.335510
88 0 1 -5.087938 5.312202 70.391998
89 0 1 -5.910259 5.764061 70.191711
90 0 1 -6.289388 6.611401 70.261719
91 0 1 -5.523637 6.409061 70.896912
92 0 1 -4.628349 6.806732 70.749207
93 0 1 -4.129659 6.249050 71.441284
94 0 1 -3.884979 7.137451 71.463318
95 0 1 -4.031568 7.957790 71.014099
96 0 1 -4.315137 8.047340 70.089783
97 0 1 -4.025239 8.833580 69.692993
98 0 1 -3.266649 9.432190 69.763184
99 0 1 -2.615539 10.158581 69.947693
100 0 1 -2.119687 10.973579 70.075989
101 0 1 -2.845357 11.506283 69.777405
102 0 1 -3.121209 11.164780 68.959290
103 0 1 -2.434869 10.779282 68.407898
104 0 1 -1.629148 10.258781 68.065796
105 0 1 -2.143928 9.549492 68.460510
106 0 1 -1.379518 9.078979 68.200317
107 0 1 -1.594138 8.270622 67.703613
108 0 1 -2.231368 7.601871 67.622711
109 0 1 -2.679689 8.042343 68.311707
110 0 1 -3.047559 7.179173 68.599182
111 0 1 -2.255319 7.326820 69.169495
112 0 1 -1.716878 8.090141 69.463104
113 0 1 -2.406247 7.913963 70.146606
114 0 1 -2.014468 8.699581 70.515106
115 0 1 -1.449109 9.090363 69.806091
116 0 1 -0.710529 8.796871 69.208099
117 0 1 -0.041288 8.051762 69.087585
118 0 1 -0.530948 7.443211 68.664795
119 0 1 0.131041 6.849712 68.338898
120 0 1 0.192841 6.923210 67.388397
121 0 1 -0.399938 6.186871 67.602417
122 0 1 -1.109628 5.534210 67.466492
123 0 1 -1.745359 6.197453 67.087494
124 0 1 -2.350217 5.895340 67.793793
125 0 1 -2.085107 5.932590 68.705505
126 0 1 -1.638097 5.032249 68.855896
127 0 1 -1.324409 4.303162 69.392090
128 0 1 -1.017738 3.711201 69.996887
129 0 1 -1.964069 3.469803 70.114899
130 0 1 -2.125468 2.632160 70.530304
131 0 1 -1.897809 3.181931 71.244293
132 0 1 -2.752048 3.652073 71.522003
133 0 1 -2.639928 3.045670 72.281403
134 0 1 -3.171808 2.292622 72.530304
135 0 1 -3.346149 1.289402 72.565918
136 0 1 -4.278009 1.021461 72.532990
137 0 1 -5.037420 1.602901 72.461914
138 0 1 -5.514860 2.205441 71.935699
139 0 1 -4.934568 2.744991 71.357910
140 0 1 -5.102588 2.256393 70.500488
141 0 1 -5.862978 1.771011 70.219299
142 0 1 -6.102888 0.813686 70.316711
143 0 1 -6.644887 0.731867 71.158295
144 0 1 -6.347688 -0.191813 71.345490
145 0 1 -6.567689 -0.600460 72.119507
146 0 1 -5.828809 -1.064123 72.412506
147 0 1 -5.447439 -0.764839 71.560913
148 0 1 -5.790300 -0.873493 70.708191
149 0 1 -6.034788 -1.807528 70.728088
150 0 1 -6.401788 -2.486038 71.482117
151 0 1 -6.572988 -3.006847 70.700592
152 0 1 -6.541189 -3.233028 69.780212
153 0 1 -6.994188 -3.243519 68.960510
154 0 1 -7.693788 -3.396938 68.386902
155 0 1 -8.340188 -2.839468 67.926697
156 0 1 -9.248988 -2.814238 68.112396
157 0 1 -10.184789 -3.071978 68.015686
158 0 1 -10.146688 -2.535389 67.205292
159 0 1 -10.395188 -1.881659 66.560394
160 0 1 -10.709088 -1.276039 67.195801
161 0 1 -10.884988 -1.580229 68.106689
162 0 1 -11.433688 -2.186758 68.548798
163 0 1 -11.029688 -2.003418 69.386414
164 0 1 -11.345588 -1.867729 70.300598
165 0 1 -11.717788 -1.290028 71.002899
166 0 1 -10.802988 -0.878233 70.950012
167 0 1 -10.081487 -1.475758 70.642883
168 0 1 -9.927487 -2.378729 70.950409
169 0 1 -9.797887 -2.781038 69.984192
170 0 1 -8.823487 -3.049908 69.882812
171 0 1 -9.028687 -3.737139 70.538696
172 0 1 -8.758588 -4.746918 70.286896
173 0 1 -9.375588 -4.839499 69.523407
174 0 1 -8.840989 -5.332579 68.812408
175 0 1 -8.593087 -5.892899 69.639099
176 0 1 -7.880588 -5.421478 69.962708
177 0 1 -8.078389 -6.103128 70.673798
178 0 1 -8.137988 -6.108438 71.653198
179 0 1 -8.984988 -5.885880 71.269287
180 0 1 -9.180787 -6.657349 70.610596
181 0 1 -9.300788 -7.199238 71.418396
182 0 1 -9.908689 -7.305819 72.152710
183 0 1 -10.277387 -8.132969 72.003784
184 0 1 -11.054088 -8.684307 72.205688
185 0 1 -11.751888 -7.989359 72.320007
186 0 1 -11.182888 -7.285288 71.943207
187 0 1 -12.165889 -7.017229 71.902802
188 0 1 -12.837487 -7.510939 71.318390
189 0 1 -12.487088 -7.994488 70.589294
190 0 1 -12.180488 -7.179798 70.189789
191 0 1 -13.023787 -7.137798 69.685608
192 0 1 -12.432088 -7.079838 68.903107
193 0 1 -12.659188 -7.536728 68.123718
194 0 1 -12.938188 -7.111958 67.273682
195 0 1 -12.282388 -7.217268 66.588593
196 0 1 -13.053288 -7.383129 66.031708
197 0 1 -13.579589 -7.487429 65.162292
198 0 1 -13.224788 -6.582607 64.867401
199 0 1 -12.374888 -6.384079 65.237610
200 0 1 -12.387387 -5.807789 65.982117
201 0 1 -11.674788 -5.451508 66.521606
202 0 1 -11.379988 -4.599770 66.822601
203 0 1 -12.155787 -4.598139 67.497589
204 0 1 -11.812788 -3.966848 68.096313
205 0 1 -12.383988 -3.434618 68.628296
206 0 1 -13.214787 -3.438408 68.158691
207 0 1 -12.541188 -2.805389 67.708191
208 0 1 -12.335387 -3.573179 67.086700
209 0 1 -13.211888 -3.265118 67.051819
210 0 1 -14.067988 -3.122047 66.676819
211 0 1 -14.149688 -4.063839 66.797913
212 0 1 -14.280389 -4.927729 67.156403
213 0 1 -15.219289 -4.792747 67.017700
214 0 1 -15.926888 -4.986769 66.464294
215 0 1 -16.235088 -5.078638 67.346985
216 0 1 -16.377890 -5.905399 66.855804
217 0 1 -15.714087 -6.102749 66.178406
218 0 1 -15.806088 -7.050619 65.966492
219 0 1 -16.047289 -6.798548 65.058197
220 0 1 -16.396290 -7.618137 64.569305
221 0 1 -16.827188 -7.027159 63.855499
222 0 1 -16.230490 -7.109200 63.101593
223 0 1 -15.974088 -7.994669 63.037903
224 0 1 -15.272588 -8.556217 63.355499
225 0 1 -14.487988 -8.659418 62.790894
226 0 1 -14.894488 -9.529799 62.635101
227 0 1 -15.252788 -8.879799 61.945587
228 0 1 -15.993287 -8.895128 62.570801
229 0 1 -16.438189 -9.417078 63.225189
230 0 1 -16.387089 -10.283419 63.734100
231 0 1 -16.163389 -10.852619 62.915283
232 0 1 -16.125988 -11.667719 62.331909
233 0 1 -15.317288 -11.642818 61.783112
234 0 1 -14.448888 -11.322618 61.862701
235 0 1 -13.674888 -11.130919 61.367798
236 0 1 -13.446088 -12.008419 61.723297
237 0 1 -12.683488 -11.951118 62.290802
238 0 1 -12.965188 -12.787518 62.696503
239 0 1 -12.726188 -13.284218 63.486603
240 0 1 -13.390988 -12.882818 64.081696
241 0 1 -12.585189 -12.982618 64.581604
242 0 1 -11.627988 -13.179918 64.756592
243 0 1 -12.173087 -13.177818 65.570099
244 0 1 -12.566888 -13.851620 66.092285
245 0 1 -12.741488 -14.080519 65.099915
246 0 1 -11.919088 -14.537619 65.045288
247 0 1 -11.615088 -14.513920 64.086914
248 0 1 -10.913988 -14.656219 63.492615
249 0 1 -10.481088 -13.967018 62.859100
250 0 1 -9.801587 -13.776218 63.588409
251 0 1 -9.272187 -13.234318 62.987396
252 0 1 -8.929788 -12.363619 63.106506
253 0 1 -9.073087 -12.163017 62.157806
254 0 1 -9.651589 -12.528818 61.467896
255 0 1 -9.971589 -12.621017 60.460510
256 0 1 -10.857488 -12.958019 60.355988
257 0 1 -10.191888 -13.705519 60.552887
258 0 1 -9.631387 -14.351118 60.189087
259 0 1 -8.883489 -15.001318 60.175598
260 0 1 -8.575088 -14.558517 61.022583
261 0 1 -7.687990 -14.368717 60.707214
262 0 1 -7.750188 -13.510017 60.172699
263 0 1 -8.299489 -12.728020 60.015503
264 0 1 -8.501588 -12.415918 59.058197
265 0 1 -7.572689 -12.121418 58.894501
266 0 1 -6.748588 -11.919720 58.460693
267 0 1 -6.158988 -11.657120 59.112305
268 0 1 -5.934959 -10.713018 58.941498
269 0 1 -6.868589 -10.756819 59.067505
270 0 1 -6.493688 -10.255119 59.881104
271 0 1 -5.725738 -9.553768 59.892395
272 0 1 -5.145769 -10.296417 59.978088
273 0 1 -5.476388 -10.504818 60.830597
274 0 1 -4.623689 -10.586720 61.339111
275 0 1 -5.329717 -10.613419 62.131805
276 0 1 -4.892278 -11.007519 62.893890
277 0 1 -4.395097 -11.807819 62.726410
278 0 1 -3.721498 -12.489719 62.669617
279 0 1 -2.724427 -12.620218 62.729401
280 0 1 -2.175889 -12.041920 63.227509
281 0 1 -1.962369 -11.211517 63.625397
282 0 1 -2.034337 -11.190018 62.676300
283 0 1 -1.861898 -10.286819 62.903290
284 0 1 -0.845079 -10.060688 63.059204
285 0 1 0.075131 -9.949589 62.589691
286 0 1 0.821511 -10.631119 62.561890
287 0 1 0.021043 -10.922718 62.111603
288 0 1 -0.140409 -10.501318 61.199005
289 0 1 0.307542 -9.634048 61.026306
290 0 1 0.397582 -9.052979 60.284393
291 0 1 0.284291 -8.276810 59.842499
292 0 1 1.091742 -7.868519 59.504791
293 0 1 0.936581 -6.906017 59.339600
294 0 1 1.545161 -6.500099 58.771301
295 0 1 2.062701 -6.159267 57.999908
296 0 1 2.007062 -5.450558 57.439606
297 0 1 2.456252 -5.405298 56.588196
298 0 1 1.971972 -6.268749 56.515900
299 0 1 1.167462 -6.552019 56.963593
300 0 1 0.523562 -6.724588 57.642700
301 0 1 0.677891 -7.678638 57.387085
302 0 1 0.258563 -8.200928 56.769287
303 0 1 0.033313 -7.333488 56.291992
304 0 1 -0.843499 -7.449749 56.594391
305 0 1 -1.657699 -7.656908 56.072601
306 0 1 -1.964748 -8.538528 55.761688
307 0 1 -1.174817 -8.260828 55.233307
308 0 1 -1.586248 -9.078218 55.010986
309 0 1 -1.602298 -10.003119 55.089691
310 0 1 -2.226089 -10.661219 54.792206
311 0 1 -1.802509 -11.375319 54.277191
312 0 1 -2.038648 -12.289120 54.409088
313 0 1 -1.549508 -12.718319 53.677399
314 0 1 -0.736469 -12.331318 54.032593
315 0 1 -0.546998 -12.691818 53.149109
316 0 1 -0.239339 -13.409618 52.385498
317 0 1 0.321091 -14.149818 52.626007
318 0 1 0.662951 -14.863419 53.239899
319 0 1 0.418193 -14.558218 54.169098
320 0 1 0.052222 -13.799618 54.593994
321 0 1 0.319001 -12.821819 54.490509
322 0 1 1.022761 -12.730618 53.847900
323 0 1 1.929251 -12.445618 53.498413
324 0 1 2.096553 -12.157219 54.383301
325 0 1 2.784062 -12.861618 54.513794
326 0 1 3.035727 -12.622519 55.401093
327 0 1 3.567670 -11.965717 54.869507
328 0 1 3.577239 -10.991919 54.701202
329 0 1 3.417922 -10.021648 54.814514
330 0 1 2.861832 -9.600239 54.172791
331 0 1 2.371352 -9.532948 53.372314
332 0 1 1.543202 -9.926409 52.937683
333 0 1 0.576441 -10.193520 52.786987
334 0 1 0.015431 -10.669918 53.407288
335 0 1 0.541552 -11.247917 52.842285
336 0 1 0.112122 -11.692318 52.167603
337 0 1 0.725642 -11.611818 51.418091
338 0 1 0.557912 -12.576920 51.559296
339 0 1 1.146083 -13.187819 51.193512
340 0 1 1.637282 -12.359419 51.246094
341 0 1 1.723172 -11.601620 50.725006
342 0 1 2.398072 -10.930519 50.919800
343 0 1 3.149312 -10.771519 50.403809
344 0 1 3.727547 -10.133108 50.873993
345 0 1 3.623912 -9.260069 51.278015
346 0 1 2.621672 -8.940769 51.265503
347 0 1 1.871892 -8.465988 50.864594
348 0 1 1.402072 -7.593899 50.817413
349 0 1 0.887023 -6.836739 51.060211
350 0 1 1.226271 -6.039249 50.576202
351 0 1 1.052722 -5.411938 49.854401
352 0 1 0.902211 -6.280628 49.510498
353 0 1 1.061522 -7.261688 49.664490
354 0 1 0.522021 -7.965309 49.895691
355 0 1 -0.167579 -8.582949 49.813599
356 0 1 -0.460187 -8.358959 50.698608
357 0 1 -1.258039 -8.287008 50.097504
358 0 1 -2.124929 -7.897749 50.531891
359 0 1 -2.024589 -6.969299 50.185486
360 0 1 -2.845458 -6.728348 50.663391
361 0 1 -3.782268 -7.235649 50.751190
362 0 1 -3.553178 -6.955799 51.645691
363 0 1 -3.788898 -7.854218 51.586792
364 0 1 -2.893419 -7.997648 51.852905
365 0 1 -2.807668 -7.489828 52.657104
366 0 1 -2.606508 -8.140808 53.398407
367 0 1 -3.100948 -7.451109 53.821198
368 0 1 -4.034019 -7.643688 53.751404
369 0 1 -4.917959 -7.999538 53.654510
370 0 1 -5.757959 -8.194818 54.158386
371 0 1 -5.561409 -9.124529 54.266113
372 0 1 -5.807539 -9.377348 53.359497
373 0 1 -6.268487 -8.983068 52.544983
374 0 1 -7.230688 -8.963268 52.768311
375 0 1 -7.620288 -8.142548 52.432007
376 0 1 -7.002088 -8.032339 53.177002
377 0 1 -6.978988 -7.263008 53.721191
378 0 1 -6.731788 -6.460358 54.186798
379 0 1 -5.825269 -6.254459 53.883392
380 0 1 -5.622690 -6.123558 52.923492
381 0 1 -4.617769 -5.976189 52.762390
382 0 1 -4.300058 -5.962069 53.617310
383 0 1 -4.541799 -5.034449 53.390015
384 0 1 -5.272268 -4.476418 53.774689
385 0 1 -6.083410 -4.633209 53.312500
386 0 1 -6.596090 -3.934198 53.689911
387 0 1 -6.951787 -3.596949 54.526093
388 0 1 -6.310888 -2.917158 54.384216
389 0 1 -6.908689 -2.131369 54.397095
390 0 1 -6.911890 -2.409378 55.342102
391 0 1 -6.331089 -1.569449 55.247009
392 0 1 -6.386487 -1.810238 56.113403
393 0 1 -5.766347 -2.407038 55.639404
394 0 1 -5.204809 -3.226038 55.728699
395 0 1 -4.459098 -3.398909 55.093109
396 0 1 -4.231557 -2.469479 54.787811
397 0 1 -3.689557 -2.069969 54.052887
398 0 1 -3.241578 -1.566399 53.307892
399 0 1 -2.813188 -0.656536 53.415100
400 0 1 -2.494518 -1.054260 54.310608
401 0 1 -1.801309 -0.296417 54.117004
402 0 1 -2.061168 0.647604 54.264496
403 0 1 -2.513028 1.223431 53.624908
404 0 1 -3.411279 1.509491 53.765808
405 0 1 -3.534108 1.147812 52.920990
406 0 1 -4.153448 1.045742 52.056610
407 0 1 -4.976778 0.558058 52.012909
408 0 1 -4.999177 -0.365030 51.443512
409 0 1 -5.630109 0.181137 51.017212
410 0 1 -5.114217 0.393200 50.231598
411 0 1 -4.357629 -0.155598 50.045288
412 0 1 -4.784408 -1.017656 50.122406
413 0 1 -4.225278 -0.877478 49.276917
414 0 1 -3.919778 -1.490269 48.650299
415 0 1 -3.293678 -1.539028 47.921509
416 0 1 -4.117097 -1.865839 47.650391
417 0 1 -4.219728 -2.637989 47.075500
418 0 1 -4.737428 -3.233459 46.581909
419 0 1 -4.741998 -3.928919 47.293213
420 0 1 -5.727849 -4.081028 47.117493
421 0 1 -5.550848 -3.501308 47.819214
422 0 1 -6.287389 -2.922798 47.975098
423 0 1 -7.019289 -2.334589 48.031799
424 0 1 -7.133089 -1.880308 48.863708
425 0 1 -6.749889 -1.036648 48.674500
426 0 1 -7.554689 -1.152138 48.228210
427 0 1 -7.877187 -0.373919 47.732391
428 0 1 -8.278489 0.422447 48.020996
429 0 1 -9.108289 0.057539 47.945312
430 0 1 -9.434888 -0.408840 47.154114
431 0 1 -10.233487 -0.116434 46.768616
432 0 1 -10.913988 -0.715933 46.263611
433 0 1 -11.163188 -1.190168 45.369293
434 0 1 -11.299488 -1.930399 44.817291
435 0 1 -12.133588 -1.597469 44.405701
436 0 1 -12.100188 -0.628838 44.118500
437 0 1 -11.643088 -0.899552 43.306702
438 0 1 -11.281688 -0.085178 43.617706
439 0 1 -10.944788 0.751583 43.928009
440 0 1 -11.768788 0.950752 44.440186
441 0 1 -11.427888 0.683304 45.308197
442 0 1 -11.433488 -0.210363 45.038513
443 0 1 -10.611888 -0.247484 44.553284
444 0 1 -10.114688 -0.705282 43.843201
445 0 1 -9.237588 -1.001503 43.629395
446 0 1 -9.606687 -0.781962 42.743591
447 0 1 -8.768987 -0.744784 42.312805
448 0 1 -9.447087 -0.475378 41.692108
449 0 1 -9.780688 0.461361 41.413910
450 0 1 -9.247188 1.302372 41.379517
451 0 1 -8.937188 2.149750 41.072693
452 0 1 -9.755988 2.429142 40.674988
453 0 1 -10.031087 3.152100 41.359009
454 0 1 -10.706588 3.709831 40.987488
455 0 1 -10.362287 3.834751 40.058716
456 0 1 -9.811589 3.915070 39.274292
457 0 1 -9.496789 3.210411 39.875305
458 0 1 -8.502187 3.139313 39.651184
459 0 1 -8.079488 2.454212 40.138306
460 0 1 -7.367788 1.876633 40.349396
461 0 1 -7.043890 2.719753 40.437897
462 0 1 -6.498989 3.148983 39.789185
463 0 1 -7.273889 3.435371 39.295807
464 0 1 -7.747589 2.913273 38.614990
465 0 1 -8.044587 3.868450 38.570007
466 0 1 -7.550289 4.446072 38.033112
467 0 1 -6.932889 3.764053 37.536804
468 0 1 -7.803190 3.494633 37.556793
469 0 1 -7.292388 2.671452 37.354401
470 0 1 -7.005989 3.045353 36.575897
471 0 1 -6.745389 4.081833 36.623596
472 0 1 -6.742189 4.865192 37.111084
473 0 1 -7.293989 5.243530 36.439911
474 0 1 -8.217088 5.278961 36.608704
475 0 1 -8.121188 6.170441 36.342285
476 0 1 -8.890288 5.842892 35.886505
477 0 1 -9.508988 5.604221 35.113403
478 0 1 -9.911489 5.697041 34.163910
479 0 1 -9.687688 5.193733 33.437805
480 0 1 -8.745889 5.318340 33.559509
481 0 1 -8.339787 4.856583 32.853210
482 0 1 -8.024587 4.507271 33.722687
483 0 1 -7.483789 5.235783 33.354401
484 0 1 -6.726087 5.094704 32.819305
485 0 1 -7.388589 4.825802 32.167694
486 0 1 -8.088387 5.450741 31.729004
487 0 1 -7.670587 5.629372 30.892395
488 0 1 -7.298990 5.901382 30.085907
489 0 1 -6.465288 5.566372 29.820984
490 0 1 -7.023988 5.319283 29.082397
491 0 1 -6.102989 5.411861 28.777191
492 0 1 -5.364849 4.661892 28.609894
493 0 1 -4.696048 3.953632 28.392792
494 0 1 -4.332269 3.059292 28.551605
495 0 1 -3.675458 2.689453 28.056885
496 0 1 -2.794269 3.206371 27.984406
497 0 1 -2.826598 4.178452 27.986206
498 0 1 -2.875879 4.010712 26.962708
499 0 1 -2.071208 3.952209 26.375092
500 0 1 -1.323358 4.518353 26.694092
501 0 1 -0.909679 5.266060 27.068909
502 0 1 -0.302789 5.673973 26.505188
503 0 1 0.266232 6.397041 26.368103
504 0 1 0.481892 7.202511 26.862488
505 0 1 1.504071 7.241962 27.074310
506 0 1 2.183062 6.688843 27.453186
507 0 1 2.838931 6.361370 28.117798
508 0 1 3.180506 7.186691 28.384491
509 0 1 3.117673 7.214050 29.312897
510 0 1 3.107102 6.814991 30.163605
511 0 1 3.124919 5.912182 30.488800
512 0 1 2.686782 5.448662 31.266113
513 0 1 2.780102 4.776100 31.936890
514 0 1 2.807221 4.129112 32.644287
515 0 1 3.731322 3.778633 32.475311
516 0 1 3.890094 3.924343 31.482605
517 0 1 3.342419 3.821072 30.679108
518 0 1 3.592788 3.088272 30.191406
519 0 1 3.160170 2.272614 30.357788
520 0 1 2.384862 2.802391 30.640198
521 0 1 1.509841 2.551163 30.480896
522 0 1 0.805852 1.875122 30.253204
523 0 1 0.811631 1.224111 29.589813
524 0 1 0.581612 0.547453 29.013000
525 0 1 0.641671 0.195421 28.058197
526 0 1 0.582041 0.408392 27.079407
527 0 1 -0.330669 0.059561 27.236511
528 0 1 -1.120418 0.582693 26.849091
529 0 1 -1.193338 0.359234 25.897614
530 0 1 -0.700418 1.122152 25.983093
531 0 1 -0.201638 1.596401 26.693512
532 0 1 -0.568958 2.446411 26.239990
533 0 1 -1.449888 2.832420 26.261902
534 0 1 -2.406629 2.627182 26.117096
535 0 1 -3.113979 2.006031 26.501404
536 0 1 -3.400878 1.045601 26.612610
537 0 1 -3.413209 0.034212 26.769012
538 0 1 -4.101728 -0.604878 26.352997
539 0 1 -4.542528 -1.488669 26.238495
540 0 1 -4.095518 -1.268559 25.349487
541 0 1 -4.945188 -0.832798 25.158691
542 0 1 -5.143919 0.017584 25.689697
543 0 1 -5.599847 0.789158 26.146301
544 0 1 -6.276489 0.828140 26.812714
545 0 1 -6.375688 1.379631 27.590698
546 0 1 -6.821989 1.369953 28.475311
547 0 1 -7.514888 1.564953 29.040009
548 0 1 -7.124589 0.956592 29.589813
549 0 1 -7.893987 0.536024 30.095612
550 0 1 -8.511888 0.091473 30.631012
551 0 1 -9.444787 -0.138376 30.484009
552 0 1 -9.430787 0.767593 30.265198
553 0 1 -10.366788 0.566969 30.729004
554 0 1 -9.850488 1.089012 31.381805
555 0 1 -10.651788 1.622120 31.228088
556 0 1 -10.932488 2.142212 30.498505
557 0 1 -10.768388 2.983513 30.993805
558 0 1 -10.708688 3.504871 31.727295
559 0 1 -10.044587 3.731041 31.010986
560 0 1 -9.650487 4.241230 30.252014
561 0 1 -8.766187 3.980942 30.031708
562 0 1 -8.236688 4.525291 29.452515
563 0 1 -8.286588 5.424431 29.117004
564 0 1 -9.169988 5.583603 28.887695
565 0 1 -9.002688 5.945831 29.782593
566 0 1 -8.788487 6.887211 30.040802
567 0 1 -9.567588 7.418411 30.186096
568 0 1 -9.032189 8.110371 30.604187
569 0 1 -8.152787 8.528770 30.322388
570 0 1 -7.553388 8.899422 30.926208
571 0 1 -8.456588 8.974831 31.363403
572 0 1 -9.144387 8.595161 31.940186
573 0 1 -8.622487 8.735592 32.789612
574 0 1 -8.470088 9.652634 32.568695
575 0 1 -7.786687 10.251480 32.910004
576 0 1 -7.692888 9.339653 33.200287
577 0 1 -7.192588 8.562111 33.034210
578 0 1 -6.240488 8.487720 32.869812
579 0 1 -5.823719 8.871040 32.122009
580 0 1 -6.404289 9.320972 31.486084
581 0 1 -6.071439 10.086582 31.102509
582 0 1 -5.177438 9.708912 30.738495
583 0 1 -4.477529 10.295181 30.486786
584 0 1 -4.150449 9.290710 30.599304
585 0 1 -3.419608 9.671501 31.112396
586 0 1 -3.146178 10.542084 31.507690
587 0 1 -2.447788 10.082184 31.113312
588 0 1 -2.262677 9.547440 30.289612
589 0 1 -2.380479 8.868961 30.968597
590 0 1 -1.524049 8.530731 30.886688
591 0 1 -1.055919 9.026371 30.206390
592 0 1 -0.864578 8.187691 29.705109
593 0 1 -1.175538 7.779560 28.869293
594 0 1 -0.228547 7.885063 28.550415
595 0 1 0.628482 7.766632 29.016205
596 0 1 1.065593 8.645332 29.085510
597 0 1 0.662472 8.767532 29.956207
598 0 1 1.172211 9.556381 29.818512
599 0 1 1.245871 10.332283 30.394501
600 0 1 2.088992 10.745182 30.592804
601 0 1 1.922581 11.558681 30.199097
602 0 1 1.011832 11.518982 30.378601
603 0 1 1.156972 12.244484 30.916901
604 0 1 0.801251 12.018784 31.846802
605 0 1 1.493142 11.652283 32.366302
606 0 1 2.216702 12.119381 32.683716
607 0 1 2.622002 11.904682 31.782501
608 0 1 2.791793 11.697582 30.824493
609 0 1 3.305037 12.342281 30.368286
610 0 1 3.482539 12.007980 29.461487
611 0 1 3.747168 12.918480 29.181000
612 0 1 4.690430 13.086582 29.017303
613 0 1 4.583138 13.718781 29.863586
614 0 1 5.533843 13.744980 30.080597
615 0 1 6.335440 14.238182 30.349304
616 0 1 6.123801 14.892780 31.028809
617 0 1 6.128550 15.796482 30.695007
618 0 1 5.535773 16.334984 30.110107
619 0 1 4.697478 16.178181 30.580200
620 0 1 4.231598 16.932281 30.855591
621 0 1 4.373549 17.179283 31.735199
622 0 1 4.852757 16.410980 32.030609
623 0 1 4.647374 17.067284 32.774414
624 0 1 4.536267 17.973480 33.111511
625 0 1 5.293032 18.291580 32.608307
626 0 1 5.867190 19.095184 32.429688
627 0 1 6.456263 19.141182 31.678009
628 0 1 6.630930 18.517479 31.013092
629 0 1 7.495711 18.589081 31.524994
630 0 1 8.412044 18.525982 31.820801
631 0 1 8.834750 19.383980 31.866913
632 0 1 9.160171 20.285683 32.081787
633 0 1 10.071033 20.481781 32.334717
634 0 1 10.118503 21.069481 33.059601
635 0 1 9.412704 20.472084 33.102112
636 0 1 9.294211 19.509682 33.050415
637 0 1 9.974574 19.045181 32.548309
638 0 1 9.900352 18.159481 32.777100
639 0 1 9.910213 18.299179 33.723816
640 0 1 10.615211 18.479782 34.276611
641 0 1 10.792300 18.266884 35.217102
642 0 1 10.258090 17.537781 34.840607
643 0 1 9.353423 17.400284 35.168701
644 0 1 8.555034 17.067181 34.849701
645 0 1 8.799163 16.236382 35.214417
646 0 1 8.570472 16.103783 36.212708
647 0 1 8.066531 15.271381 36.281891
648 0 1 7.407931 15.537781 35.679993
649 0 1 7.456210 16.466381 35.552612
650 0 1 6.724532 16.691383 35.012604
651 0 1 6.144442 16.690681 34.256989
652 0 1 6.174403 17.198181 33.417114
653 0 1 6.943312 16.843880 32.805389
654 0 1 6.150183 16.326584 32.614807
655 0 1 5.828242 16.097481 33.454010
656 0 1 6.316092 15.294380 33.578400
657 0 1 5.451201 15.048683 33.896698
658 0 1 4.555773 14.646381 33.920715
659 0 1 3.918227 15.075882 33.301910
660 0 1 4.198472 14.278183 32.847412
661 0 1 4.246785 13.386780 33.109802
662 0 1 3.442305 13.377083 32.663300
663 0 1 3.206786 14.202682 32.079407
664 0 1 3.583087 15.012882 31.635498
665 0 1 3.415530 15.967182 31.816986
666 0 1 3.035403 15.730583 30.994598
667 0 1 2.138661 15.785480 30.576813
668 0 1 1.407132 16.389481 30.369598
669 0 1 1.027331 16.763680 29.579895
670 0 1 1.853251 16.879082 29.199799
671 0 1 1.765231 17.293579 28.326996
672 0 1 2.125491 17.508980 27.501709
673 0 1 1.650363 17.864582 26.799896
674 0 1 1.412102 17.026184 26.384705
675 0 1 0.802691 16.540581 26.980804
676 0 1 0.038962 17.183281 26.770599
677 0 1 -0.073308 17.689980 25.950104
678 0 1 -0.357948 18.250381 25.301392
679 0 1 0.615412 18.161182 25.134399
680 0 1 0.609542 18.977982 24.624786
681 0 1 -0.106258 18.579082 24.118805
682 0 1 -0.934278 18.097282 24.299713
683 0 1 -0.549447 17.314182 24.724701
684 0 1 -1.077659 16.546280 24.959900
685 0 1 -0.318387 16.192680 24.412109
686 0 1 -0.868989 15.422981 24.337494
687 0 1 -0.802448 14.695381 23.727203
688 0 1 -0.620878 13.784481 23.918304
689 0 1 0.017382 13.055382 24.146698
690 0 1 -0.378888 12.394882 23.505402
691 0 1 0.279502 11.785782 23.176910
692 0 1 0.820533 11.089081 23.579712
693 0 1 0.833422 10.168682 23.753387
694 0 1 0.817401 9.792419 22.935089
695 0 1 0.855113 8.932522 22.363495
696 0 1 1.750882 8.984562 22.758087
697 0 1 2.330271 8.478241 23.458405
698 0 1 2.636422 9.311710 23.874298
699 0 1 1.907182 9.679970 24.512604
700 0 1 1.771163 10.638184 24.324310
701 0 1 1.514441 11.379883 24.835693
702 0 1 2.137812 11.581882 25.611908
703 0 1 2.916196 11.050182 25.790497
704 0 1 2.535941 10.260582 25.377686
705 0 1 3.519305 10.309082 25.355988
706 0 1 3.569821 10.251381 24.344788
707 0 1 4.449774 10.275581 24.695404
708 0 1 4.940421 10.708881 24.003601
709 0 1 4.172837 11.292381 23.928009
710 0 1 3.840464 11.658783 23.112701
711 0 1 4.723975 11.859180 23.337311
712 0 1 5.561923 12.029182 22.844788
713 0 1 5.862662 11.916981 21.903992
714 0 1 6.703223 11.617783 22.273499
715 0 1 7.619940 11.890083 22.079407
716 0 1 8.466174 11.411282 22.035004
717 0 1 9.442294 11.350681 22.031799
718 0 1 9.456050 10.511883 21.417999
719 0 1 10.080112 11.236782 21.199295
720 0 1 10.031920 12.065384 20.684906
721 0 1 10.004592 12.131981 19.758606
722 0 1 9.316684 11.919983 19.201599
723 0 1 9.679164 11.105282 18.883102
724 0 1 8.832480 10.903381 18.520096
725 0 1 8.308612 11.674683 18.760696
726 0 1 8.161712 11.857681 17.858597
727 0 1 7.343691 11.642380 17.328598
728 0 1 6.582961 11.143280 16.985901
729 0 1 5.701621 10.797279 17.136795
730 0 1 4.843726 10.320881 17.070496
731 0 1 4.237950 9.688652 16.634796
732 0 1 3.514312 10.090584 16.172195
733 0 1 2.840592 10.127884 15.425598
734 0 1 2.205512 9.555969 14.947693
735 0 1 1.450972 9.838562 14.390594
736 0 1 1.369483 10.022583 13.474106
737 0 1 1.812901 10.204681 12.649002
738 0 1 1.774392 9.626984 11.877396
739 0 1 0.848252 9.591682 11.833801
740 0 1 0.330031 9.403603 12.639603
741 0 1 -0.502679 9.281059 13.016006
742 0 1 -1.212159 9.892082 13.018097
743 0 1 -1.503488 10.679581 13.492294
744 0 1 -0.878179 11.093880 12.815308
745 0 1 -0.140809 11.669281 12.852402
746 0 1 -0.490878 12.588280 12.563705
747 0 1 -1.143718 13.076180 12.120499
748 0 1 -2.089307 12.910080 12.087601
749 0 1 -2.156839 12.052483 11.645508
750 0 1 -2.963588 11.521481 11.588501
751 0 1 -2.671348 10.736881 10.971207
752 0 1 -1.935437 10.717583 10.257904
753 0 1 -2.652238 10.274879 9.766464
754 0 1 -3.536588 10.056580 9.787582
755 0 1 -4.153490 9.501541 9.396744
756 0 1 -3.518918 9.655872 8.714371
757 0 1 -4.348779 10.003483 8.446213
758 0 1 -4.104719 10.840981 8.100693
759 0 1 -4.817689 10.501083 7.612427
760 0 1 -5.149377 11.343681 7.918869
761 0 1 -6.040699 11.270782 8.193726
762 0 1 -6.880189 10.986282 8.554245
763 0 1 -6.399087 11.310783 9.374313
764 0 1 -7.103887 11.680382 9.924652
765 0 1 -6.976789 12.482384 10.436798
766 0 1 -6.120187 12.252380 10.818100
767 0 1 -5.905529 12.898983 11.477798
768 0 1 -5.346128 13.107384 12.190796
769 0 1 -6.152387 12.639980 12.469101
770 0 1 -6.296190 12.700981 13.407394
771 0 1 -5.830389 12.127083 13.942993
772 0 1 -5.554128 11.738182 14.768906
773 0 1 -5.976419 11.695183 15.608398
774 0 1 -6.797988 11.199081 15.989304
775 0 1 -7.065189 10.732182 15.140808
776 0 1 -7.811988 10.927082 15.810303
777 0 1 -8.371888 10.923180 16.677902
778 0 1 -8.519488 11.467083 17.464600
779 0 1 -8.122487 12.121281 17.989304
780 0 1 -7.432088 12.521282 17.476395
781 0 1 -7.311088 13.073681 16.713593
782 0 1 -7.763788 13.749580 16.201096
783 0 1 -7.685989 14.616180 15.775208
784 0 1 -7.167089 14.734283 14.921494
785 0 1 -6.780588 15.316582 14.243500
786 0 1 -6.398988 16.093483 14.751205
787 0 1 -5.565479 15.945084 14.294601
788 0 1 -5.080129 15.359180 13.736496
789 0 1 -4.591169 15.158279 12.933197
790 0 1 -3.831298 15.713581 13.203705
791 0 1 -4.385839 16.038780 12.518005