LAMMPS data file via MDAnalysis

        2000  atoms
        1999  bonds
           0  angles
           0  dihedrals
           0  impropers

           1  atom types
           1  bond types
           0  angle types
           0  dihedral types
           0  improper types

-30.5 30.5 xlo xhi
-30.5 30.5 ylo yhi
-233.5 233.5 zlo zhi


Masses

1 1.000000

Atoms

1 0 1 6.058423 -6.775483 88.622406
2 0 1 6.170182 -7.743083 88.578003
3 0 1 6.797353 -8.504871 88.846802
4 0 1 7.362802 -7.768092 89.185394
5 0 1 7.687112 -6.917822 88.785706
6 0 1 7.103360 -7.080061 88.076996
7 0 1 6.654344 -6.375472 87.537903
8 0 1 7.574014 -6.104203 87.406616
9 0 1 7.536481 -5.271443 86.967285
10 0 1 7.338372 -4.773003 87.802399
11 0 1 7.559342 -5.062682 88.701416
12 0 1 7.181603 -5.780411 89.259888
13 0 1 7.585290 -6.414711 89.815704
14 0 1 6.759431 -6.168683 90.147491
15 0 1 6.697373 -7.102202 89.881805
16 0 1 6.480153 -7.873522 90.396790
17 0 1 6.189210 -8.498173 89.730804
18 0 1 5.505021 -8.067230 89.258911
19 0 1 4.584802 -7.937321 89.186310
20 0 1 3.944981 -7.499102 89.783691
21 0 1 3.206063 -6.830863 89.835388
22 0 1 3.660752 -6.011422 89.555389
23 0 1 3.751172 -5.109303 89.311707
24 0 1 3.537831 -5.307143 88.384216
25 0 1 3.289140 -4.421282 88.362915
26 0 1 3.112912 -4.025662 87.486694
27 0 1 3.997330 -3.585062 87.331696
28 0 1 3.849541 -4.331841 86.760803
29 0 1 4.403649 -4.949421 86.325317
30 0 1 4.902490 -4.623112 85.617706
31 0 1 4.820390 -3.718352 85.829407
32 0 1 5.576409 -3.165652 85.828186
33 0 1 6.218904 -2.923561 86.615295
34 0 1 6.832482 -3.126362 85.847992
35 0 1 7.441953 -3.044451 85.129211
36 0 1 8.178182 -3.039442 84.533813
37 0 1 9.109891 -2.951071 84.774414
38 0 1 8.726453 -2.241732 85.282104
39 0 1 7.827462 -1.682223 85.281616
40 0 1 7.033982 -1.282803 84.903687
41 0 1 6.702641 -1.268141 84.006592
42 0 1 7.040372 -0.734934 83.212311
43 0 1 7.193303 -1.196081 82.378113
44 0 1 7.425263 -1.344761 81.430481
45 0 1 7.631471 -1.698342 80.569092
46 0 1 7.340802 -1.601902 79.608704
47 0 1 8.200044 -1.168862 79.396484
48 0 1 7.747281 -0.375012 79.631805
49 0 1 7.197392 -0.232855 78.827209
50 0 1 7.072843 0.505804 79.397400
51 0 1 6.174191 0.288320 79.158295
52 0 1 6.151711 -0.225933 79.976807
53 0 1 6.379910 -1.015541 80.480194
54 0 1 5.573220 -1.232422 80.939789
55 0 1 5.264352 -0.351845 81.244385
56 0 1 4.721822 0.404398 81.345306
57 0 1 4.822511 0.914938 80.443604
58 0 1 5.520680 1.000606 79.797089
59 0 1 6.003293 1.771976 79.743103
60 0 1 6.550542 2.258060 80.349091
61 0 1 5.771672 2.458908 80.928711
62 0 1 5.939603 1.543548 81.191010
63 0 1 5.926553 0.590273 81.512299
64 0 1 6.066361 -0.046786 82.255493
65 0 1 5.177251 -0.116659 82.410400
66 0 1 5.029851 0.750717 82.810486
67 0 1 4.651853 1.153629 83.593903
68 0 1 5.580300 1.238647 83.856995
69 0 1 6.397031 0.769687 83.971710
70 0 1 6.646161 0.691139 84.950409
71 0 1 5.818723 0.355081 85.241699
72 0 1 4.876721 0.314232 85.148315
73 0 1 4.243550 -0.457539 85.067017
74 0 1 3.435040 -0.461325 85.572388
75 0 1 2.922921 0.072748 86.085388
76 0 1 2.368253 -0.070793 86.863892
77 0 1 2.159070 0.405199 87.800201
78 0 1 2.903870 0.954015 87.976990
79 0 1 3.354642 0.660858 88.708893
80 0 1 3.231942 1.245107 89.446716
81 0 1 2.618161 1.746807 89.961304
82 0 1 2.596581 0.877920 90.405090
83 0 1 1.672772 0.835125 90.629883
84 0 1 0.977351 0.606582 91.206390
85 0 1 0.197295 0.148264 90.909607
86 0 1 -0.004131 -0.720673 91.307495
87 0 1 -0.746627 -0.752625 90.765015
88 0 1 -1.310165 -1.531792 90.717102
89 0 1 -2.039079 -1.982622 91.129089
90 0 1 -2.215259 -2.825941 91.531311
91 0 1 -3.098998 -2.430031 91.627411
92 0 1 -3.435689 -1.736891 91.060486
93 0 1 -4.287879 -1.332121 90.995209
94 0 1 -5.203670 -1.540892 90.881195
95 0 1 -5.079478 -2.459202 91.129608
96 0 1 -4.686248 -2.306132 92.021698
97 0 1 -4.369328 -1.581593 92.598816
98 0 1 -3.458179 -1.287491 92.861603
99 0 1 -3.146188 -1.380741 93.764801
100 0 1 -2.666059 -1.105751 94.575989
101 0 1 -3.607148 -1.197401 94.822601
102 0 1 -3.244659 -2.001023 95.278503
103 0 1 -3.619659 -1.750551 96.126007
104 0 1 -3.679868 -1.631342 97.044006
105 0 1 -4.284028 -2.102541 97.710815
106 0 1 -4.435788 -1.191033 97.982117
107 0 1 -4.961528 -0.533667 97.530518
108 0 1 -4.607469 0.364630 97.485199
109 0 1 -4.816409 1.045839 98.142883
110 0 1 -5.529809 1.141878 98.753510
111 0 1 -6.048219 1.290998 99.547485
112 0 1 -6.062598 1.378258 100.515991
113 0 1 -5.537219 0.684711 100.989014
114 0 1 -4.945518 1.236068 101.464996
115 0 1 -4.015439 1.366108 101.755981
116 0 1 -3.635518 1.935398 101.067017
117 0 1 -4.385379 2.056648 100.484009
118 0 1 -4.581798 2.951027 100.414001
119 0 1 -3.874389 3.269428 99.799896
120 0 1 -3.417489 3.771499 100.502014
121 0 1 -4.112048 4.296848 100.164001
122 0 1 -3.797189 4.347568 99.258392
123 0 1 -3.467550 4.282547 98.352905
124 0 1 -4.186349 4.395896 97.705811
125 0 1 -3.572889 4.897457 97.138306
126 0 1 -3.468608 5.704978 97.656097
127 0 1 -4.192378 6.019348 98.162292
128 0 1 -4.500308 6.819698 97.762909
129 0 1 -3.848178 7.309558 97.267395
130 0 1 -3.027978 7.293617 96.702087
131 0 1 -2.802228 6.414257 96.799408
132 0 1 -2.337838 5.996349 97.535889
133 0 1 -1.380904 5.788108 97.472107
134 0 1 -0.713374 5.273906 96.959198
135 0 1 -1.173982 4.401767 97.059509
136 0 1 -1.020622 3.636158 97.599091
137 0 1 -1.379258 4.143417 98.324005
138 0 1 -1.573579 4.920669 98.856110
139 0 1 -2.098069 5.515430 99.311005
140 0 1 -1.243419 5.948478 99.376404
141 0 1 -1.736478 6.160579 100.171997
142 0 1 -1.138223 6.865947 99.892517
143 0 1 -0.370845 7.332790 100.135986
144 0 1 -0.378904 7.544960 101.096008
145 0 1 -1.050431 8.213398 101.080017
146 0 1 -1.052791 8.593060 100.221985
147 0 1 -1.285823 9.498310 100.307983
148 0 1 -1.892938 9.203617 99.622589
149 0 1 -2.601789 9.615707 100.212006
150 0 1 -2.546619 9.583187 101.140015
151 0 1 -2.538419 9.663120 102.135010
152 0 1 -3.470809 9.339527 102.195984
153 0 1 -4.376828 9.755459 102.144989
154 0 1 -4.042228 10.636208 102.063995
155 0 1 -3.798869 11.569908 101.953003
156 0 1 -3.825578 12.505810 101.880005
157 0 1 -4.802329 12.651409 101.988007
158 0 1 -4.817470 13.529408 102.308990
159 0 1 -4.624238 13.151810 103.195007
160 0 1 -4.043189 12.417908 103.312988
161 0 1 -3.796069 12.426308 104.226990
162 0 1 -2.907079 12.684509 104.136993
163 0 1 -2.326530 12.390110 104.911011
164 0 1 -2.408759 11.392307 104.890015
165 0 1 -1.677968 11.623707 104.226990
166 0 1 -2.185649 11.092110 103.591003
167 0 1 -2.009038 11.772709 103.023010
168 0 1 -1.757068 12.149307 102.141998
169 0 1 -2.315448 11.628708 101.584991
170 0 1 -2.385129 10.711208 101.298004
171 0 1 -1.918880 10.734608 100.515015
172 0 1 -1.936010 11.291107 99.659210
173 0 1 -1.061712 11.741207 99.841187
174 0 1 -0.995891 12.532410 100.339996
175 0 1 -0.914281 13.404507 100.052002
176 0 1 -0.101018 13.902210 100.053009
177 0 1 0.638972 14.187908 100.606995
178 0 1 1.311291 14.855808 100.940002
179 0 1 2.123082 14.519207 100.453003
180 0 1 2.562360 13.917507 99.865417
181 0 1 3.358262 13.866306 99.225006
182 0 1 3.947713 13.722309 100.014008
183 0 1 3.530560 14.622707 100.148987
184 0 1 3.660531 14.672607 101.114990
185 0 1 4.277123 14.018208 101.470001
186 0 1 5.021852 13.885109 100.851013
187 0 1 5.905240 13.607410 101.326996
188 0 1 5.623750 12.706108 101.529999
189 0 1 4.673654 12.969410 101.420990
190 0 1 4.374803 12.393307 100.731995
191 0 1 3.606023 12.107510 100.195007
192 0 1 3.160081 12.359909 99.351807
193 0 1 3.946603 12.053509 98.894196
194 0 1 4.889230 11.756207 98.523987
195 0 1 5.624791 12.298008 98.197083
196 0 1 6.381520 11.605808 98.010590
197 0 1 7.048760 12.289009 98.193115
198 0 1 7.035981 12.774708 97.339508
199 0 1 7.175382 12.678207 96.439789
200 0 1 6.500112 13.352009 96.466003
201 0 1 5.935433 13.958809 96.908508
202 0 1 5.731862 13.806210 97.797699
203 0 1 5.660062 14.748909 97.928192
204 0 1 6.529481 14.736607 97.539703
205 0 1 7.217362 14.024906 97.372192
206 0 1 7.365190 14.184208 98.341797
207 0 1 8.313943 14.531010 98.565796
208 0 1 9.315782 14.755409 98.570892
209 0 1 8.978211 15.410610 99.207092
210 0 1 8.943563 15.722908 98.258698
211 0 1 9.795503 16.042309 98.216400
212 0 1 10.127900 16.780010 97.644104
213 0 1 10.558702 17.618206 97.546600
214 0 1 11.290502 17.965206 98.092102
215 0 1 11.040200 18.801308 97.632111
216 0 1 11.495301 19.611408 97.337708
217 0 1 12.362401 19.599308 96.930298
218 0 1 12.854802 18.844707 96.531891
219 0 1 13.609101 18.915508 95.976685
220 0 1 12.905202 19.068008 95.281006
221 0 1 12.298100 19.155910 94.535889
222 0 1 11.948800 18.258709 94.463318
223 0 1 11.014901 18.091309 94.467285
224 0 1 10.447701 17.783306 93.711487
225 0 1 9.554330 17.431709 93.631195
226 0 1 8.861672 18.095310 93.678497
227 0 1 8.079881 18.655308 93.793518
228 0 1 7.548120 17.997608 93.314301
229 0 1 6.768502 17.539310 93.627502
230 0 1 6.138852 18.201809 93.125305
231 0 1 6.174432 18.396511 94.028687
232 0 1 5.305501 17.978008 93.673706
233 0 1 5.137700 18.686810 94.280518
234 0 1 4.774503 17.848011 94.598602
235 0 1 4.118524 17.238609 94.279694
236 0 1 3.269150 17.719006 94.565613
237 0 1 2.589650 17.069607 94.543793
238 0 1 2.277901 16.191208 94.380890
239 0 1 1.357583 15.948708 94.189697
240 0 1 1.503899 15.046909 93.884491
241 0 1 0.706111 14.821709 93.501404
242 0 1 1.002162 13.889606 93.637909
243 0 1 0.248915 13.985310 93.052399
244 0 1 0.969712 14.212406 92.419891
245 0 1 1.440282 14.833908 91.828094
246 0 1 0.467583 15.016708 91.714417
247 0 1 -0.480005 14.900208 91.486298
248 0 1 -1.329011 15.307610 91.631500
249 0 1 -1.304340 16.314106 91.596497
250 0 1 -0.621576 16.089310 90.945892
251 0 1 -0.005861 16.832310 91.111816
252 0 1 -0.126041 17.753811 91.459106
253 0 1 0.327496 18.558708 91.749603
254 0 1 1.071511 18.879711 92.119904
255 0 1 2.010510 18.655209 92.207611
256 0 1 2.443440 19.509609 91.818909
257 0 1 2.025342 20.212009 91.273987
258 0 1 1.138631 20.021008 91.336182
259 0 1 1.116120 19.262211 90.765594
260 0 1 1.109353 18.299206 90.428589
261 0 1 0.303714 18.667110 89.947601
262 0 1 0.366679 17.873108 89.344482
263 0 1 0.720292 18.310207 88.509308
264 0 1 0.793301 18.033009 87.591095
265 0 1 0.312438 18.526409 86.950897
266 0 1 -0.280217 19.340206 87.117188
267 0 1 -1.056697 18.782608 87.370117
268 0 1 -0.710634 19.444111 87.996796
269 0 1 -0.303025 19.828106 88.751190
270 0 1 0.210246 20.220509 88.037201
271 0 1 0.475177 20.875607 87.332489
272 0 1 1.191422 21.299206 87.798706
273 0 1 1.997220 21.233509 88.265015
274 0 1 1.916642 21.689209 89.120209
275 0 1 1.884492 22.550411 88.861511
276 0 1 2.758523 22.804008 89.120209
277 0 1 3.522813 22.441410 88.675903
278 0 1 3.998410 22.986210 89.260101
279 0 1 4.863511 22.611408 89.460602
280 0 1 5.795602 22.505608 89.127411
281 0 1 5.791150 23.299511 88.549316
282 0 1 6.220891 23.912609 87.899811
283 0 1 6.404931 24.093307 86.963196
284 0 1 5.970891 23.526608 86.254211
285 0 1 5.038373 23.741508 86.338318
286 0 1 4.310330 24.325508 86.339600
287 0 1 4.493501 25.172710 86.763184
288 0 1 4.348691 25.945808 87.231506
289 0 1 4.586289 26.717510 86.721497
290 0 1 3.642953 26.677608 86.395905
291 0 1 3.033452 27.354610 86.017792
292 0 1 3.450742 27.723011 85.327698
293 0 1 3.961980 27.050808 84.870697
294 0 1 4.578610 27.507710 85.499390
295 0 1 5.220090 28.247509 85.516693
296 0 1 5.710103 27.407810 85.815704
297 0 1 6.697534 27.330509 85.489502
298 0 1 6.747872 26.652111 84.837402
299 0 1 6.011773 26.791607 84.213318
300 0 1 6.371293 26.329708 83.480103
301 0 1 7.017404 26.910309 83.017517
302 0 1 7.016053 27.268509 82.156616
303 0 1 7.067563 26.505810 81.615997
304 0 1 7.897370 26.495209 82.014893
305 0 1 8.577413 26.234108 81.340088
306 0 1 7.681592 25.602108 81.348389
307 0 1 7.347043 25.476109 80.505615
308 0 1 7.406671 24.537807 80.240112
309 0 1 7.972531 24.362507 79.518311
310 0 1 7.902600 23.443607 79.590881
311 0 1 7.058763 23.111507 79.385498
312 0 1 6.096120 23.204006 79.377014
313 0 1 5.867280 23.324009 80.299408
314 0 1 5.682221 24.004406 81.057190
315 0 1 4.867803 24.598309 81.098907
316 0 1 4.357530 23.954109 81.596405
317 0 1 4.316220 24.091908 82.562103
318 0 1 4.921201 23.769009 83.287811
319 0 1 4.410100 23.057110 83.720306
320 0 1 4.094670 23.377407 84.544983
321 0 1 4.452550 23.900509 85.319305
322 0 1 3.911931 23.173008 85.548798
323 0 1 3.142140 22.646610 85.360291
324 0 1 2.907040 23.586407 85.212708
325 0 1 2.309212 23.937908 84.591095
326 0 1 1.881692 23.107708 84.313599
327 0 1 1.891122 22.113708 84.290710
328 0 1 2.699372 21.820606 84.064911
329 0 1 2.637963 20.932308 83.702606
330 0 1 2.266080 20.582008 84.574310
331 0 1 1.873311 20.222908 85.406494
332 0 1 1.996670 19.802410 86.234314
333 0 1 1.014312 20.007809 86.237610
334 0 1 1.118272 20.954708 86.456909
335 0 1 1.023801 21.889309 86.496307
336 0 1 1.837243 22.054409 86.162903
337 0 1 2.719220 21.652607 86.410492
338 0 1 2.811082 21.648510 87.402405
339 0 1 3.828782 21.575710 87.415405
340 0 1 4.119802 21.629009 88.313904
341 0 1 4.703752 20.903507 88.539795
342 0 1 4.713502 20.234509 87.818390
343 0 1 4.982060 19.273808 87.658905
344 0 1 4.614411 18.964710 86.835510
345 0 1 3.945351 19.467106 87.324310
346 0 1 4.317750 20.175209 86.816406
347 0 1 5.359391 20.272610 86.882996
348 0 1 5.499013 20.094906 85.958191
349 0 1 5.796620 19.320309 85.616089
350 0 1 6.010652 19.862309 84.870789
351 0 1 6.777631 19.972908 84.228790
352 0 1 7.500573 19.521809 84.621887
353 0 1 7.216771 19.786209 85.481903
354 0 1 7.155610 20.714306 85.692383
355 0 1 6.916982 21.511009 85.208405
356 0 1 7.248982 21.372608 84.320496
357 0 1 8.216992 21.429108 84.256195
358 0 1 7.992211 20.451809 84.471405
359 0 1 8.694680 19.794506 84.644287
360 0 1 8.291543 20.023708 85.483398
361 0 1 9.202062 20.102810 85.762909
362 0 1 9.656602 21.020710 86.025208
363 0 1 10.287904 20.667210 85.439697
364 0 1 10.799302 20.388309 86.209991
365 0 1 11.487100 20.742306 85.683807
366 0 1 11.598702 20.858807 86.635590
367 0 1 12.493402 20.640606 86.426514
368 0 1 13.350301 20.790508 85.926697
369 0 1 14.141103 21.009007 85.375916
370 0 1 13.434602 21.442108 84.839294
371 0 1 13.275804 20.680210 84.267303
372 0 1 12.536202 20.272709 83.722107
373 0 1 13.185403 19.528111 83.276398
374 0 1 14.173600 19.332108 83.375000
375 0 1 13.918302 18.496609 83.913696
376 0 1 13.273301 17.865108 84.250488
377 0 1 12.936402 17.227711 83.582214
378 0 1 13.052003 16.428211 84.093018
379 0 1 13.702401 16.972507 84.510193
380 0 1 14.234803 16.405609 85.145111
381 0 1 13.975301 15.928806 85.930786
382 0 1 13.901299 15.044010 85.654205
383 0 1 13.143102 14.867710 86.178802
384 0 1 12.183301 15.117508 86.075806
385 0 1 11.216302 14.825008 85.916595
386 0 1 10.261804 14.703907 86.211609
387 0 1 9.368371 15.120510 86.043884
388 0 1 8.765000 15.353909 85.292999
389 0 1 8.619073 14.620609 84.656494
390 0 1 9.152963 14.127110 83.909698
391 0 1 8.302529 14.192608 83.583618
392 0 1 8.365891 15.149109 83.458191
393 0 1 7.922292 16.028008 83.310211
394 0 1 8.481511 16.509510 84.036896
395 0 1 9.171521 17.046406 83.595703
396 0 1 8.417722 17.588009 83.846100
397 0 1 7.893022 18.457607 83.984192
398 0 1 8.706223 18.742611 83.500702
399 0 1 8.958123 18.596607 82.547485
400 0 1 9.149053 17.685711 82.191589
401 0 1 10.064301 17.664909 81.708008
402 0 1 10.024903 17.027706 80.932617
403 0 1 9.740201 16.872009 80.052917
404 0 1 10.246503 16.891911 79.232788
405 0 1 9.775399 17.701809 78.999207
406 0 1 9.467732 18.606907 78.662415
407 0 1 9.248841 18.632408 77.725189
408 0 1 8.509683 19.190006 78.008698
409 0 1 8.374253 18.231808 78.083313
410 0 1 8.236672 18.421608 78.987793
411 0 1 7.380692 18.118908 79.410217
412 0 1 7.099011 17.318806 79.905884
413 0 1 6.962873 17.226509 80.826294
414 0 1 7.120412 16.317211 81.266907
415 0 1 7.878430 15.921108 80.747406
416 0 1 7.641992 14.990810 80.552917
417 0 1 7.213620 15.182209 79.708984
418 0 1 7.343881 15.989708 79.120209
419 0 1 6.946912 15.568607 78.361298
420 0 1 7.066361 16.133808 77.580017
421 0 1 7.650773 15.539608 77.001007
422 0 1 8.537164 15.375008 76.635315
423 0 1 8.868402 14.670609 76.115601
424 0 1 9.398190 13.902809 76.414490
425 0 1 9.164250 13.036808 76.743500
426 0 1 8.608293 12.269711 76.678497
427 0 1 8.405503 11.900608 75.870697
428 0 1 8.312860 12.746609 75.309998
429 0 1 9.068162 12.697208 74.693787
430 0 1 9.205552 13.591610 74.181396
431 0 1 9.792802 14.064709 74.714508
432 0 1 9.795800 14.511909 73.853088
433 0 1 10.462003 13.910709 73.481018
434 0 1 10.778001 14.643208 72.935394
435 0 1 9.976300 14.559208 72.354309
436 0 1 10.272401 14.339310 71.363586
437 0 1 10.602799 13.689808 70.782501
438 0 1 11.103101 13.367607 71.546295
439 0 1 10.822503 12.480610 71.248108
440 0 1 11.508801 12.072308 71.744385
441 0 1 11.965802 11.510609 72.375183
442 0 1 12.358502 11.012108 71.642212
443 0 1 11.596501 10.404808 71.853516
444 0 1 12.438203 9.894711 71.699097
445 0 1 12.981301 9.761669 72.432983
446 0 1 13.852002 9.371109 72.110809
447 0 1 14.143003 9.934479 71.463013
448 0 1 15.086301 10.025761 71.667114
449 0 1 15.687402 9.308010 71.710205
450 0 1 16.262703 8.567806 72.109314
451 0 1 16.630001 7.890506 72.614899
452 0 1 17.126602 7.100627 72.616089
453 0 1 18.075100 7.161598 72.344116
454 0 1 18.175800 6.660217 71.548004
455 0 1 17.415199 6.337596 71.038208
456 0 1 17.997002 5.815288 70.422211
457 0 1 17.805901 5.023319 71.048401
458 0 1 18.379101 4.333927 70.657288
459 0 1 19.036800 3.656589 70.837006
460 0 1 19.369301 4.538269 71.012909
461 0 1 20.139801 4.493610 70.389404
462 0 1 19.532200 4.170360 69.787811
463 0 1 19.609703 3.399776 69.171906
464 0 1 20.443901 3.741398 68.794983
465 0 1 20.675499 4.299346 68.035217
466 0 1 21.449501 4.525558 67.487305
467 0 1 21.914299 5.118007 66.926697
468 0 1 22.679501 5.688686 66.995392
469 0 1 22.028702 6.374076 67.151184
470 0 1 21.230202 6.559886 67.694214
471 0 1 20.276600 6.715358 67.682983
472 0 1 19.579002 6.033847 67.834503
473 0 1 18.661800 6.492549 67.943695
474 0 1 18.748501 6.956836 67.100494
475 0 1 19.325001 6.654148 66.404602
476 0 1 18.887199 5.821067 66.048798
477 0 1 18.299500 5.807807 65.224915
478 0 1 17.603100 6.451427 65.257019
479 0 1 17.737999 6.637680 66.221893
480 0 1 17.815002 5.752647 66.622406
481 0 1 17.981102 4.854888 66.288513
482 0 1 17.243698 4.819187 66.924316
483 0 1 16.700203 5.600910 66.774109
484 0 1 15.960801 5.129676 66.399689
485 0 1 15.927201 4.538078 67.185913
486 0 1 16.135201 3.712539 66.624298
487 0 1 15.537801 3.453480 65.957214
488 0 1 16.019699 3.045357 65.303284
489 0 1 15.676904 3.001610 64.410217
490 0 1 15.188302 2.238788 63.948914
491 0 1 14.920701 1.377249 64.383392
492 0 1 15.634702 0.772083 64.683990
493 0 1 15.884004 -0.048138 65.062317
494 0 1 15.115102 -0.584196 64.864899
495 0 1 14.212201 -0.983881 64.813293
496 0 1 14.152902 -1.578142 65.570892
497 0 1 14.660401 -1.362072 66.319519
498 0 1 13.816800 -1.324991 66.829407
499 0 1 13.012902 -1.316242 66.213318
500 0 1 12.598702 -1.266352 67.102600
501 0 1 11.686002 -1.167332 67.355011
502 0 1 11.254903 -0.737496 68.096100
503 0 1 10.953103 -0.050501 68.707001
504 0 1 10.978303 0.850870 68.996796
505 0 1 10.707501 1.042387 69.889496
506 0 1 9.908601 1.068794 70.337708
507 0 1 10.302903 0.963259 71.246796
508 0 1 10.897103 1.685898 71.083618
509 0 1 11.389703 1.104099 71.691010
510 0 1 11.051301 0.384178 72.229492
511 0 1 11.871503 -0.038243 72.066010
512 0 1 11.249501 -0.255547 71.351410
513 0 1 11.933000 -0.921622 71.280701
514 0 1 12.839501 -1.181881 71.494812
515 0 1 13.698201 -1.445692 71.072693
516 0 1 14.577703 -1.893141 70.711914
517 0 1 14.162400 -1.491732 69.970490
518 0 1 13.601300 -2.198801 69.767090
519 0 1 13.384702 -3.147652 69.470795
520 0 1 12.687699 -2.855252 70.069611
521 0 1 12.274301 -3.082472 70.970306
522 0 1 11.751500 -3.841042 70.508392
523 0 1 11.922002 -4.674002 70.101196
524 0 1 12.414300 -4.046242 69.521301
525 0 1 12.883599 -4.794972 69.308990
526 0 1 12.087800 -4.978852 68.882812
527 0 1 12.578103 -4.865372 68.132111
528 0 1 12.495500 -4.938103 67.187988
529 0 1 13.106500 -4.342492 66.670898
530 0 1 12.176301 -4.021561 66.381409
531 0 1 12.226899 -4.625742 65.655792
532 0 1 11.664201 -4.114213 65.082489
533 0 1 11.391603 -4.342862 64.150696
534 0 1 11.467900 -3.974552 63.282288
535 0 1 10.909402 -4.371302 62.633209
536 0 1 10.918401 -3.772562 61.857300
537 0 1 11.203401 -3.908633 60.911499
538 0 1 11.505002 -3.724892 60.034485
539 0 1 11.056802 -3.063271 59.519104
540 0 1 11.843801 -2.576222 59.314697
541 0 1 12.773103 -2.534392 59.068787
542 0 1 12.711404 -1.591141 58.848206
543 0 1 12.318299 -1.135641 58.038513
544 0 1 12.574002 -0.329441 57.635406
545 0 1 12.438500 0.591598 57.819397
546 0 1 12.054101 1.128895 57.114288
547 0 1 11.137700 0.684847 57.186890
548 0 1 10.467202 1.316158 56.848297
549 0 1 11.195703 1.399778 56.266785
550 0 1 11.134301 0.941301 55.475708
551 0 1 12.085999 0.894331 55.130707
552 0 1 12.062699 0.594578 54.261200
553 0 1 12.315103 1.501018 54.318604
554 0 1 11.563901 1.624677 53.748993
555 0 1 12.143102 2.286400 53.339600
556 0 1 11.610703 2.974407 53.009003
557 0 1 11.365502 2.518558 52.184113
558 0 1 10.694703 2.118160 51.627808
559 0 1 9.942502 1.587478 51.555908
560 0 1 9.033731 1.457948 51.934814
561 0 1 8.763631 0.845388 51.232788
562 0 1 8.942094 0.615394 50.311096
563 0 1 9.847302 0.596023 50.082489
564 0 1 10.368501 0.917722 49.205109
565 0 1 9.928700 1.284668 48.454895
566 0 1 9.086663 1.010010 47.955597
567 0 1 8.976052 1.841099 48.385712
568 0 1 8.238072 2.413017 48.743011
569 0 1 7.535863 1.831638 49.057495
570 0 1 6.616982 1.688499 49.013489
571 0 1 6.114423 1.606298 49.847412
572 0 1 6.241872 0.669925 50.241913
573 0 1 6.817170 0.205667 50.885712
574 0 1 6.594934 -0.364075 51.608093
575 0 1 6.570210 0.218250 52.320892
576 0 1 6.029752 0.560476 53.074799
577 0 1 5.519250 -0.252644 53.096985
578 0 1 5.338872 -1.236122 53.108002
579 0 1 5.686131 -1.913492 53.653290
580 0 1 6.006082 -2.076283 52.786194
581 0 1 5.565503 -2.584412 52.114899
582 0 1 5.895631 -3.308132 51.493896
583 0 1 6.646581 -3.858221 51.489014
584 0 1 7.381303 -3.803513 50.826904
585 0 1 7.959241 -3.420292 50.194092
586 0 1 8.591901 -4.259701 50.144592
587 0 1 9.531953 -4.141593 50.029114
588 0 1 9.408402 -5.075652 50.031708
589 0 1 9.451543 -5.579112 50.911591
590 0 1 9.279862 -6.430321 50.434387
591 0 1 8.954682 -7.082022 49.800812
592 0 1 8.727490 -7.705122 49.148193
593 0 1 8.445012 -7.787072 48.236206
594 0 1 8.376142 -8.681442 47.895508
595 0 1 7.756642 -8.084202 47.330811
596 0 1 7.175660 -7.586503 47.955811
597 0 1 7.000710 -7.012921 47.179901
598 0 1 6.715333 -6.875182 46.285004
599 0 1 6.055821 -7.223572 46.875397
600 0 1 5.784101 -7.736351 47.722290
601 0 1 5.721459 -7.892722 48.679901
602 0 1 5.374490 -6.974312 48.746490
603 0 1 4.818513 -6.561562 49.462799
604 0 1 4.400933 -5.847832 50.028992
605 0 1 4.379113 -5.801251 50.980408
606 0 1 4.084062 -4.939473 50.855713
607 0 1 3.828950 -4.054762 50.557800
608 0 1 3.191773 -4.707512 50.273315
609 0 1 2.917580 -3.966511 49.596100
610 0 1 2.967171 -2.980431 49.464813
611 0 1 3.825551 -2.458971 49.424500
612 0 1 4.445241 -3.135212 49.610596
613 0 1 5.026963 -3.173722 48.804199
614 0 1 5.360402 -2.544743 48.172394
615 0 1 4.491422 -2.558232 47.699402
616 0 1 4.148690 -3.450041 47.555389
617 0 1 4.152383 -3.559132 48.544708
618 0 1 3.259061 -3.622483 48.173584
619 0 1 3.171300 -4.005661 47.330811
620 0 1 3.151250 -4.871552 46.937897
621 0 1 3.352242 -5.841721 47.025513
622 0 1 3.498971 -6.611971 46.521301
623 0 1 2.990170 -6.665041 45.641388
624 0 1 2.510312 -6.490693 44.802704
625 0 1 2.053082 -6.160792 45.547607
626 0 1 1.460862 -5.434351 45.781006
627 0 1 2.142171 -4.652272 45.878204
628 0 1 2.869702 -4.042992 45.947693
629 0 1 2.411233 -3.716162 45.113403
630 0 1 2.406430 -4.103642 44.188904
631 0 1 3.090043 -3.865372 43.597992
632 0 1 3.499802 -4.693482 43.875000
633 0 1 2.991643 -5.515112 43.972504
634 0 1 3.565751 -6.234192 43.699707
635 0 1 3.359402 -6.115723 42.795410
636 0 1 3.235093 -5.282362 42.342285
637 0 1 3.294762 -5.973752 41.771393
638 0 1 3.115460 -6.230072 40.851990
639 0 1 2.342950 -5.661372 40.955200
640 0 1 2.299802 -4.823592 41.328308
641 0 1 1.627263 -5.032563 41.997009
642 0 1 1.277390 -5.955431 42.132111
643 0 1 1.691640 -6.714602 42.555786
644 0 1 1.397790 -7.563662 42.926788
645 0 1 2.289841 -8.105801 42.778687
646 0 1 3.043412 -8.385033 42.324890
647 0 1 3.040982 -9.022552 43.059113
648 0 1 3.642770 -9.354721 42.293396
649 0 1 4.200803 -10.104191 42.565094
650 0 1 4.730073 -10.865192 42.674713
651 0 1 4.525041 -10.448692 43.502014
652 0 1 4.734300 -9.767881 44.143890
653 0 1 5.116200 -10.007492 45.002106
654 0 1 5.735143 -10.004292 44.173798
655 0 1 6.274941 -10.234093 43.424316
656 0 1 5.517442 -10.826292 43.535400
657 0 1 5.210980 -11.731293 43.682007
658 0 1 4.418530 -12.291691 43.758392
659 0 1 4.196740 -11.860392 42.899200
660 0 1 3.399731 -12.138792 42.432892
661 0 1 2.601491 -12.798592 42.469299
662 0 1 2.142682 -13.333591 43.119202
663 0 1 2.692719 -14.123892 42.867401
664 0 1 1.877801 -14.435391 43.288086
665 0 1 1.289330 -15.167791 42.866394
666 0 1 1.158829 -14.380192 42.247101
667 0 1 0.330661 -14.608992 42.779999
668 0 1 0.020463 -14.103493 42.044708
669 0 1 0.484318 -13.363892 41.586609
670 0 1 1.146310 -13.803093 41.000793
671 0 1 1.347012 -13.309292 40.189911
672 0 1 1.149373 -12.389591 40.151611
673 0 1 0.747411 -11.838692 39.500916
674 0 1 0.033856 -11.430592 38.976685
675 0 1 -0.319507 -11.585293 38.133209
676 0 1 -1.223537 -11.837193 37.808594
677 0 1 -0.471549 -12.225990 37.319702
678 0 1 -0.911269 -12.791891 36.677490
679 0 1 -1.723958 -12.508291 36.248199
680 0 1 -1.134441 -11.706991 36.058990
681 0 1 -1.596389 -10.858992 35.998596
682 0 1 -1.032705 -10.096992 36.260712
683 0 1 -0.467221 -10.764591 35.916107
684 0 1 -0.015504 -11.171791 35.242004
685 0 1 0.766631 -10.615192 35.216888
686 0 1 1.614400 -10.317692 35.043396
687 0 1 2.128560 -9.539352 34.871704
688 0 1 1.591992 -9.550562 35.711914
689 0 1 1.942651 -10.082191 36.450104
690 0 1 1.961980 -9.097132 36.674408
691 0 1 2.315652 -8.712372 35.900604
692 0 1 2.746022 -7.842152 35.834595
693 0 1 3.169080 -7.171362 35.232910
694 0 1 3.036999 -6.731713 36.144592
695 0 1 3.970429 -6.601141 35.830505
696 0 1 3.665581 -5.684613 35.818390
697 0 1 4.577661 -5.659352 35.500610
698 0 1 5.434571 -5.380013 35.464508
699 0 1 4.875802 -4.619313 35.738007
700 0 1 4.917722 -3.746201 35.224915
701 0 1 3.918820 -3.919752 35.167206
702 0 1 3.854390 -4.430253 34.398590
703 0 1 4.368890 -3.648121 34.015503
704 0 1 4.163011 -2.654242 34.158295
705 0 1 3.805199 -2.542052 35.026489
706 0 1 3.007981 -3.042982 34.737213
707 0 1 2.914410 -2.116923 34.460999
708 0 1 2.480321 -1.460402 34.897217
709 0 1 3.338502 -1.410692 35.294617
710 0 1 4.023553 -0.655909 34.858307
711 0 1 4.268872 0.006056 34.159302
712 0 1 5.024480 0.157221 34.791107
713 0 1 5.249490 -0.042822 35.657104
714 0 1 5.599580 -0.662602 36.341187
715 0 1 6.057023 -1.243782 35.726013
716 0 1 6.215261 -1.436432 34.725189
717 0 1 6.563870 -2.105603 35.202515
718 0 1 7.223611 -2.752053 34.894104
719 0 1 6.824132 -3.608332 35.181396
720 0 1 7.098500 -4.106232 36.005798
721 0 1 7.235940 -4.829972 36.610504
722 0 1 8.111882 -4.331902 36.490204
723 0 1 8.344644 -4.466832 37.401794
724 0 1 9.125882 -4.848292 36.926910
725 0 1 9.771401 -5.433571 36.604706
726 0 1 9.889199 -6.226002 36.104187
727 0 1 9.443330 -6.531872 35.367798
728 0 1 10.082501 -6.957581 34.774689
729 0 1 10.649301 -6.876933 33.953308
730 0 1 10.291001 -6.036831 33.862396
731 0 1 9.364244 -5.789132 33.816010
732 0 1 8.942620 -6.235053 32.991211
733 0 1 9.777802 -6.905241 32.948090
734 0 1 9.094911 -7.568623 33.014404
735 0 1 8.225190 -7.446951 32.656799
736 0 1 8.325501 -8.306141 32.217712
737 0 1 8.762811 -9.064072 31.760315
738 0 1 8.724252 -9.396412 30.859985
739 0 1 9.027169 -10.354092 30.954193
740 0 1 9.005742 -11.318092 30.993103
741 0 1 8.081410 -11.458492 31.036011
742 0 1 8.180593 -11.774591 30.135406
743 0 1 7.909741 -12.609791 30.516388
744 0 1 8.771821 -12.999992 30.177795
745 0 1 9.677201 -13.053093 30.374908
746 0 1 10.223901 -12.751991 31.083496
747 0 1 10.410901 -12.335793 32.003204
748 0 1 10.908402 -13.066490 32.533905
749 0 1 11.612203 -13.737692 32.497803
750 0 1 11.909699 -13.765591 31.557404
751 0 1 11.121903 -13.873692 31.019806
752 0 1 10.261201 -13.865593 31.511414
753 0 1 10.215100 -14.254492 32.365204
754 0 1 10.225701 -14.746391 33.259888
755 0 1 9.441472 -14.333691 33.197388
756 0 1 8.668283 -13.960491 32.846588
757 0 1 9.300653 -13.289991 33.293396
758 0 1 9.871800 -13.033291 34.094299
759 0 1 9.614602 -13.075790 35.018494
760 0 1 8.936883 -12.333292 35.010986
761 0 1 9.126912 -12.582592 35.919006
762 0 1 8.230561 -12.207993 35.717712
763 0 1 8.033761 -11.433990 36.192688
764 0 1 8.034593 -10.873993 35.426788
765 0 1 7.171742 -11.336693 35.502197
766 0 1 6.500093 -10.896292 34.921906
767 0 1 6.793473 -10.553890 34.048004
768 0 1 7.181081 -10.637592 33.166687
769 0 1 6.491521 -10.086391 32.961914
770 0 1 5.795571 -9.634512 32.450500
771 0 1 5.670892 -8.681812 32.763397
772 0 1 4.752191 -8.714142 32.509491
773 0 1 4.937840 -7.854931 32.852905
774 0 1 4.951291 -6.940251 32.550415
775 0 1 5.544053 -6.977093 31.764008
776 0 1 5.625333 -7.562052 31.037415
777 0 1 4.832730 -7.691102 31.519196
778 0 1 4.577382 -7.078053 30.839905
779 0 1 4.032189 -7.268261 30.076691
780 0 1 3.570042 -6.919013 30.847900
781 0 1 3.067830 -7.057541 29.963104
782 0 1 2.627419 -7.803341 30.365509
783 0 1 2.657452 -8.805092 30.347809
784 0 1 2.401120 -8.685970 29.491699
785 0 1 3.360291 -8.882763 29.290802
786 0 1 4.117162 -8.744871 28.726196
787 0 1 3.610329 -9.123753 27.944397
788 0 1 2.948903 -9.440002 27.349304
789 0 1 2.192952 -8.811913 27.592590
790 0 1 2.071492 -9.096472 26.685913
791 0 1 1.347333 -8.516670 26.860596
792 0 1 1.190831 -8.775572 25.933014
793 0 1 0.510918 -8.193441 26.048187
794 0 1 -0.299039 -8.004322 25.623199
795 0 1 -0.685870 -8.567982 26.338409
796 0 1 -1.274965 -8.796761 25.617889