LAMMPS data file via MDAnalysis

        2000  atoms
        1999  bonds
           0  angles
           0  dihedrals
           0  impropers

           1  atom types
           1  bond types
           0  angle types
           0  dihedral types
           0  improper types

-30.5 30.5 xlo xhi
-30.5 30.5 ylo yhi
-233.5 233.5 zlo zhi


Masses

1 1.000000

Atoms

1 0 1 -0.987478 -19.080564 102.216003
2 0 1 -0.934269 -18.137564 102.242981
3 0 1 -0.820457 -17.354765 102.759003
4 0 1 -0.094019 -17.324965 102.126007
5 0 1 0.805142 -17.485464 101.901001
6 0 1 1.273722 -17.384665 102.713013
7 0 1 1.910149 -16.653164 102.558990
8 0 1 2.746548 -17.115164 102.833984
9 0 1 3.106577 -17.277266 101.923004
10 0 1 3.889942 -17.430065 101.369019
11 0 1 4.324041 -17.154465 102.183990
12 0 1 4.054701 -17.508865 103.079010
13 0 1 4.217411 -18.280066 103.666016
14 0 1 5.165323 -18.566265 103.687988
15 0 1 5.906031 -18.949665 104.072998
16 0 1 6.539980 -19.145164 103.398010
17 0 1 6.175711 -19.983465 103.576996
18 0 1 5.950884 -20.013165 102.664001
19 0 1 6.056032 -20.839066 102.273010
20 0 1 5.129560 -20.941265 101.796997
21 0 1 5.586641 -21.622864 101.295990
22 0 1 6.230143 -22.235065 101.700989
23 0 1 7.117422 -21.789465 101.476013
24 0 1 7.586012 -20.927164 101.549988
25 0 1 8.298914 -21.444965 101.157990
26 0 1 7.824011 -21.139265 100.393005
27 0 1 6.886480 -21.048265 100.704010
28 0 1 6.055143 -21.006065 100.231995
29 0 1 5.751791 -20.121565 100.246002
30 0 1 5.238840 -19.824064 101.028015
31 0 1 5.159304 -19.492964 101.929016
32 0 1 4.361582 -19.194565 102.419006
33 0 1 3.566384 -19.274164 102.916016
34 0 1 3.151840 -18.368164 102.773987
35 0 1 2.652806 -17.971565 103.518982
36 0 1 2.862826 -17.721464 104.393005
37 0 1 2.674401 -18.690365 104.346008
38 0 1 2.077795 -18.301165 105.005005
39 0 1 2.303805 -17.752764 105.794983
40 0 1 2.221777 -16.785965 105.800995
41 0 1 2.982321 -16.588264 105.265015
42 0 1 2.241022 -16.430864 104.718018
43 0 1 1.701653 -16.700964 103.998993
44 0 1 1.319391 -15.892864 104.221985
45 0 1 1.994999 -15.232265 104.239990
46 0 1 2.362744 -14.347664 104.070007
47 0 1 2.065150 -14.048965 103.239014
48 0 1 1.124172 -14.160564 103.278015
49 0 1 1.072262 -13.141464 103.253998
50 0 1 0.829752 -12.226463 103.007996
51 0 1 1.649212 -11.978764 102.721985
52 0 1 2.389158 -12.205065 103.276001
53 0 1 3.251827 -12.353165 103.639008
54 0 1 3.874657 -12.711063 102.947998
55 0 1 4.464483 -13.329165 103.546997
56 0 1 5.002401 -14.142164 103.588013
57 0 1 4.997301 -13.938164 102.661987
58 0 1 5.624353 -14.662865 102.365997
59 0 1 5.552542 -15.459965 101.824005
60 0 1 5.090891 -15.388165 100.972992
61 0 1 5.659452 -15.364764 100.183990
62 0 1 5.941042 -14.671565 99.627197
63 0 1 6.667280 -14.379864 100.226013
64 0 1 5.825281 -13.834764 100.328003
65 0 1 6.010344 -13.609264 99.399689
66 0 1 5.219770 -13.285065 98.903900
67 0 1 4.358011 -12.908464 98.890015
68 0 1 3.831736 -13.675465 98.872986
69 0 1 2.916012 -13.992365 99.042694
70 0 1 2.228770 -13.974665 99.671692
71 0 1 2.172125 -14.922865 99.877991
72 0 1 2.262175 -15.078165 98.948792
73 0 1 2.243365 -15.974964 98.587891
74 0 1 2.259348 -16.913565 98.644196
75 0 1 1.503391 -17.330864 98.150909
76 0 1 0.711071 -17.841166 98.013489
77 0 1 1.510862 -18.373964 98.213104
78 0 1 1.375511 -18.425465 97.248718
79 0 1 0.884873 -18.923365 96.607391
80 0 1 0.215262 -19.435665 96.140106
81 0 1 -0.301397 -19.068264 95.471710
82 0 1 -0.897669 -19.322964 94.812988
83 0 1 -1.021318 -19.939865 94.079010
84 0 1 -0.339699 -20.412766 93.701904
85 0 1 0.488232 -20.204565 94.147491
86 0 1 0.256123 -21.067364 94.508209
87 0 1 -0.656927 -20.866064 94.602295
88 0 1 -1.172529 -21.628664 94.326416
89 0 1 -2.145618 -21.701464 94.270386
90 0 1 -3.048967 -21.841866 94.587402
91 0 1 -3.459089 -21.575064 95.400818
92 0 1 -4.289148 -21.451664 95.937683
93 0 1 -5.005388 -21.101765 95.302185
94 0 1 -4.953728 -21.891064 94.772308
95 0 1 -5.424198 -22.718966 94.901001
96 0 1 -5.957819 -22.756464 94.082489
97 0 1 -5.544588 -21.825264 93.841614
98 0 1 -5.947748 -20.949364 93.456482
99 0 1 -6.278608 -20.253565 92.941895
100 0 1 -7.178839 -20.112965 92.667297
101 0 1 -7.880239 -19.632364 92.249084
102 0 1 -7.269438 -18.958565 91.852417
103 0 1 -6.861488 -18.381264 91.239319
104 0 1 -7.539938 -18.305365 90.533905
105 0 1 -7.097858 -18.699364 89.792603
106 0 1 -7.252138 -19.628065 90.049805
107 0 1 -6.276937 -19.674065 90.108215
108 0 1 -6.585339 -19.435564 89.227997
109 0 1 -6.297319 -18.955265 88.426819
110 0 1 -5.871819 -19.669464 87.867798
111 0 1 -5.479300 -20.215364 87.219696
112 0 1 -5.409567 -21.059364 87.860596
113 0 1 -6.242418 -20.650866 88.296814
114 0 1 -6.691069 -21.549864 88.315491
115 0 1 -7.555738 -21.131865 88.127594
116 0 1 -7.551737 -22.076965 87.756287
117 0 1 -7.921938 -22.647465 87.022705
118 0 1 -7.525839 -22.617664 86.144714
119 0 1 -6.861898 -22.995865 85.482208
120 0 1 -6.174858 -22.410164 85.859711
121 0 1 -6.216127 -21.670364 86.647003
122 0 1 -5.801229 -21.183365 85.903595
123 0 1 -4.845978 -21.213865 86.073395
124 0 1 -5.195818 -21.733765 86.835815
125 0 1 -4.373888 -22.221565 86.865784
126 0 1 -4.079597 -22.563765 87.759308
127 0 1 -3.703758 -23.407665 87.501190
128 0 1 -3.593818 -24.248865 87.974091
129 0 1 -4.516359 -24.280865 87.928192
130 0 1 -4.290888 -24.759764 88.765503
131 0 1 -4.555208 -25.392464 89.408386
132 0 1 -4.404329 -26.347364 89.109314
133 0 1 -3.917997 -25.987265 88.362305
134 0 1 -2.973337 -25.879765 88.340515
135 0 1 -2.389837 -26.323765 88.917511
136 0 1 -3.043709 -25.826365 89.381500
137 0 1 -2.958137 -26.686064 89.767303
138 0 1 -3.502418 -27.199865 90.381500
139 0 1 -3.372198 -28.084364 90.738007
140 0 1 -2.548708 -28.275965 91.153809
141 0 1 -2.558887 -27.948664 92.013184
142 0 1 -2.167448 -27.049065 91.938782
143 0 1 -1.539078 -27.062065 91.180389
144 0 1 -1.137907 -27.865465 91.523102
145 0 1 -0.524708 -28.359165 90.912201
146 0 1 -0.478088 -29.007965 90.136597
147 0 1 -1.107107 -28.946264 89.395386
148 0 1 -1.085728 -28.926865 88.369904
149 0 1 -1.988428 -28.817865 88.023193
150 0 1 -2.755749 -28.227764 88.035583
151 0 1 -2.251749 -27.352865 88.143707
152 0 1 -1.970138 -26.949965 87.422089
153 0 1 -1.811668 -27.617964 86.686218
154 0 1 -1.393799 -28.294865 86.150299
155 0 1 -0.618479 -28.455965 85.483704
156 0 1 -0.296018 -27.863064 84.846008
157 0 1 0.416392 -27.538164 84.272583
158 0 1 -0.232038 -28.006664 83.741516
159 0 1 -0.270119 -28.432365 82.880981
160 0 1 -0.757559 -28.266764 82.017395
161 0 1 -1.636679 -28.250565 81.600800
162 0 1 -2.116869 -27.343664 81.485596
163 0 1 -2.146078 -26.499065 81.057617
164 0 1 -1.472658 -26.734264 80.400391
165 0 1 -2.045557 -27.089565 79.651611
166 0 1 -3.061197 -27.045164 79.604095
167 0 1 -2.666158 -26.144365 79.399109
168 0 1 -3.444278 -26.344364 78.904694
169 0 1 -3.638899 -25.438665 79.245392
170 0 1 -3.750028 -24.856264 78.456207
171 0 1 -3.085058 -24.436365 77.971313
172 0 1 -3.353557 -23.799564 77.343292
173 0 1 -3.000198 -24.582964 76.850403
174 0 1 -2.376228 -24.107565 76.384888
175 0 1 -1.531458 -24.680565 76.292908
176 0 1 -0.869589 -24.666265 75.560486
177 0 1 -1.198877 -23.775465 75.723602
178 0 1 -1.367647 -22.862665 75.674011
179 0 1 -1.730518 -22.817764 74.758118
180 0 1 -1.258327 -22.647366 73.930786
181 0 1 -1.412897 -22.404165 73.061005
182 0 1 -2.031057 -22.024364 73.650299
183 0 1 -2.423797 -21.295265 73.080383
184 0 1 -2.482069 -20.954365 72.144806
185 0 1 -2.000808 -20.163265 72.106384
186 0 1 -2.687608 -20.032665 72.768311
187 0 1 -2.685468 -19.063765 72.904114
188 0 1 -3.042467 -18.236065 72.951996
189 0 1 -3.835947 -17.683765 72.874298
190 0 1 -4.241987 -16.844965 73.149200
191 0 1 -4.172508 -16.641264 74.039917
192 0 1 -4.717518 -17.401764 74.390503
193 0 1 -5.307278 -17.522264 75.165009
194 0 1 -4.682699 -18.284266 75.130981
195 0 1 -3.991327 -18.328064 75.817291
196 0 1 -4.329258 -18.465965 76.803284
197 0 1 -4.560198 -17.773264 77.526001
198 0 1 -3.951597 -17.989864 78.234497
199 0 1 -3.531187 -17.639765 79.044312
200 0 1 -4.372549 -18.046965 79.187317
201 0 1 -5.238729 -17.629065 78.934906
202 0 1 -5.671408 -16.839264 78.607391
203 0 1 -5.972008 -15.981464 79.007019
204 0 1 -5.437979 -15.390064 78.355896
205 0 1 -6.030527 -14.649964 78.627502
206 0 1 -5.933718 -13.745365 78.726685
207 0 1 -5.518518 -14.126163 79.513397
208 0 1 -4.702009 -14.427464 79.886200
209 0 1 -4.323708 -15.285364 79.925415
210 0 1 -3.827228 -15.538964 80.699585
211 0 1 -2.954838 -15.633764 80.471619
212 0 1 -2.099527 -15.649665 80.049194
213 0 1 -1.476839 -15.149864 80.622589
214 0 1 -0.970379 -15.940965 80.821899
215 0 1 -0.276789 -16.525764 81.192017
216 0 1 -0.404388 -16.698164 80.270508
217 0 1 0.269411 -16.975164 79.562317
218 0 1 0.879482 -16.377365 79.069214
219 0 1 1.260382 -16.603464 78.239990
220 0 1 0.618912 -16.394665 77.570709
221 0 1 -0.297567 -16.121164 77.244690
222 0 1 -0.785799 -16.934864 77.298309
223 0 1 -0.145368 -16.978664 76.633789
224 0 1 0.548151 -16.717365 76.048889
225 0 1 1.081682 -15.887964 76.156006
226 0 1 1.511192 -15.714765 77.011597
227 0 1 1.318003 -14.898165 76.463013
228 0 1 2.195404 -14.704465 76.124695
229 0 1 2.854500 -14.887264 75.432892
230 0 1 3.786396 -14.474264 75.133209
231 0 1 3.657871 -14.721065 74.200409
232 0 1 2.715742 -14.631865 73.883698
233 0 1 1.881966 -14.097164 73.739899
234 0 1 1.292532 -14.850965 73.810089
235 0 1 0.912882 -14.220566 73.099304
236 0 1 0.132813 -14.326466 73.649689
237 0 1 0.237892 -15.167065 74.255310
238 0 1 0.339792 -15.896364 73.538208
239 0 1 0.496632 -16.721165 73.119598
240 0 1 0.115282 -16.333565 72.302704
241 0 1 0.883202 -16.277164 71.720001
242 0 1 1.290592 -17.123365 71.325989
243 0 1 0.546692 -17.073765 70.748718
244 0 1 0.611422 -17.826965 70.204407
245 0 1 1.222551 -18.633665 70.202698
246 0 1 1.874222 -17.891365 70.441101
247 0 1 2.214180 -17.075165 70.079712
248 0 1 2.292208 -16.151064 69.905518
249 0 1 2.340567 -15.671064 70.734589
250 0 1 2.540617 -15.121864 71.475189
251 0 1 2.137644 -14.511465 72.136108
252 0 1 2.022856 -14.115065 71.280792
253 0 1 1.208271 -14.112265 71.783508
254 0 1 0.539622 -13.550766 72.294891
255 0 1 0.440111 -12.728664 72.855286
256 0 1 1.007362 -12.027065 72.469910
257 0 1 0.975672 -11.176266 72.902802
258 0 1 1.203142 -10.596664 72.183502
259 0 1 1.816261 -10.213064 71.524902
260 0 1 2.443989 -9.484276 71.334412
261 0 1 3.228541 -9.760195 71.826202
262 0 1 4.130512 -9.576923 71.694885
263 0 1 4.024572 -9.089365 70.864685
264 0 1 3.330271 -8.834394 70.225403
265 0 1 3.648077 -9.466684 69.562897
266 0 1 4.554071 -9.213573 69.429382
267 0 1 4.669622 -8.479134 68.823181
268 0 1 3.680495 -8.389286 68.565399
269 0 1 3.721232 -9.114464 67.983398
270 0 1 3.144528 -8.602734 67.363403
271 0 1 2.587433 -8.548714 66.528015
272 0 1 2.704375 -7.612934 66.861511
273 0 1 2.467758 -7.252365 67.807983
274 0 1 2.571984 -6.695724 68.581787
275 0 1 1.674502 -6.313274 68.609894
276 0 1 1.319811 -5.917984 67.665009
277 0 1 2.147459 -5.407696 67.303497
278 0 1 2.264204 -4.884785 68.126801
279 0 1 1.727142 -4.216434 67.615784
280 0 1 1.014153 -4.133604 68.259094
281 0 1 0.151013 -3.976534 68.003601
282 0 1 0.107012 -3.334654 67.301086
283 0 1 -0.692068 -2.901184 67.192017
284 0 1 -1.568567 -3.080534 66.868896
285 0 1 -1.495869 -2.138605 67.062408
286 0 1 -0.647318 -1.976244 66.723083
287 0 1 -0.800638 -2.496775 65.915009
288 0 1 -1.567648 -2.835384 65.390808
289 0 1 -2.371038 -2.967815 64.985291
290 0 1 -2.501539 -3.497124 64.235291
291 0 1 -3.349737 -3.961954 63.967590
292 0 1 -3.902778 -4.064245 63.172485
293 0 1 -4.157839 -4.773745 62.647095
294 0 1 -5.050787 -4.533535 62.821411
295 0 1 -5.679369 -5.211245 62.537292
296 0 1 -6.297197 -5.116884 61.838989
297 0 1 -6.142538 -5.899805 61.290894
298 0 1 -5.965328 -5.957714 60.343384
299 0 1 -6.390198 -6.479794 59.635315
300 0 1 -5.895689 -6.113325 58.880310
301 0 1 -5.185148 -5.721865 58.323090
302 0 1 -5.569139 -4.905415 58.462311
303 0 1 -4.985899 -4.708185 57.759399
304 0 1 -5.039679 -4.540855 56.793884
305 0 1 -4.100779 -4.453815 56.435303
306 0 1 -3.420679 -4.366724 57.123901
307 0 1 -2.763168 -3.854374 57.669495
308 0 1 -3.021368 -3.088804 58.198212
309 0 1 -3.647018 -2.573875 58.664093
310 0 1 -2.736988 -2.204025 58.912598
311 0 1 -2.435007 -2.179674 57.980103
312 0 1 -1.644617 -2.693985 58.120911
313 0 1 -1.295109 -2.728405 59.025787
314 0 1 -0.745138 -3.198484 58.392883
315 0 1 -0.042969 -3.554085 57.809814
316 0 1 0.928553 -3.432915 57.640991
317 0 1 1.426312 -3.417614 56.791504
318 0 1 1.902798 -3.843414 56.052887
319 0 1 2.264277 -2.971565 56.261902
320 0 1 2.281960 -2.107574 55.882599
321 0 1 1.498633 -1.497604 56.119690
322 0 1 0.843783 -1.581125 56.842712
323 0 1 1.246771 -1.032402 57.529785
324 0 1 1.781773 -0.316551 57.374390
325 0 1 2.290903 -0.697153 58.056091
326 0 1 2.857064 -1.446844 58.384216
327 0 1 3.470310 -1.046347 57.774597
328 0 1 4.085451 -0.988548 58.540802
329 0 1 3.654955 -1.285545 59.318787
330 0 1 4.156202 -1.931314 59.880096
331 0 1 4.588850 -2.060745 59.028015
332 0 1 5.130663 -1.265324 58.881714
333 0 1 5.833120 -1.914375 58.912811
334 0 1 6.328501 -2.739185 59.044800
335 0 1 7.042002 -2.867535 58.403992
336 0 1 7.215860 -3.376604 57.583405
337 0 1 6.308493 -3.075155 57.646393
338 0 1 5.784472 -3.764194 58.106293
339 0 1 5.748842 -4.182835 58.979706
340 0 1 6.035063 -5.060314 58.973389
341 0 1 6.492521 -5.509415 59.715088
342 0 1 5.760973 -5.041794 60.399811
343 0 1 5.374063 -4.342905 60.837402
344 0 1 4.632303 -4.936115 60.499817
345 0 1 4.024523 -4.687263 59.795502
346 0 1 3.275110 -4.566074 59.242615
347 0 1 3.588049 -4.817863 58.368103
348 0 1 4.317652 -5.307135 57.899994
349 0 1 4.561510 -5.903275 57.236816
350 0 1 5.292963 -5.324505 57.433807
351 0 1 5.874964 -5.842995 56.785706
352 0 1 5.851320 -5.098635 56.231201
353 0 1 6.569151 -5.815624 56.000092
354 0 1 6.865782 -6.466005 56.676300
355 0 1 7.598940 -5.985966 56.989197
356 0 1 7.720312 -5.833994 56.066498
357 0 1 8.167322 -6.228355 55.297485
358 0 1 8.827101 -6.880995 54.933807
359 0 1 8.229280 -7.646324 54.913391
360 0 1 7.397432 -7.797184 54.567017
361 0 1 7.648951 -8.636036 54.967102
362 0 1 7.766031 -9.514225 54.707611
363 0 1 7.676180 -9.728474 53.765991
364 0 1 8.591311 -10.106846 53.898102
365 0 1 8.977552 -9.909134 53.021606
366 0 1 9.448832 -9.681814 52.233002
367 0 1 8.576483 -9.888836 52.014008
368 0 1 8.814253 -9.120825 51.451813
369 0 1 9.001043 -8.407413 50.871704
370 0 1 9.204370 -8.952345 50.041199
371 0 1 9.085382 -8.635513 49.136902
372 0 1 9.291620 -7.761354 48.756897
373 0 1 9.897020 -7.095634 49.153503
374 0 1 10.136911 -7.762465 49.805908
375 0 1 10.935854 -7.758675 49.248108
376 0 1 11.425013 -8.430374 48.676605
377 0 1 11.631632 -8.941624 47.802795
378 0 1 12.512644 -9.157906 47.628113
379 0 1 12.539793 -8.867794 48.494690
380 0 1 12.291224 -8.318676 49.273315
381 0 1 12.107641 -8.178856 50.188507
382 0 1 11.938410 -7.187904 50.318115
383 0 1 11.152033 -6.711445 50.084595
384 0 1 11.112341 -6.629774 49.148590
385 0 1 11.402472 -6.569485 48.271484
386 0 1 11.440931 -5.749685 48.693695
387 0 1 11.783854 -5.327755 48.013184
388 0 1 11.784700 -5.760895 47.122314
389 0 1 11.751432 -6.433075 46.329193
390 0 1 11.695753 -6.553574 45.392609
391 0 1 12.597822 -6.451534 45.411804
392 0 1 12.224791 -5.538004 45.147308
393 0 1 12.617361 -5.356585 44.285492
394 0 1 11.554090 -5.342735 44.386597
395 0 1 11.521521 -6.057125 43.697388
396 0 1 11.736982 -6.888624 44.084198
397 0 1 12.007242 -7.549454 44.745392
398 0 1 12.228304 -7.831486 45.658386
399 0 1 13.047663 -7.350035 45.804993
400 0 1 13.829660 -7.882244 45.756195
401 0 1 14.044962 -8.328424 44.868805
402 0 1 15.002863 -7.951025 44.643494
403 0 1 15.638163 -8.132515 43.858398
404 0 1 15.582964 -8.397984 42.901093
405 0 1 15.645361 -9.334354 43.257294
406 0 1 16.585161 -9.313345 43.496887
407 0 1 17.350061 -8.795456 43.441589
408 0 1 17.218462 -8.155434 42.756592
409 0 1 16.932661 -7.430553 42.179016
410 0 1 16.550863 -6.800236 41.579895
411 0 1 15.704363 -6.225674 41.326599
412 0 1 16.343161 -5.553284 41.543488
413 0 1 15.500963 -5.021873 41.691711
414 0 1 14.571062 -5.112125 41.609894
415 0 1 13.643263 -4.596725 41.455597
416 0 1 13.560061 -3.550894 41.291107
417 0 1 13.389761 -2.643774 41.744507
418 0 1 13.617163 -1.773134 42.130188
419 0 1 14.057863 -1.145805 41.536499
420 0 1 13.151762 -0.981754 41.342590
421 0 1 13.187960 -0.044672 41.760712
422 0 1 12.825201 0.839205 41.471008
423 0 1 13.654360 1.362415 41.431885
424 0 1 14.124762 1.515114 40.512787
425 0 1 14.581861 2.158894 41.120483
426 0 1 15.503561 2.076694 41.310699
427 0 1 16.468863 2.037224 41.352295
428 0 1 16.302061 2.307156 40.377502
429 0 1 17.168562 2.409157 39.940796
430 0 1 17.070162 3.245235 39.498291
431 0 1 16.470861 3.493687 40.268188
432 0 1 16.619860 3.067505 41.106995
433 0 1 17.497961 3.129536 40.733002
434 0 1 18.156862 3.369556 40.124695
435 0 1 17.656862 4.169636 39.895813
436 0 1 17.806162 5.158794 39.995911
437 0 1 18.035162 5.794556 40.698090
438 0 1 17.019564 5.920574 40.550507
439 0 1 16.535761 6.542847 41.119202
440 0 1 16.716463 7.219055 40.406311
441 0 1 15.728060 7.002316 40.476807
442 0 1 16.002962 6.154015 39.959412
443 0 1 15.557062 6.757576 39.368713
444 0 1 15.308962 7.649185 39.056213
445 0 1 14.508760 7.803085 39.676697
446 0 1 13.840464 7.870884 40.458405
447 0 1 14.371363 8.625256 40.798309
448 0 1 15.158663 8.700977 40.356995
449 0 1 15.071562 9.668507 40.117401
450 0 1 14.109663 9.860287 40.116608
451 0 1 13.656462 8.985985 40.042694
452 0 1 12.844351 8.691517 39.730011
453 0 1 12.370131 8.118336 39.070099
454 0 1 11.454000 8.138256 39.260498
455 0 1 10.557261 8.052765 39.386597
456 0 1 9.938120 8.127438 38.691101
457 0 1 9.695440 7.255676 38.294098
458 0 1 10.036093 7.653576 37.519012
459 0 1 9.200090 8.231724 37.435211
460 0 1 8.801901 7.606094 36.752686
461 0 1 9.276152 6.728256 36.511505
462 0 1 8.895411 5.836864 36.514709
463 0 1 8.554010 5.379124 35.740295
464 0 1 8.096163 5.933155 35.080811
465 0 1 7.975370 5.007015 34.890503
466 0 1 8.034063 5.520077 34.090790
467 0 1 8.567831 6.212807 33.647095
468 0 1 7.938631 6.380676 32.970306
469 0 1 8.256670 7.229744 32.764099
470 0 1 9.081934 7.003574 32.307892
471 0 1 9.259844 7.868717 31.873198
472 0 1 9.152353 8.855717 32.103394
473 0 1 8.697752 9.547688 31.587797
474 0 1 8.798471 8.990356 30.849913
475 0 1 7.841352 8.959827 31.218382
476 0 1 7.170382 8.897984 31.918699
477 0 1 7.777391 9.422848 32.393311
478 0 1 7.100111 10.156036 32.386505
479 0 1 6.188971 10.571636 32.609711
480 0 1 6.241671 10.778336 31.635191
481 0 1 6.314814 11.699234 31.930998
482 0 1 5.434332 11.766933 31.659208
483 0 1 5.381304 12.395836 32.391113
484 0 1 5.154371 12.639336 33.345398
485 0 1 4.779432 12.821835 34.173187
486 0 1 4.193062 13.342533 33.545593
487 0 1 4.422171 14.011536 34.152802
488 0 1 4.121302 14.850037 34.642395
489 0 1 3.516945 15.181335 33.977203
490 0 1 2.689497 14.720936 34.109894
491 0 1 1.997900 15.305035 34.544800
492 0 1 1.090721 15.382336 34.826294
493 0 1 0.972443 14.690834 35.591888
494 0 1 0.373741 15.167538 36.069214
495 0 1 0.703402 15.964237 35.671600
496 0 1 0.185702 16.736935 35.524689
497 0 1 0.995571 16.912037 36.023193
498 0 1 0.342322 17.474834 36.453094
499 0 1 1.166613 17.999836 36.576813
500 0 1 1.414251 18.510635 35.863800
501 0 1 0.612963 18.709435 35.431488
502 0 1 0.321522 19.620735 35.411591
503 0 1 0.934813 20.203335 35.001892
504 0 1 1.811842 20.534733 34.770294
505 0 1 1.334643 20.187836 34.029907
506 0 1 1.211441 20.386837 33.144897
507 0 1 0.218653 20.182636 33.259003
508 0 1 0.455582 19.254135 33.011597
509 0 1 0.281761 19.012737 32.072601
510 0 1 -0.438448 18.383533 31.757505
511 0 1 -1.220907 18.990135 31.691893
512 0 1 -1.097479 18.724934 32.679688
513 0 1 -0.547638 19.082638 33.367310
514 0 1 -0.610887 18.480633 34.122498
515 0 1 -1.581238 18.083736 34.166016
516 0 1 -1.887508 17.236435 33.760406
517 0 1 -1.585129 16.791336 32.919006
518 0 1 -1.698267 15.975536 33.354187
519 0 1 -2.465688 15.563137 32.825897
520 0 1 -3.397188 15.227837 32.574005
521 0 1 -4.090168 14.554836 32.450684
522 0 1 -3.467859 13.973236 31.994200
523 0 1 -3.894397 13.111534 31.781096
524 0 1 -3.560238 12.358635 31.272703
525 0 1 -3.781389 12.129536 30.343596
526 0 1 -3.952978 11.247635 29.967497
527 0 1 -4.646719 11.638638 29.366514
528 0 1 -4.579018 11.253536 28.449583
529 0 1 -4.397058 10.612835 27.721891
530 0 1 -4.802568 10.871136 26.868010
531 0 1 -5.488258 10.556435 26.187498
532 0 1 -6.460468 10.507835 26.326902
533 0 1 -6.398718 10.194336 25.390989
534 0 1 -6.754938 10.993137 25.047911
535 0 1 -6.285509 10.469234 24.394407
536 0 1 -5.477949 10.771236 24.748808
537 0 1 -4.756578 10.255135 24.401396
538 0 1 -4.362997 9.311455 24.554808
539 0 1 -4.035969 8.395725 24.632811
540 0 1 -4.197678 7.967995 23.803404
541 0 1 -3.610538 8.004814 23.086088
542 0 1 -2.675419 8.216415 23.325010
543 0 1 -1.902508 8.632614 23.613707
544 0 1 -2.110887 9.524166 23.336485
545 0 1 -2.567209 10.384735 23.240812
546 0 1 -2.686138 11.292736 23.551207
547 0 1 -1.699219 10.977036 23.948790
548 0 1 -0.955578 10.716038 23.319487
549 0 1 -0.172909 10.998135 23.828001
550 0 1 -0.321657 11.759434 23.255613
551 0 1 -0.056078 12.328236 22.545195
552 0 1 -0.760938 12.965336 22.623899
553 0 1 -0.387817 13.647934 21.990492
554 0 1 -0.439628 14.570538 22.156599
555 0 1 0.098011 15.364635 22.266905
556 0 1 0.830342 15.710537 21.794493
557 0 1 0.712881 16.673935 22.052595
558 0 1 1.261412 17.491634 22.372297
559 0 1 1.454613 18.371735 21.907301
560 0 1 1.561663 17.632534 21.329695
561 0 1 1.008383 17.553936 20.538099
562 0 1 0.217022 18.010536 20.957396
563 0 1 0.368773 18.789433 20.344694
564 0 1 0.276133 17.993237 19.778990
565 0 1 0.173483 17.856533 18.862501
566 0 1 0.482552 17.721035 17.964293
567 0 1 1.040861 16.930233 17.883101
568 0 1 0.421332 16.774136 18.623304
569 0 1 -0.405228 17.029335 18.968992
570 0 1 -0.644758 16.527935 19.764494
571 0 1 0.256891 16.120037 19.757902
572 0 1 0.754152 15.267437 19.616392
573 0 1 0.400492 14.375237 19.696898
574 0 1 -0.358349 14.235435 20.373899
575 0 1 -1.235039 14.756836 20.259092
576 0 1 -1.866728 15.168636 20.855101
577 0 1 -2.080438 14.271137 20.846601
578 0 1 -2.502279 14.643833 21.715498
579 0 1 -2.706918 13.696136 21.754103
580 0 1 -3.615108 13.347637 21.896894
581 0 1 -4.094358 13.148537 21.103102
582 0 1 -4.961409 13.675835 20.885298
583 0 1 -4.904947 14.505733 20.437696
584 0 1 -5.678968 14.356037 20.994093
585 0 1 -6.473589 13.830536 20.660200
586 0 1 -6.862158 14.023136 21.524794
587 0 1 -7.176138 13.209034 21.052504
588 0 1 -6.792948 12.450634 20.608793
589 0 1 -6.640429 11.481434 20.722395
590 0 1 -6.075617 11.379833 21.453505
591 0 1 -5.454237 10.757736 21.145094
592 0 1 -5.772398 10.513535 22.085493
593 0 1 -6.059389 9.632343 21.785704
594 0 1 -6.411459 9.223854 20.904905
595 0 1 -6.355228 8.353184 20.555296
596 0 1 -7.115099 8.889755 20.221205
597 0 1 -7.531338 8.885155 19.413099
598 0 1 -7.166039 7.987366 19.357405
599 0 1 -7.263437 7.786823 18.456999
600 0 1 -6.853529 8.518696 18.034498
601 0 1 -7.030848 9.046505 17.222502
602 0 1 -6.216528 9.531746 17.139494
603 0 1 -5.622248 8.995197 16.533293
604 0 1 -6.127317 9.742126 16.096800
605 0 1 -5.516298 10.451836 16.426298
606 0 1 -4.596899 10.596638 16.033506
607 0 1 -5.048109 11.216137 15.401900
608 0 1 -4.977768 10.560036 14.680800
609 0 1 -4.229597 11.097534 14.391494
610 0 1 -3.500248 10.693336 13.807601
611 0 1 -3.916588 10.216534 13.087295
612 0 1 -4.742119 10.559834 12.726302
613 0 1 -5.483038 10.088238 12.599303
614 0 1 -6.072218 10.853733 12.326293
615 0 1 -5.795118 11.349934 11.513900
616 0 1 -5.409538 11.568634 10.692992
617 0 1 -6.009768 11.726337 9.871795
618 0 1 -6.447628 11.840736 10.748794
619 0 1 -5.891359 12.422836 11.263091
620 0 1 -6.068068 13.119038 10.603805
621 0 1 -6.797197 13.473736 11.154799
622 0 1 -7.362938 13.857334 10.460692
623 0 1 -7.864738 13.667034 9.682616
624 0 1 -8.291639 14.013535 8.864226
625 0 1 -8.671938 14.127235 8.008544
626 0 1 -8.915838 13.296135 8.401717
627 0 1 -9.615738 12.946537 7.774382
628 0 1 -10.363338 12.535633 8.211333
629 0 1 -11.061438 13.307434 8.226638
630 0 1 -11.969738 13.689636 8.200561
631 0 1 -11.320438 14.313736 7.881194
632 0 1 -10.776739 14.597637 7.173674
633 0 1 -9.973837 15.151436 7.010787
634 0 1 -10.254637 15.462536 6.143431
635 0 1 -10.367739 16.410534 6.549620
636 0 1 -11.268738 16.554035 6.716063
637 0 1 -11.880638 17.140636 6.343886
638 0 1 -11.875738 17.924335 6.962630
639 0 1 -11.266237 18.055035 7.684630
640 0 1 -11.317638 18.754734 8.281920
641 0 1 -10.566339 18.265034 8.738967
642 0 1 -10.198637 17.363834 8.704955
643 0 1 -9.921537 16.479736 8.582473
644 0 1 -10.036238 16.555435 9.571212
645 0 1 -10.649239 15.829536 9.322127
646 0 1 -11.159239 16.038734 10.091704
647 0 1 -10.515337 15.765034 10.831100
648 0 1 -10.881739 16.600735 11.181792
649 0 1 -10.572039 16.907536 12.056701
650 0 1 -11.080339 16.657238 12.847701
651 0 1 -11.958738 16.575634 13.322997
652 0 1 -12.012938 16.770138 14.228698
653 0 1 -12.363938 16.424335 15.001693
654 0 1 -13.065138 16.041935 14.573897
655 0 1 -13.143337 15.129135 14.415206
656 0 1 -13.010438 14.678333 13.537993
657 0 1 -13.084639 13.800037 13.764693
658 0 1 -13.761438 13.549236 13.040206
659 0 1 -13.586739 12.720333 12.540099
660 0 1 -13.168238 12.772736 13.433394
661 0 1 -13.334639 12.559338 14.369506
662 0 1 -13.008438 11.907936 14.959594
663 0 1 -13.772339 12.312737 15.434096
664 0 1 -13.459337 13.234936 15.460601
665 0 1 -14.170938 13.766537 15.812896
666 0 1 -13.998238 14.662136 15.445006
667 0 1 -14.915739 14.670834 15.739303
668 0 1 -14.852839 14.232334 14.814391
669 0 1 -15.760038 14.368336 14.545501
670 0 1 -16.062939 15.293835 14.464797
671 0 1 -16.169039 15.447834 13.512298
672 0 1 -16.740238 15.447536 12.656203
673 0 1 -16.424438 14.790737 11.946303
674 0 1 -15.587938 15.142136 12.225402
675 0 1 -14.634638 14.821033 12.289001
676 0 1 -13.819239 15.009335 11.778304
677 0 1 -13.302738 14.650738 12.486999
678 0 1 -12.424138 14.683037 12.145995
679 0 1 -12.846338 14.510937 11.376891
680 0 1 -13.219238 14.334736 10.479003
681 0 1 -14.154737 14.420437 10.662398
682 0 1 -14.581238 15.076736 10.129302
683 0 1 -15.110138 15.297634 9.341918
684 0 1 -14.639137 14.481735 8.991485
685 0 1 -14.381838 14.971737 8.224822
686 0 1 -13.536438 14.784035 7.915480
687 0 1 -14.116638 14.959133 7.171248
688 0 1 -15.075539 14.781536 7.414122
689 0 1 -15.935339 14.419334 7.291106
690 0 1 -16.685537 13.978134 7.094923
691 0 1 -16.638838 14.703236 6.462325
692 0 1 -17.193237 15.183437 5.753020
693 0 1 -17.113838 15.607937 6.607512
694 0 1 -17.020239 16.483234 6.221480
695 0 1 -16.193138 16.489933 6.602583
696 0 1 -16.809938 16.435436 7.369643
697 0 1 -17.429138 17.157337 7.708434
698 0 1 -17.253239 16.946835 8.770980
699 0 1 -17.399038 17.879936 8.998763
700 0 1 -16.462738 18.289738 9.144042
701 0 1 -16.397139 17.875233 8.273681
702 0 1 -15.955238 17.328533 7.576323
703 0 1 -15.804237 17.596035 6.627226
704 0 1 -15.045837 17.475735 6.143141
705 0 1 -14.914238 16.535336 5.763609
706 0 1 -14.471638 15.804935 6.171477
707 0 1 -15.395538 15.694134 6.390730
708 0 1 -15.151438 14.915836 5.814131
709 0 1 -14.484339 14.270435 5.982146
710 0 1 -13.647139 13.850536 6.210005
711 0 1 -12.810138 13.430737 5.961241
712 0 1 -12.681038 14.008736 5.162718
713 0 1 -12.146038 13.862133 4.363585
714 0 1 -12.142738 13.379536 3.582091
715 0 1 -12.458438 14.333736 3.510817
716 0 1 -13.323439 14.176334 3.046996
717 0 1 -13.553537 13.325535 3.424575
718 0 1 -13.836939 12.351536 3.326705
719 0 1 -13.182238 11.714935 3.515013
720 0 1 -12.562238 11.273537 2.975936
721 0 1 -11.661238 11.185436 2.691222
722 0 1 -11.413738 10.268337 2.541823
723 0 1 -12.018538 10.040035 3.276702
724 0 1 -11.977038 10.279236 4.173415
725 0 1 -11.623738 9.389416 4.393767
726 0 1 -10.971539 9.420357 5.079146
727 0 1 -10.674438 8.801487 4.376616
728 0 1 -10.183237 7.948864 4.639632
729 0 1 -9.334238 7.470875 4.468733
730 0 1 -8.586237 8.154484 4.725401
731 0 1 -7.918737 8.690136 5.164244
732 0 1 -7.755138 7.730057 5.292891
733 0 1 -8.075037 8.016033 6.177718
734 0 1 -7.207338 8.439426 6.300932
735 0 1 -7.704739 8.402786 7.190321
736 0 1 -8.235937 7.974773 7.907530
737 0 1 -8.943438 8.252014 7.369719
738 0 1 -8.979538 8.606216 6.406203
739 0 1 -9.212038 9.497536 6.144896
740 0 1 -8.692839 9.799404 5.465239
741 0 1 -8.150339 10.275738 4.784804
742 0 1 -7.718039 9.457836 4.507475
743 0 1 -7.009317 8.746315 4.300627
744 0 1 -6.844519 9.201336 5.121474
745 0 1 -6.084028 8.595646 5.253920
746 0 1 -5.853399 7.937946 5.895140
747 0 1 -6.002657 7.071457 5.534972
748 0 1 -6.649389 6.756287 6.081542
749 0 1 -6.756647 5.931416 6.548415
750 0 1 -7.312838 5.632565 7.217482
751 0 1 -6.411257 5.386467 7.418044
752 0 1 -6.174368 4.450844 7.258391
753 0 1 -5.651138 4.572464 6.455962
754 0 1 -5.210077 3.960915 7.087538
755 0 1 -4.638258 3.814495 6.251830
756 0 1 -4.188488 2.949306 6.116789
757 0 1 -3.298778 3.322353 6.154097
758 0 1 -3.167448 2.707577 5.448378
759 0 1 -2.268919 2.364845 5.319823
760 0 1 -1.585409 1.993347 5.889708
761 0 1 -1.490948 1.535694 6.741515
762 0 1 -2.247617 1.052876 6.402571
763 0 1 -3.002598 0.493712 6.544234
764 0 1 -3.014127 -0.363220 7.081084
765 0 1 -3.721088 -0.915878 7.045928
766 0 1 -3.986149 -1.362375 7.901427
767 0 1 -4.916479 -1.033733 7.683470
768 0 1 -5.276567 -1.024887 6.835402
769 0 1 -6.114628 -1.566055 6.989485
770 0 1 -6.860319 -2.173954 6.762282
771 0 1 -6.894289 -3.163355 6.637511
772 0 1 -6.635618 -4.096764 6.844023
773 0 1 -6.841368 -4.771765 6.148360
774 0 1 -5.932577 -4.825405 5.702162
775 0 1 -6.433310 -4.880985 4.806685
776 0 1 -6.607027 -5.073935 3.858306
777 0 1 -7.478638 -5.326756 4.182250
778 0 1 -7.693838 -5.988375 3.549346
779 0 1 -8.142738 -6.814295 3.501372
780 0 1 -8.959238 -7.101105 4.021712
781 0 1 -9.525137 -7.376184 3.291442
782 0 1 -9.033537 -8.174385 3.442763
783 0 1 -9.679739 -8.832893 3.680724
784 0 1 -10.496840 -9.096794 3.260527