LAMMPS data file via MDAnalysis

        2000  atoms
        1999  bonds
           0  angles
           0  dihedrals
           0  impropers

           1  atom types
           1  bond types
           0  angle types
           0  dihedral types
           0  improper types

-30.5 30.5 xlo xhi
-30.5 30.5 ylo yhi
-233.5 233.5 zlo zhi


Masses

1 1.000000

Atoms

1 0 1 19.168259 -17.742788 53.215088
2 0 1 19.161861 -18.355389 52.466492
3 0 1 18.304958 -18.305189 52.173584
4 0 1 17.765957 -17.465590 52.312683
5 0 1 17.199261 -17.936388 52.958313
6 0 1 16.786457 -17.425089 53.638306
7 0 1 15.810760 -17.178289 53.314392
8 0 1 15.732357 -17.445589 52.432709
9 0 1 15.786758 -17.290588 51.442810
10 0 1 15.890160 -16.488989 50.845001
11 0 1 15.135860 -17.036489 50.565399
12 0 1 14.266159 -16.696590 50.803101
13 0 1 13.828457 -17.176388 51.549103
14 0 1 13.010460 -16.830288 51.942902
15 0 1 12.174858 -16.455790 52.290497
16 0 1 11.397091 -16.243988 52.830688
17 0 1 11.017139 -17.178289 52.658905
18 0 1 10.130939 -17.090889 52.370087
19 0 1 10.155029 -16.821188 53.279114
20 0 1 10.746189 -16.325390 53.822906
21 0 1 11.381847 -15.729488 54.275391
22 0 1 11.586201 -15.364389 53.403015
23 0 1 11.550411 -14.428490 53.270905
24 0 1 11.969181 -14.226389 54.093994
25 0 1 11.672878 -14.427689 55.035095
26 0 1 12.610661 -14.201590 54.989899
27 0 1 13.285160 -14.546589 55.603302
28 0 1 13.661758 -15.004290 54.838684
29 0 1 14.528759 -15.109188 54.530701
30 0 1 14.970257 -14.804989 53.752991
31 0 1 14.059261 -15.134789 53.603912
32 0 1 14.083260 -14.688789 52.784485
33 0 1 14.984959 -14.857189 52.608093
34 0 1 15.400959 -15.733789 52.516388
35 0 1 14.650661 -16.072390 52.904510
36 0 1 14.887360 -16.776690 52.274292
37 0 1 14.583660 -17.612389 52.612091
38 0 1 15.079659 -18.399990 52.224915
39 0 1 14.511559 -18.757290 51.507904
40 0 1 15.184261 -19.431889 51.781799
41 0 1 15.760258 -19.262690 52.562683
42 0 1 15.413960 -19.944889 53.149292
43 0 1 14.644859 -20.391489 52.848297
44 0 1 14.255657 -20.334589 51.960907
45 0 1 13.610561 -20.396790 51.191498
46 0 1 12.692661 -20.157188 51.001709
47 0 1 12.053761 -20.324389 50.352692
48 0 1 11.799961 -20.643589 51.232697
49 0 1 11.290840 -21.464190 51.143005
50 0 1 11.785000 -22.140490 51.673889
51 0 1 12.670860 -22.050089 51.933990
52 0 1 13.525158 -22.099588 51.464905
53 0 1 13.747459 -23.017790 51.718201
54 0 1 13.622959 -23.184189 50.773895
55 0 1 12.696758 -23.066990 50.633911
56 0 1 12.272961 -23.891088 50.565399
57 0 1 12.111057 -24.740589 51.003387
58 0 1 12.764660 -25.292290 51.446899
59 0 1 12.512959 -25.935789 50.691193
60 0 1 11.595898 -25.928289 50.552704
61 0 1 10.940250 -26.525389 50.610901
62 0 1 10.295029 -27.143888 50.250916
63 0 1 9.700039 -27.553089 50.904114
64 0 1 8.851757 -27.715389 51.419495
65 0 1 8.568970 -26.821089 51.387085
66 0 1 8.542229 -26.041288 50.828491
67 0 1 8.068478 -25.587889 50.077698
68 0 1 7.478210 -24.843390 49.608002
69 0 1 7.719280 -24.281790 50.319885
70 0 1 7.393787 -23.374788 50.269196
71 0 1 7.454838 -22.461790 50.352905
72 0 1 6.594761 -22.402489 49.929108
73 0 1 6.548988 -22.162390 50.899689
74 0 1 5.691181 -22.380890 51.359314
75 0 1 5.522209 -23.257889 51.146484
76 0 1 5.051929 -23.460890 52.000397
77 0 1 4.707558 -22.776190 52.654114
78 0 1 4.531441 -21.935789 53.140503
79 0 1 4.325378 -21.363390 53.836487
80 0 1 3.834667 -20.510389 53.842499
81 0 1 3.454630 -19.918890 53.187897
82 0 1 2.857742 -19.280890 52.887390
83 0 1 2.376598 -19.252190 53.765808
84 0 1 2.550508 -18.361589 53.433990
85 0 1 2.104328 -18.455688 52.606903
86 0 1 1.324503 -18.337688 52.064789
87 0 1 0.679119 -17.878189 51.549011
88 0 1 -0.083620 -17.295488 51.279785
89 0 1 -0.552641 -17.929289 50.707306
90 0 1 -0.486201 -18.937590 50.649811
91 0 1 -1.424141 -18.985390 50.455109
92 0 1 -2.102612 -19.287989 49.825104
93 0 1 -2.647471 -19.005289 49.139191
94 0 1 -3.378062 -19.270288 48.607300
95 0 1 -4.284081 -19.110689 48.323090
96 0 1 -5.106001 -18.746090 47.830017
97 0 1 -4.268730 -18.663889 47.302612
98 0 1 -4.334711 -18.325689 46.417694
99 0 1 -4.382511 -17.388588 46.357910
100 0 1 -3.777001 -16.721889 45.987488
101 0 1 -3.492161 -17.106588 45.193298
102 0 1 -3.284891 -17.324589 44.289093
103 0 1 -4.276430 -17.471388 44.367706
104 0 1 -5.013861 -17.058390 44.812408
105 0 1 -5.458281 -17.953789 45.000916
106 0 1 -6.156261 -18.513489 44.498413
107 0 1 -5.934582 -19.356190 44.028198
108 0 1 -6.520012 -19.471590 44.793396
109 0 1 -7.390381 -19.832489 45.048492
110 0 1 -7.279892 -20.205589 45.990387
111 0 1 -7.716042 -19.595388 46.752594
112 0 1 -7.353222 -18.883490 46.235809
113 0 1 -6.777710 -18.125189 46.099609
114 0 1 -7.051441 -17.337189 46.491089
115 0 1 -7.467381 -17.182388 45.610809
116 0 1 -7.679541 -17.041588 44.648102
117 0 1 -6.721600 -17.264189 44.930389
118 0 1 -6.783611 -16.358891 44.647095
119 0 1 -7.339180 -16.505390 43.880188
120 0 1 -6.604530 -16.031090 43.411102
121 0 1 -5.893070 -16.488388 43.882294
122 0 1 -5.253981 -16.385090 43.174103
123 0 1 -5.468552 -15.674690 42.554596
124 0 1 -5.859121 -16.360889 42.015015
125 0 1 -6.490801 -16.908789 41.542603
126 0 1 -6.651051 -17.463789 42.335602
127 0 1 -7.618351 -17.543388 42.307495
128 0 1 -7.475952 -17.926388 41.372101
129 0 1 -7.463821 -18.218889 40.514801
130 0 1 -6.899040 -17.867088 39.837402
131 0 1 -7.243031 -18.528889 39.333710
132 0 1 -8.151541 -18.361990 39.169403
133 0 1 -8.518341 -17.841789 38.438416
134 0 1 -8.452240 -17.511589 37.542114
135 0 1 -8.842241 -16.716888 37.442505
136 0 1 -9.296141 -16.528389 38.286102
137 0 1 -8.477840 -16.724388 38.841400
138 0 1 -8.602041 -16.705889 39.767700
139 0 1 -7.830761 -16.941189 40.215088
140 0 1 -7.298691 -16.157688 39.829193
141 0 1 -6.866381 -15.272490 39.899506
142 0 1 -6.093441 -14.642788 40.136414
143 0 1 -5.152000 -14.647190 39.813416
144 0 1 -5.016161 -14.171688 38.968994
145 0 1 -5.035431 -13.890388 38.024414
146 0 1 -4.591591 -13.832588 37.169800
147 0 1 -4.195070 -13.433889 36.473816
148 0 1 -3.348391 -13.061190 36.192688
149 0 1 -2.904511 -12.245258 36.063202
150 0 1 -3.546681 -11.982229 36.778107
151 0 1 -3.081991 -11.316250 37.341187
152 0 1 -2.525381 -11.896519 38.041595
153 0 1 -3.326912 -12.478088 37.902313
154 0 1 -3.550501 -13.386890 37.892700
155 0 1 -3.183090 -14.280489 37.710693
156 0 1 -2.193590 -14.360390 37.646484
157 0 1 -1.859070 -14.282890 36.779205
158 0 1 -1.929192 -15.116789 36.270599
159 0 1 -1.252920 -15.117290 35.508087
160 0 1 -1.088921 -15.824390 36.133484
161 0 1 -0.592920 -16.501089 36.539185
162 0 1 0.279459 -17.112188 36.769897
163 0 1 0.674669 -17.865189 37.207611
164 0 1 0.782808 -17.876589 38.136688
165 0 1 0.514589 -16.984388 38.351501
166 0 1 1.205830 -17.030088 39.097290
167 0 1 1.958797 -16.671188 39.552307
168 0 1 1.631460 -15.816689 40.026184
169 0 1 1.446274 -15.051889 40.543091
170 0 1 1.203194 -14.110189 40.329803
171 0 1 2.017421 -13.676489 40.381592
172 0 1 1.700649 -13.372990 39.533600
173 0 1 1.334429 -12.475090 39.207703
174 0 1 2.267011 -12.510889 39.220490
175 0 1 2.856300 -13.213089 38.941895
176 0 1 3.687279 -13.593090 38.569489
177 0 1 4.198990 -13.325289 37.835815
178 0 1 4.685238 -13.307789 37.010010
179 0 1 5.322670 -13.412689 36.334106
180 0 1 5.768490 -12.542191 36.371002
181 0 1 5.205639 -11.863098 36.042206
182 0 1 5.783161 -11.332020 36.634888
183 0 1 5.042400 -11.946739 37.073212
184 0 1 5.365700 -12.233078 37.918793
185 0 1 5.941959 -12.933189 38.077789
186 0 1 6.365089 -12.609589 37.317596
187 0 1 7.387421 -12.578590 37.234100
188 0 1 8.128880 -13.156990 37.483887
189 0 1 8.039948 -13.262390 38.439301
190 0 1 8.921879 -12.810890 38.605896
191 0 1 9.019077 -13.606489 37.941803
192 0 1 9.961369 -13.281090 38.113098
193 0 1 10.756268 -13.672791 38.533295
194 0 1 11.644238 -13.966789 38.806213
195 0 1 11.714119 -14.824589 39.387787
196 0 1 10.792011 -14.843090 39.490784
197 0 1 10.448479 -15.723989 39.272797
198 0 1 9.731171 -15.025990 39.221008
199 0 1 9.254627 -15.874790 39.309387
200 0 1 8.751667 -16.729988 39.359100
201 0 1 9.134979 -17.092489 40.137085
202 0 1 8.233990 -16.900990 40.480988
203 0 1 7.766418 -17.758089 40.527100
204 0 1 8.040260 -18.706289 40.693207
205 0 1 8.692028 -19.141390 40.141602
206 0 1 8.028458 -19.245689 39.419403
207 0 1 7.930660 -18.928789 38.438812
208 0 1 8.488720 -18.184689 38.297913
209 0 1 9.376820 -18.521889 38.513916
210 0 1 9.117531 -18.969688 37.729614
211 0 1 10.052921 -19.309990 37.826508
212 0 1 10.147007 -20.009890 37.249908
213 0 1 10.542389 -20.845789 36.980011
214 0 1 11.349060 -20.576189 37.277588
215 0 1 12.234661 -20.952690 37.628510
216 0 1 12.866657 -20.387089 38.245605
217 0 1 12.744358 -20.106588 39.148895
218 0 1 13.521061 -19.944090 39.707001
219 0 1 14.141960 -20.161388 40.350311
220 0 1 14.291359 -21.024590 40.131714
221 0 1 13.978359 -21.908089 40.289093
222 0 1 13.044361 -21.850988 40.020111
223 0 1 12.107357 -21.894489 39.714996
224 0 1 11.277729 -21.486990 39.957001
225 0 1 11.125839 -21.054089 39.109009
226 0 1 10.154110 -21.095089 39.055786
227 0 1 10.098141 -20.633490 39.901093
228 0 1 9.211670 -20.617689 40.382996
229 0 1 9.652439 -19.770889 40.751801
230 0 1 9.631107 -20.049789 41.606110
231 0 1 9.905399 -19.407089 42.257904
232 0 1 10.778797 -19.732790 41.885498
233 0 1 11.312328 -18.962189 41.622009
234 0 1 10.930969 -18.473989 42.415894
235 0 1 10.771530 -17.658989 42.849915
236 0 1 9.812599 -17.503389 42.786194
237 0 1 8.907288 -17.369589 43.053284
238 0 1 8.396778 -16.895588 42.422485
239 0 1 8.038059 -15.997990 42.691010
240 0 1 8.873318 -15.554390 42.541290
241 0 1 9.719200 -15.221489 42.167114
242 0 1 9.744671 -14.261589 42.043884
243 0 1 9.040298 -13.576088 42.061890
244 0 1 9.007660 -12.653988 42.257996
245 0 1 9.313511 -12.437290 43.109314
246 0 1 10.283710 -12.474091 43.102783
247 0 1 9.915779 -12.077549 43.952393
248 0 1 9.393669 -11.287140 44.068604
249 0 1 9.932629 -10.591660 44.457306
250 0 1 10.747677 -11.048189 44.623993
251 0 1 11.141548 -11.164589 43.675903
252 0 1 11.880630 -10.900330 43.122498
253 0 1 11.802490 -9.954319 43.474792
254 0 1 11.437939 -9.132080 43.249695
255 0 1 11.271008 -8.189209 43.231201
256 0 1 10.675060 -7.932989 42.603699
257 0 1 10.800049 -7.383008 41.760803
258 0 1 11.617050 -7.130569 41.233490
259 0 1 11.790249 -6.565248 41.937103
260 0 1 12.275959 -5.781969 41.781799
261 0 1 12.626461 -6.337299 41.011505
262 0 1 13.268059 -6.950109 40.682709
263 0 1 13.074360 -6.687629 39.828888
264 0 1 12.842358 -6.557598 38.843903
265 0 1 13.742359 -6.383419 38.598206
266 0 1 14.425259 -5.910539 38.193695
267 0 1 14.813660 -5.775638 37.369812
268 0 1 14.738258 -4.849979 37.527588
269 0 1 15.586460 -5.018999 37.974792
270 0 1 15.490261 -5.201978 38.933899
271 0 1 16.262558 -4.581628 38.885010
272 0 1 16.151058 -3.703529 38.449402
273 0 1 16.776360 -3.290538 39.133087
274 0 1 17.409958 -2.720397 39.656403
275 0 1 18.129261 -2.419731 39.092987
276 0 1 17.799160 -1.569709 39.491394
277 0 1 16.907658 -1.243398 39.801514
278 0 1 16.577759 -2.074066 40.180695
279 0 1 15.818459 -2.620870 40.010712
280 0 1 15.155060 -2.158809 39.490692
281 0 1 14.251560 -2.336900 39.151917
282 0 1 13.957561 -1.476388 39.541687
283 0 1 13.808659 -1.276578 38.619385
284 0 1 12.893658 -1.197208 38.922089
285 0 1 12.876358 -0.844978 39.831909
286 0 1 12.997059 -1.054248 40.784790
287 0 1 13.348957 -0.667419 41.580109
288 0 1 12.826557 -1.139049 42.303284
289 0 1 12.037159 -0.712989 42.635406
290 0 1 11.418118 -0.094280 42.388489
291 0 1 11.606647 0.838402 42.123596
292 0 1 12.221661 1.331982 41.563507
293 0 1 12.710857 2.135563 41.651611
294 0 1 13.049259 2.323933 40.773499
295 0 1 13.715557 3.037110 40.878601
296 0 1 13.045860 3.587162 40.490601
297 0 1 12.362659 3.915612 39.939911
298 0 1 12.564659 4.905819 40.086487
299 0 1 11.557110 4.909981 39.913513
300 0 1 10.726070 4.867711 39.456299
301 0 1 11.099140 5.026001 38.491394
302 0 1 10.903111 5.614872 37.752197
303 0 1 11.108398 6.049809 38.661194
304 0 1 10.870800 6.981442 38.593994
305 0 1 10.050629 6.512742 38.409302
306 0 1 9.796207 7.177792 38.959717
307 0 1 10.224178 7.071332 39.843597
308 0 1 11.024181 6.614979 39.826416
309 0 1 10.295319 6.053162 39.674988
310 0 1 10.170769 5.948002 40.641602
311 0 1 9.314980 5.439782 40.808807
312 0 1 9.120571 6.383461 40.601288
313 0 1 9.493561 7.140622 41.102112
314 0 1 8.865047 7.663422 40.615997
315 0 1 8.927361 7.815114 39.637512
316 0 1 8.498669 8.674412 39.513184
317 0 1 8.811508 8.927311 38.561188
318 0 1 9.568897 8.209610 38.466614
319 0 1 9.860008 9.102512 38.862701
320 0 1 10.395687 9.779911 39.292389
321 0 1 9.509197 10.153111 39.457397
322 0 1 10.092030 10.804409 38.939301
323 0 1 9.467037 11.467911 39.057098
324 0 1 9.403908 12.208511 39.628784
325 0 1 9.264820 13.107212 39.867798
326 0 1 8.706680 12.832512 40.628693
327 0 1 7.956139 12.307110 40.304901
328 0 1 8.209641 11.437912 40.635010
329 0 1 8.332138 10.551712 40.999207
330 0 1 9.133598 10.793011 41.465393
331 0 1 8.919800 10.400013 42.357697
332 0 1 8.357918 9.710411 41.979004
333 0 1 8.892860 9.028511 42.481201
334 0 1 8.967209 8.268311 41.857605
335 0 1 8.178501 7.739110 42.028107
336 0 1 7.881081 8.360310 42.685913
337 0 1 6.948250 8.448711 42.539398
338 0 1 6.989479 8.949612 41.741913
339 0 1 6.271877 9.490810 41.272308
340 0 1 6.106808 9.752411 40.304291
341 0 1 5.243427 9.559811 40.110809
342 0 1 4.385830 9.441212 40.699310
343 0 1 3.891319 10.213211 40.323395
344 0 1 3.950107 10.182713 39.419983
345 0 1 4.166901 9.608311 38.643097
346 0 1 4.019928 8.922413 39.297394
347 0 1 3.108148 9.232311 39.151306
348 0 1 2.714897 8.653511 39.816101
349 0 1 3.279468 8.001011 39.371307
350 0 1 4.185818 7.674222 39.420197
351 0 1 3.432869 7.231991 40.025513
352 0 1 2.591768 6.838021 39.787201
353 0 1 3.057810 6.677071 38.967102
354 0 1 2.748380 5.891770 39.457397
355 0 1 2.754833 4.982842 39.280701
356 0 1 3.253910 4.928872 40.064697
357 0 1 3.699119 5.437851 39.361084
358 0 1 3.492840 5.230252 38.426788
359 0 1 4.148460 5.898201 38.469604
360 0 1 4.031208 6.363591 37.643097
361 0 1 4.168461 5.878411 36.768311
362 0 1 3.759418 5.641510 35.938904
363 0 1 2.908619 6.263371 35.897308
364 0 1 2.396198 6.067841 36.715088
365 0 1 1.468695 6.012829 36.459290
366 0 1 1.680738 5.947541 35.524506
367 0 1 1.369530 5.676682 34.663605
368 0 1 0.535740 5.244572 34.864197
369 0 1 0.316290 4.426732 34.243286
370 0 1 0.397159 4.407773 33.275787
371 0 1 0.739879 4.940651 32.553192
372 0 1 0.638119 5.555993 31.859407
373 0 1 0.837330 6.266499 31.232088
374 0 1 1.147756 6.728779 30.476686
375 0 1 1.893206 7.067772 29.893099
376 0 1 2.232303 7.316460 29.041201
377 0 1 2.176233 8.077312 28.412905
378 0 1 3.086460 7.813809 27.989107
379 0 1 3.393518 7.024201 28.347200
380 0 1 3.290508 6.927311 27.420900
381 0 1 2.951467 6.071232 27.586214
382 0 1 3.400200 6.184071 26.760103
383 0 1 2.884727 6.301362 25.838808
384 0 1 2.191171 6.151783 25.165316
385 0 1 1.389381 6.637623 25.426912
386 0 1 1.706892 7.512921 25.273592
387 0 1 1.513479 8.453911 25.461397
388 0 1 1.997541 8.864410 24.704592
389 0 1 2.281650 9.239212 23.894716
390 0 1 2.043182 8.390610 23.415407
391 0 1 1.827492 7.756413 24.109407
392 0 1 2.687866 7.638493 24.501802
393 0 1 3.505298 8.082710 24.181795
394 0 1 4.130131 7.836411 23.517611
395 0 1 4.041901 8.744511 23.334688
396 0 1 3.833549 8.354610 22.462801
397 0 1 4.140751 7.705700 21.803499
398 0 1 4.933670 7.086071 21.921907
399 0 1 5.543858 7.814511 21.961199
400 0 1 6.228348 8.378613 22.377306
401 0 1 6.216820 8.379910 23.310091
402 0 1 6.228310 9.346012 23.029696
403 0 1 5.509228 9.464512 22.384005
404 0 1 4.824078 10.007912 22.010500
405 0 1 4.410931 9.266510 21.547106
406 0 1 3.572540 9.344810 21.958208
407 0 1 2.928943 9.837811 22.554995
408 0 1 2.207264 9.256413 22.278002
409 0 1 1.915453 10.139610 22.418306
410 0 1 2.284647 10.902012 21.950304
411 0 1 1.388330 11.279011 21.825808
412 0 1 1.003984 11.678913 21.070696
413 0 1 1.655367 11.658810 20.321199
414 0 1 0.974178 11.490108 19.668795
415 0 1 1.151680 11.594212 18.740099
416 0 1 1.032638 12.599010 18.728395
417 0 1 0.137899 12.274311 18.966997
418 0 1 0.102548 11.327610 18.908297
419 0 1 0.328449 10.558712 19.367006
420 0 1 -0.256842 9.884212 19.695208
421 0 1 -0.931151 9.464310 19.150499
422 0 1 -0.697281 8.788113 19.792696
423 0 1 -1.103550 7.940609 20.047304
424 0 1 -0.502402 8.147812 20.768908
425 0 1 0.168018 7.503373 20.713900
426 0 1 -0.008282 7.313313 21.604998
427 0 1 -0.841911 7.113411 21.191408
428 0 1 -1.654451 6.765950 21.675707
429 0 1 -2.447611 7.023362 22.106401
430 0 1 -2.581511 6.737492 23.030886
431 0 1 -2.695900 7.651700 23.141390
432 0 1 -2.117701 7.724511 23.862001
433 0 1 -1.452292 7.452942 23.268099
434 0 1 -1.447750 6.915032 24.067904
435 0 1 -1.007471 6.014554 24.204409
436 0 1 -0.758282 5.139641 24.123415
437 0 1 -1.617531 4.811631 23.891390
438 0 1 -2.440901 5.178200 24.123903
439 0 1 -2.311611 4.861729 23.216402
440 0 1 -1.545591 4.611573 22.746889
441 0 1 -1.953732 4.018231 22.128908
442 0 1 -1.701891 3.403061 21.356096
443 0 1 -0.851330 3.186860 21.742296
444 0 1 -0.558491 4.053830 22.004702
445 0 1 0.386148 4.135663 21.792604
446 0 1 1.214779 4.103062 21.238008
447 0 1 2.184351 4.455212 21.094408
448 0 1 2.377954 5.065991 20.374804
449 0 1 2.799755 5.217953 19.566301
450 0 1 3.394878 5.836800 19.053194
451 0 1 3.332989 6.497311 18.345507
452 0 1 3.029199 7.345932 17.988604
453 0 1 2.082224 7.387940 17.843294
454 0 1 1.468819 8.078110 17.781008
455 0 1 1.111093 8.392311 16.927095
456 0 1 1.004711 8.280712 15.873200
457 0 1 0.043918 8.158512 16.025499
458 0 1 -0.232481 8.088612 15.097993
459 0 1 -0.771582 8.388111 14.368302
460 0 1 -0.320431 8.779911 13.587403
461 0 1 -1.259102 8.666210 13.245698
462 0 1 -0.708241 8.915211 12.507401
463 0 1 -1.404781 8.357910 12.195207
464 0 1 -0.881651 8.019310 11.450898
465 0 1 0.016859 8.220013 11.064805
466 0 1 0.456699 7.513180 10.646302
467 0 1 1.170254 7.285641 11.267900
468 0 1 1.314743 6.741311 12.097306
469 0 1 0.901909 6.034901 11.672303
470 0 1 0.972370 5.312340 12.267808
471 0 1 1.612429 4.936562 12.967408
472 0 1 1.895880 5.771821 13.242997
473 0 1 1.168115 5.999882 13.776505
474 0 1 1.441597 6.685811 14.470399
475 0 1 2.282448 7.185280 14.368302
476 0 1 2.044208 7.916211 14.919801
477 0 1 2.511005 8.703709 14.849793
478 0 1 3.059238 7.896111 15.219804
479 0 1 3.503570 7.588772 14.423905
480 0 1 4.144138 8.320011 14.312501
481 0 1 4.376400 8.464111 15.250108
482 0 1 5.017048 8.958710 15.850602
483 0 1 5.527000 8.617809 16.594103
484 0 1 4.851917 8.216011 17.219408
485 0 1 4.439140 8.334610 18.029497
486 0 1 4.234200 7.543282 17.623903
487 0 1 5.139668 7.265442 17.536501
488 0 1 6.042660 7.027150 17.554903
489 0 1 6.217369 7.716511 16.906496
490 0 1 6.964031 7.652470 16.303698
491 0 1 6.942619 8.568913 15.996202
492 0 1 7.558659 8.430309 16.757402
493 0 1 7.926548 9.285912 16.961901
494 0 1 8.468941 9.580311 17.715502
495 0 1 8.166130 10.451111 17.579805
496 0 1 9.007610 10.826111 17.362200
497 0 1 9.441029 10.289013 17.992601
498 0 1 9.824459 9.494709 18.479494
499 0 1 10.432690 9.081612 19.080202
500 0 1 10.759258 8.244511 19.439699
501 0 1 11.204170 8.326912 18.601305
502 0 1 11.154018 7.656952 17.917299
503 0 1 10.346691 7.553723 17.369600
504 0 1 10.526981 6.688733 17.828600
505 0 1 11.180477 6.043450 17.503099
506 0 1 11.494541 6.839360 17.205706
507 0 1 11.790848 7.739312 16.980898
508 0 1 12.644360 7.903813 17.408098
509 0 1 13.191959 7.719510 16.615404
510 0 1 14.131359 7.833310 16.377398
511 0 1 14.760159 8.014210 15.747193
512 0 1 15.399059 7.528542 15.173493
513 0 1 15.812759 7.303113 15.990907
514 0 1 15.865757 7.819813 16.763308
515 0 1 16.713657 8.150311 16.514101
516 0 1 16.868858 8.724609 15.721498
517 0 1 17.786861 9.008213 15.497499
518 0 1 17.971359 8.773510 16.405107
519 0 1 17.768158 8.367012 17.183001
520 0 1 18.729160 8.327911 17.171099
521 0 1 19.543560 7.974312 17.470507
522 0 1 18.962059 7.271672 17.654406
523 0 1 18.464657 7.305542 18.437807
524 0 1 18.394859 6.432652 18.769197
525 0 1 19.309856 6.624432 18.924196
526 0 1 18.995861 6.904561 19.688509
527 0 1 18.554459 6.921120 20.528902
528 0 1 18.592560 7.867310 20.571703
529 0 1 18.501659 7.878312 21.520205
530 0 1 18.702961 8.543011 22.203997
531 0 1 18.159061 9.373913 22.176897
532 0 1 18.980457 9.842010 22.211107
533 0 1 19.882557 9.667610 22.484697
534 0 1 20.380859 8.870811 22.621614
535 0 1 20.494659 8.923313 21.701601
536 0 1 20.482559 9.172710 20.723207
537 0 1 19.626461 9.708710 20.451296
538 0 1 20.294460 10.130611 19.886293
539 0 1 19.632557 10.079113 19.225206
540 0 1 19.019161 10.780910 19.005297
541 0 1 18.580559 11.550510 18.583406
542 0 1 17.963558 10.780613 18.427996
543 0 1 18.657860 11.007011 17.611498
544 0 1 17.950058 11.341312 17.035402
545 0 1 17.244659 11.957809 16.968904
546 0 1 16.914661 12.153812 16.093294
547 0 1 16.730659 13.057411 16.106905
548 0 1 17.632557 12.811810 16.347002
549 0 1 18.565357 12.786812 16.105898
550 0 1 19.351658 12.444511 16.488894
551 0 1 19.511761 12.026310 15.651399
552 0 1 18.847462 12.485912 15.083802
553 0 1 19.514660 13.113811 14.936601
554 0 1 20.077160 13.240612 14.255906
555 0 1 20.004459 12.585312 13.531404
556 0 1 20.255859 13.015312 12.775804
557 0 1 19.308361 13.230911 12.851396
558 0 1 18.723660 13.950211 12.987504
559 0 1 18.819561 13.912010 13.968095
560 0 1 17.949459 14.068813 14.302094
561 0 1 16.945660 14.074310 14.247407
562 0 1 16.135559 14.466412 14.593705
563 0 1 16.244061 13.517811 14.621400
564 0 1 15.281757 13.440411 14.359300
565 0 1 14.394958 13.757610 14.187303
566 0 1 13.934757 13.912609 13.423203
567 0 1 13.666359 14.619110 12.753098
568 0 1 12.835060 15.131611 12.675599
569 0 1 13.358860 15.434010 11.931199
570 0 1 12.676659 14.807110 11.495408
571 0 1 12.670460 15.307411 10.705201
572 0 1 11.695480 15.284111 10.621598
573 0 1 10.876858 15.470112 11.120301
574 0 1 10.941639 14.639111 11.606400
575 0 1 10.945980 15.067013 12.514100
576 0 1 10.129070 15.445911 12.276307
577 0 1 9.783699 15.984211 13.091996
578 0 1 10.167789 15.675011 13.923295
579 0 1 10.690918 16.151012 14.538896
580 0 1 10.270599 15.919613 15.400697
581 0 1 9.450428 15.507511 15.712708
582 0 1 8.702759 15.160011 16.272310
583 0 1 8.269920 14.243809 16.413805
584 0 1 7.870529 13.919510 15.610398
585 0 1 7.043999 14.172909 16.030794
586 0 1 6.472538 13.384609 16.088594
587 0 1 6.020451 13.402611 15.271607
588 0 1 5.190800 13.091812 15.597306
589 0 1 5.270279 12.115513 15.545503
590 0 1 5.311569 12.333511 14.568894
591 0 1 4.363171 12.224411 14.535203
592 0 1 3.680908 12.682110 13.953904
593 0 1 2.787830 12.699112 13.529206
594 0 1 3.008730 12.349110 12.653398
595 0 1 2.694216 11.989613 11.846696
596 0 1 2.228847 11.705711 11.003694
597 0 1 2.782055 12.135010 10.216508
598 0 1 3.066120 12.700012 9.513566
599 0 1 2.921341 13.576412 9.080888
600 0 1 2.243719 14.050213 8.713807
601 0 1 1.619272 14.144909 8.095017
602 0 1 2.088476 14.999012 7.876725
603 0 1 1.874956 15.723713 8.458268
604 0 1 1.207863 16.296413 8.886842
605 0 1 0.492498 16.094013 8.194520
606 0 1 0.035889 15.420311 8.653611
607 0 1 0.440069 14.876614 8.012910
608 0 1 0.683220 15.186611 7.101319
609 0 1 0.844499 15.292011 6.190965
610 0 1 0.134149 15.784809 6.568467
611 0 1 0.635969 16.665112 6.523652
612 0 1 0.272770 17.349510 7.113618
613 0 1 -0.538990 17.916611 7.382737
614 0 1 -0.887760 18.311111 6.597962
615 0 1 -0.018841 18.818211 6.511506
616 0 1 0.125250 19.780010 6.488038
617 0 1 -0.707121 19.762409 6.941010
618 0 1 -0.169790 19.195713 7.544969
619 0 1 -0.385891 19.504711 8.386781
620 0 1 -1.143332 20.020809 8.347520
621 0 1 -1.832571 19.813412 8.920747
622 0 1 -1.721550 20.753410 8.875169
623 0 1 -2.109390 21.036610 9.732453
624 0 1 -2.509232 20.186413 9.591477
625 0 1 -2.236302 20.316113 10.509095
626 0 1 -2.058481 19.531010 10.965699
627 0 1 -2.692091 19.792511 11.583695
628 0 1 -3.546761 19.742809 12.072495
629 0 1 -4.152000 19.435211 12.812699
630 0 1 -4.835072 19.658310 12.123002
631 0 1 -5.544281 19.279209 11.516603
632 0 1 -6.241701 19.935513 11.539704
633 0 1 -6.026371 20.046009 10.549699
634 0 1 -5.362980 20.532413 10.012300
635 0 1 -5.776300 21.203609 10.559098
636 0 1 -6.416172 21.526711 9.998963
637 0 1 -6.957439 21.777813 9.281068
638 0 1 -6.470591 21.569714 8.468629
639 0 1 -6.840630 22.298111 7.966096
640 0 1 -6.494610 22.392811 7.111115
641 0 1 -7.405849 22.466110 6.766023
642 0 1 -8.228340 22.238411 6.259263
643 0 1 -8.732441 22.115108 5.388597
644 0 1 -7.839981 21.864010 5.103501
645 0 1 -8.455641 21.089710 5.332520
646 0 1 -8.055340 20.581013 4.553559
647 0 1 -7.546721 21.306812 4.296968
648 0 1 -7.905861 22.182308 3.988069
649 0 1 -7.107342 22.296108 3.456132
650 0 1 -6.205521 22.169109 3.109956
651 0 1 -5.963020 22.148609 4.060487
652 0 1 -5.034512 22.619011 4.014268
653 0 1 -4.359701 23.233509 3.908815
654 0 1 -4.994131 23.816811 4.366929
655 0 1 -4.889601 24.135712 3.446321
656 0 1 -5.226770 24.906612 3.066087
657 0 1 -4.383251 24.851009 2.563936
658 0 1 -4.024570 24.476910 1.767976
659 0 1 -4.978701 24.615311 1.707704
660 0 1 -4.765652 23.779011 1.261110
661 0 1 -5.401112 24.158211 0.676606
662 0 1 -5.990120 24.254513 1.460786
663 0 1 -6.521420 25.042511 1.224504
664 0 1 -7.046211 24.244110 1.381501
665 0 1 -7.469070 23.604111 1.984346
666 0 1 -7.571651 22.739109 1.656694
667 0 1 -7.461090 21.884010 1.203355
668 0 1 -7.794691 21.109509 1.632447
669 0 1 -7.817310 20.261112 2.142595
670 0 1 -8.488340 20.358212 2.830415
671 0 1 -8.833042 19.720612 2.228639
672 0 1 -8.188841 19.176811 2.641053
673 0 1 -7.818401 18.820011 1.825837
674 0 1 -8.683741 18.499012 1.508256
675 0 1 -9.230042 17.905811 1.960237
676 0 1 -10.018440 17.724411 1.466325
677 0 1 -10.160440 17.120010 2.147493
678 0 1 -10.381340 16.596310 1.371705
679 0 1 -10.114342 15.670208 1.590745
680 0 1 -10.578140 15.808811 2.442353
681 0 1 -11.364941 16.026012 3.006273
682 0 1 -11.281940 15.092010 2.846406
683 0 1 -11.118542 15.325512 3.716020
684 0 1 -12.029442 15.265011 4.044068
685 0 1 -12.378641 14.790508 4.875337
686 0 1 -11.654640 14.373211 5.303544
687 0 1 -10.827942 13.958611 5.641084
688 0 1 -10.833042 14.788311 6.160951
689 0 1 -9.840542 14.853512 6.253617
690 0 1 -9.360241 14.428013 7.002168
691 0 1 -10.128342 14.044109 7.384126
692 0 1 -10.913040 14.093410 8.000215
693 0 1 -10.497040 14.973911 8.201295
694 0 1 -11.003040 15.760811 7.966508
695 0 1 -11.877241 15.967812 8.225907
696 0 1 -11.426640 15.870312 9.058656
697 0 1 -11.778440 16.348209 9.760636
698 0 1 -12.277740 16.941212 10.352098
699 0 1 -11.733141 17.672413 9.974290
700 0 1 -11.892342 17.530010 9.069688
701 0 1 -12.594941 16.989311 8.621247
702 0 1 -13.233341 16.769711 7.843904
703 0 1 -13.888341 16.563808 7.145402
704 0 1 -13.981741 16.494110 6.227937
705 0 1 -14.222940 15.739513 5.665345
706 0 1 -14.970041 16.319408 5.692018
707 0 1 -15.801241 16.634811 5.484895
708 0 1 -16.103642 17.146111 6.215150
709 0 1 -15.346441 17.251614 6.768357
710 0 1 -15.638941 16.702511 7.460008
711 0 1 -16.207541 15.863712 7.438600
712 0 1 -16.825541 15.203911 7.710954
713 0 1 -17.423040 14.994610 6.993897
714 0 1 -17.613241 14.298908 6.334184
715 0 1 -17.823740 13.579910 7.003388
716 0 1 -18.707541 13.444111 6.475007
717 0 1 -19.139740 13.081810 7.223542
718 0 1 -19.797941 13.160610 7.907945
719 0 1 -20.413040 13.469112 7.220674
720 0 1 -21.148140 13.251911 6.594071
721 0 1 -21.141441 12.472912 7.147676
722 0 1 -20.598742 11.724510 7.431504
723 0 1 -20.355141 10.963112 7.953385
724 0 1 -20.352541 10.055210 8.117463
725 0 1 -19.659641 9.425911 7.847016
726 0 1 -19.310741 9.482910 6.983598
727 0 1 -20.208241 9.473110 6.470674
728 0 1 -20.074741 8.831509 5.696946
729 0 1 -20.585140 8.579811 6.462846
730 0 1 -20.382141 7.713112 6.901124
731 0 1 -19.917742 7.379132 6.214417
732 0 1 -20.684341 6.848980 5.903626
733 0 1 -21.505640 6.594349 5.483018
734 0 1 -21.882040 6.884800 4.574998
735 0 1 -22.752041 6.929131 4.128114
736 0 1 -23.582741 7.087151 4.675004
737 0 1 -23.319641 7.859211 5.178910
738 0 1 -23.176041 7.936009 6.102937
739 0 1 -23.583641 7.064084 5.918839
740 0 1 -24.181940 6.754261 6.625276
741 0 1 -24.457340 6.096440 7.247575
742 0 1 -24.238840 5.202572 7.153275
743 0 1 -25.129042 4.822590 7.083299
744 0 1 -25.680441 4.102131 7.015779
745 0 1 -26.042542 3.883259 7.807099
746 0 1 -26.441040 3.031952 7.688478
747 0 1 -25.468740 3.056870 7.423661
748 0 1 -24.551842 3.010632 7.704728
749 0 1 -23.914242 3.408459 8.320237
750 0 1 -22.980942 3.331711 8.082658
751 0 1 -22.931641 3.196141 9.073777
752 0 1 -22.837240 2.912713 10.057298
753 0 1 -23.467442 2.872750 10.843293
754 0 1 -22.729542 2.760811 11.454698
755 0 1 -23.163841 3.358361 11.997102
756 0 1 -22.959440 2.757943 12.771897
757 0 1 -23.247141 2.063481 13.434007
758 0 1 -23.096941 2.398503 14.341508
759 0 1 -22.360540 2.240742 14.933503
760 0 1 -21.949741 3.086640 15.300202
761 0 1 -21.931940 3.580300 16.099001
762 0 1 -21.606642 4.466382 16.219210
763 0 1 -20.731340 4.893372 16.286104
764 0 1 -20.529640 5.806180 16.501604
765 0 1 -19.683540 5.552231 16.134203
766 0 1 -19.262640 5.173550 16.907701
767 0 1 -18.431341 4.786870 17.104799
768 0 1 -19.032341 4.169072 17.512300
769 0 1 -18.328840 3.794190 18.040895
770 0 1 -18.155340 2.866742 18.302004
771 0 1 -18.960840 2.558720 17.836702
772 0 1 -18.469841 1.933712 17.293398
773 0 1 -17.627541 1.465271 17.128405
774 0 1 -17.212740 1.820080 16.341707
775 0 1 -16.285040 1.648961 16.625002
776 0 1 -15.465841 1.205800 16.769701
777 0 1 -16.086142 1.075482 17.441607
778 0 1 -16.235941 1.548821 18.262499
779 0 1 -15.679441 1.260533 18.972109
780 0 1 -15.262140 0.618641 18.449495
781 0 1 -14.950541 -0.254730 18.022402
782 0 1 -15.464140 -0.688499 18.674196
783 0 1 -16.051641 -1.265998 19.196306
784 0 1 -16.682241 -0.612869 19.659899
785 0 1 -16.459141 0.200242 20.182802
786 0 1 -17.025940 0.597950 19.519899
787 0 1 -17.682741 1.182030 19.989595
788 0 1 -17.400541 2.072510 19.710299
789 0 1 -18.262741 2.469052 19.568407
790 0 1 -19.122141 2.806843 19.373796
791 0 1 -20.043640 2.590001 19.248201