LAMMPS data file via MDAnalysis

        2000  atoms
        1999  bonds
           0  angles
           0  dihedrals
           0  impropers

           1  atom types
           1  bond types
           0  angle types
           0  dihedral types
           0  improper types

-30.5 30.5 xlo xhi
-30.5 30.5 ylo yhi
-233.5 233.5 zlo zhi


Masses

1 1.000000

Atoms

1 0 1 16.665487 20.975492 24.743286
2 0 1 17.100790 21.489088 24.074310
3 0 1 16.192587 21.465193 23.808411
4 0 1 15.402891 21.091589 24.246887
5 0 1 15.495291 20.239191 24.717285
6 0 1 14.730589 19.903490 24.233002
7 0 1 14.420889 19.455091 23.450012
8 0 1 14.429590 18.785788 22.810791
9 0 1 15.163389 19.317289 22.499908
10 0 1 14.519289 19.410990 21.826294
11 0 1 13.500589 19.614088 21.813599
12 0 1 12.993940 19.800291 21.029495
13 0 1 12.785620 18.903990 21.275894
14 0 1 12.207808 18.348291 20.751999
15 0 1 11.417387 18.092989 21.282898
16 0 1 11.925928 17.287191 20.796005
17 0 1 11.272238 16.655390 21.126801
18 0 1 10.689451 17.120691 21.746506
19 0 1 9.850370 16.607290 21.818893
20 0 1 9.112478 16.765490 21.121704
21 0 1 8.529158 16.103090 21.454102
22 0 1 8.931791 15.212890 21.395294
23 0 1 8.201628 15.172992 20.761597
24 0 1 7.835391 15.005393 21.639603
25 0 1 6.971991 15.516891 21.391800
26 0 1 7.019240 15.228293 20.490494
27 0 1 6.265151 14.592391 20.260498
28 0 1 6.494990 15.014892 19.439697
29 0 1 7.060938 14.270492 19.593796
30 0 1 6.285880 13.762389 19.550598
31 0 1 5.819109 14.130191 18.850906
32 0 1 5.250941 14.369193 18.097198
33 0 1 5.498221 13.456893 17.721893
34 0 1 5.199599 12.597491 17.817108
35 0 1 5.469000 11.783843 18.153198
36 0 1 5.826270 10.834750 18.228500
37 0 1 5.904730 10.517531 17.324707
38 0 1 6.752341 10.059340 17.192596
39 0 1 6.737650 9.110999 17.005295
40 0 1 7.080340 8.298221 17.403702
41 0 1 6.337790 8.375411 17.978699
42 0 1 6.219298 8.874480 18.850098
43 0 1 5.865969 9.314300 19.642197
44 0 1 6.715918 9.425300 20.115601
45 0 1 6.790591 9.169620 21.003601
46 0 1 7.438509 8.377593 20.983398
47 0 1 7.929080 7.793929 20.445099
48 0 1 7.659701 7.107871 21.094498
49 0 1 7.429739 6.736823 21.974304
50 0 1 6.779910 6.136260 21.695801
51 0 1 6.918768 6.454131 20.833603
52 0 1 6.202990 6.161940 20.311600
53 0 1 5.332839 5.627322 20.117905
54 0 1 5.104731 6.535399 20.280899
55 0 1 4.722270 6.404910 19.449402
56 0 1 4.278433 5.589499 19.188797
57 0 1 4.124257 4.695971 18.824097
58 0 1 3.280015 5.017802 18.834503
59 0 1 3.297150 5.900099 18.326294
60 0 1 3.001141 6.672770 17.854599
61 0 1 2.215029 6.724852 18.513199
62 0 1 1.458369 7.226622 18.268295
63 0 1 0.545290 7.507330 18.310898
64 0 1 0.598870 8.376010 17.886002
65 0 1 -0.149660 8.693461 18.532806
66 0 1 0.002850 9.548949 18.259308
67 0 1 0.867390 9.870650 18.239594
68 0 1 0.249750 10.577811 18.537704
69 0 1 0.757559 11.170653 19.016205
70 0 1 1.656290 10.719153 19.000900
71 0 1 1.942629 9.811801 18.875595
72 0 1 2.474452 9.003291 18.748108
73 0 1 1.967289 9.086963 19.568604
74 0 1 2.314799 9.995749 19.767502
75 0 1 2.691407 10.800792 19.564804
76 0 1 2.263680 11.532130 20.162399
77 0 1 3.091267 11.881392 20.515503
78 0 1 3.429390 12.540793 19.945206
79 0 1 4.055697 13.074191 20.401596
80 0 1 4.495579 13.892692 20.074203
81 0 1 5.106459 13.716090 20.841293
82 0 1 5.096369 12.864089 21.191193
83 0 1 5.253401 13.247893 22.032501
84 0 1 6.059321 13.775790 21.824097
85 0 1 6.407900 13.488692 22.654388
86 0 1 5.541991 13.689292 22.998901
87 0 1 5.362910 12.776492 23.173096
88 0 1 4.486580 12.857993 23.643188
89 0 1 3.557366 12.607192 23.848206
90 0 1 2.694621 12.692290 24.241394
91 0 1 2.579577 12.967589 25.200195
92 0 1 1.903000 13.603789 25.248993
93 0 1 2.578307 13.912589 24.674011
94 0 1 3.229430 14.560790 24.465790
95 0 1 3.717873 14.919890 25.191895
96 0 1 3.466553 15.276793 26.061707
97 0 1 3.569415 16.118490 26.396790
98 0 1 4.052128 15.967792 25.581604
99 0 1 3.404755 16.550089 25.273712
100 0 1 3.799510 17.419191 25.435211
101 0 1 4.521029 17.196791 24.865906
102 0 1 5.403220 16.854788 24.739899
103 0 1 5.754038 17.568991 25.333588
104 0 1 5.908259 18.338888 24.697906
105 0 1 6.501978 17.827391 24.224487
106 0 1 6.755629 16.877291 24.173584
107 0 1 7.178210 16.191690 23.654785
108 0 1 7.791781 16.810091 23.183105
109 0 1 8.581961 16.826189 23.771606
110 0 1 8.000460 17.395189 24.310211
111 0 1 8.587938 17.958288 24.753601
112 0 1 8.967539 18.751791 25.148712
113 0 1 9.093939 19.691389 25.064606
114 0 1 9.623999 19.861090 25.820587
115 0 1 10.065081 19.978991 26.713806
116 0 1 10.191519 20.158689 27.667786
117 0 1 10.317518 19.388288 28.211792
118 0 1 10.439878 18.931791 27.385712
119 0 1 11.341520 18.719488 27.147186
120 0 1 11.785368 19.503088 26.805389
121 0 1 11.538698 20.415590 27.004395
122 0 1 12.375410 20.201990 27.494812
123 0 1 12.799158 21.117090 27.598602
124 0 1 12.047670 21.610590 27.403015
125 0 1 12.200830 22.244291 28.160614
126 0 1 11.299467 22.225691 27.660187
127 0 1 10.722940 22.375891 28.369507
128 0 1 9.855700 22.272989 27.749390
129 0 1 9.321138 22.424589 28.554504
130 0 1 8.743017 22.891989 29.105286
131 0 1 8.145208 22.859388 29.894012
132 0 1 7.448660 22.209288 29.909698
133 0 1 7.422270 21.469091 30.461487
134 0 1 8.095709 21.207792 29.894196
135 0 1 8.828657 21.886591 29.957001
136 0 1 9.139837 22.149588 30.783997
137 0 1 9.948519 22.136992 31.359314
138 0 1 9.652479 21.631292 32.169495
139 0 1 8.810537 22.092688 32.367889
140 0 1 8.570417 21.178091 32.647491
141 0 1 8.690130 20.237188 32.775299
142 0 1 9.235418 19.482691 32.928497
143 0 1 9.892008 19.872892 33.470215
144 0 1 10.121901 20.825788 33.468597
145 0 1 10.995108 20.484488 33.697205
146 0 1 11.248880 19.604292 33.843109
147 0 1 12.073530 20.133688 33.539093
148 0 1 12.148310 19.154692 33.737213
149 0 1 12.411100 18.446890 34.430115
150 0 1 11.392740 18.567591 34.381805
151 0 1 11.344851 17.685789 34.657898
152 0 1 10.684038 17.406889 35.446289
153 0 1 9.919477 17.567389 34.872406
154 0 1 9.998091 18.498091 35.069305
155 0 1 9.868979 19.471891 35.287415
156 0 1 8.878431 19.198690 35.609985
157 0 1 8.562460 20.084791 35.437500
158 0 1 7.805830 20.470190 35.006500
159 0 1 7.521399 19.543489 35.107300
160 0 1 6.627089 19.738592 34.819397
161 0 1 6.623400 20.194387 33.982483
162 0 1 7.239459 20.556692 33.363892
163 0 1 6.782198 21.410788 33.458405
164 0 1 7.597739 21.642191 33.955597
165 0 1 7.672358 22.240690 34.712799
166 0 1 8.011297 23.093992 34.855896
167 0 1 7.031760 23.304792 34.853607
168 0 1 7.411669 23.960890 35.331207
169 0 1 7.352019 24.621092 36.071991
170 0 1 7.699568 25.357691 36.586304
171 0 1 8.351519 24.641790 36.679993
172 0 1 7.963870 24.569891 37.565491
173 0 1 8.263288 25.453192 37.760712
174 0 1 7.690299 26.185492 38.085815
175 0 1 7.713728 25.443388 38.719208
176 0 1 7.218009 25.133589 39.493591
177 0 1 7.425009 24.377291 40.019897
178 0 1 8.094961 24.999090 40.299316
179 0 1 8.431231 25.760191 39.781189
180 0 1 9.333941 25.686991 40.007202
181 0 1 9.093218 25.948290 40.903503
182 0 1 9.668768 26.074591 41.670807
183 0 1 9.270849 25.759588 42.475708
184 0 1 8.648878 26.324789 42.069885
185 0 1 7.906519 26.070692 42.680603
186 0 1 7.940379 26.087790 43.632385
187 0 1 8.665209 26.797789 43.598297
188 0 1 8.240000 27.402693 44.179596
189 0 1 7.568148 27.025389 44.768707
190 0 1 6.784701 26.385389 44.932404
191 0 1 7.272971 25.718790 44.385406
192 0 1 6.416689 25.780088 43.937012
193 0 1 6.426100 24.744688 44.044189
194 0 1 5.541480 24.838392 43.690002
195 0 1 5.405131 25.624693 44.278992
196 0 1 4.737031 24.922392 44.407013
197 0 1 4.871470 24.722288 45.323090
198 0 1 4.020384 25.154089 45.492615
199 0 1 3.072585 25.222490 45.260101
200 0 1 2.769333 26.024389 44.673798
201 0 1 2.739470 25.639490 43.731598
202 0 1 2.100699 25.284788 43.174408
203 0 1 1.485070 24.584490 43.386597
204 0 1 0.927309 24.807592 42.613098
205 0 1 -0.013200 24.957792 42.671600
206 0 1 -0.907739 24.747992 42.741608
207 0 1 -1.399200 24.743990 41.894287
208 0 1 -1.095100 23.870092 41.576294
209 0 1 -0.948860 22.917692 41.324188
210 0 1 -0.508331 23.344290 40.550110
211 0 1 0.184660 23.234793 39.922089
212 0 1 0.893910 22.713888 39.598083
213 0 1 0.121079 22.160891 39.435486
214 0 1 0.425310 21.864088 40.368195
215 0 1 -0.423690 21.768988 40.612091
216 0 1 -0.746101 21.120390 40.032806
217 0 1 -0.545921 20.171690 40.181702
218 0 1 -0.099420 20.307089 39.368591
219 0 1 0.075089 20.786390 38.503387
220 0 1 -0.129530 19.834890 38.304688
221 0 1 0.620730 19.510389 38.896484
222 0 1 1.211989 18.791491 39.049408
223 0 1 1.627829 19.378088 39.675507
224 0 1 2.453600 19.098089 39.366913
225 0 1 3.363863 18.920691 39.658112
226 0 1 3.658173 18.121691 39.280090
227 0 1 3.019291 17.327589 39.356598
228 0 1 3.905961 17.015390 39.510010
229 0 1 3.370123 17.172091 40.375183
230 0 1 3.255787 16.914289 41.346588
231 0 1 3.128470 15.999591 41.558289
232 0 1 3.539807 15.131293 41.947296
233 0 1 3.206837 14.213592 42.348999
234 0 1 2.983090 13.235393 42.175598
235 0 1 2.436203 12.946692 41.474213
236 0 1 1.940140 12.138812 41.559814
237 0 1 1.284680 11.629741 41.975494
238 0 1 0.731869 10.880813 41.658813
239 0 1 0.100640 10.210731 41.824402
240 0 1 0.823849 9.673961 42.079895
241 0 1 0.561570 8.993793 42.833313
242 0 1 0.583689 8.047980 43.190308
243 0 1 -0.093881 7.516551 43.774902
244 0 1 -0.901321 7.474452 43.189697
245 0 1 -1.524570 7.563361 43.857391
246 0 1 -2.098779 7.492949 43.134888
247 0 1 -2.517499 7.695632 42.269592
248 0 1 -2.495851 8.235812 41.485504
249 0 1 -3.023950 8.819812 40.980499
250 0 1 -3.749210 8.410033 40.352997
251 0 1 -4.556699 7.906493 40.321899
252 0 1 -5.486921 7.836710 40.124512
253 0 1 -5.953142 8.551711 39.759888
254 0 1 -6.863910 8.621932 39.883606
255 0 1 -6.646711 8.049483 39.027100
256 0 1 -6.364231 8.693561 38.347687
257 0 1 -6.869611 8.967261 37.614014
258 0 1 -6.366029 8.120231 37.551086
259 0 1 -5.692180 7.796912 36.913391
260 0 1 -4.704961 7.920409 36.817810
261 0 1 -4.365301 8.818072 36.932190
262 0 1 -4.286611 9.340701 36.038086
263 0 1 -4.616971 10.273120 35.981995
264 0 1 -4.563091 10.225829 36.930206
265 0 1 -3.735761 10.270789 37.366089
266 0 1 -4.398830 10.096171 37.999084
267 0 1 -5.365461 10.056151 37.741089
268 0 1 -5.485551 10.933791 38.134094
269 0 1 -5.273340 11.885329 38.194305
270 0 1 -5.073970 12.120879 37.252289
271 0 1 -5.072250 11.217872 36.972809
272 0 1 -5.804811 11.185073 36.316803
273 0 1 -6.731611 11.014880 36.392700
274 0 1 -7.540311 11.360663 36.098083
275 0 1 -8.097910 11.840072 35.438690
276 0 1 -8.045111 11.545642 34.531494
277 0 1 -7.540910 11.090781 33.879608
278 0 1 -7.024709 10.530601 33.211700
279 0 1 -7.709112 9.893630 32.842712
280 0 1 -8.123312 9.650252 33.662506
281 0 1 -8.696911 8.987800 33.960510
282 0 1 -7.897911 9.073081 34.530487
283 0 1 -7.989410 8.173610 34.290100
284 0 1 -7.191810 7.949912 34.731384
285 0 1 -6.826810 7.806170 33.897491
286 0 1 -6.782209 6.886672 34.316101
287 0 1 -6.382961 6.434470 35.055115
288 0 1 -6.511812 5.602290 34.592285
289 0 1 -6.189340 4.701781 34.452301
290 0 1 -6.415901 3.740061 34.277405
291 0 1 -5.768320 3.074969 33.963287
292 0 1 -6.190130 2.206221 34.112213
293 0 1 -6.081640 1.354361 33.627991
294 0 1 -5.468992 1.944716 33.139099
295 0 1 -5.094810 1.227280 32.726410
296 0 1 -4.275600 1.506827 33.180511
297 0 1 -3.929441 2.371293 33.302887
298 0 1 -3.076070 2.628535 32.959808
299 0 1 -3.420480 2.168417 32.191895
300 0 1 -2.532230 1.904936 32.303589
301 0 1 -1.923120 2.458464 31.845490
302 0 1 -1.307809 3.114865 32.247406
303 0 1 -0.869211 3.316065 31.377594
304 0 1 -0.471050 2.476473 31.589111
305 0 1 -0.827440 1.627612 31.814911
306 0 1 -0.237692 0.903710 32.009003
307 0 1 0.261320 0.207800 31.629791
308 0 1 0.469370 -0.598810 32.015900
309 0 1 0.396870 -1.367040 31.490692
310 0 1 0.570450 -0.618099 30.902405
311 0 1 1.251130 0.093630 30.941193
312 0 1 0.740160 0.269551 30.167694
313 0 1 0.622010 1.242020 30.094299
314 0 1 0.365639 1.242770 29.147186
315 0 1 1.303910 1.510377 28.939697
316 0 1 1.396910 1.081601 28.114014
317 0 1 1.366850 0.252991 28.596191
318 0 1 1.334099 -0.610870 29.024597
319 0 1 2.125121 -0.472249 28.427002
320 0 1 1.869389 -1.372678 28.164795
321 0 1 1.028450 -1.775678 28.300507
322 0 1 0.240420 -2.425100 28.315002
323 0 1 -0.737560 -2.187559 28.208191
324 0 1 -0.507711 -3.030660 27.689392
325 0 1 0.173540 -2.546939 27.180786
326 0 1 0.119919 -1.626890 26.907013
327 0 1 -0.798231 -1.789209 26.956696
328 0 1 -1.495451 -2.112150 27.577606
329 0 1 -2.176141 -2.402109 28.224304
330 0 1 -2.522661 -1.504619 28.253387
331 0 1 -3.203611 -1.298360 27.541290
332 0 1 -4.100091 -0.859119 27.791595
333 0 1 -4.678541 -1.419279 27.227692
334 0 1 -4.509660 -2.285900 27.686798
335 0 1 -5.474491 -2.251100 27.320312
336 0 1 -5.509361 -3.196300 27.607788
337 0 1 -5.096342 -3.319870 28.486298
338 0 1 -4.825050 -2.927789 29.417511
339 0 1 -3.913240 -3.238790 29.523499
340 0 1 -4.266891 -2.582130 30.198700
341 0 1 -4.584251 -1.699499 30.312714
342 0 1 -4.944810 -1.840219 31.151611
343 0 1 -5.919420 -2.115299 30.910889
344 0 1 -6.555770 -2.413019 30.280609
345 0 1 -7.201810 -3.017690 29.971588
346 0 1 -7.514110 -3.143140 29.097290
347 0 1 -6.713510 -2.676858 28.697815
348 0 1 -7.097511 -1.777978 28.887390
349 0 1 -6.938711 -0.947530 29.234985
350 0 1 -6.311071 -1.311620 29.817902
351 0 1 -6.018079 -1.354928 28.858093
352 0 1 -5.746931 -1.281219 27.937500
353 0 1 -6.729711 -1.552699 27.747803
354 0 1 -6.635580 -1.060140 26.888489
355 0 1 -5.929849 -0.410329 27.013916
356 0 1 -5.982311 0.450760 26.592407
357 0 1 -6.929311 0.221131 26.401398
358 0 1 -7.343309 0.066790 27.332703
359 0 1 -7.879209 -0.491048 26.818390
360 0 1 -8.553511 -1.057739 26.465912
361 0 1 -8.715010 -1.883439 25.979004
362 0 1 -8.078810 -2.454568 26.391785
363 0 1 -7.176811 -2.842439 26.326294
364 0 1 -7.200910 -3.042230 25.327393
365 0 1 -6.879711 -3.981988 25.189392
366 0 1 -6.594900 -4.939119 25.176910
367 0 1 -6.095029 -4.338199 25.631409
368 0 1 -5.573492 -4.888389 26.236511
369 0 1 -5.014320 -4.056840 26.306213
370 0 1 -4.163209 -4.094320 26.970306
371 0 1 -4.617261 -4.890569 27.149994
372 0 1 -4.293010 -5.852680 27.052307
373 0 1 -4.667181 -6.750999 27.351990
374 0 1 -5.100780 -6.472150 28.103302
375 0 1 -5.508039 -7.101530 28.664795
376 0 1 -5.585721 -7.837610 29.282013
377 0 1 -4.740732 -7.746709 29.730286
378 0 1 -4.491731 -8.444108 30.333496
379 0 1 -3.559591 -8.287908 30.515594
380 0 1 -3.226900 -8.560208 29.594116
381 0 1 -2.753700 -8.017909 28.985199
382 0 1 -3.199131 -7.604509 28.216003
383 0 1 -3.037700 -7.512208 27.213989
384 0 1 -3.157930 -8.355809 26.857697
385 0 1 -2.229061 -8.255309 26.929016
386 0 1 -2.321321 -8.961808 26.284790
387 0 1 -1.962480 -9.561608 25.660309
388 0 1 -1.076250 -9.662108 26.049011
389 0 1 -0.623331 -10.499810 26.343109
390 0 1 0.074839 -11.083508 25.974792
391 0 1 0.977190 -11.159608 26.363098
392 0 1 1.936009 -10.967109 26.641602
393 0 1 1.779740 -10.897908 27.604004
394 0 1 0.991610 -11.508008 27.668091
395 0 1 0.244410 -12.085608 27.856995
396 0 1 -0.335121 -11.246408 27.978088
397 0 1 -0.616750 -10.805909 28.775208
398 0 1 -1.104421 -10.139909 28.409088
399 0 1 -0.644640 -9.354009 28.582306
400 0 1 -1.455930 -8.817208 28.472595
401 0 1 -0.757791 -8.192208 28.313812
402 0 1 -0.306970 -8.739308 27.686188
403 0 1 0.543579 -8.668408 27.247589
404 0 1 1.482849 -8.885509 26.913696
405 0 1 1.243990 -8.892209 25.950897
406 0 1 1.120499 -8.005509 25.585693
407 0 1 2.035800 -8.349509 25.275604
408 0 1 1.266749 -8.620908 24.663391
409 0 1 0.970160 -7.701509 24.408600
410 0 1 1.562540 -7.207229 24.992493
411 0 1 2.439202 -6.867128 24.922211
412 0 1 1.898829 -6.215419 25.514801
413 0 1 1.976490 -5.552949 26.212891
414 0 1 2.644963 -5.919649 26.877411
415 0 1 2.134699 -6.540250 27.421814
416 0 1 2.385258 -7.208349 28.043793
417 0 1 1.828829 -7.194660 28.787903
418 0 1 2.523278 -7.000419 29.540009
419 0 1 1.605690 -6.541250 29.691498
420 0 1 0.904909 -6.151929 30.163605
421 0 1 0.412060 -6.438810 29.420410
422 0 1 0.784310 -7.237939 29.851685
423 0 1 1.231669 -7.853710 29.229706
424 0 1 1.910960 -8.440408 29.605591
425 0 1 2.338309 -8.927409 30.300201
426 0 1 1.998419 -9.373309 31.095490
427 0 1 2.279700 -10.258409 31.085205
428 0 1 2.713450 -11.159209 31.001099
429 0 1 2.987099 -11.140008 31.992188
430 0 1 3.575945 -11.498809 32.609497
431 0 1 3.665219 -12.198509 31.976807
432 0 1 4.302880 -11.511308 31.656708
433 0 1 4.832591 -10.910409 32.196716
434 0 1 4.632550 -11.225408 33.079285
435 0 1 4.034436 -11.692510 33.599091
436 0 1 3.758688 -11.646108 34.551208
437 0 1 4.110857 -10.766210 34.429810
438 0 1 4.376790 -10.389909 35.257202
439 0 1 4.453719 -11.198110 35.754791
440 0 1 5.317179 -11.490308 35.386993
441 0 1 5.818171 -12.240409 35.704285
442 0 1 6.546290 -12.166909 35.069214
443 0 1 6.609541 -11.566209 35.782990
444 0 1 6.336852 -11.829209 36.644287
445 0 1 5.710711 -12.302509 37.194794
446 0 1 6.534758 -11.994908 37.633087
447 0 1 7.349379 -11.728410 38.088104
448 0 1 6.820651 -11.989408 38.840515
449 0 1 5.987128 -11.519010 38.626404
450 0 1 5.120081 -11.856109 38.548096
451 0 1 4.373019 -12.014409 39.215698
452 0 1 4.596560 -12.199509 40.097992
453 0 1 4.986830 -11.830009 40.925415
454 0 1 4.335545 -12.309608 41.389496
455 0 1 3.479460 -11.942409 41.730011
456 0 1 3.480746 -12.161408 42.751495
457 0 1 3.357874 -12.796609 43.471985
458 0 1 3.999743 -12.438909 44.147583
459 0 1 4.515929 -13.064109 44.794403
460 0 1 5.049448 -12.545409 45.432495
461 0 1 5.905699 -12.180309 45.286987
462 0 1 5.867098 -11.527209 44.497894
463 0 1 5.650038 -10.535909 44.501007
464 0 1 6.517458 -10.570310 44.928589
465 0 1 6.342410 -10.750009 45.817993
466 0 1 6.047019 -10.159709 46.486389
467 0 1 6.958338 -9.983609 46.457703
468 0 1 6.733809 -8.962909 46.644104
469 0 1 5.809851 -9.069108 46.482391
470 0 1 5.818549 -8.673810 45.602203
471 0 1 5.387339 -7.819810 45.823212
472 0 1 5.192488 -7.061319 46.302002
473 0 1 4.364539 -7.180280 45.941803
474 0 1 3.992230 -6.593629 45.241913
475 0 1 3.726904 -5.753690 45.646790
476 0 1 4.351948 -6.090360 46.268311
477 0 1 4.676909 -5.344400 45.653290
478 0 1 4.947199 -4.822549 44.836487
479 0 1 5.817080 -4.687280 45.231689
480 0 1 6.437159 -5.340580 45.408508
481 0 1 6.681151 -4.997709 46.290100
482 0 1 6.079138 -5.052820 47.073395
483 0 1 6.094111 -4.431610 47.881805
484 0 1 6.928401 -4.094129 48.163086
485 0 1 6.707251 -3.466039 48.840790
486 0 1 6.065901 -3.838369 49.457794
487 0 1 5.838969 -4.498659 50.143402
488 0 1 5.108988 -5.019390 50.384705
489 0 1 4.760439 -5.822660 50.772888
490 0 1 5.681998 -5.735420 51.058502
491 0 1 5.892050 -6.556058 50.612000
492 0 1 5.567130 -7.259569 51.177612
493 0 1 5.912589 -8.143010 50.850311
494 0 1 5.200419 -8.762010 51.159485
495 0 1 4.556540 -9.436009 51.606110
496 0 1 4.637400 -10.365909 51.537109
497 0 1 4.909178 -11.277009 51.813293
498 0 1 4.714890 -11.666108 52.703888
499 0 1 3.733988 -11.461308 52.617096
500 0 1 3.949450 -10.548108 52.997406
501 0 1 4.036480 -11.214910 53.723206
502 0 1 3.663294 -11.199510 54.711487
503 0 1 4.015721 -10.702909 55.445007
504 0 1 4.533040 -11.462308 55.841888
505 0 1 5.049769 -12.176809 55.605988
506 0 1 5.860510 -12.489109 56.026184
507 0 1 5.970358 -13.437909 56.078705
508 0 1 5.098681 -13.641408 56.447510
509 0 1 4.264672 -13.749009 56.003113
510 0 1 4.790080 -14.473708 55.707092
511 0 1 5.137080 -14.995910 54.904785
512 0 1 4.510840 -15.525109 54.279114
513 0 1 3.445868 -15.380509 54.422089
514 0 1 2.821454 -14.873809 54.858490
515 0 1 2.454283 -13.990109 54.704498
516 0 1 1.971180 -14.332509 53.930115
517 0 1 1.020079 -14.196710 53.759003
518 0 1 1.332390 -13.293408 53.741302
519 0 1 0.761509 -13.361309 52.975098
520 0 1 0.961779 -12.861109 52.158600
521 0 1 1.512009 -12.411709 52.766388
522 0 1 2.146660 -12.294808 52.103607
523 0 1 2.843911 -12.170309 51.543610
524 0 1 2.959157 -11.286710 51.163086
525 0 1 2.156439 -10.977809 51.613586
526 0 1 1.248721 -10.842408 51.933716
527 0 1 0.391060 -10.992309 52.279907
528 0 1 -0.324310 -11.589208 52.485504
529 0 1 -0.806070 -12.237609 51.959900
530 0 1 -1.280401 -12.432409 51.131500
531 0 1 -1.203170 -11.496110 51.126495
532 0 1 -2.022100 -11.155009 50.911804
533 0 1 -1.975120 -10.159608 51.034698
534 0 1 -2.959331 -10.317510 51.291595
535 0 1 -3.201530 -11.222009 51.037415
536 0 1 -4.215131 -11.163610 51.192017
537 0 1 -4.289131 -12.030909 51.570892
538 0 1 -4.213710 -12.647408 50.811798
539 0 1 -4.827409 -13.169209 51.297211
540 0 1 -4.864770 -13.390308 52.279205
541 0 1 -5.549011 -14.055308 52.113190
542 0 1 -5.764440 -14.871009 51.456604
543 0 1 -6.471401 -15.124608 50.925507
544 0 1 -5.897272 -15.896008 50.955109
545 0 1 -5.811471 -16.429010 50.157196
546 0 1 -5.069850 -17.035311 50.194885
547 0 1 -4.528699 -17.582310 50.855591
548 0 1 -3.624580 -17.224510 50.963104
549 0 1 -2.825799 -17.219509 50.388306
550 0 1 -2.871440 -16.624510 49.631989
551 0 1 -3.765800 -16.998409 49.379700
552 0 1 -4.639120 -17.526310 49.209290
553 0 1 -4.333881 -18.421110 49.403900
554 0 1 -5.143671 -18.872810 49.239594
555 0 1 -5.535539 -18.342609 48.497498
556 0 1 -6.297451 -18.445311 49.054993
557 0 1 -5.962101 -18.727409 49.960999
558 0 1 -6.588972 -18.919010 50.778687
559 0 1 -6.397981 -19.109310 51.762512
560 0 1 -6.509881 -18.390909 52.337799
561 0 1 -6.124740 -17.820311 53.070190
562 0 1 -6.257560 -16.996710 53.511292
563 0 1 -6.644910 -16.201910 53.182098
564 0 1 -6.014871 -15.890908 53.848999
565 0 1 -5.200971 -15.489308 53.428192
566 0 1 -5.691251 -14.817008 52.876892
567 0 1 -6.539230 -14.571208 52.498901
568 0 1 -7.423610 -14.145608 52.342896
569 0 1 -7.251911 -13.270209 51.952087
570 0 1 -7.306711 -12.530509 52.570984
571 0 1 -7.614511 -11.659009 52.773407
572 0 1 -7.703710 -10.747109 52.999298
573 0 1 -7.170709 -9.837209 52.796387
574 0 1 -7.242010 -9.129010 52.136810
575 0 1 -6.850912 -8.479209 52.683594
576 0 1 -7.016210 -7.797208 52.053894
577 0 1 -6.254190 -7.338289 52.343109
578 0 1 -5.463930 -6.844141 52.701904
579 0 1 -5.195350 -7.078710 51.802704
580 0 1 -4.729169 -6.484758 51.137909
581 0 1 -5.207201 -6.900070 50.431610
582 0 1 -5.428020 -7.771610 50.075989
583 0 1 -5.637109 -8.205609 49.269592
584 0 1 -6.028200 -9.015609 49.593292
585 0 1 -6.390790 -9.320809 50.436401
586 0 1 -6.382581 -10.245210 50.653687
587 0 1 -7.147409 -9.945508 51.100494
588 0 1 -8.132612 -9.727509 51.078613
589 0 1 -8.684912 -10.355609 51.518616
590 0 1 -9.393011 -9.658708 51.326508
591 0 1 -9.358110 -9.478808 50.377899
592 0 1 -8.891710 -9.377109 49.513916
593 0 1 -9.523012 -9.244908 48.812805
594 0 1 -10.124411 -9.932710 48.494995
595 0 1 -9.576712 -10.108808 47.712311
596 0 1 -10.444712 -10.063409 47.108307
597 0 1 -11.043011 -10.767009 47.371002
598 0 1 -11.593911 -10.354810 46.689087
599 0 1 -12.142911 -9.971509 45.991211
600 0 1 -12.942511 -9.827508 45.605011
601 0 1 -13.102110 -8.870509 45.771088
602 0 1 -12.627710 -8.694209 46.561890
603 0 1 -12.677511 -8.407109 47.489990
604 0 1 -11.804211 -8.393807 48.005615
605 0 1 -11.413610 -8.260407 47.166290
606 0 1 -11.460011 -8.088809 46.141113
607 0 1 -11.569911 -7.186979 45.790100
608 0 1 -10.855612 -6.886510 45.293304
609 0 1 -10.675611 -6.064069 45.774902
610 0 1 -10.795511 -5.208669 46.227600
611 0 1 -9.926111 -5.280248 46.656708
612 0 1 -9.109510 -4.994100 46.249390
613 0 1 -9.008511 -4.135599 46.615112
614 0 1 -9.776510 -3.645069 46.768494
615 0 1 -9.976210 -3.295789 45.920898
616 0 1 -9.015211 -3.369640 45.834900
617 0 1 -8.789110 -3.194170 44.918610
618 0 1 -8.460810 -3.985799 44.617798
619 0 1 -8.311110 -3.704839 43.684906
620 0 1 -7.795412 -4.229089 43.072693
621 0 1 -7.117610 -3.501409 42.885895
622 0 1 -6.302360 -2.994878 42.610107
623 0 1 -5.814180 -2.454170 42.012787
624 0 1 -5.892570 -2.758588 41.116608
625 0 1 -6.296030 -3.519788 40.729004
626 0 1 -6.560689 -3.202150 39.888092
627 0 1 -6.139211 -2.345840 39.904999
628 0 1 -5.364591 -1.742439 39.861298
629 0 1 -5.899690 -1.460168 40.616791
630 0 1 -6.775110 -1.178279 40.886108
631 0 1 -6.915210 -0.646289 40.120392
632 0 1 -7.318010 -0.235568 39.382690
633 0 1 -6.580480 0.310311 39.683716
634 0 1 -6.039211 1.027701 39.379517
635 0 1 -6.744409 1.648850 39.728302
636 0 1 -6.162370 2.220231 40.273987
637 0 1 -6.654409 2.820874 40.970398
638 0 1 -7.248710 2.097384 40.760406
639 0 1 -8.064611 2.367533 40.332611
640 0 1 -8.955912 2.235463 40.549988
641 0 1 -8.946310 3.266438 40.459198
642 0 1 -9.223612 3.832041 39.747009
643 0 1 -8.828211 4.632170 40.154510
644 0 1 -9.007511 5.014952 40.976593
645 0 1 -9.562010 4.859061 41.767883
646 0 1 -9.303110 5.522601 42.385406
647 0 1 -9.304211 6.418139 42.567017
648 0 1 -9.975012 6.052111 43.140106
649 0 1 -10.682510 5.453532 42.952515
650 0 1 -10.635511 5.464560 41.956390
651 0 1 -11.038210 5.327033 41.055786
652 0 1 -10.894411 4.409400 41.212097
653 0 1 -10.125910 4.495432 40.610596
654 0 1 -10.389009 4.965350 39.804199
655 0 1 -10.475512 4.799490 38.829590
656 0 1 -9.531210 4.984450 38.664703
657 0 1 -9.804811 4.996752 37.713013
658 0 1 -10.535810 4.320849 37.835602
659 0 1 -10.452211 4.306872 36.862610
660 0 1 -11.424810 4.267172 36.635498
661 0 1 -11.611711 4.389731 37.597809
662 0 1 -12.584611 4.325461 37.437012
663 0 1 -13.236910 4.737170 38.007294
664 0 1 -12.651011 4.314539 38.580292
665 0 1 -12.156211 3.544920 38.404999
666 0 1 -13.054010 3.354607 38.558289
667 0 1 -13.569210 3.491740 39.352905
668 0 1 -13.955912 2.627350 39.294098
669 0 1 -14.806911 2.140221 39.199585
670 0 1 -15.707510 1.995705 39.543884
671 0 1 -15.720110 1.069071 39.955017
672 0 1 -16.283112 0.828970 40.735199
673 0 1 -16.057211 1.005631 41.662598
674 0 1 -16.318811 1.518521 42.468994
675 0 1 -16.472311 2.259806 43.020508
676 0 1 -17.003111 2.832640 42.462585
677 0 1 -16.182011 3.244540 42.149994
678 0 1 -16.862511 3.908530 42.232117
679 0 1 -16.203411 4.577902 41.835815
680 0 1 -15.393810 4.953501 41.480591
681 0 1 -14.735611 4.141779 41.526398
682 0 1 -13.968311 3.910780 41.028412
683 0 1 -13.804811 4.866560 41.018097
684 0 1 -13.124111 5.383749 41.510712
685 0 1 -13.224411 6.036170 42.183197
686 0 1 -13.701111 6.712252 42.622406
687 0 1 -13.590910 7.588351 42.336487
688 0 1 -13.252111 8.421531 42.640503
689 0 1 -13.703812 8.703200 41.831604
690 0 1 -13.351011 9.403960 41.304016
691 0 1 -13.483511 10.272040 41.768799
692 0 1 -13.941311 10.475970 40.934906
693 0 1 -14.401911 10.414733 40.074799
694 0 1 -13.865311 10.279521 39.204407
695 0 1 -13.923611 10.071731 38.276794
696 0 1 -14.800211 9.780681 38.591614
697 0 1 -14.907511 9.177070 39.327515
698 0 1 -14.548010 8.351932 38.942902
699 0 1 -14.520210 7.393012 38.714508
700 0 1 -13.930712 6.725230 39.105011
701 0 1 -14.821211 6.429183 39.040405
702 0 1 -14.348810 5.700140 38.555603
703 0 1 -13.499210 5.973181 38.362000
704 0 1 -13.415710 5.984301 37.401001
705 0 1 -13.343010 5.768580 36.426392
706 0 1 -12.563511 6.180590 36.103699
707 0 1 -13.018412 6.380560 35.250793
708 0 1 -13.843410 6.040183 34.833801
709 0 1 -14.150610 6.501139 35.663086
710 0 1 -14.306911 7.288531 35.210815
711 0 1 -14.043911 7.163531 34.222504
712 0 1 -14.449110 7.656062 33.505615
713 0 1 -13.933010 8.505141 33.379791
714 0 1 -13.561510 8.948520 34.091309
715 0 1 -12.812811 8.600173 34.487000
716 0 1 -12.654612 8.647891 33.569611
717 0 1 -11.780011 8.388701 33.083405
718 0 1 -11.827511 7.501189 33.397797
719 0 1 -10.951611 7.831969 33.654694
720 0 1 -11.054510 7.069811 34.105988
721 0 1 -11.436411 6.342669 33.598206
722 0 1 -12.270211 6.361269 34.067505
723 0 1 -12.628311 5.556342 33.768097
724 0 1 -12.999811 4.804522 34.264313
725 0 1 -13.602711 4.510832 34.893616
726 0 1 -14.321911 3.967461 35.402893
727 0 1 -15.234612 4.241759 35.554016
728 0 1 -15.620312 4.757010 34.725800
729 0 1 -16.463711 4.380179 34.845398
730 0 1 -16.806511 4.673491 35.645599
731 0 1 -16.274311 4.206191 36.273499
732 0 1 -16.597811 3.425717 36.763916
733 0 1 -16.164511 3.023085 35.971497
734 0 1 -16.787010 2.344025 35.790802
735 0 1 -16.203812 1.519494 35.643188
736 0 1 -15.576910 1.421660 34.942291
737 0 1 -16.519211 1.413701 34.596893
738 0 1 -17.488611 1.426510 34.775391
739 0 1 -18.016111 0.817101 35.289612
740 0 1 -18.580410 0.940692 34.500092
741 0 1 -19.307310 1.100541 33.961090
742 0 1 -18.941912 1.911515 33.557983
743 0 1 -19.394310 2.552647 34.127289
744 0 1 -19.309811 3.515172 33.992310
745 0 1 -19.963411 4.205939 34.311310
746 0 1 -20.702711 4.416159 34.929291
747 0 1 -20.904810 4.997500 34.228790
748 0 1 -21.298311 5.729849 33.899292
749 0 1 -21.023312 5.463572 32.989899
750 0 1 -21.677811 6.154749 32.825409
751 0 1 -22.089111 6.963202 32.489288
752 0 1 -22.580111 6.165152 32.303497
753 0 1 -23.264311 6.536902 31.785095
754 0 1 -23.841110 7.237231 32.159912
755 0 1 -24.470310 7.136271 31.358795
756 0 1 -24.792212 7.650641 30.586395
757 0 1 -24.990911 8.092830 31.412415
758 0 1 -24.409811 8.818072 31.234100
759 0 1 -23.723211 8.925090 31.924591
760 0 1 -22.916111 9.205993 32.261200
761 0 1 -22.123112 9.894141 32.450195
762 0 1 -22.508011 10.525001 33.022888
763 0 1 -22.110510 10.727000 33.950104
764 0 1 -21.404810 11.281531 34.333405
765 0 1 -20.792511 10.472251 34.330200
766 0 1 -20.483810 9.835933 34.964996
767 0 1 -19.670712 10.078532 35.360413
768 0 1 -19.547510 9.192500 34.928009
769 0 1 -18.574511 9.336013 34.947205
770 0 1 -17.783310 9.227382 34.502899
771 0 1 -17.211010 9.573890 35.225891
772 0 1 -17.238312 9.571593 36.194397
773 0 1 -17.219311 10.523921 36.285004
774 0 1 -16.277111 10.782683 36.274902
775 0 1 -16.898211 11.344531 35.733795
776 0 1 -17.542912 11.678710 36.364105
777 0 1 -17.357512 12.324759 35.661102
778 0 1 -17.214811 13.067389 35.037811
779 0 1 -17.283411 13.340590 34.136688
780 0 1 -17.826410 13.146689 33.358307
781 0 1 -18.122610 12.991691 32.447510
782 0 1 -18.893311 13.250190 31.995300
783 0 1 -18.260511 13.966392 31.902588
784 0 1 -18.091011 13.470290 31.114197
785 0 1 -17.269812 13.223990 30.665192
786 0 1 -16.483810 13.789290 30.661316
787 0 1 -15.723310 14.340190 30.751404
788 0 1 -15.399511 15.064391 31.383209
789 0 1 -15.739511 15.849792 30.913513