LAMMPS data file via MDAnalysis

        2000  atoms
        1999  bonds
           0  angles
           0  dihedrals
           0  impropers

           1  atom types
           1  bond types
           0  angle types
           0  dihedral types
           0  improper types

-30.5 30.5 xlo xhi
-30.5 30.5 ylo yhi
-233.5 233.5 zlo zhi


Masses

1 1.000000

Atoms

1 0 1 -8.585086 -23.146732 71.760986
2 0 1 -8.048236 -23.630133 71.057098
3 0 1 -7.172326 -23.699732 70.587799
4 0 1 -6.351586 -23.764832 71.072693
5 0 1 -5.926135 -23.100933 70.566895
6 0 1 -5.977145 -22.354132 70.038696
7 0 1 -5.591697 -21.629131 69.568604
8 0 1 -4.814235 -21.202433 69.949005
9 0 1 -5.305455 -20.301033 69.840790
10 0 1 -5.735385 -19.480032 70.131805
11 0 1 -5.243386 -19.764332 70.894104
12 0 1 -5.741475 -18.888332 71.036194
13 0 1 -6.224975 -18.060331 71.064392
14 0 1 -7.233315 -18.030333 71.205811
15 0 1 -6.970706 -18.006132 72.118713
16 0 1 -7.424445 -18.758532 72.328186
17 0 1 -7.603175 -18.677332 73.299896
18 0 1 -8.304585 -18.032532 73.539001
19 0 1 -8.171985 -17.075733 73.616608
20 0 1 -8.507485 -16.273632 74.099701
21 0 1 -8.681445 -16.116232 73.201996
22 0 1 -9.281196 -15.343532 73.308716
23 0 1 -9.485927 -14.516532 73.761200
24 0 1 -9.434905 -13.699731 73.243103
25 0 1 -8.736796 -13.495232 74.001495
26 0 1 -8.349807 -13.777331 74.814697
27 0 1 -7.793777 -12.980331 74.685608
28 0 1 -7.436196 -13.617831 74.075806
29 0 1 -6.495305 -13.240131 74.206390
30 0 1 -6.061036 -12.906832 73.456909
31 0 1 -5.279376 -13.448331 73.485413
32 0 1 -4.283916 -13.444531 73.269714
33 0 1 -4.285815 -13.422731 72.264801
34 0 1 -4.336436 -12.524430 72.054199
35 0 1 -3.787646 -12.253531 71.304596
36 0 1 -4.062865 -12.496831 70.442200
37 0 1 -4.236236 -11.852330 69.775208
38 0 1 -4.543155 -11.707831 68.850891
39 0 1 -4.300666 -12.597732 68.486084
40 0 1 -3.988255 -11.824731 67.901306
41 0 1 -3.850926 -11.356931 67.130798
42 0 1 -3.398795 -10.949830 66.344299
43 0 1 -2.814826 -10.785932 65.576111
44 0 1 -2.116475 -10.341031 66.026306
45 0 1 -1.921086 -10.940631 66.803802
46 0 1 -2.243325 -11.318131 67.627411
47 0 1 -1.427756 -11.737332 67.981995
48 0 1 -1.023021 -11.223031 68.652710
49 0 1 -0.196147 -10.917031 69.065491
50 0 1 -0.666959 -11.306731 69.759491
51 0 1 -1.011161 -10.483932 70.237793
52 0 1 -1.574956 -9.934331 70.765594
53 0 1 -0.852078 -9.557832 71.150391
54 0 1 -0.599343 -9.523131 72.078705
55 0 1 -0.558350 -8.573031 72.013000
56 0 1 -1.517255 -8.662232 72.033295
57 0 1 -2.090995 -9.054631 72.645386
58 0 1 -1.401795 -9.414731 73.261719
59 0 1 -0.525044 -9.066331 73.319611
60 0 1 0.401254 -8.886931 73.572388
61 0 1 0.727481 -8.256911 74.154114
62 0 1 1.123864 -7.385022 74.061401
63 0 1 1.507844 -7.243581 73.152283
64 0 1 2.046155 -7.597142 72.434387
65 0 1 1.565416 -7.079553 71.907288
66 0 1 1.543916 -6.131371 72.304016
67 0 1 1.940606 -5.732862 71.420197
68 0 1 2.898816 -5.440211 71.123108
69 0 1 3.089723 -6.192472 70.462708
70 0 1 2.511293 -5.466531 70.073792
71 0 1 1.917295 -4.817552 69.749512
72 0 1 2.295606 -3.866561 69.457886
73 0 1 3.045614 -3.473941 69.853516
74 0 1 2.928743 -3.374563 68.924316
75 0 1 3.584485 -3.216703 68.280396
76 0 1 3.720323 -2.396331 67.840698
77 0 1 2.868634 -2.023481 67.963684
78 0 1 2.439645 -1.875612 67.142090
79 0 1 1.937005 -2.690702 66.823395
80 0 1 1.535825 -3.434131 66.393890
81 0 1 2.034314 -3.090680 65.618591
82 0 1 1.663083 -3.809491 65.074707
83 0 1 1.222854 -4.191581 64.235596
84 0 1 2.008306 -4.336122 63.667511
85 0 1 2.416204 -4.504552 62.831604
86 0 1 3.254716 -5.007541 62.960602
87 0 1 3.563745 -4.709411 62.103394
88 0 1 4.155484 -4.055711 62.583893
89 0 1 3.794954 -3.195501 62.830200
90 0 1 3.200895 -2.431791 62.635101
91 0 1 2.515695 -2.235681 61.913300
92 0 1 1.928323 -1.862632 62.616089
93 0 1 1.534543 -1.405181 61.858093
94 0 1 1.636434 -2.011102 60.996704
95 0 1 0.795350 -1.678222 60.762207
96 0 1 1.194135 -0.890382 60.382599
97 0 1 0.182195 -0.876832 60.380188
98 0 1 0.231137 -0.396392 59.492004
99 0 1 0.093480 -0.476121 58.545197
100 0 1 0.450738 -1.373351 58.764496
101 0 1 1.189645 -0.784801 58.612305
102 0 1 2.076436 -0.970351 58.861084
103 0 1 1.905584 -0.071172 58.595886
104 0 1 2.048303 0.046649 57.636688
105 0 1 1.275485 -0.161191 57.138702
106 0 1 0.786309 -0.872632 56.702698
107 0 1 0.406594 -0.928691 55.785095
108 0 1 0.168004 -0.010991 55.611603
109 0 1 0.879481 0.504708 55.115997
110 0 1 1.406745 -0.388971 54.971497
111 0 1 1.509034 -0.972711 54.230804
112 0 1 1.880975 -1.303821 53.267792
113 0 1 1.876264 -0.925201 52.304596
114 0 1 1.338504 -1.290462 51.522003
115 0 1 1.644456 -1.314801 50.612091
116 0 1 1.729745 -0.349132 50.411407
117 0 1 1.953214 0.129189 51.186584
118 0 1 2.755155 -0.219522 51.681702
119 0 1 2.754026 0.145938 52.571808
120 0 1 2.444745 1.040890 52.395599
121 0 1 2.062696 1.937886 52.065094
122 0 1 2.286023 2.327311 52.921906
123 0 1 3.233957 2.551614 52.807587
124 0 1 3.450944 3.475890 52.999207
125 0 1 3.036985 3.727217 52.150391
126 0 1 3.965726 3.450988 52.083801
127 0 1 3.986974 4.362029 52.527191
128 0 1 4.463906 4.382777 51.588806
129 0 1 4.964555 4.195918 52.365509
130 0 1 4.743314 5.153888 52.489594
131 0 1 5.644326 5.348567 52.396088
132 0 1 5.868684 5.879550 51.596405
133 0 1 5.537724 5.084567 51.127197
134 0 1 5.673715 4.414237 50.442413
135 0 1 6.569753 4.062789 50.433899
136 0 1 7.238935 4.048579 51.156708
137 0 1 7.462476 3.256037 50.633698
138 0 1 6.916265 2.595744 51.077087
139 0 1 7.409883 1.880009 51.619385
140 0 1 8.218694 1.949256 52.293701
141 0 1 7.948323 2.682442 52.884888
142 0 1 8.373883 3.285010 53.562195
143 0 1 7.500993 3.654429 53.802887
144 0 1 6.745873 3.315810 53.266602
145 0 1 6.915105 2.733769 54.024811
146 0 1 7.674516 2.029202 53.945099
147 0 1 7.926663 1.138806 53.959412
148 0 1 8.114884 0.583529 53.233795
149 0 1 8.306726 -0.019412 53.939514
150 0 1 7.486123 -0.393583 54.307892
151 0 1 7.983544 -1.292201 54.049896
152 0 1 8.614266 -2.046832 53.885498
153 0 1 9.356606 -2.723371 53.839203
154 0 1 10.148744 -3.277612 54.122894
155 0 1 9.308003 -3.718480 54.207214
156 0 1 8.956914 -4.444371 54.747894
157 0 1 9.799443 -4.783002 55.047913
158 0 1 9.324754 -4.834252 55.852692
159 0 1 9.411942 -5.258031 56.771301
160 0 1 9.991242 -5.401221 57.516510
161 0 1 10.448747 -6.225581 57.500183
162 0 1 11.415044 -6.178292 57.289093
163 0 1 11.948846 -6.058131 56.506805
164 0 1 11.677144 -5.968312 55.591309
165 0 1 11.862145 -5.589562 54.638092
166 0 1 12.103044 -5.776832 53.700104
167 0 1 11.678544 -5.651631 52.835083
168 0 1 11.880544 -4.712901 52.917297
169 0 1 11.096345 -4.172141 52.939301
170 0 1 10.673543 -4.440572 52.115692
171 0 1 10.935746 -4.507852 51.220703
172 0 1 11.745843 -4.534242 50.627899
173 0 1 11.641145 -4.502931 49.672607
174 0 1 12.473245 -3.993181 49.898315
175 0 1 12.140645 -3.120082 50.109100
176 0 1 11.910745 -3.244491 49.151917
177 0 1 11.010045 -2.927581 49.374512
178 0 1 10.504846 -2.321561 48.843506
179 0 1 9.564736 -2.315892 49.023590
180 0 1 9.104684 -2.369981 48.243103
181 0 1 8.292054 -2.732742 47.778290
182 0 1 7.367715 -2.538541 47.682800
183 0 1 7.445985 -2.409452 46.737091
184 0 1 7.634374 -1.425792 46.547607
185 0 1 7.539193 -1.936881 45.728516
186 0 1 7.510175 -1.419400 44.830200
187 0 1 7.787473 -1.048801 43.973083
188 0 1 7.438783 -1.431272 43.164398
189 0 1 7.976094 -0.806491 42.596588
190 0 1 7.869084 0.108998 42.380615
191 0 1 7.802945 0.633128 43.135712
192 0 1 8.707864 0.281598 43.190704
193 0 1 9.180436 1.090564 42.743286
194 0 1 9.890016 0.489539 42.807800
195 0 1 10.765645 0.941211 42.742310
196 0 1 11.409844 1.065533 42.095703
197 0 1 10.676343 0.796984 41.409210
198 0 1 10.141946 0.040078 41.111511
199 0 1 10.256745 0.425959 40.222504
200 0 1 9.536466 -0.022802 39.773895
201 0 1 8.848886 -0.618242 39.659302
202 0 1 8.248002 -1.169902 39.197510
203 0 1 8.004693 -1.270362 40.101807
204 0 1 7.736215 -2.120561 40.443298
205 0 1 6.934243 -1.497291 40.301086
206 0 1 6.161534 -1.877431 39.842804
207 0 1 5.816674 -1.388582 40.634888
208 0 1 4.907166 -1.204812 40.902008
209 0 1 4.720902 -2.083421 40.626801
210 0 1 4.173505 -2.400592 41.302094
211 0 1 3.980867 -3.328592 41.173004
212 0 1 3.265085 -3.946061 41.341400
213 0 1 2.304063 -4.014522 41.452515
214 0 1 1.762895 -4.294742 40.734497
215 0 1 1.312194 -4.301190 39.865112
216 0 1 0.402353 -4.158422 39.423584
217 0 1 0.139171 -4.404702 38.549011
218 0 1 -0.741387 -4.619561 38.265808
219 0 1 -1.268506 -5.010242 37.657806
220 0 1 -0.434022 -5.483602 37.659790
221 0 1 -1.116896 -6.085631 37.606903
222 0 1 -0.865784 -6.705651 36.814606
223 0 1 -0.141349 -6.673390 36.179199
224 0 1 0.689424 -7.140420 36.394806
225 0 1 0.271627 -7.074801 37.271606
226 0 1 -0.116942 -7.553552 38.019897
227 0 1 -0.030448 -7.594632 39.002502
228 0 1 0.357465 -8.381131 39.404388
229 0 1 0.146680 -9.005532 40.052002
230 0 1 0.268346 -8.831431 41.040009
231 0 1 1.254924 -8.464932 41.199097
232 0 1 1.100394 -7.835971 40.417297
233 0 1 1.370565 -6.960191 40.825684
234 0 1 0.666272 -6.976140 40.208405
235 0 1 -0.238654 -7.445622 40.120300
236 0 1 -1.171605 -7.161391 39.999512
237 0 1 -1.964875 -6.756932 40.423492
238 0 1 -1.441836 -5.987531 40.224304
239 0 1 -1.511956 -5.052852 39.892212
240 0 1 -2.057805 -4.820331 39.200684
241 0 1 -2.670146 -4.279571 39.743500
242 0 1 -2.118026 -4.437181 40.569214
243 0 1 -1.855216 -3.743840 41.128113
244 0 1 -1.220774 -2.998582 40.888000
245 0 1 -2.016045 -2.876851 40.387604
246 0 1 -2.743026 -2.571531 41.007202
247 0 1 -3.116366 -3.301841 41.501801
248 0 1 -3.152255 -3.263911 42.537292
249 0 1 -2.164456 -3.375892 42.591095
250 0 1 -1.467156 -3.465501 43.248901
251 0 1 -1.182496 -3.888921 42.383789
252 0 1 -0.383391 -4.007991 42.948090
253 0 1 -0.378894 -4.931602 43.234589
254 0 1 -0.879884 -4.487201 43.925507
255 0 1 -1.105685 -4.160512 44.849701
256 0 1 -0.090571 -4.314141 45.006012
257 0 1 -0.065556 -3.637632 44.353790
258 0 1 -0.925179 -3.211042 44.223602
259 0 1 -0.244550 -2.977142 43.538513
260 0 1 -0.167088 -2.162982 44.012604
261 0 1 -0.788550 -1.683841 43.521606
262 0 1 -0.121424 -1.327932 43.011810
263 0 1 -0.125703 -1.399631 42.026489
264 0 1 0.656535 -0.929351 42.064789
265 0 1 1.166984 -0.578191 41.358093
266 0 1 2.014104 -0.528531 41.826691
267 0 1 2.754136 -0.491321 41.150909
268 0 1 3.531835 0.075198 41.412903
269 0 1 4.518266 0.149819 41.622894
270 0 1 4.928285 0.546099 40.761108
271 0 1 4.973065 1.526520 40.930511
272 0 1 4.042176 1.533763 41.131592
273 0 1 3.929773 2.404158 40.832794
274 0 1 4.686154 2.505549 40.143188
275 0 1 5.508035 2.893039 39.833801
276 0 1 6.470784 3.175948 39.672394
277 0 1 6.949555 2.393105 39.352905
278 0 1 7.814393 2.782899 39.149414
279 0 1 8.361344 3.599730 39.148499
280 0 1 8.369443 4.348880 39.659088
281 0 1 7.717416 4.989070 39.604706
282 0 1 8.206986 5.323810 38.825592
283 0 1 7.896764 6.156058 39.182587
284 0 1 8.058225 6.727717 38.465302
285 0 1 8.655686 7.078380 37.802490
286 0 1 9.537274 6.921920 37.553589
287 0 1 9.329156 7.198291 36.654785
288 0 1 8.542497 7.602347 36.215515
289 0 1 7.848073 7.908130 36.812103
290 0 1 7.969033 8.617969 37.571594
291 0 1 7.839616 9.315768 36.912811
292 0 1 7.245934 10.069621 36.556000
293 0 1 7.163163 10.678050 37.302399
294 0 1 6.745793 10.123820 37.924896
295 0 1 7.044515 9.264308 38.256500
296 0 1 7.208405 8.504359 38.969299
297 0 1 7.598775 7.840671 38.269409
298 0 1 7.004636 7.590400 37.482117
299 0 1 6.367166 6.984797 37.047699
300 0 1 6.517816 6.056529 36.696289
301 0 1 7.394345 5.856120 36.303894
302 0 1 8.005326 5.888549 35.588104
303 0 1 8.655423 6.489490 35.073608
304 0 1 8.851785 6.332179 34.092194
305 0 1 8.890695 7.118850 33.581512
306 0 1 8.665856 7.713000 32.937317
307 0 1 7.912045 7.398780 33.349792
308 0 1 7.388795 6.590629 33.512604
309 0 1 6.849313 5.940280 34.091400
310 0 1 6.250775 6.532077 33.576111
311 0 1 5.998834 6.208358 32.681213
312 0 1 5.656293 6.274779 31.770508
313 0 1 6.064725 7.056247 32.033386
314 0 1 7.011235 7.361899 31.997314
315 0 1 7.119554 6.594028 31.400513
316 0 1 7.983094 7.034648 31.333710
317 0 1 7.941606 7.612079 30.493500
318 0 1 8.205464 8.140948 31.264709
319 0 1 7.539956 8.783908 31.045502
320 0 1 7.702844 9.443229 30.401489
321 0 1 8.206265 10.224990 30.188293
322 0 1 7.341493 10.408717 29.923401
323 0 1 7.160596 11.220019 29.478088
324 0 1 6.267095 11.398227 29.967896
325 0 1 5.840405 12.072070 29.384186
326 0 1 5.609174 13.009368 29.215515
327 0 1 5.616563 12.891768 28.283386
328 0 1 5.217385 13.440669 27.591309
329 0 1 4.853696 13.765269 28.425110
330 0 1 4.466115 12.963069 28.776001
331 0 1 3.575975 13.285369 28.488586
332 0 1 3.351545 14.206969 28.601288
333 0 1 2.555715 14.065269 29.135101
334 0 1 2.004766 13.403468 29.613403
335 0 1 1.835534 13.973170 30.258911
336 0 1 1.046754 13.819468 30.748901
337 0 1 0.277703 13.903968 30.193604
338 0 1 0.025468 14.783267 30.430389
339 0 1 0.463529 15.657767 30.579803
340 0 1 0.508493 15.298869 31.474487
341 0 1 0.470969 14.518870 32.058289
342 0 1 0.088521 14.024970 32.770599
343 0 1 -0.820857 14.284869 32.453888
344 0 1 -0.865521 15.139770 32.962585
345 0 1 -1.593865 15.701671 32.785889
346 0 1 -2.490206 15.371867 33.048187
347 0 1 -3.479325 15.608970 33.139587
348 0 1 -3.333596 16.066568 32.313293
349 0 1 -3.651644 16.665270 32.929504
350 0 1 -3.202136 17.363668 32.519409
351 0 1 -2.410586 17.911367 32.896912
352 0 1 -1.845706 18.739069 33.069794
353 0 1 -1.068999 18.765665 32.511505
354 0 1 -0.276383 18.273767 32.922394
355 0 1 0.296569 17.844866 32.253998
356 0 1 0.141229 17.007067 31.830994
357 0 1 0.762349 16.276270 31.986511
358 0 1 1.666803 16.357767 31.618011
359 0 1 2.408296 16.398470 32.164917
360 0 1 3.056363 16.096067 32.739899
361 0 1 3.282686 15.416968 33.387207
362 0 1 4.200635 15.665668 33.437317
363 0 1 4.212445 15.076770 34.159210
364 0 1 4.223855 14.108069 34.292297
365 0 1 4.083245 13.926368 35.220306
366 0 1 4.659574 13.259570 35.643890
367 0 1 4.878144 12.349868 35.265106
368 0 1 4.701066 12.539969 34.341888
369 0 1 4.214955 12.507167 33.499390
370 0 1 3.849313 13.316867 33.282898
371 0 1 3.091085 13.176066 32.674805
372 0 1 3.662423 13.019370 31.933105
373 0 1 3.871713 14.008170 31.927307
374 0 1 4.151475 14.880668 31.665497
375 0 1 4.399705 15.808368 31.969604
376 0 1 4.697644 16.548769 32.422607
377 0 1 5.374326 17.252768 32.443512
378 0 1 5.270345 17.368269 31.512909
379 0 1 5.032205 18.228567 31.212708
380 0 1 5.737905 18.707766 31.652313
381 0 1 6.730016 18.875868 31.610596
382 0 1 6.320413 18.793268 30.674194
383 0 1 6.069104 19.623468 30.230194
384 0 1 6.565274 20.335970 30.619202
385 0 1 7.002576 20.100367 31.457489
386 0 1 7.718904 20.121569 32.144409
387 0 1 8.419267 20.632669 32.579895
388 0 1 8.581773 19.721869 32.791016
389 0 1 8.139382 19.111967 33.393097
390 0 1 7.602414 19.609270 34.016296
391 0 1 7.162164 19.944868 34.834991
392 0 1 6.924073 18.960268 35.026611
393 0 1 7.216126 18.111666 34.833496
394 0 1 6.627465 18.108965 35.630005
395 0 1 7.203965 18.320566 36.322113
396 0 1 7.628846 18.178865 37.260010
397 0 1 7.289613 17.255869 37.245209
398 0 1 7.355653 16.675367 38.022797
399 0 1 7.198533 17.203466 38.735291
400 0 1 6.243684 16.880770 38.784698
401 0 1 6.271764 15.955371 39.193390
402 0 1 6.798844 16.497866 39.725189
403 0 1 6.088513 16.768568 40.240784
404 0 1 6.204156 16.793566 41.304108
405 0 1 6.347016 17.413969 42.005798
406 0 1 5.969415 18.339468 41.936401
407 0 1 6.339536 18.690866 42.757599
408 0 1 6.609235 19.641466 43.166412
409 0 1 5.609563 19.794970 43.083801
410 0 1 5.494924 18.911066 43.455383
411 0 1 5.225904 18.493265 44.267303
412 0 1 4.860154 19.009169 45.030792
413 0 1 4.420953 19.033869 45.914001
414 0 1 3.483445 18.851068 46.188507
415 0 1 3.977124 18.705370 46.960388
416 0 1 4.571603 18.048468 46.625702
417 0 1 3.669534 17.612467 46.566895
418 0 1 2.710134 17.740667 46.640289
419 0 1 2.596166 18.394266 45.918610
420 0 1 2.713956 19.270266 45.408905
421 0 1 2.354985 19.570566 46.223389
422 0 1 2.200776 20.153368 45.447693
423 0 1 1.322885 19.815569 45.074005
424 0 1 0.947135 19.553370 44.144897
425 0 1 1.875123 19.142569 44.055908
426 0 1 1.819764 18.686068 44.911591
427 0 1 1.120544 18.197367 44.375793
428 0 1 0.200446 18.223169 44.674408
429 0 1 -0.503659 18.815371 44.876495
430 0 1 -0.330354 19.558565 45.478516
431 0 1 -0.678397 19.822168 46.295898
432 0 1 -1.279956 20.566866 45.949707
433 0 1 -2.034116 20.443567 45.348694
434 0 1 -2.615725 20.988169 45.915283
435 0 1 -2.365145 21.872969 46.254517
436 0 1 -2.015225 22.546465 45.540497
437 0 1 -2.324275 23.257769 44.886993
438 0 1 -3.074805 22.716066 44.942993
439 0 1 -3.122615 23.200068 44.081390
440 0 1 -2.508326 22.699366 43.412994
441 0 1 -1.965625 22.165667 44.054688
442 0 1 -2.484126 21.364466 44.102692
443 0 1 -2.172105 20.582666 43.639008
444 0 1 -1.923285 19.993166 42.893616
445 0 1 -2.652076 19.467470 43.112610
446 0 1 -3.389895 18.898867 43.377594
447 0 1 -3.972966 18.331865 42.856201
448 0 1 -3.799666 17.789968 41.986206
449 0 1 -4.293305 18.158770 41.217285
450 0 1 -4.715236 18.814867 40.576904
451 0 1 -4.272105 18.599268 39.726807
452 0 1 -4.456416 17.876566 39.097504
453 0 1 -5.305186 17.722567 38.747009
454 0 1 -5.351417 17.150766 37.988892
455 0 1 -5.060016 16.214666 37.922485
456 0 1 -5.696296 16.531168 37.248901
457 0 1 -6.557567 16.452768 36.749298
458 0 1 -5.966146 16.399969 36.035309
459 0 1 -6.715507 16.795767 35.566498
460 0 1 -6.343226 16.387369 34.716797
461 0 1 -7.268046 16.228468 34.449799
462 0 1 -7.428695 16.107367 33.472290
463 0 1 -8.340245 16.262068 33.291992
464 0 1 -7.842305 16.331266 32.449890
465 0 1 -7.279735 16.539267 31.705811
466 0 1 -7.739156 17.340067 31.951416
467 0 1 -8.592734 17.125467 31.712006
468 0 1 -9.282996 17.627069 32.063507
469 0 1 -9.613746 16.740667 31.712311
470 0 1 -9.837106 16.427969 30.879486
471 0 1 -9.009215 16.260267 30.442810
472 0 1 -8.061036 16.597967 30.558289
473 0 1 -8.011405 15.657569 30.565796
474 0 1 -7.563426 14.830768 30.248993
475 0 1 -7.328536 15.450168 29.611603
476 0 1 -8.111014 15.933070 29.429291
477 0 1 -8.321666 16.853567 29.428894
478 0 1 -7.481147 17.148268 29.750305
479 0 1 -7.489186 18.067568 29.940887
480 0 1 -7.677815 19.011469 29.990814
481 0 1 -7.196435 19.797968 29.741302
482 0 1 -7.106336 19.640768 28.716614
483 0 1 -7.401046 19.418367 27.875397
484 0 1 -7.139735 18.520166 27.596802
485 0 1 -6.800025 17.747068 28.171112
486 0 1 -7.392066 17.466166 27.426300
487 0 1 -8.159526 17.290468 26.916504
488 0 1 -8.957215 17.692469 26.446198
489 0 1 -9.879275 18.127970 26.693512
490 0 1 -10.573955 18.740366 26.923096
491 0 1 -11.368556 18.167967 27.034302
492 0 1 -11.894855 17.688570 26.355103
493 0 1 -12.785457 17.428968 26.071686
494 0 1 -13.490455 17.688967 25.525696
495 0 1 -14.129157 17.047968 25.197113
496 0 1 -14.824856 17.736567 25.358307
497 0 1 -15.463256 18.392569 25.627686
498 0 1 -15.545856 18.357569 26.547699
499 0 1 -16.161255 17.926569 27.195984
500 0 1 -16.207054 17.275969 27.954498
501 0 1 -15.482455 16.613768 27.966309
502 0 1 -15.018656 17.422567 27.913086
503 0 1 -14.410756 17.036966 27.299011
504 0 1 -13.695756 16.486368 26.911194
505 0 1 -13.412055 15.656466 26.474304
506 0 1 -12.779357 14.981868 26.432495
507 0 1 -13.057256 14.797267 25.522308
508 0 1 -13.246655 14.360969 24.740997
509 0 1 -12.861754 14.970267 24.143890
510 0 1 -13.240954 14.961970 23.316010
511 0 1 -13.685355 14.195567 23.751007
512 0 1 -14.576256 13.929870 23.520294
513 0 1 -15.299056 14.509570 23.739197
514 0 1 -14.533256 14.690669 24.169891
515 0 1 -14.801056 14.962668 24.974915
516 0 1 -15.182956 15.388968 25.703094
517 0 1 -15.846556 15.311469 26.354492
518 0 1 -16.050356 16.138868 26.795410
519 0 1 -16.869854 15.671668 26.799591
520 0 1 -17.124454 14.811568 27.223816
521 0 1 -17.034754 14.412368 28.057709
522 0 1 -17.443254 14.735568 28.922913
523 0 1 -16.874254 15.274669 29.455109
524 0 1 -16.418854 16.115366 29.018402
525 0 1 -16.294455 15.601268 28.233612
526 0 1 -15.757256 14.774169 28.049896
527 0 1 -15.207855 14.264369 28.672211
528 0 1 -15.360556 13.496768 28.215698
529 0 1 -15.690556 12.639869 28.151886
530 0 1 -15.265856 11.783168 27.919800
531 0 1 -15.931756 11.122008 27.885498
532 0 1 -16.752356 10.701999 27.628601
533 0 1 -17.530254 11.053638 27.122009
534 0 1 -17.461855 11.335059 26.264496
535 0 1 -17.308855 10.445430 25.879791
536 0 1 -16.395454 10.448668 25.605713
537 0 1 -15.662056 10.218890 26.240997
538 0 1 -15.090755 9.430900 26.211792
539 0 1 -15.098056 8.555469 26.623993
540 0 1 -15.090456 7.668448 26.959900
541 0 1 -15.374956 6.975669 27.600708
542 0 1 -14.346354 6.959628 27.746490
543 0 1 -14.131557 7.850780 27.571198
544 0 1 -14.131755 8.768889 27.158600
545 0 1 -13.412156 8.930049 27.754395
546 0 1 -13.189055 8.345908 28.519989
547 0 1 -13.651256 9.097480 28.847900
548 0 1 -13.820457 9.474437 29.827301
549 0 1 -14.559155 10.039866 30.205811
550 0 1 -14.525855 11.008388 29.986389
551 0 1 -15.191755 11.126288 30.647614
552 0 1 -14.958456 11.948569 31.168793
553 0 1 -15.255156 11.675197 32.060394
554 0 1 -16.021355 11.955268 31.638092
555 0 1 -16.502155 12.780169 31.569611
556 0 1 -17.088854 12.579669 32.264313
557 0 1 -17.154955 13.183368 33.093689
558 0 1 -18.078955 12.891971 32.864685
559 0 1 -18.766655 13.345668 32.463013
560 0 1 -19.296255 12.742568 31.958801
561 0 1 -20.290754 12.710170 32.060699
562 0 1 -20.773155 13.564170 32.088104
563 0 1 -21.074955 13.633670 32.946716
564 0 1 -21.665554 13.224868 33.651703
565 0 1 -22.237955 12.602569 33.248688
566 0 1 -22.839855 12.971168 32.428711
567 0 1 -22.989254 13.531466 31.608795
568 0 1 -22.447454 13.708068 30.755310
569 0 1 -21.888655 13.692969 29.972595
570 0 1 -21.827055 13.806869 28.986389
571 0 1 -22.767056 13.776767 28.717285
572 0 1 -23.608456 13.481967 28.468994
573 0 1 -24.262354 12.750068 28.413300
574 0 1 -24.622755 12.474170 27.611908
575 0 1 -24.807255 11.804870 26.954895
576 0 1 -24.939856 11.048179 26.376892
577 0 1 -25.846655 11.020137 26.758911
578 0 1 -25.166054 10.534427 27.306305
579 0 1 -24.269754 10.813548 27.257599
580 0 1 -24.265656 10.170550 26.601990
581 0 1 -24.901855 10.210670 25.823486
582 0 1 -25.110754 10.844768 25.164001
583 0 1 -24.457355 11.030700 24.489807
584 0 1 -24.834555 11.936168 24.141602
585 0 1 -25.442455 12.251468 23.373901
586 0 1 -24.523355 12.118567 22.958496
587 0 1 -24.773855 12.548671 22.082596
588 0 1 -23.906555 12.740970 21.755905
589 0 1 -23.709255 13.379367 21.150101
590 0 1 -24.044554 13.957370 21.880997
591 0 1 -23.499954 13.820067 22.640503
592 0 1 -23.472954 14.773967 22.504089
593 0 1 -22.543554 15.068870 22.674591
594 0 1 -22.105955 15.889468 22.863708
595 0 1 -22.369255 16.695868 22.516205
596 0 1 -21.457054 16.881769 22.291397
597 0 1 -20.903854 16.244669 21.816696
598 0 1 -21.176655 15.331168 21.615997
599 0 1 -20.395355 15.175769 22.206696
600 0 1 -19.514654 15.135470 21.798798
601 0 1 -19.828255 14.447970 21.195602
602 0 1 -20.110855 13.663470 20.578003
603 0 1 -20.222355 12.790168 20.159897
604 0 1 -20.242655 11.885669 20.486496
605 0 1 -20.423155 10.973201 20.110397
606 0 1 -19.588755 10.505481 20.361801
607 0 1 -18.662455 10.618117 20.191803
608 0 1 -18.152054 9.785228 20.417404
609 0 1 -17.827654 9.252257 21.141800
610 0 1 -18.149355 8.411227 21.405502
611 0 1 -17.600655 7.692779 21.639694
612 0 1 -17.539455 6.726859 21.509705
613 0 1 -18.020155 6.149230 22.150604
614 0 1 -17.816654 5.420669 21.602402
615 0 1 -17.460655 4.842677 20.962494
616 0 1 -16.824755 4.451530 21.499496
617 0 1 -16.073055 3.801139 21.409607
618 0 1 -15.445955 3.908469 22.145004
619 0 1 -14.476657 3.624678 22.051102
620 0 1 -13.896556 3.659659 21.227402
621 0 1 -13.358155 4.416018 21.475708
622 0 1 -13.674956 5.219619 20.992996
623 0 1 -12.581756 5.140067 20.785599
624 0 1 -12.245856 4.832709 19.916794
625 0 1 -11.560256 5.495807 19.542297
626 0 1 -10.956555 6.092559 19.122894
627 0 1 -10.045054 6.068580 18.848206
628 0 1 -9.731246 6.527747 18.067001
629 0 1 -10.567855 6.795318 17.537506
630 0 1 -10.155356 7.632350 17.694504
631 0 1 -9.605124 7.902850 16.912903
632 0 1 -10.578256 8.046199 16.780396
633 0 1 -10.959556 8.536780 16.078705
634 0 1 -11.735656 8.410350 15.447205
635 0 1 -12.450057 7.994281 14.907806
636 0 1 -12.727855 8.001639 13.943207
637 0 1 -13.754756 7.770698 13.847900
638 0 1 -13.969155 8.041198 14.716003
639 0 1 -14.878356 7.729018 14.946106
640 0 1 -15.215856 6.810100 15.040405
641 0 1 -15.127756 5.860259 15.375000
642 0 1 -15.229456 5.360248 16.181595
643 0 1 -14.857056 5.040709 16.999802
644 0 1 -14.147857 4.335418 16.876694
645 0 1 -13.962756 3.385798 16.660599
646 0 1 -13.624856 2.482182 16.581406
647 0 1 -13.414657 2.520249 15.665100
648 0 1 -12.567756 2.326453 15.409195
649 0 1 -12.217856 1.473729 15.667694
650 0 1 -12.609956 1.502726 14.725800
651 0 1 -12.892955 1.573546 13.860596
652 0 1 -13.614757 1.882964 14.432693
653 0 1 -13.829955 0.974145 14.595398
654 0 1 -13.125155 0.600489 15.100296
655 0 1 -13.910457 0.097499 15.159302
656 0 1 -13.746257 -0.378772 14.303802
657 0 1 -13.093955 -0.927972 14.746002
658 0 1 -12.407556 -1.511062 14.419098
659 0 1 -12.192157 -2.441182 14.320694
660 0 1 -12.167556 -3.107682 13.675995
661 0 1 -12.623256 -2.810352 12.888306
662 0 1 -12.722356 -3.168061 12.005295
663 0 1 -11.879556 -2.880222 11.732101
664 0 1 -12.172456 -1.998002 11.783005
665 0 1 -12.818355 -1.209331 11.815598
666 0 1 -13.658256 -0.992852 11.436905
667 0 1 -14.410254 -1.088411 12.004898
668 0 1 -15.251156 -1.018642 12.497299
669 0 1 -14.483256 -0.589742 12.981598
670 0 1 -14.379157 0.332499 13.151398
671 0 1 -14.683656 0.906102 12.505798
672 0 1 -15.264055 1.305419 11.959305
673 0 1 -15.553156 1.462125 11.012894
674 0 1 -14.854556 0.874108 10.702499
675 0 1 -15.553156 0.267489 10.880203
676 0 1 -15.231155 0.150368 10.032806
677 0 1 -15.453956 0.896189 9.575485
678 0 1 -14.976656 1.701432 9.831284
679 0 1 -14.383456 2.141347 9.178528
680 0 1 -13.603057 2.260615 8.664719
681 0 1 -13.553555 1.781615 7.815414
682 0 1 -13.556655 2.494210 7.247055
683 0 1 -13.893954 1.902968 6.605515
684 0 1 -13.371455 2.337491 6.014297
685 0 1 -13.157157 1.415585 5.733215
686 0 1 -13.260455 1.472584 4.760788
687 0 1 -12.387755 0.887589 4.806305
688 0 1 -12.228156 0.719554 5.718414
689 0 1 -11.489955 0.281058 6.293030
690 0 1 -10.937556 0.379939 7.109589
691 0 1 -11.696456 0.910512 7.575562
692 0 1 -11.600554 1.171231 8.505630
693 0 1 -11.024257 1.970820 8.714905
694 0 1 -11.861556 2.334765 8.405899
695 0 1 -12.073855 3.268809 8.463867
696 0 1 -12.153556 3.167718 9.416061
697 0 1 -12.812856 3.661097 10.077499
698 0 1 -12.753356 4.573180 9.871368
699 0 1 -12.664657 4.747279 10.820099
700 0 1 -12.693057 5.734450 10.774506
701 0 1 -12.735255 6.719447 10.857697
702 0 1 -13.403754 6.923537 11.484100
703 0 1 -13.454955 6.545329 12.343903
704 0 1 -13.201356 7.430850 12.504196
705 0 1 -13.126555 8.382480 12.315598
706 0 1 -13.106154 9.384738 12.138000
707 0 1 -13.961156 9.541968 11.607498
708 0 1 -14.594456 9.972579 10.926804
709 0 1 -15.114856 10.597648 10.401306
710 0 1 -15.421556 11.425048 10.206299
711 0 1 -15.129056 12.267871 10.544098
712 0 1 -15.193155 12.943870 11.240295
713 0 1 -15.878655 13.667171 11.027206
714 0 1 -16.139055 14.484969 10.558594
715 0 1 -16.201056 14.617370 9.582642
716 0 1 -16.561455 15.329070 9.059143
717 0 1 -15.944655 15.686870 8.444977
718 0 1 -15.906156 15.026767 7.699997
719 0 1 -16.573555 14.696170 7.109207
720 0 1 -16.760954 15.638869 7.002243
721 0 1 -15.929855 15.641070 6.564835
722 0 1 -15.678656 15.696567 5.526535
723 0 1 -16.198854 16.010366 4.736511
724 0 1 -15.703556 16.801867 5.013687
725 0 1 -15.045556 16.313768 4.427856
726 0 1 -14.736556 17.038168 3.877640
727 0 1 -14.416356 17.049269 4.840134
728 0 1 -13.802756 16.757269 4.162399
729 0 1 -13.337955 17.269468 4.927567
730 0 1 -12.605355 16.643667 4.751328
731 0 1 -11.898356 15.959270 4.624435
732 0 1 -12.158055 14.937770 4.521011
733 0 1 -11.484056 14.352469 4.254822
734 0 1 -12.173957 13.694667 4.276932
735 0 1 -12.883155 13.193370 3.748825
736 0 1 -13.423755 12.458068 3.548477
737 0 1 -13.380157 11.774470 2.825775
738 0 1 -13.373755 11.165999 2.143158
739 0 1 -14.195355 10.889098 1.661987
740 0 1 -14.285356 10.020629 2.070893
741 0 1 -14.863256 9.359340 2.366089
742 0 1 -14.510156 8.842158 1.587723
743 0 1 -15.246156 8.351859 1.268540
744 0 1 -14.460055 7.849837 1.312958
745 0 1 -13.674956 7.378169 1.241196
746 0 1 -12.852555 6.845290 1.166763
747 0 1 -12.278956 7.621181 1.278565
748 0 1 -12.265857 8.082450 2.046326
749 0 1 -12.309756 7.495799 2.824097
750 0 1 -12.119155 6.772750 2.197769
751 0 1 -11.249057 6.498500 2.590424
752 0 1 -11.094954 5.620250 2.984543
753 0 1 -11.328256 5.539371 2.104080
754 0 1 -11.766955 4.995578 1.456955
755 0 1 -12.607656 4.584918 1.253403
756 0 1 -12.707355 4.865859 0.341049
757 0 1 -12.909356 4.718047 -0.591278
758 0 1 -12.587155 4.134978 -1.269424
759 0 1 -13.059756 3.654319 -1.904892
760 0 1 -12.146356 3.346190 -2.025223
761 0 1 -12.761455 2.637219 -1.650406
762 0 1 -12.389056 1.916905 -2.130157
763 0 1 -11.809556 2.096179 -1.369186
764 0 1 -10.981357 2.043179 -1.723083
765 0 1 -11.217256 1.100716 -2.105469
766 0 1 -11.260455 0.269448 -2.550247
767 0 1 -10.526456 -0.090202 -3.113754
768 0 1 -11.242755 -0.130431 -3.760391
769 0 1 -11.138656 0.807441 -4.014847
770 0 1 -11.642856 1.422515 -3.450348
771 0 1 -11.223456 1.742224 -4.320801
772 0 1 -10.413356 1.781996 -4.802612
773 0 1 -10.327857 1.339070 -5.663010
774 0 1 -9.945617 1.533381 -6.523483
775 0 1 -9.351686 0.821107 -6.203003
776 0 1 -8.869617 0.546759 -5.416321
777 0 1 -8.397805 0.878812 -4.559906
778 0 1 -7.870635 0.363799 -5.207840
779 0 1 -7.820846 -0.604371 -5.182587
780 0 1 -7.470325 -0.713372 -4.242294
781 0 1 -6.548556 -0.894042 -4.443665
782 0 1 -5.881806 -0.894162 -3.764557
783 0 1 -5.194335 -0.202173 -3.871551
784 0 1 -5.860856 0.254519 -4.477798
785 0 1 -6.665107 0.360369 -4.031967
786 0 1 -7.144706 1.089326 -4.441696
787 0 1 -7.087796 1.963702 -4.025696
788 0 1 -6.689395 2.011710 -4.893463
789 0 1 -5.923385 1.935487 -5.461945