LAMMPS data file via MDAnalysis

        2000  atoms
        1999  bonds
           0  angles
           0  dihedrals
           0  impropers

           1  atom types
           1  bond types
           0  angle types
           0  dihedral types
           0  improper types

-30.5 30.5 xlo xhi
-30.5 30.5 ylo yhi
-233.5 233.5 zlo zhi


Masses

1 1.000000

Atoms

1 0 1 0.934789 14.812365 103.539001
2 0 1 0.292138 14.080763 103.510986
3 0 1 0.369428 13.818068 102.598999
4 0 1 1.129148 14.366568 102.509003
5 0 1 1.262698 14.429564 101.572998
6 0 1 1.902538 14.834166 100.945984
7 0 1 1.733697 15.780363 101.161987
8 0 1 1.026939 16.420668 101.575989
9 0 1 1.133008 16.750067 100.747009
10 0 1 1.124938 16.785166 99.699402
11 0 1 1.321477 16.759665 98.739410
12 0 1 0.517978 16.707865 98.112091
13 0 1 0.913188 15.858168 97.837311
14 0 1 1.252927 15.149164 98.382202
15 0 1 1.085508 14.279264 98.643188
16 0 1 0.770127 14.026068 97.753296
17 0 1 0.180188 13.246664 97.278290
18 0 1 -0.123212 12.387766 97.135590
19 0 1 -0.274873 11.851164 96.377808
20 0 1 0.467588 12.075266 95.788605
21 0 1 1.313989 11.799364 96.130005
22 0 1 1.603818 11.154364 96.732391
23 0 1 0.747438 10.925966 97.292297
24 0 1 0.635328 10.659567 96.424591
25 0 1 0.872607 9.828863 95.999512
26 0 1 1.415717 10.265364 95.384003
27 0 1 2.346698 10.073565 95.072296
28 0 1 2.095329 9.225565 95.402710
29 0 1 2.898738 8.811163 95.089691
30 0 1 2.377599 8.166563 94.507996
31 0 1 1.851808 7.487066 94.978699
32 0 1 1.026538 7.005964 95.250000
33 0 1 0.197158 6.496164 95.443298
34 0 1 -0.781291 6.716363 95.274811
35 0 1 -1.130952 7.206865 94.487000
36 0 1 -1.648152 7.721864 95.074402
37 0 1 -1.687823 8.483965 95.710815
38 0 1 -0.953223 8.936266 95.295593
39 0 1 -1.009763 9.839163 95.521484
40 0 1 -0.586201 10.128065 94.692108
41 0 1 0.139228 10.718763 94.785004
42 0 1 -0.426501 11.401365 94.502014
43 0 1 -0.444873 11.015867 93.691193
44 0 1 0.362048 11.568365 93.627899
45 0 1 0.857238 12.354265 94.004517
46 0 1 1.500308 11.511465 93.889801
47 0 1 2.260648 12.053267 93.562683
48 0 1 2.201299 12.951265 93.996002
49 0 1 2.221359 13.591665 94.706207
50 0 1 3.042798 13.154867 94.625183
51 0 1 3.281709 12.315966 94.028809
52 0 1 3.503309 12.597364 93.134888
53 0 1 3.954068 13.428865 92.959900
54 0 1 4.124558 12.767664 92.281006
55 0 1 4.937753 12.819365 92.829407
56 0 1 5.552421 12.841963 93.534698
57 0 1 6.127328 12.618467 92.763000
58 0 1 6.674224 13.110865 92.205505
59 0 1 7.558797 13.403265 91.875610
60 0 1 7.220717 14.206465 91.494202
61 0 1 8.052266 14.382467 90.993591
62 0 1 8.450566 13.457464 91.002411
63 0 1 8.629777 12.812265 90.297211
64 0 1 8.277997 13.322664 89.600311
65 0 1 7.613278 12.649763 89.529114
66 0 1 6.806308 13.199064 89.696594
67 0 1 6.106267 13.010065 89.124512
68 0 1 5.852292 13.372965 88.326111
69 0 1 6.116466 12.690065 87.789093
70 0 1 5.283854 12.905767 87.376709
71 0 1 5.009933 13.674063 86.883392
72 0 1 4.168437 13.174166 86.685699
73 0 1 4.510077 12.459066 86.114990
74 0 1 3.731347 11.971563 85.925293
75 0 1 3.089778 11.206465 85.843109
76 0 1 3.812198 10.577765 85.751892
77 0 1 4.552468 10.295866 85.306000
78 0 1 4.140498 9.638166 85.960602
79 0 1 4.589978 9.007666 85.441101
80 0 1 4.523438 8.026865 85.315002
81 0 1 4.173938 8.231966 84.475006
82 0 1 3.265517 8.143366 84.750092
83 0 1 3.562948 7.543066 84.069397
84 0 1 2.726568 7.407365 83.596497
85 0 1 1.911918 7.334966 84.028900
86 0 1 1.791917 7.284765 83.094208
87 0 1 2.066488 7.488466 82.241699
88 0 1 2.043939 6.674863 81.749817
89 0 1 1.994489 6.131944 82.559509
90 0 1 1.125577 6.534864 82.710999
91 0 1 0.757898 6.136884 81.888916
92 0 1 1.038709 6.291994 81.006805
93 0 1 1.030679 6.795064 80.190918
94 0 1 1.647018 6.602464 79.453003
95 0 1 2.452678 6.181974 79.658081
96 0 1 2.511209 5.958227 78.721313
97 0 1 2.336507 5.418935 77.993103
98 0 1 1.732818 6.117136 78.104004
99 0 1 1.034318 5.393785 78.047607
100 0 1 0.500989 5.470125 78.828491
101 0 1 0.418018 6.262372 78.221802
102 0 1 -0.342572 6.902463 78.336487
103 0 1 -1.269843 6.529565 78.387390
104 0 1 -1.683572 5.801614 77.980896
105 0 1 -2.587062 6.030534 77.670197
106 0 1 -3.090361 5.387296 78.275909
107 0 1 -3.755553 4.701704 78.503204
108 0 1 -3.931021 3.848974 78.129700
109 0 1 -4.652781 4.376405 77.704803
110 0 1 -4.325782 3.859823 76.957611
111 0 1 -3.548062 4.260416 76.467194
112 0 1 -3.082782 4.981313 76.100891
113 0 1 -3.428572 5.240816 75.176514
114 0 1 -3.405501 6.092645 74.670105
115 0 1 -4.302581 5.863115 74.385101
116 0 1 -4.951083 5.365026 73.970001
117 0 1 -5.766582 5.712797 73.382690
118 0 1 -6.524182 6.329164 73.327911
119 0 1 -6.381482 6.482065 72.376190
120 0 1 -5.358382 6.492963 72.259491
121 0 1 -4.533483 6.804864 71.803802
122 0 1 -4.672782 7.740064 71.504517
123 0 1 -4.140792 8.494566 71.402100
124 0 1 -4.713183 8.955465 72.029205
125 0 1 -4.249084 8.910864 72.807495
126 0 1 -3.632092 8.148966 72.564209
127 0 1 -3.118693 8.804464 73.188690
128 0 1 -2.327512 9.243265 72.818787
129 0 1 -2.730181 9.712767 73.533386
130 0 1 -2.638751 10.660963 73.306885
131 0 1 -2.007472 11.282263 72.857788
132 0 1 -1.154862 11.665663 72.617798
133 0 1 -0.237403 11.280966 72.677612
134 0 1 0.492467 11.982164 72.565613
135 0 1 1.108379 11.266665 72.954895
136 0 1 1.050069 11.085066 73.883698
137 0 1 0.472799 11.873865 73.953705
138 0 1 0.248798 12.678267 74.383118
139 0 1 0.958669 12.441763 75.037994
140 0 1 1.370448 12.047865 74.354797
141 0 1 1.688138 11.330465 75.092010
142 0 1 2.114679 10.627966 75.735413
143 0 1 2.468728 10.224066 76.561493
144 0 1 1.540797 9.904566 76.572510
145 0 1 1.399528 9.081366 76.174011
146 0 1 1.324168 8.616865 75.352905
147 0 1 1.357339 7.780965 75.765594
148 0 1 2.252698 7.842664 76.087311
149 0 1 2.500497 7.068662 76.655701
150 0 1 2.267308 6.283666 77.194214
151 0 1 2.143548 5.721326 76.408600
152 0 1 2.988288 5.217103 76.401398
153 0 1 3.109039 4.341794 76.061798
154 0 1 3.232768 3.469965 76.503906
155 0 1 3.941049 2.889394 76.742798
156 0 1 3.816198 3.191965 77.631195
157 0 1 2.975988 3.737516 77.631714
158 0 1 3.297569 4.677003 77.358398
159 0 1 4.245248 4.502973 77.353699
160 0 1 5.113288 4.140954 77.218384
161 0 1 5.102862 3.308824 77.698303
162 0 1 5.617913 2.898065 76.979401
163 0 1 6.506528 2.850336 76.535004
164 0 1 6.582879 2.494485 75.559906
165 0 1 7.357949 2.184164 75.939911
166 0 1 7.279187 1.200853 75.809998
167 0 1 8.175889 0.778863 75.930206
168 0 1 8.587659 0.172903 76.592712
169 0 1 9.173120 0.132356 75.817596
170 0 1 8.832887 -0.168005 74.943695
171 0 1 7.938947 0.156225 74.762512
172 0 1 7.215817 0.624906 74.339996
173 0 1 6.357274 0.369203 73.953491
174 0 1 6.114856 0.869073 73.213104
175 0 1 6.209952 -0.039557 72.764404
176 0 1 5.484260 -0.522307 73.121002
177 0 1 4.921468 -0.691527 72.323914
178 0 1 4.498448 -0.677885 71.469788
179 0 1 5.086841 -0.588427 70.766602
180 0 1 4.693257 -1.001204 69.934082
181 0 1 4.978076 -0.414854 69.201508
182 0 1 5.917914 -0.547594 69.379395
183 0 1 6.595187 -0.068118 69.849091
184 0 1 6.951747 -0.857577 70.281494
185 0 1 7.627950 -0.523634 69.705017
186 0 1 7.228108 -0.057604 68.957001
187 0 1 8.195439 -0.071936 68.958496
188 0 1 9.002549 0.331014 69.195892
189 0 1 9.834046 0.062234 69.585205
190 0 1 10.660546 0.209535 69.978302
191 0 1 10.716317 -0.766516 70.114105
192 0 1 11.134316 -0.493647 70.876007
193 0 1 11.972096 -0.759596 70.472107
194 0 1 12.737279 -0.174437 70.383392
195 0 1 13.560819 -0.361685 69.990906
196 0 1 14.320348 -0.878416 69.645599
197 0 1 13.528958 -1.430666 69.604401
198 0 1 13.052339 -1.275107 68.768311
199 0 1 12.267049 -1.824156 68.782410
200 0 1 12.383348 -2.769627 69.000305
201 0 1 12.053060 -3.325202 68.234802
202 0 1 11.686059 -2.502366 67.870911
203 0 1 12.160649 -2.945055 67.185211
204 0 1 11.910146 -3.147583 66.286682
205 0 1 12.273717 -2.988684 65.363281
206 0 1 11.890038 -2.089655 65.297913
207 0 1 11.130956 -2.482436 64.909393
208 0 1 10.304528 -1.964465 64.858582
209 0 1 9.420850 -1.683844 64.690918
210 0 1 9.876908 -0.946684 64.385498
211 0 1 9.174748 -0.332617 64.643707
212 0 1 9.018689 0.311452 63.927887
213 0 1 8.826028 0.825796 63.164490
214 0 1 9.104199 1.711614 63.294006
215 0 1 8.456338 1.390146 63.990204
216 0 1 7.661447 1.270376 63.549805
217 0 1 7.308057 1.844755 62.866211
218 0 1 6.963078 1.660573 61.942108
219 0 1 7.373746 1.890726 61.070404
220 0 1 6.554114 1.443544 60.882690
221 0 1 6.181954 1.274343 60.024994
222 0 1 6.045857 0.225774 60.041809
223 0 1 6.949357 0.264276 60.240601
224 0 1 7.414247 0.643594 60.975403
225 0 1 7.773698 -0.253516 60.868195
226 0 1 7.350926 -1.021254 61.234406
227 0 1 6.719886 -0.901354 60.443390
228 0 1 6.405751 -1.588477 59.834106
229 0 1 6.132371 -2.185206 60.602295
230 0 1 6.925279 -2.433726 60.109406
231 0 1 7.428208 -1.584837 60.157013
232 0 1 8.302190 -1.882536 60.439911
233 0 1 8.482396 -1.042815 59.921692
234 0 1 9.394906 -1.361556 59.821411
235 0 1 10.089478 -1.940974 59.408112
236 0 1 10.211568 -2.939557 59.477783
237 0 1 9.465878 -2.667391 58.912994
238 0 1 9.235066 -3.620385 58.826416
239 0 1 9.787808 -4.295832 58.471405
240 0 1 10.696927 -4.059670 58.215088
241 0 1 11.361829 -3.488835 57.793488
242 0 1 12.115376 -3.548634 57.190613
243 0 1 12.066319 -3.505137 56.242401
244 0 1 12.617757 -3.934113 55.643707
245 0 1 13.204648 -3.587876 54.837799
246 0 1 13.906377 -4.235760 54.703491
247 0 1 13.844167 -4.888297 55.364410
248 0 1 14.733098 -5.086726 55.063507
249 0 1 14.915357 -5.881695 55.513184
250 0 1 15.821347 -5.637335 55.850189
251 0 1 16.554617 -6.361876 55.738190
252 0 1 16.457418 -6.808215 56.526917
253 0 1 17.424017 -6.978325 56.536713
254 0 1 17.907118 -6.632275 57.304504
255 0 1 18.575018 -6.683325 57.926208
256 0 1 18.087919 -7.416106 58.363403
257 0 1 18.487516 -8.150215 58.847809
258 0 1 17.486818 -8.275024 58.901001
259 0 1 17.251520 -8.641735 58.045715
260 0 1 16.404119 -8.695696 58.526917
261 0 1 15.560479 -8.645716 59.020111
262 0 1 14.856748 -8.020935 59.344788
263 0 1 14.069310 -8.452326 59.740387
264 0 1 13.538587 -7.747405 60.114502
265 0 1 14.064157 -7.593997 60.903198
266 0 1 14.645997 -6.864226 61.189789
267 0 1 15.107438 -6.179255 60.668701
268 0 1 15.447556 -5.298705 60.620605
269 0 1 16.151518 -4.720326 60.249817
270 0 1 15.410436 -4.145794 60.078705
271 0 1 14.654527 -4.696015 60.379608
272 0 1 13.800317 -5.108616 60.687592
273 0 1 14.060567 -5.997656 60.919708
274 0 1 14.595960 -5.461276 61.466614
275 0 1 14.832509 -5.476246 62.396484
276 0 1 14.957387 -5.945487 63.213684
277 0 1 14.599629 -6.024706 64.150299
278 0 1 14.581265 -5.102055 64.408203
279 0 1 15.382306 -4.629935 64.737793
280 0 1 15.577596 -4.250006 63.903503
281 0 1 14.857030 -4.210894 63.243286
282 0 1 14.549230 -3.499695 63.787292
283 0 1 14.162786 -2.675045 63.963409
284 0 1 15.053918 -2.462737 64.228210
285 0 1 14.483598 -2.588891 64.976685
286 0 1 13.809037 -3.201102 65.223816
287 0 1 13.534436 -4.096381 65.329895
288 0 1 13.576528 -3.831854 66.250183
289 0 1 13.874066 -4.408165 66.992310
290 0 1 13.152799 -5.095345 66.987701
291 0 1 12.277959 -5.121315 67.438995
292 0 1 12.168359 -5.561985 66.642212
293 0 1 12.533059 -6.450625 66.926392
294 0 1 11.778337 -6.561825 67.521698
295 0 1 11.586858 -7.207886 68.206482
296 0 1 11.487618 -7.795235 67.483215
297 0 1 11.195909 -8.633795 67.771210
298 0 1 10.658689 -9.418674 67.933594
299 0 1 10.496758 -10.433146 67.812988
300 0 1 11.219216 -10.933966 68.067688
301 0 1 11.112298 -11.545815 67.309998
302 0 1 10.288228 -11.559666 66.776398
303 0 1 9.495889 -11.329636 66.230408
304 0 1 9.293729 -12.243145 65.938507
305 0 1 8.652497 -12.189905 66.668396
306 0 1 8.954556 -12.720415 67.432190
307 0 1 9.417699 -13.495115 67.503693
308 0 1 10.116326 -13.997034 67.898010
309 0 1 11.001706 -14.334436 68.059082
310 0 1 10.481446 -14.888235 67.409790
311 0 1 11.101499 -15.675335 67.755188
312 0 1 11.513207 -15.661634 66.872192
313 0 1 10.590276 -15.714136 66.628296
314 0 1 10.113839 -15.850836 65.802094
315 0 1 9.497479 -15.850836 64.975006
316 0 1 9.319497 -16.279234 64.032501
317 0 1 8.470979 -16.802935 64.236694
318 0 1 8.463376 -16.661436 65.153595
319 0 1 8.987996 -16.912134 65.895813
320 0 1 8.575459 -17.035435 66.804993
321 0 1 8.599027 -17.153435 67.828491
322 0 1 7.760938 -16.721136 67.645508
323 0 1 7.173917 -17.133535 68.260986
324 0 1 6.408372 -16.582235 68.015808
325 0 1 7.130788 -15.957636 67.937195
326 0 1 6.460053 -15.792234 67.195892
327 0 1 6.141356 -15.230936 67.939697
328 0 1 5.491981 -14.934435 68.523193
329 0 1 6.132512 -14.285536 68.913086
330 0 1 7.066607 -14.231134 68.785217
331 0 1 7.308537 -14.932035 69.472504
332 0 1 6.425630 -15.266436 69.530792
333 0 1 5.791652 -16.009735 69.404694
334 0 1 6.297448 -16.725636 69.860901
335 0 1 6.296435 -17.071836 70.720795
336 0 1 5.736054 -17.451435 71.445404
337 0 1 6.348119 -17.493135 72.236389
338 0 1 6.835258 -17.342236 73.065094
339 0 1 5.892444 -17.137636 73.406708
340 0 1 4.978450 -17.104935 73.239594
341 0 1 4.195498 -16.488235 73.061005
342 0 1 3.574477 -16.272936 73.772400
343 0 1 3.956128 -15.888334 74.572693
344 0 1 3.107969 -15.587934 74.550903
345 0 1 3.172979 -14.634235 74.819092
346 0 1 2.959869 -14.709436 73.891602
347 0 1 2.369699 -14.864935 73.109009
348 0 1 2.426057 -13.917635 73.311005
349 0 1 3.019279 -13.223356 73.505981
350 0 1 3.192308 -12.343714 73.814087
351 0 1 2.682248 -11.737936 74.443604
352 0 1 2.575519 -10.767296 74.625488
353 0 1 2.074727 -11.257326 75.313416
354 0 1 1.746158 -10.336416 75.513916
355 0 1 1.292779 -10.164286 76.339508
356 0 1 0.745258 -10.489365 77.089691
357 0 1 0.203609 -10.657114 76.393494
358 0 1 -0.665871 -10.938856 76.095886
359 0 1 -1.282662 -11.215666 76.762390
360 0 1 -1.443452 -11.995806 76.170197
361 0 1 -0.674012 -12.357435 75.691101
362 0 1 -1.067033 -12.158236 74.795898
363 0 1 -1.994933 -12.324976 74.311890
364 0 1 -2.274863 -13.249186 74.174988
365 0 1 -3.123511 -13.376425 73.664917
366 0 1 -2.877631 -12.949205 72.901398
367 0 1 -2.639811 -13.809935 72.554596
368 0 1 -1.786181 -13.970335 72.970490
369 0 1 -1.403891 -13.082754 73.070007
370 0 1 -0.452163 -13.539865 73.222717
371 0 1 0.490339 -13.493715 73.294403
372 0 1 0.094278 -12.666906 73.055786
373 0 1 0.556728 -12.530176 72.191010
374 0 1 -0.275401 -12.563465 71.674194
375 0 1 -0.191762 -13.507685 71.600586
376 0 1 -0.321872 -13.708935 70.720703
377 0 1 -0.693393 -14.485636 71.014496
378 0 1 -1.377452 -14.856634 71.520294
379 0 1 -1.941582 -14.979334 72.370789
380 0 1 -2.415152 -15.459536 73.103790
381 0 1 -3.299411 -15.888735 73.118591
382 0 1 -3.792872 -16.721735 72.936310
383 0 1 -4.254481 -17.281635 72.232483
384 0 1 -4.561381 -16.452234 71.944397
385 0 1 -4.392682 -15.982035 71.095703
386 0 1 -5.022681 -16.068834 70.422913
387 0 1 -5.399482 -15.874235 69.589691
388 0 1 -5.709382 -16.464436 68.832306
389 0 1 -5.159083 -15.913034 68.268188
390 0 1 -4.441783 -15.315336 68.500488
391 0 1 -3.998023 -15.750835 69.284302
392 0 1 -3.528172 -16.630636 69.242401
393 0 1 -2.777823 -16.859236 68.596100
394 0 1 -2.814673 -16.505035 67.720093
395 0 1 -2.419892 -15.650736 67.398804
396 0 1 -2.180583 -14.754236 67.369202
397 0 1 -2.436412 -14.266235 66.549988
398 0 1 -1.637942 -14.192535 65.965515
399 0 1 -1.209672 -15.099035 65.784698
400 0 1 -0.886523 -15.530836 65.031189
401 0 1 -1.262322 -14.858034 64.406982
402 0 1 -0.584042 -14.330736 64.904297
403 0 1 -0.568923 -13.829935 64.085907
404 0 1 0.168557 -13.466356 64.514008
405 0 1 -0.479222 -12.875074 65.003601
406 0 1 -1.402003 -13.060114 64.953613
407 0 1 -1.956542 -12.793375 65.679504
408 0 1 -2.852822 -12.900064 66.020386
409 0 1 -3.735541 -12.554005 65.744293
410 0 1 -3.956061 -13.261854 66.383789
411 0 1 -3.821193 -13.974735 67.029602
412 0 1 -3.130831 -13.424486 67.446594
413 0 1 -3.461472 -12.657896 67.991882
414 0 1 -3.213612 -12.064314 68.767090
415 0 1 -4.030501 -11.867205 68.326294
416 0 1 -4.882083 -11.506645 67.898590
417 0 1 -5.755382 -11.255445 67.658997
418 0 1 -5.669282 -11.350676 66.705505
419 0 1 -6.205382 -11.704306 66.001099
420 0 1 -6.133082 -12.166876 65.181305
421 0 1 -6.443183 -12.675776 64.354004
422 0 1 -5.822982 -12.849024 63.624512
423 0 1 -5.559382 -12.211676 62.931091
424 0 1 -5.940784 -11.726404 62.192200
425 0 1 -6.783982 -11.427746 61.881287
426 0 1 -7.408082 -10.983805 62.488708
427 0 1 -7.717982 -10.828035 61.609985
428 0 1 -8.313983 -10.219666 62.072296
429 0 1 -8.355083 -10.456455 62.984009
430 0 1 -8.644183 -11.297615 62.927795
431 0 1 -9.307482 -10.702175 62.613586
432 0 1 -10.036582 -11.300945 62.698608
433 0 1 -10.263682 -12.233484 62.377594
434 0 1 -10.833182 -13.032225 62.022583
435 0 1 -11.118382 -13.943035 62.253906
436 0 1 -10.191882 -14.184534 62.126404
437 0 1 -9.383782 -14.019434 62.670105
438 0 1 -9.172482 -13.519686 61.853394
439 0 1 -9.389182 -14.319735 61.358398
440 0 1 -8.664981 -14.803934 61.028198
441 0 1 -8.095183 -15.596035 61.082794
442 0 1 -8.783182 -16.170835 60.964813
443 0 1 -9.197083 -16.753935 61.573395
444 0 1 -9.804482 -16.118334 61.974304
445 0 1 -10.505181 -15.396235 61.957703
446 0 1 -9.929982 -15.231436 61.205383
447 0 1 -10.707683 -14.812935 60.849701
448 0 1 -11.583682 -15.243835 60.575989
449 0 1 -12.489682 -15.496935 60.759888
450 0 1 -12.468183 -16.035936 59.961090
451 0 1 -12.186282 -16.508734 59.195709
452 0 1 -12.254083 -15.893034 58.476685
453 0 1 -13.224883 -15.868235 58.584106
454 0 1 -13.484082 -15.971535 57.646484
455 0 1 -13.991483 -15.183435 57.177307
456 0 1 -14.241881 -14.261034 57.069397
457 0 1 -14.270482 -13.728834 56.277802
458 0 1 -14.544883 -12.951036 55.760315
459 0 1 -15.114182 -12.282085 55.314209
460 0 1 -14.762582 -11.815165 54.609985
461 0 1 -15.170281 -11.777094 53.773102
462 0 1 -14.868981 -11.462385 52.869904
463 0 1 -15.631883 -12.130556 52.812500
464 0 1 -16.264582 -12.359056 53.583801
465 0 1 -17.236782 -12.250456 53.512695
466 0 1 -17.406881 -11.607096 52.886292
467 0 1 -17.562780 -10.685305 53.074799
468 0 1 -16.620882 -10.459936 53.185913
469 0 1 -17.238781 -9.776224 52.734497
470 0 1 -17.353580 -9.625216 51.777710
471 0 1 -17.216581 -10.527506 51.243591
472 0 1 -16.722281 -10.303514 50.475311
473 0 1 -16.483582 -10.531244 49.583099
474 0 1 -15.588181 -10.748625 49.762604
475 0 1 -15.101783 -11.374525 50.326294
476 0 1 -14.698281 -11.765146 51.115387
477 0 1 -13.958583 -12.086176 50.559113
478 0 1 -13.226882 -12.651976 50.354614
479 0 1 -13.013183 -13.078085 51.195312
480 0 1 -12.239982 -13.031446 50.555695
481 0 1 -11.869782 -12.304865 49.966705
482 0 1 -12.259582 -11.985785 50.790894
483 0 1 -12.302882 -11.578054 51.648102
484 0 1 -13.076982 -10.927685 51.547485
485 0 1 -13.309682 -10.679594 50.612610
486 0 1 -13.750981 -9.882145 50.971191
487 0 1 -13.245282 -9.170605 51.414001
488 0 1 -13.322782 -8.308445 51.910004
489 0 1 -12.572682 -7.718186 51.641602
490 0 1 -12.036683 -8.330315 51.080902
491 0 1 -11.883082 -7.376036 50.920197
492 0 1 -11.122083 -7.426836 50.264008
493 0 1 -10.617482 -8.107096 50.834991
494 0 1 -10.243783 -8.226404 51.675293
495 0 1 -9.463082 -8.673244 51.834991
496 0 1 -9.295982 -9.517405 51.387512
497 0 1 -9.212282 -9.979595 50.528015
498 0 1 -9.812882 -10.586336 51.055695
499 0 1 -10.484982 -11.113214 51.411987
500 0 1 -11.055383 -10.962576 52.210907
501 0 1 -10.874982 -11.323215 53.100586
502 0 1 -11.736482 -10.981936 53.496704
503 0 1 -11.825782 -11.881296 53.933899
504 0 1 -10.925683 -11.951414 54.096802
505 0 1 -10.585782 -12.832716 53.773010
506 0 1 -9.684982 -12.426096 53.873901
507 0 1 -9.391182 -11.698915 54.423401
508 0 1 -8.507281 -11.300545 54.521790
509 0 1 -8.756482 -10.794344 55.255096
510 0 1 -8.535483 -10.197454 56.002686
511 0 1 -7.624982 -10.048075 56.169891
512 0 1 -7.007083 -10.632965 55.817505
513 0 1 -6.244681 -11.145485 55.821808
514 0 1 -5.460982 -10.751646 56.192108
515 0 1 -5.350183 -11.270855 57.015594
516 0 1 -4.759482 -11.406845 57.739990
517 0 1 -4.018252 -11.992926 57.450104
518 0 1 -3.695702 -12.177216 56.584106
519 0 1 -4.262982 -13.021095 56.663696
520 0 1 -5.073081 -12.759966 56.291901
521 0 1 -5.888083 -12.892366 55.661591
522 0 1 -5.394881 -12.071245 55.577393
523 0 1 -5.115684 -12.412655 54.754791
524 0 1 -6.052482 -12.317535 54.778503
525 0 1 -6.464583 -12.131014 53.928284
526 0 1 -6.632083 -11.689894 53.109589
527 0 1 -6.414481 -12.538404 52.712189
528 0 1 -5.721583 -12.891865 52.125702
529 0 1 -5.079581 -13.263365 51.404510
530 0 1 -5.228482 -12.590296 50.656403
531 0 1 -5.313182 -12.859514 49.743896
532 0 1 -4.759482 -13.543314 49.541809
533 0 1 -4.686881 -14.426935 49.879303
534 0 1 -4.172671 -15.042936 49.386597
535 0 1 -4.539582 -14.436136 48.739685
536 0 1 -4.437682 -14.057535 47.837799
537 0 1 -3.619353 -13.508024 47.788086
538 0 1 -3.412883 -13.193377 48.664795
539 0 1 -2.923262 -12.313356 48.637390
540 0 1 -3.621863 -11.858625 48.179291
541 0 1 -4.421382 -11.355305 48.342590
542 0 1 -4.341983 -10.344816 48.086212
543 0 1 -5.131583 -10.590675 47.588196
544 0 1 -4.604882 -10.974676 46.842987
545 0 1 -4.308181 -11.587185 46.175690
546 0 1 -4.842082 -12.383726 46.093506
547 0 1 -5.368882 -11.689936 46.361084
548 0 1 -5.968282 -11.503485 45.538696
549 0 1 -6.313182 -12.408957 45.678894
550 0 1 -6.976283 -13.062605 45.885498
551 0 1 -7.660382 -13.200346 46.548492
552 0 1 -8.269881 -12.827915 47.236908
553 0 1 -8.121581 -12.880625 48.129517
554 0 1 -8.774582 -12.954395 48.838593
555 0 1 -9.626782 -12.618246 49.206390
556 0 1 -10.381082 -12.470896 48.643707
557 0 1 -10.480582 -12.272726 47.698212
558 0 1 -9.830782 -11.701036 47.338287
559 0 1 -9.712583 -12.623446 46.974396
560 0 1 -9.325282 -12.655134 47.847687
561 0 1 -9.369782 -11.807575 48.344391
562 0 1 -8.513782 -11.432615 48.317017
563 0 1 -7.802682 -11.141436 47.741913
564 0 1 -8.017783 -10.490395 48.442902
565 0 1 -7.979383 -9.862005 47.681793
566 0 1 -7.770083 -9.314035 46.876007
567 0 1 -7.744483 -8.947134 46.005096
568 0 1 -8.391883 -9.147835 45.298492
569 0 1 -7.951781 -8.846914 44.498810
570 0 1 -8.533582 -9.577946 44.240295
571 0 1 -9.353083 -9.111296 44.223602
572 0 1 -9.452182 -8.554556 45.020508
573 0 1 -9.560082 -8.438875 45.916107
574 0 1 -10.252582 -7.889555 45.550110
575 0 1 -10.197883 -6.943236 45.639709
576 0 1 -9.782083 -6.452525 46.306213
577 0 1 -10.383483 -5.850876 45.789612
578 0 1 -10.842883 -6.330235 45.072113
579 0 1 -11.627482 -6.680075 44.606201
580 0 1 -11.968682 -5.994315 44.048798
581 0 1 -11.658683 -5.322455 43.376892
582 0 1 -12.232081 -4.681105 42.879517
583 0 1 -13.127183 -4.870776 42.558716
584 0 1 -12.433682 -5.542315 42.310608
585 0 1 -12.593383 -5.820155 41.393402
586 0 1 -12.930081 -5.800595 40.511108
587 0 1 -12.574483 -6.625195 40.439087
588 0 1 -13.241181 -7.118805 40.035706
589 0 1 -13.053082 -8.085175 39.996399
590 0 1 -12.867581 -8.020994 39.036987
591 0 1 -12.212983 -7.600356 38.403015
592 0 1 -11.909183 -6.900305 39.015686
593 0 1 -11.187882 -6.360125 38.955109
594 0 1 -10.467883 -5.610255 38.908691
595 0 1 -10.415483 -4.671765 39.003601
596 0 1 -10.476682 -4.168259 38.202393
597 0 1 -10.568381 -3.341822 38.609192
598 0 1 -10.093282 -2.842881 37.960693
599 0 1 -10.516082 -1.954047 37.884094
600 0 1 -11.086282 -2.201645 37.168610
601 0 1 -10.414382 -1.472216 36.883484
602 0 1 -10.686982 -0.616885 36.654510
603 0 1 -11.644881 -0.544684 36.555511
604 0 1 -11.420882 -1.385325 36.078796
605 0 1 -11.337583 -0.727465 35.367188
606 0 1 -11.569583 -1.202284 34.550690
607 0 1 -11.176883 -2.019274 34.770203
608 0 1 -10.309583 -2.358775 34.853088
609 0 1 -9.768083 -3.104588 34.510498
610 0 1 -10.672982 -3.487994 34.606995
611 0 1 -10.864682 -4.305666 34.141510
612 0 1 -11.672582 -4.134055 33.697906
613 0 1 -11.942582 -5.067456 33.591705
614 0 1 -12.561183 -5.667836 33.092010
615 0 1 -12.835282 -5.937315 33.955200
616 0 1 -12.758283 -5.054755 34.382385
617 0 1 -13.115882 -4.279574 34.015503
618 0 1 -13.862082 -3.888564 34.494598
619 0 1 -13.259381 -3.120430 34.342804
620 0 1 -13.879682 -2.622962 34.963013
621 0 1 -14.725282 -2.965857 34.698486
622 0 1 -15.630282 -2.801987 34.541107
623 0 1 -15.751483 -3.054434 33.600708
624 0 1 -15.331382 -3.516093 32.970093
625 0 1 -15.473483 -4.344872 33.440002
626 0 1 -15.405282 -4.715956 34.346497
627 0 1 -16.181082 -4.209713 34.601105
628 0 1 -17.068281 -4.416380 34.596497
629 0 1 -16.973881 -5.122086 33.952515
630 0 1 -16.809782 -5.980786 34.256012
631 0 1 -16.890680 -6.956185 34.503784
632 0 1 -16.396481 -7.821286 34.140808
633 0 1 -17.200380 -8.260895 34.341095
634 0 1 -17.551481 -8.254324 33.424805
635 0 1 -17.852982 -9.012215 32.844391
636 0 1 -18.628382 -9.175184 33.416687
637 0 1 -18.126081 -9.873636 33.915100
638 0 1 -17.289482 -9.461426 34.318512
639 0 1 -16.502081 -9.902855 33.958984
640 0 1 -16.854181 -10.606985 33.272491
641 0 1 -15.976882 -10.811995 33.541504
642 0 1 -15.336383 -10.435106 34.191193
643 0 1 -14.727483 -11.043575 33.817505
644 0 1 -14.215281 -10.572886 34.399689
645 0 1 -14.179282 -9.861666 34.993195
646 0 1 -15.091182 -10.079975 35.292694
647 0 1 -14.619882 -10.693346 35.826904
648 0 1 -14.906783 -11.271725 36.571198
649 0 1 -15.181783 -12.091146 36.216492
650 0 1 -15.313481 -12.706114 35.451813
651 0 1 -14.467183 -13.046804 35.271606
652 0 1 -14.553483 -12.863935 34.366302
653 0 1 -14.282882 -13.669436 33.895508
654 0 1 -13.414681 -14.108435 33.757294
655 0 1 -12.676383 -13.698635 34.304016
656 0 1 -12.271783 -13.930334 35.251801
657 0 1 -11.506682 -14.339834 35.649200
658 0 1 -10.789983 -14.103235 36.232788
659 0 1 -10.785182 -14.145435 37.184692
660 0 1 -9.957782 -14.266235 36.759399
661 0 1 -10.233582 -15.078035 36.333008
662 0 1 -9.335782 -14.991434 35.937683
663 0 1 -9.297782 -14.593534 35.046112
664 0 1 -9.047282 -13.820335 35.428284
665 0 1 -9.700482 -13.118296 35.460510
666 0 1 -9.893582 -13.064886 34.550293
667 0 1 -10.058482 -12.165155 34.781189
668 0 1 -9.486182 -12.373095 34.024200
669 0 1 -8.689282 -12.903425 33.811584
670 0 1 -7.863883 -12.901056 33.408813
671 0 1 -6.930882 -12.801645 33.484192
672 0 1 -6.866082 -12.554354 34.408295
673 0 1 -6.490481 -11.756186 34.241608
674 0 1 -6.368182 -10.843405 34.067200
675 0 1 -6.459281 -9.960215 34.410400
676 0 1 -6.450982 -9.977135 35.372009
677 0 1 -7.020982 -10.465864 36.008209
678 0 1 -6.851481 -11.294895 35.369293
679 0 1 -7.463983 -11.748426 35.985107
680 0 1 -8.208882 -11.093605 35.789917
681 0 1 -8.654283 -11.332876 34.953003
682 0 1 -9.228982 -10.528685 34.901794
683 0 1 -9.620182 -9.663836 34.637695
684 0 1 -8.867182 -9.909895 34.110901
685 0 1 -9.037282 -9.384005 33.342010
686 0 1 -8.429482 -8.997896 32.682495
687 0 1 -9.224782 -9.369314 32.155884
688 0 1 -9.966482 -9.969965 32.079010
689 0 1 -9.202682 -10.345816 31.747713
690 0 1 -8.628982 -9.678396 31.243990
691 0 1 -9.374182 -9.066446 31.148592
692 0 1 -10.020782 -8.432356 30.797213
693 0 1 -9.384982 -7.937994 31.142916
694 0 1 -9.022382 -7.401825 30.399508
695 0 1 -9.623282 -6.857787 30.906496
696 0 1 -9.443882 -6.230826 31.643007
697 0 1 -9.306683 -6.078736 32.587708
698 0 1 -8.555984 -6.182835 32.072601
699 0 1 -8.303582 -5.486775 31.425905
700 0 1 -7.591483 -4.776755 31.358797
701 0 1 -7.166781 -5.156916 32.146393
702 0 1 -6.666583 -5.231276 31.308809
703 0 1 -5.826182 -5.319136 30.901094
704 0 1 -5.141181 -5.016415 30.299410
705 0 1 -4.834483 -5.886425 30.740816
706 0 1 -5.068183 -5.507605 31.550905
707 0 1 -4.845382 -5.839295 32.422394
708 0 1 -3.906522 -5.998696 32.520996
709 0 1 -4.420581 -6.795466 32.743500
710 0 1 -5.004981 -7.516446 32.458496
711 0 1 -4.497684 -8.028715 33.060913
712 0 1 -3.917201 -8.676004 33.407898
713 0 1 -3.318671 -8.942915 32.739502
714 0 1 -3.590541 -8.885065 31.843904
715 0 1 -2.712022 -8.651026 31.472200
716 0 1 -2.081431 -7.976315 31.261599
717 0 1 -1.401032 -8.289465 31.894289
718 0 1 -1.472802 -8.806206 31.123110
719 0 1 -1.542601 -9.576136 31.681215
720 0 1 -1.807912 -10.511946 31.691805
721 0 1 -1.582331 -11.374615 31.380098
722 0 1 -0.705653 -11.059416 31.492708
723 0 1 -0.335563 -11.975344 31.855196
724 0 1 -0.053342 -12.815256 32.312592
725 0 1 0.740167 -13.008545 32.786987
726 0 1 0.949258 -13.745634 33.387787
727 0 1 -0.003842 -13.871035 33.428101
728 0 1 -0.587682 -14.540936 33.996002
729 0 1 -0.004533 -14.063734 34.608093
730 0 1 -0.638312 -13.535505 35.102112
731 0 1 -1.131732 -12.915155 34.520508
732 0 1 -1.154952 -12.085016 35.027405
733 0 1 -0.746352 -11.236986 34.658997
734 0 1 0.231958 -10.968126 34.892090
735 0 1 0.771848 -10.198614 34.683502
736 0 1 1.424829 -10.595715 35.304596
737 0 1 1.966968 -11.357105 34.960083
738 0 1 2.388688 -11.771936 34.201294
739 0 1 2.257589 -12.625414 34.637604
740 0 1 1.820688 -13.248934 35.156311
741 0 1 0.862058 -13.410906 35.048584
742 0 1 0.873998 -14.164934 35.628387
743 0 1 1.511558 -14.826334 35.267609
744 0 1 1.844419 -15.467236 34.684906
745 0 1 2.657598 -15.083435 34.432007
746 0 1 2.081048 -14.333136 34.209900
747 0 1 2.591758 -13.564966 34.107483
748 0 1 3.374498 -13.467344 33.600006
749 0 1 3.415088 -12.563635 33.471405
750 0 1 3.267078 -12.691526 32.583099
751 0 1 3.499538 -11.904036 32.006897
752 0 1 4.341178 -11.572744 31.872713
753 0 1 4.377769 -11.757305 32.840515
754 0 1 4.903489 -12.545025 33.077789
755 0 1 4.803227 -13.359295 33.587708
756 0 1 5.280049 -13.611235 32.700012
757 0 1 5.510373 -14.235334 32.017395
758 0 1 6.215669 -14.603035 32.529602
759 0 1 6.902238 -14.493734 33.200500
760 0 1 6.235707 -14.765036 33.846802
761 0 1 6.888268 -14.254335 34.336395
762 0 1 7.771440 -14.200834 34.884888
763 0 1 8.192060 -13.411715 34.528503
764 0 1 9.107579 -13.677534 34.753510
765 0 1 9.026986 -12.849325 34.154602
766 0 1 8.873628 -12.419146 35.061401
767 0 1 8.053288 -12.012434 34.765106
768 0 1 8.305409 -12.015055 33.792999
769 0 1 7.934087 -11.181616 33.472504
770 0 1 7.994199 -10.387144 34.017517
771 0 1 7.797738 -9.476505 34.166595
772 0 1 7.176457 -8.930895 33.737091
773 0 1 6.200009 -8.981264 33.939789
774 0 1 5.458249 -9.508806 33.503998
775 0 1 5.871388 -9.784275 34.427185
776 0 1 5.278811 -9.921415 35.213501
777 0 1 4.417829 -9.892365 35.679810
778 0 1 4.724597 -9.238214 36.344116
779 0 1 5.301440 -9.498835 37.044312