LAMMPS data file via MDAnalysis

        2000  atoms
        1999  bonds
           0  angles
           0  dihedrals
           0  impropers

           1  atom types
           1  bond types
           0  angle types
           0  dihedral types
           0  improper types

-30.5 30.5 xlo xhi
-30.5 30.5 ylo yhi
-233.5 233.5 zlo zhi


Masses

1 1.000000

Atoms

1 0 1 -10.312029 -15.524840 37.633209
2 0 1 -9.449940 -15.893041 37.500397
3 0 1 -9.605089 -16.173639 36.621887
4 0 1 -9.481430 -15.875541 35.703308
5 0 1 -10.162319 -16.539740 35.811890
6 0 1 -10.707588 -16.183041 35.036316
7 0 1 -10.249498 -16.657639 34.311707
8 0 1 -10.177729 -16.610640 33.375702
9 0 1 -10.807289 -16.670238 32.582703
10 0 1 -9.981239 -16.278938 32.293304
11 0 1 -9.616718 -15.665740 32.869110
12 0 1 -9.865358 -14.889039 33.404602
13 0 1 -9.092770 -14.945741 34.018005
14 0 1 -8.688999 -15.536040 33.341705
15 0 1 -8.559868 -16.084740 32.589996
16 0 1 -8.906288 -15.234040 32.174805
17 0 1 -9.341740 -15.248240 31.225403
18 0 1 -10.301220 -15.155940 31.354309
19 0 1 -11.208790 -15.376540 31.380310
20 0 1 -11.327690 -14.579141 30.833191
21 0 1 -10.892090 -13.788341 30.731506
22 0 1 -9.958488 -13.482041 30.525513
23 0 1 -9.417519 -12.823390 30.054993
24 0 1 -8.585609 -12.497762 29.945984
25 0 1 -8.043129 -12.365750 29.178192
26 0 1 -7.881190 -11.419122 29.010101
27 0 1 -7.001059 -11.124791 29.050995
28 0 1 -6.280730 -10.740399 29.459991
29 0 1 -5.383389 -10.573291 29.438507
30 0 1 -5.742268 -10.380620 28.572601
31 0 1 -5.009499 -10.260221 27.933197
32 0 1 -4.607880 -10.970660 28.415710
33 0 1 -3.823309 -11.303330 29.013916
34 0 1 -3.556118 -11.996652 28.462799
35 0 1 -3.916048 -12.707082 27.942413
36 0 1 -3.305929 -13.469041 27.904694
37 0 1 -2.692749 -12.857141 27.447510
38 0 1 -2.091419 -13.532140 27.731506
39 0 1 -1.858899 -12.963231 28.440399
40 0 1 -0.873307 -12.764409 28.373108
41 0 1 -0.973164 -13.317740 27.643616
42 0 1 0.012943 -13.416741 27.972809
43 0 1 0.330310 -13.141240 26.987488
44 0 1 1.068493 -13.615741 27.338287
45 0 1 2.003322 -13.929841 27.134491
46 0 1 2.670299 -13.276441 27.018005
47 0 1 2.794693 -13.113839 26.105408
48 0 1 3.164699 -13.971742 25.782898
49 0 1 3.138790 -14.984441 25.632690
50 0 1 2.837532 -15.741040 25.167603
51 0 1 2.101040 -16.234840 25.538391
52 0 1 1.365051 -15.999440 24.984711
53 0 1 0.625150 -16.505539 25.256195
54 0 1 -0.030140 -15.780141 25.337189
55 0 1 -0.468853 -16.569639 25.026001
56 0 1 -1.210265 -17.122839 25.302612
57 0 1 -2.064179 -16.630739 25.280487
58 0 1 -1.778939 -15.692342 25.333984
59 0 1 -1.061550 -15.219340 25.705200
60 0 1 -0.888090 -14.250642 25.554016
61 0 1 -1.166861 -13.759339 24.767914
62 0 1 -1.605818 -14.573140 24.543884
63 0 1 -1.387593 -14.553639 23.536194
64 0 1 -0.867394 -13.941840 23.044312
65 0 1 -0.409787 -14.060941 23.916901
66 0 1 0.358501 -13.646340 23.707611
67 0 1 0.725591 -13.705041 22.832489
68 0 1 0.495990 -13.450139 21.953094
69 0 1 0.480251 -13.075212 21.091400
70 0 1 0.649521 -12.372790 21.757904
71 0 1 -0.223271 -12.130950 21.379395
72 0 1 -0.627146 -11.598100 20.726303
73 0 1 -0.175837 -10.891900 21.237305
74 0 1 0.219036 -9.984891 21.129608
75 0 1 0.777061 -10.434442 20.496002
76 0 1 1.584690 -9.943160 20.031998
77 0 1 1.882610 -10.820001 19.860992
78 0 1 2.669559 -11.368791 19.710693
79 0 1 3.367382 -10.652371 19.738998
80 0 1 4.227882 -10.235631 19.914505
81 0 1 4.032402 -9.930800 20.805099
82 0 1 4.346572 -9.560981 21.640594
83 0 1 5.295940 -9.624980 21.741699
84 0 1 5.017532 -9.202790 20.925400
85 0 1 4.610672 -8.741071 20.149796
86 0 1 4.006942 -7.922749 20.417908
87 0 1 4.541812 -7.302470 19.920303
88 0 1 5.489032 -7.116740 19.649902
89 0 1 6.296672 -7.526410 20.005707
90 0 1 7.045482 -6.985060 20.330994
91 0 1 7.459861 -7.808579 20.613007
92 0 1 7.559001 -8.601600 21.153595
93 0 1 7.070419 -9.377831 21.124802
94 0 1 6.393520 -10.023252 20.930908
95 0 1 5.976181 -10.584731 21.562897
96 0 1 5.784870 -11.211049 20.811005
97 0 1 6.030052 -10.945880 19.929901
98 0 1 5.054519 -10.964980 20.028595
99 0 1 5.220031 -11.296620 19.115402
100 0 1 4.760631 -12.117141 18.803299
101 0 1 3.921322 -12.595681 18.699799
102 0 1 3.552150 -11.776120 18.379196
103 0 1 4.289352 -11.325540 17.911896
104 0 1 5.247020 -11.207610 17.550400
105 0 1 5.933929 -10.574941 17.856796
106 0 1 5.285461 -9.863481 17.900299
107 0 1 6.026599 -9.669431 17.325699
108 0 1 5.286079 -10.065551 16.855408
109 0 1 5.373260 -10.930940 16.447906
110 0 1 5.882270 -10.558141 15.718902
111 0 1 5.607971 -10.388560 14.812194
112 0 1 5.842231 -9.430730 14.849700
113 0 1 6.310539 -9.689410 15.658401
114 0 1 6.664260 -8.772740 15.628203
115 0 1 7.413452 -8.980460 16.194000
116 0 1 8.379292 -9.198520 15.990096
117 0 1 7.782932 -9.699841 15.375899
118 0 1 8.085442 -10.584851 15.332503
119 0 1 8.625313 -10.831851 16.090500
120 0 1 8.602062 -10.058141 16.679596
121 0 1 8.758282 -10.798020 17.269806
122 0 1 9.250122 -10.144631 17.883392
123 0 1 10.170113 -10.410981 17.693604
124 0 1 10.668610 -10.673850 18.470505
125 0 1 9.839710 -11.297540 18.285294
126 0 1 9.940212 -11.518001 17.341003
127 0 1 10.619011 -12.261750 17.195404
128 0 1 10.143112 -12.848081 16.555603
129 0 1 11.070911 -12.964360 16.440796
130 0 1 11.923710 -13.274941 16.183304
131 0 1 12.567612 -13.868741 16.630600
132 0 1 13.330811 -13.706841 16.098206
133 0 1 12.792412 -13.839742 15.347304
134 0 1 12.157211 -14.503840 15.048293
135 0 1 12.801109 -15.180140 15.014998
136 0 1 12.871311 -16.126740 14.726897
137 0 1 13.601810 -16.253639 15.288497
138 0 1 14.516609 -16.128738 15.560500
139 0 1 14.423309 -17.073238 15.737502
140 0 1 14.656509 -16.620140 16.548401
141 0 1 14.933811 -16.065338 17.287506
142 0 1 15.875214 -15.829541 17.302200
143 0 1 16.186409 -16.729439 17.459900
144 0 1 15.934711 -16.927441 18.375504
145 0 1 16.370312 -17.557940 18.986801
146 0 1 16.318314 -18.389641 18.506195
147 0 1 17.246910 -18.555840 18.789703
148 0 1 17.166313 -18.180740 19.692505
149 0 1 17.531013 -18.680439 20.489700
150 0 1 17.116211 -19.429039 20.877808
151 0 1 16.209709 -19.295040 20.966904
152 0 1 15.822910 -19.453239 21.812195
153 0 1 16.049110 -19.052340 22.672913
154 0 1 16.268913 -19.826740 23.223602
155 0 1 17.178909 -19.425840 23.232391
156 0 1 18.043812 -19.675339 22.929199
157 0 1 18.370514 -19.234539 23.766205
158 0 1 18.859009 -18.404940 23.842896
159 0 1 19.276611 -17.798941 23.227203
160 0 1 20.028610 -17.644939 23.838989
161 0 1 20.207111 -17.709339 22.887085
162 0 1 19.649513 -16.860439 22.730804
163 0 1 18.981110 -16.250139 23.082092
164 0 1 18.674309 -16.819538 23.804688
165 0 1 17.910511 -16.493639 23.350494
166 0 1 17.461311 -15.805640 22.799591
167 0 1 17.273209 -15.423039 21.952301
168 0 1 18.054810 -14.906041 21.500504
169 0 1 18.560013 -14.220740 21.055695
170 0 1 18.215012 -13.885341 20.220001
171 0 1 18.414909 -13.898641 19.327698
172 0 1 19.012211 -13.197440 19.661407
173 0 1 19.602509 -12.474210 20.078995
174 0 1 19.439312 -11.868279 20.753098
175 0 1 19.986111 -12.179271 21.421906
176 0 1 20.235809 -12.421689 22.251099
177 0 1 20.985611 -12.189172 22.869293
178 0 1 20.462509 -12.367070 23.584503
179 0 1 20.393711 -11.357949 23.490509
180 0 1 20.613510 -10.989730 22.626892
181 0 1 19.899311 -11.406011 22.278793
182 0 1 18.949612 -11.065200 22.302002
183 0 1 19.146614 -10.283380 21.796005
184 0 1 19.728409 -9.493810 21.845901
185 0 1 19.655510 -8.764131 22.461304
186 0 1 18.828712 -8.859160 22.947815
187 0 1 17.980110 -8.890500 23.536102
188 0 1 17.118713 -8.840011 23.903595
189 0 1 17.129410 -8.362411 23.096588
190 0 1 16.503212 -9.065541 22.709503
191 0 1 16.041111 -8.942201 23.557404
192 0 1 15.199711 -8.595971 23.135101
193 0 1 14.713310 -7.779740 23.046906
194 0 1 14.265709 -7.181059 23.675201
195 0 1 14.450512 -7.447279 24.565186
196 0 1 14.802811 -6.896670 25.227692
197 0 1 14.395111 -5.988221 24.947296
198 0 1 15.062611 -5.930951 24.214111
199 0 1 15.621010 -5.441399 24.697510
200 0 1 15.598312 -4.552260 24.098511
201 0 1 14.714310 -4.167630 23.843109
202 0 1 15.014709 -3.883099 22.938995
203 0 1 15.016411 -4.316599 22.078201
204 0 1 15.571411 -3.661654 21.581406
205 0 1 15.421112 -3.988597 20.723495
206 0 1 14.995213 -4.437859 19.900101
207 0 1 15.793312 -4.995400 19.888702
208 0 1 16.680111 -4.664620 20.103302
209 0 1 16.551411 -3.791951 19.788605
210 0 1 17.277012 -3.158767 19.829498
211 0 1 16.931911 -2.394608 20.401901
212 0 1 17.330910 -1.834201 21.097992
213 0 1 17.753212 -1.445199 20.244003
214 0 1 17.917912 -1.004319 21.110001
215 0 1 16.941811 -0.817799 21.259308
216 0 1 16.341309 -1.427579 20.810806
217 0 1 15.519409 -1.010861 21.065094
218 0 1 15.114811 -0.933041 20.119904
219 0 1 14.605812 -1.207261 19.377502
220 0 1 13.995811 -0.501301 19.254898
221 0 1 14.115311 0.424171 19.033707
222 0 1 13.814110 0.483772 18.069595
223 0 1 13.413410 0.913490 17.352097
224 0 1 12.687912 0.357559 17.135498
225 0 1 12.113911 0.351428 16.367706
226 0 1 12.169510 -0.593678 16.060608
227 0 1 12.620712 -0.315049 15.151702
228 0 1 12.380112 0.563731 14.949096
229 0 1 11.415310 0.718959 15.197402
230 0 1 10.778812 0.785701 14.453795
231 0 1 9.976612 0.909820 14.985503
232 0 1 9.456413 0.495769 15.734801
233 0 1 8.798462 -0.177460 15.592101
234 0 1 8.444550 0.140762 14.741500
235 0 1 7.936409 0.941379 14.899398
236 0 1 8.569172 1.613670 15.138305
237 0 1 9.502811 1.759040 15.243804
238 0 1 10.034512 2.360301 14.748107
239 0 1 9.333511 2.979572 14.797606
240 0 1 9.859112 3.687289 14.510695
241 0 1 9.484909 4.425632 14.093200
242 0 1 8.703930 4.953849 14.444106
243 0 1 8.523342 5.884952 14.149993
244 0 1 8.416290 6.587642 14.833297
245 0 1 8.331253 6.185890 15.684691
246 0 1 8.163811 6.056739 16.537094
247 0 1 8.674980 6.639381 17.065094
248 0 1 8.693012 7.062259 16.241104
249 0 1 8.214211 7.816959 16.477402
250 0 1 8.373383 8.467257 15.820495
251 0 1 8.766899 8.133861 15.017104
252 0 1 7.897903 8.362960 14.740798
253 0 1 6.895301 8.471660 14.775207
254 0 1 7.147670 9.234660 14.324798
255 0 1 7.121711 10.128058 13.946105
256 0 1 7.381259 10.851859 13.262893
257 0 1 7.429130 11.110259 12.335692
258 0 1 6.980560 10.226760 12.294494
259 0 1 6.787292 10.791961 11.547393
260 0 1 5.911441 11.106360 11.381194
261 0 1 5.752769 10.160258 11.273101
262 0 1 5.017330 9.681861 10.782195
263 0 1 4.228679 9.661361 11.346602
264 0 1 4.255321 9.612758 12.287398
265 0 1 3.896023 10.537360 12.026000
266 0 1 3.781299 11.205058 12.727599
267 0 1 3.250431 11.986960 12.740691
268 0 1 4.173870 12.095859 12.439391
269 0 1 4.391532 12.817958 13.084304
270 0 1 4.593460 13.286559 13.892898
271 0 1 4.895740 14.039859 14.376403
272 0 1 5.438209 14.546359 15.019500
273 0 1 6.021991 14.222362 14.356902
274 0 1 7.005180 14.152759 14.282805
275 0 1 6.625740 13.864657 15.086394
276 0 1 6.023071 13.631061 15.833404
277 0 1 5.309982 13.583758 16.534393
278 0 1 5.017349 12.721560 16.350998
279 0 1 5.483963 12.672259 17.214005
280 0 1 4.724960 12.199962 17.550598
281 0 1 4.987991 12.097461 18.460800
282 0 1 5.538822 11.359759 18.730606
283 0 1 5.682502 11.984462 19.415100
284 0 1 6.461410 12.081359 18.905396
285 0 1 7.199291 12.598659 19.254196
286 0 1 7.872470 12.320159 19.860199
287 0 1 8.261292 11.392360 19.626495
288 0 1 8.030071 11.071559 20.588394
289 0 1 8.035339 11.885261 21.024292
290 0 1 7.439399 11.646560 21.770706
291 0 1 6.584880 11.480060 21.477997
292 0 1 7.141441 10.815261 21.026093
293 0 1 7.422000 9.926661 21.193802
294 0 1 8.179531 10.257960 21.764801
295 0 1 8.930412 10.839160 21.625092
296 0 1 8.884460 11.791560 21.729706
297 0 1 9.791412 12.035659 21.850098
298 0 1 10.396812 12.319259 21.158707
299 0 1 10.159611 13.226859 21.568100
300 0 1 10.091412 12.804160 22.431793
301 0 1 10.919510 12.358760 22.594116
302 0 1 11.722012 11.885158 22.819305
303 0 1 12.358009 12.013659 23.600098
304 0 1 13.145710 12.008658 23.103790
305 0 1 13.680012 11.334060 22.662903
306 0 1 13.438110 11.048358 21.759003
307 0 1 13.921711 11.790660 21.312805
308 0 1 14.837013 11.569758 21.528503
309 0 1 15.266212 11.499560 22.393600
310 0 1 16.008411 10.989058 22.778900
311 0 1 15.505913 10.862861 23.524292
312 0 1 16.225510 11.124358 24.192413
313 0 1 17.138313 11.095660 24.622803
314 0 1 17.807011 10.405559 24.788513
315 0 1 18.059509 9.922458 23.961395
316 0 1 17.129711 9.912959 23.991394
317 0 1 16.821609 9.055461 24.115906
318 0 1 17.148109 8.487460 24.809692
319 0 1 16.617611 7.757461 25.125793
320 0 1 16.264111 6.860210 25.273895
321 0 1 15.660011 7.037059 26.071991
322 0 1 16.127113 7.257358 26.889893
323 0 1 16.333214 6.730388 27.596802
324 0 1 16.670013 6.107372 28.268707
325 0 1 15.809608 5.707019 28.463684
326 0 1 16.030113 5.445110 27.424194
327 0 1 15.612011 4.814170 26.826691
328 0 1 16.401314 4.423778 27.217804
329 0 1 16.781212 4.036922 28.012695
330 0 1 16.886810 4.697811 28.693604
331 0 1 16.095909 4.144729 28.841187
332 0 1 15.515411 4.061031 28.096710
333 0 1 14.573509 4.083660 27.918884
334 0 1 14.612511 3.279971 28.450897
335 0 1 14.760109 2.612960 27.819214
336 0 1 14.967613 2.562099 26.904205
337 0 1 15.917809 2.289649 26.649597
338 0 1 16.037209 1.915038 27.616913
339 0 1 15.783112 1.702270 28.549408
340 0 1 15.027012 2.051399 28.873688
341 0 1 14.189312 2.371101 29.151306
342 0 1 13.809811 2.645721 29.994690
343 0 1 13.583210 3.013271 30.812897
344 0 1 13.454613 3.874591 31.164612
345 0 1 12.568810 4.032150 31.475494
346 0 1 12.176712 4.913280 31.818207
347 0 1 11.669312 4.637100 32.645691
348 0 1 10.785110 4.187839 32.810486
349 0 1 10.606213 5.127410 32.831207
350 0 1 10.662510 6.031951 32.524994
351 0 1 9.966511 6.713581 32.707001
352 0 1 9.048599 6.673801 33.067108
353 0 1 8.277390 6.409961 32.630310
354 0 1 7.990432 5.687171 32.171204
355 0 1 7.801631 4.729301 32.328094
356 0 1 8.768970 4.597911 32.378601
357 0 1 8.714981 3.862972 32.987091
358 0 1 7.737590 3.629291 33.239685
359 0 1 6.872039 3.454051 32.761993
360 0 1 6.901092 3.774120 33.655090
361 0 1 6.588092 2.890281 33.794983
362 0 1 6.067840 2.091918 34.121796
363 0 1 6.022979 2.535289 35.009094
364 0 1 5.384571 2.998401 34.470215
365 0 1 6.120903 3.583751 34.644104
366 0 1 5.748760 4.483840 34.383087
367 0 1 5.841293 5.471790 34.352600
368 0 1 6.806011 5.355171 34.589294
369 0 1 7.415702 5.170368 35.440094
370 0 1 6.802421 5.236770 36.305603
371 0 1 6.654071 5.091869 37.252289
372 0 1 6.277362 5.256809 38.145294
373 0 1 5.925430 6.161300 38.191193
374 0 1 5.911270 6.985462 37.625916
375 0 1 5.523929 6.781421 36.833008
376 0 1 5.037731 6.022041 36.477692
377 0 1 5.108562 6.268451 35.543213
378 0 1 4.372631 5.690021 35.765198
379 0 1 3.456291 6.062080 35.701904
380 0 1 3.397770 5.975399 34.733704
381 0 1 3.880680 5.303970 34.211700
382 0 1 3.491173 4.822780 33.394806
383 0 1 4.274181 4.657989 32.871094
384 0 1 4.734413 5.491710 32.580902
385 0 1 4.039161 5.273769 31.914307
386 0 1 4.005252 6.105762 31.440613
387 0 1 4.485000 5.427860 31.014404
388 0 1 5.391231 5.672771 30.626801
389 0 1 5.979190 5.048080 31.047302
390 0 1 6.679500 4.449718 30.722412
391 0 1 7.103149 3.865531 30.082489
392 0 1 6.867099 3.456470 29.224213
393 0 1 6.722751 3.635921 28.266510
394 0 1 7.502052 4.013160 28.634491
395 0 1 7.838680 3.175258 28.932190
396 0 1 8.253750 2.329540 29.220703
397 0 1 8.705982 1.571170 29.710114
398 0 1 8.053589 0.798679 29.824005
399 0 1 8.907173 0.649970 30.177887
400 0 1 9.541210 0.034149 30.462097
401 0 1 10.273109 -0.276398 31.065399
402 0 1 9.517212 -0.100579 31.619507
403 0 1 8.755814 -0.478429 32.171387
404 0 1 9.156754 -0.703210 33.044403
405 0 1 9.184940 -1.553979 33.415497
406 0 1 9.784412 -1.611880 34.250183
407 0 1 10.586010 -1.023141 34.481598
408 0 1 11.039810 -1.480401 35.165100
409 0 1 11.459213 -0.556229 35.206696
410 0 1 12.180511 -0.862881 35.712585
411 0 1 11.936409 -1.607340 36.318390
412 0 1 12.668510 -2.233720 36.250183
413 0 1 13.464310 -2.390940 36.838806
414 0 1 14.108810 -3.078719 36.634308
415 0 1 14.961609 -2.623679 36.513092
416 0 1 14.987911 -3.169471 37.314606
417 0 1 14.784710 -4.053383 37.653503
418 0 1 14.493412 -3.672166 38.502014
419 0 1 14.504810 -3.550376 39.461304
420 0 1 13.803009 -3.758811 40.007294
421 0 1 13.520412 -3.907202 39.100006
422 0 1 13.382111 -4.484250 38.318207
423 0 1 13.140709 -5.372900 38.004211
424 0 1 12.668411 -6.202820 38.044800
425 0 1 13.489410 -6.632840 37.966400
426 0 1 13.061012 -6.546990 37.087708
427 0 1 13.182610 -6.194510 36.212097
428 0 1 12.354210 -6.070851 35.839111
429 0 1 11.710312 -6.546639 36.278412
430 0 1 11.078411 -6.764161 36.944000
431 0 1 10.461910 -6.104460 37.218903
432 0 1 10.393509 -6.521941 38.018616
433 0 1 10.208710 -5.770970 38.526703
434 0 1 9.352913 -6.257950 38.534210
435 0 1 9.694412 -7.205941 38.482910
436 0 1 8.929153 -7.382279 39.118591
437 0 1 8.734291 -7.318211 40.010101
438 0 1 9.069431 -6.437039 40.260590
439 0 1 9.720112 -6.647000 39.654297
440 0 1 10.428810 -7.169720 40.093597
441 0 1 9.886211 -7.236599 40.877594
442 0 1 10.803513 -7.307351 41.183411
443 0 1 10.826912 -7.563349 42.133301
444 0 1 11.122910 -8.287831 42.606293
445 0 1 11.894913 -7.942420 42.220795
446 0 1 12.286510 -8.405221 41.404297
447 0 1 13.185513 -8.144551 41.433197
448 0 1 14.073811 -8.235150 41.499207
449 0 1 14.078812 -8.551419 42.398895
450 0 1 13.738213 -9.424241 42.399200
451 0 1 13.213013 -10.184411 42.188507
452 0 1 14.026211 -10.184091 41.715698
453 0 1 13.873512 -11.067420 42.104614
454 0 1 14.883511 -11.267350 42.121887
455 0 1 15.676411 -11.607480 42.480499
456 0 1 16.564713 -11.519261 42.131104
457 0 1 17.191212 -11.779801 41.481689
458 0 1 17.468910 -11.745160 40.539307
459 0 1 18.094612 -11.498281 39.813599
460 0 1 18.656212 -11.195371 39.058411
461 0 1 19.016911 -10.856832 39.837311
462 0 1 18.267811 -10.879041 40.612488
463 0 1 17.296509 -10.607930 40.410095
464 0 1 17.748009 -9.819770 40.704498
465 0 1 17.294510 -9.013539 40.715210
466 0 1 16.936111 -9.567950 41.464111
467 0 1 17.309410 -10.079520 42.213409
468 0 1 18.261711 -10.095639 42.296600
469 0 1 19.115013 -10.539821 42.141693
470 0 1 19.351612 -11.457520 42.091492
471 0 1 19.436409 -11.842900 42.990112
472 0 1 19.994911 -11.081922 43.196594
473 0 1 20.875011 -10.978370 43.684113
474 0 1 21.558014 -11.025990 44.298889
475 0 1 21.354912 -11.329370 45.269012
476 0 1 20.626511 -10.867681 44.767303
477 0 1 20.547813 -10.063729 44.268402
478 0 1 19.955910 -9.506160 44.811584
479 0 1 19.560013 -9.211961 43.955292
480 0 1 19.080612 -9.408181 43.093292
481 0 1 19.154213 -8.456651 42.945404
482 0 1 18.859112 -7.625111 42.390503
483 0 1 18.113811 -7.043561 42.369110
484 0 1 17.518913 -7.518990 43.045105
485 0 1 16.799011 -6.919560 43.296509
486 0 1 16.728512 -6.800530 42.359009
487 0 1 16.890411 -7.621350 41.904297
488 0 1 17.609810 -7.500130 41.363098
489 0 1 18.141811 -6.769419 40.996704
490 0 1 17.984909 -6.036500 40.256714
491 0 1 18.793709 -5.837210 39.791016
492 0 1 19.496910 -5.157349 39.609314
493 0 1 19.257210 -4.308461 39.340515
494 0 1 19.768814 -3.603980 39.762085
495 0 1 20.179008 -3.973159 40.497711
496 0 1 20.234314 -3.131909 40.985596
497 0 1 20.566010 -2.421649 41.554108
498 0 1 21.053612 -2.236794 40.724701
499 0 1 20.324509 -1.563752 40.771393
500 0 1 19.491310 -1.253430 41.200012
501 0 1 18.828514 -1.965560 41.157410
502 0 1 18.280910 -2.345275 41.822205
503 0 1 17.802910 -1.460011 41.780884
504 0 1 18.359512 -0.838750 42.147705
505 0 1 17.890312 -0.601929 42.937897
506 0 1 18.423714 0.053100 43.439514
507 0 1 19.241013 0.516872 43.301697
508 0 1 18.817909 0.824329 44.171906
509 0 1 19.783112 1.005092 44.239288
510 0 1 20.669510 1.428321 44.508911
511 0 1 20.154510 1.971740 45.059906
512 0 1 20.909210 2.608478 44.925598
513 0 1 21.370911 2.972228 44.047211
514 0 1 20.616013 3.558898 43.827911
515 0 1 20.031712 2.907039 44.160583
516 0 1 19.218311 3.494838 44.227692
517 0 1 18.706112 4.304088 44.183502
518 0 1 19.164211 5.123489 44.193298
519 0 1 18.889610 5.517471 43.333710
520 0 1 19.152912 5.771499 42.401489
521 0 1 19.947411 5.312488 42.177704
522 0 1 20.531712 5.294452 43.023010
523 0 1 21.275513 5.153511 43.601013
524 0 1 20.827011 5.699840 44.282013
525 0 1 21.377411 5.767772 45.061310
526 0 1 22.056511 5.474590 45.780792
527 0 1 22.188511 5.572631 46.694489
528 0 1 21.961712 5.519168 47.650787
529 0 1 22.828514 5.176399 47.742706
530 0 1 23.049511 5.890670 48.357605
531 0 1 22.884411 6.662010 48.901398
532 0 1 22.260612 5.931140 49.317993
533 0 1 21.297512 5.741062 49.362396
534 0 1 20.908310 6.247791 50.094208
535 0 1 19.990211 6.306129 49.799316
536 0 1 19.012009 6.205822 49.785583
537 0 1 18.788109 5.317462 49.986298
538 0 1 19.703911 5.114261 50.282288
539 0 1 19.970909 4.705348 49.416901
540 0 1 20.406712 5.045951 48.547089
541 0 1 20.506409 4.622772 47.714203
542 0 1 20.016411 5.507850 47.581207
543 0 1 19.264912 5.975639 47.111908
544 0 1 18.622211 6.101081 47.778503
545 0 1 18.379612 5.716960 48.681488
546 0 1 18.544811 6.623630 48.919006
547 0 1 18.991013 7.472961 48.975189
548 0 1 19.321312 7.908359 48.148193
549 0 1 18.754311 8.776759 48.024414
550 0 1 18.155014 8.018458 48.240997
551 0 1 17.565109 8.264659 47.469513
552 0 1 16.851913 8.889560 47.581512
553 0 1 16.049210 8.573062 48.028595
554 0 1 16.801712 8.583461 48.683899
555 0 1 16.179111 9.193759 49.151703
556 0 1 16.515312 8.533259 49.812500
557 0 1 15.947212 7.981460 50.316895
558 0 1 15.461914 8.817561 50.530396
559 0 1 14.678711 8.225959 50.656006
560 0 1 13.896111 8.701861 50.269714
561 0 1 13.760513 9.146461 49.387909
562 0 1 13.926411 8.973159 48.485992
563 0 1 14.827312 8.946059 48.119598
564 0 1 14.485012 7.985260 48.398407
565 0 1 13.907013 7.862560 49.224915
566 0 1 13.253811 7.931659 49.881409
567 0 1 13.564812 7.766162 50.813202
568 0 1 13.196011 6.867382 50.742004
569 0 1 12.480511 6.550472 51.231110
570 0 1 11.833210 6.868770 51.882111
571 0 1 10.889214 6.519222 51.883209
572 0 1 10.542511 7.389560 51.612915
573 0 1 10.854713 7.258659 52.510712
574 0 1 11.283012 7.582561 53.383484
575 0 1 12.264313 7.432559 53.699402
576 0 1 12.940109 6.720680 53.575684
577 0 1 13.556511 7.028759 54.230804
578 0 1 14.478813 7.103561 54.510315
579 0 1 14.323612 7.655162 53.638184
580 0 1 15.194912 7.755561 53.958099
581 0 1 15.111210 8.567660 53.562683
582 0 1 14.601212 8.861461 52.803406
583 0 1 15.159710 9.295558 52.114990
584 0 1 15.794113 9.407557 52.822906
585 0 1 16.733212 9.431060 52.675812
586 0 1 16.338310 10.035460 53.320099
587 0 1 15.971909 10.559459 54.033691
588 0 1 16.387009 10.008460 54.711395
589 0 1 15.554909 9.793059 55.258301
590 0 1 14.664112 9.567760 55.224213
591 0 1 13.925613 9.974860 54.678192
592 0 1 12.979813 9.944560 54.324890
593 0 1 12.629211 9.182261 54.800201
594 0 1 11.765511 9.365458 55.161804
595 0 1 10.859909 9.267161 54.912201
596 0 1 11.049313 10.116458 54.421600
597 0 1 11.149212 10.969562 53.994690
598 0 1 11.958111 11.082858 53.485992
599 0 1 12.253510 10.678561 52.648499
600 0 1 11.246613 10.444560 52.826996
601 0 1 11.327511 11.262259 52.465698
602 0 1 10.596710 11.335361 51.844696
603 0 1 9.773312 11.477859 51.313690
604 0 1 8.893120 11.098559 51.105499
605 0 1 9.176422 10.284160 50.674103
606 0 1 8.329601 10.013560 50.374512
607 0 1 8.627071 9.623660 49.562195
608 0 1 8.059811 10.027362 48.846985
609 0 1 7.102230 9.970759 48.650787
610 0 1 6.786190 10.834559 48.962494
611 0 1 6.408302 10.590560 48.042206
612 0 1 5.600971 10.168559 48.524902
613 0 1 4.831619 10.784461 48.543091
614 0 1 4.165191 11.185260 47.980103
615 0 1 3.706760 10.865458 48.746216
616 0 1 3.170871 10.093059 48.439301
617 0 1 3.503792 10.045760 47.531708
618 0 1 3.764530 10.494861 46.714813
619 0 1 3.401600 10.889960 45.934509
620 0 1 4.348819 11.026462 45.856995
621 0 1 5.093379 11.391658 45.313416
622 0 1 5.107791 11.542159 44.366211
623 0 1 4.967689 12.517161 44.483093
624 0 1 4.109672 12.909659 44.662109
625 0 1 4.220291 13.041957 43.730591
626 0 1 3.939041 13.418757 42.900299
627 0 1 3.169700 13.494060 43.437592
628 0 1 3.007702 13.989459 44.337708
629 0 1 3.420162 14.846759 44.001587
630 0 1 3.568382 15.701861 44.450592
631 0 1 3.801040 16.565960 44.068298
632 0 1 2.910049 16.564861 44.560913
633 0 1 2.625061 15.929759 45.299988
634 0 1 2.329471 16.602863 45.923889
635 0 1 1.607811 16.895359 46.601196
636 0 1 1.631652 17.884560 46.533508
637 0 1 1.324470 17.438160 45.676514
638 0 1 1.245849 18.306362 45.256805
639 0 1 0.550361 18.117561 44.615295
640 0 1 1.033981 18.957260 44.301605
641 0 1 1.036880 19.653362 43.638916
642 0 1 0.583101 19.103661 42.932892
643 0 1 0.387861 18.199459 42.934296
644 0 1 1.216400 18.252060 42.506500
645 0 1 0.719810 18.027958 41.658997
646 0 1 0.006757 17.949459 40.989685
647 0 1 -0.502665 18.416462 41.648804
648 0 1 -1.426012 18.002560 41.575409
649 0 1 -1.886620 17.282963 41.142212
650 0 1 -2.094029 16.597363 41.747986
651 0 1 -2.572048 15.757159 41.536591
652 0 1 -3.147349 16.389961 41.938293
653 0 1 -3.809618 16.090359 41.268097
654 0 1 -4.145878 16.967159 41.595093
655 0 1 -5.109330 17.001560 41.491516
656 0 1 -5.192448 16.142162 41.168701
657 0 1 -5.259139 15.396159 41.766388
658 0 1 -4.677180 15.794360 42.427795
659 0 1 -4.923699 14.935859 42.784393
660 0 1 -4.191239 14.740558 42.173401
661 0 1 -4.265950 14.396258 41.300507
662 0 1 -3.764559 13.645862 41.605103
663 0 1 -3.983969 12.734660 41.955688
664 0 1 -4.341919 12.125659 41.283386
665 0 1 -4.421158 12.818061 40.614410
666 0 1 -4.041239 12.149562 39.992706
667 0 1 -3.138218 11.985358 39.620209
668 0 1 -3.526129 11.065459 39.720703
669 0 1 -3.422259 10.169459 39.918701
670 0 1 -2.519120 10.351859 39.621490
671 0 1 -1.662278 10.732661 39.712494
672 0 1 -0.831017 10.267959 39.988800
673 0 1 -0.460104 10.834861 40.691803
674 0 1 -0.214651 11.274261 41.495300
675 0 1 -0.173035 12.257461 41.697296
676 0 1 0.019529 12.528461 42.575806
677 0 1 -0.126410 12.106959 43.409210
678 0 1 0.317220 11.393062 42.925690
679 0 1 -0.007756 10.639060 42.484192
680 0 1 0.237190 10.026259 43.196808
681 0 1 0.768511 9.396762 42.660004
682 0 1 0.084938 9.695560 42.052185
683 0 1 0.481380 9.398559 41.270996
684 0 1 0.754001 8.484160 41.379791
685 0 1 -0.051857 8.027461 41.256500
686 0 1 -0.773337 8.386458 40.657501
687 0 1 -1.407307 8.611659 39.943909
688 0 1 -0.908722 7.863262 39.703796
689 0 1 -1.845639 7.613361 39.648193
690 0 1 -2.589428 7.510360 40.284088
691 0 1 -2.530199 6.748001 39.648590
692 0 1 -3.437630 6.496631 39.199799
693 0 1 -4.264889 6.194770 38.672089
694 0 1 -4.802800 6.380031 37.908600
695 0 1 -4.551659 7.223159 37.490295
696 0 1 -4.327038 8.088458 37.019714
697 0 1 -4.778389 8.891059 36.642517
698 0 1 -4.129069 9.558459 36.820709
699 0 1 -3.282149 9.516059 36.366302
700 0 1 -2.674618 10.216460 36.297699
701 0 1 -1.779589 10.472159 35.993011
702 0 1 -2.389929 10.768760 35.283905
703 0 1 -1.559162 10.798160 34.816193
704 0 1 -2.126978 11.276858 34.231110
705 0 1 -2.290440 10.607261 33.571716
706 0 1 -2.957699 10.065761 33.184601
707 0 1 -2.963820 9.179160 33.536713
708 0 1 -2.962849 8.154059 33.228210
709 0 1 -3.407919 7.685760 32.495911
710 0 1 -3.953219 7.134559 33.118591
711 0 1 -3.330729 6.521320 32.737610
712 0 1 -2.391709 6.414939 32.884888
713 0 1 -2.213289 5.804439 33.588684
714 0 1 -2.387949 6.466060 34.322205
715 0 1 -3.389960 6.187442 34.158508
716 0 1 -3.674959 5.863582 35.052002
717 0 1 -4.126450 4.981330 35.166107
718 0 1 -4.229449 4.510841 34.413391
719 0 1 -3.656920 3.949271 34.920807
720 0 1 -3.234459 3.605022 35.674591
721 0 1 -2.751009 3.539432 36.471893
722 0 1 -2.201069 2.761958 36.354492
723 0 1 -1.877209 1.837879 36.424316
724 0 1 -1.835610 1.700900 35.486908
725 0 1 -1.569571 0.814330 35.105499
726 0 1 -1.124833 -0.078370 35.004089
727 0 1 -1.120827 -0.526921 34.182495
728 0 1 -1.259634 0.004821 33.436401
729 0 1 -1.496027 0.927871 33.539093
730 0 1 -2.145218 0.868110 34.242493
731 0 1 -2.438589 -0.031609 34.003113
732 0 1 -2.349489 -0.957951 33.718109
733 0 1 -2.412350 -1.666560 34.395111
734 0 1 -1.558251 -2.080935 34.048096
735 0 1 -1.191958 -3.070369 34.018616
736 0 1 -0.325024 -3.400573 33.741699
737 0 1 -0.644137 -3.224885 32.783112
738 0 1 0.053684 -2.864127 32.227509
739 0 1 0.199043 -2.088523 31.710114
740 0 1 0.517002 -1.291730 31.101807
741 0 1 0.159797 -1.876799 30.390594
742 0 1 -0.376030 -2.653491 30.411011
743 0 1 -0.686608 -3.022166 29.573914
744 0 1 -0.206707 -3.844943 29.602692
745 0 1 -0.603710 -3.670701 28.719116
746 0 1 -0.848755 -2.880671 28.264801
747 0 1 -0.571389 -1.972930 28.487396
748 0 1 -0.671152 -1.766129 27.549713
749 0 1 -1.064844 -2.387133 26.956787
750 0 1 -0.681336 -3.223498 26.589691
751 0 1 -0.695469 -3.019732 25.649902
752 0 1 -1.648419 -3.010514 25.999207
753 0 1 -2.616989 -3.094582 26.000702
754 0 1 -2.705109 -2.424836 25.263000
755 0 1 -3.559988 -2.669776 25.647095
756 0 1 -3.752009 -3.478427 25.180511
757 0 1 -3.997420 -4.143460 25.813995
758 0 1 -3.871868 -3.539603 26.635895
759 0 1 -4.319199 -4.383940 26.722504
760 0 1 -4.518010 -4.218159 27.709503
761 0 1 -4.828450 -3.558940 28.364807
762 0 1 -5.591839 -3.458522 27.902802
763 0 1 -5.380558 -3.164586 26.962891
764 0 1 -5.574229 -3.380772 26.048889
765 0 1 -5.586199 -2.787146 25.331787
766 0 1 -5.467410 -2.838012 24.301300
767 0 1 -6.068289 -2.836337 23.516296
768 0 1 -5.768809 -3.642106 23.109192
769 0 1 -5.526909 -4.329421 22.579010
770 0 1 -4.827069 -4.163201 21.920303
771 0 1 -4.512478 -3.335240 22.415802
772 0 1 -4.702250 -2.627341 21.807098
773 0 1 -4.563979 -3.230407 21.089798
774 0 1 -3.691899 -3.276437 20.586899
775 0 1 -2.776768 -3.496201 20.884598
776 0 1 -2.426520 -2.663602 21.151596
777 0 1 -1.994870 -2.844397 20.212708
778 0 1 -1.203415 -3.284869 19.774704
779 0 1 -0.974383 -2.524237 19.093903
780 0 1 -0.838370 -3.320155 18.618103
781 0 1 -0.603052 -3.930463 17.918304
782 0 1 -0.294045 -4.136870 17.053604
783 0 1 -0.618878 -4.806229 16.377502
784 0 1 -0.613879 -5.522110 15.748504
785 0 1 -1.558836 -5.617430 15.875106
786 0 1 -2.055279 -5.177741 15.146102
787 0 1 -1.508488 -4.436930 14.840499
788 0 1 -0.783066 -3.927651 15.099196
789 0 1 -0.205910 -3.425370 15.643905
790 0 1 -0.281655 -2.571564 15.179900