LAMMPS data file via MDAnalysis

        2000  atoms
        1999  bonds
           0  angles
           0  dihedrals
           0  impropers

           1  atom types
           1  bond types
           0  angle types
           0  dihedral types
           0  improper types

-30.5 30.5 xlo xhi
-30.5 30.5 ylo yhi
-233.5 233.5 zlo zhi


Masses

1 1.000000

Atoms

1 0 1 25.992395 -9.713882 60.793091
2 0 1 25.653994 -9.035032 61.390594
3 0 1 25.046198 -9.552711 61.975708
4 0 1 24.641893 -8.682293 62.355103
5 0 1 24.669596 -7.778023 62.118713
6 0 1 24.348696 -8.072922 61.135895
7 0 1 23.783693 -7.273521 61.114105
8 0 1 24.013395 -7.386383 60.152191
9 0 1 23.952696 -6.796661 59.352600
10 0 1 24.057096 -7.206093 58.469299
11 0 1 24.238894 -7.779821 57.731384
12 0 1 23.510294 -8.058672 57.145386
13 0 1 23.831095 -7.376492 56.583405
14 0 1 22.863695 -7.534111 56.461395
15 0 1 22.807096 -7.441153 55.541504
16 0 1 23.301798 -6.749912 55.048309
17 0 1 23.498095 -7.145472 54.134888
18 0 1 23.205397 -6.989672 53.248596
19 0 1 23.264296 -7.976322 53.152893
20 0 1 23.322596 -8.115332 52.186188
21 0 1 23.618593 -8.160622 51.209106
22 0 1 22.915895 -8.693691 50.866394
23 0 1 22.347395 -8.686192 50.122406
24 0 1 21.446299 -8.726902 49.715210
25 0 1 20.994898 -8.551262 50.548309
26 0 1 20.473295 -7.990952 51.117615
27 0 1 20.106596 -7.743042 50.267517
28 0 1 19.200594 -7.612171 50.647583
29 0 1 18.488596 -7.646103 50.047791
30 0 1 17.677996 -7.297373 49.685913
31 0 1 17.761896 -6.773441 50.454102
32 0 1 18.007395 -7.285412 51.167786
33 0 1 17.630396 -7.968231 51.665802
34 0 1 18.392694 -8.345972 51.252686
35 0 1 17.943296 -8.563313 50.447296
36 0 1 17.205595 -9.149521 50.142303
37 0 1 17.596094 -9.263382 49.306000
38 0 1 17.283197 -8.760712 48.515411
39 0 1 17.815596 -8.043343 48.835693
40 0 1 17.631594 -7.154432 48.580292
41 0 1 17.389894 -6.249102 48.494202
42 0 1 16.621798 -6.778032 48.865784
43 0 1 15.676997 -7.064432 48.968506
44 0 1 15.341899 -7.983393 48.787903
45 0 1 14.500106 -7.706451 49.161987
46 0 1 13.732219 -7.210022 48.775787
47 0 1 14.265605 -6.379742 48.924500
48 0 1 14.026446 -5.351011 49.056793
49 0 1 14.505366 -4.988142 49.840088
50 0 1 14.969195 -4.822851 50.644592
51 0 1 14.010669 -4.933702 50.748993
52 0 1 14.443347 -5.781342 50.943512
53 0 1 13.499568 -5.719261 51.374817
54 0 1 12.870177 -5.085012 51.738800
55 0 1 12.767028 -5.906773 52.288910
56 0 1 12.868617 -5.037312 52.755005
57 0 1 12.844817 -4.189732 53.203796
58 0 1 12.934928 -4.093779 54.225098
59 0 1 13.597095 -3.731661 54.790710
60 0 1 13.074756 -2.939724 54.739594
61 0 1 13.044688 -2.104052 54.356110
62 0 1 12.156898 -2.476980 54.177795
63 0 1 11.578265 -3.173634 54.468903
64 0 1 11.071548 -2.376442 54.805603
65 0 1 11.461806 -1.519524 54.736694
66 0 1 10.750648 -0.859711 54.780487
67 0 1 11.262355 -0.189781 55.273804
68 0 1 11.584037 0.683086 55.662201
69 0 1 10.718757 0.832508 55.357208
70 0 1 10.031978 1.384426 55.696289
71 0 1 9.142688 1.615257 55.897217
72 0 1 9.067298 0.584648 55.615997
73 0 1 8.462226 -0.108654 55.747803
74 0 1 8.191379 0.440758 56.414703
75 0 1 7.378806 0.322109 55.888794
76 0 1 6.712237 -0.208691 55.496307
77 0 1 5.848450 0.081367 55.859589
78 0 1 5.153126 -0.364342 55.178009
79 0 1 4.481293 -0.069782 55.796295
80 0 1 4.153244 -0.324760 56.634094
81 0 1 4.214629 0.613148 56.966797
82 0 1 3.828036 0.214649 57.785706
83 0 1 3.275406 -0.223991 58.410004
84 0 1 3.457877 0.247990 59.289795
85 0 1 3.997258 0.108379 60.140900
86 0 1 4.439122 -0.778751 60.190308
87 0 1 3.785477 -1.374752 59.833893
88 0 1 4.003153 -2.290562 60.315887
89 0 1 3.418057 -2.278322 61.008484
90 0 1 2.997866 -1.496304 61.385986
91 0 1 2.918576 -0.522324 61.490601
92 0 1 3.015496 -0.130993 62.396912
93 0 1 2.531527 -0.217323 63.175507
94 0 1 1.775227 -0.863522 62.973206
95 0 1 0.864367 -0.745403 63.248993
96 0 1 -0.015203 -0.531040 63.694000
97 0 1 -0.960563 -0.116913 63.483612
98 0 1 -0.182283 0.066669 62.850098
99 0 1 -0.831554 -0.288631 62.228088
100 0 1 -0.080514 -0.946251 62.476288
101 0 1 -0.736534 -1.404343 61.956207
102 0 1 -1.581424 -1.119972 62.376099
103 0 1 -2.336963 -1.184952 63.036591
104 0 1 -3.054243 -0.846592 63.655792
105 0 1 -3.801473 -0.348312 63.326202
106 0 1 -4.447994 0.271938 63.681305
107 0 1 -4.327383 0.553829 64.580292
108 0 1 -3.633644 0.797497 65.250793
109 0 1 -4.113363 1.214828 66.012085
110 0 1 -4.706213 0.504559 66.354797
111 0 1 -5.659303 0.793888 66.241302
112 0 1 -5.579805 0.750606 67.256409
113 0 1 -6.408103 1.262836 67.338104
114 0 1 -5.829704 1.362667 68.087189
115 0 1 -5.478004 1.868206 67.320801
116 0 1 -4.756254 2.329678 66.859406
117 0 1 -4.358995 3.207108 66.770905
118 0 1 -4.534044 3.593929 67.596497
119 0 1 -5.046304 4.081547 68.328186
120 0 1 -4.558473 4.657417 68.961395
121 0 1 -3.941864 5.244469 69.377411
122 0 1 -3.943044 6.125217 69.136414
123 0 1 -3.777105 7.042038 69.038300
124 0 1 -4.476484 7.692238 68.982208
125 0 1 -5.007883 8.515438 69.004395
126 0 1 -4.295434 8.940136 69.584808
127 0 1 -3.395124 9.154240 69.723389
128 0 1 -2.890153 9.881737 69.971893
129 0 1 -2.261154 10.058437 70.680298
130 0 1 -1.721183 10.875340 70.919983
131 0 1 -1.831184 11.256336 71.776093
132 0 1 -1.156663 11.997837 71.878784
133 0 1 -0.233564 12.078938 72.140198
134 0 1 -0.377193 11.205238 71.711700
135 0 1 -0.215513 10.965439 70.786407
136 0 1 0.421286 10.255138 70.918304
137 0 1 -0.028293 9.511440 70.633209
138 0 1 -0.025854 8.912037 69.882599
139 0 1 -0.993644 8.955540 69.914795
140 0 1 -0.993114 8.276337 70.709198
141 0 1 -1.155523 7.855938 69.897491
142 0 1 -0.307134 7.516438 70.204285
143 0 1 -0.114904 7.163036 69.328186
144 0 1 -0.613862 6.418098 69.048218
145 0 1 0.131047 5.847668 69.464111
146 0 1 0.451426 6.431950 70.179291
147 0 1 0.738217 5.547409 70.519989
148 0 1 1.470166 4.965698 70.301697
149 0 1 2.096097 5.040279 69.526398
150 0 1 2.676356 4.339458 69.241089
151 0 1 2.882546 3.490967 68.780304
152 0 1 3.900769 3.556229 68.640900
153 0 1 4.735754 3.748917 69.018982
154 0 1 5.576937 4.143356 68.599182
155 0 1 5.743884 4.280617 67.687988
156 0 1 4.975762 3.879539 67.343292
157 0 1 5.134278 3.220688 66.622498
158 0 1 4.279202 3.515747 66.401611
159 0 1 4.235121 4.386047 66.147583
160 0 1 5.119975 4.686558 65.936890
161 0 1 5.074862 3.940048 65.274689
162 0 1 5.175135 3.013817 64.851593
163 0 1 5.602404 2.286480 65.371399
164 0 1 6.299386 2.289646 66.062103
165 0 1 6.577086 1.366459 66.210083
166 0 1 7.169077 1.098846 66.918213
167 0 1 7.768626 0.329140 67.020203
168 0 1 8.002597 -0.556992 66.727783
169 0 1 8.832175 -0.298431 66.975403
170 0 1 8.674987 -0.052174 66.002808
171 0 1 9.158359 -0.777290 65.518311
172 0 1 9.202697 -0.205402 64.760101
173 0 1 9.529696 -0.841641 64.110199
174 0 1 10.202777 -1.559113 63.742889
175 0 1 10.231978 -1.944492 62.871216
176 0 1 10.103976 -2.912695 62.988312
177 0 1 10.825595 -3.568504 62.953186
178 0 1 11.053897 -4.528921 62.924408
179 0 1 10.542605 -4.624811 63.818390
180 0 1 9.650905 -4.540472 63.542908
181 0 1 8.959277 -4.214018 62.909088
182 0 1 8.106635 -3.967018 62.494690
183 0 1 7.521075 -3.654022 61.835999
184 0 1 8.246486 -4.185062 61.397217
185 0 1 7.874926 -4.195997 60.466095
186 0 1 6.961398 -4.038975 60.547913
187 0 1 6.883208 -3.685646 59.643799
188 0 1 7.281138 -4.388506 59.078705
189 0 1 8.073527 -3.769110 58.882904
190 0 1 7.897696 -3.247663 58.094696
191 0 1 8.037917 -3.827221 57.353088
192 0 1 7.390616 -3.892008 56.693695
193 0 1 7.897418 -4.266504 55.924896
194 0 1 7.350047 -4.966572 55.561890
195 0 1 7.893107 -5.733143 56.007812
196 0 1 8.470725 -6.070372 55.272583
197 0 1 7.944346 -6.905712 55.353912
198 0 1 7.233267 -7.241982 54.761108
199 0 1 7.517848 -7.040922 53.886902
200 0 1 7.628058 -6.076931 53.878387
201 0 1 8.519698 -6.231333 53.456909
202 0 1 9.041728 -6.166782 52.707092
203 0 1 9.776076 -6.516903 53.208099
204 0 1 10.614055 -6.337683 53.644897
205 0 1 9.978038 -5.796352 54.014801
206 0 1 9.958018 -5.138222 54.788391
207 0 1 9.632167 -4.461061 55.463989
208 0 1 9.785708 -3.588686 55.221802
209 0 1 9.715365 -2.951069 55.953094
210 0 1 10.482478 -2.378141 56.059998
211 0 1 10.849055 -2.878508 56.817810
212 0 1 10.819587 -2.669127 57.822205
213 0 1 11.636546 -3.181782 57.947906
214 0 1 12.169875 -2.649267 58.561005
215 0 1 12.398955 -2.594511 57.600098
216 0 1 12.074256 -2.486727 56.735809
217 0 1 12.507495 -1.956713 56.111389
218 0 1 12.741305 -1.257912 55.503693
219 0 1 12.758498 -0.255341 55.587708
220 0 1 12.853038 0.299229 54.818390
221 0 1 13.373027 1.044018 55.221802
222 0 1 12.469615 1.312420 55.291107
223 0 1 12.811126 2.162758 55.549103
224 0 1 12.319766 3.004490 55.593689
225 0 1 11.996348 2.587269 54.711090
226 0 1 12.262137 2.310070 53.892517
227 0 1 11.799815 1.393768 53.621704
228 0 1 11.415118 0.868507 52.928802
229 0 1 11.738666 0.230236 52.260101
230 0 1 11.582088 0.376820 51.328094
231 0 1 12.571387 0.450848 51.558411
232 0 1 12.755607 0.503059 50.647491
233 0 1 12.605208 1.414329 50.821594
234 0 1 12.325187 1.708877 49.946106
235 0 1 11.995498 1.171398 49.172913
236 0 1 12.597075 0.356640 49.039001
237 0 1 13.008437 -0.402210 49.556702
238 0 1 12.481048 -1.092831 49.112305
239 0 1 11.544559 -1.363201 49.377411
240 0 1 11.478446 -2.134031 48.795990
241 0 1 11.061168 -2.412455 49.577393
242 0 1 10.318576 -2.756702 50.041290
243 0 1 9.992728 -3.615381 50.279694
244 0 1 9.322368 -3.008148 50.460602
245 0 1 8.832278 -3.873007 50.499390
246 0 1 8.096026 -4.565952 50.489014
247 0 1 7.269236 -4.335810 50.070587
248 0 1 7.280695 -4.779833 49.196716
249 0 1 6.901137 -4.382341 48.372009
250 0 1 6.527525 -5.243822 48.645111
251 0 1 5.913977 -4.962702 48.014893
252 0 1 5.390576 -5.198502 48.813690
253 0 1 4.567584 -5.302282 49.324799
254 0 1 3.708867 -5.735611 49.060211
255 0 1 3.020207 -5.224102 49.442596
256 0 1 3.101946 -4.522232 48.722900
257 0 1 3.531117 -4.936993 48.014801
258 0 1 4.186591 -4.341957 48.420807
259 0 1 5.015696 -3.899546 48.348602
260 0 1 4.471209 -3.079802 48.535706
261 0 1 4.501088 -2.394583 47.852905
262 0 1 3.877406 -2.003342 48.472809
263 0 1 3.138037 -2.554707 48.488190
264 0 1 2.759997 -3.367903 48.002686
265 0 1 2.792336 -3.119116 47.007904
266 0 1 2.578726 -2.230291 47.297913
267 0 1 1.866597 -1.742821 47.779205
268 0 1 2.049336 -0.968552 47.166016
269 0 1 1.208277 -0.636761 46.851990
270 0 1 0.490347 -0.126732 47.117401
271 0 1 1.156336 0.226170 47.764801
272 0 1 0.579047 0.496536 48.511200
273 0 1 1.027936 1.245788 48.199707
274 0 1 0.654425 1.487636 47.377014
275 0 1 1.048747 2.125717 46.700592
276 0 1 0.645926 2.729519 45.997498
277 0 1 0.407046 3.119579 45.093811
278 0 1 0.725737 3.767368 45.750092
279 0 1 1.158446 4.554810 46.249908
280 0 1 1.062806 5.372978 46.772308
281 0 1 0.210076 5.777508 46.566101
282 0 1 0.214837 5.423717 45.662201
283 0 1 1.204707 5.574200 45.515594
284 0 1 2.098866 5.971428 45.655792
285 0 1 2.961176 6.164730 45.303009
286 0 1 3.663716 5.398418 45.107910
287 0 1 3.434466 5.186188 44.220703
288 0 1 2.641087 5.687298 44.049194
289 0 1 1.894177 5.021088 44.067688
290 0 1 1.618117 4.034977 43.832703
291 0 1 1.775446 4.103439 42.904602
292 0 1 1.739777 3.157799 43.039307
293 0 1 1.856905 2.226517 43.289185
294 0 1 0.962397 1.925068 43.759003
295 0 1 0.066567 1.935497 43.918701
296 0 1 -0.623973 2.614517 44.049713
297 0 1 -0.818023 3.272396 43.417603
298 0 1 -1.454343 2.622707 43.143402
299 0 1 -2.071714 3.280518 42.605804
300 0 1 -1.539974 3.954468 42.915009
301 0 1 -0.701845 4.456936 43.034210
302 0 1 -0.158243 4.996326 42.391113
303 0 1 -0.287303 5.944878 42.612488
304 0 1 -0.658243 5.689137 41.794098
305 0 1 -0.510543 5.346008 40.920197
306 0 1 0.202736 4.779057 40.824585
307 0 1 0.021925 4.494209 39.908691
308 0 1 -0.350303 3.615368 39.805389
309 0 1 -1.219965 3.245556 39.714203
310 0 1 -2.041183 3.740696 39.780701
311 0 1 -2.991603 3.423447 39.770386
312 0 1 -3.271013 4.087498 39.107788
313 0 1 -2.573293 4.774109 39.054199
314 0 1 -1.668254 4.781338 38.753601
315 0 1 -1.047445 5.278210 38.174194
316 0 1 -1.632064 5.740047 37.619110
317 0 1 -2.523855 5.585728 37.316895
318 0 1 -2.189033 5.926487 36.488800
319 0 1 -2.043245 6.337826 35.613190
320 0 1 -2.217313 6.275627 34.666199
321 0 1 -2.430904 7.221340 34.834595
322 0 1 -2.037494 8.048637 34.385986
323 0 1 -1.179523 8.010437 34.800995
324 0 1 -0.446063 8.761337 34.645813
325 0 1 -0.909193 9.609936 34.665405
326 0 1 -0.494085 10.285038 34.045105
327 0 1 -0.733915 9.559837 33.494904
328 0 1 -1.616373 9.210838 33.897797
329 0 1 -2.083684 9.380238 33.118805
330 0 1 -1.654073 8.752537 32.507111
331 0 1 -1.067663 7.963436 32.530396
332 0 1 -0.568103 7.801136 33.292297
333 0 1 -0.105434 8.574039 33.024506
334 0 1 0.410407 9.044537 32.430786
335 0 1 0.719065 10.003738 32.584595
336 0 1 1.701186 10.026337 32.730011
337 0 1 1.513136 10.491138 31.905396
338 0 1 1.953047 9.650738 31.669708
339 0 1 1.504706 10.020840 30.809387
340 0 1 1.707316 10.031437 29.898010
341 0 1 2.510586 9.483337 29.775085
342 0 1 1.917527 8.881439 29.456116
343 0 1 2.162245 7.990639 29.802094
344 0 1 2.074147 8.298138 30.671906
345 0 1 1.603537 8.430939 31.515411
346 0 1 1.086817 7.678139 31.443695
347 0 1 0.965886 7.025639 30.705597
348 0 1 1.487347 6.493217 30.095398
349 0 1 1.854546 6.801537 29.179413
350 0 1 2.499485 6.202747 29.566284
351 0 1 3.270855 6.625839 29.228302
352 0 1 4.083624 6.623238 28.567200
353 0 1 4.214808 7.029839 27.740997
354 0 1 5.038813 6.529369 27.704498
355 0 1 5.156367 6.822739 26.802002
356 0 1 4.598744 7.435337 26.299896
357 0 1 4.275414 7.831139 27.127594
358 0 1 3.593306 8.476139 27.425690
359 0 1 3.526387 9.347340 26.875214
360 0 1 2.868046 9.988937 26.989685
361 0 1 1.997746 10.225140 27.349304
362 0 1 2.061276 10.374237 26.375488
363 0 1 2.882617 10.696537 26.047913
364 0 1 3.447546 11.058838 25.402313
365 0 1 2.775927 11.113438 24.731995
366 0 1 1.939587 10.667839 24.740814
367 0 1 2.234076 10.310337 23.834991
368 0 1 2.110236 9.385437 24.079590
369 0 1 2.763365 8.698238 24.245514
370 0 1 1.929047 8.335938 24.688293
371 0 1 2.400366 7.519436 24.792694
372 0 1 3.326537 7.808537 25.072815
373 0 1 4.038853 7.266636 25.433014
374 0 1 3.338107 6.527809 25.499603
375 0 1 2.463717 6.221996 25.265686
376 0 1 1.599017 6.057617 25.599091
377 0 1 0.942786 6.444088 26.186005
378 0 1 1.127976 6.486588 27.139191
379 0 1 1.123587 5.493710 26.899200
380 0 1 0.571187 4.672047 26.941986
381 0 1 1.079966 4.822788 26.140198
382 0 1 1.782786 4.314869 26.600891
383 0 1 1.729607 3.897987 25.721008
384 0 1 1.574887 3.218479 24.917694
385 0 1 1.177916 2.468197 24.458496
386 0 1 2.098776 2.154507 24.569489
387 0 1 2.774577 2.528736 23.974792
388 0 1 3.494366 2.441818 23.357300
389 0 1 4.239680 1.997379 22.910706
390 0 1 4.759285 1.181827 23.141113
391 0 1 5.137883 0.427509 23.650696
392 0 1 4.599541 -0.369694 23.664612
393 0 1 4.607691 -0.197521 22.778198
394 0 1 4.946162 -0.658741 21.965103
395 0 1 4.221009 -1.113911 21.523407
396 0 1 3.994444 -1.972862 21.878494
397 0 1 3.516636 -1.354714 22.409897
398 0 1 3.950696 -1.299332 23.262695
399 0 1 3.768237 -2.233232 23.253784
400 0 1 3.130406 -2.897177 22.885895
401 0 1 2.213326 -2.708750 22.639893
402 0 1 1.728377 -3.534704 22.662994
403 0 1 0.834277 -4.000484 22.737213
404 0 1 0.936856 -3.613771 23.587402
405 0 1 0.483637 -4.165400 24.150085
406 0 1 -0.153514 -4.666653 23.635803
407 0 1 -0.275674 -5.428282 24.240112
408 0 1 -0.166704 -6.231392 24.690491
409 0 1 -0.976123 -6.523493 25.093384
410 0 1 -1.541324 -6.852041 25.748291
411 0 1 -0.932094 -7.110172 26.535614
412 0 1 -0.204383 -6.545322 26.720490
413 0 1 0.534976 -7.153881 26.745514
414 0 1 0.582846 -7.732912 26.016388
415 0 1 0.662257 -8.632732 26.345398
416 0 1 0.898657 -9.183773 25.533813
417 0 1 1.257756 -10.041382 25.145508
418 0 1 1.273167 -10.164242 24.139099
419 0 1 0.408026 -10.503511 24.430206
420 0 1 0.069327 -10.933601 25.277496
421 0 1 0.156107 -11.779011 25.661987
422 0 1 0.607827 -11.281521 26.355988
423 0 1 1.522557 -11.238003 26.067688
424 0 1 1.968606 -11.500082 25.251099
425 0 1 2.387257 -12.326221 24.992004
426 0 1 2.902747 -12.906261 24.377106
427 0 1 3.150856 -13.453762 25.187195
428 0 1 3.511937 -13.853262 25.974091
429 0 1 3.222926 -13.604162 26.845398
430 0 1 3.821286 -13.530861 27.607086
431 0 1 3.766346 -13.724361 28.582611
432 0 1 4.545121 -14.298462 28.231110
433 0 1 4.817513 -13.363552 28.375305
434 0 1 5.571908 -13.976562 28.346985
435 0 1 5.948937 -13.401161 27.673584
436 0 1 5.975577 -12.677092 27.099701
437 0 1 6.428286 -12.708382 26.279694
438 0 1 5.461020 -12.808762 26.081696
439 0 1 5.209067 -13.675262 26.571686
440 0 1 6.112486 -14.087563 26.604004
441 0 1 5.834237 -14.732563 27.294312
442 0 1 5.490632 -14.946461 28.171906
443 0 1 5.859026 -15.546963 28.867493
444 0 1 6.392207 -16.299162 28.481201
445 0 1 6.336007 -17.201962 28.767792
446 0 1 7.216288 -17.009062 29.094788
447 0 1 7.251956 -17.783262 28.536896
448 0 1 7.481947 -18.179062 29.494110
449 0 1 7.338328 -17.435963 29.993103
450 0 1 7.999487 -16.904762 30.529388
451 0 1 7.393126 -17.019262 31.287903
452 0 1 6.630747 -16.491661 30.870300
453 0 1 7.033366 -15.687862 31.235992
454 0 1 7.549696 -14.803463 31.024994
455 0 1 8.462657 -14.703861 30.819794
456 0 1 9.169906 -14.808563 31.437988
457 0 1 9.433356 -15.730162 31.153595
458 0 1 10.381766 -15.368662 30.959106
459 0 1 10.629676 -14.468361 30.572205
460 0 1 11.182418 -14.204462 31.335999
461 0 1 11.434245 -13.337992 31.097107
462 0 1 11.808848 -13.663361 30.212708
463 0 1 11.377135 -14.139263 29.517090
464 0 1 11.356818 -14.996962 29.044312
465 0 1 11.038947 -15.939962 29.009399
466 0 1 11.472777 -15.863663 28.188690
467 0 1 10.933879 -16.032261 27.425598
468 0 1 10.245608 -16.606562 27.875916
469 0 1 10.338336 -17.563263 27.824493
470 0 1 11.260947 -17.663761 28.055695
471 0 1 11.499217 -17.855162 29.005493
472 0 1 12.134215 -18.524563 28.714813
473 0 1 11.771827 -19.353563 29.142212
474 0 1 10.940097 -19.683962 29.591705
475 0 1 10.878238 -20.625862 29.695984
476 0 1 11.701865 -20.150763 30.067413
477 0 1 12.561648 -20.461863 30.101501
478 0 1 12.905108 -20.487263 29.178711
479 0 1 13.341918 -19.634163 28.868896
480 0 1 14.158748 -19.661362 28.341797
481 0 1 13.692096 -19.446762 27.468994
482 0 1 14.407256 -18.802862 27.549286
483 0 1 14.237597 -18.331663 26.718292
484 0 1 13.753055 -17.838562 25.965515
485 0 1 13.365008 -18.060862 25.086304
486 0 1 12.620036 -17.445662 25.118408
487 0 1 12.777629 -17.074661 24.209808
488 0 1 12.137366 -17.674562 23.758698
489 0 1 12.357738 -18.498463 23.394501
490 0 1 13.128207 -18.994362 23.338013
491 0 1 13.314437 -19.444862 24.150787
492 0 1 13.292068 -19.336363 25.148010
493 0 1 13.285056 -20.248262 24.797699
494 0 1 14.234626 -20.064463 24.606293
495 0 1 14.380397 -19.195963 24.290405
496 0 1 15.117797 -19.215063 23.734009
497 0 1 15.931697 -19.256563 23.219208
498 0 1 15.728396 -18.318363 22.784485
499 0 1 15.643096 -18.854963 21.999405
500 0 1 16.109697 -19.698462 22.046600
501 0 1 15.819995 -20.470263 21.534195
502 0 1 15.678195 -21.125662 20.776505
503 0 1 15.082496 -20.699362 20.162201
504 0 1 15.811397 -20.083662 20.195007
505 0 1 15.332797 -19.319363 19.850296
506 0 1 14.666545 -19.507162 19.191696
507 0 1 14.829417 -18.631863 18.903992
508 0 1 14.244548 -19.049263 18.207397
509 0 1 13.543788 -18.413763 18.530792
510 0 1 13.840297 -18.373663 19.413803
511 0 1 14.248507 -17.555262 19.636795
512 0 1 13.577159 -16.868763 19.810898
513 0 1 12.571536 -16.677761 19.927902
514 0 1 11.627757 -16.587463 19.786102
515 0 1 11.357966 -17.293163 19.231598
516 0 1 10.879298 -17.212563 18.456802
517 0 1 10.085559 -16.673662 18.163803
518 0 1 10.345588 -15.787663 18.152298
519 0 1 9.880988 -15.984062 17.297501
520 0 1 10.177737 -15.301062 16.512497
521 0 1 10.293105 -14.668762 15.810394
522 0 1 9.886485 -13.800362 15.692093
523 0 1 9.031497 -13.680162 15.332794
524 0 1 8.700118 -13.367233 16.197998
525 0 1 8.257045 -12.550301 16.094299
526 0 1 7.758288 -12.476883 15.203094
527 0 1 8.284457 -12.853981 14.520096
528 0 1 8.161925 -13.174553 13.566406
529 0 1 8.218638 -12.857563 12.702698
530 0 1 8.040149 -12.219391 13.375305
531 0 1 8.066417 -11.474762 12.845001
532 0 1 7.723025 -11.381992 11.916901
533 0 1 8.529407 -11.421822 11.510605
534 0 1 9.394668 -11.168602 11.801193
535 0 1 9.312446 -10.292452 12.197495
536 0 1 9.442798 -9.455353 12.665497
537 0 1 8.618068 -9.175362 13.016403
538 0 1 7.660815 -9.150051 13.139496
539 0 1 7.049017 -9.314272 12.450500
540 0 1 6.362795 -8.868452 12.773499
541 0 1 6.357016 -8.815332 13.704895
542 0 1 6.978796 -8.901262 14.416397
543 0 1 6.948885 -9.230202 15.258194
544 0 1 6.003047 -9.181063 15.036896
545 0 1 5.292050 -9.765352 15.165894
546 0 1 5.357096 -10.705101 14.917603
547 0 1 5.481623 -11.415913 15.606903
548 0 1 5.326109 -12.300621 15.523499
549 0 1 5.356707 -12.869751 14.784103
550 0 1 5.163682 -12.960823 13.809692
551 0 1 4.901289 -12.055931 13.474899
552 0 1 4.089804 -11.653072 13.769897
553 0 1 3.937609 -12.419022 13.238007
554 0 1 4.374218 -13.078922 12.638901
555 0 1 3.831736 -13.087702 11.856506
556 0 1 2.893996 -12.928753 11.944000
557 0 1 2.613085 -13.394901 11.132904
558 0 1 1.770176 -13.825661 11.460098
559 0 1 1.257166 -12.995991 11.382507
560 0 1 0.663275 -13.187252 10.651794
561 0 1 1.255236 -13.797962 10.120193
562 0 1 0.296237 -14.070263 9.895355
563 0 1 -0.471963 -13.567562 9.573593
564 0 1 -1.346544 -13.528763 9.129013
565 0 1 -2.260204 -13.205303 9.110092
566 0 1 -2.161165 -12.225151 8.979767
567 0 1 -1.463403 -11.815832 9.544708
568 0 1 -0.696674 -11.310062 9.893784
569 0 1 0.233016 -11.472443 9.926407
570 0 1 0.651066 -11.877792 9.010574
571 0 1 0.723256 -12.293192 8.140488
572 0 1 1.016226 -13.031942 7.593963
573 0 1 1.316426 -13.816963 8.109833
574 0 1 0.868167 -14.607563 7.805297
575 0 1 0.238816 -14.752861 8.506348
576 0 1 0.202866 -15.551262 7.936492
577 0 1 0.817877 -16.240261 8.198746
578 0 1 1.139527 -15.528961 8.702972
579 0 1 1.290785 -16.339161 9.193649
580 0 1 2.018267 -16.338562 9.787537
581 0 1 2.177346 -17.278862 9.620590
582 0 1 2.049666 -17.536663 8.736801
583 0 1 2.599057 -18.197863 9.175446
584 0 1 2.627257 -19.141462 8.817856
585 0 1 1.933566 -19.665562 8.309616
586 0 1 1.076556 -19.657362 8.673828
587 0 1 0.311436 -19.217463 8.184830
588 0 1 0.099227 -18.380962 8.694000
589 0 1 0.017037 -17.456661 8.555176
590 0 1 -0.857423 -17.935263 8.682495
591 0 1 -0.595193 -17.633663 9.588776
592 0 1 -1.335224 -18.242462 9.860382
593 0 1 -1.541463 -18.717863 10.709000
594 0 1 -0.882013 -19.355463 11.118607
595 0 1 -0.715003 -19.906363 10.310394
596 0 1 -1.163753 -19.955063 9.467010
597 0 1 -1.877174 -20.469763 9.823624
598 0 1 -1.973384 -21.323162 10.359802
599 0 1 -1.251113 -21.394161 10.994507
600 0 1 -1.990993 -21.746462 11.421097
601 0 1 -2.332214 -22.512562 11.872406
602 0 1 -2.272413 -23.339762 12.263092
603 0 1 -2.021623 -24.193663 11.875504
604 0 1 -1.463464 -23.903162 11.178299
605 0 1 -0.955144 -23.872263 11.980804
606 0 1 -0.674983 -23.266863 12.748993
607 0 1 -1.234785 -22.852161 13.395203
608 0 1 -0.548284 -22.261662 12.919907
609 0 1 -1.161973 -21.809162 12.335297
610 0 1 -1.172084 -20.909561 11.970795
611 0 1 -1.550073 -20.032362 11.931793
612 0 1 -1.544645 -19.046862 11.970001
613 0 1 -2.315364 -18.700863 12.401505
614 0 1 -2.607164 -18.069862 12.992294
615 0 1 -3.088495 -18.151163 13.806900
616 0 1 -3.684703 -17.453663 13.755096
617 0 1 -3.301115 -16.845762 13.045395
618 0 1 -3.363584 -15.937162 13.164795
619 0 1 -3.566774 -15.890762 14.135803
620 0 1 -3.714143 -16.680962 14.666794
621 0 1 -4.501964 -16.292961 15.010803
622 0 1 -5.394403 -16.051163 14.853302
623 0 1 -5.334804 -15.377762 14.208099
624 0 1 -5.461303 -15.320461 13.242401
625 0 1 -6.359104 -15.391062 13.585297
626 0 1 -6.800203 -15.686962 14.364807
627 0 1 -6.470403 -16.604961 14.529999
628 0 1 -6.221004 -16.521961 15.413208
629 0 1 -5.958803 -16.812262 16.302994
630 0 1 -6.868204 -16.811161 16.602905
631 0 1 -7.033803 -16.271263 17.436005
632 0 1 -8.007504 -16.451962 17.532898
633 0 1 -8.450803 -16.702263 16.676895
634 0 1 -9.211602 -16.214962 17.126404
635 0 1 -9.996103 -15.914463 16.749603
636 0 1 -10.465603 -16.780861 16.802597
637 0 1 -9.932003 -17.525963 16.555908
638 0 1 -9.468404 -18.237862 16.975708
639 0 1 -9.027303 -18.977362 16.630997
640 0 1 -9.386304 -19.487762 15.934799
641 0 1 -8.944404 -20.251661 15.593903
642 0 1 -8.172303 -20.428062 14.995102
643 0 1 -8.604302 -21.067362 14.332703
644 0 1 -8.964204 -21.640362 13.585999
645 0 1 -9.227002 -21.482662 12.693497
646 0 1 -9.965003 -20.981762 13.113907
647 0 1 -10.268804 -20.986662 12.194794
648 0 1 -10.811903 -20.275063 12.735596
649 0 1 -11.666102 -20.059862 12.476593
650 0 1 -11.720304 -19.121563 12.652603
651 0 1 -11.585504 -18.183962 12.534897
652 0 1 -11.900304 -17.756863 11.736099
653 0 1 -11.431304 -17.059362 11.161804
654 0 1 -12.203004 -16.865162 10.636795
655 0 1 -12.711404 -16.350462 11.270599
656 0 1 -12.724103 -16.551563 12.205200
657 0 1 -12.260102 -15.827162 12.718002
658 0 1 -12.481904 -16.080162 13.633194
659 0 1 -12.990304 -16.011662 14.461105
660 0 1 -13.387902 -15.485363 13.751404
661 0 1 -13.995204 -15.480362 14.432007
662 0 1 -14.350604 -14.618061 15.011093
663 0 1 -15.155204 -14.883362 14.663300
664 0 1 -14.688603 -14.390961 13.942993
665 0 1 -15.538804 -14.391062 13.386902
666 0 1 -16.214304 -14.630161 12.730408
667 0 1 -15.540504 -14.393063 12.056000
668 0 1 -15.562003 -13.676861 11.397598
669 0 1 -15.390603 -13.476162 10.497696
670 0 1 -15.180802 -13.808662 9.602966
671 0 1 -14.451503 -13.768661 8.926392
672 0 1 -14.063903 -14.591061 8.784515
673 0 1 -13.436204 -13.898361 8.588196
674 0 1 -12.427604 -13.913063 8.765091
675 0 1 -12.263404 -13.123592 8.180481
676 0 1 -11.447602 -13.595963 8.207642
677 0 1 -10.573503 -13.767862 8.510818
678 0 1 -10.415703 -13.214422 9.247360
679 0 1 -10.340803 -12.592773 8.512436
680 0 1 -9.388003 -12.745472 8.626053
681 0 1 -9.109902 -13.667961 8.617447
682 0 1 -8.247304 -13.255821 8.438950
683 0 1 -7.326704 -13.057293 8.147736
684 0 1 -6.580305 -13.448063 8.647949
685 0 1 -6.977003 -13.885963 9.460968
686 0 1 -7.585804 -13.858761 10.233994
687 0 1 -8.243505 -13.999161 10.931595
688 0 1 -8.789002 -14.096262 11.746704
689 0 1 -8.283504 -14.886261 11.531708
690 0 1 -8.994103 -15.404461 11.968506
691 0 1 -8.517404 -16.097662 11.407593
692 0 1 -8.497304 -16.851862 10.783096
693 0 1 -9.083703 -17.380463 11.291901
694 0 1 -9.210103 -18.327063 11.542801
695 0 1 -8.277604 -18.480263 11.477997
696 0 1 -8.173503 -17.944662 10.676300
697 0 1 -7.829805 -18.318363 9.880844
698 0 1 -8.070403 -19.180662 10.199997
699 0 1 -7.253503 -19.224163 9.788620
700 0 1 -6.935304 -20.099663 9.667892
701 0 1 -6.168804 -20.138462 9.113327
702 0 1 -5.435104 -20.095463 8.518936
703 0 1 -5.085174 -20.172762 7.656066
704 0 1 -5.210304 -20.077263 6.674591
705 0 1 -6.049505 -19.862461 7.194885
706 0 1 -6.522104 -19.509863 7.974319
707 0 1 -6.766904 -19.062063 7.148849
708 0 1 -7.779304 -19.163963 7.105545
709 0 1 -8.723504 -19.209162 6.862823
710 0 1 -8.970204 -18.727463 6.153381
711 0 1 -8.335303 -18.267563 5.555053
712 0 1 -8.164804 -17.388662 5.285919
713 0 1 -8.344403 -16.839462 4.596023
714 0 1 -7.767503 -17.660961 4.287963
715 0 1 -6.960504 -17.175262 4.549224
716 0 1 -6.291402 -17.571663 3.982147
717 0 1 -7.050603 -17.851463 3.380264
718 0 1 -6.714403 -17.388262 2.649338
719 0 1 -7.466505 -16.912762 2.193374
720 0 1 -8.287602 -17.266163 1.867889
721 0 1 -8.872502 -16.989063 1.238464
722 0 1 -9.776603 -17.224361 1.333603
723 0 1 -10.617003 -17.159363 0.890274
724 0 1 -10.940303 -16.332262 1.418014
725 0 1 -10.645503 -15.406862 1.518783
726 0 1 -11.406104 -15.107962 2.003311
727 0 1 -10.729903 -14.947163 2.663620
728 0 1 -11.036803 -14.008062 2.591018
729 0 1 -10.732803 -13.361532 1.951202
730 0 1 -11.388404 -13.503162 1.187103
731 0 1 -11.710402 -14.412163 1.369613
732 0 1 -11.539104 -14.739162 0.501175
733 0 1 -11.239102 -14.807762 -0.462189
734 0 1 -10.445004 -15.287361 -0.201157
735 0 1 -10.357103 -14.655062 0.492157
736 0 1 -9.579003 -14.542461 -0.018845
737 0 1 -10.241603 -13.904461 -0.450714
738 0 1 -10.665403 -13.020901 -0.616257
739 0 1 -10.743203 -12.914383 0.352691
740 0 1 -10.936704 -11.963741 0.162903
741 0 1 -11.294103 -11.051191 -0.189469
742 0 1 -10.492003 -10.830812 -0.739563
743 0 1 -10.116303 -10.742083 -1.638245
744 0 1 -9.914204 -11.343822 -2.386994
745 0 1 -9.491204 -12.258102 -2.387528
746 0 1 -9.444003 -12.708502 -3.188294
747 0 1 -10.441303 -12.809872 -3.229706
748 0 1 -10.516903 -13.813562 -3.307450
749 0 1 -11.174903 -13.986763 -2.616272
750 0 1 -11.993403 -13.606062 -2.741684
751 0 1 -12.687604 -13.151482 -3.165116
752 0 1 -12.308003 -12.450752 -3.682953
753 0 1 -12.654704 -11.728222 -4.166733
754 0 1 -12.740304 -11.851971 -5.100449
755 0 1 -12.262004 -11.037022 -5.102417
756 0 1 -11.570903 -10.827372 -5.737290
757 0 1 -10.619303 -10.997732 -5.732163
758 0 1 -9.886903 -10.343752 -5.426514
759 0 1 -9.257504 -9.715693 -4.866990
760 0 1 -8.793702 -10.376263 -4.224534
761 0 1 -8.302503 -10.361032 -5.063752
762 0 1 -8.138803 -10.343632 -6.037858
763 0 1 -7.363203 -10.845633 -5.674057
764 0 1 -6.687004 -10.252071 -5.222718
765 0 1 -7.180704 -9.601723 -5.743943
766 0 1 -7.350503 -9.365932 -6.660447
767 0 1 -7.605505 -10.094862 -7.218384
768 0 1 -7.677204 -9.312561 -7.868897
769 0 1 -6.781003 -9.072292 -7.984910
770 0 1 -6.115804 -9.712912 -8.161301
771 0 1 -5.710405 -9.228472 -8.869034
772 0 1 -5.020013 -8.887611 -8.224426
773 0 1 -4.548643 -8.440571 -8.904831
774 0 1 -4.487224 -8.916973 -9.688583
775 0 1 -4.731464 -8.360743 -10.415695
776 0 1 -4.136154 -7.885592 -10.970993
777 0 1 -3.870325 -7.182972 -10.258606
778 0 1 -3.968664 -6.468832 -10.937302
779 0 1 -3.799274 -5.504211 -10.883896
780 0 1 -3.542875 -4.725761 -10.417297
781 0 1 -3.107664 -4.274458 -11.198395
782 0 1 -3.963735 -4.463531 -11.708603
783 0 1 -3.479475 -4.657492 -12.497101
784 0 1 -2.852174 -5.368652 -12.799896
785 0 1 -2.342704 -5.534323 -13.632004
786 0 1 -2.786085 -6.103891 -14.352798
787 0 1 -2.358884 -5.290232 -14.754196