LAMMPS data file via MDAnalysis

        2000  atoms
        1999  bonds
           0  angles
           0  dihedrals
           0  impropers

           1  atom types
           1  bond types
           0  angle types
           0  dihedral types
           0  improper types

-30.5 30.5 xlo xhi
-30.5 30.5 ylo yhi
-233.5 233.5 zlo zhi


Masses

1 1.000000

Atoms

1 0 1 1.220041 18.694700 7.480225
2 0 1 1.150928 18.707201 8.455048
3 0 1 2.015301 18.780199 8.927582
4 0 1 1.619616 18.350599 9.717682
5 0 1 0.824829 18.632700 9.969025
6 0 1 0.185806 18.677900 9.241089
7 0 1 -0.759457 18.893801 9.057419
8 0 1 -0.264296 19.530600 9.659027
9 0 1 0.546520 19.714800 10.175400
10 0 1 1.415037 20.095598 9.851547
11 0 1 1.207294 21.090998 9.859741
12 0 1 1.614489 21.642500 9.176453
13 0 1 2.345154 21.777800 9.833633
14 0 1 2.034468 21.110598 10.520004
15 0 1 2.391943 20.949198 11.363007
16 0 1 3.033163 20.332201 11.059906
17 0 1 3.582743 20.631601 11.774002
18 0 1 4.079462 21.346903 12.229904
19 0 1 4.725534 20.750902 12.533600
20 0 1 4.481104 19.847300 12.432205
21 0 1 3.593134 19.851603 12.652008
22 0 1 2.784182 20.211000 12.874802
23 0 1 1.863380 20.256800 12.893005
24 0 1 0.975897 20.479799 13.161407
25 0 1 1.003521 20.757799 14.053802
26 0 1 1.072382 19.908998 14.413300
27 0 1 1.711424 19.555902 15.006607
28 0 1 1.478537 20.015802 15.883804
29 0 1 2.313454 20.370001 15.426300
30 0 1 2.619513 19.773699 16.169205
31 0 1 2.393805 19.018801 16.756699
32 0 1 3.297255 19.279398 16.952301
33 0 1 3.595003 18.483202 17.453003
34 0 1 3.217302 19.142500 18.033905
35 0 1 3.841112 19.243200 18.795197
36 0 1 3.634542 20.002600 19.336594
37 0 1 4.009085 20.441698 20.085999
38 0 1 3.418093 21.077402 20.487396
39 0 1 2.433424 21.124903 20.552399
40 0 1 2.441923 21.457598 21.477295
41 0 1 2.720774 21.749598 22.322495
42 0 1 3.424662 21.732100 22.943390
43 0 1 2.803244 22.330999 23.245087
44 0 1 2.245134 23.055799 23.345490
45 0 1 1.865694 22.751699 24.158600
46 0 1 1.140684 23.333799 24.519287
47 0 1 0.351185 23.580599 24.095612
48 0 1 -0.434967 24.163599 24.082001
49 0 1 -0.039896 24.541002 24.896393
50 0 1 -0.286966 24.893000 25.821198
51 0 1 -1.162527 24.660101 26.047699
52 0 1 -1.954176 24.323500 25.551300
53 0 1 -2.195726 23.664202 26.218201
54 0 1 -1.705156 22.868101 25.956787
55 0 1 -1.881046 22.091700 25.348999
56 0 1 -2.311327 21.236101 25.029510
57 0 1 -2.239647 20.896997 24.171600
58 0 1 -3.179895 20.779902 24.386688
59 0 1 -3.199366 19.745001 24.391785
60 0 1 -3.765717 19.135599 24.869995
61 0 1 -4.304316 19.756403 24.393005
62 0 1 -5.150776 19.519999 24.076202
63 0 1 -5.796717 18.853201 23.876312
64 0 1 -5.952646 19.388498 23.088287
65 0 1 -6.795967 18.872000 23.060394
66 0 1 -7.438517 18.470598 23.742401
67 0 1 -7.427776 17.495302 23.504395
68 0 1 -8.014027 16.846399 23.031189
69 0 1 -8.073366 15.926001 23.384308
70 0 1 -8.500607 15.106401 23.613800
71 0 1 -9.396505 15.337198 23.431000
72 0 1 -9.023006 14.486300 23.063690
73 0 1 -9.862606 13.988802 23.245697
74 0 1 -10.222807 14.538401 22.488098
75 0 1 -10.843206 15.285501 22.413696
76 0 1 -10.524206 15.744600 23.135895
77 0 1 -10.910208 15.060900 23.596802
78 0 1 -11.824705 14.874399 23.734711
79 0 1 -12.543007 15.381102 24.271790
80 0 1 -12.480707 16.258001 23.913910
81 0 1 -12.143106 17.139902 23.609497
82 0 1 -11.304207 17.617098 23.673004
83 0 1 -11.180407 17.812601 22.731384
84 0 1 -11.421007 17.712400 21.761597
85 0 1 -12.233206 18.139803 21.652695
86 0 1 -12.201607 17.559603 20.905594
87 0 1 -12.703506 17.511400 20.029800
88 0 1 -12.923206 16.630899 20.184906
89 0 1 -13.169107 15.682299 19.870193
90 0 1 -13.144606 14.767199 20.096207
91 0 1 -12.389505 14.305902 20.479492
92 0 1 -13.081408 14.068602 21.058502
93 0 1 -13.077906 13.131102 21.231094
94 0 1 -12.528708 12.465700 20.752197
95 0 1 -11.997307 11.721399 21.036896
96 0 1 -11.677206 11.894800 20.128998
97 0 1 -11.027308 11.217600 20.576599
98 0 1 -10.061506 11.029699 20.370697
99 0 1 -10.585905 10.252119 20.728806
100 0 1 -10.114906 9.468260 20.847992
101 0 1 -10.571806 8.599180 21.019104
102 0 1 -10.228207 7.757230 20.683197
103 0 1 -10.553705 7.417440 21.483795
104 0 1 -11.190706 7.157129 20.827698
105 0 1 -10.749807 6.851320 20.004303
106 0 1 -10.661905 5.992090 20.429504
107 0 1 -9.835405 6.028829 21.004196
108 0 1 -9.385406 6.356950 20.212601
109 0 1 -8.424875 6.463579 19.923203
110 0 1 -8.794256 6.425821 19.005997
111 0 1 -9.039106 7.332021 18.865295
112 0 1 -9.700808 7.970918 18.428696
113 0 1 -9.850906 8.474890 17.572006
114 0 1 -8.936655 8.683710 17.583008
115 0 1 -8.186975 9.040682 18.087402
116 0 1 -7.773405 8.743952 17.234497
117 0 1 -6.955877 9.059031 17.689392
118 0 1 -7.298956 8.178061 17.914200
119 0 1 -6.861887 8.301802 18.756592
120 0 1 -6.548807 7.404558 18.761703
121 0 1 -7.011517 6.744859 18.234192
122 0 1 -7.049616 5.802969 18.200104
123 0 1 -6.181507 5.828321 18.695099
124 0 1 -5.753277 6.664468 18.741196
125 0 1 -5.401957 7.544229 18.481796
126 0 1 -6.055796 7.751298 17.683899
127 0 1 -6.599356 7.204839 17.169495
128 0 1 -7.033377 7.883451 16.743896
129 0 1 -6.914516 8.067392 15.834503
130 0 1 -6.548086 7.200750 15.868896
131 0 1 -6.671106 7.342191 14.960495
132 0 1 -7.524927 6.929468 15.131104
133 0 1 -8.214256 6.352811 14.970093
134 0 1 -9.170206 6.111478 15.055695
135 0 1 -9.219007 5.151788 15.077194
136 0 1 -9.579206 4.263658 15.187302
137 0 1 -10.194506 4.546510 15.857697
138 0 1 -11.020105 4.786798 16.380798
139 0 1 -11.300306 4.376260 15.608505
140 0 1 -10.901106 4.383531 14.724106
141 0 1 -11.855507 4.404138 14.534393
142 0 1 -12.546507 4.636789 15.095001
143 0 1 -12.879606 5.526681 15.336395
144 0 1 -12.873106 6.529878 15.198898
145 0 1 -13.034407 7.223848 14.600998
146 0 1 -12.970606 7.638509 15.436996
147 0 1 -13.929107 7.606088 15.725601
148 0 1 -13.898807 7.409910 16.651306
149 0 1 -14.057007 8.364389 16.875900
150 0 1 -13.739006 8.578699 17.742599
151 0 1 -13.158306 8.221842 18.379501
152 0 1 -14.134007 7.914819 18.431793
153 0 1 -14.213806 7.417379 19.214203
154 0 1 -14.589406 8.273901 19.384903
155 0 1 -15.331806 7.641988 19.360794
156 0 1 -16.092707 8.173029 19.000702
157 0 1 -16.084007 8.615221 19.863800
158 0 1 -15.894707 8.556070 20.908997
159 0 1 -16.022007 9.486742 20.496704
160 0 1 -15.150007 9.282930 20.131195
161 0 1 -14.727507 10.041010 20.545502
162 0 1 -13.993707 9.534441 20.215698
163 0 1 -13.756706 9.281801 19.371902
164 0 1 -12.991306 8.683031 19.391907
165 0 1 -12.370007 9.401861 19.686096
166 0 1 -12.418306 9.614939 20.622299
167 0 1 -12.465807 9.393160 21.531097
168 0 1 -12.274706 9.099588 22.432205
169 0 1 -12.431906 8.814070 23.344604
170 0 1 -11.962406 8.407671 24.037903
171 0 1 -11.431807 8.322432 23.204498
172 0 1 -11.148907 7.471479 23.406189
173 0 1 -10.568207 7.056268 24.134888
174 0 1 -10.124506 6.237539 23.905396
175 0 1 -10.487307 6.334730 24.850708
176 0 1 -10.586306 6.537931 25.800598
177 0 1 -11.398907 6.710519 25.249207
178 0 1 -11.747007 7.568761 24.739899
179 0 1 -11.834005 7.024679 23.992493
180 0 1 -12.014606 5.935991 23.909393
181 0 1 -12.190907 4.927492 23.890289
182 0 1 -12.813606 4.644060 24.594391
183 0 1 -12.161406 3.948519 24.485901
184 0 1 -11.887808 4.007520 25.413086
185 0 1 -12.151606 3.034990 25.477112
186 0 1 -11.140507 2.954328 25.480103
187 0 1 -11.024305 3.094702 24.536194
188 0 1 -10.711306 3.984400 24.300995
189 0 1 -10.863806 4.884161 24.789612
190 0 1 -10.757307 5.140089 25.731903
191 0 1 -11.276106 4.945688 26.478394
192 0 1 -11.290306 5.913969 26.449402
193 0 1 -11.734606 5.537141 27.211914
194 0 1 -12.090708 5.952150 27.963013
195 0 1 -12.234007 6.064489 28.872101
196 0 1 -12.634907 6.443639 29.594910
197 0 1 -12.703806 5.932439 30.426300
198 0 1 -12.695107 6.164232 31.315491
199 0 1 -13.217306 5.553201 31.772400
200 0 1 -13.867207 5.480890 31.029510
201 0 1 -14.666706 5.787668 30.537201
202 0 1 -14.902706 6.691949 30.730286
203 0 1 -14.126706 7.224428 31.075409
204 0 1 -14.716506 7.612772 31.709290
205 0 1 -14.113306 7.540731 32.396301
206 0 1 -14.332606 8.432669 32.627106
207 0 1 -14.337306 8.466242 33.578003
208 0 1 -13.857607 9.253069 33.841309
209 0 1 -13.178205 9.327501 33.154297
210 0 1 -12.668707 9.862970 33.747009
211 0 1 -12.417505 9.612669 34.639099
212 0 1 -11.919407 9.824640 35.475311
213 0 1 -11.436506 9.132448 35.820709
214 0 1 -10.911007 9.976301 35.937103
215 0 1 -10.970806 9.945799 34.934601
216 0 1 -11.019707 9.529192 34.096893
217 0 1 -10.249105 9.005899 34.536499
218 0 1 -9.719908 8.185259 34.329010
219 0 1 -9.395206 8.510042 35.192017
220 0 1 -9.236607 9.111670 35.906097
221 0 1 -8.894808 8.899351 36.740509
222 0 1 -9.502108 8.289309 37.321106
223 0 1 -10.412207 8.534239 37.688416
224 0 1 -10.267305 8.962481 38.535095
225 0 1 -10.177008 8.281961 39.190094
226 0 1 -11.086607 8.602610 39.306793
227 0 1 -10.607407 9.324259 39.751312
228 0 1 -9.936007 9.099611 40.461212
229 0 1 -9.104406 9.571222 40.214600
230 0 1 -9.233307 10.493639 39.875305
231 0 1 -9.881407 10.634321 40.567413
232 0 1 -10.701406 10.808420 41.012512
233 0 1 -11.283106 11.164202 40.361084
234 0 1 -12.043905 10.544641 40.124390
235 0 1 -12.850006 10.854391 40.444885
236 0 1 -12.928408 10.511271 39.576294
237 0 1 -12.970806 10.913931 38.746002
238 0 1 -12.609407 11.669901 38.251709
239 0 1 -13.075506 12.507799 38.200195
240 0 1 -14.010607 12.324701 37.927612
241 0 1 -14.085107 12.023401 38.773987
242 0 1 -14.734306 11.345400 38.554596
243 0 1 -14.370007 10.758959 39.217712
244 0 1 -13.989507 10.253572 38.538696
245 0 1 -13.168806 9.783968 38.451691
246 0 1 -12.675207 9.840570 37.605194
247 0 1 -13.293507 9.061300 37.237793
248 0 1 -13.766406 8.562059 36.599487
249 0 1 -14.689507 8.914221 36.722687
250 0 1 -15.212206 9.664660 37.111206
251 0 1 -15.498907 8.986200 37.840088
252 0 1 -16.198006 9.616022 37.734192
253 0 1 -16.590607 9.613760 36.801392
254 0 1 -17.270306 10.098249 37.222198
255 0 1 -16.771107 10.934950 37.002686
256 0 1 -16.979906 11.665201 37.585999
257 0 1 -17.646307 12.211702 37.270813
258 0 1 -18.060307 12.303202 38.120605
259 0 1 -17.967407 13.254400 37.876099
260 0 1 -17.573807 13.932100 38.466705
261 0 1 -17.757807 13.402399 39.249207
262 0 1 -17.107206 13.760000 39.900085
263 0 1 -17.412706 13.424101 40.710388
264 0 1 -16.738907 12.799898 40.339691
265 0 1 -15.899906 13.191599 40.673798
266 0 1 -15.088406 13.148100 40.095398
267 0 1 -14.270806 13.533201 39.674896
268 0 1 -14.158007 12.557501 39.893005
269 0 1 -13.352106 12.140802 40.106995
270 0 1 -13.664006 11.557802 40.851990
271 0 1 -14.000607 11.954699 41.731812
272 0 1 -14.629907 11.273600 42.097809
273 0 1 -14.552306 11.027399 43.002289
274 0 1 -14.152906 10.479959 43.706696
275 0 1 -14.067607 10.017962 44.503387
276 0 1 -14.108207 10.924711 44.826111
277 0 1 -14.813006 10.546732 45.424896
278 0 1 -14.861306 11.427801 45.872192
279 0 1 -15.426006 11.397902 46.702911
280 0 1 -16.174807 11.670900 47.178009
281 0 1 -15.985706 12.021601 48.079803
282 0 1 -15.656206 12.639002 48.797302
283 0 1 -14.757207 12.366701 48.774200
284 0 1 -14.384307 12.747099 49.521790
285 0 1 -13.476307 12.763002 49.759003
286 0 1 -12.711407 12.247099 49.462006
287 0 1 -11.959505 12.184099 50.099213
288 0 1 -11.697206 13.113100 50.260895
289 0 1 -11.162607 13.115301 49.426086
290 0 1 -11.331007 12.356501 48.794189
291 0 1 -11.638807 12.070799 47.922394
292 0 1 -12.214308 11.679499 48.634216
293 0 1 -12.356707 11.085402 47.959900
294 0 1 -12.620108 10.378370 47.371094
295 0 1 -13.224306 9.680429 47.149597
296 0 1 -12.679407 9.031149 47.670105
297 0 1 -12.406706 9.164270 48.678802
298 0 1 -12.819708 9.099131 49.628296
299 0 1 -12.869005 8.257448 49.206512
300 0 1 -12.656406 7.321100 49.057709
301 0 1 -12.793007 7.407491 48.058105
302 0 1 -13.682007 7.830240 47.794495
303 0 1 -13.252506 7.885671 46.946289
304 0 1 -12.846506 7.222318 46.427887
305 0 1 -12.325407 6.737211 45.829407
306 0 1 -12.436707 5.921602 46.343109
307 0 1 -12.104708 5.306390 47.016388
308 0 1 -11.327806 5.060152 47.455109
309 0 1 -11.352806 5.997831 47.228210
310 0 1 -11.016607 6.537988 47.974915
311 0 1 -10.458105 6.109998 48.643188
312 0 1 -9.951607 5.532060 48.041595
313 0 1 -10.023405 4.561632 48.237091
314 0 1 -9.893106 3.630811 48.344299
315 0 1 -9.020706 3.993761 48.061188
316 0 1 -8.378515 4.064149 48.810791
317 0 1 -8.086508 3.422861 49.468201
318 0 1 -8.077177 2.415951 49.440704
319 0 1 -8.901506 2.752630 49.976288
320 0 1 -9.195406 2.163549 49.230286
321 0 1 -8.788137 2.830309 48.552795
322 0 1 -8.252565 2.028801 48.271912
323 0 1 -7.490856 1.393120 48.241791
324 0 1 -7.641596 1.285623 47.333008
325 0 1 -8.295496 1.793850 46.867493
326 0 1 -8.991205 2.444179 47.069214
327 0 1 -8.356827 3.129732 46.730194
328 0 1 -8.593496 2.855928 45.840088
329 0 1 -9.161707 2.137790 45.403992
330 0 1 -8.535727 1.796297 44.734589
331 0 1 -8.839176 1.754207 43.829010
332 0 1 -7.849188 1.873382 43.778809
333 0 1 -8.140005 1.539589 42.823914
334 0 1 -9.073908 1.654960 42.564301
335 0 1 -9.088205 0.737261 42.299103
336 0 1 -9.574907 0.352640 41.531616
337 0 1 -10.082706 0.031637 40.799011
338 0 1 -9.595806 0.875162 40.548096
339 0 1 -8.864046 0.373316 40.772095
340 0 1 -7.928396 0.311115 40.323303
341 0 1 -7.452017 0.734569 39.616302
342 0 1 -8.017225 0.574003 38.782410
343 0 1 -8.317377 0.420835 37.886597
344 0 1 -8.791018 -0.066111 37.210907
345 0 1 -9.747007 -0.269261 37.345703
346 0 1 -9.255407 -1.046160 37.239990
347 0 1 -8.445436 -1.487990 37.630096
348 0 1 -7.850588 -1.968901 37.012512
349 0 1 -7.886656 -1.001520 36.893707
350 0 1 -6.974867 -1.268999 37.079712
351 0 1 -6.916887 -0.782320 37.925903
352 0 1 -6.647207 -1.425881 38.580811
353 0 1 -6.404436 -1.912840 39.336914
354 0 1 -5.738167 -2.497660 39.691895
355 0 1 -5.988447 -1.824801 40.339111
356 0 1 -5.495146 -1.036860 40.834198
357 0 1 -4.884977 -0.433710 40.461700
358 0 1 -5.134146 -0.008003 39.622986
359 0 1 -5.944296 0.428549 39.505096
360 0 1 -6.273108 1.264492 39.711212
361 0 1 -6.832016 1.047720 40.512512
362 0 1 -6.932386 0.180300 40.929901
363 0 1 -7.432346 -0.560669 41.340912
364 0 1 -7.148016 -0.786749 40.455597
365 0 1 -6.987677 -1.729109 40.719116
366 0 1 -7.937946 -1.535740 40.596008
367 0 1 -8.716187 -2.049629 40.593109
368 0 1 -9.428307 -2.629061 40.836090
369 0 1 -9.874105 -3.453329 40.858887
370 0 1 -10.350508 -4.170729 40.342194
371 0 1 -10.496006 -3.534941 39.584808
372 0 1 -11.208206 -3.229250 38.990692
373 0 1 -11.919107 -3.525770 38.460205
374 0 1 -12.320505 -4.289311 38.880615
375 0 1 -12.801706 -3.981350 39.610107
376 0 1 -12.400606 -4.688311 40.077301
377 0 1 -12.410807 -4.050101 40.818390
378 0 1 -13.099108 -3.304720 40.776917
379 0 1 -13.944106 -2.943579 41.103516
380 0 1 -14.915007 -2.960690 41.110992
381 0 1 -15.557507 -3.260580 40.542603
382 0 1 -16.515507 -2.884279 40.559204
383 0 1 -17.069906 -3.682699 40.469208
384 0 1 -17.776306 -3.057640 40.179596
385 0 1 -18.470606 -2.379259 40.229492
386 0 1 -18.939507 -3.197920 40.055908
387 0 1 -19.169006 -2.772351 40.889191
388 0 1 -19.267906 -1.988690 41.417114
389 0 1 -20.002907 -2.174130 40.843597
390 0 1 -20.743206 -1.789030 41.275696
391 0 1 -20.698906 -1.038710 40.721008
392 0 1 -20.660107 -0.353970 40.060608
393 0 1 -21.159807 -0.970320 39.378784
394 0 1 -21.281107 -0.243189 38.769104
395 0 1 -22.045406 -0.711649 38.434509
396 0 1 -22.135107 -1.702629 38.277588
397 0 1 -22.718306 -2.027350 39.004211
398 0 1 -23.109007 -1.276060 38.591797
399 0 1 -23.640306 -0.638081 38.147217
400 0 1 -24.379107 -0.013579 38.137299
401 0 1 -24.947006 -0.454680 37.536713
402 0 1 -25.449507 0.162012 38.011200
403 0 1 -25.817507 0.803871 37.403687
404 0 1 -26.126106 1.600374 37.774109
405 0 1 -25.211706 1.955681 37.737793
406 0 1 -25.333006 2.414221 36.876801
407 0 1 -25.982807 1.973949 36.329407
408 0 1 -25.801807 1.073904 35.891296
409 0 1 -26.729006 1.244804 35.702515
410 0 1 -26.293507 0.404201 35.262207
411 0 1 -26.072906 0.782879 34.409485
412 0 1 -25.567507 1.683639 34.221588
413 0 1 -24.885406 1.156530 33.776917
414 0 1 -24.286406 0.574226 34.312805
415 0 1 -23.690407 0.871572 33.591888
416 0 1 -23.262007 0.906976 34.512604
417 0 1 -22.672606 0.194273 34.152008
418 0 1 -22.250607 0.734586 34.907593
419 0 1 -21.647806 0.139353 34.554504
420 0 1 -21.139606 0.373588 33.730804
421 0 1 -21.040407 1.120035 34.359802
422 0 1 -20.601807 0.308162 34.582214
423 0 1 -20.419306 0.004438 35.494812
424 0 1 -19.865007 -0.310730 36.270111
425 0 1 -18.970106 -0.882429 36.136200
426 0 1 -19.361706 -0.989519 35.287292
427 0 1 -19.592506 -1.711741 34.660400
428 0 1 -19.657906 -2.407500 35.261200
429 0 1 -20.312906 -3.082730 35.441406
430 0 1 -20.708906 -2.877680 36.309113
431 0 1 -21.111607 -2.522640 37.104095
432 0 1 -21.625507 -3.175350 37.709900
433 0 1 -20.717207 -3.392401 37.966614
434 0 1 -20.168306 -3.621279 37.231689
435 0 1 -19.743607 -4.531800 37.363190
436 0 1 -19.093706 -5.131260 37.675507
437 0 1 -18.927006 -5.987589 37.327209
438 0 1 -19.086006 -6.341910 36.395599
439 0 1 -19.602106 -5.719731 35.767517
440 0 1 -20.043606 -4.917910 36.017700
441 0 1 -20.652107 -4.298890 35.621887
442 0 1 -21.213007 -3.557160 35.319214
443 0 1 -21.218407 -3.035290 34.526001
444 0 1 -21.993706 -2.920120 34.005615
445 0 1 -22.514107 -3.568751 33.628906
446 0 1 -22.524506 -2.775389 33.048798
447 0 1 -22.536106 -1.887490 32.591888
448 0 1 -22.342407 -2.007630 31.678009
449 0 1 -23.091906 -1.960900 31.139099
450 0 1 -23.977806 -2.157940 31.228790
451 0 1 -24.387806 -3.047310 31.234802
452 0 1 -24.596506 -3.975081 31.318512
453 0 1 -24.603706 -4.937281 31.555511
454 0 1 -24.931406 -4.977761 30.584198
455 0 1 -25.665907 -4.317080 30.562195
456 0 1 -25.485907 -4.682211 29.652710
457 0 1 -25.615007 -3.757189 29.398407
458 0 1 -24.757507 -3.953470 28.924011
459 0 1 -23.888706 -4.124251 28.582611
460 0 1 -23.928707 -5.044261 28.778595
461 0 1 -23.962906 -5.799040 29.325806
462 0 1 -23.021006 -6.117819 29.199585
463 0 1 -23.287106 -5.836701 28.291016
464 0 1 -22.896307 -6.385771 27.624603
465 0 1 -23.734806 -6.717761 27.739410
466 0 1 -24.406807 -7.113001 28.347809
467 0 1 -24.729906 -7.316330 29.250610
468 0 1 -24.813107 -6.420411 29.733795
469 0 1 -24.556107 -6.607981 30.643311
470 0 1 -23.788307 -6.624190 31.206207
471 0 1 -23.134007 -7.206151 30.659698
472 0 1 -22.465906 -6.614401 30.347900
473 0 1 -21.505407 -6.798430 30.237701
474 0 1 -21.009806 -7.550509 29.976013
475 0 1 -21.021906 -8.322960 29.390106
476 0 1 -21.014006 -8.029291 28.485413
477 0 1 -20.009007 -8.217649 28.732086
478 0 1 -20.081907 -9.189001 28.926788
479 0 1 -20.827906 -9.680300 28.497101
480 0 1 -20.202007 -10.227499 27.953186
481 0 1 -19.437006 -9.621599 28.049591
482 0 1 -18.761406 -10.270100 28.156891
483 0 1 -18.477306 -11.147799 27.985901
484 0 1 -17.996706 -11.669901 28.678101
485 0 1 -17.834206 -11.870699 27.772400
486 0 1 -17.493507 -12.456999 27.005005
487 0 1 -17.422707 -13.037800 26.198792
488 0 1 -16.559607 -13.100300 26.648010
489 0 1 -16.478706 -12.640900 27.561584
490 0 1 -15.585106 -12.766399 27.168091
491 0 1 -15.090807 -13.519499 27.346710
492 0 1 -15.987307 -13.923300 27.499390
493 0 1 -15.768806 -14.793300 27.923584
494 0 1 -16.266306 -15.334299 28.512604
495 0 1 -15.918606 -16.007700 29.076904
496 0 1 -15.962906 -16.676800 29.724213
497 0 1 -16.049406 -17.339600 29.048798
498 0 1 -15.175007 -17.664499 29.050690
499 0 1 -14.472106 -18.293301 29.416199
500 0 1 -13.630306 -17.970100 29.433807
501 0 1 -13.600906 -17.054899 29.167694
502 0 1 -14.079407 -16.409700 28.607208
503 0 1 -14.090707 -15.867800 29.374390
504 0 1 -14.390206 -15.705299 30.301086
505 0 1 -13.532407 -16.187901 30.576416
506 0 1 -13.077906 -16.132299 31.468689
507 0 1 -12.232508 -16.147100 32.028900
508 0 1 -11.903307 -15.281500 31.819305
509 0 1 -11.348207 -14.780800 31.223907
510 0 1 -10.496706 -14.779300 30.824402
511 0 1 -10.870907 -15.194399 29.998199
512 0 1 -11.205706 -14.492200 29.390411
513 0 1 -10.888506 -13.690599 29.904205
514 0 1 -10.329107 -13.107599 30.451691
515 0 1 -10.905207 -13.176800 31.199493
516 0 1 -11.164507 -13.296999 32.090302
517 0 1 -11.749807 -12.541800 31.885101
518 0 1 -12.257208 -12.114100 32.603394
519 0 1 -12.674107 -12.367201 33.423492
520 0 1 -12.983406 -12.794600 34.184814
521 0 1 -13.706607 -13.429300 34.042694
522 0 1 -14.340607 -13.137400 33.364105
523 0 1 -14.467107 -12.257000 33.734192
524 0 1 -15.067507 -11.671400 34.201111
525 0 1 -15.954807 -11.423700 34.224213
526 0 1 -16.799406 -11.716000 34.553802
527 0 1 -16.868307 -12.710001 34.682983
528 0 1 -16.903307 -13.664000 34.851501
529 0 1 -16.718506 -13.427299 33.961487
530 0 1 -17.460506 -13.960700 33.695312
531 0 1 -17.747807 -13.432798 32.902008
532 0 1 -18.716406 -13.389999 32.903107
533 0 1 -18.388506 -12.526800 32.607208
534 0 1 -18.805906 -12.289499 33.415009
535 0 1 -19.366806 -11.770300 33.960907
536 0 1 -19.318407 -11.260799 34.744690
537 0 1 -19.900806 -10.518801 35.002686
538 0 1 -19.908606 -10.572901 35.948395
539 0 1 -19.949007 -11.291300 36.590607
540 0 1 -19.035006 -11.035101 36.541199
541 0 1 -19.591106 -10.302299 36.954895
542 0 1 -19.400507 -9.990301 37.828613
543 0 1 -18.494806 -10.130600 37.917206
544 0 1 -18.093407 -9.352499 37.467987
545 0 1 -17.632706 -9.694500 38.201996
546 0 1 -16.646807 -9.348000 38.155304
547 0 1 -15.742506 -9.060099 38.531097
548 0 1 -15.835207 -9.812500 39.129395
549 0 1 -15.367706 -10.575201 39.514709
550 0 1 -16.237906 -11.097799 39.602203
551 0 1 -16.180807 -11.826700 40.206909
552 0 1 -15.246607 -11.646399 39.980713
553 0 1 -14.637707 -12.357199 39.712006
554 0 1 -13.693406 -12.415600 39.750183
555 0 1 -13.555206 -11.734999 40.411804
556 0 1 -12.632906 -11.712299 40.721802
557 0 1 -11.751307 -11.371401 40.865295
558 0 1 -12.327106 -10.648300 41.094391
559 0 1 -12.637808 -9.787699 41.141693
560 0 1 -13.418507 -9.601099 41.615204
561 0 1 -14.034106 -9.747801 42.324097
562 0 1 -14.250906 -9.057199 42.890503
563 0 1 -14.775606 -8.861429 42.088104
564 0 1 -15.147606 -7.958331 41.692993
565 0 1 -14.591706 -7.675641 40.983002
566 0 1 -14.750906 -6.724181 41.088806
567 0 1 -14.231107 -6.035260 40.608612
568 0 1 -14.213906 -6.955800 40.213013
569 0 1 -13.629006 -7.056040 39.461395
570 0 1 -12.881006 -7.548630 38.992188
571 0 1 -12.509706 -8.485441 38.946991
572 0 1 -12.914106 -8.940939 38.217987
573 0 1 -12.280006 -9.552801 38.541595
574 0 1 -11.350306 -9.659300 38.241699
575 0 1 -10.398706 -9.494400 38.272400
576 0 1 -9.900507 -9.184700 37.487091
577 0 1 -10.121805 -8.380461 38.012909
578 0 1 -9.969908 -8.648010 38.958893
579 0 1 -9.307806 -8.904030 38.315613
580 0 1 -9.244406 -7.962599 38.441101
581 0 1 -8.540815 -7.319130 38.579803
582 0 1 -7.897867 -7.638350 37.933411
583 0 1 -6.995247 -7.446181 38.011902
584 0 1 -6.745096 -8.032499 37.281097
585 0 1 -6.339926 -7.206780 36.938995
586 0 1 -5.710327 -6.657151 37.347412
587 0 1 -6.202477 -5.830821 37.060699
588 0 1 -6.382215 -5.334340 36.261688
589 0 1 -5.574427 -4.996911 36.539795
590 0 1 -5.833197 -4.530901 35.748596
591 0 1 -5.056616 -3.874769 35.901703
592 0 1 -5.674526 -3.195111 35.547089
593 0 1 -4.979397 -2.853560 36.206696
594 0 1 -4.577665 -2.037649 36.614288
595 0 1 -3.708757 -2.089369 36.125702
596 0 1 -2.863766 -1.657740 36.292999
597 0 1 -2.207766 -0.980520 36.318390
598 0 1 -1.361135 -0.566099 36.590515
599 0 1 -0.738447 -1.357390 36.676697
600 0 1 0.110468 -1.774861 36.660797
601 0 1 -0.167986 -2.729880 36.442596
602 0 1 -0.579866 -2.960751 35.634705
603 0 1 -0.942457 -2.139441 35.208099
604 0 1 -1.094137 -2.442950 34.291901
605 0 1 -1.216276 -1.553511 34.026794
606 0 1 -0.248106 -1.553250 33.955109
607 0 1 0.101105 -2.431690 34.108795
608 0 1 0.753212 -2.711970 33.443909
609 0 1 1.446138 -1.942049 33.433289
610 0 1 1.446766 -2.588619 32.660095
611 0 1 1.818699 -3.388491 32.241699
612 0 1 1.458120 -3.498921 31.384094
613 0 1 1.240700 -3.875349 30.480408
614 0 1 1.563084 -4.629969 29.996490
615 0 1 0.883785 -5.307780 30.079987
616 0 1 0.808485 -5.189169 29.163208
617 0 1 1.057840 -5.865170 28.542999
618 0 1 1.433435 -6.869170 28.657104
619 0 1 0.631483 -7.145100 28.243591
620 0 1 0.210724 -6.608830 27.548492
621 0 1 0.903225 -6.880690 26.881195
622 0 1 1.002823 -6.016720 26.524292
623 0 1 0.884064 -6.017800 25.594788
624 0 1 1.254734 -6.923571 25.383698
625 0 1 1.494450 -7.804450 25.055511
626 0 1 2.459984 -7.711989 25.124908
627 0 1 3.178312 -7.773020 25.653809
628 0 1 3.959242 -7.268651 25.264191
629 0 1 3.991423 -6.591191 25.953491
630 0 1 3.769415 -5.768460 26.369202
631 0 1 4.611074 -5.431300 26.467194
632 0 1 5.183115 -5.069741 25.811890
633 0 1 4.301153 -5.315831 25.530304
634 0 1 4.630835 -5.664990 24.687012
635 0 1 4.159182 -5.976340 23.935486
636 0 1 4.735292 -5.583151 23.221893
637 0 1 3.853704 -5.805100 22.862091
638 0 1 3.982103 -5.513400 21.958405
639 0 1 3.694674 -4.571270 22.213196
640 0 1 4.237623 -3.954680 21.755707
641 0 1 4.435083 -3.090349 21.289597
642 0 1 4.714312 -3.271580 20.433395
643 0 1 4.883375 -4.227030 20.452499
644 0 1 5.696165 -4.415970 19.934906
645 0 1 6.271555 -5.029511 19.472794
646 0 1 6.668703 -5.907940 19.432495
647 0 1 7.286325 -6.638211 19.401306
648 0 1 7.058374 -7.297411 20.063705
649 0 1 6.716322 -7.200070 20.963303
650 0 1 7.651594 -7.223660 21.433197
651 0 1 8.593054 -7.188220 21.623703
652 0 1 8.677912 -8.091848 21.919006
653 0 1 7.709845 -8.268560 21.898804
654 0 1 7.593954 -7.833521 22.730896
655 0 1 8.200495 -7.560431 23.351196
656 0 1 8.406614 -6.564801 23.362488
657 0 1 9.018282 -5.856490 23.053589
658 0 1 8.750185 -5.663531 22.158600
659 0 1 8.502604 -5.877600 21.263901
660 0 1 9.444944 -5.879851 21.242493
661 0 1 10.315264 -6.382311 21.353806
662 0 1 11.069094 -6.515891 20.680801
663 0 1 11.061995 -7.168299 19.971603
664 0 1 10.192896 -7.692580 20.109192
665 0 1 10.678331 -8.131281 19.419495
666 0 1 10.519064 -8.976830 19.156006
667 0 1 10.970762 -9.559900 18.535599
668 0 1 11.389593 -10.265900 19.099304
669 0 1 11.723894 -10.819601 19.815994
670 0 1 11.366693 -10.138800 20.392700
671 0 1 11.054693 -9.603399 21.128494
672 0 1 11.135695 -8.681120 21.294296
673 0 1 10.255114 -8.295990 21.090103
674 0 1 10.420053 -8.195181 22.041107
675 0 1 10.599554 -7.317019 22.442993
676 0 1 11.237593 -7.383761 23.104614
677 0 1 10.587484 -6.767960 23.508209
678 0 1 10.540575 -6.464369 24.464905
679 0 1 10.855993 -7.135722 25.045898
680 0 1 10.732912 -6.527470 25.791992
681 0 1 10.464052 -7.505200 26.067413
682 0 1 9.597975 -7.146319 25.846008
683 0 1 8.670702 -7.241789 26.189789
684 0 1 8.417913 -6.989569 27.037109
685 0 1 9.309713 -6.755280 26.803497
686 0 1 9.770285 -6.966670 27.640411
687 0 1 9.362593 -7.837201 27.617615
688 0 1 9.470385 -8.084829 28.538788
689 0 1 8.724283 -8.718988 28.547485
690 0 1 8.496141 -9.644400 28.428101
691 0 1 7.794043 -9.717400 27.714111
692 0 1 7.734484 -9.592299 26.763916
693 0 1 7.044592 -9.484999 26.065704
694 0 1 6.432856 -9.674500 25.312592
695 0 1 6.404795 -9.218800 24.505707
696 0 1 6.202414 -9.809500 23.774902
697 0 1 6.108072 -9.370699 22.926086
698 0 1 6.790842 -9.575800 22.298492
699 0 1 7.662962 -9.530001 21.866501
700 0 1 7.155882 -9.453501 21.056793
701 0 1 6.973513 -8.940750 20.206696
702 0 1 6.740774 -9.427198 19.319199
703 0 1 6.638025 -10.424000 19.580704
704 0 1 7.591253 -10.563200 19.683304
705 0 1 8.020304 -10.370399 18.909805
706 0 1 8.942343 -10.546900 18.717194
707 0 1 8.925344 -11.209000 18.045700
708 0 1 9.674822 -10.891901 17.535995
709 0 1 9.586473 -11.547701 16.815094
710 0 1 9.983564 -11.917000 16.003601
711 0 1 10.510874 -11.218599 16.466095
712 0 1 10.846155 -10.867201 15.693802
713 0 1 11.317293 -10.193100 15.222198
714 0 1 11.419191 -9.283499 15.515503
715 0 1 11.617292 -8.494600 15.018997
716 0 1 11.541693 -8.818869 14.150406
717 0 1 10.897764 -9.496000 14.280197
718 0 1 10.609983 -8.976389 13.524094
719 0 1 9.864985 -9.386499 13.079102
720 0 1 9.512995 -9.102800 13.942200
721 0 1 8.775763 -8.479319 13.701904
722 0 1 7.842424 -8.551260 13.412903
723 0 1 8.115835 -8.936010 12.577194
724 0 1 7.834803 -9.758501 13.026901
725 0 1 7.590631 -10.671200 12.849304
726 0 1 8.328653 -11.301300 12.515900
727 0 1 7.594255 -11.946800 12.083008
728 0 1 8.012873 -11.914000 11.165100
729 0 1 7.472624 -12.690800 11.154297
730 0 1 6.849482 -13.393499 10.913208
731 0 1 6.899694 -14.123799 10.308502
732 0 1 7.298792 -14.072599 9.490875
733 0 1 7.682154 -14.862300 9.837646
734 0 1 7.031923 -15.380301 9.356262
735 0 1 6.918116 -14.936100 8.517273
736 0 1 6.886873 -15.756199 8.031204
737 0 1 5.967863 -15.487499 8.263199
738 0 1 5.156412 -15.624199 7.884949
739 0 1 4.350782 -15.116499 8.038437
740 0 1 3.755194 -14.469200 8.518158
741 0 1 2.931265 -14.144300 8.994781
742 0 1 2.568464 -13.998899 9.889389
743 0 1 1.963964 -13.681000 10.539795
744 0 1 1.842690 -12.673399 10.408401
745 0 1 1.327232 -12.459499 9.680878
746 0 1 1.649153 -11.587999 9.237350
747 0 1 0.959257 -11.435099 8.477066
748 0 1 0.928925 -11.504700 7.520035
749 0 1 0.059490 -11.775700 7.295502
750 0 1 -0.660557 -12.423100 7.154404
751 0 1 0.049780 -12.520700 6.472839
752 0 1 -0.296417 -13.012701 5.718903
753 0 1 -0.467657 -13.261801 4.828522
754 0 1 -0.681396 -13.786200 4.061630
755 0 1 -0.602266 -13.268900 3.235794
756 0 1 -0.656456 -12.272900 3.133698
757 0 1 -1.546606 -12.384699 3.403931
758 0 1 -1.751667 -12.057501 2.440125
759 0 1 -1.121456 -11.424200 2.828324
760 0 1 -1.383587 -10.775599 3.475281
761 0 1 -0.599466 -10.962999 4.033783
762 0 1 0.317917 -11.310200 4.088226
763 0 1 0.696928 -12.093901 3.614777
764 0 1 1.293211 -12.281500 2.892914
765 0 1 2.172194 -12.636900 3.258423
766 0 1 2.618124 -12.029900 2.638230
767 0 1 2.264013 -11.669800 1.806870
768 0 1 1.293865 -11.860600 1.717667
769 0 1 1.358776 -11.415201 0.886444
770 0 1 2.074583 -10.866499 0.516434
771 0 1 1.625605 -10.225000 -0.050567
772 0 1 1.416836 -9.881500 -0.896423
773 0 1 2.025307 -10.400400 -1.476883
774 0 1 2.384754 -9.601000 -1.933044
775 0 1 2.367973 -9.368601 -2.860428
776 0 1 3.301394 -9.341499 -2.577987
777 0 1 3.462542 -10.143700 -3.187652
778 0 1 3.435934 -10.449800 -4.072998
779 0 1 2.746683 -10.300400 -4.693817