LAMMPS data file via MDAnalysis

        2000  atoms
        1999  bonds
           0  angles
           0  dihedrals
           0  impropers

           1  atom types
           1  bond types
           0  angle types
           0  dihedral types
           0  improper types

-30.5 30.5 xlo xhi
-30.5 30.5 ylo yhi
-233.5 233.5 zlo zhi


Masses

1 1.000000

Atoms

1 0 1 7.337902 -8.836912 54.092804
2 0 1 7.005352 -8.131393 54.684509
3 0 1 6.516254 -7.375704 55.148895
4 0 1 6.997772 -6.727324 55.643097
5 0 1 6.349292 -6.062684 55.359985
6 0 1 6.036392 -5.922234 54.473206
7 0 1 6.350563 -5.192624 53.818298
8 0 1 5.728723 -5.850693 53.383606
9 0 1 4.789297 -5.617274 53.495300
10 0 1 4.375337 -5.602934 52.618805
11 0 1 4.467245 -6.544413 52.731384
12 0 1 3.788002 -6.715044 52.104095
13 0 1 3.897850 -7.595213 52.406891
14 0 1 4.292472 -8.042543 53.235413
15 0 1 5.240642 -8.086643 52.858093
16 0 1 5.571008 -8.794823 52.308197
17 0 1 5.708173 -8.912333 51.358490
18 0 1 5.374092 -9.460093 50.619598
19 0 1 5.525026 -10.176943 51.232391
20 0 1 4.621467 -10.354784 51.114899
21 0 1 3.801912 -10.205263 51.657104
22 0 1 3.896804 -9.384493 52.166107
23 0 1 3.042232 -9.357252 52.647491
24 0 1 2.538522 -8.500032 52.998505
25 0 1 2.126512 -9.212812 53.439209
26 0 1 1.589103 -9.683273 54.085510
27 0 1 1.612203 -10.679913 54.361816
28 0 1 1.860612 -11.381914 53.706604
29 0 1 2.525602 -11.776632 54.344391
30 0 1 2.766132 -12.475803 53.661804
31 0 1 2.930933 -12.786703 54.533997
32 0 1 2.717332 -13.675802 54.246002
33 0 1 1.919162 -14.111303 54.036896
34 0 1 1.865093 -14.080303 52.980286
35 0 1 2.536462 -14.670202 52.548004
36 0 1 2.927812 -13.775703 52.588593
37 0 1 3.229583 -14.344603 51.844391
38 0 1 3.882516 -14.200804 51.150391
39 0 1 3.364603 -13.464403 51.330811
40 0 1 3.278553 -12.569502 51.244110
41 0 1 3.449003 -11.958464 50.571899
42 0 1 4.019729 -11.784893 49.811798
43 0 1 4.598833 -10.988134 50.032715
44 0 1 5.512832 -11.023773 49.775696
45 0 1 6.373962 -10.762693 50.059204
46 0 1 7.025672 -10.639093 49.404999
47 0 1 6.643154 -11.394413 48.975800
48 0 1 6.833042 -11.808933 48.118500
49 0 1 6.568901 -12.702604 48.406708
50 0 1 6.451484 -13.331503 49.168396
51 0 1 7.259254 -13.778704 49.349915
52 0 1 7.881034 -14.500902 49.550415
53 0 1 7.505943 -15.007303 50.335388
54 0 1 6.929973 -15.787203 50.216888
55 0 1 6.280082 -16.104704 49.570709
56 0 1 6.175003 -16.597704 50.368988
57 0 1 5.285827 -16.256804 50.459503
58 0 1 5.189909 -16.437204 51.425507
59 0 1 5.886892 -16.643703 52.043884
60 0 1 6.574413 -15.994104 51.924316
61 0 1 7.233322 -16.690403 51.621094
62 0 1 8.153362 -16.510403 51.860413
63 0 1 8.833874 -17.164303 51.735687
64 0 1 9.409523 -16.897003 50.998291
65 0 1 9.549591 -17.042103 50.080292
66 0 1 8.617714 -17.312904 50.213898
67 0 1 8.088764 -18.066103 49.969116
68 0 1 7.817932 -18.962202 50.196991
69 0 1 8.681461 -19.393402 50.142609
70 0 1 8.422474 -20.340403 50.122314
71 0 1 7.965511 -20.862803 49.450592
72 0 1 8.888481 -20.820204 49.124390
73 0 1 9.250832 -19.910603 49.103790
74 0 1 10.174385 -19.469202 49.056091
75 0 1 10.936905 -18.919603 49.077911
76 0 1 11.856201 -19.431803 49.090393
77 0 1 12.702274 -19.880703 48.965912
78 0 1 12.500042 -20.614902 49.584900
79 0 1 12.183033 -19.893703 50.189209
80 0 1 11.537193 -20.557203 50.144501
81 0 1 11.181774 -20.734703 49.264404
82 0 1 11.181583 -21.033003 48.333496
83 0 1 10.229271 -21.211603 48.662903
84 0 1 9.765965 -21.603502 47.943115
85 0 1 10.516071 -21.957203 47.359406
86 0 1 10.895672 -22.391003 46.588287
87 0 1 11.707893 -21.875902 46.766785
88 0 1 12.475124 -21.846203 46.154785
89 0 1 13.485363 -22.003403 45.949310
90 0 1 14.115685 -22.429703 45.378906
91 0 1 14.129864 -22.629303 44.455383
92 0 1 15.034084 -22.418404 44.240601
93 0 1 15.862282 -22.199102 44.631897
94 0 1 16.016884 -21.309103 45.072296
95 0 1 15.528782 -21.831003 45.732300
96 0 1 16.142784 -22.041504 46.407196
97 0 1 16.579582 -22.323402 47.212311
98 0 1 17.505482 -22.301804 47.557587
99 0 1 18.221783 -21.663202 47.715698
100 0 1 18.547981 -20.729504 47.507294
101 0 1 19.307682 -20.923803 48.055511
102 0 1 20.046982 -21.459703 48.414093
103 0 1 20.018383 -22.230904 48.968811
104 0 1 20.537884 -22.160004 49.748505
105 0 1 21.141281 -21.730103 50.373291
106 0 1 21.755783 -21.025503 50.205811
107 0 1 21.647385 -19.973803 50.095093
108 0 1 22.446381 -19.630302 49.688995
109 0 1 21.801186 -18.986103 49.957794
110 0 1 21.308380 -18.748802 49.139709
111 0 1 21.965683 -18.429804 48.501587
112 0 1 21.890182 -17.970703 49.358490
113 0 1 22.385284 -17.234903 48.979614
114 0 1 23.233086 -17.339603 48.536713
115 0 1 23.051285 -16.437803 48.566193
116 0 1 22.203682 -16.150703 48.873993
117 0 1 21.322582 -15.888203 49.202209
118 0 1 21.641582 -15.157202 49.673584
119 0 1 22.001282 -14.438103 50.144592
120 0 1 21.638481 -13.574202 49.900909
121 0 1 21.052982 -13.604704 50.740509
122 0 1 20.363682 -14.222803 51.099304
123 0 1 19.766983 -13.920403 51.761688
124 0 1 20.343182 -13.220804 52.154694
125 0 1 20.286385 -12.545202 52.859497
126 0 1 21.240982 -12.693304 52.775208
127 0 1 21.369286 -13.249903 53.540802
128 0 1 21.878181 -13.286303 54.362793
129 0 1 21.789383 -14.263502 54.278015
130 0 1 22.138382 -14.920702 54.883301
131 0 1 22.586082 -15.848402 55.073212
132 0 1 23.195183 -15.614803 55.773499
133 0 1 23.599583 -14.797003 56.143402
134 0 1 24.083382 -14.126402 55.602600
135 0 1 23.833683 -13.566603 56.386597
136 0 1 23.690285 -13.961803 57.294983
137 0 1 22.867783 -14.155203 57.790009
138 0 1 22.153481 -13.453703 57.927887
139 0 1 21.679581 -13.901503 58.635895
140 0 1 22.347481 -14.413303 59.105591
141 0 1 22.150581 -15.354002 58.990387
142 0 1 21.384781 -15.549402 59.520386
143 0 1 21.357883 -16.234503 58.824188
144 0 1 20.387383 -16.477503 58.741699
145 0 1 20.786884 -16.663004 57.940613
146 0 1 20.250481 -17.496103 58.325287
147 0 1 20.181984 -17.497604 57.399689
148 0 1 19.811081 -16.565004 57.467712
149 0 1 18.868484 -16.669903 57.322601
150 0 1 18.291481 -16.294403 58.040894
151 0 1 19.007282 -15.618902 58.272491
152 0 1 18.517784 -14.827002 57.885803
153 0 1 17.572083 -14.611204 57.905792
154 0 1 17.083183 -15.418503 57.740204
155 0 1 16.695583 -14.780802 57.142700
156 0 1 16.120483 -15.400303 56.677307
157 0 1 15.554184 -15.624102 57.409302
158 0 1 15.722481 -14.669302 57.619812
159 0 1 14.999481 -14.425703 58.226288
160 0 1 14.045471 -14.751104 58.271088
161 0 1 14.169983 -13.975803 58.778595
162 0 1 13.751732 -13.265802 59.217987
163 0 1 13.156384 -12.541603 58.953613
164 0 1 12.518112 -12.876104 58.328491
165 0 1 11.870132 -12.334684 57.868286
166 0 1 11.332874 -11.648642 57.496704
167 0 1 10.653885 -11.992273 56.854614
168 0 1 10.507751 -12.455603 56.022797
169 0 1 9.657192 -11.895103 56.122589
170 0 1 9.696522 -11.049692 56.619598
171 0 1 8.710884 -11.021963 56.394012
172 0 1 8.293243 -10.715044 57.212189
173 0 1 8.697151 -9.780634 57.042206
174 0 1 8.830193 -9.044533 57.577393
175 0 1 9.500801 -9.205744 56.921814
176 0 1 10.303772 -8.750233 57.200897
177 0 1 11.140163 -9.201063 57.170715
178 0 1 10.574623 -9.647703 57.835297
179 0 1 10.626701 -8.960493 58.532410
180 0 1 11.149181 -8.281483 58.968903
181 0 1 11.368084 -8.183313 59.976685
182 0 1 10.542381 -8.177593 60.618286
183 0 1 10.958714 -8.763933 61.250702
184 0 1 11.604183 -9.448603 61.494812
185 0 1 10.870201 -9.932583 61.923187
186 0 1 10.268272 -9.148403 61.929993
187 0 1 10.367493 -8.798143 62.798004
188 0 1 10.164062 -8.018312 63.301788
189 0 1 10.774372 -7.496563 62.703888
190 0 1 10.909691 -6.685004 62.111084
191 0 1 10.669773 -7.465714 61.576416
192 0 1 9.866993 -7.573254 61.147888
193 0 1 9.038971 -7.176222 61.105591
194 0 1 8.081703 -7.279833 61.310211
195 0 1 7.072784 -7.129544 61.098999
196 0 1 7.444774 -8.053953 61.193390
197 0 1 7.980083 -8.207333 62.023193
198 0 1 8.204243 -8.649773 62.846100
199 0 1 8.835785 -8.243662 63.371887
200 0 1 8.628563 -7.426693 63.953400
201 0 1 8.042583 -6.712554 64.175415
202 0 1 7.387031 -7.294184 64.562805
203 0 1 7.375694 -7.259654 63.567993
204 0 1 6.724651 -6.584944 63.514496
205 0 1 6.001363 -6.567034 62.898804
206 0 1 5.610733 -7.452254 62.684387
207 0 1 5.358955 -8.093714 63.367889
208 0 1 4.629940 -8.189573 62.689392
209 0 1 4.559259 -9.108534 63.076691
210 0 1 5.507551 -9.296553 62.789703
211 0 1 5.596565 -9.801573 61.947998
212 0 1 5.794336 -10.187334 61.072998
213 0 1 4.887981 -9.807734 60.872986
214 0 1 4.366077 -10.610582 60.575409
215 0 1 4.369419 -10.633163 61.547607
216 0 1 4.156051 -11.489683 61.974091
217 0 1 5.161800 -11.695574 62.045410
218 0 1 6.133443 -11.656824 61.934387
219 0 1 7.047794 -11.279253 61.972198
220 0 1 7.972621 -11.060223 62.115601
221 0 1 7.505832 -10.311262 61.781189
222 0 1 6.833721 -10.514963 61.072906
223 0 1 6.587043 -9.549433 61.339508
224 0 1 5.872552 -8.857822 61.093201
225 0 1 5.845533 -8.767433 60.086609
226 0 1 5.103904 -8.365152 59.592804
227 0 1 4.808149 -8.921812 60.331207
228 0 1 3.957099 -9.549723 60.227600
229 0 1 3.246292 -9.072803 60.699890
230 0 1 2.271343 -8.897663 60.549011
231 0 1 2.868473 -8.111994 60.395386
232 0 1 2.061542 -7.535204 60.346710
233 0 1 1.974863 -6.978474 61.166595
234 0 1 1.184183 -6.391324 61.431213
235 0 1 0.857393 -6.947394 62.234100
236 0 1 1.181253 -7.798743 62.177185
237 0 1 2.068843 -7.752913 62.678711
238 0 1 2.111003 -7.444073 63.636108
239 0 1 1.766613 -6.820483 62.993011
240 0 1 1.060573 -6.306033 63.390900
241 0 1 1.711273 -5.746634 62.979614
242 0 1 1.993423 -4.815814 62.864014
243 0 1 1.860973 -3.995863 63.453308
244 0 1 1.882682 -3.738774 64.417694
245 0 1 1.867702 -4.340243 65.178894
246 0 1 2.179252 -5.235554 65.511414
247 0 1 1.725093 -6.010233 65.192688
248 0 1 1.563243 -6.434063 66.033508
249 0 1 0.698293 -6.594664 65.595001
250 0 1 -0.113457 -6.904685 65.156494
251 0 1 -0.353848 -6.845744 64.204803
252 0 1 -0.810967 -6.408595 63.486816
253 0 1 -1.744088 -6.451083 63.580902
254 0 1 -1.853318 -6.318034 64.579590
255 0 1 -1.805207 -5.379914 64.575195
256 0 1 -2.245938 -5.360533 63.707397
257 0 1 -2.958958 -5.947903 63.641205
258 0 1 -3.331627 -6.511723 64.344482
259 0 1 -3.005269 -7.140414 63.655884
260 0 1 -3.111397 -8.051193 63.935699
261 0 1 -2.137898 -7.896574 63.997894
262 0 1 -1.629529 -8.321012 64.725189
263 0 1 -0.949978 -7.771054 64.386200
264 0 1 -0.403758 -8.607803 64.663086
265 0 1 -0.305508 -9.056143 65.507904
266 0 1 -1.208388 -9.292494 65.627106
267 0 1 -0.843268 -9.822412 66.374390
268 0 1 -1.389338 -10.375704 65.850494
269 0 1 -1.361777 -11.322943 66.050201
270 0 1 -0.477047 -11.673002 65.817505
271 0 1 -0.235228 -12.361742 66.563782
272 0 1 0.086834 -13.336004 66.786194
273 0 1 0.764322 -14.120802 66.800995
274 0 1 0.359233 -14.317602 65.956604
275 0 1 0.131713 -15.250204 65.694305
276 0 1 0.105753 -16.232203 65.743286
277 0 1 -0.632357 -16.311903 65.162415
278 0 1 0.028663 -16.120302 64.480804
279 0 1 -0.595377 -15.338703 64.259003
280 0 1 -0.543599 -15.215502 63.201691
281 0 1 -0.406928 -14.298002 63.083191
282 0 1 -0.765097 -14.006403 63.905090
283 0 1 -0.850407 -14.051403 64.863007
284 0 1 -1.688698 -14.182104 65.404297
285 0 1 -2.308157 -14.035603 66.141907
286 0 1 -1.494887 -14.323503 66.611084
287 0 1 -1.801318 -15.244802 66.304993
288 0 1 -2.628418 -15.031803 66.820496
289 0 1 -3.017697 -15.774504 66.350311
290 0 1 -3.461297 -15.641802 67.265808
291 0 1 -4.282717 -15.867804 66.812012
292 0 1 -4.240887 -14.895002 66.770599
293 0 1 -3.981217 -14.992502 65.815186
294 0 1 -4.403718 -14.351803 65.250793
295 0 1 -4.140767 -13.846403 64.502014
296 0 1 -3.889489 -13.076603 63.993103
297 0 1 -3.895627 -12.088114 64.268890
298 0 1 -3.663579 -11.814163 65.203796
299 0 1 -3.171378 -11.307453 65.900299
300 0 1 -2.959828 -11.681543 66.722900
301 0 1 -3.857247 -11.537073 66.924408
302 0 1 -4.752766 -11.191694 67.271118
303 0 1 -4.651738 -11.591982 68.182709
304 0 1 -4.089009 -11.936613 68.936401
305 0 1 -4.163128 -10.979044 68.937683
306 0 1 -4.668107 -10.555792 69.745697
307 0 1 -4.410317 -9.695723 70.148407
308 0 1 -3.502608 -10.065382 70.118896
309 0 1 -2.919667 -9.297724 70.162689
310 0 1 -3.574427 -8.651403 69.826294
311 0 1 -3.149117 -7.823193 69.507202
312 0 1 -2.428399 -7.420674 68.941803
313 0 1 -1.784928 -7.249213 68.320312
314 0 1 -1.566748 -7.522192 67.389404
315 0 1 -2.411686 -8.069483 67.280609
316 0 1 -2.107338 -8.915894 67.018982
317 0 1 -1.712418 -8.405993 66.291595
318 0 1 -2.406128 -7.690184 66.211700
319 0 1 -2.684247 -8.063393 65.309387
320 0 1 -2.583527 -7.235384 64.836090
321 0 1 -2.707657 -6.555203 65.493408
322 0 1 -3.479657 -6.110653 65.667389
323 0 1 -3.541848 -7.046664 66.024689
324 0 1 -4.099617 -7.204264 66.730194
325 0 1 -4.051297 -8.207912 66.816711
326 0 1 -4.396267 -8.627993 67.654907
327 0 1 -3.789048 -9.303534 67.703308
328 0 1 -3.778597 -9.861082 66.944702
329 0 1 -3.900017 -9.213263 66.286011
330 0 1 -4.119927 -8.643202 65.584595
331 0 1 -4.580058 -8.821194 64.765411
332 0 1 -5.205819 -8.367283 65.333191
333 0 1 -4.924428 -7.485074 65.007599
334 0 1 -5.761717 -7.246144 64.671692
335 0 1 -6.656617 -7.568923 64.429688
336 0 1 -7.350617 -7.286614 63.858215
337 0 1 -7.665017 -8.133713 64.181702
338 0 1 -8.057817 -8.015373 63.278992
339 0 1 -7.578518 -8.491493 62.595795
340 0 1 -7.046319 -8.952744 61.964294
341 0 1 -7.746216 -9.343252 61.374390
342 0 1 -8.220516 -8.866533 60.671600
343 0 1 -8.026016 -8.608633 59.799316
344 0 1 -7.749016 -9.472044 59.844208
345 0 1 -8.176716 -10.304853 59.672089
346 0 1 -7.819018 -11.120962 59.277802
347 0 1 -7.832016 -12.114473 59.203613
348 0 1 -7.223717 -11.643713 58.651917
349 0 1 -6.365418 -11.851103 59.059998
350 0 1 -6.612017 -12.555304 59.637207
351 0 1 -6.635918 -13.121803 60.479004
352 0 1 -6.914319 -13.909704 59.982300
353 0 1 -6.933817 -14.250103 59.018402
354 0 1 -6.380818 -14.975302 58.625305
355 0 1 -6.045418 -14.540304 57.800812
356 0 1 -5.600117 -15.074602 57.140411
357 0 1 -4.706269 -15.085302 57.473511
358 0 1 -4.967167 -15.928904 57.175110
359 0 1 -5.767817 -16.299303 56.769989
360 0 1 -5.268918 -17.070704 56.388306
361 0 1 -5.593918 -17.909803 56.601898
362 0 1 -6.055218 -18.653704 56.253510
363 0 1 -5.757517 -19.385902 56.713287
364 0 1 -5.803116 -19.910103 55.889191
365 0 1 -5.516118 -20.423304 56.732117
366 0 1 -4.638428 -20.677603 57.014313
367 0 1 -4.025048 -20.702103 57.735809
368 0 1 -3.615838 -21.563402 57.301697
369 0 1 -3.372658 -21.943502 58.155304
370 0 1 -3.135157 -22.326103 58.975586
371 0 1 -2.774659 -22.586903 59.901917
372 0 1 -2.940688 -22.333803 60.869904
373 0 1 -2.481907 -22.857603 61.616913
374 0 1 -2.456297 -23.365704 62.449005
375 0 1 -1.883917 -22.651903 62.634094
376 0 1 -1.507168 -21.983103 62.025909
377 0 1 -0.867377 -21.384604 61.609100
378 0 1 -1.246857 -20.649504 62.296387
379 0 1 -2.131718 -20.873503 61.944702
380 0 1 -2.498467 -20.295902 62.567200
381 0 1 -2.488078 -19.556704 61.846985
382 0 1 -1.781167 -19.065203 61.423889
383 0 1 -2.195797 -19.053703 60.543884
384 0 1 -2.512137 -19.961702 60.733002
385 0 1 -2.735358 -20.882704 60.828186
386 0 1 -2.816718 -21.227503 59.945984
387 0 1 -3.306098 -20.510702 59.596191
388 0 1 -3.409417 -20.127502 58.734406
389 0 1 -3.948868 -19.554804 59.369507
390 0 1 -4.909379 -19.614504 59.519104
391 0 1 -4.560269 -18.745604 59.707397
392 0 1 -4.075408 -18.240303 59.067596
393 0 1 -3.635998 -18.295704 58.197296
394 0 1 -3.937218 -18.180504 57.266998
395 0 1 -3.539158 -18.617304 56.513184
396 0 1 -2.594428 -18.812103 56.507690
397 0 1 -2.139887 -19.437702 55.875793
398 0 1 -1.584168 -18.609102 55.914398
399 0 1 -1.710497 -18.922403 55.035187
400 0 1 -1.391957 -19.847303 54.995483
401 0 1 -0.517107 -19.387302 55.031616
402 0 1 0.378372 -19.662903 55.139008
403 0 1 1.207572 -19.953003 54.766296
404 0 1 0.774892 -19.427803 54.112488
405 0 1 0.035324 -18.963503 53.692017
406 0 1 0.388813 -19.445402 52.921600
407 0 1 0.217752 -20.075502 52.214294
408 0 1 -0.026398 -19.724104 51.264404
409 0 1 -0.214358 -18.759703 51.419800
410 0 1 -0.493397 -17.894304 51.787415
411 0 1 -0.305548 -17.093504 51.146210
412 0 1 0.521423 -16.710003 50.870392
413 0 1 0.510793 -16.244003 50.034088
414 0 1 0.020292 -15.448004 49.834808
415 0 1 0.131671 -16.080202 49.037109
416 0 1 0.559944 -15.260004 48.732300
417 0 1 -0.046458 -14.956903 47.980988
418 0 1 0.785932 -14.799002 47.450684
419 0 1 1.366622 -14.482203 48.117401
420 0 1 1.937423 -13.723503 47.796906
421 0 1 2.393222 -12.968903 48.204498
422 0 1 3.000162 -13.442003 48.712799
423 0 1 3.777023 -13.582703 48.101685
424 0 1 4.188228 -14.424503 48.238007
425 0 1 5.052677 -14.713602 48.540009
426 0 1 5.184038 -14.292803 49.346985
427 0 1 6.091703 -14.571402 49.209991
428 0 1 6.072013 -15.175203 48.428284
429 0 1 6.867832 -14.673502 48.378784
430 0 1 7.364582 -13.862204 48.323608
431 0 1 7.852432 -14.595203 47.971710
432 0 1 8.495441 -14.965103 48.555603
433 0 1 8.866993 -15.115503 47.654785
434 0 1 9.554462 -15.215204 46.880402
435 0 1 9.887215 -15.605902 47.646088
436 0 1 10.536072 -15.490404 46.895813
437 0 1 10.464615 -14.508402 46.999817
438 0 1 10.035202 -14.407103 47.835693
439 0 1 10.431484 -13.742704 48.380493
440 0 1 10.169861 -13.274803 47.550812
441 0 1 10.950294 -12.879803 47.987091
442 0 1 11.720764 -13.373804 48.313293
443 0 1 12.249153 -13.634302 47.600403
444 0 1 12.908703 -13.823904 48.304596
445 0 1 12.325802 -14.578503 48.291504
446 0 1 12.448193 -14.533203 49.210907
447 0 1 12.951843 -14.726404 50.046906
448 0 1 13.560982 -14.683903 49.234711
449 0 1 13.357643 -14.956804 48.306702
450 0 1 13.318214 -15.439302 47.470093
451 0 1 13.281631 -15.449903 46.529907
452 0 1 14.158974 -15.228304 46.253296
453 0 1 14.891182 -15.089003 45.716003
454 0 1 15.359882 -14.423103 45.200989
455 0 1 16.329582 -14.288202 45.236816
456 0 1 17.064583 -14.841703 45.010010
457 0 1 18.026085 -15.083303 45.069305
458 0 1 18.731781 -15.734203 45.296204
459 0 1 18.314983 -16.620802 45.005493
460 0 1 18.250782 -16.053703 44.277405
461 0 1 17.961983 -15.540703 43.590210
462 0 1 17.418785 -14.896002 43.150208
463 0 1 18.040382 -14.217604 43.322388
464 0 1 17.498882 -13.519903 43.820892
465 0 1 18.403183 -13.715704 44.150513
466 0 1 19.296585 -13.828703 44.414795
467 0 1 19.118282 -13.059404 44.955597
468 0 1 18.359184 -12.536903 44.795502
469 0 1 18.379784 -12.361563 43.867706
470 0 1 17.456882 -12.346273 43.665802
471 0 1 16.781784 -12.116673 43.114990
472 0 1 16.594883 -11.114962 43.222290
473 0 1 16.896782 -10.350853 42.810913
474 0 1 17.054985 -10.653593 41.858887
475 0 1 17.577984 -10.357822 41.074707
476 0 1 17.686184 -9.694073 40.395599
477 0 1 16.992683 -10.186813 39.986298
478 0 1 16.218082 -10.030804 39.394501
479 0 1 17.055084 -9.657722 39.017883
480 0 1 17.205883 -8.793182 39.544495
481 0 1 16.970581 -7.933894 39.712006
482 0 1 17.429783 -7.766345 38.884399
483 0 1 16.960083 -6.911923 38.624207
484 0 1 16.238483 -7.041644 39.348511
485 0 1 16.350582 -6.051583 39.506805
486 0 1 15.573982 -5.844615 38.898804
487 0 1 14.882282 -5.534554 39.449402
488 0 1 14.026932 -5.100413 39.690002
489 0 1 14.215584 -5.117293 40.652191
490 0 1 14.077423 -4.203913 40.862610
491 0 1 14.914684 -4.527653 41.092896
492 0 1 15.080082 -4.631533 42.048584
493 0 1 15.010983 -4.875523 43.001312
494 0 1 15.228683 -5.149374 43.880096
495 0 1 15.511681 -4.677313 44.713593
496 0 1 16.494781 -4.775763 44.773712
497 0 1 16.975281 -4.264334 44.084290
498 0 1 16.405682 -3.566994 43.749908
499 0 1 15.760284 -2.858576 43.494812
500 0 1 15.755482 -1.966122 43.220306
501 0 1 16.084084 -1.132433 43.410492
502 0 1 16.777985 -0.491614 43.335815
503 0 1 17.648384 -0.262244 43.594910
504 0 1 17.762684 -1.229863 43.588593
505 0 1 18.630585 -1.573735 43.848694
506 0 1 18.861984 -2.050871 43.069092
507 0 1 19.365383 -2.772326 43.445007
508 0 1 20.018383 -2.538891 44.186310
509 0 1 20.788982 -2.808871 43.692993
510 0 1 20.893482 -3.747843 43.443115
511 0 1 20.312283 -3.655413 42.673889
512 0 1 19.747482 -4.428833 42.456696
513 0 1 19.636383 -3.821503 41.670807
514 0 1 19.009682 -3.587054 41.001801
515 0 1 19.264984 -2.706219 41.468597
516 0 1 18.691883 -2.012982 41.272888
517 0 1 18.764683 -1.029093 41.301208
518 0 1 18.161781 -0.726065 40.648407
519 0 1 18.386082 -0.178225 39.842407
520 0 1 18.670883 0.677255 39.525299
521 0 1 18.808685 0.769697 38.599304
522 0 1 19.587582 0.979997 39.136597
523 0 1 19.847282 1.889295 39.179993
524 0 1 19.258881 2.450387 38.548004
525 0 1 19.154182 3.112558 37.879089
526 0 1 18.371284 3.603426 37.747498
527 0 1 18.251785 3.611696 38.695984
528 0 1 17.448284 3.701227 39.295715
529 0 1 16.911884 3.500486 38.567017
530 0 1 16.360882 4.278955 38.410706
531 0 1 16.059181 5.166109 38.249603
532 0 1 16.100983 5.634016 39.073792
533 0 1 15.154785 5.307977 39.193207
534 0 1 14.198631 4.932676 39.235413
535 0 1 14.023003 5.828485 39.604492
536 0 1 13.987083 6.386919 38.775299
537 0 1 13.537304 7.053117 38.342712
538 0 1 13.498093 7.776597 37.661713
539 0 1 12.956093 7.153429 37.133301
540 0 1 12.463413 7.312807 37.974609
541 0 1 12.044163 7.790994 37.196503
542 0 1 11.841194 8.694098 36.867706
543 0 1 11.411972 8.281595 36.069397
544 0 1 10.470062 8.339796 35.629089
545 0 1 9.573853 8.526197 35.818787
546 0 1 8.939632 9.191397 35.640594
547 0 1 8.317413 9.786398 35.175903
548 0 1 7.744842 10.347498 34.649200
549 0 1 6.737712 10.432695 34.557312
550 0 1 6.256032 10.244596 35.377991
551 0 1 5.822410 9.670496 36.016296
552 0 1 5.523979 9.872396 36.949402
553 0 1 5.623987 10.674097 37.541992
554 0 1 5.684116 11.465799 37.005310
555 0 1 6.452613 12.021997 37.202606
556 0 1 6.370941 12.661596 37.996887
557 0 1 6.136543 13.609396 38.379303
558 0 1 6.685993 13.307997 39.081604
559 0 1 5.666431 13.164797 39.162903
560 0 1 5.272640 14.059896 39.024292
561 0 1 5.653036 14.953295 39.482910
562 0 1 6.086252 15.786997 39.529205
563 0 1 6.231422 16.731398 39.319092
564 0 1 6.941703 17.195795 39.724487
565 0 1 6.867252 17.597696 40.605286
566 0 1 6.468593 18.444300 40.309601
567 0 1 6.363601 19.364199 40.735901
568 0 1 7.043014 19.131296 41.493286
569 0 1 7.211372 20.031099 41.720215
570 0 1 6.611392 20.051195 42.455688
571 0 1 6.653232 20.052797 43.382294
572 0 1 7.045143 20.747599 43.971191
573 0 1 7.306262 20.636995 44.820709
574 0 1 7.710403 20.799395 45.687500
575 0 1 6.858531 21.211695 45.717194
576 0 1 7.147594 21.995295 46.212189
577 0 1 7.415271 22.511297 47.006409
578 0 1 7.938312 23.264097 46.946808
579 0 1 8.520782 23.974298 46.584991
580 0 1 7.868423 23.737597 45.904694
581 0 1 7.326801 23.745600 45.151611
582 0 1 6.503692 23.554296 45.548187
583 0 1 5.587821 23.242395 45.708191
584 0 1 5.681953 23.061598 46.646393
585 0 1 5.030771 22.808596 47.359589
586 0 1 4.992977 21.840597 47.164001
587 0 1 5.802196 21.479898 47.237396
588 0 1 6.496574 21.070398 47.788300
589 0 1 6.491451 21.866899 48.368896
590 0 1 7.395561 22.153597 48.426788
591 0 1 7.967582 22.954599 48.606110
592 0 1 8.814392 23.443598 48.420288
593 0 1 8.890633 24.335299 48.812500
594 0 1 9.282692 25.117998 49.032288
595 0 1 10.162632 25.295797 48.590210
596 0 1 10.184612 25.018797 47.628204
597 0 1 10.583565 24.282000 47.960999
598 0 1 11.430275 24.380594 47.560486
599 0 1 12.354733 24.783598 47.497314
600 0 1 13.025894 24.263296 47.827606
601 0 1 13.389294 23.841295 48.582611
602 0 1 12.801083 23.491697 49.232605
603 0 1 13.030533 22.930696 48.482208
604 0 1 12.112633 22.870398 48.057190
605 0 1 12.741371 22.992998 47.330200
606 0 1 13.052002 22.631697 46.556396
607 0 1 14.016205 22.736795 46.854889
608 0 1 13.562775 22.092295 47.437012
609 0 1 12.976395 21.379595 47.362396
610 0 1 12.549011 20.933596 48.156494
611 0 1 12.237625 21.410295 48.958008
612 0 1 12.356304 22.164698 49.475189
613 0 1 12.417614 22.366999 50.464111
614 0 1 12.098083 21.388796 50.606110
615 0 1 12.848801 21.420198 51.202393
616 0 1 13.641884 21.297899 50.581116
617 0 1 13.706093 20.364798 50.429199
618 0 1 12.887413 20.105997 49.944092
619 0 1 12.265663 20.097895 50.683502
620 0 1 12.260113 19.705297 51.614197
621 0 1 12.816502 18.867800 51.434601
622 0 1 13.144661 17.945299 51.674988
623 0 1 12.864662 17.116697 51.278015
624 0 1 12.784023 16.134497 51.503113
625 0 1 13.334991 15.394999 51.769287
626 0 1 13.702431 14.499895 51.858795
627 0 1 13.340874 13.794497 51.298309
628 0 1 13.429642 13.403299 50.454407
629 0 1 12.617592 13.864695 50.594116
630 0 1 12.047913 13.961897 49.851685
631 0 1 12.281384 14.831797 50.205109
632 0 1 12.261864 15.262499 49.323212
633 0 1 11.383305 14.988398 49.100006
634 0 1 10.830944 15.619097 49.575684
635 0 1 10.360432 15.080797 50.249084
636 0 1 9.518772 15.138895 50.755615
637 0 1 9.965782 14.322695 50.804413
638 0 1 10.393814 14.057199 50.022308
639 0 1 9.559902 13.927797 49.558594
640 0 1 9.347572 13.109598 49.156403
641 0 1 8.586563 13.429998 48.681885
642 0 1 8.954681 13.448896 47.811493
643 0 1 8.200771 13.078096 47.263397
644 0 1 8.962952 12.888498 46.789703
645 0 1 9.439995 13.513895 46.337006
646 0 1 8.771652 13.037195 45.758301
647 0 1 8.415604 12.726397 44.872009
648 0 1 7.434623 12.740198 44.665497
649 0 1 8.009224 12.818098 43.841187
650 0 1 8.496262 11.981596 43.543884
651 0 1 7.749374 11.756598 42.981506
652 0 1 7.535793 11.296198 42.231110
653 0 1 6.672294 11.738798 41.957794
654 0 1 5.858373 11.387598 42.272797
655 0 1 5.930873 10.863897 41.495789
656 0 1 6.011312 10.228598 40.739807
657 0 1 6.622283 9.557096 41.098602
658 0 1 6.890354 8.853697 40.501404
659 0 1 6.313623 8.162497 40.869507
660 0 1 5.345356 7.864797 40.675201
661 0 1 4.358585 7.816995 40.697205
662 0 1 3.861742 8.240198 41.427704
663 0 1 3.249622 8.545595 40.755707
664 0 1 3.665483 8.902296 39.956512
665 0 1 3.143213 9.586496 39.516296
666 0 1 2.803052 10.411898 39.220093
667 0 1 2.475502 10.355097 38.269409
668 0 1 2.918943 10.464899 37.361511
669 0 1 3.717762 10.922899 37.067413
670 0 1 4.093345 11.795198 37.092896
671 0 1 4.449413 11.643496 36.214600
672 0 1 4.921878 11.150396 35.511688
673 0 1 4.466217 11.008799 34.683594
674 0 1 4.527755 10.144098 34.166992
675 0 1 4.793745 10.153196 35.101196
676 0 1 3.882390 9.778795 35.144409
677 0 1 3.318632 9.682196 34.437408
678 0 1 2.738073 8.984396 34.185913
679 0 1 3.441352 8.366598 34.225494
680 0 1 3.449012 7.335596 34.202087
681 0 1 3.350822 6.597917 33.628296
682 0 1 2.512893 7.060388 33.570709
683 0 1 1.693073 6.742467 33.122894
684 0 1 1.611202 5.811899 33.262299
685 0 1 0.857793 5.264616 33.647308
686 0 1 1.330923 4.637098 33.010193
687 0 1 1.224262 3.822446 32.402588
688 0 1 0.594482 3.883256 31.642792
689 0 1 0.398332 3.746965 30.719788
690 0 1 0.921653 3.100637 30.262299
691 0 1 1.631082 3.728956 30.075897
692 0 1 0.846153 4.121946 29.715790
693 0 1 0.485961 4.947027 29.742310
694 0 1 -0.312697 5.340116 30.157501
695 0 1 -0.820507 5.823068 29.459503
696 0 1 -1.162777 6.208398 28.724304
697 0 1 -1.334858 5.957098 27.857605
698 0 1 -1.832558 5.124048 27.952911
699 0 1 -1.295178 4.567388 27.432007
700 0 1 -2.123957 4.673505 27.054108
701 0 1 -3.088547 4.517427 26.972809
702 0 1 -3.867907 4.935926 26.716400
703 0 1 -4.181998 4.180807 27.212891
704 0 1 -3.683697 3.428758 27.043701
705 0 1 -3.251687 2.626867 26.802612
706 0 1 -3.455678 1.767488 27.066284
707 0 1 -3.140467 1.883455 27.977112
708 0 1 -3.468607 2.474817 28.717712
709 0 1 -4.360127 2.811925 28.870300
710 0 1 -5.093178 3.121717 29.372894
711 0 1 -4.764388 2.846277 30.214691
712 0 1 -4.506009 2.707338 31.143707
713 0 1 -4.466767 1.721445 31.377502
714 0 1 -5.370118 1.887659 31.032410
715 0 1 -5.507119 1.339487 31.797607
716 0 1 -6.424618 1.204828 31.458496
717 0 1 -7.066918 1.097807 30.707092
718 0 1 -7.821618 0.813337 31.115387
719 0 1 -7.852517 0.593645 32.064514
720 0 1 -7.498118 1.428747 32.245789
721 0 1 -6.968716 1.798078 32.883606
722 0 1 -7.242318 2.458578 32.179993
723 0 1 -6.873917 2.235017 31.303497
724 0 1 -7.217618 3.020708 30.819794
725 0 1 -6.925917 3.384645 29.954102
726 0 1 -6.445517 2.929574 29.161102
727 0 1 -7.253418 2.424245 29.206390
728 0 1 -7.339417 1.829916 28.446991
729 0 1 -7.539517 0.899427 28.337006
730 0 1 -7.767018 0.144735 27.766907
731 0 1 -6.862519 0.063558 27.549988
732 0 1 -6.507018 1.006826 27.518494
733 0 1 -7.224417 1.252855 26.925903
734 0 1 -8.064617 1.750658 26.731903
735 0 1 -7.865117 2.097528 25.820007
736 0 1 -7.936417 1.913896 24.860291
737 0 1 -8.148518 2.420907 24.041199
738 0 1 -9.029716 2.626096 24.405609
739 0 1 -8.968317 3.327047 23.795105
740 0 1 -9.330917 4.178098 23.653992
741 0 1 -8.887318 4.873025 23.175598
742 0 1 -9.808417 5.136568 23.074188
743 0 1 -10.030817 6.031057 23.306885
744 0 1 -9.451218 5.842367 24.100494
745 0 1 -9.024517 6.403108 24.865692
746 0 1 -9.693417 6.521394 25.582886
747 0 1 -9.648216 7.192846 26.206604
748 0 1 -8.842417 7.186525 26.767212
749 0 1 -8.219917 7.889097 26.928009
750 0 1 -7.877717 8.079798 26.080414
751 0 1 -7.187619 7.708894 25.463898
752 0 1 -7.135317 7.443857 24.511200
753 0 1 -7.046917 8.352495 24.202606
754 0 1 -6.403718 8.519495 23.578796
755 0 1 -7.087918 8.164396 23.014313
756 0 1 -7.573918 7.990198 22.133301
757 0 1 -8.496817 7.598867 22.323792
758 0 1 -8.842617 7.198125 21.531998
759 0 1 -9.757117 7.144475 21.847992
760 0 1 -10.126717 7.978696 21.620697
761 0 1 -9.647518 8.669199 21.167099
762 0 1 -8.799717 8.326097 20.797302
763 0 1 -8.067516 7.788396 21.083893
764 0 1 -7.735219 8.299799 20.196106
765 0 1 -7.165017 8.060099 19.477600
766 0 1 -6.767718 7.246027 19.921600
767 0 1 -5.846117 7.582757 19.795593
768 0 1 -5.293217 6.812685 20.001999
769 0 1 -4.857167 6.033838 20.427307
770 0 1 -5.799119 6.048757 20.690201
771 0 1 -6.274518 6.759466 21.177994
772 0 1 -6.426217 6.772806 22.129700
773 0 1 -5.654118 6.288476 22.447906
774 0 1 -4.997107 6.101648 21.729706
775 0 1 -4.123578 5.685888 21.570801
776 0 1 -3.172648 5.971124 21.573395
777 0 1 -2.711628 5.248125 21.150604
778 0 1 -2.274518 4.455316 20.918503
779 0 1 -1.592038 4.924325 20.424500
780 0 1 -0.726658 4.496198 20.585098
781 0 1 0.068082 4.238668 21.118896
782 0 1 0.540554 4.454698 21.889099
783 0 1 0.080452 3.671777 21.964905
784 0 1 -0.173928 4.065637 22.775513
785 0 1 -0.871317 3.547048 23.171204