LAMMPS data file via MDAnalysis

        2000  atoms
        1999  bonds
           0  angles
           0  dihedrals
           0  impropers

           1  atom types
           1  bond types
           0  angle types
           0  dihedral types
           0  improper types

-30.5 30.5 xlo xhi
-30.5 30.5 ylo yhi
-233.5 233.5 zlo zhi


Masses

1 1.000000

Atoms

1 0 1 -26.924101 3.106009 -9.982224
2 0 1 -25.920601 3.061007 -10.066895
3 0 1 -25.213900 2.398367 -9.792923
4 0 1 -25.342600 2.269679 -8.895844
5 0 1 -24.839001 1.415617 -8.878006
6 0 1 -24.530701 0.709487 -8.277435
7 0 1 -24.929201 0.185210 -7.607331
8 0 1 -24.472799 0.836707 -7.037995
9 0 1 -25.275900 1.330527 -6.890625
10 0 1 -24.952200 2.254908 -6.789246
11 0 1 -24.867001 3.194499 -6.591813
12 0 1 -23.993601 3.443038 -6.966187
13 0 1 -23.901300 3.944529 -6.170105
14 0 1 -23.936300 4.528639 -6.926941
15 0 1 -24.536900 4.495108 -7.710389
16 0 1 -24.417999 5.359728 -8.318069
17 0 1 -24.465000 6.324179 -8.161621
18 0 1 -25.396801 6.274329 -8.130295
19 0 1 -25.459400 6.980227 -7.459824
20 0 1 -26.103800 6.234019 -7.280594
21 0 1 -26.627201 6.369978 -8.064133
22 0 1 -27.033300 6.820078 -7.345215
23 0 1 -26.862301 6.286917 -6.526383
24 0 1 -26.491001 5.507807 -6.083436
25 0 1 -25.976000 5.691229 -5.253769
26 0 1 -26.394600 5.154738 -4.567353
27 0 1 -26.110800 4.306368 -4.842072
28 0 1 -25.769800 3.511088 -4.333619
29 0 1 -25.625601 3.772547 -3.444153
30 0 1 -24.823000 3.656897 -2.922455
31 0 1 -24.866501 4.576350 -2.757965
32 0 1 -24.668501 5.185446 -2.036469
33 0 1 -25.611500 5.385569 -1.841904
34 0 1 -25.051500 5.745329 -1.075775
35 0 1 -24.567501 6.116606 -0.362763
36 0 1 -24.806601 6.925227 0.109298
37 0 1 -25.275400 6.271639 0.717987
38 0 1 -25.363501 5.317870 0.828338
39 0 1 -25.751101 4.941336 0.030777
40 0 1 -25.796700 4.779379 -0.908188
41 0 1 -24.962801 4.427058 -1.246750
42 0 1 -24.176600 4.901469 -0.876435
43 0 1 -23.726299 5.292998 -0.132645
44 0 1 -23.440800 6.190928 -0.115174
45 0 1 -23.125601 6.341567 0.725189
46 0 1 -23.467701 5.885008 1.476974
47 0 1 -23.213501 5.080477 1.146194
48 0 1 -23.059101 4.056078 1.195740
49 0 1 -22.581100 3.788268 0.408020
50 0 1 -22.263500 3.156439 1.085525
51 0 1 -21.333601 3.063117 1.225097
52 0 1 -21.156900 3.934126 0.781372
53 0 1 -20.460100 4.122138 1.512512
54 0 1 -19.654600 3.647627 1.800796
55 0 1 -19.827600 2.951628 2.486648
56 0 1 -20.471100 3.630747 2.703583
57 0 1 -20.988901 3.123709 3.376312
58 0 1 -21.859400 3.435259 3.873306
59 0 1 -21.418600 3.907408 4.579727
60 0 1 -21.117100 3.533507 5.418502
61 0 1 -20.977200 2.546576 5.782516
62 0 1 -20.187700 2.831168 6.189544
63 0 1 -20.301300 3.653227 6.614196
64 0 1 -20.368101 3.024336 7.390396
65 0 1 -21.119699 2.827357 8.053146
66 0 1 -21.356199 2.309218 7.259994
67 0 1 -21.302401 1.424609 7.626403
68 0 1 -22.275499 1.507018 7.409652
69 0 1 -22.560600 1.551688 6.511581
70 0 1 -23.202801 0.913508 6.698791
71 0 1 -22.859100 0.646758 5.880691
72 0 1 -23.842100 0.542178 5.864624
73 0 1 -23.996500 0.171130 6.728973
74 0 1 -24.342199 -0.716611 6.853637
75 0 1 -24.744900 -1.446109 7.294693
76 0 1 -24.949301 -0.750741 7.948623
77 0 1 -25.814400 -1.082181 7.584976
78 0 1 -26.210899 -1.966152 7.745117
79 0 1 -26.076401 -2.865331 7.539993
80 0 1 -26.375801 -3.748561 7.269042
81 0 1 -26.058100 -4.669881 7.542541
82 0 1 -25.180700 -5.153112 7.466735
83 0 1 -24.913200 -4.909353 8.365585
84 0 1 -24.359400 -4.119651 8.447906
85 0 1 -24.124001 -4.819023 7.761337
86 0 1 -23.701401 -4.437871 7.012786
87 0 1 -22.929501 -4.931423 6.919677
88 0 1 -21.988300 -4.872692 6.675155
89 0 1 -21.668400 -5.696582 6.371566
90 0 1 -20.769501 -5.468273 5.859634
91 0 1 -20.183701 -5.083622 5.240997
92 0 1 -20.467501 -4.198781 5.312622
93 0 1 -20.059900 -3.856172 4.522705
94 0 1 -19.183401 -3.570861 4.549911
95 0 1 -19.450600 -3.801761 5.496749
96 0 1 -20.151501 -3.280271 5.922622
97 0 1 -19.690401 -2.867483 6.772796
98 0 1 -18.952600 -2.630817 7.400527
99 0 1 -19.591600 -2.056219 7.927932
100 0 1 -19.969200 -1.517997 8.647186
101 0 1 -20.552000 -2.287340 8.866989
102 0 1 -20.264601 -3.063182 9.501190
103 0 1 -19.478901 -3.386682 10.165405
104 0 1 -18.892300 -3.624141 9.390335
105 0 1 -18.886499 -2.857444 8.812134
106 0 1 -19.285000 -3.636062 8.446014
107 0 1 -18.882101 -4.287742 7.924453
108 0 1 -18.655201 -5.167982 8.233932
109 0 1 -18.493601 -5.885011 8.921036
110 0 1 -18.357401 -6.833313 8.930710
111 0 1 -18.852800 -7.262931 9.709244
112 0 1 -19.791300 -7.333902 10.022797
113 0 1 -19.554399 -8.249291 10.330399
114 0 1 -20.469500 -8.170960 10.061996
115 0 1 -20.797600 -8.953931 10.451706
116 0 1 -20.612400 -9.912702 10.491302
117 0 1 -21.335300 -10.674291 10.716904
118 0 1 -22.311100 -10.513041 10.657593
119 0 1 -21.896999 -10.242532 11.548004
120 0 1 -21.090000 -10.809213 11.779907
121 0 1 -21.420601 -11.649541 11.597107
122 0 1 -21.223101 -12.599153 11.702805
123 0 1 -20.652901 -13.002152 11.073196
124 0 1 -20.193800 -12.240750 10.685608
125 0 1 -19.341900 -11.732301 10.649902
126 0 1 -19.017300 -11.495812 11.598694
127 0 1 -19.640100 -11.141152 12.243393
128 0 1 -19.502399 -11.772771 12.957901
129 0 1 -19.008301 -12.504453 13.364395
130 0 1 -18.075201 -12.565152 13.098602
131 0 1 -17.651199 -13.337251 12.694107
132 0 1 -18.046000 -14.022752 12.246307
133 0 1 -18.545700 -14.160352 13.046692
134 0 1 -19.530001 -14.514050 13.242096
135 0 1 -19.531500 -14.441953 14.168793
136 0 1 -18.581600 -14.398351 14.051697
137 0 1 -18.056400 -15.115750 14.398193
138 0 1 -17.601999 -14.384952 14.842697
139 0 1 -16.782501 -14.831752 14.988602
140 0 1 -16.677500 -14.041551 14.384094
141 0 1 -16.049601 -14.053452 13.665802
142 0 1 -15.449801 -13.322951 13.652802
143 0 1 -14.874301 -14.101552 14.001099
144 0 1 -14.820401 -14.947452 14.456100
145 0 1 -14.272700 -15.558553 14.947495
146 0 1 -13.391002 -15.416951 15.318695
147 0 1 -12.538402 -15.407651 14.959595
148 0 1 -11.762500 -15.702851 15.459793
149 0 1 -12.457603 -16.273453 15.821808
150 0 1 -12.333001 -16.800652 16.592194
151 0 1 -11.509200 -17.022852 16.089294
152 0 1 -10.716821 -17.279352 16.653900
153 0 1 -10.574761 -17.447052 15.634399
154 0 1 -9.785691 -17.595652 15.179199
155 0 1 -9.101722 -17.160252 15.652496
156 0 1 -8.932990 -16.180754 15.401794
157 0 1 -7.978690 -16.281853 15.083801
158 0 1 -7.761672 -16.849953 15.852798
159 0 1 -7.698790 -16.166252 16.520508
160 0 1 -7.520630 -15.613351 17.296997
161 0 1 -7.166800 -15.520652 18.188095
162 0 1 -6.873251 -16.491852 18.122803
163 0 1 -6.899861 -17.085552 17.323608
164 0 1 -6.183600 -17.708052 16.983398
165 0 1 -6.375960 -18.540852 17.457703
166 0 1 -6.670451 -19.183252 18.164902
167 0 1 -6.492051 -18.328953 18.637894
168 0 1 -6.170592 -17.500353 18.979797
169 0 1 -5.423621 -18.075352 19.198700
170 0 1 -4.588091 -18.556252 19.028107
171 0 1 -3.942130 -17.918453 19.260696
172 0 1 -3.377822 -17.185852 19.032303
173 0 1 -3.712010 -16.265852 19.212204
174 0 1 -4.582720 -16.621653 19.323608
175 0 1 -5.114481 -17.147552 20.050507
176 0 1 -5.259840 -16.230253 20.003693
177 0 1 -5.663931 -15.376752 19.987000
178 0 1 -4.826031 -15.285550 20.491196
179 0 1 -4.309821 -14.535951 20.323395
180 0 1 -4.198740 -13.816251 19.674606
181 0 1 -3.454150 -14.368051 19.393097
182 0 1 -3.030782 -14.976552 18.801697
183 0 1 -2.529441 -15.124150 19.559402
184 0 1 -2.867680 -15.418351 20.415497
185 0 1 -3.397610 -14.680852 20.876007
186 0 1 -2.489430 -14.369851 21.047501
187 0 1 -1.599385 -14.254352 20.718506
188 0 1 -0.582667 -14.097852 20.685699
189 0 1 -0.220484 -14.264352 21.633804
190 0 1 -0.317841 -15.035451 21.114395
191 0 1 -0.086247 -15.723752 20.478806
192 0 1 -0.764022 -16.424452 20.355698
193 0 1 -0.402421 -16.532951 19.415298
194 0 1 0.190629 -16.804953 20.186203
195 0 1 -0.386286 -17.598852 20.223907
196 0 1 -0.909917 -18.382252 20.274506
197 0 1 -1.064305 -18.425152 19.353104
198 0 1 -1.830750 -18.285252 18.763504
199 0 1 -2.421290 -17.800053 18.211502
200 0 1 -2.460171 -18.751352 18.226501
201 0 1 -2.237910 -19.164953 19.019104
202 0 1 -2.417201 -20.097752 19.142197
203 0 1 -1.505383 -20.340052 19.194901
204 0 1 -1.733084 -20.964352 19.932205
205 0 1 -1.218011 -20.211252 20.204895
206 0 1 -0.736519 -19.681152 20.882294
207 0 1 -0.606049 -19.790953 21.873108
208 0 1 0.173700 -20.152653 21.380203
209 0 1 1.016931 -19.750853 21.385605
210 0 1 1.098310 -18.831352 21.786194
211 0 1 1.401441 -18.940952 22.738586
212 0 1 1.800889 -19.753853 23.065308
213 0 1 2.299199 -20.520752 22.689087
214 0 1 3.179521 -20.226353 22.250198
215 0 1 3.748510 -19.458853 22.169495
216 0 1 4.328821 -18.890753 22.760406
217 0 1 5.202310 -18.593353 22.415009
218 0 1 5.824430 -18.015852 22.013092
219 0 1 6.357111 -18.593653 22.552185
220 0 1 6.740808 -17.766453 22.578491
221 0 1 7.071939 -16.984251 22.046402
222 0 1 8.030568 -17.139551 21.870392
223 0 1 8.540170 -17.501652 21.181900
224 0 1 9.098870 -17.748152 20.491104
225 0 1 9.585801 -18.396753 19.957794
226 0 1 9.580499 -18.704552 20.829498
227 0 1 8.697511 -18.905752 20.445496
228 0 1 8.612699 -19.816153 20.605301
229 0 1 8.394761 -20.800253 20.612595
230 0 1 9.219998 -20.943052 20.025894
231 0 1 9.217298 -21.444853 19.210907
232 0 1 9.269300 -20.904852 18.444702
233 0 1 9.588998 -21.539253 17.797104
234 0 1 9.494100 -20.725752 17.248703
235 0 1 9.697999 -20.911852 16.263092
236 0 1 10.567800 -20.919552 16.548492
237 0 1 10.787698 -20.589653 15.641205
238 0 1 10.079999 -20.443953 15.023697
239 0 1 10.262700 -20.412052 14.061798
240 0 1 10.728200 -19.602852 14.358994
241 0 1 10.224801 -19.108852 15.086395
242 0 1 9.790399 -18.364653 15.373108
243 0 1 9.983300 -18.617952 16.272400
244 0 1 10.967797 -18.417452 16.075897
245 0 1 11.252801 -17.692652 16.619598
246 0 1 10.801499 -16.872152 16.941498
247 0 1 11.087899 -16.381351 17.674103
248 0 1 10.412099 -16.192652 18.338501
249 0 1 10.816400 -15.759952 19.110992
250 0 1 11.210900 -16.185251 19.811707
251 0 1 12.104997 -15.810750 19.689697
252 0 1 12.639798 -15.009252 19.907196
253 0 1 13.509797 -15.458852 19.841995
254 0 1 13.801099 -15.836051 18.997406
255 0 1 14.161099 -15.025750 18.425293
256 0 1 14.531098 -15.394551 17.658600
257 0 1 15.489499 -15.646451 17.718994
258 0 1 15.862599 -15.053552 18.375793
259 0 1 16.024599 -14.553151 19.158203
260 0 1 15.544000 -15.087451 19.879608
261 0 1 14.897199 -15.456651 20.405502
262 0 1 14.686601 -16.354452 20.742096
263 0 1 14.766099 -17.302153 20.837296
264 0 1 13.796197 -17.240952 20.849594
265 0 1 13.601598 -16.347452 21.190598
266 0 1 12.546399 -16.373451 21.242401
267 0 1 12.550698 -16.500051 22.238495
268 0 1 12.721597 -16.073053 23.178314
269 0 1 11.890298 -15.504651 23.130890
270 0 1 12.676198 -14.957852 22.924805
271 0 1 12.537698 -14.058452 23.144592
272 0 1 12.838601 -13.104451 23.084290
273 0 1 13.245099 -12.925252 22.264206
274 0 1 13.792001 -13.440652 21.700897
275 0 1 14.567201 -13.964252 21.781906
276 0 1 14.566400 -13.462852 22.581116
277 0 1 14.221799 -13.292050 23.469299
278 0 1 14.396897 -12.373651 23.681305
279 0 1 15.247399 -12.740052 23.446106
280 0 1 16.211802 -12.326951 23.394104
281 0 1 16.474298 -11.462632 23.075897
282 0 1 17.152800 -11.560990 23.755005
283 0 1 16.521997 -11.118852 24.274597
284 0 1 15.643601 -10.849603 24.059814
285 0 1 15.336701 -10.174581 24.763702
286 0 1 15.912198 -9.611491 25.326416
287 0 1 16.164000 -8.707532 25.352509
288 0 1 16.769800 -8.048722 25.074890
289 0 1 17.405703 -8.068492 25.792114
290 0 1 17.215601 -7.405662 26.497314
291 0 1 16.808397 -6.573011 26.831116
292 0 1 16.030600 -6.240263 26.257904
293 0 1 15.790299 -5.294332 26.294495
294 0 1 16.478300 -4.974882 25.798584
295 0 1 17.265497 -4.543972 25.476898
296 0 1 17.836500 -3.997482 26.078888
297 0 1 18.140001 -3.301221 25.504700
298 0 1 18.604998 -2.823293 24.848602
299 0 1 18.522303 -1.880870 24.424713
300 0 1 17.777102 -1.974834 23.772888
301 0 1 17.189402 -2.672651 23.439087
302 0 1 16.274000 -2.650808 23.301300
303 0 1 16.556700 -1.698776 23.482086
304 0 1 16.056299 -0.925586 22.968689
305 0 1 16.297098 -0.671993 23.826416
306 0 1 15.338700 -0.772161 23.902893
307 0 1 14.454598 -0.980689 23.427002
308 0 1 14.728299 -1.707408 22.866608
309 0 1 14.270501 -1.575910 22.040695
310 0 1 14.785897 -0.808021 21.791901
311 0 1 14.339299 0.006877 21.953094
312 0 1 14.750798 0.849387 22.305099
313 0 1 14.994401 1.632769 21.781906
314 0 1 14.721799 0.923728 21.132797
315 0 1 13.848397 0.739188 20.625198
316 0 1 12.946198 0.565768 20.995605
317 0 1 12.174298 1.017558 20.590195
318 0 1 12.090501 1.255408 19.656799
319 0 1 12.826798 1.897540 19.704407
320 0 1 12.779099 1.765059 18.771896
321 0 1 13.765798 1.837927 18.995300
322 0 1 14.333699 1.759928 18.202698
323 0 1 14.146398 1.908289 17.322403
324 0 1 13.670899 1.307257 16.737000
325 0 1 14.333497 0.790469 16.384705
326 0 1 13.587998 0.919848 15.774506
327 0 1 13.389398 1.508727 15.031998
328 0 1 13.695001 1.782778 14.185608
329 0 1 14.012597 2.562666 13.731003
330 0 1 13.686601 3.216090 14.321594
331 0 1 14.610497 3.658476 14.111603
332 0 1 14.990098 2.908827 13.639603
333 0 1 15.312799 2.629878 14.545700
334 0 1 15.374597 2.803206 15.488693
335 0 1 16.122099 3.215666 15.889496
336 0 1 16.884199 3.385977 15.205795
337 0 1 17.777201 3.822917 14.902893
338 0 1 18.250002 3.417510 14.137405
339 0 1 19.109900 3.789927 14.479294
340 0 1 19.746302 4.094550 13.912903
341 0 1 19.505301 4.348750 13.037292
342 0 1 18.652201 4.629988 13.424805
343 0 1 17.934500 4.815680 14.086395
344 0 1 17.708002 5.758189 13.951401
345 0 1 17.539301 5.846167 14.914398
346 0 1 18.286100 5.749190 15.588303
347 0 1 18.640497 6.244048 14.869003
348 0 1 18.623499 6.426768 13.917099
349 0 1 19.037500 6.900076 13.173599
350 0 1 19.036798 7.293089 12.290894
351 0 1 19.834902 6.651797 12.445297
352 0 1 20.395700 7.241400 12.930801
353 0 1 21.072100 6.863478 13.554306
354 0 1 20.943697 5.953677 13.844803
355 0 1 21.408602 5.804358 13.010895
356 0 1 21.779497 6.245726 12.236404
357 0 1 20.998899 5.889777 12.000305
358 0 1 20.188700 5.486746 11.674103
359 0 1 19.223902 5.182707 11.818893
360 0 1 18.434401 4.700648 11.496307
361 0 1 17.500002 4.530280 11.723999
362 0 1 16.991499 4.006487 11.134506
363 0 1 16.243998 4.097289 10.546402
364 0 1 16.095301 3.241457 11.068497
365 0 1 15.364999 2.635027 10.881302
366 0 1 15.399999 2.103289 10.093796
367 0 1 15.316201 1.454306 10.835800
368 0 1 16.278200 1.461749 11.158401
369 0 1 16.195299 0.604327 11.562698
370 0 1 16.251001 -0.020631 12.325302
371 0 1 15.638497 -0.504121 11.675797
372 0 1 15.225801 -1.307567 11.292099
373 0 1 14.721398 -2.164390 11.439804
374 0 1 14.062097 -2.661378 10.902405
375 0 1 13.222699 -2.903303 11.317398
376 0 1 13.709199 -3.559362 11.800095
377 0 1 14.147599 -4.069171 12.568100
378 0 1 14.845201 -3.540033 12.283295
379 0 1 15.629197 -3.373691 11.739105
380 0 1 16.374800 -3.573522 11.090195
381 0 1 16.844202 -3.408422 11.879700
382 0 1 16.402800 -3.127891 12.718796
383 0 1 16.675402 -2.332975 13.217194
384 0 1 16.346800 -2.365530 14.110306
385 0 1 17.022699 -2.313619 14.912994
386 0 1 17.809801 -1.742488 15.234406
387 0 1 17.556498 -1.145814 14.516998
388 0 1 17.212297 -1.191577 13.632797
389 0 1 16.310602 -1.392349 13.656601
390 0 1 15.568398 -1.410829 13.048096
391 0 1 15.465299 -0.639232 13.568207
392 0 1 14.519300 -0.479303 13.568100
393 0 1 13.685498 -0.768371 13.216293
394 0 1 13.708600 -0.846221 12.264694
395 0 1 13.575200 -0.704193 11.359406
396 0 1 13.596898 0.275729 11.554993
397 0 1 13.006898 0.561026 10.854492
398 0 1 12.334599 -0.090623 10.540802
399 0 1 11.563897 -0.072301 9.891083
400 0 1 11.147500 0.767607 9.712387
401 0 1 11.673699 1.509829 9.394745
402 0 1 11.462598 2.280978 8.801697
403 0 1 12.121598 2.839159 8.232925
404 0 1 11.813798 2.569289 7.377197
405 0 1 11.185098 1.944918 6.993606
406 0 1 10.707101 2.136427 7.845825
407 0 1 9.814897 2.239909 7.509536
408 0 1 9.854798 2.626849 8.338943
409 0 1 9.909799 3.557967 7.972854
410 0 1 9.199998 3.974299 7.369400
411 0 1 9.454698 4.924017 7.313507
412 0 1 8.493360 4.951418 7.347396
413 0 1 8.410718 4.561476 8.202026
414 0 1 8.197221 4.302199 9.113174
415 0 1 7.452287 4.543559 9.635498
416 0 1 7.118158 5.395739 10.005096
417 0 1 7.960802 5.702887 10.413406
418 0 1 7.851530 5.179808 11.193695
419 0 1 6.974241 4.811369 11.187500
420 0 1 6.221868 5.217368 11.673996
421 0 1 5.305391 5.003779 11.303696
422 0 1 5.349729 4.122748 11.646301
423 0 1 4.822050 4.453738 12.412003
424 0 1 5.542070 3.982859 13.042206
425 0 1 5.309869 3.087859 12.941101
426 0 1 5.595701 2.472598 13.664001
427 0 1 5.384218 1.697218 14.137894
428 0 1 5.211080 2.051680 15.032196
429 0 1 5.851778 2.743639 15.490494
430 0 1 4.987100 2.855288 15.992004
431 0 1 5.100450 3.780669 15.668594
432 0 1 4.508329 4.074858 16.410294
433 0 1 3.572870 4.314688 16.368301
434 0 1 4.122671 5.083689 16.556702
435 0 1 3.283151 5.400927 16.809998
436 0 1 2.900090 6.254530 17.151505
437 0 1 3.236688 6.449378 18.032303
438 0 1 2.585508 7.083529 18.362106
439 0 1 3.231389 7.071600 19.142105
440 0 1 2.954629 6.547328 19.970306
441 0 1 2.326730 6.029658 20.377304
442 0 1 3.036847 6.079829 21.101898
443 0 1 3.205499 5.254557 20.594604
444 0 1 3.424009 5.590537 19.710403
445 0 1 4.316778 5.505538 20.143295
446 0 1 5.188699 5.238719 19.965500
447 0 1 5.470388 4.656470 19.187103
448 0 1 5.267358 4.102728 19.906708
449 0 1 4.535028 3.955847 19.300003
450 0 1 3.988439 3.222800 19.102005
451 0 1 4.102060 2.300269 18.736908
452 0 1 3.223058 2.162810 18.231094
453 0 1 2.960210 2.521258 17.399506
454 0 1 3.105661 2.046629 16.532303
455 0 1 2.185308 2.197237 16.378098
456 0 1 1.205190 2.035067 16.606003
457 0 1 1.677358 1.690287 17.371399
458 0 1 1.195951 1.009669 17.849594
459 0 1 0.451759 1.532397 17.625092
460 0 1 -0.003319 2.233519 18.076797
461 0 1 -0.355149 3.141940 17.648895
462 0 1 -0.007758 4.045340 17.718201
463 0 1 0.297149 4.765048 18.261703
464 0 1 0.766481 5.507906 18.580200
465 0 1 1.376489 5.215579 17.804001
466 0 1 1.737310 4.995329 18.700394
467 0 1 2.076070 4.443640 19.438004
468 0 1 1.893728 3.523726 19.104996
469 0 1 0.981119 3.701888 19.010406
470 0 1 0.489889 3.351237 19.730103
471 0 1 0.388688 2.454829 20.095795
472 0 1 1.217050 2.115500 20.380096
473 0 1 2.088941 1.832507 20.129501
474 0 1 1.938379 1.250487 19.317596
475 0 1 2.492280 0.521899 19.409698
476 0 1 2.926240 1.304320 19.722900
477 0 1 3.738378 0.959418 19.232605
478 0 1 4.645429 0.927260 19.015701
479 0 1 4.819150 0.001799 19.311996
480 0 1 4.748460 -0.879186 18.908401
481 0 1 3.891969 -0.733222 19.224197
482 0 1 3.677560 -0.085420 19.909897
483 0 1 2.894578 0.115298 20.332397
484 0 1 2.633340 -0.669733 20.830704
485 0 1 1.924428 -1.066488 21.383606
486 0 1 2.617589 -1.202663 22.042404
487 0 1 2.346917 -2.149457 21.918900
488 0 1 2.247800 -3.020011 22.336105
489 0 1 2.296678 -2.650020 23.223114
490 0 1 2.796758 -1.841419 22.998596
491 0 1 3.742208 -1.976673 22.988312
492 0 1 3.956109 -1.660602 22.076294
493 0 1 4.546529 -1.531747 21.260498
494 0 1 4.924409 -2.413347 21.557602
495 0 1 4.719369 -3.198381 22.093094
496 0 1 4.042631 -3.615503 21.540405
497 0 1 3.940278 -4.508832 21.235107
498 0 1 3.608041 -5.046953 21.956406
499 0 1 3.185560 -5.913332 22.053101
500 0 1 2.687738 -6.440191 21.401199
501 0 1 1.923730 -5.836181 21.409897
502 0 1 1.309190 -5.658561 20.684006
503 0 1 1.683801 -6.534341 20.510406
504 0 1 1.866628 -7.426961 20.683701
505 0 1 2.379468 -7.733541 21.475098
506 0 1 2.505090 -8.347402 20.665802
507 0 1 1.588819 -8.426621 20.979095
508 0 1 0.842409 -7.916063 20.666992
509 0 1 0.602929 -8.587731 21.325302
510 0 1 0.124816 -8.510461 22.215302
511 0 1 -0.353217 -9.184503 22.772797
512 0 1 -0.447077 -10.033742 22.334808
513 0 1 0.052516 -10.545451 21.641800
514 0 1 0.382718 -10.989911 20.884201
515 0 1 -0.390267 -11.400212 20.412201
516 0 1 -1.093863 -10.811650 20.229599
517 0 1 -2.063111 -10.731812 19.975800
518 0 1 -2.590131 -10.218581 19.233002
519 0 1 -3.243220 -10.940902 19.395294
520 0 1 -2.631121 -11.614141 19.384796
521 0 1 -2.236300 -11.575881 18.487198
522 0 1 -1.445923 -11.985353 18.132294
523 0 1 -0.490170 -12.163852 18.228195
524 0 1 0.304429 -11.741452 18.544098
525 0 1 0.495719 -12.384252 19.238007
526 0 1 0.939000 -12.693452 20.026001
527 0 1 0.856290 -11.723302 20.087006
528 0 1 1.661229 -11.209203 20.187592
529 0 1 1.763898 -10.264112 19.976700
530 0 1 2.611478 -9.997872 20.178604
531 0 1 3.456201 -10.218560 19.730606
532 0 1 4.267320 -10.228890 19.146301
533 0 1 4.409021 -9.943063 20.050400
534 0 1 4.049230 -9.195882 20.510803
535 0 1 3.720521 -9.994161 20.949707
536 0 1 4.544000 -9.676402 21.322098
537 0 1 3.960130 -9.721381 22.055801
538 0 1 3.850328 -10.607501 22.295593
539 0 1 3.997838 -10.309991 23.148315
540 0 1 3.931390 -9.390632 23.375702
541 0 1 3.270128 -9.059201 22.759705
542 0 1 2.392068 -9.206780 23.136597
543 0 1 2.151670 -8.283692 22.909210
544 0 1 2.195897 -7.385353 23.105286
545 0 1 2.460328 -7.462541 24.048187
546 0 1 2.274728 -6.955961 24.846985
547 0 1 1.954488 -6.950572 25.723511
548 0 1 2.260511 -7.316932 26.600586
549 0 1 3.062051 -7.325132 27.098511
550 0 1 4.003831 -7.224782 26.802490
551 0 1 4.850900 -7.664743 26.926697
552 0 1 5.121191 -7.987661 27.788513
553 0 1 4.782560 -8.714801 27.244507
554 0 1 5.497579 -9.101300 27.705994
555 0 1 6.103731 -8.569831 28.302795
556 0 1 5.335050 -8.410842 28.866302
557 0 1 6.103830 -8.573821 29.519806
558 0 1 5.591089 -9.267312 29.876099
559 0 1 6.502321 -9.502452 30.148499
560 0 1 7.182191 -8.943032 30.054688
561 0 1 7.269678 -8.153062 30.619690
562 0 1 6.593778 -8.153211 31.279388
563 0 1 5.680318 -7.867181 31.183105
564 0 1 4.833780 -7.547033 31.663513
565 0 1 4.721139 -7.847322 32.526398
566 0 1 3.808221 -7.669181 32.415802
567 0 1 3.151338 -7.983062 31.782593
568 0 1 3.516320 -8.195842 30.915405
569 0 1 2.939359 -8.644021 30.362701
570 0 1 2.256780 -8.161582 29.799896
571 0 1 2.959028 -7.608263 29.420013
572 0 1 2.730298 -6.732801 29.034698
573 0 1 3.704667 -6.292032 29.209808
574 0 1 4.144220 -6.029481 28.387512
575 0 1 4.220010 -5.943471 27.440704
576 0 1 4.460310 -5.115242 27.943207
577 0 1 5.182859 -5.579412 28.389709
578 0 1 5.685209 -5.117813 27.750305
579 0 1 6.655439 -4.970903 27.835907
580 0 1 6.459051 -5.856401 27.537292
581 0 1 7.150259 -6.449823 27.742706
582 0 1 7.572969 -5.701152 28.246216
583 0 1 8.568917 -5.760372 28.307892
584 0 1 9.061208 -6.188402 27.615997
585 0 1 9.501199 -5.727663 26.912109
586 0 1 10.011098 -6.249853 26.283997
587 0 1 10.364198 -6.330732 27.195007
588 0 1 10.608399 -5.469661 26.882202
589 0 1 10.570397 -4.509111 26.645905
590 0 1 10.598500 -4.785581 25.728210
591 0 1 11.175698 -5.093233 25.043304
592 0 1 11.739499 -5.816732 25.234100
593 0 1 11.723798 -5.389482 26.100098
594 0 1 11.724198 -4.430912 26.336090
595 0 1 12.388700 -4.094781 26.917786
596 0 1 12.810098 -4.144372 26.108612
597 0 1 13.170598 -4.938772 26.401489
598 0 1 13.059598 -5.691461 27.021210
599 0 1 13.143800 -6.678071 27.103607
600 0 1 12.677400 -7.001581 27.903198
601 0 1 13.204000 -7.378812 28.659088
602 0 1 13.010198 -8.293401 28.368195
603 0 1 12.338399 -8.802032 28.939087
604 0 1 12.956300 -8.661931 29.652100
605 0 1 12.611299 -7.772851 29.879700
606 0 1 11.672700 -7.718233 29.867004
607 0 1 11.159097 -7.010473 30.460114
608 0 1 10.675897 -6.357711 31.020813
609 0 1 9.939401 -6.851081 30.651489
610 0 1 9.627599 -6.149591 31.140411
611 0 1 9.844800 -6.140993 32.103912
612 0 1 10.187898 -5.392633 32.636902
613 0 1 9.357598 -5.031923 32.849609
614 0 1 8.830358 -5.486892 33.540802
615 0 1 8.053380 -5.412961 34.092896
616 0 1 7.055540 -5.293802 34.001801
617 0 1 6.624490 -6.192071 34.300201
618 0 1 6.036310 -5.966201 35.116394
619 0 1 5.384019 -5.990802 35.782410
620 0 1 5.550401 -6.827861 36.176605
621 0 1 4.843198 -7.460472 36.520111
622 0 1 5.503690 -8.094583 36.973511
623 0 1 5.642980 -7.232183 37.466095
624 0 1 6.175798 -6.708921 38.036194
625 0 1 5.760549 -5.842742 38.309204
626 0 1 5.901868 -4.914981 38.581909
627 0 1 6.776781 -5.211462 38.465210
628 0 1 6.835760 -4.535781 37.683197
629 0 1 6.045499 -3.971622 37.889099
630 0 1 5.233289 -4.161582 37.333496
631 0 1 5.331518 -3.255062 36.871490
632 0 1 4.591291 -2.858703 36.405304
633 0 1 4.433118 -3.767732 36.284210
634 0 1 3.526757 -3.824481 36.028198
635 0 1 2.800538 -4.217872 36.468506
636 0 1 2.212461 -4.047122 35.696899
637 0 1 2.038388 -4.422422 34.779694
638 0 1 1.465570 -3.699941 34.545105
639 0 1 1.065988 -3.095651 35.107208
640 0 1 0.510059 -3.839521 35.345093
641 0 1 0.329278 -4.779642 35.275513
642 0 1 0.596738 -4.946222 36.260590
643 0 1 -0.150880 -5.653411 36.111603
644 0 1 -0.832614 -5.434423 35.460815
645 0 1 -1.128501 -4.534881 35.670593
646 0 1 -1.614340 -4.768762 34.881897
647 0 1 -1.896630 -5.597982 34.503784
648 0 1 -2.629142 -5.015512 34.264709
649 0 1 -2.825331 -4.803752 35.250183
650 0 1 -3.067731 -3.894842 35.495697
651 0 1 -3.801890 -4.447202 36.027893
652 0 1 -4.574891 -4.594001 35.429291
653 0 1 -4.976710 -3.984613 34.792999
654 0 1 -4.938300 -3.721761 33.831512
655 0 1 -5.063300 -4.639892 33.770111
656 0 1 -4.819972 -5.210311 33.025909
657 0 1 -4.324261 -5.914072 32.519104
658 0 1 -3.384131 -6.095041 32.423798
659 0 1 -2.985991 -6.512882 33.261200
660 0 1 -2.112740 -6.721971 33.695099
661 0 1 -1.745612 -6.968711 34.546204
662 0 1 -2.527711 -7.535242 34.698792
663 0 1 -3.241530 -8.124942 34.346588
664 0 1 -4.022582 -8.139861 34.921997
665 0 1 -4.173861 -9.020341 34.530701
666 0 1 -5.075930 -8.793271 34.982208
667 0 1 -4.666611 -9.613942 35.164001
668 0 1 -5.303360 -10.248700 35.513092
669 0 1 -5.029280 -10.677590 34.654694
670 0 1 -5.534581 -9.952912 34.232391
671 0 1 -6.300372 -10.024901 33.577209
672 0 1 -5.843691 -10.599332 32.971893
673 0 1 -5.339461 -10.855821 32.185699
674 0 1 -4.626381 -11.498403 32.090210
675 0 1 -4.367480 -12.404052 32.454102
676 0 1 -4.448021 -13.357251 32.632385
677 0 1 -4.257950 -13.216851 31.742706
678 0 1 -5.071091 -13.771651 31.643616
679 0 1 -5.946162 -13.516051 31.369904
680 0 1 -6.448561 -13.688651 30.619110
681 0 1 -6.531950 -12.770051 30.287811
682 0 1 -6.419569 -11.851510 29.956512
683 0 1 -6.879700 -12.029252 29.048706
684 0 1 -7.380301 -11.517922 28.457397
685 0 1 -8.260652 -11.427632 27.807800
686 0 1 -7.600642 -11.263513 27.051300
687 0 1 -6.707760 -11.422563 27.337097
688 0 1 -5.938170 -11.836211 27.765198
689 0 1 -5.152781 -11.591821 28.224915
690 0 1 -4.268321 -11.228711 28.550995
691 0 1 -4.469550 -10.392442 29.212585
692 0 1 -5.192820 -9.721402 29.378296
693 0 1 -5.687251 -9.244752 28.582794
694 0 1 -5.884291 -10.162992 28.278290
695 0 1 -6.750960 -10.144872 27.791016
696 0 1 -7.302861 -9.884461 28.522186
697 0 1 -7.374461 -8.890792 28.403107
698 0 1 -8.163791 -8.451201 28.564514
699 0 1 -8.988532 -8.249520 29.054199
700 0 1 -8.407210 -8.766631 29.605286
701 0 1 -8.894740 -8.013551 30.028595
702 0 1 -8.142112 -7.556741 29.567902
703 0 1 -8.348641 -6.649353 29.991791
704 0 1 -8.934171 -6.124652 29.385803
705 0 1 -8.813371 -5.200462 29.436096
706 0 1 -9.131631 -5.147583 30.312286
707 0 1 -8.748950 -4.840513 31.151886
708 0 1 -9.429681 -4.489982 31.669708
709 0 1 -10.277900 -4.423772 32.102692
710 0 1 -10.693782 -3.746912 32.587189
711 0 1 -10.676421 -2.851783 32.951111
712 0 1 -11.481801 -2.582660 32.494110
713 0 1 -12.180902 -2.004583 32.150604
714 0 1 -12.918302 -2.378267 31.655884
715 0 1 -12.841901 -3.271802 31.975891
716 0 1 -13.158801 -3.470752 32.872711
717 0 1 -13.438901 -2.593137 32.631805
718 0 1 -12.922101 -2.390798 33.422485
719 0 1 -12.934701 -1.624704 34.002991
720 0 1 -12.963901 -0.746082 34.425690
721 0 1 -12.556102 -0.201570 33.812317
722 0 1 -11.763301 -0.708242 33.804993
723 0 1 -11.402102 0.074038 34.336792
724 0 1 -10.541282 -0.423522 34.218384
725 0 1 -9.622941 -0.736722 34.344391
726 0 1 -9.606271 0.196288 34.428589
727 0 1 -8.685790 0.001097 34.658905
728 0 1 -9.007670 0.887530 34.632202
729 0 1 -8.801452 0.677638 33.698486
730 0 1 -8.416701 1.552397 33.845612
731 0 1 -9.074462 1.840918 33.184113
732 0 1 -9.181321 2.015318 32.263916
733 0 1 -8.797980 1.079619 32.236389
734 0 1 -9.142982 0.606810 31.452209
735 0 1 -9.362201 0.890128 30.549194
736 0 1 -10.365451 0.973116 30.748291
737 0 1 -10.520930 1.961089 30.509308
738 0 1 -11.083901 2.768218 30.566284
739 0 1 -11.247802 3.428618 31.183990
740 0 1 -11.435601 3.424487 32.111694
741 0 1 -12.150401 3.353167 32.825806
742 0 1 -12.589301 3.550749 31.992401
743 0 1 -12.981801 4.484766 31.845795
744 0 1 -13.271401 4.754607 30.942810
745 0 1 -13.267501 4.686259 30.002808
746 0 1 -13.881501 3.982756 30.161102
747 0 1 -14.673202 3.656409 29.697906
748 0 1 -13.996802 3.570220 29.125610
749 0 1 -13.798701 2.647089 29.065491
750 0 1 -13.228202 1.960227 29.439606
751 0 1 -12.795201 1.154738 29.068695
752 0 1 -12.536101 0.581488 28.291809
753 0 1 -13.072301 0.747168 27.480988
754 0 1 -13.917701 0.584837 27.959503
755 0 1 -14.473802 0.816119 27.298004
756 0 1 -14.609401 1.739478 27.505707
757 0 1 -13.757800 2.031577 27.918701
758 0 1 -13.116702 2.490328 27.420807
759 0 1 -13.025001 3.020739 26.600494
760 0 1 -12.704101 3.003600 25.660492
761 0 1 -13.547400 3.454459 25.695801
762 0 1 -13.967002 2.540556 25.417603
763 0 1 -14.934302 2.758528 25.129608
764 0 1 -14.930701 2.211310 25.929016
765 0 1 -15.075000 1.517058 26.550995
766 0 1 -15.888001 0.909018 26.725189
767 0 1 -16.648701 1.487467 26.399902
768 0 1 -17.250299 1.614127 27.134186
769 0 1 -17.188301 2.352999 27.783295
770 0 1 -17.321199 3.314147 27.798309
771 0 1 -18.002300 3.453619 28.532104
772 0 1 -17.613501 4.284998 28.886688
773 0 1 -17.444099 4.765978 29.719391
774 0 1 -17.226700 5.533049 30.264313
775 0 1 -17.667999 5.651846 31.190613
776 0 1 -17.196800 4.735308 31.322815
777 0 1 -17.138599 3.834509 30.958191
778 0 1 -17.106600 3.675589 31.826508
779 0 1 -18.032700 3.564887 31.528809
780 0 1 -18.651800 2.867297 31.344116
781 0 1 -19.542700 2.740359 31.640106
782 0 1 -19.988501 3.332568 31.020294
783 0 1 -19.332600 2.993536 30.378693
784 0 1 -20.076700 3.287699 29.803101
785 0 1 -19.420200 3.951308 30.038391
786 0 1 -18.938301 4.118647 29.289093