LAMMPS data file via MDAnalysis

        2000  atoms
        1999  bonds
           0  angles
           0  dihedrals
           0  impropers

           1  atom types
           1  bond types
           0  angle types
           0  dihedral types
           0  improper types

-30.5 30.5 xlo xhi
-30.5 30.5 ylo yhi
-233.5 233.5 zlo zhi


Masses

1 1.000000

Atoms

1 0 1 -20.667448 -2.829231 44.354095
2 0 1 -20.343048 -3.646112 44.771606
3 0 1 -20.138649 -4.182512 45.602783
4 0 1 -19.880848 -4.038721 46.516907
5 0 1 -19.137949 -3.987352 47.227112
6 0 1 -20.053648 -4.360761 47.453308
7 0 1 -20.824448 -4.985111 47.558502
8 0 1 -21.752748 -4.994531 47.301514
9 0 1 -22.559349 -4.536710 47.625183
10 0 1 -21.960049 -3.927822 48.048401
11 0 1 -21.971348 -3.114002 47.573608
12 0 1 -21.135548 -3.456981 47.389099
13 0 1 -21.145849 -3.083520 46.523499
14 0 1 -21.546648 -2.445241 45.924103
15 0 1 -21.661449 -2.715501 45.040100
16 0 1 -22.588949 -2.765512 44.815704
17 0 1 -23.559849 -2.671762 44.582214
18 0 1 -24.491449 -2.606641 44.689087
19 0 1 -24.434549 -2.151012 43.727783
20 0 1 -23.977249 -1.349740 43.590607
21 0 1 -23.130648 -1.584522 43.305389
22 0 1 -22.265249 -1.252311 43.222290
23 0 1 -21.604149 -1.835531 42.810089
24 0 1 -21.813349 -2.604902 43.350098
25 0 1 -21.511749 -3.558961 43.416901
26 0 1 -21.436949 -4.484342 43.280396
27 0 1 -20.537449 -4.755762 43.386108
28 0 1 -19.714449 -5.043022 43.782501
29 0 1 -19.195549 -5.131982 44.635712
30 0 1 -18.378349 -4.926921 44.106201
31 0 1 -17.805750 -5.352611 44.835388
32 0 1 -16.925049 -5.475791 44.341095
33 0 1 -16.513649 -5.265312 45.204193
34 0 1 -15.625051 -5.144071 45.549103
35 0 1 -15.305848 -5.764381 46.119904
36 0 1 -15.096848 -6.474332 45.572296
37 0 1 -16.039148 -6.603410 45.883392
38 0 1 -16.611149 -7.066473 45.238007
39 0 1 -17.334450 -7.147760 45.915192
40 0 1 -16.854549 -7.550592 46.648590
41 0 1 -15.904349 -7.626701 46.466492
42 0 1 -15.707549 -8.518441 46.291595
43 0 1 -15.375249 -8.984040 47.081390
44 0 1 -14.522950 -8.841241 47.492096
45 0 1 -14.288150 -8.826140 48.431488
46 0 1 -14.031549 -9.275041 49.219604
47 0 1 -14.300950 -10.069440 49.716003
48 0 1 -13.542748 -10.278541 49.118500
49 0 1 -12.874240 -9.953240 49.673096
50 0 1 -12.505361 -10.143941 50.542297
51 0 1 -11.797120 -9.536542 50.832489
52 0 1 -10.901990 -9.665841 51.020905
53 0 1 -11.360150 -10.129241 50.202911
54 0 1 -11.124101 -10.207940 49.308899
55 0 1 -11.571900 -10.897441 48.826599
56 0 1 -10.661099 -10.913541 48.567108
57 0 1 -9.911620 -11.479142 48.307495
58 0 1 -9.386510 -11.734641 47.527802
59 0 1 -9.589839 -10.965940 47.025085
60 0 1 -8.968360 -10.224141 47.183716
61 0 1 -9.515019 -10.210542 47.932312
62 0 1 -8.835389 -10.870141 48.244385
63 0 1 -8.932010 -10.937039 49.185303
64 0 1 -9.005439 -10.163541 49.756500
65 0 1 -9.348470 -9.333741 49.360596
66 0 1 -9.572721 -8.433341 49.160095
67 0 1 -8.784860 -8.077390 49.514496
68 0 1 -8.184249 -7.258731 49.546906
69 0 1 -8.905740 -7.025602 50.148407
70 0 1 -9.234281 -6.146562 49.841309
71 0 1 -9.547879 -5.375162 50.456116
72 0 1 -10.331550 -4.813331 50.343506
73 0 1 -10.250720 -3.872331 50.575409
74 0 1 -10.703290 -4.406871 51.304688
75 0 1 -10.837230 -5.325281 51.498291
76 0 1 -10.914449 -6.177101 51.898987
77 0 1 -10.410260 -5.781612 52.610413
78 0 1 -10.286550 -4.881511 52.944794
79 0 1 -9.373170 -5.203041 52.801605
80 0 1 -8.968709 -6.048191 52.771606
81 0 1 -9.318570 -6.701612 52.219910
82 0 1 -8.767859 -6.067632 51.646088
83 0 1 -8.292459 -5.494991 52.214294
84 0 1 -7.483708 -5.950771 52.054199
85 0 1 -7.277689 -5.713111 51.105804
86 0 1 -6.455460 -6.174081 50.979095
87 0 1 -6.294779 -7.129411 50.980103
88 0 1 -6.091898 -7.266761 51.918091
89 0 1 -5.528130 -8.055039 51.816589
90 0 1 -4.564469 -7.724702 51.988403
91 0 1 -4.608809 -8.694242 51.851593
92 0 1 -4.806460 -9.619040 51.615295
93 0 1 -5.149409 -9.631040 52.496094
94 0 1 -4.383929 -9.567540 53.099701
95 0 1 -4.207379 -9.997140 53.947388
96 0 1 -3.453851 -10.671639 54.200592
97 0 1 -3.827391 -10.773541 55.047913
98 0 1 -3.191418 -10.177741 55.409088
99 0 1 -3.827050 -9.506742 55.128601
100 0 1 -3.198703 -8.839742 55.116211
101 0 1 -2.848840 -8.378341 54.330292
102 0 1 -2.257443 -8.728242 53.612701
103 0 1 -1.674979 -8.390840 54.319794
104 0 1 -0.896760 -7.987562 53.862701
105 0 1 -0.131020 -7.388391 53.801392
106 0 1 -0.842957 -6.997381 54.272308
107 0 1 -0.276490 -7.144802 55.058502
108 0 1 -0.204819 -6.701131 55.921600
109 0 1 0.544090 -6.828392 56.497589
110 0 1 1.416770 -6.498540 56.647705
111 0 1 2.237739 -7.000513 56.884003
112 0 1 3.051032 -6.397111 56.672089
113 0 1 3.306930 -6.021020 55.839417
114 0 1 4.098381 -6.439332 56.246307
115 0 1 4.936172 -6.385522 56.736298
116 0 1 5.695472 -6.897821 57.152405
117 0 1 6.494670 -6.553411 56.843597
118 0 1 6.661502 -5.770441 56.302307
119 0 1 7.562950 -5.515781 56.543213
120 0 1 8.128249 -6.200441 56.589294
121 0 1 8.856353 -5.577241 56.686493
122 0 1 8.870452 -4.674600 56.925507
123 0 1 9.792750 -4.436471 56.998810
124 0 1 10.601752 -3.884210 57.241211
125 0 1 10.959849 -4.521520 57.904602
126 0 1 11.894652 -4.498401 57.911499
127 0 1 12.615752 -5.036790 58.088593
128 0 1 12.755549 -5.155820 57.171600
129 0 1 13.403651 -5.880481 57.206909
130 0 1 13.763152 -6.465141 57.923584
131 0 1 13.944152 -7.168550 58.546509
132 0 1 13.592948 -6.476850 59.158386
133 0 1 13.387851 -5.540561 59.469696
134 0 1 13.208549 -5.095081 60.290009
135 0 1 12.793952 -4.427501 59.699188
136 0 1 13.292052 -4.065382 60.458588
137 0 1 12.402350 -3.662502 60.473999
138 0 1 11.461852 -3.600511 60.652191
139 0 1 11.691150 -3.510152 59.684692
140 0 1 11.765651 -2.564981 59.507904
141 0 1 10.765449 -2.380872 59.698608
142 0 1 10.246749 -1.935081 60.388611
143 0 1 10.204051 -1.634551 61.390594
144 0 1 9.346751 -1.454891 61.010101
145 0 1 8.694449 -2.178951 61.294495
146 0 1 7.882949 -2.221382 60.844604
147 0 1 6.951252 -2.406581 60.723297
148 0 1 6.828571 -3.343492 60.922089
149 0 1 5.930851 -2.970552 60.892517
150 0 1 5.357532 -2.306831 61.186310
151 0 1 6.079879 -1.921251 61.745911
152 0 1 5.476570 -1.202821 61.693390
153 0 1 6.317901 -0.929502 61.517090
154 0 1 6.680923 -1.437581 60.797302
155 0 1 5.933349 -1.320062 60.098816
156 0 1 5.606040 -2.047472 59.565796
157 0 1 5.535209 -1.526712 58.764496
158 0 1 6.312629 -1.146932 59.125916
159 0 1 7.092353 -0.818891 59.690704
160 0 1 6.635890 -0.044412 59.425201
161 0 1 7.320652 0.644322 59.528015
162 0 1 7.080852 0.628310 58.612915
163 0 1 7.224151 1.540316 58.238403
164 0 1 8.000850 1.313410 58.704498
165 0 1 8.754752 1.581444 58.194305
166 0 1 9.635051 1.213328 58.479004
167 0 1 9.340552 0.356379 58.826904
168 0 1 9.147052 -0.519271 58.328186
169 0 1 9.008651 -1.465572 58.382111
170 0 1 8.047851 -1.387552 58.414093
171 0 1 7.184551 -0.999952 58.562805
172 0 1 7.343051 -0.336172 57.878296
173 0 1 7.350051 0.200820 57.047485
174 0 1 7.589050 -0.312110 56.244690
175 0 1 8.423850 -0.283962 55.746490
176 0 1 9.201350 -0.649661 55.227692
177 0 1 10.181651 -0.928182 55.105286
178 0 1 9.888152 -1.689861 55.571289
179 0 1 9.203551 -2.300041 55.426697
180 0 1 8.745353 -3.003301 55.031494
181 0 1 8.887153 -2.497131 54.219208
182 0 1 8.768851 -1.661062 53.811310
183 0 1 8.437552 -1.426320 52.894989
184 0 1 8.263652 -0.831262 52.177399
185 0 1 7.458053 -0.317232 52.086090
186 0 1 6.634353 -0.769012 52.039185
187 0 1 5.691982 -0.918601 52.041290
188 0 1 5.788280 -0.472961 52.862793
189 0 1 5.551513 0.397669 52.252686
190 0 1 4.639213 0.259839 52.120087
191 0 1 4.204830 -0.596002 52.221985
192 0 1 4.445869 -1.481502 52.024994
193 0 1 3.468669 -1.747831 51.871613
194 0 1 2.697662 -1.750251 51.256989
195 0 1 2.572391 -1.528482 50.331604
196 0 1 3.058490 -0.756341 50.036194
197 0 1 3.119842 0.234990 50.058289
198 0 1 3.856689 0.727122 50.439789
199 0 1 3.882312 1.704791 50.207214
200 0 1 4.676242 2.247487 50.212494
201 0 1 5.456619 2.427701 50.682495
202 0 1 4.856391 2.204325 51.472687
203 0 1 3.974639 2.600731 51.722900
204 0 1 3.403129 2.212986 51.050598
205 0 1 2.675781 2.367936 50.413300
206 0 1 2.519222 1.479016 50.718689
207 0 1 2.569312 0.519269 51.048309
208 0 1 1.846511 0.741101 50.451813
209 0 1 1.339252 0.634848 49.650391
210 0 1 0.657901 -0.012821 49.866608
211 0 1 0.323261 0.897530 49.809296
212 0 1 0.491561 0.844731 50.774200
213 0 1 0.639800 0.898984 51.794006
214 0 1 0.877361 1.731745 51.371399
215 0 1 -0.021558 1.955855 51.371490
216 0 1 -0.624619 1.919476 52.142883
217 0 1 -1.085179 1.043353 52.284210
218 0 1 -1.655570 1.808941 52.288910
219 0 1 -2.560002 1.828002 52.466614
220 0 1 -2.992726 1.239722 53.102295
221 0 1 -3.382136 1.164786 52.238007
222 0 1 -3.907649 1.173424 51.366913
223 0 1 -4.387978 0.856019 52.121307
224 0 1 -5.009860 0.145030 51.886292
225 0 1 -5.238099 -0.795072 52.162598
226 0 1 -4.828900 -1.541110 51.633698
227 0 1 -3.895640 -1.572761 51.394989
228 0 1 -3.415263 -2.258062 50.852997
229 0 1 -3.099679 -1.500711 50.379608
230 0 1 -2.964785 -0.545310 50.134796
231 0 1 -2.457940 -0.274942 49.365692
232 0 1 -3.200351 -0.851972 49.184113
233 0 1 -3.676667 -0.019370 48.895508
234 0 1 -4.064904 -0.264242 49.718201
235 0 1 -5.049859 -0.240720 49.816589
236 0 1 -5.543910 -0.316171 49.014801
237 0 1 -6.102009 0.136489 48.401306
238 0 1 -5.675259 0.618449 47.652588
239 0 1 -6.111149 1.458762 47.509705
240 0 1 -5.824769 1.764231 48.350586
241 0 1 -5.499999 2.085335 49.189392
242 0 1 -5.071518 1.277224 49.415588
243 0 1 -4.381388 1.070027 50.022003
244 0 1 -4.700268 2.024445 50.084198
245 0 1 -3.951510 2.592427 50.043610
246 0 1 -3.458453 3.369318 49.785583
247 0 1 -3.430133 3.829619 50.588989
248 0 1 -3.781653 4.655718 50.161804
249 0 1 -3.081992 4.838408 49.598999
250 0 1 -3.150458 5.541670 48.890289
251 0 1 -2.871957 4.939799 48.203308
252 0 1 -3.574740 4.545050 47.632385
253 0 1 -3.816987 5.467799 47.776703
254 0 1 -3.668820 5.813448 46.931396
255 0 1 -4.652560 5.796111 46.742096
256 0 1 -5.312708 5.242869 46.401184
257 0 1 -4.929379 4.414698 46.127686
258 0 1 -4.564579 4.841967 45.371307
259 0 1 -4.344269 4.078200 44.730499
260 0 1 -5.098179 3.774130 44.111206
261 0 1 -5.035889 4.681628 43.941101
262 0 1 -5.737038 4.612998 43.292114
263 0 1 -6.174088 5.340949 42.864899
264 0 1 -6.075638 5.121150 41.926086
265 0 1 -7.006819 5.269118 41.962097
266 0 1 -6.565440 5.689509 41.135406
267 0 1 -6.600159 6.355677 41.972687
268 0 1 -6.618899 7.151309 41.467010
269 0 1 -7.501750 7.541289 41.659393
270 0 1 -7.753048 7.243960 42.546387
271 0 1 -8.688739 7.476069 42.793091
272 0 1 -9.246221 7.550990 43.562897
273 0 1 -8.731790 7.777808 44.385590
274 0 1 -7.840138 7.771769 44.574005
275 0 1 -8.157390 7.919318 45.486206
276 0 1 -8.216260 8.818198 45.110504
277 0 1 -8.223599 9.662818 44.575195
278 0 1 -7.758999 9.262240 43.904510
279 0 1 -7.039340 9.644958 44.412201
280 0 1 -7.052880 10.622291 44.274292
281 0 1 -7.376318 10.886661 45.176392
282 0 1 -7.808669 10.862967 45.989410
283 0 1 -7.470078 9.960059 46.021301
284 0 1 -6.756119 10.178901 46.693390
285 0 1 -7.463330 9.572608 47.027313
286 0 1 -8.286790 9.296519 47.414612
287 0 1 -8.599860 9.028880 48.243500
288 0 1 -7.871890 8.828818 48.866089
289 0 1 -8.294709 9.590011 49.382111
290 0 1 -8.873759 10.006000 48.624390
291 0 1 -8.867269 10.100249 47.652710
292 0 1 -8.843249 10.906058 48.088684
293 0 1 -8.721250 11.554980 48.747589
294 0 1 -9.581120 11.489951 49.247009
295 0 1 -10.392270 10.984260 49.427795
296 0 1 -11.214299 10.645850 49.673309
297 0 1 -11.357350 11.295531 48.983612
298 0 1 -12.055209 11.496337 48.273804
299 0 1 -12.261621 11.606551 47.288788
300 0 1 -12.375760 12.161559 46.570312
301 0 1 -12.270709 12.453059 45.626312
302 0 1 -11.938680 13.199759 45.022217
303 0 1 -11.060439 13.303359 44.690399
304 0 1 -10.675559 13.702559 43.851105
305 0 1 -9.760600 13.310359 43.841705
306 0 1 -9.601480 12.650260 43.108704
307 0 1 -9.431369 11.907660 42.567505
308 0 1 -9.123960 11.882461 41.730804
309 0 1 -8.577828 11.223628 41.432983
310 0 1 -8.668500 11.151149 40.447998
311 0 1 -9.352870 11.818458 40.294403
312 0 1 -9.467299 12.722861 39.850098
313 0 1 -10.173709 12.188060 39.418213
314 0 1 -11.096398 12.045661 39.701416
315 0 1 -11.180711 11.033469 39.630188
316 0 1 -11.505170 10.320750 40.192017
317 0 1 -11.431008 9.990088 41.159790
318 0 1 -11.190579 9.278598 40.456909
319 0 1 -11.828771 9.203448 39.707397
320 0 1 -12.688581 9.306758 40.029510
321 0 1 -13.322850 8.820357 39.536804
322 0 1 -13.077929 8.028800 38.964111
323 0 1 -13.227849 7.171969 38.343384
324 0 1 -12.508698 7.100489 37.690613
325 0 1 -13.119849 7.723017 37.313110
326 0 1 -12.987500 8.330588 36.583710
327 0 1 -13.838349 8.832721 36.668304
328 0 1 -13.760350 9.146678 37.563293
329 0 1 -14.713849 8.974151 37.883209
330 0 1 -15.435849 8.849021 37.294495
331 0 1 -16.238949 9.028350 37.811096
332 0 1 -17.045649 8.800948 37.402191
333 0 1 -16.380249 8.189788 37.071411
334 0 1 -15.909949 7.770178 37.806793
335 0 1 -15.774751 6.850501 37.410004
336 0 1 -15.210649 6.350768 36.864014
337 0 1 -14.587949 5.676188 36.637604
338 0 1 -14.534348 6.271849 35.882812
339 0 1 -13.966249 5.748267 35.309998
340 0 1 -13.351949 5.066180 35.630615
341 0 1 -12.575349 5.049559 36.200287
342 0 1 -12.307618 5.220110 37.086487
343 0 1 -13.046010 5.551657 37.641907
344 0 1 -13.931350 5.449458 37.886597
345 0 1 -14.040250 4.697699 38.448090
346 0 1 -14.795548 4.122488 38.605194
347 0 1 -14.062449 3.862189 39.232697
348 0 1 -14.742949 3.806139 39.844299
349 0 1 -14.414149 3.311369 40.578613
350 0 1 -13.453750 3.218928 40.510895
351 0 1 -13.204850 3.844809 41.188690
352 0 1 -12.997159 4.669619 40.629517
353 0 1 -12.458150 5.200209 41.101501
354 0 1 -11.621629 4.943640 40.740906
355 0 1 -10.885209 4.942629 40.146210
356 0 1 -10.774190 3.917479 40.365692
357 0 1 -11.333268 3.443297 41.002899
358 0 1 -11.643390 2.693549 41.516205
359 0 1 -12.345120 2.612807 40.866699
360 0 1 -12.136279 1.688002 41.191589
361 0 1 -12.663119 0.910561 41.192688
362 0 1 -11.988931 0.528899 40.621613
363 0 1 -11.249040 0.291579 40.098389
364 0 1 -11.134679 1.033276 39.522705
365 0 1 -11.294099 1.810195 40.002991
366 0 1 -10.686740 1.863856 40.730499
367 0 1 -10.065850 1.193341 40.260193
368 0 1 -10.017619 0.823905 41.118988
369 0 1 -9.358460 0.820771 41.799988
370 0 1 -8.671279 1.250125 42.428802
371 0 1 -9.139119 1.876515 43.049103
372 0 1 -9.076850 2.098454 44.024994
373 0 1 -8.861430 2.981999 44.315704
374 0 1 -9.593839 3.220160 43.670898
375 0 1 -10.059751 2.275670 43.681793
376 0 1 -10.926808 1.876536 43.897491
377 0 1 -11.001199 2.330441 43.008087
378 0 1 -11.877780 2.127484 42.765015
379 0 1 -11.964768 2.813649 43.368286
380 0 1 -12.050719 3.643179 42.764801
381 0 1 -12.554238 4.518057 42.998993
382 0 1 -12.515210 5.492369 42.727692
383 0 1 -11.694879 6.042948 42.839111
384 0 1 -11.068570 6.193930 43.560608
385 0 1 -10.359330 6.821459 43.353302
386 0 1 -11.169629 7.314040 43.581390
387 0 1 -10.647820 8.043059 43.635101
388 0 1 -11.464290 8.614638 43.870392
389 0 1 -11.097739 9.409739 43.506287
390 0 1 -10.775279 10.136058 43.919403
391 0 1 -10.849599 10.783301 44.637695
392 0 1 -9.998590 10.843410 45.053406
393 0 1 -10.604480 11.028689 45.738190
394 0 1 -10.065930 11.793960 45.600586
395 0 1 -9.771930 12.636958 45.951996
396 0 1 -9.290730 12.589461 45.142792
397 0 1 -8.597810 11.907260 45.158905
398 0 1 -8.554130 11.410960 44.359406
399 0 1 -7.784560 11.974059 44.300293
400 0 1 -8.023429 12.369060 43.441895
401 0 1 -8.507739 13.205459 43.175507
402 0 1 -8.292420 13.927360 43.671906
403 0 1 -8.500989 14.619960 44.351990
404 0 1 -9.217170 14.858260 43.675415
405 0 1 -9.127589 15.839858 43.676910
406 0 1 -9.269629 16.433458 42.948090
407 0 1 -9.165479 16.348459 41.972992
408 0 1 -9.697089 17.105257 42.205017
409 0 1 -9.852269 17.288359 43.143890
410 0 1 -9.176620 17.957457 43.209503
411 0 1 -9.390849 17.708860 44.102509
412 0 1 -8.573390 17.622358 44.657806
413 0 1 -8.858880 18.502157 44.812317
414 0 1 -8.478419 19.057859 45.518799
415 0 1 -8.399119 19.994459 45.263489
416 0 1 -7.479578 19.924856 45.415100
417 0 1 -6.956509 19.992857 44.569489
418 0 1 -7.122649 20.263861 43.713684
419 0 1 -6.763449 21.074957 43.314392
420 0 1 -6.141388 21.686956 42.980896
421 0 1 -5.941569 22.683157 43.040588
422 0 1 -6.225539 23.467855 43.644409
423 0 1 -5.971589 24.228559 44.164093
424 0 1 -5.427689 24.247759 44.877106
425 0 1 -6.318259 24.463057 45.171112
426 0 1 -6.665579 25.182661 45.750397
427 0 1 -7.282139 24.947256 45.068909
428 0 1 -7.102068 25.371058 44.243805
429 0 1 -6.468989 25.107260 43.585083
430 0 1 -6.729680 24.905256 42.712891
431 0 1 -5.938319 24.270559 42.900208
432 0 1 -5.576199 24.356558 41.966003
433 0 1 -4.784159 24.826258 41.774811
434 0 1 -4.663569 25.687361 41.408508
435 0 1 -3.840543 26.072458 41.707306
436 0 1 -3.698954 26.540159 40.837799
437 0 1 -3.681275 25.814058 40.205505
438 0 1 -4.030821 26.461760 39.571899
439 0 1 -4.514390 25.853758 38.976593
440 0 1 -3.920211 25.144156 38.605804
441 0 1 -3.412141 25.059256 37.764099
442 0 1 -3.603614 24.132856 37.947906
443 0 1 -4.378449 23.750860 38.359406
444 0 1 -4.202879 22.830557 38.071503
445 0 1 -4.794949 22.093958 38.167999
446 0 1 -4.732628 21.217558 37.852509
447 0 1 -5.353449 20.616461 37.567413
448 0 1 -5.794098 19.762960 37.507111
449 0 1 -5.943188 19.190161 36.832489
450 0 1 -6.128970 19.840158 36.191589
451 0 1 -6.414269 19.995958 35.351898
452 0 1 -6.882519 20.563559 35.993408
453 0 1 -6.943379 20.053259 36.847992
454 0 1 -7.031109 19.864859 37.792297
455 0 1 -7.609368 19.029657 37.777496
456 0 1 -7.884068 18.396658 38.409485
457 0 1 -7.203429 17.757757 38.695496
458 0 1 -6.493449 18.214460 38.219604
459 0 1 -5.908179 18.886759 38.444489
460 0 1 -5.010788 18.676458 38.738495
461 0 1 -4.629408 19.097559 37.922913
462 0 1 -5.150179 19.795359 38.335815
463 0 1 -5.583159 19.743559 39.221405
464 0 1 -5.436598 20.521955 39.703888
465 0 1 -5.415379 21.202757 40.325409
466 0 1 -5.769349 22.169661 40.510590
467 0 1 -5.556010 22.096556 39.548004
468 0 1 -5.247368 23.017561 39.318115
469 0 1 -4.615698 23.057058 40.022308
470 0 1 -3.757327 23.014158 40.495789
471 0 1 -3.322589 23.904760 40.369110
472 0 1 -2.361943 24.124258 40.436493
473 0 1 -1.734000 23.462057 40.635406
474 0 1 -0.664208 23.534658 40.712708
475 0 1 0.002422 23.524858 39.982117
476 0 1 0.595142 22.845457 39.679810
477 0 1 0.869972 21.957861 39.813507
478 0 1 0.262809 21.249758 39.583496
479 0 1 -0.613190 21.158056 39.985596
480 0 1 -1.287579 20.526960 40.341888
481 0 1 -1.799680 19.705858 40.647491
482 0 1 -1.994239 18.904657 40.109314
483 0 1 -1.862569 17.947256 40.075500
484 0 1 -2.584359 18.032358 39.427399
485 0 1 -3.348025 17.421659 39.562897
486 0 1 -3.975497 17.422560 40.290192
487 0 1 -3.563832 16.535158 40.385101
488 0 1 -4.263138 16.720659 40.975800
489 0 1 -4.575219 15.761458 40.706116
490 0 1 -3.837033 15.143458 40.645294
491 0 1 -3.288543 14.959357 41.450012
492 0 1 -3.616351 14.074759 41.681793
493 0 1 -4.157269 13.533462 42.220215
494 0 1 -5.004639 13.565261 42.619385
495 0 1 -5.097609 13.360259 41.652588
496 0 1 -4.743020 14.248260 41.788605
497 0 1 -4.608180 14.843760 42.499298
498 0 1 -5.595438 14.694758 42.693298
499 0 1 -5.319529 15.148959 43.453400
500 0 1 -5.651709 15.817958 42.878204
501 0 1 -5.019999 16.595259 42.950195
502 0 1 -4.339869 16.408957 43.588898
503 0 1 -3.674868 16.051657 44.210815
504 0 1 -2.796073 15.816760 44.029510
505 0 1 -2.583489 16.712156 44.147217
506 0 1 -1.759148 16.511457 44.560211
507 0 1 -2.214761 16.119360 45.334991
508 0 1 -3.192143 16.307558 45.632904
509 0 1 -4.017239 15.872359 45.732605
510 0 1 -4.612359 15.208259 46.058990
511 0 1 -4.614069 15.426360 45.136292
512 0 1 -5.413720 15.611259 44.721985
513 0 1 -5.844019 14.763961 44.541504
514 0 1 -5.070288 14.095260 44.373810
515 0 1 -4.247109 13.804358 44.822296
516 0 1 -3.605012 13.085959 44.973694
517 0 1 -3.382470 12.812259 44.091309
518 0 1 -3.970528 12.437461 43.473907
519 0 1 -3.269353 11.732059 43.295410
520 0 1 -3.073315 12.243258 42.461792
521 0 1 -2.301520 11.996459 41.998596
522 0 1 -1.697329 12.695560 41.979706
523 0 1 -1.668349 13.325858 42.713013
524 0 1 -1.660359 14.024760 42.017517
525 0 1 -1.898249 14.254859 42.946198
526 0 1 -2.111060 15.124858 42.762085
527 0 1 -2.545890 14.519660 42.154694
528 0 1 -2.453864 14.040858 41.328094
529 0 1 -2.316012 14.834762 40.775299
530 0 1 -1.686360 15.325160 40.292297
531 0 1 -0.955178 15.677360 39.782410
532 0 1 -0.557698 16.215960 40.528809
533 0 1 0.207290 16.141157 39.998901
534 0 1 0.896270 16.811857 39.961090
535 0 1 0.826782 17.665960 40.385803
536 0 1 0.931892 17.615759 41.291504
537 0 1 1.234420 16.909658 41.897888
538 0 1 1.385829 17.800261 42.297089
539 0 1 2.069762 18.054758 41.619507
540 0 1 2.888561 17.645956 41.784607
541 0 1 2.995872 17.174757 40.954803
542 0 1 3.193641 16.321058 40.458405
543 0 1 3.677310 16.605360 39.671509
544 0 1 4.462532 16.181158 39.259216
545 0 1 4.946731 15.345859 39.464691
546 0 1 4.847419 14.801459 38.685608
547 0 1 5.169040 13.920058 38.377594
548 0 1 4.232322 13.885161 38.739990
549 0 1 3.372722 13.676459 38.319794
550 0 1 2.759322 13.246261 38.960083
551 0 1 2.439990 12.356559 39.098511
552 0 1 1.955840 11.967158 38.400391
553 0 1 1.789050 12.708659 37.741089
554 0 1 1.856860 11.912459 37.208801
555 0 1 2.579803 11.555129 36.774689
556 0 1 2.235652 10.658538 36.873596
557 0 1 2.135471 9.766250 36.463593
558 0 1 1.619380 10.341331 35.845795
559 0 1 0.972343 10.211429 35.146301
560 0 1 0.277980 10.748698 35.565308
561 0 1 0.318500 9.986541 36.186707
562 0 1 -0.517949 10.047988 36.650085
563 0 1 -0.991009 9.626609 37.347992
564 0 1 -1.977370 9.578418 37.336395
565 0 1 -2.909043 9.722358 37.182007
566 0 1 -3.613932 9.967109 37.782715
567 0 1 -4.503729 10.261970 37.573395
568 0 1 -5.398819 10.369887 37.252411
569 0 1 -4.832348 10.008681 36.487793
570 0 1 -5.493029 10.220748 35.795807
571 0 1 -5.603039 11.000178 36.387787
572 0 1 -6.403319 10.778018 35.967712
573 0 1 -6.829640 9.971587 35.809601
574 0 1 -6.375868 9.542529 35.117188
575 0 1 -6.019040 8.617000 34.892609
576 0 1 -5.955929 7.556689 34.920898
577 0 1 -6.580069 7.522269 35.641296
578 0 1 -6.872050 7.510008 36.582489
579 0 1 -7.803700 7.324877 36.454590
580 0 1 -8.477960 7.038107 37.100891
581 0 1 -8.653689 6.669730 38.015106
582 0 1 -9.329280 6.068930 38.349487
583 0 1 -9.312299 5.502398 37.617310
584 0 1 -9.340890 4.799307 36.998688
585 0 1 -10.019689 4.656081 36.287109
586 0 1 -9.485290 5.142100 35.677094
587 0 1 -8.621989 5.383147 36.083893
588 0 1 -8.316119 5.194960 35.188416
589 0 1 -7.583020 4.810851 34.640503
590 0 1 -7.757899 3.873290 34.750488
591 0 1 -7.979218 2.902339 34.725098
592 0 1 -7.530808 3.054808 33.898987
593 0 1 -7.113139 3.936930 33.828888
594 0 1 -7.774960 4.041579 33.187408
595 0 1 -7.117310 3.761569 32.411194
596 0 1 -7.960879 3.544188 32.099915
597 0 1 -7.655629 3.620478 31.243500
598 0 1 -7.034899 3.599638 30.489410
599 0 1 -7.614779 3.056338 29.989990
600 0 1 -8.247788 2.361414 30.252808
601 0 1 -8.182740 1.830281 29.436096
602 0 1 -7.663229 2.071013 28.690094
603 0 1 -7.066899 1.962346 27.987091
604 0 1 -6.790009 2.102540 27.071899
605 0 1 -5.889470 1.834773 27.224213
606 0 1 -5.013609 1.640446 26.773804
607 0 1 -4.293250 2.324839 26.679901
608 0 1 -3.554223 1.920710 27.102997
609 0 1 -3.830642 1.037356 26.773987
610 0 1 -4.466238 0.353419 26.398010
611 0 1 -4.807549 -0.529451 25.936401
612 0 1 -4.235129 -1.067161 25.301208
613 0 1 -3.681565 -1.335201 26.039703
614 0 1 -4.259690 -1.907781 26.558105
615 0 1 -4.073409 -1.474792 27.407410
616 0 1 -4.295668 -2.277872 27.734589
617 0 1 -4.693009 -3.117761 28.113800
618 0 1 -4.739588 -2.846990 29.022614
619 0 1 -3.811641 -2.886041 28.998413
620 0 1 -3.735989 -3.859191 28.867798
621 0 1 -3.167516 -4.379911 28.397614
622 0 1 -3.097985 -3.515012 28.037689
623 0 1 -2.977301 -4.108991 27.265015
624 0 1 -3.983157 -4.375322 27.096497
625 0 1 -4.803339 -4.667062 26.790802
626 0 1 -5.448269 -4.987772 27.390991
627 0 1 -6.406350 -5.125272 27.595215
628 0 1 -7.263400 -5.565361 27.578094
629 0 1 -7.042059 -5.163061 26.742188
630 0 1 -6.334029 -5.473241 26.242706
631 0 1 -5.430079 -5.739891 26.389191
632 0 1 -5.648259 -5.945331 25.517487
633 0 1 -4.768420 -5.581932 25.361603
634 0 1 -4.218770 -5.233692 24.607513
635 0 1 -3.945777 -5.109460 23.739014
636 0 1 -3.538995 -4.481981 23.156708
637 0 1 -3.439397 -5.187360 22.507385
638 0 1 -3.487508 -5.373262 21.552094
639 0 1 -2.658507 -4.912521 21.583801
640 0 1 -1.819319 -5.149261 21.950104
641 0 1 -1.418118 -4.609851 22.595215
642 0 1 -1.087319 -3.722452 22.312698
643 0 1 -0.703191 -3.874551 21.423096
644 0 1 -1.070019 -4.516702 20.892502
645 0 1 -1.515111 -3.882921 20.345505
646 0 1 -0.775479 -3.919832 19.714401
647 0 1 -0.923089 -4.031742 18.751007
648 0 1 -0.503861 -3.208992 18.611206
649 0 1 -1.054238 -2.862491 17.921600
650 0 1 -1.605740 -2.819702 18.673004
651 0 1 -2.251529 -3.110261 19.327606
652 0 1 -3.095465 -3.416021 19.583801
653 0 1 -2.606610 -3.043592 20.287994
654 0 1 -3.194552 -2.310522 19.970795
655 0 1 -3.658768 -2.075571 20.899200
656 0 1 -4.109753 -2.647291 20.321899
657 0 1 -4.939250 -2.406412 19.862106
658 0 1 -5.486958 -1.616722 20.041199
659 0 1 -6.312619 -1.163041 19.707794
660 0 1 -6.779580 -1.986831 19.690994
661 0 1 -6.951699 -1.722881 20.660294
662 0 1 -7.515839 -1.371711 21.332199
663 0 1 -7.921189 -2.254972 21.388092
664 0 1 -8.866529 -2.301101 21.270401
665 0 1 -9.497939 -2.025381 20.574905
666 0 1 -9.941619 -1.195981 20.340103
667 0 1 -9.655560 -0.882272 19.527100
668 0 1 -9.878949 -0.411012 18.763092
669 0 1 -10.765229 -0.332851 18.339005
670 0 1 -10.844390 -0.629562 17.400497
671 0 1 -10.062551 -1.063920 17.105499
672 0 1 -9.945279 -2.023332 17.442505
673 0 1 -9.492349 -2.504800 16.744507
674 0 1 -8.595780 -2.669992 16.509995
675 0 1 -8.095609 -3.134752 15.809601
676 0 1 -8.724240 -2.624662 15.262299
677 0 1 -9.437890 -2.024471 15.335403
678 0 1 -10.177800 -1.456951 15.159302
679 0 1 -10.946290 -2.027311 14.941498
680 0 1 -10.910159 -2.765811 14.302200
681 0 1 -11.357249 -2.651052 13.423401
682 0 1 -12.229680 -3.033391 13.363297
683 0 1 -12.911960 -2.460142 13.737900
684 0 1 -13.273149 -1.588891 13.540497
685 0 1 -12.820359 -0.837381 14.015396
686 0 1 -12.611581 -0.653211 13.128403
687 0 1 -11.828050 -0.369081 12.629700
688 0 1 -10.920320 -0.034252 12.527405
689 0 1 -11.373769 0.517110 13.207199
690 0 1 -11.911870 -0.104831 13.755402
691 0 1 -12.746011 0.332900 13.994507
692 0 1 -12.926169 0.935443 14.684006
693 0 1 -13.901250 0.959332 14.674805
694 0 1 -14.394950 0.542079 15.349899
695 0 1 -15.345050 0.804148 15.141006
696 0 1 -15.460851 1.789986 15.109192
697 0 1 -14.642049 2.195992 14.930298
698 0 1 -14.187249 2.836049 15.485794
699 0 1 -14.115149 2.017848 15.954102
700 0 1 -14.903850 2.080607 16.554703
701 0 1 -15.827451 2.130757 16.636505
702 0 1 -16.650948 1.565333 16.792999
703 0 1 -16.757347 0.654715 16.401306
704 0 1 -17.365749 0.881137 15.702805
705 0 1 -16.902048 1.739312 15.540802
706 0 1 -17.785549 1.891572 15.131699
707 0 1 -18.519049 1.861100 15.700699
708 0 1 -18.474449 1.863740 16.644699
709 0 1 -17.578049 2.038722 16.915604
710 0 1 -17.956450 1.454497 17.588806
711 0 1 -18.646648 1.706984 18.245605
712 0 1 -18.454748 0.778033 18.331696
713 0 1 -17.837049 0.156819 18.810303
714 0 1 -17.430649 0.190468 19.676392
715 0 1 -16.499649 0.436949 19.850998
716 0 1 -15.842050 1.184035 19.930695
717 0 1 -15.401448 0.972169 19.070892
718 0 1 -15.148850 1.857594 19.001099
719 0 1 -14.899150 2.061295 19.924194
720 0 1 -14.249249 2.495804 20.413895
721 0 1 -13.820550 3.263037 20.768005
722 0 1 -14.578851 3.614188 21.246399
723 0 1 -14.619950 4.604460 21.454498
724 0 1 -15.034150 4.945170 22.281204
725 0 1 -15.057349 5.936270 22.084900
726 0 1 -14.683749 6.864348 22.137405
727 0 1 -14.691350 6.913680 21.156799
728 0 1 -14.699250 6.006709 20.903992
729 0 1 -13.936250 6.021140 21.482697
730 0 1 -13.220550 5.389079 21.768997
731 0 1 -12.785951 5.573157 22.545715
732 0 1 -12.433270 5.411799 23.487610
733 0 1 -11.890229 6.254241 23.456207
734 0 1 -12.140149 7.031130 22.983795
735 0 1 -12.250379 7.121108 22.016296
736 0 1 -12.831368 7.825278 22.151703
737 0 1 -13.655149 8.369941 22.069504
738 0 1 -14.320149 8.538428 22.746094
739 0 1 -14.055848 8.263560 23.604492
740 0 1 -14.525250 8.894710 24.163788
741 0 1 -15.032649 9.673640 24.188690
742 0 1 -15.927150 9.590751 24.594208
743 0 1 -16.165749 10.424510 24.844696
744 0 1 -15.515149 11.093337 24.803406
745 0 1 -15.347550 11.677657 24.123993
746 0 1 -15.079049 12.283957 24.864105
747 0 1 -14.462150 13.087760 24.988495
748 0 1 -13.789849 12.384757 25.208008
749 0 1 -12.954499 11.940860 25.297791
750 0 1 -13.033570 12.009757 26.267609
751 0 1 -12.028440 12.084460 26.122498
752 0 1 -11.700919 12.608359 25.355286
753 0 1 -10.923810 12.559157 25.967896
754 0 1 -10.720050 12.786960 26.866211
755 0 1 -10.136510 13.522460 26.946198
756 0 1 -9.317029 13.467360 27.464691
757 0 1 -9.120669 12.748961 28.112091
758 0 1 -8.680369 11.805160 28.357208
759 0 1 -8.383649 12.388061 29.105011
760 0 1 -7.380700 12.120261 29.141998
761 0 1 -7.134930 11.573112 28.355896
762 0 1 -6.707848 12.040259 27.587708
763 0 1 -5.985219 11.717261 26.921295
764 0 1 -5.219429 11.731860 27.516113
765 0 1 -4.875609 11.926558 28.351501
766 0 1 -4.269148 12.610858 28.367310
767 0 1 -3.403487 12.199161 28.555298
768 0 1 -2.710700 11.530410 28.574310
769 0 1 -1.808190 11.817061 28.699188
770 0 1 -1.241231 11.441161 28.080414
771 0 1 -0.739270 11.900661 27.386200
772 0 1 -0.691220 10.951591 27.305695
773 0 1 -0.416230 10.038001 27.076691
774 0 1 -0.986298 9.671798 26.468689
775 0 1 -1.716870 9.286017 26.946503
776 0 1 -2.731103 9.268100 26.934509
777 0 1 -2.531352 8.997031 27.836914
778 0 1 -2.650704 8.616660 28.727203
779 0 1 -3.533307 8.435809 29.065704
780 0 1 -4.135539 8.041190 28.382385
781 0 1 -4.926018 8.528560 28.398499
782 0 1 -5.183730 7.678668 28.860992
783 0 1 -4.719319 7.334750 29.625610
784 0 1 -3.822066 7.526297 29.457703
785 0 1 -3.045535 7.365458 28.938507
786 0 1 -2.661904 7.207488 28.070404