LAMMPS data file via MDAnalysis

        2000  atoms
        1999  bonds
           0  angles
           0  dihedrals
           0  impropers

           1  atom types
           1  bond types
           0  angle types
           0  dihedral types
           0  improper types

-30.5 30.5 xlo xhi
-30.5 30.5 ylo yhi
-233.5 233.5 zlo zhi


Masses

1 1.000000

Atoms

1 0 1 -8.510430 -13.920624 67.518982
2 0 1 -7.867699 -14.537124 67.712585
3 0 1 -7.012558 -14.974624 67.532196
4 0 1 -7.061839 -16.048523 67.372314
5 0 1 -6.547610 -16.717022 66.936798
6 0 1 -7.182009 -17.007122 66.344391
7 0 1 -6.770619 -16.336224 65.834503
8 0 1 -6.763209 -16.861723 64.971893
9 0 1 -7.238949 -17.621723 65.238892
10 0 1 -7.321049 -18.026524 64.258392
11 0 1 -7.245669 -18.471024 63.395691
12 0 1 -7.808428 -17.687422 63.197296
13 0 1 -7.402668 -17.430523 62.342010
14 0 1 -6.759058 -16.968523 61.701111
15 0 1 -7.728878 -16.733624 61.512512
16 0 1 -8.578660 -16.418823 61.220001
17 0 1 -8.845729 -15.539624 61.320709
18 0 1 -9.043550 -14.580724 61.158813
19 0 1 -8.156100 -14.686324 60.791809
20 0 1 -8.130080 -15.248023 60.072510
21 0 1 -8.444190 -16.101723 59.753113
22 0 1 -7.677680 -16.250322 60.306213
23 0 1 -7.164309 -17.155024 60.353210
24 0 1 -7.822030 -17.092524 59.608704
25 0 1 -8.419549 -17.761723 59.902802
26 0 1 -8.479209 -18.711523 59.695404
27 0 1 -7.689360 -18.816223 59.222107
28 0 1 -6.940379 -19.129423 58.627808
29 0 1 -6.784859 -18.707823 57.803802
30 0 1 -6.300810 -19.104723 57.010010
31 0 1 -6.088929 -19.370222 56.093597
32 0 1 -5.219328 -19.633423 56.472107
33 0 1 -5.632969 -20.456522 56.431702
34 0 1 -6.569439 -20.452822 56.649109
35 0 1 -7.152289 -19.701622 56.544098
36 0 1 -6.996138 -19.793522 55.616608
37 0 1 -7.545159 -18.957623 55.424591
38 0 1 -7.595589 -18.003323 55.308716
39 0 1 -7.490908 -17.406223 55.995483
40 0 1 -7.595000 -16.562223 56.415894
41 0 1 -7.359469 -15.932723 55.683594
42 0 1 -6.474570 -15.726123 55.323090
43 0 1 -6.439990 -16.640823 55.566101
44 0 1 -5.589449 -16.974524 55.735687
45 0 1 -4.943900 -17.669622 56.059509
46 0 1 -4.462889 -17.018522 55.537415
47 0 1 -3.530770 -17.343224 55.590607
48 0 1 -3.625159 -18.294622 55.557983
49 0 1 -2.746539 -18.768322 55.475494
50 0 1 -1.957429 -19.039722 54.990112
51 0 1 -1.402913 -18.228024 54.737000
52 0 1 -1.346785 -17.349022 54.343384
53 0 1 -1.304860 -16.356623 54.398407
54 0 1 -1.724541 -15.432824 54.341003
55 0 1 -1.862439 -14.482823 54.516113
56 0 1 -1.160121 -14.461925 55.161499
57 0 1 -1.300936 -13.495924 55.422485
58 0 1 -0.395608 -13.358924 55.692505
59 0 1 -0.212573 -13.481124 54.842194
60 0 1 0.169633 -12.664723 54.499390
61 0 1 -0.131171 -11.718823 54.264313
62 0 1 0.005678 -10.924523 54.824585
63 0 1 -0.827799 -10.702123 54.441284
64 0 1 -1.063702 -10.917024 55.322693
65 0 1 -0.443770 -11.360524 55.865204
66 0 1 0.234880 -11.388223 56.534210
67 0 1 0.139884 -12.027123 57.193695
68 0 1 0.784353 -11.439023 57.594299
69 0 1 0.344821 -11.203424 58.339905
70 0 1 0.551832 -10.441524 58.985992
71 0 1 0.857339 -9.552125 59.313202
72 0 1 1.780362 -9.731824 58.968811
73 0 1 2.263150 -9.023324 58.644501
74 0 1 1.405210 -8.562425 58.496216
75 0 1 1.336839 -8.429025 59.438599
76 0 1 0.602722 -7.802943 59.504517
77 0 1 -0.027587 -7.052604 59.446106
78 0 1 -0.499627 -7.519753 58.707794
79 0 1 0.246681 -7.027184 58.228516
80 0 1 0.424331 -7.692433 57.494202
81 0 1 0.209331 -7.138824 56.695496
82 0 1 -0.757754 -7.466035 56.845306
83 0 1 -1.385798 -6.997205 56.307495
84 0 1 -2.081090 -6.433253 56.523895
85 0 1 -1.738495 -6.702304 57.338989
86 0 1 -1.129044 -5.982804 57.301208
87 0 1 -0.665911 -5.191634 56.941498
88 0 1 0.317211 -5.272624 57.088287
89 0 1 1.203531 -5.288644 56.754395
90 0 1 2.044191 -5.744264 56.968109
91 0 1 2.214410 -5.551524 57.883698
92 0 1 2.276822 -6.427644 58.334290
93 0 1 2.875772 -6.877603 58.881104
94 0 1 2.256921 -7.070233 59.581299
95 0 1 2.060682 -6.118104 59.766602
96 0 1 2.956189 -5.849824 59.659088
97 0 1 3.305940 -4.959023 59.826813
98 0 1 2.679101 -4.744143 59.173706
99 0 1 2.792939 -4.182014 58.399811
100 0 1 2.193681 -3.476813 58.512207
101 0 1 1.971471 -2.748593 59.103302
102 0 1 1.909799 -2.911134 60.039185
103 0 1 2.167039 -3.710593 60.449585
104 0 1 1.426732 -3.978713 60.984100
105 0 1 1.716771 -3.689954 61.867310
106 0 1 1.752942 -4.233853 62.639587
107 0 1 0.904519 -3.882252 62.742615
108 0 1 0.860731 -3.249413 63.544983
109 0 1 1.175939 -2.381284 63.671600
110 0 1 1.973192 -2.239604 63.112396
111 0 1 2.827840 -2.693043 63.090302
112 0 1 3.630960 -2.185134 62.921509
113 0 1 4.395311 -1.802003 63.360809
114 0 1 4.742059 -2.208514 62.467712
115 0 1 5.651910 -2.203393 62.734497
116 0 1 6.501630 -1.833884 62.442596
117 0 1 6.924051 -2.696744 62.032898
118 0 1 6.138959 -3.232913 62.063416
119 0 1 5.393510 -3.349374 61.451294
120 0 1 5.182710 -4.306094 61.397095
121 0 1 4.442541 -4.793904 61.091187
122 0 1 4.766881 -5.275594 60.324097
123 0 1 5.221651 -6.024274 60.005890
124 0 1 4.872701 -5.602044 59.190094
125 0 1 4.526182 -4.859504 58.666504
126 0 1 5.266351 -5.059474 58.049194
127 0 1 5.469522 -4.151324 57.831604
128 0 1 6.418260 -4.339633 57.841400
129 0 1 7.339712 -4.470983 57.628113
130 0 1 8.210431 -4.852414 57.620300
131 0 1 8.261849 -5.487615 58.351593
132 0 1 8.699002 -6.181024 57.896698
133 0 1 7.954961 -5.902993 57.334198
134 0 1 7.914663 -6.596265 56.714813
135 0 1 8.429040 -7.151704 56.118195
136 0 1 8.964360 -6.396234 55.689911
137 0 1 8.623780 -5.778674 54.993988
138 0 1 8.231381 -6.558913 54.611908
139 0 1 8.158059 -6.630433 53.603516
140 0 1 8.773381 -6.883594 52.899811
141 0 1 9.359719 -7.607663 52.887695
142 0 1 10.095822 -8.136153 52.538696
143 0 1 9.411321 -8.758924 52.704193
144 0 1 9.437921 -8.549724 51.735199
145 0 1 8.963033 -7.791623 51.436584
146 0 1 8.394940 -8.504624 51.040802
147 0 1 7.599172 -7.988072 51.135498
148 0 1 7.037492 -8.073613 50.371216
149 0 1 7.445062 -8.754024 49.884491
150 0 1 8.120332 -8.185235 49.559509
151 0 1 8.758950 -8.947225 49.564606
152 0 1 8.654119 -8.880124 48.599792
153 0 1 9.277421 -9.593423 48.794983
154 0 1 9.121961 -9.642823 47.816711
155 0 1 8.496892 -9.664525 47.172211
156 0 1 7.577741 -10.144124 47.265900
157 0 1 7.461690 -10.515122 48.164185
158 0 1 6.813730 -9.963424 48.532715
159 0 1 6.749853 -9.142123 48.095093
160 0 1 7.245012 -8.414445 47.726593
161 0 1 7.662031 -7.656262 47.392395
162 0 1 8.477540 -7.231164 47.248108
163 0 1 8.550370 -7.256324 48.215607
164 0 1 8.372041 -7.165803 49.143005
165 0 1 8.489491 -6.453053 49.787201
166 0 1 7.548341 -6.787463 49.716797
167 0 1 7.816740 -6.576463 50.644897
168 0 1 7.913000 -5.967664 51.378113
169 0 1 7.629110 -5.185214 50.907410
170 0 1 6.820241 -4.973304 51.438416
171 0 1 6.176382 -5.604234 51.587891
172 0 1 5.360841 -5.045524 51.348907
173 0 1 5.059392 -4.165334 51.320007
174 0 1 5.104112 -3.397254 52.001892
175 0 1 5.531579 -3.298924 51.123413
176 0 1 5.154672 -2.505364 50.865601
177 0 1 4.338930 -2.894664 51.312500
178 0 1 3.479390 -3.309754 51.311584
179 0 1 2.533731 -2.991383 51.263397
180 0 1 1.874601 -2.326304 51.553589
181 0 1 1.448732 -2.458743 50.694092
182 0 1 1.286390 -3.390513 50.595886
183 0 1 0.431171 -3.017693 50.282196
184 0 1 -0.520117 -3.242573 50.421906
185 0 1 -0.489375 -4.118274 50.061096
186 0 1 -1.258715 -4.159743 50.658508
187 0 1 -1.860049 -4.857385 51.130615
188 0 1 -1.176724 -5.367793 50.618500
189 0 1 -0.236083 -5.713243 50.665802
190 0 1 0.331500 -6.467673 50.820709
191 0 1 0.587331 -7.283925 50.396606
192 0 1 1.012689 -8.135884 50.859497
193 0 1 1.635820 -8.967523 50.877808
194 0 1 1.808881 -8.961923 49.908203
195 0 1 2.565389 -8.518224 49.377991
196 0 1 2.353841 -8.040143 48.607391
197 0 1 1.722581 -7.594655 49.141693
198 0 1 1.661950 -6.715875 48.648102
199 0 1 1.102041 -6.739175 47.826416
200 0 1 1.539132 -7.588082 47.535583
201 0 1 2.357072 -7.814414 47.077698
202 0 1 2.955411 -8.560023 47.324799
203 0 1 2.831422 -9.420625 46.775085
204 0 1 3.655740 -9.810424 46.437592
205 0 1 3.936601 -10.209825 45.585693
206 0 1 4.414819 -10.568824 44.791809
207 0 1 4.058439 -10.710824 43.894714
208 0 1 3.136880 -10.615724 43.761292
209 0 1 2.382512 -11.175424 43.742798
210 0 1 2.054532 -10.689725 42.983704
211 0 1 1.124292 -10.563724 42.927795
212 0 1 0.992360 -10.672423 41.960999
213 0 1 1.686670 -10.819024 41.256592
214 0 1 2.116422 -10.177724 40.631012
215 0 1 2.292970 -9.816823 39.690094
216 0 1 2.387559 -10.002522 38.765991
217 0 1 2.800309 -10.697824 38.189301
218 0 1 3.694970 -10.349023 38.165100
219 0 1 4.691621 -10.268624 38.206299
220 0 1 4.253511 -9.445325 37.837097
221 0 1 4.195680 -8.481824 37.868713
222 0 1 4.688550 -8.900523 38.652313
223 0 1 5.599569 -9.130424 38.914398
224 0 1 6.510381 -8.913625 39.108093
225 0 1 6.805280 -9.188123 38.234009
226 0 1 7.467130 -9.699224 37.833710
227 0 1 7.826051 -10.400624 38.412506
228 0 1 6.979642 -10.598622 38.868103
229 0 1 6.455549 -11.114423 38.269196
230 0 1 6.250352 -11.855723 37.667114
231 0 1 6.619001 -12.232224 36.863403
232 0 1 6.438909 -12.646724 35.987488
233 0 1 5.600049 -12.301724 36.113892
234 0 1 4.663152 -12.312425 36.034912
235 0 1 4.201551 -13.125024 35.821106
236 0 1 3.675470 -13.526223 35.088287
237 0 1 3.323011 -14.397923 34.800507
238 0 1 2.909959 -15.258824 34.535187
239 0 1 3.075509 -16.218023 34.635712
240 0 1 2.687860 -16.814222 35.291412
241 0 1 2.707940 -17.738823 35.053711
242 0 1 1.958810 -17.295523 34.575012
243 0 1 1.508993 -18.141623 34.153412
244 0 1 1.666749 -18.511122 33.208008
245 0 1 2.504441 -18.536324 33.700500
246 0 1 2.974389 -19.289824 34.075592
247 0 1 2.452211 -19.958523 34.597198
248 0 1 1.907731 -20.242723 35.283508
249 0 1 0.992021 -20.043423 35.434113
250 0 1 0.574191 -19.235823 35.391998
251 0 1 0.753530 -18.300722 35.512207
252 0 1 -0.105870 -17.863623 35.691406
253 0 1 -0.014279 -17.059523 36.124817
254 0 1 -0.175265 -16.440823 36.827209
255 0 1 -1.181870 -16.734823 36.944489
256 0 1 -2.110720 -16.770622 36.994995
257 0 1 -2.373090 -17.657623 36.615692
258 0 1 -2.941409 -18.249422 36.112701
259 0 1 -3.800940 -18.597023 36.080017
260 0 1 -3.761670 -17.676422 35.835205
261 0 1 -3.187110 -16.929823 36.076813
262 0 1 -2.316970 -16.886822 35.834198
263 0 1 -1.707732 -17.102222 35.052704
264 0 1 -0.945469 -16.701422 34.645905
265 0 1 -1.552090 -15.932624 34.691406
266 0 1 -2.247859 -15.489224 35.130188
267 0 1 -3.161849 -15.489024 34.857208
268 0 1 -3.493279 -15.822223 35.730194
269 0 1 -4.178170 -15.478824 36.382294
270 0 1 -4.923388 -15.333323 37.101593
271 0 1 -5.447680 -15.536723 37.868805
272 0 1 -6.143389 -15.544724 38.507385
273 0 1 -6.237990 -16.027224 39.370300
274 0 1 -6.575400 -16.916224 39.350403
275 0 1 -7.302140 -17.255823 39.830292
276 0 1 -7.288369 -18.200222 40.002289
277 0 1 -7.926079 -17.995123 40.695404
278 0 1 -8.154319 -17.140022 40.938202
279 0 1 -8.899280 -17.698523 41.157806
280 0 1 -9.450009 -17.248722 40.505890
281 0 1 -10.391139 -16.943422 40.619507
282 0 1 -10.698501 -16.731823 39.747711
283 0 1 -10.342158 -16.902822 38.899200
284 0 1 -10.180629 -16.928322 37.978516
285 0 1 -9.631249 -16.167822 37.845490
286 0 1 -9.456611 -15.215623 37.868408
287 0 1 -10.155601 -14.752524 37.370209
288 0 1 -10.669200 -14.433923 36.629211
289 0 1 -10.073390 -14.075423 35.955994
290 0 1 -9.992450 -13.131224 36.159485
291 0 1 -9.939349 -12.256925 35.720886
292 0 1 -10.641929 -11.804124 35.226898
293 0 1 -11.410880 -11.726624 34.646790
294 0 1 -11.037879 -10.831323 34.697510
295 0 1 -10.190188 -10.366822 34.795410
296 0 1 -9.386430 -9.872323 34.835999
297 0 1 -8.923259 -10.623525 35.252502
298 0 1 -8.851350 -11.164525 36.139709
299 0 1 -8.402940 -11.433423 36.984497
300 0 1 -7.870108 -12.223023 36.934113
301 0 1 -8.425670 -12.393023 37.607697
302 0 1 -9.200141 -12.096425 38.266693
303 0 1 -9.522840 -11.172624 38.304108
304 0 1 -8.596770 -11.241923 38.576813
305 0 1 -7.725699 -11.725224 38.426605
306 0 1 -7.698248 -11.775723 39.325897
307 0 1 -8.205350 -11.490323 40.092102
308 0 1 -9.018321 -11.027524 40.197998
309 0 1 -8.230680 -10.528623 40.400787
310 0 1 -8.890059 -9.923324 40.608612
311 0 1 -9.730010 -9.469724 40.300598
312 0 1 -9.247581 -8.629724 40.124908
313 0 1 -8.344119 -8.431325 39.964294
314 0 1 -7.394530 -8.230424 39.692902
315 0 1 -7.122130 -8.361434 40.622711
316 0 1 -7.213370 -7.974694 41.459503
317 0 1 -6.798098 -8.296983 42.244995
318 0 1 -7.544779 -8.889024 42.492401
319 0 1 -7.664189 -9.501924 41.707611
320 0 1 -7.837559 -9.886125 42.580292
321 0 1 -7.383280 -9.851724 43.437012
322 0 1 -6.423449 -9.903024 43.522400
323 0 1 -6.764658 -10.719323 43.089691
324 0 1 -6.971259 -10.468524 42.152100
325 0 1 -6.029629 -10.551423 42.408997
326 0 1 -5.354060 -10.912923 43.077515
327 0 1 -4.907340 -10.464324 43.846008
328 0 1 -4.555789 -9.805823 44.576294
329 0 1 -4.809340 -8.985723 44.967102
330 0 1 -5.150908 -9.178723 44.065887
331 0 1 -6.056818 -9.021424 44.339905
332 0 1 -6.444129 -9.212125 45.181305
333 0 1 -7.399149 -9.386424 45.243286
334 0 1 -8.216830 -9.711123 45.647583
335 0 1 -7.695220 -9.570724 46.467499
336 0 1 -7.837399 -8.597825 46.704407
337 0 1 -6.870139 -8.321572 46.860413
338 0 1 -6.232718 -7.894883 46.153015
339 0 1 -6.014470 -7.129125 46.696808
340 0 1 -5.225079 -7.658685 46.763397
341 0 1 -4.476859 -7.602033 47.378204
342 0 1 -4.685259 -6.814153 46.854614
343 0 1 -4.499838 -5.969234 46.363800
344 0 1 -4.936009 -5.048644 46.466705
345 0 1 -5.471409 -5.090154 45.644012
346 0 1 -5.999909 -5.856153 45.770203
347 0 1 -6.638400 -6.437034 45.240906
348 0 1 -6.900670 -5.722573 44.634308
349 0 1 -7.777119 -5.376824 44.149994
350 0 1 -7.710909 -4.678643 43.494995
351 0 1 -7.775269 -3.848454 43.913910
352 0 1 -8.490140 -3.462344 43.344208
353 0 1 -8.586160 -2.809853 42.683105
354 0 1 -9.412360 -2.449815 42.226105
355 0 1 -10.345670 -2.468444 41.948792
356 0 1 -11.273580 -2.604832 41.800293
357 0 1 -10.894080 -3.495204 41.940002
358 0 1 -11.487079 -4.076083 42.434906
359 0 1 -10.807319 -4.701474 42.180115
360 0 1 -10.237781 -4.368264 41.387390
361 0 1 -11.166179 -4.507394 41.242096
362 0 1 -11.525981 -5.401454 40.999817
363 0 1 -10.753619 -5.753175 41.412109
364 0 1 -9.946490 -5.440114 41.048401
365 0 1 -9.022040 -5.261054 40.849487
366 0 1 -8.798720 -4.748864 40.033112
367 0 1 -8.255019 -4.474704 40.803101
368 0 1 -7.374758 -4.333013 40.471008
369 0 1 -6.407238 -4.319703 40.593994
370 0 1 -5.693068 -3.818803 40.106903
371 0 1 -5.897999 -2.963084 40.412506
372 0 1 -5.655289 -2.061173 40.783905
373 0 1 -5.046050 -1.397153 40.476501
374 0 1 -4.612519 -0.917144 41.104187
375 0 1 -4.467659 -0.561093 40.218109
376 0 1 -3.770339 0.013566 40.023315
377 0 1 -2.938790 0.295676 39.529602
378 0 1 -2.554759 0.376077 40.387085
379 0 1 -2.283559 0.642745 41.270813
380 0 1 -2.242900 -0.159083 41.801514
381 0 1 -2.661559 0.245786 42.611603
382 0 1 -3.018189 1.102878 42.760712
383 0 1 -2.768979 2.067909 42.881287
384 0 1 -2.092250 2.601257 43.197510
385 0 1 -2.108449 2.787557 42.239807
386 0 1 -1.153216 2.917806 42.133087
387 0 1 -1.794362 3.481555 41.633606
388 0 1 -1.696580 3.832706 40.709503
389 0 1 -2.006800 4.440616 40.100891
390 0 1 -1.676455 5.331668 40.046509
391 0 1 -1.766625 5.515258 40.981598
392 0 1 -1.424878 5.692466 41.837311
393 0 1 -1.613690 5.634356 42.786102
394 0 1 -1.257617 5.052356 43.414917
395 0 1 -0.939389 4.920325 44.330811
396 0 1 -0.193583 4.428748 43.983887
397 0 1 0.736009 4.681117 44.193207
398 0 1 0.954431 3.949249 44.721710
399 0 1 1.121259 3.058027 44.254303
400 0 1 1.175771 2.240848 43.726013
401 0 1 1.149251 1.473615 43.193909
402 0 1 1.595083 1.222617 44.160309
403 0 1 0.925901 0.678168 44.519104
404 0 1 1.021779 0.484597 45.460693
405 0 1 1.813642 -0.074983 45.339203
406 0 1 2.082990 -0.924153 45.256409
407 0 1 3.008771 -0.618955 45.319885
408 0 1 2.601480 -0.037843 44.676208
409 0 1 3.454931 0.450137 44.619110
410 0 1 2.715451 0.814298 44.067993
411 0 1 2.755162 1.611167 44.553009
412 0 1 3.548021 2.247693 44.310608
413 0 1 4.167200 2.944406 44.093384
414 0 1 4.229940 2.703416 45.052002
415 0 1 5.177320 2.505656 45.043091
416 0 1 5.566690 1.694217 44.608490
417 0 1 6.175600 1.040843 44.967712
418 0 1 6.288621 0.825862 43.988495
419 0 1 6.628709 1.734868 44.088501
420 0 1 6.700361 2.059451 44.957397
421 0 1 7.672250 2.069984 44.855011
422 0 1 8.112592 2.765716 45.340790
423 0 1 8.214292 3.196857 46.174316
424 0 1 8.588220 3.887218 46.709412
425 0 1 9.457421 3.777595 46.245911
426 0 1 9.934522 3.908805 47.092285
427 0 1 10.682820 4.201358 46.616913
428 0 1 10.445821 4.712398 45.903687
429 0 1 10.167920 5.255218 45.203003
430 0 1 9.239919 5.333407 44.964203
431 0 1 8.796170 4.510516 45.068787
432 0 1 8.015580 4.211787 45.791595
433 0 1 7.358720 3.836898 46.444611
434 0 1 6.424459 3.961276 46.635498
435 0 1 5.613031 4.264037 46.217285
436 0 1 5.638681 4.521937 47.136902
437 0 1 5.379690 5.366797 47.644409
438 0 1 4.703039 6.002406 47.335083
439 0 1 4.246152 5.863288 46.529602
440 0 1 3.634229 6.586997 46.401917
441 0 1 4.132902 7.123687 46.949585
442 0 1 3.257249 7.461616 47.143707
443 0 1 2.573331 6.894958 46.652802
444 0 1 2.306550 6.079185 46.181610
445 0 1 2.516492 5.238948 45.693604
446 0 1 1.547002 5.167285 45.916595
447 0 1 0.742891 4.918258 46.397400
448 0 1 0.824151 5.165988 47.344208
449 0 1 0.909891 5.578555 48.293884
450 0 1 1.323770 6.140445 48.924713
451 0 1 0.864000 5.937716 49.718292
452 0 1 1.053079 6.838466 49.617615
453 0 1 0.518630 7.579818 49.326599
454 0 1 1.396062 7.932376 49.083984
455 0 1 1.075033 8.778686 49.576904
456 0 1 0.985811 9.277118 50.379211
457 0 1 1.112771 9.138858 51.316193
458 0 1 0.561540 8.940368 52.054291
459 0 1 -0.033879 9.416636 52.729797
460 0 1 0.516651 10.057067 52.293884
461 0 1 0.056917 10.865058 52.088196
462 0 1 -0.280755 11.680877 51.720886
463 0 1 0.301792 12.198775 51.159790
464 0 1 0.784879 12.406978 51.980103
465 0 1 1.551271 11.913375 52.301514
466 0 1 2.382871 12.263175 52.006592
467 0 1 3.134359 12.460376 52.647003
468 0 1 3.163480 13.415977 52.742889
469 0 1 2.287492 13.932578 52.738708
470 0 1 1.950261 14.501678 51.990295
471 0 1 1.167352 14.684676 51.470490
472 0 1 1.928251 14.778174 50.924011
473 0 1 2.781091 15.104976 51.166016
474 0 1 3.273881 14.612475 50.509003
475 0 1 3.293859 14.286078 49.587311
476 0 1 2.855680 13.889277 48.868591
477 0 1 2.705949 14.841178 48.790588
478 0 1 2.493421 15.703475 48.475891
479 0 1 2.816522 16.541878 48.181610
480 0 1 2.875451 17.443878 48.547485
481 0 1 3.850301 17.416679 48.581512
482 0 1 3.521119 16.834377 49.208008
483 0 1 3.181222 15.983977 49.084106
484 0 1 3.954820 15.978278 48.510986
485 0 1 4.175809 14.997878 48.340393
486 0 1 4.373910 14.341975 47.606384
487 0 1 4.848852 13.915576 46.875000
488 0 1 5.070409 12.969878 46.962891
489 0 1 5.402101 12.398578 46.240601
490 0 1 4.714719 12.895175 45.842804
491 0 1 5.554090 13.132476 45.359894
492 0 1 5.692811 12.257777 44.857300
493 0 1 6.501661 12.010776 44.316193
494 0 1 6.567880 11.670077 43.447601
495 0 1 6.805521 10.908626 43.959503
496 0 1 6.071310 10.428386 43.657196
497 0 1 5.480852 10.953357 44.183411
498 0 1 6.191289 10.642146 44.748993
499 0 1 5.771520 9.758529 45.030609
500 0 1 6.354352 9.167914 45.502991
501 0 1 6.730222 8.611697 44.848206
502 0 1 5.869279 8.645835 44.400299
503 0 1 6.094129 8.515487 43.433502
504 0 1 6.267412 8.870566 42.618896
505 0 1 7.110731 9.133765 43.105286
506 0 1 7.109781 9.783107 42.398010
507 0 1 7.094102 10.447234 41.676392
508 0 1 7.302061 11.136817 41.024902
509 0 1 6.652799 11.057696 40.346588
510 0 1 6.012670 11.298827 39.684387
511 0 1 6.358301 11.569278 38.867401
512 0 1 7.003599 12.076674 38.316711
513 0 1 7.305650 12.924975 38.637909
514 0 1 7.926210 12.555175 39.304199
515 0 1 7.412282 12.948577 40.047791
516 0 1 6.684843 13.551276 39.659912
517 0 1 6.310022 13.245574 40.502594
518 0 1 5.395952 13.407577 40.584900
519 0 1 4.879423 14.212077 40.597107
520 0 1 4.233930 14.387977 39.877197
521 0 1 3.596551 14.486278 40.684906
522 0 1 3.814950 15.385978 40.681396
523 0 1 3.433629 15.883574 41.425507
524 0 1 3.120702 15.929175 42.298096
525 0 1 3.626310 15.828475 43.171295
526 0 1 3.085782 16.494976 43.694397
527 0 1 2.884839 17.019478 42.845886
528 0 1 2.311979 17.448380 42.282898
529 0 1 2.579881 18.076675 41.629517
530 0 1 3.511213 18.239075 41.587006
531 0 1 3.727231 19.040878 42.126312
532 0 1 3.415452 19.258377 41.209595
533 0 1 3.477342 19.319275 40.240906
534 0 1 2.724099 19.876076 40.329285
535 0 1 2.415792 20.636578 39.906006
536 0 1 3.120500 20.776077 39.187988
537 0 1 2.318422 20.940777 38.652191
538 0 1 2.425412 21.595879 37.959290
539 0 1 1.754640 21.695877 37.237701
540 0 1 1.332872 21.244476 37.928009
541 0 1 1.551099 22.133179 38.081512
542 0 1 0.697999 21.990875 37.683899
543 0 1 -0.194945 22.181976 37.341187
544 0 1 -1.159236 22.369576 37.537292
545 0 1 -1.124003 23.337078 37.779907
546 0 1 -1.308594 24.055580 38.458588
547 0 1 -0.977166 23.816475 39.285095
548 0 1 -0.156136 23.358578 39.146606
549 0 1 0.718961 23.187378 39.643005
550 0 1 -0.002196 22.775879 40.137695
551 0 1 0.628011 22.272377 40.713684
552 0 1 -0.170954 21.786980 40.804291
553 0 1 -0.773692 21.796280 39.981995
554 0 1 -1.101853 20.983978 39.515289
555 0 1 -1.792258 21.578178 39.764587
556 0 1 -2.164750 20.700378 39.658508
557 0 1 -2.546439 20.365776 38.861389
558 0 1 -1.785329 20.316879 38.227112
559 0 1 -1.986609 19.679680 37.598206
560 0 1 -2.534119 19.099976 37.143097
561 0 1 -2.268019 19.693275 36.426697
562 0 1 -2.512580 19.030277 35.702698
563 0 1 -2.819640 19.362278 34.811584
564 0 1 -2.049510 18.798279 34.656097
565 0 1 -2.387339 18.050179 35.131012
566 0 1 -2.186919 17.181778 34.818298
567 0 1 -1.588391 17.175575 34.043213
568 0 1 -1.807343 16.316078 33.636414
569 0 1 -2.342099 15.706275 34.152191
570 0 1 -2.273610 15.462577 33.156494
571 0 1 -2.459500 14.732276 32.634705
572 0 1 -2.124860 13.996474 32.200684
573 0 1 -2.391940 13.643275 31.316711
574 0 1 -2.961560 13.119475 31.945496
575 0 1 -3.833070 13.594676 31.821991
576 0 1 -4.564438 13.073276 31.344696
577 0 1 -4.741179 12.790778 30.492706
578 0 1 -4.322058 13.334277 29.831604
579 0 1 -3.584460 12.809276 30.154297
580 0 1 -3.112910 12.339576 30.892487
581 0 1 -2.685858 11.539405 30.674194
582 0 1 -2.735989 10.568538 30.677795
583 0 1 -2.759099 9.912696 31.382385
584 0 1 -3.459510 9.875445 31.990814
585 0 1 -3.674880 10.199454 32.895508
586 0 1 -2.734950 10.412345 32.719513
587 0 1 -1.960299 10.813949 33.244385
588 0 1 -1.523150 10.770644 34.115784
589 0 1 -1.868239 9.862166 34.232605
590 0 1 -1.797356 9.107696 34.769592
591 0 1 -2.746588 9.019225 34.570404
592 0 1 -2.957679 9.211307 35.450195
593 0 1 -3.729369 9.395556 36.027710
594 0 1 -4.147789 10.171699 36.477692
595 0 1 -3.960950 11.113425 36.219208
596 0 1 -4.351609 11.977977 35.895203
597 0 1 -3.525489 12.005675 35.310303
598 0 1 -3.307879 12.431075 36.192902
599 0 1 -2.662549 12.757674 36.862610
600 0 1 -2.547980 13.652377 36.578796
601 0 1 -2.511239 13.862277 35.623993
602 0 1 -1.923039 14.565375 35.823608
603 0 1 -1.391123 13.793777 35.993011
604 0 1 -0.966212 13.907378 35.165710
605 0 1 -0.749667 13.069777 35.652588
606 0 1 0.071754 13.200675 36.135590
607 0 1 0.804510 12.944076 36.610199
608 0 1 1.639402 13.019378 36.154785
609 0 1 1.920980 13.633277 36.827393
610 0 1 2.188340 12.799376 37.261597
611 0 1 3.178090 12.527076 37.042908
612 0 1 3.841569 12.614577 36.333588
613 0 1 4.094633 11.687675 36.625610
614 0 1 3.543679 10.878798 36.530090
615 0 1 4.130670 10.615016 35.811584
616 0 1 4.916482 10.073997 35.557190
617 0 1 5.077562 9.398265 36.270203
618 0 1 4.490232 8.832965 35.695709
619 0 1 4.670621 8.106757 36.241913
620 0 1 4.679410 7.473746 35.479309
621 0 1 4.013521 6.739955 35.325592
622 0 1 4.164102 6.687987 34.336792
623 0 1 3.716192 7.009997 33.495209
624 0 1 2.799039 7.234717 33.784393
625 0 1 2.890432 8.170115 34.081390
626 0 1 3.630430 8.695937 33.670715
627 0 1 3.359288 9.316897 32.980408
628 0 1 3.262021 8.684115 32.292999
629 0 1 2.645372 8.271716 31.643188
630 0 1 1.781980 8.435187 31.365204
631 0 1 1.551591 9.280677 31.065308
632 0 1 2.268949 9.117698 30.392090
633 0 1 2.306302 10.089927 30.234497
634 0 1 1.831170 10.682204 30.762909
635 0 1 1.190172 11.383574 30.707306
636 0 1 0.961900 10.841949 29.938812
637 0 1 0.685750 10.094287 29.382996
638 0 1 1.453290 10.103278 28.906403
639 0 1 1.681322 9.168006 28.869690
640 0 1 2.474412 8.833938 28.375916
641 0 1 2.028100 7.943835 28.497314
642 0 1 2.550470 7.822948 29.292786
643 0 1 3.122201 7.858638 28.531006
644 0 1 3.197141 6.883895 28.659393
645 0 1 2.425580 6.753707 29.238312
646 0 1 1.685480 6.145408 29.472290
647 0 1 2.238050 5.400825 29.845490
648 0 1 3.107610 5.854697 29.967712
649 0 1 3.947309 5.298366 29.957703
650 0 1 4.450269 5.917018 29.426910
651 0 1 4.773691 5.752456 28.539703
652 0 1 5.635870 5.264537 28.551910
653 0 1 6.365121 4.615825 28.510406
654 0 1 5.872880 4.185695 27.703705
655 0 1 6.668310 4.670997 27.410492
656 0 1 6.880849 4.390147 26.516602
657 0 1 7.205389 3.850108 25.774811
658 0 1 8.146840 3.957748 25.868805
659 0 1 8.804021 4.077388 25.165802
660 0 1 9.349820 4.206985 25.995087
661 0 1 9.529820 5.055385 25.546692
662 0 1 9.544919 5.425826 26.421204
663 0 1 10.126721 5.833297 27.131714
664 0 1 9.458119 6.378596 27.607788
665 0 1 9.389421 7.136825 28.136810
666 0 1 9.218122 6.524917 28.759308
667 0 1 9.328721 5.621375 28.662201
668 0 1 8.680959 4.873115 28.589813
669 0 1 8.522210 4.295478 29.355103
670 0 1 8.711411 3.868575 28.528107
671 0 1 9.239720 4.312846 27.769501
672 0 1 10.031220 4.487285 28.193207
673 0 1 10.498921 4.167075 28.984192
674 0 1 10.265721 3.268417 28.583191
675 0 1 11.065721 3.660747 28.129089
676 0 1 11.654519 3.225955 27.575592
677 0 1 12.356820 2.934507 27.055206
678 0 1 13.284619 3.102878 26.872711
679 0 1 13.723519 3.900848 27.032501
680 0 1 13.763318 3.753436 28.000000
681 0 1 14.451119 3.235465 27.471100
682 0 1 14.994920 3.235568 28.326508
683 0 1 15.884221 3.437427 27.955811
684 0 1 15.854321 3.116325 27.067291
685 0 1 16.595522 3.264846 26.495209
686 0 1 17.449121 3.558677 26.800812
687 0 1 17.909121 3.053697 26.131714
688 0 1 17.841124 3.161117 25.181702
689 0 1 16.892321 3.319766 25.174103
690 0 1 16.623724 4.030955 24.626007
691 0 1 17.201223 4.660346 24.179199
692 0 1 17.893621 5.016025 23.544495
693 0 1 18.112524 4.737636 22.621216
694 0 1 17.918219 3.945148 22.028992
695 0 1 17.499922 3.110038 21.888596
696 0 1 17.176519 3.418887 20.986603
697 0 1 16.863420 2.660627 20.542206
698 0 1 16.518122 2.054445 19.781494
699 0 1 15.754819 2.431104 19.264297
700 0 1 16.322424 2.073070 18.596603
701 0 1 16.917120 1.468103 18.108093
702 0 1 17.620821 0.962176 18.616104
703 0 1 17.829924 -0.023223 18.501999
704 0 1 17.019922 -0.075383 18.955093
705 0 1 17.510023 -0.063813 19.914001
706 0 1 17.079618 -0.913804 20.158707
707 0 1 16.878119 -1.870084 20.279999
708 0 1 16.686224 -2.551934 20.989807
709 0 1 16.425322 -3.154324 21.760406
710 0 1 15.499021 -3.170203 21.407593
711 0 1 14.935719 -3.706734 21.943298
712 0 1 14.944020 -3.912843 20.994797
713 0 1 14.024621 -4.402324 20.893402
714 0 1 13.832921 -4.172183 19.922501
715 0 1 13.949819 -4.922074 19.297195
716 0 1 13.669122 -4.833943 18.402603
717 0 1 12.967721 -5.244363 18.911194
718 0 1 12.434819 -4.403134 18.681000
719 0 1 11.448918 -4.756154 18.555496
720 0 1 10.868520 -4.052873 18.859497
721 0 1 10.894422 -4.619744 19.611801
722 0 1 10.764623 -5.425794 20.214996
723 0 1 11.067220 -4.756883 20.765305
724 0 1 11.625920 -4.029063 21.189392
725 0 1 11.884320 -3.758363 20.248901
726 0 1 11.065320 -3.262204 19.907501
727 0 1 10.688420 -2.650153 19.260193
728 0 1 11.446019 -2.140164 19.529404
729 0 1 11.960420 -2.418893 20.335907
730 0 1 11.605519 -2.800414 21.146103
731 0 1 12.006021 -2.091723 21.578506
732 0 1 11.714520 -2.608784 22.340500
733 0 1 11.789021 -2.432463 23.299591
734 0 1 11.184319 -1.626033 23.320709
735 0 1 11.111421 -0.818974 22.820496
736 0 1 11.911321 -0.190783 22.740906
737 0 1 11.714021 -0.714194 21.892593
738 0 1 12.517423 -0.308024 21.845596
739 0 1 12.948220 -1.005563 21.240906
740 0 1 13.235421 -1.490794 20.445206
741 0 1 13.163022 -0.733573 19.695892
742 0 1 14.076619 -0.541003 19.478806
743 0 1 13.907121 0.380876 19.207901
744 0 1 13.063321 0.907943 19.211899
745 0 1 12.586919 0.203357 19.645798
746 0 1 11.965520 0.892343 19.332794
747 0 1 11.918519 0.696462 18.421204
748 0 1 12.643422 1.288253 18.241196
749 0 1 12.357320 1.914014 17.516098
750 0 1 11.606420 2.449857 17.267105
751 0 1 11.144219 1.792958 16.702393
752 0 1 10.758721 2.646066 16.372803
753 0 1 9.921422 2.339217 16.018906
754 0 1 9.776422 1.418510 15.943604
755 0 1 9.046720 0.945270 15.486908
756 0 1 8.324021 0.943235 16.071899
757 0 1 7.605329 0.288367 15.889496
758 0 1 7.962072 -0.560643 16.272705
759 0 1 7.507211 -0.009854 16.932693
760 0 1 8.112729 -0.719384 17.326904
761 0 1 8.627381 -1.511073 17.266006
762 0 1 9.058911 -0.962783 16.606003
763 0 1 8.505940 -1.500184 16.102295
764 0 1 7.627119 -1.370894 15.748901
765 0 1 6.629152 -1.381244 15.602295
766 0 1 6.549760 -0.859103 14.824600
767 0 1 5.893362 -0.201354 15.006195
768 0 1 5.412961 -0.169013 15.828995
769 0 1 5.633939 0.064286 16.755997
770 0 1 4.731870 -0.176553 16.901794
771 0 1 4.216459 -0.470204 17.727097
772 0 1 4.155691 -1.424214 17.633804
773 0 1 3.161321 -1.615214 17.618103
774 0 1 2.819612 -0.768584 17.352798
775 0 1 1.892049 -0.479863 17.309296
776 0 1 1.328100 0.148536 17.015900
777 0 1 1.504690 0.984546 16.539001
778 0 1 1.082281 1.802865 16.432404
779 0 1 0.215900 2.101903 16.106796
780 0 1 -0.323006 1.783733 16.924500
781 0 1 -0.290860 0.952335 17.463501
782 0 1 0.040675 1.185096 18.322906
783 0 1 -0.442662 1.605889 19.061401
784 0 1 -0.391747 2.463472 18.587006
785 0 1 -1.233384 2.874276 18.533798
786 0 1 -2.048850 2.398471 18.369995
787 0 1 -2.671929 1.726089 18.131302
788 0 1 -2.744309 1.301366 19.030106
789 0 1 -3.489110 0.767688 18.759003
790 0 1 -3.573920 -0.164004 19.018097
791 0 1 -3.183499 -0.387343 18.222794
792 0 1 -4.004038 -0.079083 17.874496
793 0 1 -3.905589 -0.096364 16.933395