LAMMPS data file via MDAnalysis

        2000  atoms
        1999  bonds
           0  angles
           0  dihedrals
           0  impropers

           1  atom types
           1  bond types
           0  angle types
           0  dihedral types
           0  improper types

-30.5 30.5 xlo xhi
-30.5 30.5 ylo yhi
-233.5 233.5 zlo zhi


Masses

1 1.000000

Atoms

1 0 1 -20.047329 4.813078 55.357208
2 0 1 -19.886028 4.123507 54.726288
3 0 1 -19.012529 3.728247 55.089203
4 0 1 -19.288229 3.694536 56.021912
5 0 1 -18.450129 3.950838 56.524994
6 0 1 -17.765429 3.295298 56.353302
7 0 1 -17.136728 4.017859 56.216705
8 0 1 -16.279728 3.808089 56.587311
9 0 1 -16.378429 4.677977 56.770508
10 0 1 -16.812929 5.529978 56.983704
11 0 1 -17.385529 6.277777 56.961090
12 0 1 -17.782829 6.757177 56.266785
13 0 1 -17.591228 7.684977 55.992188
14 0 1 -18.291929 8.198877 56.433716
15 0 1 -17.691029 8.940180 56.261597
16 0 1 -16.797628 8.801279 56.454895
17 0 1 -15.993030 8.360579 56.050812
18 0 1 -15.388429 9.003580 55.654602
19 0 1 -15.287229 9.962378 55.684692
20 0 1 -15.293929 10.097677 56.646912
21 0 1 -16.205328 10.136576 56.345093
22 0 1 -16.875828 10.592379 56.927399
23 0 1 -16.453428 10.054178 57.600800
24 0 1 -17.441729 10.007479 57.634491
25 0 1 -17.525328 10.979677 57.675293
26 0 1 -18.231428 11.572977 57.666016
27 0 1 -17.492628 12.195276 57.769196
28 0 1 -17.756229 12.942778 58.343903
29 0 1 -16.993128 13.011576 58.907104
30 0 1 -16.487228 12.189280 58.871002
31 0 1 -16.237228 11.822275 58.041107
32 0 1 -16.066729 11.038980 58.533295
33 0 1 -15.325730 10.463076 58.334412
34 0 1 -14.428229 10.668478 58.632904
35 0 1 -13.798530 11.406477 58.789001
36 0 1 -13.588630 12.199179 58.343811
37 0 1 -12.706929 12.235476 57.964203
38 0 1 -12.677230 13.142878 58.261688
39 0 1 -12.722430 14.053980 57.955994
40 0 1 -12.380929 14.903376 58.364685
41 0 1 -12.945630 15.543276 57.886597
42 0 1 -11.976430 15.621576 57.624084
43 0 1 -11.261430 15.286879 58.234497
44 0 1 -10.452430 14.915880 58.563812
45 0 1 -10.079329 13.970575 58.516510
46 0 1 -9.254329 14.552477 58.383911
47 0 1 -8.777530 13.637575 58.387909
48 0 1 -7.867629 13.942278 58.450195
49 0 1 -7.116630 14.185278 59.101410
50 0 1 -7.561229 14.305979 59.943909
51 0 1 -8.293229 14.938978 59.791016
52 0 1 -8.314231 15.862276 59.656006
53 0 1 -8.118230 15.725077 60.569092
54 0 1 -8.999530 15.387575 60.720398
55 0 1 -9.881431 15.664278 60.489197
56 0 1 -10.436728 14.865877 60.288910
57 0 1 -10.016429 14.268377 59.666992
58 0 1 -9.812430 14.044779 60.574707
59 0 1 -10.532531 14.285280 61.156006
60 0 1 -10.660130 13.394777 61.446594
61 0 1 -10.578629 12.751680 60.675415
62 0 1 -11.021130 11.903276 60.667603
63 0 1 -10.367930 11.624277 59.963013
64 0 1 -10.620629 10.735079 60.324890
65 0 1 -10.082728 10.522280 59.576996
66 0 1 -10.220531 9.628679 59.752197
67 0 1 -9.501830 9.034678 59.394012
68 0 1 -10.352729 8.790476 59.052094
69 0 1 -9.615729 8.442678 58.426697
70 0 1 -8.979030 7.782278 58.006195
71 0 1 -8.911630 6.893679 57.792297
72 0 1 -8.566230 7.393076 57.025787
73 0 1 -8.788930 7.596178 56.124695
74 0 1 -9.769931 7.595877 55.939301
75 0 1 -10.598829 8.007776 55.847809
76 0 1 -11.222930 7.644079 55.234009
77 0 1 -10.646429 6.915678 55.282806
78 0 1 -10.824929 6.938379 54.267303
79 0 1 -10.587930 6.025679 54.185486
80 0 1 -9.788930 5.579180 53.809113
81 0 1 -9.306830 6.102579 54.569397
82 0 1 -8.821630 6.911077 54.829895
83 0 1 -7.881228 6.917078 55.038696
84 0 1 -7.622930 6.004179 54.932892
85 0 1 -7.529029 5.679579 55.878510
86 0 1 -7.019031 5.276876 56.653290
87 0 1 -7.854430 4.874578 57.091400
88 0 1 -7.776830 5.466280 57.945984
89 0 1 -7.166329 5.725878 58.616394
90 0 1 -6.555930 6.354677 59.004395
91 0 1 -7.003030 6.318678 59.951508
92 0 1 -6.150229 5.955576 60.153198
93 0 1 -5.527301 5.287477 60.041687
94 0 1 -5.436809 5.010679 59.122711
95 0 1 -4.536899 5.038877 59.484406
96 0 1 -3.634749 5.128477 59.092896
97 0 1 -4.217608 4.954477 58.416809
98 0 1 -4.622588 4.135008 58.840393
99 0 1 -3.955600 3.387530 58.818604
100 0 1 -3.271129 2.754549 59.037598
101 0 1 -3.109639 2.073038 58.368896
102 0 1 -2.229119 2.394648 58.596405
103 0 1 -1.583209 2.434199 59.324799
104 0 1 -1.133729 1.945677 59.968384
105 0 1 -1.475850 1.074000 60.095612
106 0 1 -1.671988 1.188646 61.066589
107 0 1 -2.593360 1.182718 60.804108
108 0 1 -2.539319 0.902300 61.695709
109 0 1 -2.445868 -0.009813 61.443207
110 0 1 -3.220710 0.072577 60.933716
111 0 1 -3.822789 0.072928 60.135895
112 0 1 -4.451179 -0.522512 59.621796
113 0 1 -4.560500 -1.228102 59.085602
114 0 1 -5.232638 -1.693960 59.624207
115 0 1 -5.834861 -1.735941 58.785004
116 0 1 -6.671828 -2.172392 58.462708
117 0 1 -6.896230 -1.200502 58.437500
118 0 1 -6.490230 -0.388441 58.852905
119 0 1 -6.653230 -0.637342 59.763306
120 0 1 -6.401931 -0.891733 60.692200
121 0 1 -7.026629 -0.352373 61.163910
122 0 1 -7.560031 0.123850 60.510590
123 0 1 -7.992330 -0.446142 61.136688
124 0 1 -8.901429 -0.690370 60.843811
125 0 1 -9.240430 -1.491182 61.238892
126 0 1 -8.465730 -1.810614 60.735504
127 0 1 -8.181029 -1.670401 59.798889
128 0 1 -8.393430 -2.670351 59.872894
129 0 1 -9.081828 -2.999323 60.487305
130 0 1 -9.032130 -3.469873 61.297699
131 0 1 -9.849830 -4.013433 61.238098
132 0 1 -9.968928 -3.782541 60.326996
133 0 1 -10.714530 -4.422691 60.311096
134 0 1 -10.875529 -4.366873 61.248108
135 0 1 -11.461829 -4.701511 62.093201
136 0 1 -12.035430 -4.948727 62.802307
137 0 1 -12.641229 -4.597591 62.143799
138 0 1 -13.405429 -5.063105 62.373413
139 0 1 -14.153430 -5.678755 62.310608
140 0 1 -14.847230 -6.065823 62.882202
141 0 1 -15.496530 -5.737545 62.229004
142 0 1 -16.227528 -5.108189 62.108093
143 0 1 -17.063528 -5.453550 61.928589
144 0 1 -16.705029 -5.685434 61.005890
145 0 1 -16.575428 -6.598574 61.257690
146 0 1 -15.782830 -7.130102 61.394409
147 0 1 -15.368230 -7.880623 60.951416
148 0 1 -15.817729 -8.277302 60.248108
149 0 1 -15.575229 -9.044752 59.761200
150 0 1 -15.331929 -9.875412 59.149689
151 0 1 -14.960130 -10.834242 59.035309
152 0 1 -14.453729 -10.712162 59.873596
153 0 1 -14.472129 -10.476292 60.827393
154 0 1 -13.670730 -9.964062 60.827209
155 0 1 -13.110629 -10.344742 60.169098
156 0 1 -12.284629 -10.822762 60.308899
157 0 1 -12.243529 -11.020163 61.287811
158 0 1 -13.025229 -11.546831 61.514099
159 0 1 -12.160529 -11.855612 62.041290
160 0 1 -11.178829 -11.604301 62.053406
161 0 1 -10.438430 -12.096333 61.863098
162 0 1 -10.256228 -11.300383 61.371002
163 0 1 -10.419929 -10.561712 61.850098
164 0 1 -10.846029 -10.207293 62.670105
165 0 1 -11.590130 -9.922333 63.070099
166 0 1 -12.550929 -9.984922 63.280884
167 0 1 -12.224330 -10.445162 64.025208
168 0 1 -13.069430 -10.464622 64.451416
169 0 1 -12.766330 -11.225393 65.028900
170 0 1 -13.212329 -12.051872 64.861603
171 0 1 -12.283830 -12.289991 64.771301
172 0 1 -11.845929 -12.257563 65.653107
173 0 1 -12.528829 -12.734882 66.195984
174 0 1 -11.853729 -13.345272 65.900696
175 0 1 -12.437629 -13.873922 66.422791
176 0 1 -12.898129 -13.739983 65.615784
177 0 1 -12.146529 -14.196142 65.054901
178 0 1 -11.165730 -14.295931 65.151306
179 0 1 -10.434930 -13.620451 65.083984
180 0 1 -10.176929 -13.349691 66.019501
181 0 1 -9.303029 -12.867273 66.066711
182 0 1 -8.891429 -12.996382 66.935089
183 0 1 -8.141829 -12.391582 67.210999
184 0 1 -8.262130 -11.485312 66.851105
185 0 1 -7.697129 -10.957333 66.170502
186 0 1 -7.973229 -10.900143 65.211487
187 0 1 -8.302329 -9.973782 65.409485
188 0 1 -7.857530 -9.577682 66.139709
189 0 1 -7.973128 -9.365772 67.055481
190 0 1 -8.930730 -9.593073 66.968109
191 0 1 -9.890330 -9.747522 67.283813
192 0 1 -9.554130 -9.767973 68.174316
193 0 1 -9.014930 -9.514322 68.900604
194 0 1 -9.232730 -9.052553 69.742188
195 0 1 -10.089229 -9.486883 69.729095
196 0 1 -10.762630 -8.879072 69.906311
197 0 1 -10.563729 -8.729132 70.849915
198 0 1 -10.195529 -8.725721 71.726318
199 0 1 -9.523528 -8.008482 71.486908
200 0 1 -10.218530 -7.445152 71.764496
201 0 1 -10.929130 -7.559893 72.364990
202 0 1 -11.327929 -8.189772 72.928497
203 0 1 -10.892229 -7.864511 73.721313
204 0 1 -10.315429 -7.921862 74.483490
205 0 1 -10.768430 -8.778482 74.744598
206 0 1 -11.639830 -9.047163 74.352692
207 0 1 -11.894629 -9.999311 74.316406
208 0 1 -11.867229 -10.146542 75.260406
209 0 1 -11.864730 -11.012032 75.721405
210 0 1 -12.600530 -10.378872 75.968597
211 0 1 -13.052329 -10.995703 75.303009
212 0 1 -13.755029 -11.775402 75.292694
213 0 1 -14.589629 -11.533562 75.668518
214 0 1 -14.847230 -12.441711 75.342407
215 0 1 -14.486129 -13.360142 75.203186
216 0 1 -13.849830 -12.765862 75.544891
217 0 1 -12.930030 -13.034172 75.178192
218 0 1 -12.555530 -13.081192 74.298706
219 0 1 -11.623429 -13.289831 74.073181
220 0 1 -11.935530 -13.925922 73.417206
221 0 1 -11.270829 -13.754961 72.761810
222 0 1 -11.086530 -12.789972 72.892883
223 0 1 -10.225631 -12.784021 72.556885
224 0 1 -10.084929 -11.876781 72.547089
225 0 1 -9.432528 -11.412363 73.021484
226 0 1 -8.865130 -12.078342 72.714294
227 0 1 -7.905330 -12.141453 72.932098
228 0 1 -7.892131 -12.533232 73.868103
229 0 1 -8.456328 -12.087042 74.617493
230 0 1 -8.848830 -11.355143 75.078491
231 0 1 -9.324130 -11.430622 75.945099
232 0 1 -10.063628 -10.888021 76.227692
233 0 1 -10.839930 -10.474123 76.461090
234 0 1 -11.207729 -10.052233 77.223907
235 0 1 -11.933229 -10.778631 77.401398
236 0 1 -12.375529 -10.444532 78.162415
237 0 1 -13.119830 -10.070122 77.519806
238 0 1 -13.469129 -9.250113 77.146790
239 0 1 -14.446130 -9.108452 77.178894
240 0 1 -14.446530 -9.679552 76.445099
241 0 1 -14.746430 -9.294992 75.650909
242 0 1 -13.842429 -8.878942 75.568390
243 0 1 -13.709329 -8.351883 74.798889
244 0 1 -13.923730 -7.437592 74.776917
245 0 1 -14.277530 -7.381092 75.619690
246 0 1 -13.949729 -7.160973 76.498108
247 0 1 -14.330230 -6.967463 77.360809
248 0 1 -13.427529 -7.262611 77.519592
249 0 1 -12.772130 -6.841459 78.065918
250 0 1 -12.184529 -7.663773 78.070007
251 0 1 -11.248030 -7.798773 77.742188
252 0 1 -11.186729 -8.536133 77.076111
253 0 1 -10.328429 -8.497982 76.699005
254 0 1 -10.553229 -8.707762 75.828400
255 0 1 -11.271629 -8.061932 76.022003
256 0 1 -10.909229 -7.160751 76.092804
257 0 1 -10.483230 -7.329163 75.274902
258 0 1 -10.113730 -6.635746 74.772705
259 0 1 -9.204329 -6.794825 75.152191
260 0 1 -8.524428 -7.267773 74.757111
261 0 1 -9.041129 -7.909733 75.319519
262 0 1 -9.389729 -7.490011 76.089996
263 0 1 -9.118730 -7.379112 76.978699
264 0 1 -8.152730 -7.564741 76.890503
265 0 1 -8.068629 -6.677376 77.317017
266 0 1 -8.268929 -5.947369 77.863800
267 0 1 -8.192630 -5.020876 77.790710
268 0 1 -7.755729 -4.203451 77.444305
269 0 1 -6.997430 -4.754103 77.566193
270 0 1 -6.542529 -4.113943 78.099304
271 0 1 -5.734139 -3.948862 77.664490
272 0 1 -5.641479 -4.888170 77.397491
273 0 1 -5.960441 -5.257807 76.524689
274 0 1 -6.648429 -5.465361 75.817017
275 0 1 -5.960589 -6.097174 75.681702
276 0 1 -5.583989 -5.699780 74.849487
277 0 1 -6.093730 -5.612169 73.997803
278 0 1 -6.387830 -4.802532 73.626801
279 0 1 -6.729529 -4.678331 72.731812
280 0 1 -7.394931 -4.014673 72.935913
281 0 1 -7.837729 -3.297010 73.398895
282 0 1 -7.698930 -2.902242 72.573486
283 0 1 -8.506330 -3.354810 72.668884
284 0 1 -9.172229 -3.252790 73.402283
285 0 1 -9.586129 -3.558382 72.631805
286 0 1 -9.911429 -3.477472 71.758118
287 0 1 -9.043630 -3.235731 71.429016
288 0 1 -9.303229 -3.948103 70.766998
289 0 1 -9.841929 -3.288061 70.304504
290 0 1 -9.482829 -2.558050 69.782593
291 0 1 -9.687930 -2.733412 68.813416
292 0 1 -9.491830 -1.857572 68.438416
293 0 1 -8.973529 -1.387831 69.097900
294 0 1 -8.109729 -1.074644 68.651917
295 0 1 -7.433730 -0.814260 69.240112
296 0 1 -7.540830 0.032778 68.698608
297 0 1 -7.786229 -0.008203 67.755890
298 0 1 -8.633330 0.471178 67.824707
299 0 1 -8.259528 1.147497 67.273315
300 0 1 -7.370830 1.243090 67.612396
301 0 1 -6.561229 1.563276 67.208313
302 0 1 -6.876330 2.460306 67.512909
303 0 1 -6.105430 2.923510 67.877808
304 0 1 -5.549209 2.315119 68.390198
305 0 1 -4.596770 2.557848 68.166992
306 0 1 -3.702579 2.821417 68.042603
307 0 1 -3.774240 3.822748 67.781311
308 0 1 -3.776729 4.764078 67.737183
309 0 1 -3.303510 5.028078 68.510895
310 0 1 -2.905129 5.943377 68.697906
311 0 1 -2.729430 6.178576 69.579407
312 0 1 -2.785640 6.337278 70.481384
313 0 1 -3.452489 6.370577 71.195312
314 0 1 -4.073760 5.969877 71.771484
315 0 1 -4.334949 6.891378 71.681091
316 0 1 -4.286689 7.918177 71.682190
317 0 1 -5.052711 8.446379 71.782806
318 0 1 -5.607249 8.288378 72.520599
319 0 1 -5.765809 7.390676 72.320312
320 0 1 -5.779220 6.921076 73.207489
321 0 1 -5.964149 7.832178 73.441895
322 0 1 -6.893130 7.929476 73.356110
323 0 1 -6.621131 7.381178 74.126495
324 0 1 -5.887910 7.409777 74.717102
325 0 1 -4.923228 7.557577 74.781494
326 0 1 -5.368079 8.368776 74.571991
327 0 1 -5.868360 9.160776 74.430908
328 0 1 -4.990689 9.256079 74.972809
329 0 1 -4.797271 9.900377 74.271484
330 0 1 -5.201678 10.623777 73.861816
331 0 1 -5.876710 11.197176 74.210510
332 0 1 -5.739200 11.610476 75.050507
333 0 1 -6.593329 11.980577 74.718292
334 0 1 -6.001309 12.711977 74.914917
335 0 1 -5.553130 13.557077 74.709595
336 0 1 -5.244630 12.926477 75.410095
337 0 1 -4.763259 13.187078 76.207489
338 0 1 -4.422111 13.636980 77.010590
339 0 1 -4.424970 12.632677 77.112793
340 0 1 -4.081538 12.485476 77.987793
341 0 1 -3.191579 12.454977 78.450195
342 0 1 -2.889930 13.256178 78.890991
343 0 1 -2.218181 12.793978 79.323486
344 0 1 -1.637509 13.390478 79.786102
345 0 1 -2.261159 14.015879 79.415710
346 0 1 -3.006360 14.647379 79.602112
347 0 1 -2.738650 15.428980 79.185303
348 0 1 -2.169000 15.804678 78.509705
349 0 1 -1.848790 14.871180 78.667694
350 0 1 -1.562070 15.008677 79.597504
351 0 1 -0.865390 15.238779 80.280212
352 0 1 -0.468610 14.416277 80.544403
353 0 1 0.144511 13.946978 79.950989
354 0 1 0.597951 13.231279 80.373291
355 0 1 0.673720 12.692678 79.551300
356 0 1 0.231650 12.813078 78.727295
357 0 1 0.628701 13.583078 78.275085
358 0 1 1.204021 12.809378 78.307800
359 0 1 1.455571 11.886778 78.141785
360 0 1 0.985160 11.083578 78.169495
361 0 1 0.297530 10.601278 77.649994
362 0 1 0.862800 10.524279 76.850098
363 0 1 0.195800 9.870878 76.965881
364 0 1 0.447360 8.958178 77.072998
365 0 1 0.122741 9.264677 77.950897
366 0 1 -0.310910 9.668779 78.755615
367 0 1 0.050391 9.224276 79.534485
368 0 1 -0.819629 8.771078 79.700989
369 0 1 -1.759549 8.515978 79.808716
370 0 1 -1.597690 7.726976 80.359894
371 0 1 -1.799779 7.810579 81.346710
372 0 1 -2.273349 8.441080 80.839783
373 0 1 -2.512340 9.362078 80.718994
374 0 1 -2.424729 9.324278 81.643616
375 0 1 -3.158719 9.625479 82.155212
376 0 1 -3.584229 9.642679 83.063904
377 0 1 -4.340569 9.850077 83.676300
378 0 1 -3.833810 9.734579 84.441711
379 0 1 -3.167890 9.074579 84.567810
380 0 1 -2.872079 8.368979 84.020294
381 0 1 -2.362380 7.914278 83.326599
382 0 1 -2.509240 7.002977 83.515686
383 0 1 -2.838019 6.258677 84.063110
384 0 1 -3.671840 5.848677 84.276794
385 0 1 -4.219810 5.277479 84.866211
386 0 1 -3.621589 5.178080 85.633911
387 0 1 -2.848519 5.825277 85.564911
388 0 1 -2.198070 5.499277 86.173401
389 0 1 -1.738330 4.784979 86.540405
390 0 1 -2.259240 4.011908 86.286896
391 0 1 -2.711761 4.150877 87.162598
392 0 1 -2.944039 3.574816 87.998596
393 0 1 -2.642079 2.697710 87.947205
394 0 1 -2.336230 2.928828 87.093018
395 0 1 -1.655839 3.278048 86.480011
396 0 1 -1.083749 3.793879 85.975891
397 0 1 -1.552310 3.520109 85.181519
398 0 1 -0.983699 3.131117 84.515411
399 0 1 -0.547679 3.176077 83.626801
400 0 1 0.003881 2.463209 83.293884
401 0 1 -0.026620 2.270708 82.320099
402 0 1 -0.250079 3.110419 81.872009
403 0 1 0.198020 2.513659 81.278198
404 0 1 -0.115670 1.600618 81.454102
405 0 1 0.246381 0.849360 81.880005
406 0 1 0.565801 0.127367 82.482605
407 0 1 0.507840 0.285559 83.457001
408 0 1 -0.380240 0.616610 83.620697
409 0 1 -0.598369 -0.240862 84.056885
410 0 1 0.149190 -0.949522 83.694000
411 0 1 0.511661 -1.367323 84.434204
412 0 1 1.490800 -1.334753 84.579010
413 0 1 1.481620 -2.110891 83.965393
414 0 1 1.102651 -2.934454 84.417114
415 0 1 1.187760 -3.837190 84.084717
416 0 1 1.321790 -4.753841 84.425781
417 0 1 1.160380 -5.066994 83.509216
418 0 1 1.956271 -5.470621 83.186584
419 0 1 2.867841 -5.447382 83.227997
420 0 1 2.454091 -5.102654 82.381805
421 0 1 1.743550 -4.512083 82.091400
422 0 1 1.039571 -4.090231 82.667511
423 0 1 1.660890 -3.416551 82.444092
424 0 1 2.004691 -3.243723 81.593811
425 0 1 1.267911 -2.690634 81.694305
426 0 1 1.167750 -2.288584 80.839294
427 0 1 0.626710 -2.069631 80.079498
428 0 1 0.508830 -2.562902 79.195709
429 0 1 0.381610 -3.456571 79.466919
430 0 1 1.297441 -3.648821 79.464508
431 0 1 1.120120 -4.649511 79.562592
432 0 1 1.179160 -5.130480 78.731506
433 0 1 2.130780 -5.244148 78.494598
434 0 1 2.191470 -6.007643 78.985992
435 0 1 2.082030 -6.910112 78.716492
436 0 1 2.823781 -7.404333 79.070190
437 0 1 3.676660 -7.682753 79.416687
438 0 1 4.513789 -7.695263 79.014801
439 0 1 4.056415 -7.153372 78.381714
440 0 1 3.744231 -6.628906 79.135895
441 0 1 3.728028 -6.007084 78.279205
442 0 1 3.534757 -6.300404 77.329590
443 0 1 2.829131 -7.080631 77.104309
444 0 1 2.148261 -6.364279 77.383392
445 0 1 1.886851 -7.305761 77.597717
446 0 1 1.317931 -6.948782 76.970093
447 0 1 0.784822 -7.668812 77.336395
448 0 1 0.136621 -7.694193 76.661987
449 0 1 -0.435409 -6.978872 76.676514
450 0 1 -0.669410 -7.403002 75.746307
451 0 1 -0.067969 -7.939863 75.140198
452 0 1 0.087091 -7.181973 74.637817
453 0 1 -0.129908 -7.908112 73.988098
454 0 1 -0.390830 -8.763903 73.621216
455 0 1 0.043801 -8.769253 72.717590
456 0 1 0.691531 -8.412092 72.002594
457 0 1 -0.196740 -7.979893 71.901703
458 0 1 -0.419549 -8.866972 71.760315
459 0 1 -0.469581 -9.850302 71.699707
460 0 1 -0.429728 -9.827662 72.727417
461 0 1 -0.278499 -10.770273 72.573486
462 0 1 0.416541 -11.374142 72.729095
463 0 1 -0.049649 -11.825052 72.061218
464 0 1 0.817601 -11.610802 71.697510
465 0 1 1.573531 -12.190733 71.708984
466 0 1 2.461581 -12.639631 71.717896
467 0 1 1.892800 -13.392282 71.373810
468 0 1 1.655490 -13.891283 72.133209
469 0 1 2.393241 -13.520142 72.638702
470 0 1 2.737311 -14.085913 73.332306
471 0 1 2.469071 -14.266642 74.267395
472 0 1 1.642541 -14.135622 73.867493
473 0 1 1.420631 -15.029922 74.213501
474 0 1 0.627570 -15.501791 74.119019
475 0 1 0.505380 -16.368622 73.752502
476 0 1 1.526290 -16.377022 73.833008
477 0 1 2.270350 -15.924021 73.372101
478 0 1 2.737031 -16.529123 72.771210
479 0 1 3.052983 -16.264622 71.876190
480 0 1 3.191936 -16.747622 71.088898
481 0 1 3.631324 -17.315123 70.460815
482 0 1 4.487224 -17.467222 70.159912
483 0 1 4.509887 -16.640923 70.641602
484 0 1 4.105550 -16.579123 69.768707
485 0 1 4.339881 -16.756422 68.917908
486 0 1 4.528773 -17.472223 68.257690
487 0 1 4.416253 -17.720621 67.347595
488 0 1 4.077619 -17.784922 66.462402
489 0 1 4.642718 -18.582222 66.616608
490 0 1 3.983329 -19.192022 66.387512
491 0 1 4.792102 -19.615622 66.373291
492 0 1 5.387761 -19.763123 65.647491
493 0 1 6.110909 -19.676422 65.110718
494 0 1 5.712312 -18.879423 64.860718
495 0 1 6.540742 -18.865822 64.370392
496 0 1 7.449182 -19.104021 64.496002
497 0 1 7.844640 -18.586321 65.257111
498 0 1 8.262959 -17.708223 65.196503
499 0 1 9.040841 -18.221724 65.431793
500 0 1 9.254182 -18.869322 64.771393
501 0 1 8.726338 -19.401323 65.452789
502 0 1 9.585073 -19.420622 65.964600
503 0 1 10.109540 -18.708822 65.498993
504 0 1 10.736772 -19.450422 65.150208
505 0 1 11.556439 -19.394423 64.674988
506 0 1 12.467122 -19.466223 64.174103
507 0 1 12.222489 -20.315422 63.853302
508 0 1 11.989060 -20.103422 62.933594
509 0 1 12.832749 -19.681421 62.705200
510 0 1 12.272531 -19.713722 61.883087
511 0 1 11.714200 -20.453922 61.648712
512 0 1 11.423039 -20.590122 60.725006
513 0 1 11.449220 -19.639322 60.506592
514 0 1 10.714841 -19.232422 59.967896
515 0 1 10.076520 -18.668821 59.461700
516 0 1 9.792302 -19.093023 58.587891
517 0 1 9.226762 -19.288822 57.817505
518 0 1 9.290929 -19.136423 56.835999
519 0 1 8.880212 -20.040121 56.947601
520 0 1 9.043012 -20.261621 56.042114
521 0 1 9.771150 -20.808022 56.373810
522 0 1 10.360059 -21.482521 55.992889
523 0 1 11.117230 -21.405321 56.612396
524 0 1 11.998059 -21.044922 56.910889
525 0 1 12.361741 -20.448622 56.199310
526 0 1 11.564042 -20.012522 56.477997
527 0 1 11.831319 -19.193323 55.988495
528 0 1 12.111680 -18.652622 55.200012
529 0 1 11.916169 -18.349321 54.301208
530 0 1 11.134122 -18.043421 54.745209
531 0 1 10.828580 -17.995222 55.648895
532 0 1 9.904641 -17.926821 56.002502
533 0 1 8.936700 -17.835022 56.166504
534 0 1 8.140740 -17.952421 55.670715
535 0 1 8.335259 -17.655821 54.743713
536 0 1 8.468400 -16.698423 54.719299
537 0 1 7.827752 -16.521021 53.960510
538 0 1 7.265111 -17.149523 54.431885
539 0 1 6.787122 -16.921423 53.614502
540 0 1 6.635911 -16.648922 52.672302
541 0 1 6.861459 -17.052721 51.760010
542 0 1 7.652799 -16.389523 51.679810
543 0 1 8.155381 -15.627642 52.034790
544 0 1 7.526059 -14.902712 51.824005
545 0 1 6.906430 -14.216763 51.404388
546 0 1 6.529351 -13.351242 51.290588
547 0 1 5.853681 -12.670633 51.612701
548 0 1 5.056111 -12.180462 51.922699
549 0 1 4.359324 -11.819563 52.600800
550 0 1 4.771501 -11.340971 53.310486
551 0 1 4.526202 -10.755373 54.054016
552 0 1 4.840423 -9.862421 53.778290
553 0 1 5.301940 -10.141562 54.546692
554 0 1 5.497392 -9.239931 54.847412
555 0 1 4.879199 -8.603373 54.507996
556 0 1 5.291650 -7.969032 55.213501
557 0 1 6.153771 -7.607542 55.547485
558 0 1 5.723832 -6.667467 55.485107
559 0 1 5.151650 -6.794422 54.746704
560 0 1 4.993220 -5.808056 54.859894
561 0 1 4.369906 -6.220478 55.556396
562 0 1 4.004743 -5.343174 55.656616
563 0 1 3.311889 -5.030426 56.294098
564 0 1 2.445750 -5.019464 56.724915
565 0 1 1.940671 -4.324743 57.092590
566 0 1 2.941627 -4.042162 57.082794
567 0 1 3.848435 -3.983412 57.307007
568 0 1 4.738070 -3.802782 57.648193
569 0 1 4.650092 -4.342131 58.437195
570 0 1 5.287530 -4.327574 59.268097
571 0 1 5.609601 -4.766562 58.455383
572 0 1 5.243211 -5.598188 58.778992
573 0 1 4.996720 -5.634157 59.729004
574 0 1 4.577449 -6.439165 60.047394
575 0 1 3.587817 -6.650061 60.131592
576 0 1 3.743564 -6.607740 59.223999
577 0 1 3.298812 -6.909182 58.370605
578 0 1 4.005216 -6.678326 57.676514
579 0 1 4.008109 -6.047297 58.432495
580 0 1 3.484891 -5.542812 58.970215
581 0 1 3.090770 -4.666832 58.793488
582 0 1 2.737901 -3.796571 59.092102
583 0 1 2.183650 -3.919912 59.840393
584 0 1 1.554290 -3.262533 59.924988
585 0 1 0.678491 -3.588983 59.911987
586 0 1 0.046201 -4.294092 59.612000
587 0 1 -0.246699 -3.667890 58.960999
588 0 1 -0.331649 -2.881002 59.484406
589 0 1 0.277711 -2.175871 59.580688
590 0 1 0.181060 -1.569223 60.301392
591 0 1 1.002111 -0.987760 60.301086
592 0 1 0.363261 -0.327803 59.933990
593 0 1 0.305591 -0.214052 58.931488
594 0 1 1.137241 -0.530023 59.168610
595 0 1 1.943000 -0.122373 59.254608
596 0 1 2.566340 -0.824541 59.021790
597 0 1 3.195016 -0.289373 58.515808
598 0 1 2.540931 -0.417272 57.809692
599 0 1 1.768111 -0.046343 58.089691
600 0 1 1.502040 0.705378 57.643402
601 0 1 2.279340 0.666430 57.008087
602 0 1 1.953281 1.095919 56.206299
603 0 1 2.856650 0.962408 55.875610
604 0 1 3.204957 1.719950 56.311798
605 0 1 3.486888 2.638239 56.621887
606 0 1 4.453555 2.455576 56.568207
607 0 1 4.504088 1.595896 56.098206
608 0 1 5.311250 1.066977 56.212402
609 0 1 5.305230 1.347609 55.319000
610 0 1 5.369441 2.034949 54.617706
611 0 1 5.212451 2.846438 54.148712
612 0 1 5.827001 3.257906 53.519806
613 0 1 6.545400 2.656508 53.603302
614 0 1 6.865289 2.480238 54.507904
615 0 1 7.800389 2.111349 54.463684
616 0 1 8.469762 1.452978 54.251892
617 0 1 7.826119 1.315539 53.560486
618 0 1 7.689450 0.562628 53.008606
619 0 1 7.438809 0.180727 52.069092
620 0 1 7.016370 0.384039 51.191498
621 0 1 7.569039 -0.242040 50.849792
622 0 1 6.853192 -0.864492 50.637695
623 0 1 6.007989 -1.336714 50.818512
624 0 1 5.334491 -0.536333 50.764099
625 0 1 4.823775 0.154719 50.389099
626 0 1 4.721139 0.913237 51.008789
627 0 1 5.501729 0.417437 51.299011
628 0 1 6.117890 0.352389 51.989014
629 0 1 5.344731 0.065809 52.386902
630 0 1 4.519107 0.414049 52.684601
631 0 1 3.805165 -0.140322 52.464813
632 0 1 3.319816 -0.197561 53.290710
633 0 1 2.404040 0.187998 53.391907
634 0 1 1.569720 0.637629 53.874908
635 0 1 0.916040 1.363188 54.175507
636 0 1 0.114770 0.836588 54.027710
637 0 1 -0.727488 0.337698 53.801086
638 0 1 -1.111390 1.188326 53.436188
639 0 1 -1.979960 1.640928 53.217285
640 0 1 -2.566529 2.450770 53.271301
641 0 1 -2.996490 2.625880 54.091492
642 0 1 -3.788249 2.142279 54.481384
643 0 1 -4.302958 1.404097 54.168610
644 0 1 -5.091109 1.705717 53.757507
645 0 1 -4.773120 2.571047 53.532990
646 0 1 -4.964969 3.418009 54.014191
647 0 1 -4.039859 3.717440 53.915497
648 0 1 -4.308471 4.671179 53.889099
649 0 1 -4.738000 4.778879 54.807892
650 0 1 -4.372519 5.604677 55.016205
651 0 1 -3.400310 5.428080 54.852203
652 0 1 -2.555850 5.141878 55.207092
653 0 1 -1.604440 5.240679 55.415710
654 0 1 -1.094470 5.467577 56.185699
655 0 1 -1.043910 6.434477 56.178284
656 0 1 -0.159018 6.623476 56.462006
657 0 1 0.366771 6.911177 57.191498
658 0 1 0.419870 5.976976 57.333801
659 0 1 1.046321 5.686678 56.710297
660 0 1 0.552251 6.023180 55.919403
661 0 1 1.528772 6.380480 55.881805
662 0 1 2.273990 6.979479 56.168610
663 0 1 3.164748 6.868277 56.486084
664 0 1 3.835769 6.420580 57.056213
665 0 1 3.571895 7.165277 57.578094
666 0 1 3.677310 7.963076 57.036316
667 0 1 3.380649 8.316477 57.897491
668 0 1 3.782117 8.929079 57.211090
669 0 1 3.541604 9.802778 57.682404
670 0 1 4.486823 9.705877 57.564606
671 0 1 4.706796 10.417276 56.917389
672 0 1 4.717481 10.487276 55.979706
673 0 1 5.030141 10.200277 55.100708
674 0 1 5.784890 10.844576 55.293304
675 0 1 6.061341 10.031279 54.816711
676 0 1 5.497609 9.976877 54.014008
677 0 1 5.871541 10.027079 53.202393
678 0 1 6.474790 9.763479 53.848694
679 0 1 7.298039 9.773279 54.363403
680 0 1 8.016759 9.206980 54.475098
681 0 1 8.922601 9.001677 54.460297
682 0 1 9.014791 8.499475 53.617004
683 0 1 8.909020 7.699579 53.077789
684 0 1 9.702779 7.711878 52.503906
685 0 1 9.622190 8.133280 51.658203
686 0 1 8.890481 7.744978 51.128998
687 0 1 8.167001 8.288977 51.379791
688 0 1 7.451371 8.752878 50.916595
689 0 1 7.872460 9.407976 50.367096
690 0 1 7.027471 9.841677 50.483887
691 0 1 7.159581 10.839777 50.427002
692 0 1 6.685132 11.568476 50.081207
693 0 1 7.409570 12.032778 49.735809
694 0 1 7.221379 12.672976 49.046997
695 0 1 7.576459 13.592077 49.011902
696 0 1 7.744790 14.415277 48.579407
697 0 1 8.144959 13.938379 47.866791
698 0 1 8.573972 14.591978 47.267395
699 0 1 8.868142 13.753378 46.839417
700 0 1 9.051080 13.794878 45.858887
701 0 1 9.944661 13.589975 45.449707
702 0 1 10.152211 12.714876 45.075500
703 0 1 10.235509 12.450277 44.169098
704 0 1 9.650422 11.818979 43.704193
705 0 1 9.612550 11.379679 42.898590
706 0 1 9.547822 10.567881 42.384308
707 0 1 9.162572 11.218676 41.798798
708 0 1 8.339219 11.671278 41.852417
709 0 1 8.264321 12.616877 42.082886
710 0 1 8.641850 12.940676 41.292694
711 0 1 8.616639 13.365377 40.433594
712 0 1 8.108861 13.293577 39.609314
713 0 1 7.122529 13.262575 39.400909
714 0 1 7.272569 12.457579 39.905884
715 0 1 7.014379 12.161478 38.981689
716 0 1 6.548802 11.480078 39.384003
717 0 1 6.452950 11.040880 40.194397
718 0 1 5.870820 10.226580 40.391602
719 0 1 5.961610 9.942080 39.482697
720 0 1 5.380300 10.336679 38.886993
721 0 1 5.716401 11.018377 38.163696
722 0 1 5.794259 11.896078 38.420715
723 0 1 4.918899 12.183176 38.201202
724 0 1 4.690745 12.775476 38.910797
725 0 1 4.172168 12.093977 39.339996
726 0 1 4.340779 11.791880 40.332092
727 0 1 4.077653 12.338976 41.151398
728 0 1 3.302783 12.575178 40.592896
729 0 1 2.461631 12.807577 40.133484
730 0 1 1.774800 13.268877 39.666687
731 0 1 1.893880 14.136179 40.184204
732 0 1 1.845811 15.181078 40.027008
733 0 1 2.231130 16.062979 40.157288
734 0 1 3.081437 15.838579 39.823486
735 0 1 3.504924 15.603479 39.015991
736 0 1 3.166341 14.714075 38.677795
737 0 1 2.304250 14.675379 38.237701
738 0 1 2.065980 14.212378 37.431091
739 0 1 1.749591 13.784479 36.614410
740 0 1 1.971650 13.006178 36.148499
741 0 1 1.253820 12.461679 36.305115
742 0 1 0.621831 13.046579 36.601501
743 0 1 -0.298989 13.151575 36.452911
744 0 1 0.226880 13.590078 35.756409
745 0 1 1.185290 13.480478 35.396484
746 0 1 0.727960 12.715178 35.081604
747 0 1 1.431951 12.124880 34.799500
748 0 1 2.186110 12.173979 34.173096
749 0 1 2.926230 11.618776 34.049011
750 0 1 3.079400 11.211878 33.117615
751 0 1 3.612870 10.473780 33.438110
752 0 1 3.680646 9.690577 32.899689
753 0 1 2.892600 9.191977 32.536102
754 0 1 2.559791 9.149679 31.677889
755 0 1 3.046464 9.976679 31.444307
756 0 1 2.463391 10.466478 30.928316
757 0 1 3.150981 10.200777 30.341494
758 0 1 3.705440 10.996981 30.219393
759 0 1 3.827809 11.385180 29.364107
760 0 1 3.223128 10.897879 28.766115
761 0 1 3.244380 10.208376 28.033693
762 0 1 2.894250 9.393877 28.414095
763 0 1 2.696551 9.016077 27.514711
764 0 1 2.277841 9.804079 27.147615
765 0 1 1.446321 9.498476 26.658907
766 0 1 1.848571 9.918379 25.882601
767 0 1 2.410420 9.954477 25.095705
768 0 1 2.565110 9.478979 24.215303
769 0 1 3.304179 9.383078 23.661501
770 0 1 2.720340 8.821878 23.126589
771 0 1 2.963540 9.558279 22.554201
772 0 1 3.547299 10.128378 23.034395
773 0 1 4.513953 10.171579 23.005892
774 0 1 4.623607 11.097979 23.198793
775 0 1 5.328860 11.778879 23.278811
776 0 1 5.188191 12.697077 23.061312
777 0 1 5.307660 13.124678 22.200304
778 0 1 4.730886 13.003977 21.463305
779 0 1 4.576108 13.147379 20.530199
780 0 1 4.512855 13.788877 19.850801
781 0 1 3.824227 14.138979 20.446001
782 0 1 3.003190 14.497980 20.880602
783 0 1 2.448911 14.169378 20.140505
784 0 1 2.016370 13.994078 19.311907
785 0 1 2.378140 14.069277 18.396105
786 0 1 2.830110 13.450876 17.808901
787 0 1 3.470494 14.058275 18.164904
788 0 1 4.439996 13.889677 18.269197
789 0 1 4.803193 14.694880 17.729906