LAMMPS data file via MDAnalysis

        2000  atoms
        1999  bonds
           0  angles
           0  dihedrals
           0  impropers

           1  atom types
           1  bond types
           0  angle types
           0  dihedral types
           0  improper types

-30.5 30.5 xlo xhi
-30.5 30.5 ylo yhi
-233.5 233.5 zlo zhi


Masses

1 1.000000

Atoms

1 0 1 -0.180530 2.318739 76.131592
2 0 1 -0.456558 3.221750 76.073792
3 0 1 0.253922 3.847818 76.091095
4 0 1 -0.275787 4.623331 75.841095
5 0 1 -0.481937 5.363260 75.181885
6 0 1 0.409783 5.778738 75.100586
7 0 1 -0.205017 6.164541 75.766296
8 0 1 0.457760 6.602468 76.404297
9 0 1 0.496651 6.869299 75.492889
10 0 1 0.822701 6.795221 74.619202
11 0 1 0.454853 6.145029 73.952789
12 0 1 0.853142 5.754660 73.150085
13 0 1 -0.035499 5.431742 72.944397
14 0 1 -0.300907 4.726648 72.405304
15 0 1 0.481140 4.461859 72.786407
16 0 1 1.370712 4.046301 72.719910
17 0 1 1.475113 3.197779 72.300507
18 0 1 1.988934 3.039968 71.539795
19 0 1 2.289990 2.451418 72.208313
20 0 1 1.564751 2.058508 72.664917
21 0 1 1.402603 1.932970 71.754608
22 0 1 0.909092 1.604780 71.013092
23 0 1 1.795490 1.707541 70.732483
24 0 1 2.544003 1.935518 70.085693
25 0 1 3.287522 2.371599 69.778290
26 0 1 2.976681 3.059031 69.130707
27 0 1 3.155483 2.649740 68.289917
28 0 1 3.186051 3.015558 67.384003
29 0 1 4.067242 3.340921 67.353394
30 0 1 4.148930 2.388380 67.384094
31 0 1 3.619572 1.492441 67.516113
32 0 1 3.559113 1.794649 66.563507
33 0 1 4.093273 1.010550 66.680481
34 0 1 4.609730 0.774691 67.534302
35 0 1 4.922863 -0.068430 67.017609
36 0 1 4.030590 -0.272045 66.982117
37 0 1 3.139530 0.135130 66.889008
38 0 1 2.376801 0.828289 67.223999
39 0 1 1.485752 0.922930 67.607910
40 0 1 0.826451 0.593269 68.209991
41 0 1 0.783592 0.147926 67.374817
42 0 1 -0.035999 0.329342 66.969391
43 0 1 -0.269428 1.193998 66.666504
44 0 1 -0.333958 1.031580 65.714996
45 0 1 0.347443 0.621420 65.197296
46 0 1 0.769154 1.348280 64.722504
47 0 1 0.889141 2.008959 64.016418
48 0 1 1.463490 2.773058 64.244293
49 0 1 0.712132 3.178068 63.719788
50 0 1 0.298813 2.903170 64.528198
51 0 1 -0.471527 3.390341 64.778992
52 0 1 -0.982097 2.982241 64.099091
53 0 1 -1.792938 3.209909 64.601013
54 0 1 -1.360390 2.578588 65.204498
55 0 1 -1.374817 2.181829 66.115601
56 0 1 -1.422729 1.239321 66.394592
57 0 1 -1.745117 1.072609 67.277008
58 0 1 -1.558349 1.667849 67.962891
59 0 1 -1.527168 0.864380 68.353882
60 0 1 -2.319748 0.509018 67.969696
61 0 1 -2.298919 -0.027761 67.096313
62 0 1 -3.211338 0.188349 66.960388
63 0 1 -3.810137 -0.538101 66.757385
64 0 1 -3.919557 -1.494631 66.737701
65 0 1 -4.141275 -2.397921 66.968811
66 0 1 -5.069912 -2.771000 67.039001
67 0 1 -4.427837 -3.303980 67.575684
68 0 1 -4.586954 -3.659990 68.468292
69 0 1 -5.380228 -3.658850 67.972809
70 0 1 -5.532131 -4.278370 68.708984
71 0 1 -5.278961 -5.136271 68.999817
72 0 1 -5.155245 -6.155321 68.874512
73 0 1 -5.071609 -6.590261 67.955597
74 0 1 -4.691856 -6.662161 67.016602
75 0 1 -3.839514 -6.266670 66.909607
76 0 1 -3.689539 -6.699911 67.871796
77 0 1 -3.686458 -7.691900 68.122498
78 0 1 -2.761108 -7.771200 68.044495
79 0 1 -2.402588 -8.537460 68.401001
80 0 1 -1.580040 -8.021441 68.548096
81 0 1 -0.734180 -8.395689 68.140106
82 0 1 0.183232 -8.451160 68.239319
83 0 1 0.996102 -8.745729 67.892700
84 0 1 1.499683 -9.565691 67.914398
85 0 1 1.304951 -10.249102 67.308716
86 0 1 0.413281 -9.930349 67.399109
87 0 1 -0.340309 -10.300180 67.019104
88 0 1 -0.741039 -10.593481 66.139191
89 0 1 -1.578510 -11.000582 66.284393
90 0 1 -2.306530 -10.667980 66.940918
91 0 1 -2.737999 -9.877550 66.562103
92 0 1 -3.308708 -10.604580 66.429901
93 0 1 -3.756943 -9.830999 66.826294
94 0 1 -4.095308 -9.357531 65.999390
95 0 1 -3.422107 -8.843142 65.530792
96 0 1 -3.693878 -8.351120 64.744110
97 0 1 -3.007068 -7.913469 64.265686
98 0 1 -2.277950 -7.316370 64.520813
99 0 1 -1.545059 -6.710560 64.656616
100 0 1 -1.511108 -5.743441 64.321106
101 0 1 -1.392998 -6.443600 63.564789
102 0 1 -0.491917 -6.816561 63.447388
103 0 1 0.074482 -7.495031 62.977295
104 0 1 -0.691730 -7.275280 62.391998
105 0 1 -0.318748 -7.668171 61.595215
106 0 1 -0.077759 -7.151800 60.812988
107 0 1 -0.222179 -6.277040 60.414185
108 0 1 -0.950699 -6.380440 61.067413
109 0 1 -0.718139 -5.454100 61.148895
110 0 1 -1.583359 -5.008711 60.920990
111 0 1 -2.019768 -4.642250 61.694214
112 0 1 -1.103447 -4.528360 61.743988
113 0 1 -0.934337 -3.665331 62.134216
114 0 1 -1.366768 -2.942930 62.655090
115 0 1 -2.189117 -3.076420 62.103912
116 0 1 -1.840477 -2.441280 61.496094
117 0 1 -2.109878 -2.992691 60.688416
118 0 1 -1.172169 -3.069620 61.019806
119 0 1 -0.588508 -2.345860 60.668884
120 0 1 0.020260 -2.772011 61.247314
121 0 1 0.112892 -3.289351 62.073608
122 0 1 0.172691 -2.712030 62.933899
123 0 1 0.983551 -3.116711 63.485809
124 0 1 0.829701 -2.156580 63.747589
125 0 1 0.613522 -2.356661 64.661591
126 0 1 1.402012 -2.444160 65.113586
127 0 1 1.988602 -3.043280 65.612701
128 0 1 2.498493 -2.836700 64.797302
129 0 1 2.968342 -2.135530 64.373596
130 0 1 2.592892 -2.175741 63.410004
131 0 1 2.852810 -1.636841 62.700989
132 0 1 2.776600 -0.695789 62.642883
133 0 1 2.921704 0.290567 62.819885
134 0 1 3.502712 0.951809 62.419189
135 0 1 3.634972 1.220179 61.501312
136 0 1 3.458050 0.772499 60.677612
137 0 1 3.287121 0.943640 59.754517
138 0 1 2.906063 0.412567 58.957886
139 0 1 2.005970 0.647650 59.244110
140 0 1 1.728523 1.073229 58.426605
141 0 1 2.292343 0.448881 57.907196
142 0 1 3.150082 0.561043 57.528015
143 0 1 4.009682 0.399233 57.934906
144 0 1 4.832844 0.281630 57.387787
145 0 1 4.399181 0.490425 56.541687
146 0 1 4.487930 0.184883 55.678497
147 0 1 5.394463 0.013351 55.947601
148 0 1 6.135262 -0.375256 55.534088
149 0 1 7.064663 -0.633825 55.197388
150 0 1 7.993561 -0.363133 55.005707
151 0 1 7.772762 -1.072264 54.442017
152 0 1 8.212063 -1.632471 55.087402
153 0 1 8.675461 -2.225540 55.701416
154 0 1 8.659561 -2.724960 54.847900
155 0 1 8.679161 -3.509491 54.314606
156 0 1 8.750160 -3.096411 53.456909
157 0 1 9.616161 -3.177231 52.897705
158 0 1 8.811962 -3.559591 52.492096
159 0 1 9.081161 -2.665340 52.033813
160 0 1 8.505260 -2.009571 52.526184
161 0 1 7.910561 -2.724251 52.203094
162 0 1 7.109562 -3.169401 51.925293
163 0 1 7.126263 -2.830160 51.043304
164 0 1 6.346863 -2.720131 50.454193
165 0 1 6.455662 -1.816820 50.114899
166 0 1 5.596760 -1.800529 50.657806
167 0 1 5.301960 -1.288202 49.883789
168 0 1 5.460861 -0.667179 49.135101
169 0 1 5.386063 0.261450 48.884094
170 0 1 4.538891 0.208967 49.445007
171 0 1 4.330730 -0.726284 49.182007
172 0 1 3.756054 -0.540949 48.429688
173 0 1 3.333000 0.198074 47.885712
174 0 1 3.626400 0.206245 46.942810
175 0 1 3.895893 1.146818 46.867615
176 0 1 3.394230 1.375189 47.652008
177 0 1 4.181252 2.036810 47.606689
178 0 1 3.979641 2.985151 47.473999
179 0 1 4.589420 3.653090 47.151398
180 0 1 4.926533 4.023298 46.314911
181 0 1 4.207844 4.015078 45.668884
182 0 1 3.831742 3.590761 44.871704
183 0 1 3.077011 4.071329 44.492188
184 0 1 2.579632 4.817011 44.659790
185 0 1 2.722843 5.792040 44.496399
186 0 1 3.401203 6.394369 44.832092
187 0 1 2.630413 6.980391 45.029388
188 0 1 2.501412 7.903742 45.231201
189 0 1 1.796681 7.931681 45.879395
190 0 1 1.263554 7.302660 45.289185
191 0 1 1.420231 7.246290 44.347198
192 0 1 1.203812 7.883448 43.624512
193 0 1 1.263493 8.489359 44.349487
194 0 1 0.626812 9.254412 44.223083
195 0 1 1.208950 9.626818 44.913605
196 0 1 0.194443 9.466520 45.229309
197 0 1 0.694912 9.610899 45.986511
198 0 1 1.247391 9.850119 46.733093
199 0 1 1.575882 10.351122 47.531403
200 0 1 2.320313 9.930521 47.123199
201 0 1 2.723473 9.801020 48.028198
202 0 1 2.853611 9.063158 47.430298
203 0 1 2.653713 8.397909 48.151611
204 0 1 2.415333 7.495661 48.577515
205 0 1 3.033291 6.848909 48.432800
206 0 1 3.522961 6.377050 47.661713
207 0 1 2.610790 6.410021 47.234314
208 0 1 2.991783 5.505678 47.357697
209 0 1 2.593453 5.030489 48.093506
210 0 1 2.715821 4.018618 48.096191
211 0 1 1.968231 3.342920 48.033295
212 0 1 2.279602 3.423750 47.109497
213 0 1 1.344723 3.628199 46.758392
214 0 1 0.888443 3.087458 47.391205
215 0 1 0.602612 2.175821 47.521210
216 0 1 1.529621 2.197611 47.360596
217 0 1 1.594360 1.483358 46.749603
218 0 1 1.337242 0.905409 47.469788
219 0 1 2.026963 0.796560 48.089111
220 0 1 2.304871 -0.098179 48.109100
221 0 1 2.539353 -1.053215 48.220795
222 0 1 2.109493 -1.610470 48.872314
223 0 1 1.607033 -1.498550 48.069092
224 0 1 1.286492 -1.596951 47.141388
225 0 1 0.607750 -2.302210 47.168610
226 0 1 0.669354 -2.269670 46.229889
227 0 1 0.347702 -1.827681 45.407593
228 0 1 1.240704 -2.245020 45.295807
229 0 1 1.092430 -3.151711 45.268799
230 0 1 2.022072 -2.944460 45.105896
231 0 1 2.592312 -2.998791 44.303009
232 0 1 2.582993 -3.897640 44.559601
233 0 1 3.131420 -4.421381 44.011993
234 0 1 3.291302 -4.729300 43.068909
235 0 1 2.563812 -5.303421 43.387604
236 0 1 1.928063 -4.883240 42.722290
237 0 1 1.818920 -5.480820 41.983093
238 0 1 1.506630 -5.218081 41.122498
239 0 1 1.155140 -5.847090 40.459290
240 0 1 0.367230 -6.525541 40.454407
241 0 1 -0.440658 -6.671110 40.864990
242 0 1 -0.540218 -6.680151 39.908813
243 0 1 -0.710647 -6.332010 39.068298
244 0 1 -1.212059 -5.561701 38.807098
245 0 1 -0.709759 -5.332941 38.025085
246 0 1 -1.035438 -6.209770 38.041412
247 0 1 -1.099537 -6.241701 37.100708
248 0 1 -2.000068 -6.200510 37.511993
249 0 1 -1.626617 -7.140490 37.406097
250 0 1 -1.455459 -7.936110 37.839111
251 0 1 -0.936939 -8.343969 37.205811
252 0 1 -1.648319 -8.427061 36.631500
253 0 1 -1.687878 -9.186871 35.961792
254 0 1 -0.794948 -8.776310 36.176300
255 0 1 -0.449577 -9.663671 35.928406
256 0 1 0.352471 -9.898191 35.452698
257 0 1 0.515640 -9.837851 36.405212
258 0 1 1.176521 -10.619581 36.476410
259 0 1 1.593903 -11.435381 36.842804
260 0 1 1.829632 -11.288679 35.883789
261 0 1 2.160881 -11.348780 34.917297
262 0 1 2.558491 -10.547680 35.086700
263 0 1 2.750172 -9.956760 34.325195
264 0 1 2.312672 -9.232550 33.962494
265 0 1 1.856583 -8.950041 33.133209
266 0 1 2.696511 -8.476311 33.159302
267 0 1 2.910191 -9.102850 32.401001
268 0 1 3.507290 -9.770210 32.114685
269 0 1 3.928471 -10.388182 31.451599
270 0 1 3.943302 -11.390480 31.679291
271 0 1 4.351112 -12.216780 31.359802
272 0 1 5.015251 -11.932180 30.755096
273 0 1 5.472160 -11.212280 30.348907
274 0 1 5.580463 -11.936581 29.692505
275 0 1 4.747803 -11.762680 29.253113
276 0 1 5.119602 -12.563480 28.844391
277 0 1 5.741661 -12.994480 29.470490
278 0 1 5.582661 -13.604580 30.148499
279 0 1 5.502262 -14.236280 30.929108
280 0 1 4.568542 -14.714979 30.958710
281 0 1 5.370960 -15.264080 30.795288
282 0 1 5.164223 -15.893681 30.098389
283 0 1 5.487961 -16.132980 29.311890
284 0 1 6.397762 -16.298580 28.898499
285 0 1 6.475861 -16.746981 28.022308
286 0 1 6.275860 -15.856180 27.817200
287 0 1 6.461662 -15.837880 26.884094
288 0 1 6.061462 -15.011380 26.436890
289 0 1 5.272160 -15.346380 25.877686
290 0 1 5.340363 -15.992781 25.133484
291 0 1 4.723671 -15.701981 24.404510
292 0 1 4.976009 -14.763380 24.589813
293 0 1 4.329540 -14.188379 25.095215
294 0 1 4.486931 -13.383680 24.587585
295 0 1 5.123871 -13.398279 23.900208
296 0 1 5.641361 -13.629480 23.150299
297 0 1 5.854462 -12.899481 22.526886
298 0 1 5.081440 -13.328081 22.174103
299 0 1 5.496464 -13.685282 21.315598
300 0 1 5.872463 -13.130781 20.630600
301 0 1 6.303162 -12.189680 20.565094
302 0 1 6.728161 -12.717880 21.221893
303 0 1 7.265762 -13.239382 21.908508
304 0 1 7.290363 -14.065981 22.414093
305 0 1 7.434563 -14.426180 21.551392
306 0 1 7.124863 -14.291681 20.647003
307 0 1 8.000660 -14.260679 20.335693
308 0 1 7.730663 -13.946081 19.391602
309 0 1 7.088760 -13.543081 18.875305
310 0 1 7.681561 -12.881479 18.350998
311 0 1 7.422661 -13.127380 17.406708
312 0 1 7.013962 -13.740480 16.803802
313 0 1 7.513363 -13.516380 16.022995
314 0 1 7.163361 -12.639582 15.824204
315 0 1 7.872562 -11.920881 15.746308
316 0 1 8.467159 -11.198580 15.599702
317 0 1 8.682262 -11.051180 14.667909
318 0 1 9.620163 -10.982780 14.475007
319 0 1 9.857563 -10.095201 14.276597
320 0 1 9.996059 -9.912140 13.355607
321 0 1 9.991261 -9.024420 13.682298
322 0 1 9.110661 -9.027411 13.272004
323 0 1 9.450161 -8.114450 13.420594
324 0 1 9.151161 -7.139090 13.183808
325 0 1 8.963863 -7.326719 12.252305
326 0 1 8.315662 -8.050220 12.281205
327 0 1 8.530361 -8.813700 11.696595
328 0 1 8.104862 -9.145231 10.900605
329 0 1 8.622360 -9.946020 10.817399
330 0 1 7.987961 -10.324659 11.400300
331 0 1 7.335560 -10.990881 11.244798
332 0 1 6.425262 -11.022581 10.998597
333 0 1 6.668861 -11.276480 11.931901
334 0 1 6.037060 -10.630579 12.327302
335 0 1 5.680561 -10.754179 13.185105
336 0 1 5.029720 -10.024221 13.308702
337 0 1 5.104664 -9.096840 13.449708
338 0 1 5.834763 -9.167351 12.827806
339 0 1 5.507664 -8.499269 12.211396
340 0 1 6.025063 -7.639000 12.197907
341 0 1 5.132313 -7.404610 12.620194
342 0 1 4.217030 -7.092070 12.835801
343 0 1 4.110580 -7.654591 13.539506
344 0 1 3.888161 -8.587521 13.332398
345 0 1 2.959851 -8.525591 12.988008
346 0 1 2.465451 -9.357161 12.881700
347 0 1 1.988251 -9.431530 12.049409
348 0 1 1.486672 -10.073200 11.505204
349 0 1 1.941101 -10.703279 12.059205
350 0 1 2.000790 -11.663679 12.266603
351 0 1 2.285450 -11.198881 13.055802
352 0 1 2.998932 -10.530680 13.345994
353 0 1 3.476143 -10.888081 14.200593
354 0 1 3.816681 -10.298130 14.852296
355 0 1 4.571491 -10.586081 15.360307
356 0 1 5.104591 -10.070261 15.958100
357 0 1 4.978222 -9.543650 16.754608
358 0 1 5.904961 -9.691179 16.477905
359 0 1 6.207863 -9.354120 15.613496
360 0 1 6.694759 -10.203321 15.634599
361 0 1 6.808064 -10.168402 16.607803
362 0 1 6.462460 -9.816601 17.471603
363 0 1 7.075562 -9.271261 17.053101
364 0 1 8.018963 -9.397711 17.257507
365 0 1 8.943161 -9.595980 17.249695
366 0 1 8.899563 -8.680250 17.019592
367 0 1 8.955662 -7.820871 17.436707
368 0 1 9.742462 -7.907160 16.851898
369 0 1 10.407261 -7.200251 17.018097
370 0 1 10.701962 -6.671810 17.814606
371 0 1 11.109364 -7.597330 18.056198
372 0 1 10.655361 -7.011461 18.798904
373 0 1 10.705959 -6.437750 19.513794
374 0 1 11.517262 -6.454351 20.036301
375 0 1 10.941463 -6.162561 20.730499
376 0 1 10.752960 -5.252230 20.409500
377 0 1 11.667461 -5.084930 20.436096
378 0 1 12.328060 -4.495481 19.984802
379 0 1 11.913860 -3.685501 20.115097
380 0 1 12.721161 -3.454741 20.587296
381 0 1 12.430363 -2.611101 20.619202
382 0 1 12.382259 -2.928961 19.686493
383 0 1 12.012661 -3.192711 18.848801
384 0 1 12.239964 -2.261351 18.940903
385 0 1 12.547260 -1.595850 18.256393
386 0 1 11.882061 -1.106247 17.865799
387 0 1 11.407261 -1.662310 18.505096
388 0 1 11.614460 -0.962748 19.264694
389 0 1 11.364361 -0.920113 20.209396
390 0 1 10.603462 -1.332304 20.646896
391 0 1 10.907864 -0.634830 21.244598
392 0 1 10.186062 -0.654234 21.860596
393 0 1 9.654961 0.092682 21.460907
394 0 1 9.120861 -0.581108 21.844406
395 0 1 8.298363 -0.034948 21.741898
396 0 1 7.539761 0.284138 22.251205
397 0 1 6.997662 -0.488806 22.157196
398 0 1 6.687660 -0.151295 21.251007
399 0 1 5.959461 -0.666658 20.829605
400 0 1 4.972363 -0.682121 21.034500
401 0 1 5.347961 -1.062990 21.833206
402 0 1 4.709312 -1.815750 21.392395
403 0 1 4.345631 -2.412170 22.074493
404 0 1 5.010040 -3.128080 22.352798
405 0 1 5.276260 -2.818420 23.181000
406 0 1 4.513050 -3.191080 23.569702
407 0 1 4.918072 -3.958670 23.946899
408 0 1 5.836662 -4.258360 23.834991
409 0 1 6.502460 -4.728670 23.298096
410 0 1 7.284962 -4.294691 22.898315
411 0 1 8.072163 -4.643660 23.350891
412 0 1 8.171661 -4.872431 22.305695
413 0 1 9.102062 -5.081541 22.210907
414 0 1 9.279861 -4.220171 22.475906
415 0 1 9.422062 -3.600670 21.776901
416 0 1 10.185261 -3.176640 22.130295
417 0 1 10.641460 -3.924040 22.321594
418 0 1 11.318264 -4.539461 22.792114
419 0 1 11.882259 -5.187330 23.254913
420 0 1 12.632862 -4.574781 23.144714
421 0 1 13.518459 -4.781641 23.437805
422 0 1 13.624462 -4.235270 24.219208
423 0 1 13.586662 -4.681551 25.078308
424 0 1 13.410564 -4.057150 25.776184
425 0 1 12.719261 -4.354139 26.339600
426 0 1 11.841461 -4.475260 26.565491
427 0 1 11.627163 -5.196341 25.924896
428 0 1 11.722561 -5.959089 25.371887
429 0 1 11.609562 -6.127520 26.326111
430 0 1 11.829464 -6.681841 27.065613
431 0 1 12.456261 -6.121222 27.467407
432 0 1 11.573761 -5.663500 27.720703
433 0 1 11.722660 -5.303631 28.625092
434 0 1 11.507362 -4.876160 29.517609
435 0 1 10.854160 -4.626650 28.883911
436 0 1 9.947361 -4.952080 29.010010
437 0 1 9.377262 -4.449251 29.654205
438 0 1 8.577461 -4.240961 29.207092
439 0 1 9.162563 -3.518560 29.115906
440 0 1 9.160961 -3.052080 29.989594
441 0 1 8.961662 -2.894190 30.905609
442 0 1 8.671864 -2.204830 31.534088
443 0 1 8.339561 -1.474371 32.049988
444 0 1 8.007561 -0.560030 31.986298
445 0 1 7.516064 -0.277906 31.240997
446 0 1 7.065361 -0.913082 31.798096
447 0 1 6.508060 -1.636381 31.493713
448 0 1 6.033062 -1.572430 32.350311
449 0 1 6.266861 -1.212877 33.244507
450 0 1 5.407360 -1.535400 33.487701
451 0 1 4.496540 -1.991350 33.510193
452 0 1 4.546471 -2.403051 34.372894
453 0 1 5.004631 -2.165440 35.225800
454 0 1 5.706963 -1.554611 35.367493
455 0 1 6.458061 -1.670790 36.036591
456 0 1 5.819462 -2.309021 36.252411
457 0 1 5.910160 -2.643530 35.344391
458 0 1 6.016560 -2.654890 34.386108
459 0 1 6.252560 -3.585871 34.265289
460 0 1 6.819862 -4.152700 33.648010
461 0 1 6.107464 -4.806631 33.901703
462 0 1 6.126560 -5.713591 33.961700
463 0 1 5.791862 -5.830881 34.837891
464 0 1 4.971394 -6.060530 35.317902
465 0 1 5.649662 -5.532801 35.808716
466 0 1 5.867161 -6.200510 36.438995
467 0 1 5.828960 -6.083620 37.369904
468 0 1 4.940960 -6.389061 37.470612
469 0 1 4.098923 -6.697880 37.655487
470 0 1 3.123612 -6.735300 37.345886
471 0 1 2.622933 -5.910521 37.453613
472 0 1 2.142571 -6.158319 36.691406
473 0 1 1.639973 -5.801439 35.972412
474 0 1 1.256531 -5.010580 35.490784
475 0 1 0.492123 -5.429211 35.082611
476 0 1 0.070332 -4.798580 34.473511
477 0 1 0.018330 -5.012991 33.483307
478 0 1 -0.458698 -5.835230 33.707611
479 0 1 -0.264107 -6.407721 32.976593
480 0 1 -0.144379 -6.469999 31.997894
481 0 1 -0.005527 -7.306520 32.438599
482 0 1 -0.603039 -8.126200 32.709808
483 0 1 -0.896889 -8.815920 33.393707
484 0 1 -0.058479 -8.922100 32.830688
485 0 1 0.709431 -8.309259 32.692413
486 0 1 0.680691 -8.954340 32.037201
487 0 1 1.016441 -8.773180 31.177307
488 0 1 1.923721 -8.876829 31.240204
489 0 1 2.084053 -8.307961 30.519409
490 0 1 2.450012 -7.577990 30.043213
491 0 1 1.851711 -6.891541 30.306793
492 0 1 2.462742 -6.667521 31.077301
493 0 1 1.961311 -6.264061 31.809387
494 0 1 1.193493 -6.772591 31.618408
495 0 1 0.630650 -6.265100 31.037109
496 0 1 0.064270 -5.550791 31.364288
497 0 1 -0.827579 -5.872091 31.416809
498 0 1 -1.632500 -6.298731 31.818909
499 0 1 -2.319957 -5.693510 31.669098
500 0 1 -2.969009 -6.197691 31.217987
501 0 1 -3.189289 -6.963430 30.649811
502 0 1 -3.595598 -7.404221 29.926086
503 0 1 -3.184177 -8.159021 29.410004
504 0 1 -3.080337 -7.377691 28.973297
505 0 1 -2.142837 -7.232531 28.992798
506 0 1 -1.783890 -7.280161 29.939087
507 0 1 -0.967529 -6.837700 30.138214
508 0 1 -0.230648 -7.019310 29.441803
509 0 1 0.495590 -7.164890 28.757599
510 0 1 0.789730 -6.292450 29.070099
511 0 1 1.137623 -5.476831 28.693909
512 0 1 1.869534 -5.612291 28.104614
513 0 1 1.954010 -6.297310 27.454895
514 0 1 2.567581 -6.632471 26.890594
515 0 1 2.891991 -6.696960 26.034607
516 0 1 2.915653 -6.222391 25.292511
517 0 1 2.255913 -6.184660 24.606293
518 0 1 1.423493 -5.805090 24.946106
519 0 1 1.825142 -6.349939 25.627594
520 0 1 1.512482 -7.149130 25.244202
521 0 1 1.491093 -8.094101 25.379089
522 0 1 2.197521 -8.711611 25.554016
523 0 1 2.196823 -9.660952 25.609314
524 0 1 1.369553 -9.848221 26.005005
525 0 1 1.448223 -8.860029 26.127808
526 0 1 0.952702 -9.118250 26.916199
527 0 1 0.382523 -9.400782 26.183014
528 0 1 0.732041 -9.544271 25.293213
529 0 1 0.487591 -8.694700 24.754486
530 0 1 -0.267048 -9.142759 24.431610
531 0 1 0.149471 -9.777121 23.880890
532 0 1 -0.422329 -9.877590 23.178314
533 0 1 -0.633018 -9.065031 22.609589
534 0 1 -1.501728 -8.712542 22.500092
535 0 1 -1.545898 -7.797470 22.753387
536 0 1 -2.291279 -7.452890 23.263702
537 0 1 -3.110946 -7.177099 23.731598
538 0 1 -3.588228 -6.440210 24.133392
539 0 1 -4.496824 -6.640661 24.083405
540 0 1 -5.307411 -6.305250 24.386993
541 0 1 -5.523849 -5.399679 24.610596
542 0 1 -5.758219 -5.662090 23.707092
543 0 1 -6.162169 -5.184500 22.986389
544 0 1 -7.058348 -5.055401 23.304901
545 0 1 -6.849178 -5.849451 23.933899
546 0 1 -7.649658 -6.369461 24.165588
547 0 1 -7.221359 -7.181231 24.349396
548 0 1 -7.396078 -7.630621 23.553314
549 0 1 -7.462278 -8.518810 23.918610
550 0 1 -6.786158 -9.138990 23.727112
551 0 1 -7.637148 -9.395540 23.377899
552 0 1 -8.524239 -9.320610 23.785492
553 0 1 -9.272938 -9.074900 23.242889
554 0 1 -9.599339 -8.107460 23.365692
555 0 1 -10.406948 -8.370611 23.792389
556 0 1 -10.895939 -7.701771 24.249908
557 0 1 -11.212358 -8.583000 24.618896
558 0 1 -11.420158 -9.062590 25.478210
559 0 1 -12.142519 -9.600090 25.116516
560 0 1 -11.683727 -9.869640 24.271088
561 0 1 -11.176739 -10.763479 23.974609
562 0 1 -10.290108 -11.233681 24.114990
563 0 1 -9.807009 -11.966280 23.786591
564 0 1 -9.207649 -11.742580 24.505188
565 0 1 -8.405739 -12.263781 24.705505
566 0 1 -7.768787 -12.196280 25.482086
567 0 1 -8.318489 -11.991980 26.293396
568 0 1 -8.437378 -12.403980 27.203400
569 0 1 -9.202339 -13.004580 27.019409
570 0 1 -10.020199 -13.404982 26.740387
571 0 1 -10.285269 -14.165581 26.205994
572 0 1 -9.503639 -14.601980 25.903290
573 0 1 -8.822409 -15.221581 25.496399
574 0 1 -8.462149 -14.404881 26.009003
575 0 1 -7.777409 -14.666681 25.396484
576 0 1 -7.179428 -13.924480 25.349701
577 0 1 -6.415438 -13.691280 24.765015
578 0 1 -5.606792 -13.193079 24.989197
579 0 1 -5.239388 -12.786581 25.786102
580 0 1 -6.077398 -13.107780 25.953003
581 0 1 -6.524599 -12.873480 26.730896
582 0 1 -6.429558 -13.810480 26.847412
583 0 1 -6.770479 -14.612181 27.336395
584 0 1 -7.130358 -15.412081 27.672791
585 0 1 -7.805248 -15.435281 26.990814
586 0 1 -7.519878 -16.171181 26.469391
587 0 1 -6.991129 -16.787580 26.953186
588 0 1 -7.206108 -17.765181 26.827789
589 0 1 -7.075678 -17.840780 25.868195
590 0 1 -6.506948 -17.292580 25.302094
591 0 1 -6.766958 -17.887280 24.496490
592 0 1 -6.628239 -18.716780 24.900391
593 0 1 -6.118118 -18.927681 24.173584
594 0 1 -5.622629 -19.667780 24.523102
595 0 1 -6.451708 -20.167980 24.345093
596 0 1 -7.287548 -20.592880 24.448486
597 0 1 -8.210289 -20.280880 24.636688
598 0 1 -9.016579 -20.678680 25.174713
599 0 1 -9.996899 -20.563480 25.439301
600 0 1 -10.870909 -20.668581 25.880188
601 0 1 -10.828938 -20.633280 26.842712
602 0 1 -11.711918 -20.579281 27.068390
603 0 1 -12.559849 -20.665281 26.629791
604 0 1 -12.562998 -20.771580 27.580688
605 0 1 -12.550449 -21.754181 27.524689
606 0 1 -12.505018 -21.442780 28.404999
607 0 1 -12.149879 -20.970980 29.076294
608 0 1 -11.339687 -20.481581 29.206207
609 0 1 -11.713669 -19.849880 28.583191
610 0 1 -11.902477 -18.954679 28.196686
611 0 1 -10.950218 -19.055281 28.184204
612 0 1 -11.217329 -18.207680 28.501099
613 0 1 -10.303829 -18.076080 28.136993
614 0 1 -10.845287 -17.287180 28.189911
615 0 1 -9.938278 -16.944780 28.188202
616 0 1 -9.591719 -16.649981 28.994995
617 0 1 -9.733379 -15.749181 28.951416
618 0 1 -10.226889 -15.201180 28.355988
619 0 1 -10.193699 -14.343180 27.913696
620 0 1 -10.166588 -13.453680 28.328796
621 0 1 -11.022169 -13.520981 27.939697
622 0 1 -10.949308 -13.126379 28.811401
623 0 1 -10.998119 -12.993780 29.796204
624 0 1 -11.231058 -12.264481 30.367889
625 0 1 -10.546619 -11.769281 30.820496
626 0 1 -10.371908 -12.051481 31.705200
627 0 1 -9.861778 -12.765181 32.027710
628 0 1 -10.246008 -12.542080 32.920288
629 0 1 -10.191139 -11.537380 32.978790
630 0 1 -9.974068 -11.105581 32.166290
631 0 1 -10.011238 -10.261251 32.729614
632 0 1 -10.433258 -10.164850 33.633209
633 0 1 -9.993109 -9.285851 33.911591
634 0 1 -10.914099 -9.105070 33.669006
635 0 1 -10.948299 -8.577030 32.814697
636 0 1 -10.641277 -7.653931 32.531403
637 0 1 -10.089199 -6.912191 32.694305
638 0 1 -9.906828 -6.761011 31.766113
639 0 1 -9.205479 -7.264341 32.141602
640 0 1 -8.894838 -6.677111 31.431885
641 0 1 -8.278128 -6.199600 30.832886
642 0 1 -8.078388 -5.563299 31.458588
643 0 1 -7.997719 -5.645130 32.425415
644 0 1 -8.238888 -5.575090 33.289001
645 0 1 -7.975199 -5.176069 34.171600
646 0 1 -7.265268 -4.738640 34.644592
647 0 1 -6.942068 -3.965429 35.200684
648 0 1 -6.710438 -4.500589 35.942902
649 0 1 -7.111778 -5.370560 36.087402
650 0 1 -7.893488 -5.784500 36.527802
651 0 1 -7.755859 -4.873131 36.861389
652 0 1 -7.052998 -4.664740 37.478088
653 0 1 -6.407129 -3.993660 37.258301
654 0 1 -5.542702 -4.032141 36.839600
655 0 1 -5.111851 -4.805130 37.340302
656 0 1 -4.377150 -5.314541 37.682709
657 0 1 -3.934778 -5.797131 38.388306
658 0 1 -4.249191 -5.310070 39.160004
659 0 1 -3.426168 -5.198391 39.639008
660 0 1 -4.059145 -4.437370 39.877686
661 0 1 -3.464248 -3.833891 39.475098
662 0 1 -3.438789 -3.199350 38.719513
663 0 1 -3.822237 -4.052301 38.414307
664 0 1 -2.904758 -4.277880 38.478607
665 0 1 -2.192779 -4.049740 37.919098
666 0 1 -2.578678 -4.050091 37.053406
667 0 1 -2.896686 -3.548851 36.271301
668 0 1 -2.360828 -3.667320 35.492615
669 0 1 -3.004528 -4.294809 34.931488
670 0 1 -2.603889 -4.509340 34.057098
671 0 1 -2.887398 -3.616930 33.847900
672 0 1 -3.789457 -3.768900 34.261414
673 0 1 -3.910673 -2.849581 34.141907
674 0 1 -3.916218 -1.914471 33.921112
675 0 1 -4.187853 -1.684931 33.057709
676 0 1 -4.752272 -1.668060 32.185699
677 0 1 -4.066090 -1.845051 31.521484
678 0 1 -3.857900 -1.393631 30.696411
679 0 1 -3.912180 -2.548349 30.618988
680 0 1 -3.350467 -2.300661 29.869598
681 0 1 -2.868026 -2.322969 29.010895
682 0 1 -3.041168 -2.305960 28.000702
683 0 1 -3.580469 -3.009771 27.664093
684 0 1 -2.907429 -3.540491 27.269592
685 0 1 -3.339649 -3.963501 26.526703
686 0 1 -2.383747 -3.704351 26.369904
687 0 1 -2.663269 -2.994120 25.681610
688 0 1 -3.135807 -2.090641 25.609100
689 0 1 -2.764290 -2.392759 24.746704
690 0 1 -2.058578 -1.885271 25.243896
691 0 1 -1.833038 -2.074100 24.318115
692 0 1 -1.511928 -2.756950 24.884491
693 0 1 -1.206600 -2.906311 25.783905
694 0 1 -0.475750 -3.546471 25.779694
695 0 1 0.365242 -3.094419 25.600311
696 0 1 0.498223 -4.052811 25.365295
697 0 1 0.844860 -4.981510 25.529907
698 0 1 0.464672 -5.785780 25.199005
699 0 1 0.315941 -5.353891 24.358704
700 0 1 0.281281 -4.525209 23.866211
701 0 1 0.038181 -4.710901 22.966797
702 0 1 -0.514938 -4.191360 22.375092
703 0 1 0.010983 -3.373140 22.216095
704 0 1 -0.365097 -3.674870 21.384506
705 0 1 -1.194168 -3.688620 20.797501
706 0 1 -1.624439 -2.817511 20.821594
707 0 1 -1.385498 -2.270990 20.039505
708 0 1 -1.931167 -2.696470 19.329895
709 0 1 -2.011959 -3.611330 19.251801
710 0 1 -1.789207 -3.560501 18.322098
711 0 1 -0.925159 -3.758480 18.011108
712 0 1 -0.274307 -3.058651 17.938705
713 0 1 -0.122108 -3.138611 18.887802
714 0 1 -0.502640 -2.327501 19.138794
715 0 1 -0.897747 -1.469900 19.443893
716 0 1 -0.789127 -0.441916 19.211899
717 0 1 -0.433849 0.385160 19.530899
718 0 1 -0.270969 1.276640 19.407593
719 0 1 0.665390 1.330740 19.081207
720 0 1 1.267040 0.623409 18.847000
721 0 1 0.407242 0.159563 18.739700
722 0 1 0.813511 -0.568821 19.097794
723 0 1 1.406490 -1.328245 19.426102
724 0 1 1.917042 -1.078730 18.627701
725 0 1 2.422993 -1.811069 18.190002
726 0 1 3.329853 -2.101511 18.310699
727 0 1 4.041000 -1.437771 18.000092
728 0 1 4.544922 -0.740236 18.298401
729 0 1 4.825123 0.162001 18.503601
730 0 1 4.913242 0.815889 19.161499
731 0 1 4.484612 1.645010 19.485397
732 0 1 4.681110 2.448561 19.875198
733 0 1 5.225342 2.464251 20.694199
734 0 1 5.640060 1.642321 20.267899
735 0 1 6.073563 2.550520 20.082001
736 0 1 6.526760 3.386438 20.211700
737 0 1 7.018459 3.204031 21.048996
738 0 1 7.819561 3.149439 21.628998
739 0 1 8.762661 3.297941 21.919708
740 0 1 8.747562 4.242540 21.790298
741 0 1 8.483162 4.790491 22.570892
742 0 1 8.699863 5.474329 21.996994
743 0 1 8.081062 6.243109 21.798996
744 0 1 7.980560 7.077768 22.307999
745 0 1 8.774860 7.501730 22.156006
746 0 1 8.723560 8.091940 22.958984
747 0 1 9.246761 8.786249 23.456390
748 0 1 9.637661 9.657019 23.602386
749 0 1 10.350662 9.037561 23.468689
750 0 1 10.389763 9.472689 22.612701
751 0 1 10.288662 10.057920 21.867203
752 0 1 9.381363 10.236319 22.006500
753 0 1 8.695560 9.543077 22.047897
754 0 1 8.562561 10.011320 22.853516
755 0 1 9.167061 10.724218 23.136688
756 0 1 9.846561 11.507219 23.314697
757 0 1 9.501060 11.405821 24.191589
758 0 1 9.782063 12.347422 24.035187
759 0 1 8.807262 12.304319 24.371399
760 0 1 8.565060 12.632719 25.249512
761 0 1 8.652161 11.781420 25.755096
762 0 1 7.866760 12.182920 26.078094
763 0 1 7.158863 11.688822 26.575806
764 0 1 6.781162 11.445719 27.410614
765 0 1 6.954060 12.144419 28.072113
766 0 1 6.585461 13.011221 27.854492
767 0 1 5.767563 13.176321 27.425598
768 0 1 4.998501 13.650320 27.685608
769 0 1 5.104282 14.187719 28.377808
770 0 1 4.305592 14.506922 28.046997
771 0 1 4.576023 15.386518 28.024506
772 0 1 4.826092 16.251719 28.473999
773 0 1 4.342510 16.305719 29.325897
774 0 1 3.507870 16.678919 28.917694
775 0 1 2.675461 16.554918 29.379791
776 0 1 2.104820 17.288820 29.768188
777 0 1 1.400334 17.973719 29.903412
778 0 1 0.674011 17.354822 30.038696
779 0 1 0.862721 16.924921 30.880402
780 0 1 -0.140270 16.951719 30.958984
781 0 1 -0.921619 16.512522 31.313202
782 0 1 -0.514538 17.124319 31.976990
783 0 1 -0.731090 16.658220 32.771088
784 0 1 -1.425499 16.439020 32.273712
785 0 1 -0.934299 15.703020 31.971588
786 0 1 -1.827980 15.592421 31.491516
787 0 1 -1.872089 15.236021 30.642395
788 0 1 -1.250389 14.742121 31.157501
789 0 1 -0.981449 13.846319 30.711609
790 0 1 -1.328377 13.376120 30.000305
791 0 1 -1.677418 12.821920 29.274506
792 0 1 -1.770718 13.738821 29.144592
793 0 1 -1.075157 14.327219 28.783295