LAMMPS data file via MDAnalysis

        2000  atoms
        1999  bonds
           0  angles
           0  dihedrals
           0  impropers

           1  atom types
           1  bond types
           0  angle types
           0  dihedral types
           0  improper types

-30.5 30.5 xlo xhi
-30.5 30.5 ylo yhi
-233.5 233.5 zlo zhi


Masses

1 1.000000

Atoms

1 0 1 3.459664 2.491416 44.793610
2 0 1 3.518964 2.905318 45.590393
3 0 1 3.781796 3.786258 45.994385
4 0 1 3.429185 3.974818 46.869507
5 0 1 4.353146 4.033797 47.121307
6 0 1 5.156525 4.607116 47.204285
7 0 1 5.216534 4.207065 48.080017
8 0 1 4.394616 4.179008 48.523895
9 0 1 4.827416 4.312907 49.482300
10 0 1 4.018857 4.686797 49.799103
11 0 1 3.620946 3.864356 49.655396
12 0 1 3.478966 2.930087 49.886292
13 0 1 2.638684 3.142146 49.404510
14 0 1 2.190964 2.480457 49.964294
15 0 1 1.483666 3.051357 50.265808
16 0 1 1.703625 3.551738 51.073700
17 0 1 1.303685 2.728297 51.419891
18 0 1 0.745644 2.099925 50.800110
19 0 1 0.926674 1.144256 51.001495
20 0 1 0.850365 1.096816 50.024292
21 0 1 -0.063457 1.126697 49.574890
22 0 1 -0.367504 0.351749 50.120087
23 0 1 0.544396 0.124458 49.829803
24 0 1 1.223275 0.263278 49.133484
25 0 1 2.064606 -0.314603 49.084900
26 0 1 2.118176 -1.060174 48.437317
27 0 1 2.386563 -0.719453 47.565308
28 0 1 2.566643 -1.496262 47.051910
29 0 1 3.437863 -1.887242 47.249512
30 0 1 3.964757 -2.379563 46.620605
31 0 1 3.601414 -3.196826 46.984100
32 0 1 4.025784 -3.529591 47.815796
33 0 1 3.143636 -3.835482 47.585815
34 0 1 2.512746 -4.574414 47.386597
35 0 1 2.285336 -4.834702 46.454712
36 0 1 2.295155 -4.281228 45.630493
37 0 1 1.560216 -4.926814 45.529205
38 0 1 1.249394 -4.039050 45.658813
39 0 1 0.595036 -3.575511 46.276794
40 0 1 0.149033 -3.869210 45.476501
41 0 1 0.392563 -2.928166 45.559113
42 0 1 -0.223857 -2.504491 45.018799
43 0 1 -0.348377 -2.086423 44.130493
44 0 1 0.367726 -1.753422 44.622589
45 0 1 0.159726 -1.160992 43.854492
46 0 1 -0.194026 -0.292584 43.558105
47 0 1 0.154336 -0.464013 42.657898
48 0 1 0.497616 -1.015874 41.919983
49 0 1 0.852555 -1.545205 42.612915
50 0 1 1.464394 -1.922784 41.944702
51 0 1 2.360924 -1.766492 42.323303
52 0 1 2.196713 -1.184804 41.574890
53 0 1 3.098355 -0.810212 41.639709
54 0 1 4.053853 -0.939275 41.582703
55 0 1 4.313385 -0.689873 42.443207
56 0 1 5.171086 -0.787244 42.068298
57 0 1 5.113636 0.145698 42.130798
58 0 1 4.827176 0.990085 42.469788
59 0 1 5.200924 1.748027 42.043701
60 0 1 4.567444 1.516856 41.356812
61 0 1 4.169423 0.720775 40.918396
62 0 1 3.721837 1.362487 40.290497
63 0 1 3.739335 1.960937 39.535187
64 0 1 3.638585 2.777156 39.102692
65 0 1 3.868474 3.632179 38.689209
66 0 1 3.249596 4.251468 38.180389
67 0 1 3.144345 5.225688 38.040192
68 0 1 3.326684 6.189437 38.057587
69 0 1 3.440717 6.078769 38.962006
70 0 1 3.517545 6.305346 39.894196
71 0 1 2.896886 6.719119 40.446899
72 0 1 2.174985 6.787616 41.135590
73 0 1 1.384175 6.457427 41.604095
74 0 1 1.836114 5.736278 41.096100
75 0 1 0.934353 5.497146 41.495911
76 0 1 0.545025 5.201106 42.315002
77 0 1 0.901974 5.920108 42.713501
78 0 1 1.008423 5.204028 43.375793
79 0 1 0.862866 4.258128 43.386688
80 0 1 1.844723 4.241427 43.574493
81 0 1 2.239545 5.091056 43.505188
82 0 1 2.489144 5.065906 42.579590
83 0 1 2.962094 4.847835 41.815186
84 0 1 3.292416 5.689376 41.466705
85 0 1 2.441975 6.061698 41.808197
86 0 1 1.946736 6.017627 42.622498
87 0 1 1.792004 6.583919 43.482910
88 0 1 1.265607 7.271018 43.117798
89 0 1 1.477353 7.671317 42.277588
90 0 1 2.333794 7.282619 42.597900
91 0 1 2.849324 7.991817 42.341095
92 0 1 2.297044 8.707217 42.115784
93 0 1 1.447545 8.882716 41.766113
94 0 1 1.203805 9.338916 42.590607
95 0 1 1.426404 10.101417 43.144012
96 0 1 0.706723 10.327418 43.692413
97 0 1 0.914254 9.853316 44.578400
98 0 1 0.249695 9.094916 44.586914
99 0 1 -0.595455 8.976619 44.294403
100 0 1 -0.411586 8.257518 44.944214
101 0 1 -1.308994 8.526217 45.237000
102 0 1 -1.958446 8.580516 44.527313
103 0 1 -2.423076 9.316615 44.036713
104 0 1 -3.277255 8.860019 43.968506
105 0 1 -3.648635 9.516418 43.291809
106 0 1 -4.147611 10.295115 42.966400
107 0 1 -4.827095 9.600318 42.940613
108 0 1 -4.781925 9.912517 42.045105
109 0 1 -4.055400 9.213115 41.826202
110 0 1 -3.647569 10.121516 41.912811
111 0 1 -3.324538 10.250415 41.023315
112 0 1 -3.541003 11.102015 41.019104
113 0 1 -3.611713 11.769916 41.660583
114 0 1 -4.388052 11.965419 42.168213
115 0 1 -5.308956 11.582717 42.197510
116 0 1 -5.941616 12.319716 42.198212
117 0 1 -6.774255 12.643214 42.473602
118 0 1 -7.517255 12.151816 42.355103
119 0 1 -6.863456 11.415217 42.587097
120 0 1 -7.444705 10.679416 42.816803
121 0 1 -7.543016 9.818416 43.277802
122 0 1 -7.925155 9.287017 42.544189
123 0 1 -7.565696 8.389716 42.801910
124 0 1 -8.278064 7.673316 43.029907
125 0 1 -8.968625 7.343219 42.435699
126 0 1 -8.973294 8.171916 41.916809
127 0 1 -9.148305 7.584517 41.114288
128 0 1 -8.445155 6.968219 41.063904
129 0 1 -8.258405 6.310596 40.316711
130 0 1 -8.871736 6.336757 39.540283
131 0 1 -9.456614 7.025516 39.270905
132 0 1 -9.886855 7.391719 40.056793
133 0 1 -10.710425 7.873916 39.900604
134 0 1 -11.380034 8.526118 40.127289
135 0 1 -12.144824 8.003016 40.447601
136 0 1 -12.491105 7.644317 39.647797
137 0 1 -13.066695 7.001716 40.058594
138 0 1 -13.151515 6.184447 40.483215
139 0 1 -12.587596 5.979754 41.195892
140 0 1 -12.216186 6.158477 42.109589
141 0 1 -12.536925 6.224406 43.033508
142 0 1 -12.041526 6.983718 43.367401
143 0 1 -12.330615 6.550387 44.186707
144 0 1 -12.513995 7.131717 44.972198
145 0 1 -12.548455 8.106116 44.815796
146 0 1 -12.156365 8.904216 44.390900
147 0 1 -12.636785 8.752818 43.534607
148 0 1 -13.075475 9.595817 43.604095
149 0 1 -13.671945 8.913516 43.164398
150 0 1 -13.664054 8.975616 42.218201
151 0 1 -14.078784 8.880416 41.309296
152 0 1 -14.892585 8.527415 40.893005
153 0 1 -14.844386 7.572818 40.720001
154 0 1 -14.751285 7.226718 39.837311
155 0 1 -14.689485 6.964217 38.897705
156 0 1 -15.041785 6.432826 38.157898
157 0 1 -15.266885 7.366519 37.916992
158 0 1 -15.054084 7.775119 37.040009
159 0 1 -14.254685 7.357615 36.607300
160 0 1 -13.905185 6.846618 35.774597
161 0 1 -14.633685 7.396815 35.440399
162 0 1 -14.256785 7.815616 34.702911
163 0 1 -13.572505 7.399615 34.071106
164 0 1 -13.976184 6.821715 33.345703
165 0 1 -13.347825 7.266719 32.828613
166 0 1 -12.740726 7.349818 32.072510
167 0 1 -13.203605 6.519416 31.970093
168 0 1 -13.277345 6.814216 31.023102
169 0 1 -12.398875 6.396018 31.009003
170 0 1 -13.025325 5.667357 30.752197
171 0 1 -13.608325 4.992106 30.298401
172 0 1 -14.057284 5.710258 29.942200
173 0 1 -13.951186 5.305789 29.107208
174 0 1 -13.237266 5.898566 29.304413
175 0 1 -13.479556 6.759715 28.952301
176 0 1 -13.339635 7.085917 28.022095
177 0 1 -13.045995 7.471019 27.224701
178 0 1 -13.090354 8.144317 27.895599
179 0 1 -13.353135 9.083117 28.093384
180 0 1 -12.510345 9.546115 28.105499
181 0 1 -12.322974 10.486815 28.123901
182 0 1 -11.675044 11.011718 27.534210
183 0 1 -11.863116 10.491817 26.810211
184 0 1 -10.923434 10.748015 26.832306
185 0 1 -10.105115 10.572616 27.236786
186 0 1 -9.854304 10.817218 26.330505
187 0 1 -9.414525 10.004416 26.396301
188 0 1 -8.938594 9.830817 25.547485
189 0 1 -8.410645 9.061217 25.765411
190 0 1 -8.227786 8.822417 24.839813
191 0 1 -8.795745 8.124316 24.491608
192 0 1 -8.597245 7.511718 23.707001
193 0 1 -7.715076 7.882815 23.658691
194 0 1 -7.238796 7.043918 23.690399
195 0 1 -6.381605 6.632117 24.072998
196 0 1 -5.717546 6.500575 24.829987
197 0 1 -5.097845 6.469829 25.632690
198 0 1 -5.805036 6.404246 26.290405
199 0 1 -5.537895 6.642417 27.151306
200 0 1 -5.170816 5.831676 27.522797
201 0 1 -4.235927 5.835345 27.491302
202 0 1 -4.523559 5.648578 28.358002
203 0 1 -3.696111 5.876697 28.791016
204 0 1 -3.081619 5.566058 28.074890
205 0 1 -3.069978 4.568328 28.003784
206 0 1 -3.559388 4.054587 28.642303
207 0 1 -3.845018 3.184169 28.834900
208 0 1 -3.683259 2.376708 29.251495
209 0 1 -3.578904 1.724368 29.974396
210 0 1 -2.678598 1.387248 29.926605
211 0 1 -2.825877 1.324516 28.948486
212 0 1 -2.294706 0.875556 28.237793
213 0 1 -1.664535 0.977977 27.496796
214 0 1 -0.729156 1.181556 27.361694
215 0 1 -0.380695 2.061927 27.133209
216 0 1 0.373475 2.161357 26.476593
217 0 1 0.652234 2.562358 25.684509
218 0 1 0.852234 3.108115 26.419800
219 0 1 1.345055 3.172546 27.274506
220 0 1 1.942685 3.482848 27.982513
221 0 1 2.605626 2.844115 27.837097
222 0 1 2.590375 1.868716 27.947296
223 0 1 1.963505 1.109016 27.952606
224 0 1 2.056973 0.940177 27.001587
225 0 1 2.974736 0.429618 26.948090
226 0 1 3.223836 1.006885 27.729889
227 0 1 3.606835 0.323997 28.405487
228 0 1 3.263345 -0.307744 27.734894
229 0 1 3.723317 -0.440793 26.934692
230 0 1 3.777844 -1.106015 26.243896
231 0 1 4.352986 -1.919442 26.361206
232 0 1 4.921235 -2.274052 25.700592
233 0 1 4.736084 -2.750102 24.798401
234 0 1 4.994343 -2.937724 23.878113
235 0 1 4.059094 -2.843560 23.686584
236 0 1 4.063046 -3.608046 24.278900
237 0 1 4.770146 -3.790238 24.870392
238 0 1 5.748795 -3.991528 25.106903
239 0 1 6.390515 -3.309493 25.535004
240 0 1 6.368412 -2.944157 26.504913
241 0 1 6.807415 -2.128653 26.714813
242 0 1 7.280514 -2.585910 27.405396
243 0 1 7.908715 -2.921477 28.050507
244 0 1 8.762013 -2.435778 27.934113
245 0 1 9.800614 -2.514523 27.870300
246 0 1 10.584516 -2.170184 28.322296
247 0 1 10.835114 -2.837620 28.883209
248 0 1 10.131116 -3.422414 28.473907
249 0 1 9.245915 -3.127450 28.781403
250 0 1 9.315114 -2.115313 28.848602
251 0 1 8.587716 -2.502005 29.407593
252 0 1 8.320115 -1.582593 29.544800
253 0 1 7.523316 -1.577103 28.999084
254 0 1 6.920716 -1.093903 28.409088
255 0 1 6.316403 -1.726514 27.997498
256 0 1 5.810864 -2.230584 27.339111
257 0 1 4.982674 -1.870492 27.471802
258 0 1 4.936413 -2.242194 28.329285
259 0 1 4.242314 -2.401473 28.940186
260 0 1 3.580216 -1.758855 28.691711
261 0 1 2.839574 -1.730954 29.333893
262 0 1 2.220013 -1.272061 28.790710
263 0 1 1.518975 -1.389775 29.482086
264 0 1 1.132443 -1.026143 28.706512
265 0 1 0.595406 -0.308053 29.194397
266 0 1 -0.248115 -0.762452 28.954803
267 0 1 -0.737457 -1.541611 29.149902
268 0 1 -1.532924 -1.805222 28.686310
269 0 1 -1.781974 -2.031993 27.704193
270 0 1 -2.392196 -1.575772 27.226501
271 0 1 -2.346456 -0.647244 26.946198
272 0 1 -1.618446 -1.131222 26.553497
273 0 1 -1.014526 -0.459935 26.533905
274 0 1 -0.496017 0.320438 26.222412
275 0 1 0.010544 -0.548054 26.249603
276 0 1 -0.159717 -1.408192 25.861786
277 0 1 0.440026 -1.377023 25.085297
278 0 1 1.201844 -1.850182 24.632904
279 0 1 2.096623 -2.081893 24.789185
280 0 1 2.142636 -1.172765 24.556000
281 0 1 2.891045 -1.037343 25.110291
282 0 1 3.095795 -1.053532 24.127106
283 0 1 4.035534 -0.726983 24.199005
284 0 1 4.363957 -0.373074 25.003204
285 0 1 4.996644 0.457446 24.836792
286 0 1 5.637036 0.484329 24.140289
287 0 1 6.160862 0.398425 23.333099
288 0 1 6.691113 1.037177 22.750702
289 0 1 7.650616 1.219798 22.868408
290 0 1 7.296914 1.961128 22.392105
291 0 1 7.231816 2.964027 22.216599
292 0 1 8.043015 3.212825 22.670105
293 0 1 8.237714 4.125148 22.314301
294 0 1 8.323415 4.083735 23.328400
295 0 1 7.776013 3.549045 23.969116
296 0 1 7.941014 4.161925 24.707489
297 0 1 8.123113 4.009295 25.651886
298 0 1 7.966214 3.731036 26.547485
299 0 1 7.326813 3.702796 27.260986
300 0 1 6.341416 3.740909 27.049194
301 0 1 6.400113 2.896598 27.592499
302 0 1 6.480713 2.288005 28.347504
303 0 1 7.139515 1.636646 28.359497
304 0 1 6.878914 0.959007 27.640991
305 0 1 7.695916 1.313365 27.292908
306 0 1 7.115117 1.569408 26.559296
307 0 1 6.430813 1.010108 26.363495
308 0 1 6.238366 0.225097 25.877106
309 0 1 6.038804 -0.479924 26.438599
310 0 1 5.278363 0.187068 26.425812
311 0 1 5.110913 0.997497 25.833496
312 0 1 4.197804 0.594978 25.871216
313 0 1 4.000184 1.388328 26.378906
314 0 1 4.690655 1.204047 26.997314
315 0 1 5.327855 1.812347 27.369904
316 0 1 4.977376 1.630367 28.245911
317 0 1 5.143994 1.581226 29.195190
318 0 1 4.382695 2.239856 29.011993
319 0 1 4.082135 2.997386 29.552307
320 0 1 3.200444 2.633907 29.842804
321 0 1 3.072903 3.186557 30.621613
322 0 1 3.700104 3.904517 30.711700
323 0 1 3.658505 4.829406 30.449799
324 0 1 4.451657 5.102706 29.890900
325 0 1 4.698216 4.617877 29.094391
326 0 1 3.783654 4.623935 29.233704
327 0 1 3.783334 5.336665 28.691101
328 0 1 3.534795 5.759974 27.849213
329 0 1 4.421975 5.739848 27.431793
330 0 1 4.883465 6.599216 27.517487
331 0 1 5.315934 7.428317 27.183990
332 0 1 5.183804 7.640018 28.106506
333 0 1 4.758244 8.595717 28.129395
334 0 1 4.231244 7.779017 27.821503
335 0 1 4.410016 6.993518 28.319885
336 0 1 3.475724 6.934718 27.889496
337 0 1 3.090123 7.400615 27.086609
338 0 1 2.235677 7.082019 27.332214
339 0 1 2.399384 7.550918 26.417206
340 0 1 1.598973 7.993117 26.697296
341 0 1 1.023785 8.546115 26.179108
342 0 1 1.384965 8.405719 25.336212
343 0 1 1.754143 7.843818 24.632599
344 0 1 2.316144 8.327815 24.027893
345 0 1 2.174554 8.270617 23.108490
346 0 1 2.704316 9.004916 23.081604
347 0 1 2.639535 8.973315 22.072495
348 0 1 1.729676 8.714015 22.246201
349 0 1 1.375184 9.527316 22.595093
350 0 1 0.808293 10.169719 23.113403
351 0 1 0.703267 9.245418 23.180511
352 0 1 0.245186 8.679717 23.807709
353 0 1 -0.131564 9.539515 23.837708
354 0 1 -0.828647 8.871417 23.687103
355 0 1 -1.051784 7.964118 23.678406
356 0 1 -1.629146 7.163714 23.866913
357 0 1 -1.088134 6.844615 23.090607
358 0 1 -2.078944 7.033618 22.884491
359 0 1 -2.568006 7.780215 23.216614
360 0 1 -2.774919 8.665217 23.174011
361 0 1 -2.453065 9.559115 23.335114
362 0 1 -2.688237 9.507018 24.280090
363 0 1 -2.065913 9.197318 24.861389
364 0 1 -2.823322 8.903316 25.295715
365 0 1 -2.782308 9.551616 26.078003
366 0 1 -3.271972 9.170115 26.781891
367 0 1 -2.784650 8.386218 26.983704
368 0 1 -3.053184 7.871615 27.776184
369 0 1 -3.329213 7.865916 28.714996
370 0 1 -2.856286 7.710017 29.596802
371 0 1 -1.876445 7.836215 29.316406
372 0 1 -1.584667 8.346118 30.037689
373 0 1 -0.632877 8.519816 29.932007
374 0 1 -0.732765 8.024615 30.752197
375 0 1 -1.030395 8.273318 31.685913
376 0 1 -0.152255 8.717116 31.941986
377 0 1 0.085015 9.563815 32.266113
378 0 1 -0.177417 10.278518 32.847809
379 0 1 -0.652133 10.585116 33.588409
380 0 1 -0.754337 9.894816 34.231506
381 0 1 -1.114993 8.999217 33.985901
382 0 1 -0.287937 8.480117 33.777893
383 0 1 0.436123 8.477015 34.398193
384 0 1 1.385354 8.489917 34.229706
385 0 1 1.764153 8.290618 35.115204
386 0 1 1.303063 8.912017 35.642517
387 0 1 1.106934 9.758716 36.099701
388 0 1 0.540677 10.548419 36.299713
389 0 1 1.365765 10.936118 36.519104
390 0 1 1.039204 11.242717 35.638702
391 0 1 0.687894 11.927016 36.318787
392 0 1 0.956334 12.833919 36.458405
393 0 1 1.541974 13.607917 36.074097
394 0 1 2.215916 14.135715 35.617615
395 0 1 1.685013 14.863017 35.957489
396 0 1 1.081715 15.615619 35.996490
397 0 1 0.747964 15.493320 36.888611
398 0 1 0.036854 15.481318 37.555206
399 0 1 -0.389984 16.102520 37.015594
400 0 1 0.254857 16.469616 37.661499
401 0 1 0.863724 17.257320 37.819885
402 0 1 1.096764 16.990620 36.915283
403 0 1 0.309285 17.512920 36.673706
404 0 1 0.686963 17.081120 35.876495
405 0 1 1.497414 16.566818 35.678497
406 0 1 2.322465 17.019318 35.694611
407 0 1 2.529145 17.117619 36.597290
408 0 1 2.579926 16.814117 37.579285
409 0 1 1.971463 17.071117 38.274200
410 0 1 1.345166 16.563915 38.847992
411 0 1 0.862965 16.331516 39.721497
412 0 1 1.440743 16.479118 40.459198
413 0 1 2.208935 16.185520 41.050995
414 0 1 3.104596 16.380917 40.683289
415 0 1 3.123936 15.363315 40.559509
416 0 1 2.440984 15.195716 41.228912
417 0 1 1.511105 15.020915 41.319702
418 0 1 1.321675 14.332118 41.978912
419 0 1 1.307187 15.241218 42.310089
420 0 1 1.158974 14.527415 42.930908
421 0 1 1.417393 15.377116 43.389587
422 0 1 1.807786 16.040020 43.878693
423 0 1 1.547803 16.988419 44.083313
424 0 1 0.703416 16.957718 43.512085
425 0 1 -0.030395 17.609818 43.447693
426 0 1 -0.739166 18.093716 42.916901
427 0 1 -1.037647 18.629719 43.709717
428 0 1 -1.542087 19.538017 44.025696
429 0 1 -0.734836 19.894619 43.684387
430 0 1 -0.189365 19.563519 42.936188
431 0 1 0.191907 18.707218 43.205688
432 0 1 0.972226 18.219517 43.109009
433 0 1 1.040135 18.996120 42.497406
434 0 1 1.833035 19.331020 42.062317
435 0 1 2.712994 19.467117 42.246399
436 0 1 3.270325 20.170017 41.830017
437 0 1 2.551175 20.764118 41.607208
438 0 1 2.641736 21.128117 42.493286
439 0 1 3.231225 21.670918 41.985687
440 0 1 2.654134 22.266617 42.467194
441 0 1 3.092583 23.138817 42.545593
442 0 1 4.012276 23.383717 42.176697
443 0 1 3.997655 22.469818 42.124298
444 0 1 4.813324 22.608616 42.687408
445 0 1 5.018666 21.832718 42.022491
446 0 1 5.403466 22.655018 41.781799
447 0 1 6.314835 22.771717 42.115997
448 0 1 7.102215 22.728519 42.566498
449 0 1 7.286015 21.802715 42.754395
450 0 1 7.719315 21.008217 43.035187
451 0 1 8.035016 20.093220 43.059387
452 0 1 8.243215 19.180019 42.736084
453 0 1 7.972313 18.299015 42.640991
454 0 1 8.028714 18.242619 41.693115
455 0 1 8.402215 18.777218 40.983398
456 0 1 8.620313 19.223518 40.042908
457 0 1 7.830113 19.739418 39.874390
458 0 1 8.011315 19.700718 38.924805
459 0 1 7.887616 18.806519 39.356201
460 0 1 8.565816 18.207920 38.971497
461 0 1 8.099015 17.733017 38.279510
462 0 1 7.787816 17.739315 37.362213
463 0 1 7.355816 18.047115 36.561310
464 0 1 6.917515 18.684818 35.890289
465 0 1 6.303524 19.387218 35.858093
466 0 1 5.780613 20.228420 35.838684
467 0 1 6.506516 20.150917 36.502106
468 0 1 7.516316 19.939816 36.683594
469 0 1 8.457013 20.160015 36.365997
470 0 1 9.400617 20.165119 36.482697
471 0 1 9.216916 19.848717 37.381104
472 0 1 9.912717 19.515617 38.016785
473 0 1 10.889314 19.424717 38.180603
474 0 1 11.468213 19.040615 37.497711
475 0 1 12.181916 19.448418 36.938293
476 0 1 12.032014 19.383717 35.950012
477 0 1 12.338414 18.472919 35.783112
478 0 1 12.028916 17.721317 36.356110
479 0 1 11.298615 17.108120 36.112213
480 0 1 11.532815 16.435017 35.521912
481 0 1 11.472814 17.223919 35.019409
482 0 1 10.548814 17.632118 34.969299
483 0 1 9.973516 18.393818 35.014801
484 0 1 9.304914 17.960819 34.491791
485 0 1 8.516614 17.495617 34.818390
486 0 1 8.906014 16.669315 35.095795
487 0 1 8.630616 15.976417 35.774109
488 0 1 7.707615 15.784217 36.032410
489 0 1 6.814312 16.170418 36.430786
490 0 1 6.546513 16.798817 37.176910
491 0 1 6.067544 16.933315 36.407288
492 0 1 5.147255 16.943317 36.427887
493 0 1 4.536763 16.199417 36.612213
494 0 1 3.719846 15.646419 36.378906
495 0 1 3.498376 14.920917 35.841309
496 0 1 3.911557 15.527514 35.210388
497 0 1 2.998463 16.025616 35.266907
498 0 1 3.036214 15.906619 34.341095
499 0 1 2.260834 16.451218 34.464417
500 0 1 2.207574 15.917716 33.664490
501 0 1 2.143567 14.985515 33.618195
502 0 1 2.668607 14.597415 32.846588
503 0 1 3.219086 13.966117 33.310791
504 0 1 2.929215 14.059619 34.272491
505 0 1 2.837834 13.104518 34.136810
506 0 1 3.058015 12.660518 34.949799
507 0 1 3.968934 12.356116 34.861511
508 0 1 4.824765 11.937419 35.074310
509 0 1 5.338086 11.574718 34.373688
510 0 1 5.542794 10.789119 33.923584
511 0 1 5.848485 9.919818 34.164001
512 0 1 5.111744 9.280616 34.010712
513 0 1 5.434273 8.542415 33.419617
514 0 1 5.056645 7.719016 33.172485
515 0 1 5.231595 7.373317 34.013794
516 0 1 6.187832 7.288817 34.144196
517 0 1 6.837315 6.661117 34.655487
518 0 1 6.970616 7.539119 35.127289
519 0 1 7.869214 7.616618 34.888184
520 0 1 7.451916 7.894519 34.061005
521 0 1 8.388516 8.079116 34.109589
522 0 1 8.564015 7.107318 34.047913
523 0 1 8.730714 6.226626 34.390808
524 0 1 9.080514 5.383319 34.176605
525 0 1 8.682515 4.487926 34.383698
526 0 1 8.926213 4.687335 35.269501
527 0 1 8.740914 4.001765 35.928284
528 0 1 7.990914 3.645026 35.418213
529 0 1 7.289517 3.024806 35.559204
530 0 1 7.463913 2.365077 34.879700
531 0 1 8.238114 1.784518 34.900696
532 0 1 8.718213 1.069846 35.390015
533 0 1 8.146115 0.590728 35.919403
534 0 1 7.323716 0.121047 35.741516
535 0 1 7.349816 -0.870023 35.497192
536 0 1 6.820115 -1.382943 34.896912
537 0 1 6.585316 -1.771573 35.809906
538 0 1 5.839703 -2.386754 36.061493
539 0 1 5.435906 -2.530053 36.985992
540 0 1 5.678574 -3.224866 37.686584
541 0 1 5.232663 -4.053296 37.900604
542 0 1 4.550164 -4.713624 37.915497
543 0 1 4.569584 -4.427854 36.978607
544 0 1 4.585534 -5.293294 36.473816
545 0 1 5.374535 -4.946914 36.056000
546 0 1 6.146904 -5.030293 35.293610
547 0 1 6.826115 -4.748973 34.664612
548 0 1 6.518315 -5.224652 33.843811
549 0 1 7.498517 -5.377133 33.826691
550 0 1 8.082517 -6.127093 33.691284
551 0 1 8.718316 -5.782613 34.303497
552 0 1 9.355916 -6.397094 34.662292
553 0 1 9.744214 -6.067224 33.804504
554 0 1 10.513314 -5.423404 33.743591
555 0 1 11.458016 -5.515903 33.736511
556 0 1 12.373815 -5.593154 33.681000
557 0 1 12.232717 -5.519362 32.753784
558 0 1 11.586614 -6.255683 32.783295
559 0 1 12.267015 -6.617953 32.226593
560 0 1 12.536614 -7.085633 33.008484
561 0 1 12.527616 -7.975333 33.504517
562 0 1 13.184613 -8.340503 32.846710
563 0 1 13.821614 -7.656684 32.598694
564 0 1 14.576116 -7.284802 32.080383
565 0 1 15.399716 -6.980544 32.452301
566 0 1 15.378915 -6.238593 31.744293
567 0 1 15.797017 -5.933644 32.562103
568 0 1 15.495717 -5.987573 33.520599
569 0 1 15.532815 -5.135093 34.022308
570 0 1 16.152214 -5.204223 34.694885
571 0 1 17.032612 -5.240094 34.264008
572 0 1 17.421017 -5.009072 33.406891
573 0 1 17.069912 -5.763043 32.825592
574 0 1 17.434414 -6.421662 32.255005
575 0 1 17.039616 -6.258443 31.437500
576 0 1 16.992413 -7.167832 31.287415
577 0 1 16.492016 -7.479163 31.977814
578 0 1 15.913014 -8.069673 32.564392
579 0 1 16.059315 -8.976914 32.086090
580 0 1 15.268117 -8.855714 31.627594
581 0 1 15.129415 -8.544454 30.699310
582 0 1 14.290013 -8.657483 30.242798
583 0 1 13.773313 -7.987874 30.613495
584 0 1 14.316213 -7.366452 30.056885
585 0 1 15.213613 -7.836114 29.891907
586 0 1 15.230016 -7.124513 29.245789
587 0 1 15.160214 -8.075063 28.878601
588 0 1 15.732415 -8.055943 28.179810
589 0 1 15.018315 -7.561454 27.996307
590 0 1 15.367116 -6.630902 28.094604
591 0 1 15.478715 -5.692924 27.840515
592 0 1 14.737218 -5.516454 27.210999
593 0 1 15.320016 -4.922124 26.791016
594 0 1 14.528813 -5.134694 26.247406
595 0 1 15.273618 -5.365144 25.720093
596 0 1 15.587712 -4.470124 25.461792
597 0 1 14.685315 -4.450784 25.071594
598 0 1 14.482915 -5.260394 24.656891
599 0 1 14.533017 -4.982802 23.782806
600 0 1 13.971913 -5.640473 23.389801
601 0 1 13.218213 -5.274663 23.020203
602 0 1 12.283616 -5.062003 22.975800
603 0 1 12.207116 -4.162826 23.439514
604 0 1 11.170915 -4.139108 23.651794
605 0 1 11.386617 -3.164349 23.618011
606 0 1 11.386617 -2.588464 22.853699
607 0 1 11.331815 -3.409188 22.324097
608 0 1 12.080716 -3.220385 21.677795
609 0 1 11.951814 -4.220422 21.626099
610 0 1 11.125417 -4.641204 21.498993
611 0 1 11.242715 -5.142592 20.675400
612 0 1 11.623914 -5.971482 20.372803
613 0 1 10.750916 -6.167684 20.761002
614 0 1 9.935914 -5.710223 20.763397
615 0 1 9.967114 -6.491754 21.333694
616 0 1 10.549115 -7.194314 21.049500
617 0 1 10.463716 -8.120984 21.101807
618 0 1 11.433915 -8.230783 21.389404
619 0 1 12.072114 -8.846904 21.042496
620 0 1 11.334317 -9.506074 21.056305
621 0 1 11.180314 -9.873214 20.167404
622 0 1 12.089215 -9.851083 19.918503
623 0 1 12.730214 -9.771054 19.123901
624 0 1 12.319715 -9.289323 18.407898
625 0 1 12.595716 -9.336022 17.458603
626 0 1 11.893117 -9.264953 16.838593
627 0 1 12.123914 -9.515004 15.934799
628 0 1 12.644116 -10.035424 16.576599
629 0 1 12.623616 -10.657943 15.818893
630 0 1 11.920815 -11.228953 16.179703
631 0 1 11.280614 -11.185464 15.458298
632 0 1 11.617017 -10.343503 15.255203
633 0 1 10.984216 -9.645722 15.305206
634 0 1 10.088513 -9.915883 15.515198
635 0 1 9.716817 -9.357324 14.759003
636 0 1 10.132215 -8.550653 14.496994
637 0 1 10.601117 -8.242003 13.735901
638 0 1 10.025414 -8.820224 13.155197
639 0 1 10.529714 -8.798293 12.304596
640 0 1 9.641217 -9.156913 11.969299
641 0 1 8.613614 -9.189412 12.162903
642 0 1 8.999417 -9.780614 12.894699
643 0 1 8.459813 -10.428134 13.375198
644 0 1 7.991513 -11.025653 13.987900
645 0 1 8.339917 -11.892064 14.234497
646 0 1 9.030614 -12.534543 14.186905
647 0 1 9.890515 -12.162152 14.522400
648 0 1 9.466313 -12.811143 15.105301
649 0 1 9.509915 -12.088964 15.713501
650 0 1 8.767415 -12.553674 16.089203
651 0 1 8.471616 -11.850564 16.637497
652 0 1 7.799916 -11.588563 17.279205
653 0 1 7.031815 -11.133273 17.490494
654 0 1 6.959713 -11.939544 17.992905
655 0 1 6.531914 -12.702535 18.212296
656 0 1 6.319256 -13.657184 18.251495
657 0 1 6.161294 -13.466084 19.232803
658 0 1 6.679413 -13.333264 20.021606
659 0 1 7.500214 -13.731183 19.770401
660 0 1 8.325017 -14.036782 20.195007
661 0 1 7.822316 -14.515483 20.796097
662 0 1 7.013913 -14.099282 20.842300
663 0 1 6.768013 -14.911883 20.380402
664 0 1 5.819485 -14.937984 20.318604
665 0 1 5.134064 -15.573083 20.341202
666 0 1 4.524815 -16.185284 19.891205
667 0 1 4.468075 -15.993484 18.940704
668 0 1 5.344532 -16.335882 18.971008
669 0 1 5.917645 -16.247883 19.699097
670 0 1 6.913113 -16.456383 19.761703
671 0 1 6.945515 -17.279383 19.206604
672 0 1 7.741616 -17.594982 19.604095
673 0 1 8.384416 -18.021584 18.918198
674 0 1 7.817814 -17.802582 18.168396
675 0 1 8.666913 -17.549482 17.808105
676 0 1 8.343015 -18.368383 17.391998
677 0 1 9.187314 -18.693983 16.994705
678 0 1 9.034017 -18.116182 16.227005
679 0 1 9.806115 -17.491383 16.287506
680 0 1 10.612416 -17.112583 15.878296
681 0 1 10.128716 -17.282682 15.118195
682 0 1 10.653214 -17.588882 14.366898
683 0 1 10.238015 -18.344282 14.751999
684 0 1 9.408414 -18.653282 15.214798
685 0 1 8.748414 -19.209784 14.784897
686 0 1 7.875813 -18.855383 14.640305
687 0 1 7.090413 -18.845882 15.224106
688 0 1 6.521916 -19.265783 14.533295
689 0 1 6.078793 -18.547983 15.004395
690 0 1 5.196103 -18.714783 14.615295
691 0 1 4.823464 -19.201283 13.880707
692 0 1 5.551556 -19.259684 13.200897
693 0 1 6.345112 -19.786583 12.989700
694 0 1 6.110013 -20.446882 13.582703
695 0 1 6.296643 -21.187983 13.016006
696 0 1 6.833214 -21.783682 13.650604
697 0 1 7.578515 -22.217583 13.147598
698 0 1 7.214512 -21.719883 12.378403
699 0 1 7.934014 -21.143782 12.840103
700 0 1 8.478017 -21.989582 12.633606
701 0 1 8.804715 -22.607582 12.035599
702 0 1 9.526013 -22.356682 12.590103
703 0 1 9.771615 -22.008982 11.744995
704 0 1 10.531014 -22.195782 11.189606
705 0 1 11.387116 -22.095783 10.794006
706 0 1 11.727715 -21.947382 9.897522
707 0 1 11.058316 -22.311983 9.286957
708 0 1 11.416417 -22.804482 8.505783
709 0 1 10.868516 -22.671082 7.672897
710 0 1 11.489915 -22.182281 7.136536
711 0 1 11.587815 -22.734982 6.384109
712 0 1 10.646516 -22.438082 6.297379
713 0 1 9.894616 -22.607082 5.744095
714 0 1 9.703916 -23.558182 5.784927
715 0 1 8.901715 -24.236282 5.638596
716 0 1 8.364614 -25.000582 5.263535
717 0 1 8.004315 -25.833782 5.533813
718 0 1 7.936017 -25.789482 4.597885
719 0 1 7.789113 -25.351482 3.732956
720 0 1 8.607316 -25.150883 3.202957
721 0 1 8.605313 -24.368782 2.637390
722 0 1 7.690915 -24.737082 2.741684
723 0 1 7.033513 -25.496983 2.758392
724 0 1 6.638417 -25.972082 3.421387
725 0 1 5.736645 -26.250683 2.980347
726 0 1 5.851635 -27.095383 3.360046
727 0 1 5.840935 -27.872082 2.781143
728 0 1 5.199006 -28.027483 2.137527
729 0 1 4.230496 -28.403782 2.109344
730 0 1 4.454907 -27.725283 1.517685
731 0 1 4.482064 -27.167883 2.332336
732 0 1 4.229256 -27.069881 3.232697
733 0 1 3.983643 -26.276083 3.747116
734 0 1 3.629075 -25.669983 3.024445
735 0 1 4.593285 -25.532583 2.841400
736 0 1 4.952237 -24.657082 2.830261
737 0 1 4.934914 -23.685781 2.490463
738 0 1 4.965245 -23.308783 1.567352
739 0 1 4.353493 -24.069181 1.405762
740 0 1 5.184315 -24.148783 0.960205
741 0 1 5.461846 -25.006882 0.641403
742 0 1 6.333516 -25.220982 0.366531
743 0 1 7.006115 -24.672182 -0.142151
744 0 1 7.165013 -24.394682 -1.043900
745 0 1 6.832516 -23.594183 -1.428116
746 0 1 7.224217 -22.711283 -1.589737
747 0 1 7.658715 -21.831081 -1.564194
748 0 1 7.498616 -21.184082 -2.279099
749 0 1 8.403916 -20.983582 -2.483307
750 0 1 8.482114 -21.951382 -2.347122
751 0 1 8.791215 -21.563683 -3.213516
752 0 1 8.839414 -20.710482 -3.662170
753 0 1 8.399114 -19.989782 -3.189835
754 0 1 8.243215 -19.486282 -2.402283
755 0 1 7.342915 -19.305782 -2.321823
756 0 1 7.146313 -18.324482 -2.317871
757 0 1 6.605313 -17.665482 -1.832535
758 0 1 6.883015 -16.714182 -1.722305
759 0 1 6.894913 -15.856383 -2.185379
760 0 1 7.846615 -16.102081 -2.451797
761 0 1 7.962914 -15.720883 -1.630508
762 0 1 7.378815 -14.977183 -1.725479
763 0 1 7.076516 -14.259084 -1.167435
764 0 1 7.418812 -13.385015 -1.198807
765 0 1 7.469616 -12.504443 -1.006302
766 0 1 7.254612 -11.884953 -1.668015
767 0 1 6.932515 -10.966113 -2.032654
768 0 1 7.395314 -10.066213 -2.055374
769 0 1 7.669014 -9.216723 -2.429153
770 0 1 7.299515 -8.318673 -2.365814
771 0 1 7.041417 -7.522714 -1.981644
772 0 1 7.382714 -6.755313 -2.395447
773 0 1 8.100816 -6.390412 -1.724792
774 0 1 8.189515 -6.879834 -0.918396
775 0 1 8.781514 -6.750484 -0.233658
776 0 1 9.206517 -6.164683 0.356064
777 0 1 9.035615 -5.368243 0.870163
778 0 1 8.389115 -5.394423 0.221374
779 0 1 8.961915 -5.428353 -0.516327
780 0 1 9.805516 -5.199803 -0.105164
781 0 1 10.356114 -4.879033 0.597687
782 0 1 10.954816 -5.367484 -0.043549
783 0 1 10.888215 -4.937974 -0.977539
784 0 1 10.508416 -4.171525 -1.450287
785 0 1 10.081414 -4.560834 -2.255005
786 0 1 9.996114 -3.683591 -2.640762
787 0 1 10.090814 -4.034968 -3.511414
788 0 1 10.931016 -4.384389 -3.733337
789 0 1 10.984014 -3.512603 -4.229675
790 0 1 10.924214 -3.197541 -5.145172
791 0 1 11.698613 -2.884721 -5.591797
792 0 1 11.224015 -3.106246 -6.340897
793 0 1 10.774014 -2.249413 -6.539825
794 0 1 10.646916 -1.933673 -7.484772
795 0 1 11.175214 -2.383374 -8.132553
796 0 1 11.349114 -1.586453 -8.586014
797 0 1 11.048215 -1.143464 -9.490356
798 0 1 10.147214 -0.856263 -9.547913
799 0 1 9.713014 -0.006833 -9.285690
800 0 1 8.883416 -0.315984 -9.759537