LAMMPS data file via MDAnalysis

        2000  atoms
        1999  bonds
           0  angles
           0  dihedrals
           0  impropers

           1  atom types
           1  bond types
           0  angle types
           0  dihedral types
           0  improper types

-30.5 30.5 xlo xhi
-30.5 30.5 ylo yhi
-233.5 233.5 zlo zhi


Masses

1 1.000000

Atoms

1 0 1 -23.317648 8.627881 -18.148300
2 0 1 -23.047850 7.781170 -18.372498
3 0 1 -22.443249 7.376061 -17.802505
4 0 1 -21.732550 7.710770 -18.368805
5 0 1 -21.364349 7.628392 -17.460693
6 0 1 -21.021849 7.008042 -18.128403
7 0 1 -20.068649 6.966092 -18.204407
8 0 1 -19.157949 6.969830 -18.555496
9 0 1 -18.733549 6.626759 -19.347107
10 0 1 -17.831549 7.127320 -19.509903
11 0 1 -17.097250 6.650452 -20.003906
12 0 1 -17.162249 6.295540 -20.871796
13 0 1 -16.318249 6.394139 -21.373505
14 0 1 -15.863350 6.334530 -20.521103
15 0 1 -15.297649 7.058022 -20.241608
16 0 1 -14.830448 6.256550 -20.176498
17 0 1 -14.519848 5.462571 -19.742599
18 0 1 -13.767048 5.818051 -19.342102
19 0 1 -13.127748 6.561249 -19.218506
20 0 1 -13.555347 6.240773 -18.335403
21 0 1 -14.046848 5.400429 -18.287399
22 0 1 -14.583050 4.662682 -18.580505
23 0 1 -14.549049 4.391922 -17.623108
24 0 1 -14.525148 4.584141 -16.724396
25 0 1 -13.971050 3.836632 -16.886505
26 0 1 -13.329649 4.313042 -16.442993
27 0 1 -12.634449 4.975800 -16.604294
28 0 1 -11.879650 5.419140 -17.086792
29 0 1 -11.099770 5.504620 -16.588394
30 0 1 -11.444899 6.376290 -16.691406
31 0 1 -11.739880 7.072480 -16.118301
32 0 1 -12.556248 7.674809 -16.269104
33 0 1 -12.558449 7.241311 -17.134094
34 0 1 -13.330948 7.046429 -17.697495
35 0 1 -13.946548 7.725251 -18.018997
36 0 1 -14.079248 8.582742 -18.517593
37 0 1 -13.914150 9.213410 -19.204498
38 0 1 -14.041748 10.075009 -19.480194
39 0 1 -13.709349 10.998013 -19.322296
40 0 1 -12.944748 10.703214 -18.781204
41 0 1 -13.378448 10.745511 -17.877594
42 0 1 -14.151049 10.939912 -18.433701
43 0 1 -14.724449 11.418111 -17.854401
44 0 1 -14.982750 11.811810 -17.004105
45 0 1 -14.200348 12.425611 -16.811600
46 0 1 -13.447449 12.967912 -17.094803
47 0 1 -12.447649 12.764710 -16.870499
48 0 1 -11.772930 13.180211 -17.462296
49 0 1 -11.262100 13.047311 -18.296402
50 0 1 -11.473259 12.125409 -18.167908
51 0 1 -11.112988 11.296109 -17.907196
52 0 1 -11.749578 10.681012 -17.631500
53 0 1 -11.308208 9.853311 -17.948898
54 0 1 -11.709820 9.169209 -17.357498
55 0 1 -12.269638 9.543714 -16.659302
56 0 1 -12.978050 8.916333 -16.558594
57 0 1 -13.809649 8.426362 -16.733002
58 0 1 -13.720749 8.403543 -15.750900
59 0 1 -13.876247 7.450222 -15.918396
60 0 1 -14.382648 6.876599 -16.361496
61 0 1 -14.433750 5.924271 -16.494797
62 0 1 -13.735149 5.633511 -15.914795
63 0 1 -14.423149 5.347191 -15.358307
64 0 1 -14.244247 5.287652 -14.405594
65 0 1 -15.158449 5.584801 -14.071503
66 0 1 -14.983749 6.344521 -14.588898
67 0 1 -14.523649 6.897000 -13.879395
68 0 1 -13.987148 6.728673 -13.140503
69 0 1 -13.143749 7.133183 -12.982300
70 0 1 -12.457048 7.261883 -12.320892
71 0 1 -12.342529 8.206323 -12.294006
72 0 1 -12.518349 8.488851 -11.348999
73 0 1 -13.241049 7.955342 -10.874695
74 0 1 -13.905249 7.553460 -10.307007
75 0 1 -14.519548 7.079281 -9.706131
76 0 1 -14.787649 7.401593 -8.805603
77 0 1 -15.107548 7.436242 -7.896820
78 0 1 -15.314949 7.950100 -7.063507
79 0 1 -16.068649 8.287343 -6.646942
80 0 1 -15.273548 8.911260 -6.613754
81 0 1 -15.906948 9.109731 -5.832763
82 0 1 -16.211548 8.353730 -5.274963
83 0 1 -17.143148 8.621602 -5.460266
84 0 1 -17.156649 8.521520 -4.497055
85 0 1 -17.199150 7.609692 -4.740936
86 0 1 -16.779949 7.277962 -5.525695
87 0 1 -16.791050 6.408001 -5.967163
88 0 1 -15.866749 6.717499 -6.091873
89 0 1 -15.374649 5.923222 -6.274292
90 0 1 -14.936550 5.084782 -6.023818
91 0 1 -15.085548 4.384770 -5.316421
92 0 1 -14.892849 3.477513 -5.436386
93 0 1 -15.808548 3.278672 -5.625625
94 0 1 -15.789249 2.390580 -5.458023
95 0 1 -16.218849 2.174363 -6.267334
96 0 1 -17.198050 2.104832 -5.976135
97 0 1 -16.836449 2.939431 -5.640975
98 0 1 -16.494749 3.117882 -4.722427
99 0 1 -17.166449 3.489941 -4.139236
100 0 1 -17.296349 4.265469 -3.676193
101 0 1 -17.108049 4.509011 -2.728271
102 0 1 -16.508648 4.205941 -2.060546
103 0 1 -16.528648 4.543919 -1.222152
104 0 1 -16.202148 4.181611 -0.320892
105 0 1 -16.545048 4.479161 0.519364
106 0 1 -17.145750 3.877991 0.095551
107 0 1 -17.518148 4.758999 0.154084
108 0 1 -17.155149 5.416481 -0.509719
109 0 1 -16.483250 6.101212 -0.737030
110 0 1 -15.593750 6.426560 -0.859787
111 0 1 -16.215149 7.073472 -1.384353
112 0 1 -16.861349 7.735852 -1.466476
113 0 1 -16.973650 8.567452 -1.010269
114 0 1 -17.763649 8.810750 -1.468505
115 0 1 -18.084549 8.616162 -0.608596
116 0 1 -17.985550 8.698270 0.299241
117 0 1 -18.790749 8.215722 0.198243
118 0 1 -19.079048 7.295002 0.173890
119 0 1 -18.771149 7.322350 -0.734756
120 0 1 -19.597448 7.915310 -0.850646
121 0 1 -20.151850 8.161492 -0.083953
122 0 1 -20.374048 8.759030 -0.752502
123 0 1 -21.046549 9.001283 -1.384048
124 0 1 -21.567249 8.481442 -2.056747
125 0 1 -22.002949 9.165509 -2.764572
126 0 1 -22.507549 8.994401 -1.973541
127 0 1 -22.224850 9.700212 -1.428192
128 0 1 -22.048449 9.571309 -0.532852
129 0 1 -21.358549 10.290509 -0.596496
130 0 1 -21.406349 10.687612 0.303391
131 0 1 -20.473949 10.527612 0.396576
132 0 1 -20.482248 9.651113 0.064637
133 0 1 -19.644548 9.607610 0.521195
134 0 1 -19.235350 8.810262 0.940018
135 0 1 -18.586748 9.493512 0.877442
136 0 1 -17.810650 9.805913 0.470917
137 0 1 -18.528549 10.478612 0.352265
138 0 1 -19.260550 10.785710 1.001923
139 0 1 -19.977148 10.937612 1.639008
140 0 1 -19.556349 11.833409 1.801026
141 0 1 -19.857948 12.719312 2.079682
142 0 1 -19.797749 13.695413 2.177277
143 0 1 -19.265949 13.354913 2.891465
144 0 1 -18.275349 13.225614 2.847504
145 0 1 -18.281649 13.780412 3.626893
146 0 1 -19.013048 14.270711 3.263733
147 0 1 -19.878748 13.887311 3.472352
148 0 1 -20.722849 14.113313 3.144227
149 0 1 -21.493849 14.602811 3.207154
150 0 1 -21.164949 15.256310 3.822312
151 0 1 -20.491449 15.832410 3.440094
152 0 1 -20.783348 16.713711 3.314606
153 0 1 -20.836649 17.153408 4.140778
154 0 1 -20.164148 17.626713 4.739655
155 0 1 -20.125149 18.109810 3.890259
156 0 1 -19.551048 17.369911 3.719803
157 0 1 -18.640549 17.684208 3.872834
158 0 1 -18.688349 16.668713 3.831421
159 0 1 -17.808649 16.463810 3.588791
160 0 1 -17.396648 17.236912 3.278473
161 0 1 -16.973049 17.561108 4.024354
162 0 1 -16.517849 16.747013 3.858765
163 0 1 -16.542950 16.882511 4.798722
164 0 1 -15.891148 16.346611 5.293732
165 0 1 -16.098148 15.376912 5.405411
166 0 1 -15.662548 14.704110 6.020722
167 0 1 -15.049149 15.528813 6.063035
168 0 1 -14.879848 14.726613 6.711457
169 0 1 -15.115650 13.804811 6.779587
170 0 1 -14.499149 13.107511 6.968262
171 0 1 -13.711750 12.735913 6.529999
172 0 1 -14.027748 11.841710 6.747406
173 0 1 -13.947548 12.347409 7.585007
174 0 1 -12.962948 12.164613 7.531327
175 0 1 -12.063339 12.414712 7.592774
176 0 1 -11.355198 11.921311 7.148285
177 0 1 -10.787909 12.101411 7.938767
178 0 1 -10.671818 13.062112 7.781647
179 0 1 -10.334089 12.683511 8.606201
180 0 1 -9.539579 12.175511 8.882736
181 0 1 -8.761669 11.982312 9.434738
182 0 1 -8.623859 11.094609 9.620621
183 0 1 -8.753069 10.452809 8.829224
184 0 1 -8.169819 9.836110 9.206375
185 0 1 -7.289069 9.418714 9.114182
186 0 1 -7.127549 8.630651 9.646637
187 0 1 -7.025769 8.437650 10.595596
188 0 1 -6.496600 8.215199 11.345596
189 0 1 -6.483899 8.149381 12.281799
190 0 1 -6.957919 7.502491 12.826096
191 0 1 -7.240368 8.288472 13.264206
192 0 1 -7.886239 8.734612 12.575394
193 0 1 -8.622688 9.017819 11.987106
194 0 1 -9.347229 8.583432 11.574799
195 0 1 -9.618559 8.216023 12.378494
196 0 1 -9.187099 8.217271 13.273499
197 0 1 -8.975679 8.263223 14.199493
198 0 1 -9.750729 8.812642 14.031906
199 0 1 -10.132599 9.316712 14.893097
200 0 1 -9.663279 8.614331 15.337296
201 0 1 -10.350998 8.030702 15.475708
202 0 1 -11.291538 8.376050 15.410004
203 0 1 -11.449509 7.720871 14.733093
204 0 1 -11.000978 7.397789 13.958801
205 0 1 -10.047579 7.268902 13.945694
206 0 1 -10.469448 6.727570 14.623901
207 0 1 -10.686069 7.081563 15.522003
208 0 1 -11.268158 6.615830 16.120102
209 0 1 -11.256020 5.930481 15.443298
210 0 1 -11.176678 5.345562 14.660294
211 0 1 -11.433168 5.065381 13.737701
212 0 1 -11.450027 5.862511 13.222702
213 0 1 -10.803478 5.285172 12.723297
214 0 1 -10.739929 4.402482 12.404602
215 0 1 -10.802410 4.021229 13.325394
216 0 1 -11.784698 3.945931 13.348495
217 0 1 -12.454948 3.790230 14.103500
218 0 1 -12.055729 3.000042 13.833603
219 0 1 -11.236488 2.884831 14.362900
220 0 1 -11.933119 2.665223 15.060303
221 0 1 -12.222198 1.908990 14.570404
222 0 1 -11.832699 1.913560 13.720306
223 0 1 -10.961967 1.627751 13.325394
224 0 1 -10.678249 2.474740 12.909103
225 0 1 -10.296829 3.338532 12.737396
226 0 1 -9.607409 2.783501 13.016205
227 0 1 -8.713018 2.479870 13.309601
228 0 1 -8.328770 2.206650 14.113602
229 0 1 -8.865490 2.366871 14.890305
230 0 1 -9.358629 3.139061 15.220093
231 0 1 -9.783810 3.815732 14.679306
232 0 1 -9.023989 4.256150 14.337494
233 0 1 -9.273319 5.059239 14.716797
234 0 1 -8.713820 5.500832 14.075500
235 0 1 -8.803888 6.045220 14.814697
236 0 1 -7.896828 5.973641 15.276001
237 0 1 -8.338570 5.527810 15.981903
238 0 1 -7.496699 5.399380 16.453400
239 0 1 -7.023459 5.913582 15.862503
240 0 1 -6.403550 5.525490 16.472504
241 0 1 -5.899840 4.903340 17.021805
242 0 1 -6.157000 5.145260 17.920502
243 0 1 -5.210780 5.190129 17.721802
244 0 1 -4.933060 6.179341 17.812500
245 0 1 -5.188269 6.619870 18.570206
246 0 1 -5.003569 5.780221 19.003906
247 0 1 -4.155909 6.213780 19.098694
248 0 1 -4.107829 6.938389 19.761902
249 0 1 -3.475970 7.604451 19.908203
250 0 1 -2.650061 7.212452 19.581497
251 0 1 -2.439900 6.397652 20.049194
252 0 1 -1.543181 6.503239 20.336105
253 0 1 -1.335619 6.443810 21.264603
254 0 1 -1.755490 7.359921 21.165298
255 0 1 -1.885434 8.042439 20.448395
256 0 1 -1.368985 8.734483 20.983902
257 0 1 -1.743069 9.570611 20.770203
258 0 1 -1.285790 10.348210 20.569092
259 0 1 -1.426749 11.276612 20.401596
260 0 1 -0.547341 11.145909 20.543701
261 0 1 -0.302990 10.857511 19.654907
262 0 1 -0.609311 10.832913 18.659500
263 0 1 -0.934340 11.589711 18.177307
264 0 1 -0.759720 12.500310 18.245605
265 0 1 -1.510716 12.952111 17.859192
266 0 1 -1.920901 13.776612 17.553406
267 0 1 -1.545769 13.995214 18.407806
268 0 1 -1.873976 13.160710 18.777496
269 0 1 -2.101603 12.346513 19.183899
270 0 1 -2.204985 11.472512 18.737793
271 0 1 -2.981135 11.857213 18.348099
272 0 1 -3.537749 12.106011 19.035904
273 0 1 -4.126530 11.874810 19.821899
274 0 1 -3.856440 10.989713 19.996994
275 0 1 -3.563460 10.573613 20.885300
276 0 1 -2.794371 11.109612 20.632996
277 0 1 -2.223452 11.815312 20.869507
278 0 1 -1.636023 12.505010 20.863098
279 0 1 -2.249506 12.561910 21.597992
280 0 1 -1.703192 12.447614 22.354004
281 0 1 -1.924246 12.658910 23.286194
282 0 1 -1.206410 12.464311 23.902313
283 0 1 -1.019740 11.701711 24.432098
284 0 1 -1.645029 12.235612 24.946991
285 0 1 -2.041377 13.057210 25.283600
286 0 1 -2.508296 12.622010 25.937592
287 0 1 -1.751763 13.050611 26.411499
288 0 1 -2.169278 13.848512 26.290100
289 0 1 -2.930468 13.736512 25.614014
290 0 1 -3.589839 14.171010 26.118103
291 0 1 -3.028851 14.796910 25.666199
292 0 1 -3.494589 14.928311 24.812592
293 0 1 -3.189023 14.434911 23.934296
294 0 1 -3.811200 13.980313 24.518311
295 0 1 -3.539540 12.956212 24.459686
296 0 1 -3.049086 13.060010 23.572998
297 0 1 -3.012948 12.188111 23.979706
298 0 1 -3.627179 11.984311 23.285309
299 0 1 -3.406220 11.811513 22.353195
300 0 1 -3.389679 12.785810 22.489304
301 0 1 -4.239230 13.258111 22.709106
302 0 1 -4.839259 12.570912 23.064789
303 0 1 -5.386830 12.534112 23.957214
304 0 1 -5.777249 11.771710 23.505707
305 0 1 -5.899859 11.565610 24.521393
306 0 1 -6.263409 12.222112 25.165100
307 0 1 -6.057400 12.693311 25.994293
308 0 1 -5.115569 12.699613 26.242188
309 0 1 -4.960570 11.797711 26.544495
310 0 1 -4.401030 11.927712 27.291412
311 0 1 -3.895230 11.126714 27.339691
312 0 1 -3.371039 10.350312 27.201111
313 0 1 -2.600922 9.721513 27.240204
314 0 1 -2.492611 9.405911 28.209412
315 0 1 -3.162205 8.808133 28.427185
316 0 1 -2.591387 8.468671 27.678589
317 0 1 -1.678332 8.880311 27.805908
318 0 1 -1.850912 7.931813 28.010895
319 0 1 -0.948429 7.896321 28.348206
320 0 1 -1.562580 7.831791 29.102997
321 0 1 -2.468602 7.511883 29.129395
322 0 1 -3.053996 8.184060 29.404999
323 0 1 -3.313557 7.564862 30.038086
324 0 1 -3.279780 7.296429 30.946411
325 0 1 -2.332957 7.177132 30.679810
326 0 1 -1.693505 6.901162 31.322998
327 0 1 -1.619126 6.581471 32.213104
328 0 1 -1.562266 6.876782 33.108093
329 0 1 -1.448733 7.815022 32.840302
330 0 1 -2.241141 7.863442 32.388611
331 0 1 -2.751191 8.606141 32.651001
332 0 1 -3.658259 8.195073 32.681702
333 0 1 -4.558869 8.116384 32.447296
334 0 1 -4.685130 8.977712 32.855896
335 0 1 -5.298958 8.425851 33.317505
336 0 1 -6.161690 8.717191 33.622803
337 0 1 -5.876879 9.770112 33.507385
338 0 1 -4.981160 9.989812 33.936401
339 0 1 -4.725119 10.784612 34.469513
340 0 1 -4.619250 11.681211 34.705109
341 0 1 -4.302578 11.753613 33.756409
342 0 1 -4.219399 12.727113 33.980194
343 0 1 -3.875319 13.317113 34.658386
344 0 1 -3.083924 12.702210 34.850800
345 0 1 -3.791180 12.146211 35.169617
346 0 1 -3.380469 11.679914 34.467804
347 0 1 -2.778771 10.926812 34.387695
348 0 1 -3.018698 10.144910 34.881592
349 0 1 -2.612313 10.381310 35.782898
350 0 1 -2.278832 11.238011 35.908813
351 0 1 -1.544600 10.966710 35.335815
352 0 1 -0.976519 11.139512 34.514313
353 0 1 -0.094799 10.751714 34.261993
354 0 1 0.477600 10.075810 33.894897
355 0 1 0.907711 9.278512 33.594513
356 0 1 1.711681 8.662610 33.556000
357 0 1 2.312171 9.272210 33.898102
358 0 1 2.061420 9.952512 34.506287
359 0 1 2.288902 10.812810 34.642303
360 0 1 3.259029 10.887914 34.785309
361 0 1 3.812080 10.863313 34.006989
362 0 1 3.816570 10.066010 34.555603
363 0 1 4.522541 10.056012 33.894897
364 0 1 4.455482 9.190312 34.373108
365 0 1 4.222431 9.313912 35.343811
366 0 1 4.653442 9.556413 36.169800
367 0 1 4.238639 9.909413 36.973206
368 0 1 3.461891 9.486611 37.300812
369 0 1 2.540752 9.137013 37.144104
370 0 1 1.628521 8.953980 37.365509
371 0 1 1.345359 9.516912 38.067810
372 0 1 1.071510 8.798081 38.601807
373 0 1 0.358871 8.135472 38.640411
374 0 1 1.118473 7.592579 38.958893
375 0 1 1.360252 6.808102 39.569214
376 0 1 1.582782 7.267972 40.457001
377 0 1 0.754749 6.823281 40.616516
378 0 1 0.090671 6.232689 41.041595
379 0 1 -0.548600 5.868851 41.655792
380 0 1 -1.373366 5.867150 41.202515
381 0 1 -2.032885 6.127369 40.557007
382 0 1 -2.681843 5.701031 41.061310
383 0 1 -3.247101 6.299130 41.559906
384 0 1 -2.691323 6.984360 41.950684
385 0 1 -2.337887 7.314991 42.872314
386 0 1 -2.196816 8.219583 43.282196
387 0 1 -1.294339 7.939160 43.220306
388 0 1 -1.401434 8.496320 44.027313
389 0 1 -0.617051 8.610902 44.598083
390 0 1 -1.447705 8.260869 45.041290
391 0 1 -1.215720 7.529423 44.336212
392 0 1 -0.403901 7.159619 44.603607
393 0 1 0.437881 7.146801 44.193695
394 0 1 0.807232 7.131581 45.109406
395 0 1 1.370811 6.753399 45.715607
396 0 1 1.788440 7.286679 45.033295
397 0 1 1.627281 8.073079 44.478516
398 0 1 0.782013 8.404511 44.453613
399 0 1 0.964141 8.196973 45.347687
400 0 1 0.756981 9.067620 45.603302
401 0 1 1.402290 9.491811 46.159393
402 0 1 2.311439 9.925511 46.157288
403 0 1 2.455722 10.247411 45.291290
404 0 1 2.310710 11.031613 45.899811
405 0 1 2.327320 10.836209 46.908508
406 0 1 1.545513 10.492810 47.434601
407 0 1 2.436431 10.527513 47.867401
408 0 1 2.662860 9.718011 48.455505
409 0 1 3.492042 9.228112 48.256287
410 0 1 3.061641 8.512231 47.710602
411 0 1 2.504161 8.381711 48.491913
412 0 1 2.647129 7.399010 48.594604
413 0 1 2.792869 7.330632 49.543488
414 0 1 1.838832 7.194111 49.261993
415 0 1 1.438011 6.715172 48.592407
416 0 1 1.405281 6.841061 47.647705
417 0 1 1.806682 7.228821 46.778809
418 0 1 2.726459 6.843609 46.528992
419 0 1 3.372329 6.540432 45.861694
420 0 1 3.083080 5.721772 45.289612
421 0 1 3.778541 6.056782 44.740112
422 0 1 3.882690 5.089791 44.948792
423 0 1 3.839271 4.900723 45.866211
424 0 1 4.142280 4.427132 46.618286
425 0 1 4.834102 4.871880 46.217804
426 0 1 5.228141 5.665131 46.525787
427 0 1 5.412422 6.356961 47.173309
428 0 1 5.974979 6.936543 47.651703
429 0 1 6.802970 7.197209 47.252411
430 0 1 6.718490 8.111943 47.241394
431 0 1 6.588489 9.007001 47.583710
432 0 1 7.270912 9.667413 47.908600
433 0 1 7.974651 9.872811 48.655609
434 0 1 7.520141 9.060582 48.835693
435 0 1 6.858562 9.749211 49.114899
436 0 1 6.943191 10.457612 49.689392
437 0 1 5.996940 10.256909 49.861511
438 0 1 5.448661 10.240712 48.986603
439 0 1 5.481342 11.084710 49.516602
440 0 1 4.920661 11.293111 48.790802
441 0 1 4.624290 11.787911 48.068390
442 0 1 4.235790 12.158410 47.238586
443 0 1 3.870319 11.342610 47.293488
444 0 1 4.312141 10.866410 46.587585
445 0 1 4.788021 10.177609 46.041199
446 0 1 5.240272 10.022313 46.916504
447 0 1 4.245941 9.884610 47.019592
448 0 1 3.763679 9.164613 46.669708
449 0 1 4.698230 8.820531 46.770599
450 0 1 5.071212 8.165902 47.427002
451 0 1 5.001209 8.807530 48.159088
452 0 1 5.140132 8.398374 49.029510
453 0 1 5.594741 8.974652 49.667389
454 0 1 6.055683 8.176190 50.110992
455 0 1 7.025089 8.459031 50.229401
456 0 1 7.561031 9.264211 50.042297
457 0 1 8.245651 9.047891 50.699097
458 0 1 8.170250 10.002812 50.979706
459 0 1 7.542308 10.687211 50.817017
460 0 1 6.611660 10.596810 51.033813
461 0 1 5.669700 10.446813 51.188202
462 0 1 5.775142 11.294412 51.633698
463 0 1 5.055282 11.744512 51.176910
464 0 1 4.581020 10.905610 51.135986
465 0 1 4.816261 11.134610 52.015106
466 0 1 3.971900 11.017011 52.453888
467 0 1 4.023719 11.984612 52.404205
468 0 1 3.470771 11.687810 53.118500
469 0 1 2.580860 11.959310 53.302704
470 0 1 3.161449 12.572812 53.718506
471 0 1 3.047821 13.388310 54.164490
472 0 1 2.173152 13.620313 54.581696
473 0 1 1.471302 12.979310 54.469910
474 0 1 0.574600 12.887410 54.726807
475 0 1 -0.082817 13.045911 55.468903
476 0 1 0.303192 12.827611 56.366699
477 0 1 0.683372 12.379109 57.144897
478 0 1 -0.194218 12.285012 57.470306
479 0 1 -0.096249 11.373013 57.165894
480 0 1 -0.875309 11.852811 56.852905
481 0 1 -0.633778 12.301911 56.064911
482 0 1 -1.434166 12.647313 55.607300
483 0 1 -1.773089 13.570111 55.618103
484 0 1 -1.852686 14.510011 55.328796
485 0 1 -1.416949 15.188512 54.751007
486 0 1 -1.341179 16.151112 54.949707
487 0 1 -1.837002 16.669209 55.575195
488 0 1 -2.426726 15.914212 55.561310
489 0 1 -2.448552 15.256711 56.254791
490 0 1 -2.504364 16.074810 56.796295
491 0 1 -2.797408 16.354412 57.708496
492 0 1 -3.073725 15.449613 57.660492
493 0 1 -2.638123 14.624410 57.456787
494 0 1 -2.030194 14.314912 58.095398
495 0 1 -2.131003 14.651212 58.968506
496 0 1 -1.963890 14.172811 59.755005
497 0 1 -1.511069 14.773110 60.347992
498 0 1 -2.139233 14.599412 61.021912
499 0 1 -1.882946 13.920712 61.586090
500 0 1 -2.292109 13.291512 61.021301
501 0 1 -3.219679 13.306012 60.656494
502 0 1 -3.992009 12.813012 60.461090
503 0 1 -4.750689 12.628713 61.010406
504 0 1 -4.878809 11.599011 60.848389
505 0 1 -4.500689 11.565709 59.937988
506 0 1 -3.751450 10.942113 59.812988
507 0 1 -4.423489 10.290410 59.919891
508 0 1 -4.417260 9.613812 59.256592
509 0 1 -3.570220 9.583310 59.644989
510 0 1 -3.032177 10.083211 59.088287
511 0 1 -2.811173 10.804711 58.433990
512 0 1 -3.490799 10.218312 58.102783
513 0 1 -3.300261 9.711511 57.281311
514 0 1 -3.797099 9.784909 56.431702
515 0 1 -4.168490 10.481011 55.852295
516 0 1 -3.651749 10.316312 55.069397
517 0 1 -4.060139 9.485711 54.903503
518 0 1 -4.686440 8.721532 54.893616
519 0 1 -5.354559 9.142510 54.370392
520 0 1 -4.953459 8.469361 53.830688
521 0 1 -4.668808 8.454522 52.916504
522 0 1 -5.447520 7.875679 52.694214
523 0 1 -5.375790 7.715199 51.709290
524 0 1 -6.164549 8.287862 51.532501
525 0 1 -7.100399 8.483472 51.285400
526 0 1 -7.096810 8.886182 52.153015
527 0 1 -7.780480 8.751573 52.750397
528 0 1 -7.718939 7.821270 52.914185
529 0 1 -8.354038 7.924340 53.606812
530 0 1 -7.973420 7.953591 54.518494
531 0 1 -7.231169 8.586911 54.348907
532 0 1 -6.869778 9.365811 54.732208
533 0 1 -6.143879 9.999410 54.790192
534 0 1 -6.531819 10.837712 55.262604
535 0 1 -7.235770 11.322812 54.764893
536 0 1 -6.845669 12.012914 55.238403
537 0 1 -7.354689 12.535314 54.539703
538 0 1 -8.005508 12.115411 53.957794
539 0 1 -8.055929 11.175511 54.072388
540 0 1 -8.290178 10.846013 53.175903
541 0 1 -8.728868 11.026811 52.258484
542 0 1 -8.108459 10.303010 52.189697
543 0 1 -9.092350 10.061513 52.243408
544 0 1 -8.552509 9.749711 51.493103
545 0 1 -8.942678 10.671311 51.215088
546 0 1 -9.115768 10.706212 50.230713
547 0 1 -9.051529 10.689012 49.286591
548 0 1 -9.858589 10.915811 48.883911
549 0 1 -10.341198 10.379411 49.511505
550 0 1 -10.847979 9.733212 48.920197
551 0 1 -11.565899 9.364312 48.364014
552 0 1 -12.457649 9.171910 48.403687
553 0 1 -12.672550 8.213513 48.121002
554 0 1 -12.134258 7.411400 47.994385
555 0 1 -11.616709 7.742852 48.788300
556 0 1 -12.142439 8.313691 49.321594
557 0 1 -12.859549 8.833539 49.583099
558 0 1 -13.673449 8.526032 49.910004
559 0 1 -14.117748 7.813591 50.433197
560 0 1 -13.908649 7.872071 51.424500
561 0 1 -14.449348 7.192101 51.808105
562 0 1 -14.471748 6.339852 52.339813
563 0 1 -15.041748 7.015572 52.689301
564 0 1 -15.099249 6.748482 53.575500
565 0 1 -14.212448 7.092740 53.658112
566 0 1 -13.361349 6.825970 53.175293
567 0 1 -12.598549 7.387532 53.362213
568 0 1 -11.781448 7.027230 53.709503
569 0 1 -12.442549 6.346722 53.838196
570 0 1 -12.547749 5.623700 54.479401
571 0 1 -13.463848 5.860501 54.739014
572 0 1 -13.538149 4.974392 55.144287
573 0 1 -13.718750 5.341809 55.964508
574 0 1 -14.633348 5.099770 55.816589
575 0 1 -15.493248 5.260243 56.258484
576 0 1 -16.300648 5.621899 56.543304
577 0 1 -16.244749 5.745381 57.505798
578 0 1 -15.764950 5.833043 58.358612
579 0 1 -14.899250 5.602101 57.774902
580 0 1 -14.641249 4.809662 58.288513
581 0 1 -15.198349 5.119362 59.038300
582 0 1 -15.810947 4.548771 58.494904
583 0 1 -16.066750 3.770199 59.047485
584 0 1 -15.381948 3.913792 59.710510
585 0 1 -16.020748 4.122391 60.387512
586 0 1 -16.650650 3.337121 60.330597
587 0 1 -17.560549 3.353180 60.088409
588 0 1 -17.489849 2.697842 60.782715
589 0 1 -18.116650 2.253800 60.200684
590 0 1 -17.522549 1.476220 60.454193
591 0 1 -18.286850 1.723660 61.133911
592 0 1 -18.881248 1.121621 61.583496
593 0 1 -18.641150 0.344460 62.175293
594 0 1 -19.625349 0.431870 62.186890
595 0 1 -19.947748 -0.361902 62.596497
596 0 1 -20.386448 0.291911 63.186188
597 0 1 -20.783449 0.565871 62.330383
598 0 1 -21.640148 0.956452 62.119598
599 0 1 -22.219049 1.480389 61.490112
600 0 1 -21.578650 1.486272 60.768188
601 0 1 -20.699549 1.494023 60.368988
602 0 1 -20.868649 1.714963 59.395691
603 0 1 -20.373650 0.944512 58.983398
604 0 1 -20.957850 0.597272 59.679016
605 0 1 -20.964649 -0.038741 58.869598
606 0 1 -20.120548 0.012536 59.363586
607 0 1 -20.162949 -0.629564 60.049408
608 0 1 -20.557749 -1.463638 60.027893
609 0 1 -20.256248 -2.250839 59.641510
610 0 1 -19.975048 -2.898609 59.023590
611 0 1 -19.670649 -2.160219 58.406494
612 0 1 -19.175249 -2.733219 57.765411
613 0 1 -18.819748 -2.337018 56.894714
614 0 1 -18.739748 -2.515720 55.876495
615 0 1 -17.943748 -2.760978 55.416901
616 0 1 -17.010050 -2.988319 55.115387
617 0 1 -17.202749 -3.569488 54.403290
618 0 1 -17.941549 -4.240169 54.411102
619 0 1 -17.686350 -4.620779 53.587402
620 0 1 -18.303749 -5.342180 53.743988
621 0 1 -19.210949 -5.501800 54.013092
622 0 1 -18.873749 -6.393419 53.621094
623 0 1 -18.894749 -6.249000 52.667603
624 0 1 -19.253849 -7.147048 52.292786
625 0 1 -19.078848 -7.498279 51.411987
626 0 1 -18.868849 -8.353349 51.770996
627 0 1 -18.055849 -8.404449 52.265289
628 0 1 -17.416750 -8.987369 52.673096
629 0 1 -17.255548 -9.895598 52.507294
630 0 1 -17.663349 -10.762958 52.231110
631 0 1 -18.464748 -10.905589 51.669617
632 0 1 -17.797249 -10.834048 50.885712
633 0 1 -18.044449 -11.382089 50.167694
634 0 1 -17.422350 -11.905389 50.675293
635 0 1 -17.473049 -12.907088 50.613892
636 0 1 -16.587849 -13.171689 50.454010
637 0 1 -16.481148 -13.981090 49.858704
638 0 1 -16.794249 -14.130488 50.715393
639 0 1 -16.915249 -14.958789 50.369385
640 0 1 -16.641148 -15.623089 49.755707
641 0 1 -16.972950 -16.548988 49.744995
642 0 1 -16.893049 -17.520489 49.583405
643 0 1 -16.460249 -18.383490 49.260590
644 0 1 -15.874949 -18.387989 48.458893
645 0 1 -15.419548 -18.967089 47.797394
646 0 1 -14.848549 -18.251989 48.117706
647 0 1 -14.696548 -18.378889 47.125000
648 0 1 -14.117050 -19.181290 46.944702
649 0 1 -14.363350 -19.142790 47.896301
650 0 1 -14.822849 -19.884489 48.273895
651 0 1 -15.169350 -20.604090 47.726410
652 0 1 -15.321148 -20.972389 46.875000
653 0 1 -15.224350 -21.876289 46.735901
654 0 1 -14.957449 -22.877289 46.761810
655 0 1 -15.178349 -23.043589 45.824402
656 0 1 -14.441648 -22.424089 45.946716
657 0 1 -14.136148 -22.079689 45.125916
658 0 1 -13.291849 -21.655590 45.283905
659 0 1 -12.543949 -21.039490 44.954895
660 0 1 -12.105789 -21.820690 45.507111
661 0 1 -12.034580 -20.946590 45.902802
662 0 1 -12.184729 -20.173889 46.436096
663 0 1 -11.543030 -19.512390 46.680389
664 0 1 -11.742188 -19.601089 45.709290
665 0 1 -10.992369 -20.267490 45.672791
666 0 1 -10.170399 -19.694090 45.830688
667 0 1 -10.166449 -18.946789 45.194092
668 0 1 -9.529099 -19.632690 44.966492
669 0 1 -9.314808 -20.556890 44.777008
670 0 1 -8.634829 -20.459490 45.394592
671 0 1 -8.103920 -20.049789 44.707214
672 0 1 -7.805359 -20.704889 44.002197
673 0 1 -6.864628 -20.840389 43.706299
674 0 1 -6.632109 -21.694090 43.673187
675 0 1 -7.407639 -21.981890 44.127686
676 0 1 -7.393469 -21.936689 45.121002
677 0 1 -7.224200 -21.798990 46.057098
678 0 1 -7.643990 -21.742390 46.982605
679 0 1 -6.713919 -21.635990 47.163300
680 0 1 -7.118819 -21.211390 47.965912
681 0 1 -6.530869 -21.609089 48.665283
682 0 1 -5.552269 -21.244989 48.606812
683 0 1 -4.738070 -20.773689 48.700104
684 0 1 -4.321219 -21.419489 48.121307
685 0 1 -4.154709 -22.142290 47.476501
686 0 1 -3.648810 -22.821789 46.945587
687 0 1 -3.345026 -22.586290 46.083588
688 0 1 -2.660611 -23.134989 46.394989
689 0 1 -2.596570 -22.367290 46.983704
690 0 1 -2.461459 -22.926291 47.760986
691 0 1 -2.098370 -22.613289 48.576599
692 0 1 -2.833771 -22.152390 48.960907
693 0 1 -2.135945 -21.534889 49.232117
694 0 1 -1.446139 -21.623190 48.597107
695 0 1 -1.207138 -20.975189 49.207306
696 0 1 -1.379282 -20.002489 49.462494
697 0 1 -1.362418 -20.179190 48.536713
698 0 1 -0.418641 -19.858891 48.598907
699 0 1 0.174221 -20.204990 47.919708
700 0 1 0.805080 -19.865490 48.496216
701 0 1 0.235572 -18.989689 48.528290
702 0 1 -0.514458 -18.669090 49.115692
703 0 1 -1.118149 -17.915890 49.139893
704 0 1 -0.567459 -18.003990 49.910492
705 0 1 -0.033028 -17.232090 50.135986
706 0 1 0.768150 -16.542889 50.208099
707 0 1 1.484962 -15.960289 50.299408
708 0 1 0.729049 -15.548689 49.842407
709 0 1 0.135551 -15.081588 49.187592
710 0 1 -0.396099 -14.397388 49.596100
711 0 1 -0.807221 -14.773787 48.789917
712 0 1 -1.193409 -14.321689 48.072388
713 0 1 -0.700680 -14.842689 47.408386
714 0 1 -0.671681 -15.784589 47.314209
715 0 1 0.179702 -15.824188 47.757507
716 0 1 0.005592 -16.573389 48.254211
717 0 1 0.758621 -16.948389 48.614899
718 0 1 1.688762 -16.659889 48.716187
719 0 1 1.515350 -15.768989 48.370697
720 0 1 2.185199 -15.928589 47.729706
721 0 1 2.980201 -16.376490 48.060486
722 0 1 2.872280 -16.996490 47.312897
723 0 1 3.788143 -17.141090 47.516693
724 0 1 4.154541 -16.502588 46.869507
725 0 1 4.978160 -16.760988 46.434692
726 0 1 5.627590 -16.361290 46.966492
727 0 1 6.355052 -16.541189 47.470795
728 0 1 7.088340 -16.012289 47.161987
729 0 1 6.282138 -15.556389 46.942993
730 0 1 6.673313 -14.704089 46.627502
731 0 1 7.402271 -14.036689 46.716797
732 0 1 7.676448 -13.188190 46.256500
733 0 1 7.600429 -12.161988 46.268188
734 0 1 7.640251 -11.389789 46.836792
735 0 1 8.442051 -11.264888 46.279205
736 0 1 9.028652 -11.219188 46.962311
737 0 1 8.880550 -11.967889 47.538086
738 0 1 8.797253 -12.355088 46.699890
739 0 1 9.305950 -12.422790 45.872314
740 0 1 9.488350 -11.774789 45.182098
741 0 1 8.711052 -11.719390 44.584412
742 0 1 9.388653 -11.533988 43.948700
743 0 1 9.157150 -12.032788 43.173706
744 0 1 9.301952 -11.174088 42.708099
745 0 1 9.856750 -10.504680 43.153412
746 0 1 9.913052 -10.724078 44.050598
747 0 1 8.974949 -10.639838 44.275909
748 0 1 7.999252 -10.659808 44.176514
749 0 1 7.902549 -11.245389 43.401794
750 0 1 7.897449 -10.453639 42.887604
751 0 1 8.393551 -10.933389 42.222412
752 0 1 8.354351 -11.839587 41.776398
753 0 1 7.512310 -11.429688 41.791290
754 0 1 6.591709 -11.635489 41.813599
755 0 1 6.475559 -11.303489 40.899811
756 0 1 5.758590 -11.080489 40.378601
757 0 1 6.194992 -10.118487 40.417114
758 0 1 6.277671 -9.873668 39.436890
759 0 1 5.935359 -9.351298 38.668091
760 0 1 6.372402 -9.283399 37.787201
761 0 1 7.186733 -8.862329 37.679993
762 0 1 7.263759 -7.858188 37.587799
763 0 1 7.113140 -7.234458 38.217590
764 0 1 7.115253 -6.545740 38.994904
765 0 1 7.917949 -5.948318 39.030701
766 0 1 8.752850 -6.104509 38.560608
767 0 1 8.506252 -5.775030 37.632904
768 0 1 8.597050 -5.995449 36.639313
769 0 1 8.322250 -5.959819 35.733704
770 0 1 7.616001 -5.194900 35.693604
771 0 1 7.905750 -5.146980 34.731598
772 0 1 7.450031 -6.007049 34.791687
773 0 1 7.702549 -6.798660 34.359802
774 0 1 7.483463 -6.246309 33.573090
775 0 1 8.359249 -6.353759 33.143188
776 0 1 7.784450 -6.395469 32.382385
777 0 1 7.324123 -7.163539 32.015686
778 0 1 7.438152 -7.241060 31.047394
779 0 1 8.393650 -7.119039 30.930389
780 0 1 8.837051 -6.300048 30.862213
781 0 1 9.315750 -5.873079 30.101013
782 0 1 9.232349 -5.712120 29.179596
783 0 1 9.040951 -4.735389 29.377991
784 0 1 8.755451 -3.977109 28.845886
785 0 1 9.384953 -3.734619 29.485291