LAMMPS data file via MDAnalysis

        2000  atoms
        1999  bonds
           0  angles
           0  dihedrals
           0  impropers

           1  atom types
           1  bond types
           0  angle types
           0  dihedral types
           0  improper types

-30.5 30.5 xlo xhi
-30.5 30.5 ylo yhi
-233.5 233.5 zlo zhi


Masses

1 1.000000

Atoms

1 0 1 10.640382 10.472383 58.884491
2 0 1 10.986283 10.923852 59.623688
3 0 1 10.886884 11.367673 60.416992
4 0 1 11.292985 11.715550 61.248505
5 0 1 12.040784 11.510633 61.960907
6 0 1 12.243585 11.137490 62.819611
7 0 1 13.044282 11.649152 62.923889
8 0 1 13.862885 11.693360 63.401184
9 0 1 14.011285 11.161481 62.602692
10 0 1 14.055085 11.701753 61.779602
11 0 1 13.964181 11.424783 60.850189
12 0 1 14.815682 11.011353 60.576416
13 0 1 15.543084 10.454793 60.812988
14 0 1 15.182282 10.026601 61.648315
15 0 1 14.670083 9.821061 60.838409
16 0 1 13.725884 9.691194 61.085999
17 0 1 13.507386 8.965611 60.461212
18 0 1 13.330384 9.253030 59.479309
19 0 1 13.844285 8.349332 59.369110
20 0 1 14.035184 7.424042 59.598999
21 0 1 14.786283 7.664132 60.179199
22 0 1 14.421483 7.288460 61.098907
23 0 1 15.182183 7.446473 61.629700
24 0 1 15.214982 6.572152 61.988800
25 0 1 14.497884 5.952542 61.663300
26 0 1 15.007386 5.982071 60.794098
27 0 1 14.869882 5.055640 60.505493
28 0 1 14.289582 4.315672 60.255615
29 0 1 13.477883 3.849949 60.508606
30 0 1 13.475282 3.088942 59.906403
31 0 1 13.710183 2.509871 59.144714
32 0 1 14.444482 2.068402 58.819092
33 0 1 14.865083 2.146552 59.639709
34 0 1 14.876683 1.245902 59.841309
35 0 1 14.035981 1.030032 60.273895
36 0 1 13.883782 0.150490 60.009308
37 0 1 13.345384 -0.231889 60.759094
38 0 1 13.745584 -0.438320 61.566284
39 0 1 12.797482 -0.344238 61.751587
40 0 1 12.705884 -1.104228 61.275696
41 0 1 13.227784 -1.889858 61.065094
42 0 1 12.770585 -2.707708 60.947601
43 0 1 12.940286 -3.211488 61.694305
44 0 1 12.481084 -3.486938 62.549103
45 0 1 11.571683 -3.793878 62.665894
46 0 1 11.377381 -4.639389 62.096497
47 0 1 11.067285 -5.533689 62.382507
48 0 1 11.196885 -5.306537 63.308807
49 0 1 10.651982 -4.652269 63.758789
50 0 1 10.479981 -5.357759 64.448303
51 0 1 9.973283 -4.611240 64.682098
52 0 1 9.070283 -4.678150 64.910797
53 0 1 9.529984 -4.171838 65.622406
54 0 1 9.726483 -3.231769 65.717010
55 0 1 8.825383 -2.882759 65.958618
56 0 1 8.466882 -1.969728 65.878693
57 0 1 8.627885 -1.082368 65.513184
58 0 1 8.377885 -1.449409 64.653503
59 0 1 8.820283 -2.140918 64.189697
60 0 1 8.407884 -2.949069 63.830811
61 0 1 7.911985 -2.883148 63.002808
62 0 1 8.111184 -3.837799 62.682983
63 0 1 7.442953 -4.330158 62.119507
64 0 1 6.809633 -4.319808 62.907013
65 0 1 6.697675 -5.225719 62.485291
66 0 1 7.254255 -6.122440 62.559113
67 0 1 7.161584 -6.674339 61.777802
68 0 1 7.389375 -5.996639 61.171509
69 0 1 7.704286 -5.267349 60.625397
70 0 1 7.094785 -4.478958 60.655701
71 0 1 6.659673 -4.761299 59.869598
72 0 1 6.716054 -4.969078 58.946991
73 0 1 7.045095 -4.527559 58.156006
74 0 1 7.804384 -4.861179 58.622101
75 0 1 8.766282 -4.955919 58.641113
76 0 1 9.635182 -5.094928 58.909698
77 0 1 9.816785 -5.320568 58.045593
78 0 1 10.389382 -4.665229 57.650513
79 0 1 10.571183 -4.178699 56.847504
80 0 1 9.728284 -3.925807 56.414307
81 0 1 9.877786 -3.171237 55.789612
82 0 1 9.706681 -3.178468 54.824188
83 0 1 9.071382 -3.504158 54.166016
84 0 1 9.163484 -3.713169 53.180695
85 0 1 9.602883 -4.574268 53.175903
86 0 1 9.458085 -4.108598 52.342010
87 0 1 9.505784 -4.041479 51.413605
88 0 1 8.768483 -4.326429 50.868500
89 0 1 8.782784 -3.369388 50.930206
90 0 1 8.006482 -3.728399 51.321503
91 0 1 7.786985 -4.211238 50.422699
92 0 1 7.586385 -3.985637 49.522217
93 0 1 6.722063 -3.576448 49.779694
94 0 1 6.969514 -3.460329 48.823395
95 0 1 7.464414 -3.151428 48.089905
96 0 1 7.058954 -2.887239 47.280884
97 0 1 6.602922 -2.098478 46.939911
98 0 1 6.806665 -1.261339 46.605499
99 0 1 7.002992 -1.548499 45.673187
100 0 1 7.643285 -1.251819 45.005798
101 0 1 7.478326 -1.570478 44.089203
102 0 1 7.691984 -2.322799 43.460907
103 0 1 8.567582 -2.197858 43.684814
104 0 1 8.608083 -2.734119 42.887390
105 0 1 8.108285 -3.602638 42.918793
106 0 1 7.251703 -3.700557 42.584412
107 0 1 7.598382 -3.062818 41.920105
108 0 1 7.888986 -2.857358 40.985413
109 0 1 7.079805 -2.357639 40.903412
110 0 1 6.636316 -3.179199 41.155304
111 0 1 6.190866 -2.893999 40.381989
112 0 1 5.865644 -2.024299 40.217407
113 0 1 6.004663 -1.373948 39.448303
114 0 1 5.660993 -0.562568 38.950012
115 0 1 6.383272 -0.155538 38.375702
116 0 1 6.891672 0.345772 39.017792
117 0 1 7.565286 0.026492 39.669800
118 0 1 7.166685 0.673001 40.283386
119 0 1 7.331125 -0.139518 40.907501
120 0 1 7.795686 0.429091 41.490906
121 0 1 8.219583 1.258181 41.594299
122 0 1 8.132684 1.906262 40.748688
123 0 1 8.553483 2.672451 41.052094
124 0 1 7.610784 2.895741 41.015900
125 0 1 7.920385 2.815392 41.934204
126 0 1 7.187196 2.876582 42.599487
127 0 1 7.391946 2.096741 43.063293
128 0 1 8.152383 2.234202 43.650787
129 0 1 8.112084 1.293772 43.501404
130 0 1 8.053384 0.286431 43.513916
131 0 1 8.488683 -0.458928 43.973907
132 0 1 9.285981 -0.199159 43.429016
133 0 1 8.817185 0.034642 42.571289
134 0 1 8.394483 0.834031 42.524994
135 0 1 8.890885 1.589621 42.842102
136 0 1 9.278886 2.447991 42.621094
137 0 1 10.108285 2.977461 42.767700
138 0 1 10.989282 2.793681 42.654388
139 0 1 11.488984 2.115441 43.166504
140 0 1 11.170583 1.983702 44.139587
141 0 1 10.165685 2.119742 43.938812
142 0 1 9.464883 1.424492 43.901794
143 0 1 10.236585 0.740351 43.788910
144 0 1 10.215981 1.152432 44.624084
145 0 1 10.495385 1.991622 45.028992
146 0 1 11.102983 1.227362 45.166687
147 0 1 11.857083 1.563122 45.674805
148 0 1 12.733186 1.596242 46.056396
149 0 1 13.637383 1.846432 45.621216
150 0 1 13.679383 0.936402 45.929199
151 0 1 13.598283 1.215132 46.828186
152 0 1 14.156381 1.992272 46.832092
153 0 1 14.602784 1.345641 47.505493
154 0 1 14.790986 2.082251 48.148315
155 0 1 15.700685 2.238211 48.384003
156 0 1 16.321383 2.149352 47.551697
157 0 1 15.576486 2.495821 47.074890
158 0 1 16.173082 2.397662 46.368011
159 0 1 15.852586 3.018912 45.681305
160 0 1 15.257485 3.776833 45.757996
161 0 1 16.069986 4.304163 45.688110
162 0 1 16.639185 4.563481 46.369812
163 0 1 17.397486 3.975209 46.498596
164 0 1 17.960085 3.284081 46.872009
165 0 1 18.893385 3.406807 47.033600
166 0 1 19.191286 4.177027 47.614288
167 0 1 18.415384 4.608948 47.937195
168 0 1 18.503885 4.987618 46.993011
169 0 1 18.743387 5.247317 46.118805
170 0 1 19.728586 5.459691 46.149292
171 0 1 20.385386 5.855732 45.460083
172 0 1 20.477385 5.004317 45.005798
173 0 1 20.775084 5.511181 44.229004
174 0 1 21.640985 5.862092 44.605194
175 0 1 21.371084 6.401032 43.890289
176 0 1 21.369783 6.944443 43.151703
177 0 1 22.162783 7.555809 43.378204
178 0 1 21.553186 8.237401 43.142395
179 0 1 21.767084 8.439271 42.257812
180 0 1 21.881685 8.577050 41.342499
181 0 1 22.383184 9.267903 40.784698
182 0 1 21.784285 9.979203 40.599304
183 0 1 20.802984 9.985784 40.455811
184 0 1 20.411283 9.367501 39.810211
185 0 1 19.666887 10.053651 39.593903
186 0 1 19.897085 10.310811 38.723816
187 0 1 19.099283 10.432851 38.235596
188 0 1 18.371187 10.223001 37.666595
189 0 1 18.924082 10.762704 37.088196
190 0 1 18.721682 11.583753 36.691498
191 0 1 17.820684 11.976953 36.673187
192 0 1 17.300585 11.217633 36.985596
193 0 1 16.828684 11.902894 37.406189
194 0 1 16.626284 12.544492 38.094696
195 0 1 16.430285 13.042241 38.915283
196 0 1 15.508183 12.630250 38.644501
197 0 1 15.503282 11.615033 38.628998
198 0 1 14.896981 11.362103 37.900208
199 0 1 14.366483 11.654172 38.605103
200 0 1 14.038384 12.411672 38.161591
201 0 1 13.162084 12.582261 38.530212
202 0 1 13.625482 12.225533 39.320984
203 0 1 14.447183 12.444833 39.655609
204 0 1 14.035081 13.034081 40.266296
205 0 1 13.144586 13.400804 40.589996
206 0 1 12.985986 13.798890 41.411316
207 0 1 12.831285 14.703462 41.276489
208 0 1 12.127984 14.853261 40.631195
209 0 1 12.098783 13.873223 40.476196
210 0 1 11.422482 13.859582 39.735687
211 0 1 10.575982 13.274041 39.692902
212 0 1 10.043084 12.888314 40.370789
213 0 1 9.426984 12.206483 40.647888
214 0 1 9.400784 12.793843 41.331116
215 0 1 10.046082 13.421800 41.724213
216 0 1 10.776185 12.916741 41.987488
217 0 1 10.262185 13.060491 42.785797
218 0 1 9.598584 12.737973 43.345612
219 0 1 9.875085 13.180692 44.165009
220 0 1 9.916581 12.499223 44.827209
221 0 1 9.896783 12.359361 45.728516
222 0 1 9.971986 13.227452 46.072998
223 0 1 10.165685 14.143731 46.373199
224 0 1 9.473886 14.539460 46.923492
225 0 1 9.788484 14.597764 47.856598
226 0 1 9.181085 15.089261 48.369598
227 0 1 8.605386 15.781461 48.204895
228 0 1 8.675183 16.758461 48.029999
229 0 1 9.335584 16.434361 48.686188
230 0 1 9.298882 17.370659 48.990997
231 0 1 10.138986 17.762863 48.703613
232 0 1 10.503182 17.869560 47.842102
233 0 1 11.382283 17.981461 48.194794
234 0 1 11.184686 18.769260 48.819794
235 0 1 11.056481 19.650963 48.518188
236 0 1 11.559583 19.404259 47.747101
237 0 1 10.808785 19.534859 47.227203
238 0 1 10.757283 20.069061 46.445007
239 0 1 9.908784 20.397163 46.869507
240 0 1 9.529183 21.214462 46.531097
241 0 1 9.463284 20.993858 45.609100
242 0 1 10.100984 21.710861 45.722809
243 0 1 10.660485 22.507858 45.568695
244 0 1 11.586183 22.596458 45.276611
245 0 1 11.932683 21.712563 45.525787
246 0 1 12.413983 21.032661 46.067505
247 0 1 12.258985 20.155663 46.359406
248 0 1 13.223985 20.080761 46.010315
249 0 1 12.866082 19.215759 46.106995
250 0 1 12.342584 18.777462 46.842987
251 0 1 12.272283 17.889061 46.690399
252 0 1 12.576486 17.000961 47.087799
253 0 1 13.425282 16.954262 47.531189
254 0 1 13.931584 17.235359 48.359406
255 0 1 14.108781 17.994759 48.977509
256 0 1 14.415883 18.876862 49.011688
257 0 1 14.827485 18.337563 49.651398
258 0 1 14.088181 17.881859 50.012390
259 0 1 13.880181 17.074860 50.525208
260 0 1 13.374581 16.586662 49.942505
261 0 1 13.669183 15.828763 50.450104
262 0 1 12.849984 15.620164 50.732605
263 0 1 12.203183 16.163559 51.217712
264 0 1 12.766484 16.985359 51.149597
265 0 1 13.175683 17.039360 51.986908
266 0 1 12.794282 16.658859 52.749603
267 0 1 13.419282 16.034462 53.001892
268 0 1 13.764482 16.613060 53.670715
269 0 1 13.220483 16.054062 54.303192
270 0 1 12.472985 16.570763 54.595398
271 0 1 11.643983 17.029461 54.740906
272 0 1 11.038983 17.848663 54.921204
273 0 1 10.260682 18.357662 54.963196
274 0 1 10.474584 18.641861 55.818512
275 0 1 10.927781 19.397961 55.401489
276 0 1 11.734681 19.426460 54.834290
277 0 1 11.912885 19.904362 53.977600
278 0 1 12.116784 20.639061 53.376709
279 0 1 11.634885 21.266060 52.819794
280 0 1 10.790582 20.786461 53.071106
281 0 1 9.845784 20.673561 53.426086
282 0 1 10.237283 21.316162 54.048096
283 0 1 10.444383 21.733662 53.210815
284 0 1 9.942681 22.122963 52.467712
285 0 1 8.968984 22.508362 52.321991
286 0 1 9.075883 23.106060 51.515198
287 0 1 8.703881 23.829460 51.002686
288 0 1 8.157483 22.987663 50.738708
289 0 1 8.459584 22.304359 50.078796
290 0 1 7.509683 22.415161 49.915588
291 0 1 7.140035 22.836460 49.199310
292 0 1 7.128534 23.729759 48.843506
293 0 1 6.844446 24.460564 48.335602
294 0 1 6.541223 24.940460 47.529907
295 0 1 6.725824 25.455662 46.780396
296 0 1 7.656282 25.354759 46.493500
297 0 1 7.808683 24.656563 45.839111
298 0 1 6.981882 24.832661 45.344788
299 0 1 6.039724 24.742962 45.503998
300 0 1 6.444154 24.163361 46.197815
301 0 1 6.530145 23.678761 47.045807
302 0 1 5.538362 23.576962 46.959198
303 0 1 4.885465 23.782162 46.274200
304 0 1 5.377313 23.117859 45.738190
305 0 1 5.227354 22.561363 46.552094
306 0 1 4.453424 21.995262 46.527893
307 0 1 4.839464 21.119560 46.558899
308 0 1 3.974626 21.207161 46.907013
309 0 1 3.625963 21.230759 47.817413
310 0 1 3.761232 22.066860 48.318298
311 0 1 3.085363 21.573261 48.832886
312 0 1 3.505285 20.719162 49.134003
313 0 1 2.587003 20.815262 49.409088
314 0 1 1.776144 21.486259 49.480194
315 0 1 0.840803 21.707962 49.484100
316 0 1 0.707742 21.324162 48.590515
317 0 1 0.563062 20.654259 47.916290
318 0 1 0.574163 20.324562 47.049500
319 0 1 -0.238905 20.153961 47.479797
320 0 1 -0.406706 19.526562 46.696503
321 0 1 -1.284276 19.775661 46.904785
322 0 1 -1.802516 19.565262 46.101013
323 0 1 -2.582966 18.933762 45.983215
324 0 1 -2.487578 19.212959 46.872894
325 0 1 -2.751248 18.535061 47.475708
326 0 1 -2.998534 19.152660 48.154114
327 0 1 -2.107598 19.141663 48.554199
328 0 1 -1.836436 18.229961 48.288086
329 0 1 -2.745167 17.842762 48.398987
330 0 1 -3.542546 17.518661 47.946991
331 0 1 -4.197846 16.884163 47.773315
332 0 1 -4.731446 17.469761 47.243286
333 0 1 -5.568905 17.980759 47.116791
334 0 1 -5.493025 18.795563 47.575592
335 0 1 -6.356785 18.820061 47.160004
336 0 1 -6.959277 18.084061 46.621490
337 0 1 -6.820496 17.762863 47.563690
338 0 1 -7.251475 17.301361 48.414795
339 0 1 -7.402216 16.668159 49.097992
340 0 1 -6.778586 16.063160 48.766693
341 0 1 -6.617896 15.120763 48.612915
342 0 1 -5.983435 15.223260 49.309509
343 0 1 -5.420527 15.005563 48.605408
344 0 1 -4.430726 14.987260 48.972198
345 0 1 -4.146636 15.144361 49.843506
346 0 1 -4.723437 15.038663 50.592896
347 0 1 -4.641476 14.897061 51.521912
348 0 1 -4.530596 14.701062 52.490692
349 0 1 -4.479197 14.805661 53.459991
350 0 1 -5.069176 13.955483 53.555389
351 0 1 -5.079695 13.361520 54.390991
352 0 1 -4.166916 13.253663 54.354004
353 0 1 -4.112727 14.154881 54.787689
354 0 1 -3.503047 14.608861 54.164307
355 0 1 -3.482621 15.339463 53.594299
356 0 1 -3.683867 15.904462 52.856995
357 0 1 -4.582125 16.080963 52.491394
358 0 1 -5.458537 16.266762 52.078308
359 0 1 -5.996895 17.060562 52.027191
360 0 1 -6.449795 17.652561 51.407806
361 0 1 -6.896515 16.829762 51.428009
362 0 1 -7.806996 17.100662 51.017395
363 0 1 -8.651927 17.215759 50.618103
364 0 1 -8.356767 17.453262 49.719299
365 0 1 -8.386436 17.453861 48.726013
366 0 1 -8.907657 17.747261 48.009216
367 0 1 -8.452476 17.790359 47.162811
368 0 1 -9.456836 17.569660 47.008392
369 0 1 -9.806117 18.461761 46.715607
370 0 1 -9.439567 18.251060 45.812683
371 0 1 -9.913196 17.522961 46.131714
372 0 1 -10.520347 16.903061 45.732605
373 0 1 -11.186835 17.275063 46.325287
374 0 1 -12.152516 17.276260 46.015900
375 0 1 -12.016246 17.796261 45.232910
376 0 1 -12.024636 17.268661 44.447205
377 0 1 -12.901416 17.152561 44.956604
378 0 1 -13.066516 17.147961 44.018799
379 0 1 -13.304116 16.218960 43.970886
380 0 1 -13.613816 15.581964 44.633484
381 0 1 -13.410216 14.874562 45.216095
382 0 1 -12.825017 14.472062 45.827209
383 0 1 -12.047847 14.876061 45.430206
384 0 1 -11.417525 14.591264 46.053192
385 0 1 -10.840167 14.665761 45.273010
386 0 1 -10.377347 13.807000 45.615784
387 0 1 -10.020097 12.915612 45.456909
388 0 1 -10.659236 12.808694 44.737488
389 0 1 -10.560416 11.861241 44.769989
390 0 1 -10.699857 10.960813 45.232697
391 0 1 -10.611907 11.445394 46.090088
392 0 1 -11.145335 12.218541 45.910095
393 0 1 -10.970857 12.712293 46.674988
394 0 1 -10.557067 12.067910 47.188690
395 0 1 -9.593196 12.058152 47.431213
396 0 1 -8.878026 12.674722 47.647400
397 0 1 -8.891177 11.809701 48.128906
398 0 1 -9.258098 11.573823 48.961212
399 0 1 -9.043807 11.009522 49.728210
400 0 1 -9.356967 10.137441 49.720886
401 0 1 -8.427796 9.929261 49.809692
402 0 1 -8.710317 9.420423 50.518005
403 0 1 -8.744317 9.101781 51.403687
404 0 1 -7.915476 8.736123 51.764893
405 0 1 -7.179936 8.867723 51.156403
406 0 1 -6.757536 8.052491 51.155090
407 0 1 -6.526095 7.273190 51.688599
408 0 1 -6.047125 6.991250 50.826904
409 0 1 -5.273127 6.359551 50.943298
410 0 1 -4.730357 5.594861 51.259216
411 0 1 -4.689986 4.619902 50.942200
412 0 1 -4.563437 4.685355 50.015411
413 0 1 -5.206255 5.374684 49.856201
414 0 1 -6.025727 4.858979 49.637512
415 0 1 -6.560376 4.335850 49.133698
416 0 1 -6.484295 3.665995 49.856293
417 0 1 -6.581126 2.704041 49.668396
418 0 1 -5.671465 2.997551 49.655609
419 0 1 -5.071887 2.824021 50.392517
420 0 1 -5.421237 3.248332 51.141907
421 0 1 -5.786786 2.820702 51.917511
422 0 1 -4.885685 2.521811 52.097412
423 0 1 -5.010556 1.593072 51.976013
424 0 1 -4.242926 1.092322 52.269012
425 0 1 -4.930485 0.470082 51.925110
426 0 1 -5.539576 0.215592 51.238495
427 0 1 -5.656947 -0.506198 51.782715
428 0 1 -5.509917 -0.760278 50.905884
429 0 1 -5.535586 -1.686868 50.556885
430 0 1 -5.706357 -1.922428 49.654785
431 0 1 -6.378077 -2.299789 49.150391
432 0 1 -5.906916 -2.894748 48.560699
433 0 1 -5.894927 -2.938079 47.601990
434 0 1 -5.227446 -3.164678 47.006287
435 0 1 -4.922066 -2.340559 47.488586
436 0 1 -4.184645 -2.982389 47.363892
437 0 1 -4.141217 -2.809419 46.489899
438 0 1 -4.802516 -2.462200 45.916199
439 0 1 -5.329276 -3.108209 45.392700
440 0 1 -5.754616 -3.885929 45.072510
441 0 1 -6.218886 -4.316940 44.319092
442 0 1 -6.820197 -4.067588 43.585388
443 0 1 -6.835606 -3.245439 43.088898
444 0 1 -7.011166 -2.428079 43.588593
445 0 1 -6.473826 -1.622169 43.454407
446 0 1 -6.959816 -1.018888 42.867188
447 0 1 -7.234587 -1.335887 42.017792
448 0 1 -7.908717 -1.554939 41.271088
449 0 1 -7.242735 -2.151218 40.850494
450 0 1 -7.684336 -2.797479 40.352905
451 0 1 -8.008956 -2.649038 39.406097
452 0 1 -8.658416 -2.271579 38.846313
453 0 1 -8.611716 -3.282449 38.595703
454 0 1 -7.705126 -3.617260 38.380005
455 0 1 -6.883807 -3.524799 38.874207
456 0 1 -7.203856 -4.176569 39.595795
457 0 1 -6.208516 -3.999118 39.531006
458 0 1 -5.816086 -4.772319 39.109406
459 0 1 -5.109246 -5.388668 38.985596
460 0 1 -5.418946 -5.471439 37.988892
461 0 1 -5.391366 -5.773939 37.041016
462 0 1 -5.003695 -6.388639 37.679291
463 0 1 -4.284346 -6.510938 37.132507
464 0 1 -3.515646 -5.839340 37.337097
465 0 1 -2.718977 -5.371269 37.234406
466 0 1 -2.422453 -6.016538 37.847900
467 0 1 -3.195082 -5.730640 38.370697
468 0 1 -3.594656 -5.215499 39.039001
469 0 1 -3.801386 -4.489938 39.614685
470 0 1 -2.979504 -4.845508 40.080109
471 0 1 -3.238471 -4.283128 40.825684
472 0 1 -3.961485 -4.511058 41.385986
473 0 1 -4.686575 -5.083118 41.620300
474 0 1 -4.489657 -4.495319 42.395294
475 0 1 -3.511796 -4.521509 42.594513
476 0 1 -3.095433 -4.611709 43.541107
477 0 1 -2.406044 -5.022258 43.086395
478 0 1 -1.894866 -4.652198 42.289185
479 0 1 -1.766102 -5.378898 41.739594
480 0 1 -2.267249 -6.073539 41.216309
481 0 1 -2.952096 -5.820037 41.831116
482 0 1 -2.884734 -6.765239 41.988190
483 0 1 -3.809546 -6.829038 41.508484
484 0 1 -3.480784 -7.602338 40.957794
485 0 1 -2.965098 -7.403739 40.175201
486 0 1 -2.943436 -7.709739 39.215393
487 0 1 -2.057709 -7.856239 38.895508
488 0 1 -1.913855 -8.676438 38.371216
489 0 1 -1.302746 -8.742438 37.648590
490 0 1 -0.768755 -8.748839 36.803284
491 0 1 -1.188326 -7.872139 36.644897
492 0 1 -1.996768 -7.292240 36.541595
493 0 1 -1.492596 -6.858039 35.791016
494 0 1 -0.863806 -6.242939 36.386108
495 0 1 -0.922076 -6.654338 37.242188
496 0 1 -0.077635 -6.606239 37.774200
497 0 1 0.323762 -6.514537 38.650208
498 0 1 1.227266 -6.359840 38.437103
499 0 1 1.859903 -5.509929 38.442810
500 0 1 2.784715 -5.365848 38.401093
501 0 1 3.151685 -6.269138 38.616791
502 0 1 2.770525 -7.201740 38.678406
503 0 1 3.679002 -7.224538 38.244904
504 0 1 4.667234 -7.329238 38.079285
505 0 1 5.458093 -7.724838 37.657196
506 0 1 6.222963 -8.026238 37.023010
507 0 1 6.785882 -8.280938 36.198700
508 0 1 6.061655 -8.882838 36.300293
509 0 1 5.805845 -9.132037 35.408386
510 0 1 5.125375 -9.754439 35.266998
511 0 1 4.534414 -10.448938 35.109314
512 0 1 4.420576 -11.341838 35.448395
513 0 1 4.721525 -11.999839 34.793091
514 0 1 5.664186 -12.176438 34.888702
515 0 1 5.956316 -11.372838 35.273804
516 0 1 6.684122 -10.828938 34.808594
517 0 1 7.562883 -10.595038 34.355988
518 0 1 7.901582 -11.462138 34.637787
519 0 1 7.603284 -12.037538 35.295288
520 0 1 7.508283 -12.715037 34.530701
521 0 1 6.952894 -12.313039 33.805115
522 0 1 7.824083 -12.434339 33.512909
523 0 1 8.235581 -12.525437 32.479095
524 0 1 8.873384 -12.196137 31.828094
525 0 1 8.661984 -12.604037 30.955505
526 0 1 9.404485 -12.015738 31.007599
527 0 1 10.286683 -11.994239 30.704987
528 0 1 10.918485 -11.634038 31.396484
529 0 1 11.688783 -10.978338 31.315308
530 0 1 11.877683 -10.610438 32.204193
531 0 1 11.250585 -9.878337 32.403503
532 0 1 11.903481 -9.321139 32.035309
533 0 1 11.382382 -8.419837 32.272003
534 0 1 10.907182 -8.235339 33.062897
535 0 1 11.729486 -8.133639 33.557404
536 0 1 12.623384 -8.370437 33.544617
537 0 1 13.154584 -7.564140 33.595215
538 0 1 12.797982 -6.817939 34.167908
539 0 1 13.264684 -6.893138 34.992889
540 0 1 14.114884 -7.215238 34.650513
541 0 1 14.541184 -8.025538 34.259705
542 0 1 15.510983 -8.211837 34.045990
543 0 1 15.884683 -9.000239 34.195892
544 0 1 15.014581 -9.257537 34.514801
545 0 1 15.285684 -10.075738 35.116913
546 0 1 15.522882 -10.349238 34.247589
547 0 1 15.428185 -11.347638 34.081909
548 0 1 16.231882 -11.777738 33.739807
549 0 1 17.046984 -12.318938 33.467896
550 0 1 16.509085 -12.277839 32.684814
551 0 1 17.246782 -12.204938 31.980988
552 0 1 17.357084 -11.351738 31.386993
553 0 1 17.137087 -10.806838 32.167694
554 0 1 16.497484 -10.117938 32.375610
555 0 1 16.299486 -9.754039 31.491394
556 0 1 17.002985 -9.368739 31.032013
557 0 1 17.821085 -9.642539 30.484589
558 0 1 18.092485 -10.524738 30.145203
559 0 1 17.200285 -10.404738 29.778107
560 0 1 16.838385 -10.296038 28.877014
561 0 1 16.304583 -10.635038 28.170410
562 0 1 15.531686 -10.708438 28.708984
563 0 1 14.622884 -10.810938 28.992310
564 0 1 13.897485 -10.635839 29.629486
565 0 1 13.780885 -9.962638 30.355591
566 0 1 12.898183 -9.676539 29.945984
567 0 1 12.041883 -9.712638 29.396606
568 0 1 12.696584 -9.382838 28.760712
569 0 1 12.348481 -8.609839 29.172485
570 0 1 11.368485 -8.807738 29.400909
571 0 1 10.471482 -8.923238 29.178894
572 0 1 9.557584 -8.903638 29.325989
573 0 1 9.393483 -8.189738 29.970001
574 0 1 8.919484 -7.825239 29.189209
575 0 1 8.669583 -8.641337 28.755096
576 0 1 9.038182 -9.069537 27.915314
577 0 1 9.661084 -9.275338 27.160614
578 0 1 9.052083 -10.050239 27.056000
579 0 1 8.393685 -9.796439 26.453796
580 0 1 8.377984 -10.505638 25.818298
581 0 1 7.498155 -10.882238 25.851990
582 0 1 7.281686 -11.814738 25.999084
583 0 1 6.934034 -12.766738 25.892792
584 0 1 7.827585 -12.948937 26.228394
585 0 1 7.505403 -13.498338 26.913391
586 0 1 8.146085 -14.234538 26.840912
587 0 1 8.776982 -14.102038 26.155396
588 0 1 9.667283 -14.369838 25.881592
589 0 1 9.469483 -14.260139 24.902008
590 0 1 9.495484 -13.291537 25.045715
591 0 1 9.140885 -13.049739 24.158203
592 0 1 8.200585 -13.035237 24.075714
593 0 1 7.845785 -12.279239 23.608887
594 0 1 7.195745 -12.008838 22.926697
595 0 1 6.500764 -11.360938 22.833801
596 0 1 6.715135 -10.910738 21.932205
597 0 1 6.347024 -10.752138 21.104401
598 0 1 5.545656 -10.209838 20.807404
599 0 1 5.053125 -9.682437 20.210999
600 0 1 5.333604 -10.438138 19.666504
601 0 1 4.926164 -11.244738 20.011108
602 0 1 5.419454 -11.244638 20.828094
603 0 1 4.749265 -11.162638 21.569901
604 0 1 3.912096 -11.686337 21.623596
605 0 1 3.401353 -11.071538 21.123001
606 0 1 3.625665 -10.217638 20.909805
607 0 1 3.659204 -9.743638 21.735794
608 0 1 4.068872 -8.968238 22.148499
609 0 1 3.617006 -8.991439 23.005890
610 0 1 3.257955 -8.949637 23.968689
611 0 1 2.636682 -9.449138 23.451996
612 0 1 1.715883 -9.716838 23.325989
613 0 1 1.208063 -9.181838 23.962708
614 0 1 0.286714 -9.051238 24.083496
615 0 1 0.491483 -8.238238 23.687286
616 0 1 1.489225 -8.154738 23.734497
617 0 1 1.605115 -7.773538 22.871094
618 0 1 2.333284 -7.161937 22.902588
619 0 1 2.123796 -6.393539 22.303101
620 0 1 1.292776 -6.535839 22.719513
621 0 1 0.983945 -5.742939 23.158600
622 0 1 0.923242 -5.228168 23.991211
623 0 1 0.751935 -5.810338 24.711212
624 0 1 1.328294 -6.517337 24.407104
625 0 1 1.233373 -6.942838 25.258606
626 0 1 1.845766 -6.389638 25.722809
627 0 1 1.279184 -5.807838 26.189392
628 0 1 0.727945 -5.584888 26.912994
629 0 1 1.418924 -5.019828 27.340210
630 0 1 1.134843 -4.292129 27.971100
631 0 1 1.759744 -4.820247 28.404114
632 0 1 1.141653 -5.134618 29.092285
633 0 1 1.485395 -5.998439 29.103210
634 0 1 1.527463 -6.405538 28.247986
635 0 1 0.815263 -6.709739 27.686707
636 0 1 -0.147498 -6.907838 27.489502
637 0 1 -0.052626 -7.426738 28.251587
638 0 1 0.359205 -6.800739 28.793884
639 0 1 -0.151385 -6.789737 29.613098
640 0 1 -0.636824 -6.846939 30.483002
641 0 1 -1.594031 -6.709037 30.565308
642 0 1 -1.252415 -6.462839 31.405212
643 0 1 -1.902480 -6.877140 31.899292
644 0 1 -2.816405 -7.209438 31.600006
645 0 1 -3.264357 -6.661140 30.924500
646 0 1 -4.175786 -6.504339 30.713013
647 0 1 -4.389056 -6.773239 29.776489
648 0 1 -3.833127 -7.432338 29.400513
649 0 1 -3.947716 -8.244239 29.979401
650 0 1 -3.698666 -8.982539 30.564606
651 0 1 -3.827937 -9.576438 29.831696
652 0 1 -3.831076 -10.286738 30.552094
653 0 1 -3.978756 -9.635337 31.338898
654 0 1 -4.318326 -10.485938 31.642609
655 0 1 -3.476754 -10.420438 31.970886
656 0 1 -3.091092 -10.829238 31.202789
657 0 1 -2.754380 -11.645938 31.295715
658 0 1 -2.422581 -12.403039 30.815002
659 0 1 -3.312579 -12.665738 30.983704
660 0 1 -3.453001 -13.413638 31.547607
661 0 1 -3.576106 -13.898337 32.398895
662 0 1 -4.264306 -13.937839 33.080292
663 0 1 -5.231717 -13.980338 33.097809
664 0 1 -6.146925 -14.098437 32.995605
665 0 1 -5.960776 -14.449538 32.147705
666 0 1 -5.713456 -15.174539 31.605988
667 0 1 -6.426156 -15.371238 31.049011
668 0 1 -5.926846 -15.094838 30.279205
669 0 1 -5.890187 -14.414138 29.617615
670 0 1 -5.216576 -13.936137 29.180908
671 0 1 -4.346776 -14.364139 29.174988
672 0 1 -3.902836 -14.519137 28.321686
673 0 1 -3.327988 -13.959338 27.729492
674 0 1 -3.131297 -14.877137 27.539612
675 0 1 -2.513367 -15.078637 26.759003
676 0 1 -1.799441 -14.796939 27.344299
677 0 1 -1.728638 -15.234038 28.191498
678 0 1 -1.555468 -14.555438 28.911011
679 0 1 -2.284728 -14.841338 29.494507
680 0 1 -1.946236 -14.249839 30.201813
681 0 1 -2.148610 -14.453538 31.077393
682 0 1 -2.013371 -14.280538 32.018799
683 0 1 -1.741101 -13.921538 32.847992
684 0 1 -0.987708 -13.692138 33.475800
685 0 1 -0.433978 -14.426438 33.761200
686 0 1 0.196935 -14.070138 33.041901
687 0 1 -0.289465 -14.072139 32.266907
688 0 1 -0.861228 -14.100339 31.473114
689 0 1 -0.398448 -14.311639 30.656708
690 0 1 -0.965994 -13.646739 30.257202
691 0 1 -0.036578 -13.546838 30.046814
692 0 1 0.459203 -13.682439 29.212402
693 0 1 0.868802 -14.574039 29.502289
694 0 1 1.378274 -14.884538 28.793304
695 0 1 1.528654 -13.976638 28.661102
696 0 1 1.129755 -13.191937 28.253510
697 0 1 0.653223 -13.666738 27.507690
698 0 1 0.897134 -14.559539 27.383698
699 0 1 0.115343 -14.794839 26.884613
700 0 1 0.347913 -14.410237 26.045288
701 0 1 0.072893 -13.573438 26.444214
702 0 1 -0.855605 -13.555839 26.101807
703 0 1 -1.657261 -13.006337 25.877411
704 0 1 -1.816117 -13.032838 24.909698
705 0 1 -1.844777 -12.037738 25.021393
706 0 1 -1.857316 -11.578338 25.866302
707 0 1 -1.752587 -10.937938 26.540588
708 0 1 -1.988705 -10.121638 27.033386
709 0 1 -1.627745 -9.198638 26.920898
710 0 1 -1.324107 -8.607039 27.525604
711 0 1 -2.021330 -8.061137 27.117889
712 0 1 -1.869200 -7.155639 26.672791
713 0 1 -2.337922 -6.906738 27.463898
714 0 1 -3.282917 -6.600139 27.355713
715 0 1 -3.695256 -6.651039 26.518890
716 0 1 -3.933096 -7.598739 26.180115
717 0 1 -4.059527 -8.413039 26.744598
718 0 1 -4.467906 -9.125037 26.340302
719 0 1 -5.207806 -9.206237 26.990295
720 0 1 -5.736937 -8.886539 26.246002
721 0 1 -6.406126 -8.768138 26.953003
722 0 1 -7.091406 -9.427737 27.028107
723 0 1 -7.974846 -9.710139 27.096100
724 0 1 -7.801716 -9.825538 26.170593
725 0 1 -7.475895 -9.013438 25.967010
726 0 1 -7.351176 -8.197837 26.395203
727 0 1 -7.775376 -7.620838 27.006012
728 0 1 -7.109665 -6.858339 27.034088
729 0 1 -6.684987 -5.967538 27.120300
730 0 1 -6.289267 -6.155738 26.247589
731 0 1 -6.228997 -5.200819 26.521698
732 0 1 -5.484276 -4.704669 26.746490
733 0 1 -5.119626 -4.339229 27.524414
734 0 1 -5.906115 -3.908538 27.829895
735 0 1 -5.900996 -3.007398 28.022095
736 0 1 -6.422616 -2.330989 27.545105
737 0 1 -7.365935 -2.401289 27.310791
738 0 1 -7.762066 -1.794418 27.920990
739 0 1 -7.602095 -1.078908 27.248108
740 0 1 -7.843026 -0.085597 27.266693
741 0 1 -7.709126 0.831622 27.699585
742 0 1 -7.855546 1.553801 28.283295
743 0 1 -8.616157 2.113631 28.069702
744 0 1 -8.912396 2.920701 28.543396
745 0 1 -9.532397 3.458325 29.048309
746 0 1 -9.881967 4.329476 28.778412
747 0 1 -10.415545 4.250878 29.546692
748 0 1 -10.696616 5.118199 29.277710
749 0 1 -11.013976 4.936787 28.372101
750 0 1 -11.140105 5.271893 27.477692
751 0 1 -12.089896 5.408772 27.820404
752 0 1 -12.220927 5.311490 26.921112
753 0 1 -13.080216 5.166953 26.519409
754 0 1 -13.666516 4.709630 25.906403
755 0 1 -13.626018 5.315844 25.170410
756 0 1 -14.423816 4.965909 24.789185
757 0 1 -14.610217 5.275605 25.657715
758 0 1 -14.428218 5.889611 26.447815
759 0 1 -14.048917 6.804112 26.341492
760 0 1 -13.323617 7.174443 25.819702
761 0 1 -13.819716 7.723290 25.175690
762 0 1 -14.159017 8.224141 25.966888
763 0 1 -13.486316 8.836492 26.331604
764 0 1 -12.873515 8.411473 25.789398
765 0 1 -12.203107 8.613133 25.168610
766 0 1 -11.892226 9.501962 25.036591
767 0 1 -11.578977 8.997453 24.224792
768 0 1 -12.004195 9.198251 23.361603
769 0 1 -12.620418 8.676053 22.815094
770 0 1 -12.007796 7.806733 22.878296
771 0 1 -11.888766 8.084371 21.951797
772 0 1 -11.836106 7.115693 21.744507
773 0 1 -10.959867 7.196732 21.261398
774 0 1 -10.146808 7.546231 20.882706
775 0 1 -9.270007 8.121091 20.723602
776 0 1 -8.343867 8.408532 20.725998
777 0 1 -8.484347 9.387452 20.663101
778 0 1 -8.938796 10.272252 20.726593
779 0 1 -8.152495 10.196481 21.328400
780 0 1 -7.385346 10.145432 21.882004
781 0 1 -6.635565 9.760362 21.407898
782 0 1 -5.951886 10.256291 21.870102
783 0 1 -5.090436 10.539170 21.683807
784 0 1 -5.015456 9.680921 22.256805
785 0 1 -4.864316 9.386003 21.396698
786 0 1 -5.413805 8.656922 21.209106
787 0 1 -4.785475 7.999550 21.339508
788 0 1 -3.991536 7.557171 20.989807