LAMMPS data file via MDAnalysis

        2000  atoms
        1999  bonds
           0  angles
           0  dihedrals
           0  impropers

           1  atom types
           1  bond types
           0  angle types
           0  dihedral types
           0  improper types

-30.5 30.5 xlo xhi
-30.5 30.5 ylo yhi
-233.5 233.5 zlo zhi


Masses

1 1.000000

Atoms

1 0 1 0.239555 9.193496 -13.321702
2 0 1 -0.383135 9.064666 -14.076707
3 0 1 -0.418603 9.686648 -14.820603
4 0 1 -0.427346 9.682078 -15.781800
5 0 1 -0.815182 10.239276 -16.512207
6 0 1 -1.022975 9.441058 -17.080505
7 0 1 -1.203583 8.515128 -17.263596
8 0 1 -1.295357 7.687167 -17.766602
9 0 1 -0.554066 7.593040 -17.107803
10 0 1 -0.247624 6.694629 -16.736694
11 0 1 -1.018904 6.485408 -16.220093
12 0 1 -1.056090 5.594977 -15.909303
13 0 1 -0.664824 4.838969 -16.377106
14 0 1 -0.452016 4.010047 -16.821808
15 0 1 -0.199507 3.274362 -17.424194
16 0 1 -1.197869 3.195586 -17.643707
17 0 1 -1.320239 2.555095 -18.464600
18 0 1 -1.657738 1.933068 -17.732697
19 0 1 -2.302809 1.869018 -18.453201
20 0 1 -2.886859 2.185699 -19.178802
21 0 1 -3.597928 1.560187 -19.595200
22 0 1 -2.850768 1.085609 -19.144394
23 0 1 -2.776898 0.227779 -18.592499
24 0 1 -3.248198 0.821658 -18.080994
25 0 1 -3.561169 -0.113772 -18.016006
26 0 1 -4.482619 0.180207 -18.078705
27 0 1 -4.520709 -0.775073 -17.839508
28 0 1 -4.856398 -0.549083 -16.959991
29 0 1 -5.789269 -0.752423 -16.908707
30 0 1 -6.135788 -1.128093 -17.706299
31 0 1 -5.706448 -2.008403 -17.795898
32 0 1 -4.788708 -1.983992 -17.972397
33 0 1 -5.438628 -1.392613 -18.669403
34 0 1 -6.357329 -1.157643 -18.932098
35 0 1 -6.864268 -1.891452 -18.559204
36 0 1 -7.591347 -1.499722 -19.140396
37 0 1 -7.792078 -2.339232 -18.699493
38 0 1 -7.492049 -3.250173 -18.910492
39 0 1 -6.485959 -3.301103 -18.866699
40 0 1 -6.496308 -3.518703 -19.802795
41 0 1 -5.544980 -3.395982 -19.740295
42 0 1 -4.797638 -2.980763 -19.287506
43 0 1 -4.392388 -2.121772 -19.467697
44 0 1 -4.715468 -2.301991 -20.369293
45 0 1 -5.284678 -1.573802 -20.706207
46 0 1 -6.101967 -1.682313 -20.206894
47 0 1 -6.515448 -1.081143 -20.748398
48 0 1 -7.206389 -0.764262 -21.385406
49 0 1 -7.829018 -1.388432 -21.862900
50 0 1 -8.672439 -1.681912 -21.491608
51 0 1 -8.761628 -0.690503 -21.399200
52 0 1 -8.282680 0.020328 -20.949997
53 0 1 -8.035058 -0.484332 -20.163696
54 0 1 -7.183558 0.082278 -20.124405
55 0 1 -7.102479 0.290017 -19.232803
56 0 1 -6.859540 0.730147 -18.401306
57 0 1 -6.749028 -0.194312 -18.216904
58 0 1 -6.010159 0.280528 -17.712097
59 0 1 -6.699969 -0.024852 -17.140396
60 0 1 -7.476899 0.357688 -16.712799
61 0 1 -8.242660 0.459687 -16.217804
62 0 1 -9.045068 -0.104733 -16.473801
63 0 1 -9.117179 -0.701793 -15.760804
64 0 1 -8.314248 -1.191802 -16.036606
65 0 1 -7.852778 -1.604932 -15.334397
66 0 1 -7.155268 -1.883042 -14.701997
67 0 1 -7.025788 -2.588433 -13.998002
68 0 1 -6.806218 -3.301482 -14.533402
69 0 1 -7.441529 -2.935422 -15.121095
70 0 1 -7.276568 -3.885013 -15.190598
71 0 1 -6.568968 -4.549573 -15.310700
72 0 1 -7.248608 -4.969533 -14.651307
73 0 1 -7.998408 -5.180253 -15.189301
74 0 1 -7.518969 -6.014842 -15.122407
75 0 1 -7.813099 -6.911504 -14.890504
76 0 1 -7.994988 -7.858453 -14.592896
77 0 1 -8.487470 -7.501252 -13.809602
78 0 1 -9.418229 -7.477653 -13.983003
79 0 1 -10.001769 -7.887254 -14.598298
80 0 1 -9.098578 -7.904153 -14.867494
81 0 1 -8.869550 -8.446553 -15.614808
82 0 1 -9.488219 -9.165153 -15.662797
83 0 1 -9.176709 -9.831653 -15.094407
84 0 1 -8.545419 -9.257653 -14.793794
85 0 1 -8.011989 -9.685552 -14.149293
86 0 1 -7.963198 -10.639752 -13.897004
87 0 1 -7.406228 -10.967153 -13.194596
88 0 1 -6.849608 -10.641454 -13.916795
89 0 1 -6.849469 -11.510152 -14.231904
90 0 1 -7.754899 -11.981052 -14.322694
91 0 1 -7.929228 -12.723852 -13.691300
92 0 1 -7.558449 -12.899053 -12.828507
93 0 1 -7.770129 -12.913652 -11.885194
94 0 1 -7.136139 -12.556752 -11.221696
95 0 1 -7.229477 -11.735252 -10.649400
96 0 1 -7.432179 -11.051251 -10.021699
97 0 1 -7.432988 -10.061852 -10.461793
98 0 1 -6.694188 -10.440751 -9.974565
99 0 1 -5.811278 -10.281854 -9.455186
100 0 1 -5.846409 -9.653953 -10.184007
101 0 1 -5.921729 -9.949853 -11.095994
102 0 1 -4.968838 -10.076552 -10.909394
103 0 1 -5.070569 -9.061254 -10.747300
104 0 1 -4.838728 -9.332452 -9.854264
105 0 1 -4.367749 -10.002353 -9.334077
106 0 1 -3.751868 -10.215552 -10.146394
107 0 1 -2.981589 -10.202052 -10.673600
108 0 1 -2.648349 -11.083552 -10.564897
109 0 1 -2.233329 -11.030852 -11.370606
110 0 1 -2.119998 -11.932552 -11.697495
111 0 1 -1.875138 -12.734352 -11.225999
112 0 1 -2.493628 -12.635053 -10.471498
113 0 1 -2.699858 -13.471753 -10.008607
114 0 1 -3.335049 -12.940052 -9.582215
115 0 1 -2.878690 -12.043753 -9.444001
116 0 1 -3.443139 -12.035652 -8.601457
117 0 1 -3.159579 -12.796753 -8.129426
118 0 1 -3.219369 -13.019353 -7.213319
119 0 1 -2.524279 -12.769853 -6.612931
120 0 1 -2.340869 -11.846553 -6.139497
121 0 1 -1.989009 -11.003251 -6.083619
122 0 1 -1.406365 -11.636052 -6.536485
123 0 1 -1.687598 -11.971152 -7.418443
124 0 1 -2.103638 -11.129354 -7.273866
125 0 1 -2.883889 -10.857753 -6.780519
126 0 1 -2.769028 -10.317452 -7.540818
127 0 1 -2.395219 -10.226151 -8.454484
128 0 1 -1.631739 -10.119752 -7.827668
129 0 1 -1.068894 -10.877954 -8.092378
130 0 1 -0.315503 -11.069654 -7.484422
131 0 1 0.146901 -10.288854 -7.171067
132 0 1 0.821292 -9.947453 -6.631944
133 0 1 1.306190 -9.940553 -7.428071
134 0 1 2.263690 -9.852153 -7.532426
135 0 1 2.343532 -10.631051 -6.994065
136 0 1 3.162071 -10.982352 -6.693330
137 0 1 3.391322 -10.205853 -6.008225
138 0 1 2.635173 -10.481053 -5.504853
139 0 1 3.343143 -10.667653 -4.760041
140 0 1 3.346259 -11.571153 -5.030549
141 0 1 3.743831 -12.017653 -5.748963
142 0 1 4.116703 -12.194853 -6.667909
143 0 1 4.813640 -11.837552 -7.265336
144 0 1 5.069213 -11.389852 -8.048326
145 0 1 4.453132 -10.848851 -8.532304
146 0 1 3.509811 -11.002454 -8.431687
147 0 1 2.882392 -10.479653 -8.918778
148 0 1 2.933860 -9.474954 -8.597306
149 0 1 2.102153 -9.515351 -9.097306
150 0 1 2.383312 -10.192151 -9.818482
151 0 1 2.295852 -9.601253 -10.674897
152 0 1 3.015823 -9.263852 -11.229600
153 0 1 2.877502 -8.475753 -10.760804
154 0 1 2.545890 -7.954053 -11.448304
155 0 1 1.896083 -7.944253 -12.126603
156 0 1 1.510051 -8.302453 -11.334001
157 0 1 1.074031 -7.412652 -11.283799
158 0 1 1.100600 -7.104053 -10.361100
159 0 1 2.047801 -7.077952 -10.228501
160 0 1 2.834792 -6.819192 -10.700501
161 0 1 3.125831 -6.970702 -11.663209
162 0 1 3.023891 -6.988902 -12.679307
163 0 1 3.883270 -6.618762 -12.445802
164 0 1 3.697162 -6.013532 -13.147294
165 0 1 3.630443 -5.293042 -13.761704
166 0 1 4.400741 -5.882524 -13.835603
167 0 1 4.120582 -5.973264 -14.801194
168 0 1 3.682822 -5.698533 -15.600297
169 0 1 3.265121 -5.394933 -16.458893
170 0 1 3.875491 -4.711833 -16.291901
171 0 1 4.432151 -4.543983 -15.576203
172 0 1 5.141441 -4.362983 -14.968904
173 0 1 5.430980 -4.142652 -15.821107
174 0 1 5.515213 -3.203822 -15.593904
175 0 1 6.255592 -2.662992 -15.374894
176 0 1 5.829841 -2.804994 -14.574006
177 0 1 5.293853 -2.492503 -13.828309
178 0 1 4.812820 -2.928472 -13.142198
179 0 1 4.072521 -2.814263 -12.541001
180 0 1 3.489131 -2.048232 -12.639802
181 0 1 2.879421 -1.264632 -12.728608
182 0 1 2.686061 -0.928832 -11.843095
183 0 1 2.110072 -0.332042 -12.328507
184 0 1 1.627200 0.402759 -12.661698
185 0 1 1.247943 -0.126563 -13.335999
186 0 1 0.766601 -0.960702 -13.450303
187 0 1 1.462291 -1.582383 -13.312394
188 0 1 0.938592 -1.937161 -14.073304
189 0 1 1.116813 -1.191003 -14.629899
190 0 1 0.144546 -1.443963 -14.694306
191 0 1 -0.654540 -1.276162 -15.240495
192 0 1 -0.302874 -0.472123 -14.782502
193 0 1 -1.251031 -0.096211 -14.783601
194 0 1 -1.099543 0.706277 -14.295701
195 0 1 -0.537545 0.644967 -13.538606
196 0 1 -0.238560 0.036017 -12.818894
197 0 1 -0.830668 -0.036553 -12.091905
198 0 1 -0.601428 -0.957581 -11.955796
199 0 1 -0.902533 -1.146851 -11.007401
200 0 1 -0.565818 -1.570153 -10.227906
201 0 1 0.013418 -1.252112 -9.532044
202 0 1 0.542522 -0.984773 -8.813584
203 0 1 0.485572 -0.992463 -7.871903
204 0 1 1.311103 -1.482093 -7.792115
205 0 1 1.644241 -0.739213 -7.315614
206 0 1 1.764701 -1.541663 -6.856202
207 0 1 2.232993 -2.341502 -7.197511
208 0 1 2.237270 -3.304402 -7.165254
209 0 1 2.543731 -4.213313 -6.978395
210 0 1 1.739520 -4.277972 -7.401856
211 0 1 1.723029 -4.797563 -6.619721
212 0 1 1.048030 -4.940602 -5.893205
213 0 1 1.564193 -4.997092 -5.020082
214 0 1 1.913390 -5.630612 -4.422135
215 0 1 2.712493 -6.226453 -4.441697
216 0 1 3.084041 -6.185311 -3.595750
217 0 1 3.850673 -5.593743 -3.311204
218 0 1 3.455222 -5.275493 -4.118669
219 0 1 3.466533 -4.320083 -3.978944
220 0 1 2.605720 -4.093642 -3.770356
221 0 1 1.736770 -3.813313 -3.256715
222 0 1 1.220702 -3.066693 -3.634400
223 0 1 1.713882 -2.250611 -3.743088
224 0 1 1.639720 -2.175332 -4.735505
225 0 1 2.568733 -1.992282 -4.438142
226 0 1 2.188651 -1.241893 -4.849885
227 0 1 1.454482 -0.966552 -4.351716
228 0 1 2.154681 -0.302792 -4.137635
229 0 1 2.386062 0.395917 -3.563676
230 0 1 1.800082 1.059808 -3.978730
231 0 1 1.204520 1.745557 -4.224168
232 0 1 0.548942 1.273017 -3.655518
233 0 1 0.139156 1.386338 -2.800065
234 0 1 -0.782334 1.694718 -2.561112
235 0 1 -0.400975 1.137887 -1.858094
236 0 1 0.157279 0.315087 -1.804261
237 0 1 0.969581 0.290958 -1.304383
238 0 1 0.557401 -0.590283 -1.092255
239 0 1 0.205238 0.077277 -0.385621
240 0 1 0.384963 -0.128022 0.614013
241 0 1 0.166112 -1.100713 0.670974
242 0 1 -0.713240 -1.253753 1.008956
243 0 1 -1.492682 -1.689134 1.429305
244 0 1 -1.585988 -0.872453 1.870727
245 0 1 -2.366009 -0.287452 1.793883
246 0 1 -1.942649 0.230817 1.102065
247 0 1 -1.498996 1.037587 1.150695
248 0 1 -1.485354 0.867917 0.231643
249 0 1 -0.759015 0.341617 -0.054169
250 0 1 -0.813716 -0.307923 -0.759553
251 0 1 -1.572608 0.075997 -1.150208
252 0 1 -1.743129 -0.825602 -0.691605
253 0 1 -2.401919 -1.270503 -0.179200
254 0 1 -3.247838 -1.621282 -0.195069
255 0 1 -3.828469 -1.097413 0.406936
256 0 1 -4.149798 -1.592843 1.170791
257 0 1 -4.971028 -2.168893 1.295776
258 0 1 -5.283759 -2.087152 0.440627
259 0 1 -5.599999 -1.434213 -0.139207
260 0 1 -6.290389 -2.072612 -0.218522
261 0 1 -6.404978 -2.140862 0.719085
262 0 1 -6.308348 -2.045703 1.670547
263 0 1 -6.665318 -2.912143 1.531509
264 0 1 -7.131579 -2.283622 2.140136
265 0 1 -8.003489 -1.823693 2.465804
266 0 1 -7.751149 -1.060233 1.988937
267 0 1 -7.775908 -0.166963 2.312820
268 0 1 -7.611199 0.363107 1.466216
269 0 1 -8.588689 0.311898 1.322234
270 0 1 -8.796170 0.299727 2.203155
271 0 1 -8.270308 0.891278 2.651656
272 0 1 -7.762909 0.963288 3.529098
273 0 1 -7.734349 0.540967 4.388961
274 0 1 -7.662018 0.555099 5.357192
275 0 1 -7.733828 1.479568 5.211257
276 0 1 -7.140168 2.029340 5.684905
277 0 1 -7.872979 2.182378 6.351165
278 0 1 -8.345719 2.673652 7.037704
279 0 1 -8.916589 2.079803 7.456832
280 0 1 -9.514419 2.087733 6.736434
281 0 1 -10.448129 2.310718 6.315703
282 0 1 -11.263429 2.278346 6.758513
283 0 1 -10.634130 2.441813 7.440536
284 0 1 -11.089730 2.685956 8.247085
285 0 1 -11.268029 2.797305 9.204986
286 0 1 -11.687230 3.556939 9.578414
287 0 1 -12.193330 4.079337 8.913955
288 0 1 -11.942529 5.014617 8.684157
289 0 1 -11.247529 4.716407 9.196639
290 0 1 -10.320199 4.327268 9.126052
291 0 1 -9.687940 3.691438 8.640594
292 0 1 -8.776938 3.384795 8.832503
293 0 1 -8.413560 3.755332 9.662566
294 0 1 -7.898369 4.510596 9.924224
295 0 1 -7.439349 3.653516 9.631255
296 0 1 -6.751038 3.849940 8.940993
297 0 1 -6.138897 4.015508 8.164092
298 0 1 -5.833968 4.314317 7.312438
299 0 1 -5.854489 5.128497 7.914489
300 0 1 -5.864098 6.179816 7.932220
301 0 1 -5.672589 7.000697 8.356734
302 0 1 -5.173859 7.630527 7.824370
303 0 1 -5.190419 8.513007 8.268737
304 0 1 -4.623219 8.327518 9.017074
305 0 1 -3.962109 7.726287 8.632964
306 0 1 -3.578849 8.155646 9.417663
307 0 1 -3.311448 8.953528 8.828124
308 0 1 -2.449898 9.344508 9.114562
309 0 1 -1.806199 8.963977 8.562179
310 0 1 -2.155909 8.244720 8.059447
311 0 1 -1.421565 8.146937 7.443801
312 0 1 -0.820466 8.730308 7.864715
313 0 1 -0.659880 8.724326 6.958114
314 0 1 -0.167277 9.393546 6.459746
315 0 1 0.583782 8.756156 6.724196
316 0 1 1.290740 9.368426 6.733001
317 0 1 2.208862 9.137816 6.559051
318 0 1 2.219711 8.282996 6.152907
319 0 1 2.652091 7.930217 6.945785
320 0 1 2.620521 7.855357 7.840606
321 0 1 2.778011 7.958797 8.835738
322 0 1 2.464473 8.186667 9.746444
323 0 1 3.041721 8.655719 10.421691
324 0 1 2.210502 9.146548 10.514297
325 0 1 1.462161 9.607028 10.766692
326 0 1 1.233333 10.531909 10.900298
327 0 1 1.846763 11.213286 11.169600
328 0 1 2.165962 11.083846 12.014403
329 0 1 1.654693 10.383739 12.443801
330 0 1 0.780931 10.660476 12.123900
331 0 1 -0.154689 10.493178 11.988692
332 0 1 0.064637 9.955676 11.231597
333 0 1 0.092824 9.250377 11.971297
334 0 1 0.781411 8.783008 12.488906
335 0 1 1.751033 8.845466 12.865096
336 0 1 1.213912 8.246139 13.371902
337 0 1 1.727821 8.455459 14.225402
338 0 1 2.423412 7.892886 14.500899
339 0 1 2.973190 7.448546 15.099395
340 0 1 3.922992 7.584826 15.168502
341 0 1 4.149200 6.858706 15.797606
342 0 1 4.488372 6.887229 16.701904
343 0 1 4.351074 6.010127 16.429306
344 0 1 4.256874 5.617888 17.301895
345 0 1 4.438041 4.678927 17.412704
346 0 1 3.510803 4.864768 17.343994
347 0 1 2.668552 5.054336 17.888306
348 0 1 2.069141 4.242707 18.218002
349 0 1 2.738940 3.879394 18.832596
350 0 1 3.708282 3.905484 18.921494
351 0 1 4.118251 3.926864 19.804901
352 0 1 4.053943 4.197928 20.744202
353 0 1 3.923713 3.440589 21.290298
354 0 1 3.106212 2.911279 21.547806
355 0 1 2.955413 2.328670 22.287903
356 0 1 2.535732 3.149222 22.548096
357 0 1 2.336330 2.682851 23.327698
358 0 1 2.269931 2.827380 24.257904
359 0 1 1.427570 2.464795 24.456604
360 0 1 0.944801 2.327336 23.635590
361 0 1 0.583812 1.419948 23.688507
362 0 1 1.066821 0.833627 24.354797
363 0 1 1.270301 -0.161452 24.368103
364 0 1 1.624301 -0.959012 24.679199
365 0 1 1.887401 -1.718121 25.166016
366 0 1 2.650943 -2.088513 24.733490
367 0 1 3.288841 -2.767932 25.062408
368 0 1 3.074500 -2.224263 25.848511
369 0 1 3.245570 -1.316403 25.721588
370 0 1 3.530490 -0.816262 26.465698
371 0 1 4.136783 -1.605712 26.343994
372 0 1 4.393310 -2.315572 25.732208
373 0 1 4.680843 -3.172893 26.199890
374 0 1 4.346363 -4.056733 26.479187
375 0 1 3.799712 -4.502393 25.890106
376 0 1 4.475582 -5.116963 25.775604
377 0 1 5.434463 -5.333943 25.842896
378 0 1 5.895740 -5.390382 24.987610
379 0 1 4.995990 -5.722293 24.873596
380 0 1 4.297721 -6.353183 24.788300
381 0 1 4.135322 -7.271453 24.672699
382 0 1 4.581832 -8.000953 24.126495
383 0 1 4.573360 -8.942151 23.816010
384 0 1 4.308452 -9.099153 22.922699
385 0 1 3.371562 -9.160253 22.637390
386 0 1 3.322360 -9.311753 23.637512
387 0 1 2.933280 -9.765553 24.426392
388 0 1 2.507922 -10.609551 24.190186
389 0 1 1.676009 -10.758351 24.688995
390 0 1 1.476531 -9.751153 24.758301
391 0 1 1.392192 -9.362252 23.895111
392 0 1 1.152900 -10.374253 23.906311
393 0 1 1.110851 -10.000852 22.949799
394 0 1 1.570960 -9.286553 22.515198
395 0 1 0.704271 -9.355453 22.124207
396 0 1 0.378574 -8.826953 22.888306
397 0 1 -0.697098 -8.816453 22.861603
398 0 1 -0.959084 -9.651353 23.160004
399 0 1 -0.680825 -10.084252 22.347107
400 0 1 -0.961276 -10.785352 21.809494
401 0 1 -0.411814 -11.401452 22.313507
402 0 1 -0.282641 -12.312452 22.049606
403 0 1 0.249599 -12.984352 22.492798
404 0 1 1.095531 -13.062053 22.097000
405 0 1 0.778991 -13.996453 22.266403
406 0 1 1.161891 -14.474753 22.988098
407 0 1 1.846351 -14.011252 23.591888
408 0 1 1.492782 -14.106353 24.497406
409 0 1 1.904723 -14.580352 25.206207
410 0 1 2.855373 -14.856452 25.395996
411 0 1 2.555740 -14.883653 26.257599
412 0 1 2.283363 -14.260053 26.968384
413 0 1 3.130161 -14.780953 27.094513
414 0 1 3.517173 -15.193852 26.273193
415 0 1 3.792972 -16.136152 26.258484
416 0 1 3.378352 -16.174852 25.373413
417 0 1 4.058601 -16.735052 24.854095
418 0 1 4.637771 -17.193352 24.316406
419 0 1 4.395603 -17.851952 24.992615
420 0 1 5.195381 -18.304352 24.934906
421 0 1 6.043533 -18.756351 24.943695
422 0 1 6.885372 -19.229052 25.189392
423 0 1 6.131633 -19.683451 25.531403
424 0 1 6.480812 -20.568251 25.425110
425 0 1 6.944160 -21.338352 24.985504
426 0 1 7.507801 -21.236952 25.827789
427 0 1 7.849361 -22.090752 26.010986
428 0 1 7.723342 -22.054552 26.970093
429 0 1 7.252120 -21.663151 27.707306
430 0 1 6.635780 -22.319151 27.455811
431 0 1 5.770332 -22.559252 26.936096
432 0 1 4.889892 -22.252752 27.292297
433 0 1 5.061714 -21.676451 26.584900
434 0 1 5.358821 -20.967052 27.093292
435 0 1 5.724151 -20.495152 27.806488
436 0 1 6.047782 -19.961952 28.602600
437 0 1 6.892730 -19.597351 28.486389
438 0 1 7.441513 -19.463551 27.664001
439 0 1 8.131110 -18.818651 27.958008
440 0 1 8.569392 -18.683252 27.050995
441 0 1 8.818679 -19.548651 26.647705
442 0 1 9.616073 -19.867651 27.054688
443 0 1 10.266570 -19.728151 26.326691
444 0 1 10.778872 -18.983252 26.421509
445 0 1 11.551070 -19.203951 26.901703
446 0 1 11.752669 -19.843552 27.598114
447 0 1 12.093272 -20.384451 26.890289
448 0 1 12.654571 -21.202051 26.972687
449 0 1 13.251571 -21.285252 27.825195
450 0 1 13.950873 -21.820652 27.367310
451 0 1 14.818072 -21.685951 27.064514
452 0 1 14.462470 -21.004951 26.527893
453 0 1 14.244269 -21.654251 25.880188
454 0 1 13.365672 -22.082651 25.921295
455 0 1 12.618670 -21.575151 25.662109
456 0 1 12.161571 -21.090851 24.997101
457 0 1 12.865870 -20.587952 25.486908
458 0 1 13.339072 -20.391851 24.671997
459 0 1 13.408671 -19.654251 25.211487
460 0 1 14.006770 -19.654951 25.956207
461 0 1 13.960471 -18.794151 26.311005
462 0 1 13.850471 -18.671152 27.282806
463 0 1 14.252872 -18.701651 28.156494
464 0 1 14.815471 -17.981352 28.363312
465 0 1 14.528972 -17.537552 29.180115
466 0 1 14.976569 -16.732351 29.400696
467 0 1 14.321071 -16.487652 30.041199
468 0 1 13.711471 -16.845852 30.696198
469 0 1 13.360373 -17.192051 31.568512
470 0 1 12.905871 -18.023951 31.717102
471 0 1 12.338672 -18.767952 31.586090
472 0 1 12.182170 -18.651152 30.662994
473 0 1 12.376273 -19.610851 30.766205
474 0 1 12.601970 -20.240852 31.404694
475 0 1 11.680270 -19.946451 31.347290
476 0 1 11.738971 -20.907251 31.401611
477 0 1 12.280272 -21.074152 32.229095
478 0 1 13.226771 -21.165552 32.196808
479 0 1 13.315471 -21.625551 33.061005
480 0 1 12.487372 -22.076851 33.279388
481 0 1 11.861972 -21.602852 33.819611
482 0 1 11.952571 -22.423452 34.250488
483 0 1 12.042472 -22.157051 35.155304
484 0 1 11.309772 -22.355951 35.670807
485 0 1 10.459769 -22.665352 35.904510
486 0 1 9.920074 -23.426952 36.091797
487 0 1 9.816772 -23.815851 36.963196
488 0 1 9.074512 -23.260551 37.299805
489 0 1 8.210052 -23.253952 37.684998
490 0 1 7.533283 -23.899752 37.948608
491 0 1 8.026671 -24.201651 38.701202
492 0 1 8.366851 -23.826452 39.515503
493 0 1 8.646102 -23.308052 40.351410
494 0 1 8.002002 -22.856651 40.937012
495 0 1 7.184162 -22.312752 40.896393
496 0 1 6.354023 -22.107851 40.508087
497 0 1 6.548801 -21.238852 40.076111
498 0 1 6.999530 -20.685852 39.489197
499 0 1 6.355072 -20.086752 39.789490
500 0 1 6.280990 -19.695251 38.914490
501 0 1 5.880741 -19.153152 38.176208
502 0 1 5.040081 -19.450151 38.579712
503 0 1 5.447071 -18.962952 39.350708
504 0 1 5.159862 -18.025551 39.228210
505 0 1 4.352340 -17.634352 39.458496
506 0 1 3.530830 -17.710352 39.048187
507 0 1 3.665672 -16.872452 38.604401
508 0 1 3.351333 -16.019552 38.406006
509 0 1 3.685241 -15.101253 38.298004
510 0 1 4.228523 -14.421653 38.686493
511 0 1 5.135372 -14.754052 38.961212
512 0 1 6.089660 -14.555152 39.021088
513 0 1 5.981113 -14.218152 38.166992
514 0 1 6.196071 -13.408853 37.739502
515 0 1 5.586353 -13.264552 37.007294
516 0 1 6.174240 -12.444252 36.872009
517 0 1 5.551193 -11.809452 37.303589
518 0 1 5.273712 -11.532853 36.466187
519 0 1 5.889152 -11.402053 35.729309
520 0 1 6.627422 -11.169751 36.310211
521 0 1 7.604343 -11.375052 36.342896
522 0 1 7.744270 -10.672551 36.983704
523 0 1 7.845012 -10.557853 37.972992
524 0 1 8.598620 -10.186753 38.522491
525 0 1 9.118960 -10.860452 39.011505
526 0 1 8.659930 -11.394551 39.686493
527 0 1 9.170302 -12.160353 39.935791
528 0 1 9.556769 -12.742653 40.559296
529 0 1 10.236072 -13.533353 40.470886
530 0 1 9.466670 -13.976953 40.647217
531 0 1 9.277690 -13.812152 41.559509
532 0 1 10.292670 -13.930453 41.689606
533 0 1 9.835872 -13.459653 42.427490
534 0 1 8.969779 -13.087552 42.302185
535 0 1 8.071292 -13.179753 42.754913
536 0 1 7.374263 -13.070653 43.329010
537 0 1 6.950660 -12.110752 43.432800
538 0 1 6.160072 -11.970653 43.929108
539 0 1 5.482742 -12.686453 43.705994
540 0 1 4.752651 -12.890153 44.273895
541 0 1 4.857440 -11.991452 44.739807
542 0 1 5.054580 -11.091653 44.482300
543 0 1 5.472423 -10.180753 44.316803
544 0 1 4.635292 -9.950553 44.509399
545 0 1 4.192894 -9.122453 44.147003
546 0 1 3.550292 -8.474751 44.328613
547 0 1 3.039531 -7.995053 43.638794
548 0 1 2.395133 -8.460752 44.162506
549 0 1 2.422130 -7.838052 44.855011
550 0 1 2.644931 -7.017983 45.315887
551 0 1 2.690963 -6.138043 45.694794
552 0 1 1.832881 -5.734742 46.080292
553 0 1 1.038741 -5.317464 45.518494
554 0 1 0.628091 -4.467952 45.552094
555 0 1 0.748802 -3.529853 45.486511
556 0 1 0.391822 -3.279622 46.348083
557 0 1 0.009187 -2.502372 45.888000
558 0 1 0.628402 -1.937333 45.369812
559 0 1 1.143321 -1.880723 46.182983
560 0 1 2.070201 -1.815373 46.051086
561 0 1 2.994891 -1.505772 46.013702
562 0 1 3.503051 -2.313653 46.022705
563 0 1 4.028682 -1.615882 46.462708
564 0 1 4.465812 -2.006124 47.221008
565 0 1 4.853103 -2.717372 47.788391
566 0 1 5.508781 -2.081452 47.778015
567 0 1 5.811130 -1.316033 48.236206
568 0 1 5.384010 -1.167632 49.089813
569 0 1 4.459522 -0.933343 49.410095
570 0 1 3.953182 -0.507733 50.065796
571 0 1 3.079421 -0.084113 50.160187
572 0 1 2.392562 -0.206763 49.494690
573 0 1 2.846153 0.535518 48.955505
574 0 1 3.539050 1.008607 49.444489
575 0 1 3.692950 1.561767 50.211304
576 0 1 3.485011 2.098582 51.014496
577 0 1 2.928481 2.820039 50.608002
578 0 1 2.985172 2.671596 51.605804
579 0 1 3.192603 3.514735 52.104187
580 0 1 3.092262 4.442176 52.294189
581 0 1 3.458751 4.735396 53.117493
582 0 1 3.894161 4.635497 54.001404
583 0 1 3.944423 5.570899 54.316498
584 0 1 4.661663 5.966197 54.855103
585 0 1 4.277683 6.723796 55.254517
586 0 1 4.205711 6.900496 56.171509
587 0 1 4.031673 5.996238 56.427490
588 0 1 4.855491 5.434527 56.601990
589 0 1 5.174991 4.588367 56.206512
590 0 1 4.659511 4.482116 55.417389
591 0 1 3.868732 4.934798 55.861816
592 0 1 3.322631 4.779136 56.672211
593 0 1 2.970401 3.923116 56.845612
594 0 1 3.094241 3.137422 56.243805
595 0 1 3.425681 2.342910 56.698212
596 0 1 3.127490 2.434924 57.575104
597 0 1 3.915973 2.386701 58.064697
598 0 1 4.655273 2.797347 58.699310
599 0 1 5.199253 2.304454 59.332306
600 0 1 5.445842 3.210284 59.262604
601 0 1 5.784042 4.059167 59.374207
602 0 1 5.723350 4.806716 59.883911
603 0 1 5.143730 4.994147 59.181305
604 0 1 5.386562 5.795238 59.710907
605 0 1 4.822940 6.476848 59.919708
606 0 1 4.901130 7.362197 60.312988
607 0 1 5.062763 8.286006 60.664703
608 0 1 5.406360 7.919929 61.531616
609 0 1 5.142063 7.277267 62.276184
610 0 1 5.958400 7.674739 62.708008
611 0 1 5.689041 8.381389 63.317993
612 0 1 5.884933 9.239669 63.061096
613 0 1 5.612541 8.958957 62.217285
614 0 1 4.895610 8.901347 62.811310
615 0 1 4.292232 9.693568 62.772217
616 0 1 3.722282 10.443625 62.524811
617 0 1 3.558803 10.174850 61.595093
618 0 1 3.725322 11.134086 61.588409
619 0 1 4.547931 11.582156 61.893188
620 0 1 4.640140 11.798896 62.817505
621 0 1 5.070030 12.634749 63.042694
622 0 1 4.343891 12.383399 63.717804
623 0 1 3.977641 11.417357 63.748108
624 0 1 4.295150 11.072917 64.583984
625 0 1 3.986060 10.428657 65.221191
626 0 1 4.910202 10.425517 65.470001
627 0 1 4.223960 10.640006 66.177307
628 0 1 3.801742 10.264289 66.904694
629 0 1 3.091682 10.894969 66.449585
630 0 1 2.632720 10.232169 65.951782
631 0 1 1.786662 9.847247 66.014099
632 0 1 0.978511 9.566169 66.474304
633 0 1 0.515632 9.339976 67.264282
634 0 1 0.098684 8.906718 68.135498
635 0 1 -0.626067 9.203479 67.505890
636 0 1 -1.046817 8.378028 67.250183
637 0 1 -1.543528 9.122867 66.946289
638 0 1 -2.388539 9.592628 66.967102
639 0 1 -2.322329 10.277598 67.663513
640 0 1 -2.367718 10.223479 68.678009
641 0 1 -2.066699 9.516257 69.224396
642 0 1 -2.699609 9.783858 69.826996
643 0 1 -2.982329 10.146567 70.636292
644 0 1 -2.269910 9.619239 70.892395
645 0 1 -1.649558 10.333777 71.183594
646 0 1 -0.975812 10.413218 70.481689
647 0 1 -0.667292 11.315928 70.605804
648 0 1 -1.160828 11.203918 69.780518
649 0 1 -2.089158 10.909839 69.807617
650 0 1 -2.992268 10.680057 69.533813
651 0 1 -3.862418 10.823417 69.975006
652 0 1 -4.836918 10.867007 70.118713
653 0 1 -4.452248 11.453406 70.744110
654 0 1 -4.189278 12.115676 70.145111
655 0 1 -4.355238 12.696029 70.941406
656 0 1 -4.597449 13.508647 70.549683
657 0 1 -5.317538 12.962947 70.838684
658 0 1 -5.615468 12.120910 70.343994
659 0 1 -6.017378 11.301837 70.597809
660 0 1 -6.130867 10.319160 70.672699
661 0 1 -6.938599 10.294005 70.130707
662 0 1 -7.350529 9.485656 70.362793
663 0 1 -7.294878 9.371318 71.285095
664 0 1 -6.815758 8.555655 71.533295
665 0 1 -7.493708 8.175239 70.916504
666 0 1 -7.720368 7.399489 71.540192
667 0 1 -7.663769 6.524177 71.832886
668 0 1 -6.787728 6.244487 71.473206
669 0 1 -6.973298 5.388877 71.176514
670 0 1 -7.384697 4.791228 70.547394
671 0 1 -7.365859 3.839396 70.566406
672 0 1 -6.941548 3.147454 70.056519
673 0 1 -7.169058 2.592193 70.882599
674 0 1 -7.645268 1.663377 70.655212
675 0 1 -8.102929 1.627988 71.500916
676 0 1 -7.592469 0.827668 71.658813
677 0 1 -8.442750 0.302497 71.623993
678 0 1 -9.083150 0.005677 70.919098
679 0 1 -8.924359 -0.069392 69.854004
680 0 1 -8.409509 -0.204083 69.077209
681 0 1 -7.855248 -0.124932 68.270813
682 0 1 -8.031598 -1.021172 68.591309
683 0 1 -7.680150 -1.907113 68.642212
684 0 1 -7.863617 -1.655383 67.705200
685 0 1 -7.129288 -2.256232 67.771912
686 0 1 -6.729439 -3.007503 67.257996
687 0 1 -6.516898 -2.149201 66.737610
688 0 1 -5.821478 -1.889111 66.012695
689 0 1 -4.953598 -1.460542 66.030396
690 0 1 -5.011029 -0.636582 66.607697
691 0 1 -5.880688 -0.811522 66.313904
692 0 1 -5.922657 0.086877 66.492401
693 0 1 -5.452908 0.706718 67.119110
694 0 1 -4.854249 1.396758 66.999207
695 0 1 -4.302958 2.046618 66.642700
696 0 1 -4.876898 2.445449 66.030792
697 0 1 -4.659749 3.329289 65.755096
698 0 1 -4.812520 3.982028 66.487610
699 0 1 -4.125239 4.492568 66.035400
700 0 1 -3.670798 3.638978 66.144989
701 0 1 -3.019158 3.946967 65.509094
702 0 1 -3.466779 3.660449 64.708008
703 0 1 -3.386489 3.838813 63.762390
704 0 1 -3.255019 4.316728 62.907593
705 0 1 -3.274098 3.709430 62.180206
706 0 1 -2.479890 3.579488 62.768707
707 0 1 -1.966180 4.364047 62.703613
708 0 1 -1.304974 3.786981 62.327789
709 0 1 -1.574279 3.387076 61.454285
710 0 1 -0.758021 2.913697 61.506714
711 0 1 0.061773 2.472497 61.848511
712 0 1 -0.689543 2.028029 62.255310
713 0 1 -0.326302 1.164777 62.580688
714 0 1 -0.570151 0.222997 62.719116
715 0 1 -0.555396 0.088338 63.654907
716 0 1 0.377927 0.092008 63.471100
717 0 1 0.305841 -0.845653 63.763916
718 0 1 -0.132786 -0.896472 64.619293
719 0 1 -0.963494 -1.279073 64.868896
720 0 1 -0.271334 -1.950322 64.897583
721 0 1 -0.498404 -2.347182 64.016693
722 0 1 -1.198430 -2.074082 63.423492
723 0 1 -2.143328 -2.208753 63.294708
724 0 1 -2.291718 -1.437463 63.814392
725 0 1 -2.575648 -1.827172 64.643097
726 0 1 -2.797919 -2.029073 65.536499
727 0 1 -2.638499 -1.463042 66.274597
728 0 1 -2.111979 -2.301892 66.346008
729 0 1 -2.387028 -3.204463 66.258392
730 0 1 -1.665698 -3.699832 65.782715
731 0 1 -1.015626 -4.023793 66.417603
732 0 1 -0.286298 -3.485333 66.643799
733 0 1 -0.004630 -4.319602 66.230804
734 0 1 0.428060 -3.760682 65.509583
735 0 1 0.810912 -3.217563 66.207886
736 0 1 0.777471 -2.398572 65.757019
737 0 1 0.856332 -1.786933 64.980194
738 0 1 1.034633 -2.569413 64.467804
739 0 1 1.596053 -2.136003 63.857391
740 0 1 2.512012 -1.928342 64.231689
741 0 1 3.090423 -1.361092 63.792114
742 0 1 3.204482 -1.109082 62.884003
743 0 1 3.324073 -0.312623 62.303894
744 0 1 3.326511 0.511937 62.810486
745 0 1 4.251590 0.280467 62.945496
746 0 1 4.742321 -0.183183 63.730499
747 0 1 5.033050 -0.896373 63.171509
748 0 1 4.403602 -1.611153 63.027588
749 0 1 4.104652 -2.159902 62.271393
750 0 1 3.852382 -1.503133 61.651001
751 0 1 3.301662 -1.890403 60.911499
752 0 1 2.616302 -1.322053 60.341003
753 0 1 1.734912 -1.430703 59.919891
754 0 1 1.213680 -0.855002 60.461609
755 0 1 0.702831 -0.545773 59.719604
756 0 1 0.624862 0.429858 59.608704
757 0 1 -0.008231 1.130138 59.384399
758 0 1 -0.319743 1.977759 58.897003
759 0 1 0.640512 1.927247 58.794617
760 0 1 0.576042 1.184537 58.149597
761 0 1 1.453891 0.761598 58.035400
762 0 1 1.926513 0.979077 57.239502
763 0 1 2.652190 1.000728 56.509399
764 0 1 2.379279 1.342288 55.647888
765 0 1 2.262702 2.197875 55.312103
766 0 1 1.577663 2.100104 55.945404
767 0 1 1.527560 2.866239 56.479004
768 0 1 1.126483 3.771213 56.213501
769 0 1 1.684360 4.424527 55.847992
770 0 1 1.475433 5.025176 55.166901
771 0 1 1.061893 4.379897 54.572510
772 0 1 1.299953 3.465056 54.254089
773 0 1 1.966773 2.870412 53.803284
774 0 1 1.301761 3.112697 53.138000
775 0 1 0.429935 2.727073 52.908813
776 0 1 -0.512147 2.874789 52.726898
777 0 1 -0.555127 2.175620 53.363892
778 0 1 -0.679091 1.471568 52.730896
779 0 1 -0.898047 1.263547 51.817596
780 0 1 -1.310206 1.578529 50.930908
781 0 1 -1.622599 1.758498 49.998688
782 0 1 -1.101741 1.100888 49.653595
783 0 1 -1.842368 1.314138 49.087006
784 0 1 -2.545508 0.652587 48.987213
785 0 1 -3.163939 0.207418 48.395203
786 0 1 -3.776868 -0.542413 48.446198
787 0 1 -4.168189 -0.348332 47.562988
788 0 1 -4.694279 0.499358 47.728516
789 0 1 -4.336709 0.727157 46.820984
790 0 1 -4.165888 1.671968 46.674103
791 0 1 -3.672019 2.057815 45.825287
792 0 1 -3.652570 1.975246 44.830597