LAMMPS data file via MDAnalysis

        1000  atoms
        1000  bonds
        1000  angles
           0  dihedrals
           0  impropers

           1  atom types
           1  bond types
           1  angle types
           0  dihedral types
           0  improper types

0.000000 16.000000 xlo xhi
0.000000 16.000000 ylo yhi
0.000000 1257.000000 zlo zhi


Masses

1 1.000000

Atoms

1 0 1 7.826996 3.280390 453.588013
2 0 1 7.954950 3.031170 454.462006
3 0 1 8.191467 3.317280 455.333984
4 0 1 8.483164 3.532650 456.242004
5 0 1 8.863596 3.311210 457.136993
6 0 1 9.184020 3.143120 458.054993
7 0 1 9.201800 3.139620 459.009003
8 0 1 8.901868 3.494510 459.872986
9 0 1 8.493223 3.709550 460.700012
10 0 1 8.167748 3.952350 461.580017
11 0 1 7.772487 4.032520 462.494019
12 0 1 7.196700 3.905480 463.372009
13 0 1 6.753530 3.716600 464.250000
14 0 1 6.533260 3.750610 465.214996
15 0 1 6.346700 3.849080 466.225006
16 0 1 6.407350 3.934770 467.164001
17 0 1 6.428710 4.291180 468.046021
18 0 1 7.022846 4.587760 468.839996
19 0 1 7.392681 4.559930 469.733002
20 0 1 7.699691 5.005260 470.554016
21 0 1 7.801719 5.316430 471.468994
22 0 1 7.708974 5.762670 472.291016
23 0 1 7.718024 6.173880 473.214996
24 0 1 7.702647 6.389750 474.197998
25 0 1 7.651975 6.486610 475.158020
26 0 1 7.418269 6.693270 476.039001
27 0 1 7.152772 6.889610 476.908020
28 0 1 7.003287 6.993150 477.897003
29 0 1 6.766070 7.176924 478.799011
30 0 1 6.751430 7.521746 479.760010
31 0 1 6.639490 8.258786 480.463989
32 0 1 6.463190 8.841492 481.238007
33 0 1 6.055580 9.504390 481.893005
34 0 1 5.734640 9.967450 482.630005
35 0 1 5.344100 10.305400 483.398010
36 0 1 5.032820 10.206810 484.359985
37 0 1 4.782580 9.960980 485.255981
38 0 1 4.368480 9.914260 486.161011
39 0 1 3.919160 9.945270 487.106018
40 0 1 3.584810 10.206310 487.940979
41 0 1 3.713850 10.368950 488.903015
42 0 1 3.789900 10.530149 489.851013
43 0 1 3.646880 10.596240 490.789001
44 0 1 3.807890 10.528310 491.739014
45 0 1 3.953080 10.574340 492.681000
46 0 1 4.153050 10.579969 493.641998
47 0 1 4.200890 10.914100 494.563995
48 0 1 4.247010 11.295670 495.444000
49 0 1 4.499480 11.255170 496.335999
50 0 1 5.011730 11.164230 497.140015
51 0 1 5.548390 11.369810 497.897003
52 0 1 5.976080 11.460260 498.726990
53 0 1 6.374850 11.768440 499.500000
54 0 1 6.659930 11.979700 500.406982
55 0 1 7.052205 11.981430 501.277008
56 0 1 7.522156 11.830990 502.083984
57 0 1 7.673976 11.657300 502.997009
58 0 1 7.820258 11.274820 503.873993
59 0 1 7.996184 11.100570 504.794983
60 0 1 8.202338 11.004350 505.714996
61 0 1 8.601290 10.918690 506.595001
62 0 1 9.158490 10.734550 507.376007
63 0 1 9.330070 10.423830 508.348999
64 0 1 9.222100 10.480710 509.345001
65 0 1 9.156510 10.220310 510.281982
66 0 1 8.902148 10.064860 511.164001
67 0 1 8.687221 9.911570 512.104004
68 0 1 8.461274 9.526510 513.015991
69 0 1 8.547376 9.344080 513.976990
70 0 1 8.298754 9.039710 514.818970
71 0 1 7.882888 8.834590 515.693970
72 0 1 7.304119 8.975288 516.437012
73 0 1 6.600940 8.925701 517.148010
74 0 1 6.488970 8.828910 518.134033
75 0 1 6.597750 9.134690 519.091980
76 0 1 6.625880 9.405550 520.023010
77 0 1 6.783520 9.502810 520.994995
78 0 1 6.814700 9.400100 522.000000
79 0 1 7.025958 9.400930 522.929016
80 0 1 7.225974 9.324190 523.929016
81 0 1 7.399475 9.152620 524.869019
82 0 1 7.620732 8.850163 525.755981
83 0 1 8.039947 8.321738 526.528015
84 0 1 8.015080 7.623882 527.229004
85 0 1 7.846246 6.997820 527.893005
86 0 1 7.924685 6.520470 528.751831
87 0 1 7.931039 6.239060 529.670410
88 0 1 7.846434 6.258600 530.559082
89 0 1 7.811127 6.606330 531.473206
90 0 1 8.028938 6.875590 532.327820
91 0 1 8.119061 7.014574 533.303894
92 0 1 8.017648 7.041078 534.296082
93 0 1 7.745074 7.278352 535.168579
94 0 1 7.777510 7.287240 536.142822
95 0 1 7.660867 7.651505 537.012573
96 0 1 7.303681 7.825662 537.910400
97 0 1 6.838830 7.965874 538.783081
98 0 1 6.299710 7.927772 539.548828
99 0 1 5.913180 8.118239 540.420166
100 0 1 5.611380 8.534468 541.314087
101 0 1 5.683720 8.881188 542.182190
102 0 1 5.559960 9.169621 543.009033
103 0 1 5.344550 9.264750 543.945007
104 0 1 5.147920 9.573610 544.803467
105 0 1 5.191430 9.860070 545.694580
106 0 1 5.472040 10.474880 546.402710
107 0 1 5.664970 10.952840 547.216614
108 0 1 5.948000 11.321030 548.083191
109 0 1 6.109850 11.472919 548.955933
110 0 1 6.470050 11.319201 549.875977
111 0 1 6.632040 10.879260 550.689026
112 0 1 6.903210 10.315470 551.472290
113 0 1 7.048851 9.813190 552.321594
114 0 1 6.878600 9.397460 553.174500
115 0 1 6.785190 9.040060 554.045715
116 0 1 6.714190 8.822079 555.029724
117 0 1 6.833060 8.586739 555.942688
118 0 1 7.218316 8.621229 556.861023
119 0 1 7.381007 8.749215 557.850281
120 0 1 7.237411 8.901903 558.786316
121 0 1 6.933840 9.013750 559.689026
122 0 1 6.319880 8.953532 560.506775
123 0 1 5.734060 8.897396 561.262085
124 0 1 5.175370 8.921628 562.038208
125 0 1 4.839040 9.322100 562.856995
126 0 1 4.457440 9.510680 563.792908
127 0 1 4.393880 9.443100 564.727112
128 0 1 4.470100 9.589830 565.653809
129 0 1 4.635090 9.516640 566.606873
130 0 1 4.808980 9.659090 567.510315
131 0 1 4.769620 9.950130 568.467773
132 0 1 4.668960 10.308661 569.322021
133 0 1 4.637510 10.601000 570.269409
134 0 1 4.784000 10.848391 571.254883
135 0 1 5.126790 10.922850 572.090332
136 0 1 5.537510 11.094800 572.890015
137 0 1 6.027420 11.216640 573.736389
138 0 1 6.351730 11.421280 574.599304
139 0 1 6.689880 11.492960 575.432983
140 0 1 7.177014 11.360460 576.299377
141 0 1 7.701762 11.138610 577.118713
142 0 1 8.444196 11.188960 577.711792
143 0 1 9.243000 11.395580 578.249268
144 0 1 9.904420 11.678550 578.860413
145 0 1 10.370131 12.012199 579.695190
146 0 1 10.978100 12.190110 580.488281
147 0 1 11.392360 11.894570 581.350525
148 0 1 11.894830 11.821130 582.127319
149 0 1 12.358530 11.751750 582.979004
150 0 1 12.642691 11.506880 583.847778
151 0 1 12.797140 11.239570 584.753479
152 0 1 12.587339 10.837550 585.581909
153 0 1 12.538380 10.253730 586.325378
154 0 1 12.505290 9.636730 587.155579
155 0 1 12.669490 8.984218 587.908875
156 0 1 12.365860 8.508779 588.704590
157 0 1 11.828880 8.112387 589.414185
158 0 1 11.352591 7.680870 590.035828
159 0 1 11.139400 7.332214 590.916321
160 0 1 11.022640 7.077842 591.816895
161 0 1 10.954560 6.910020 592.745178
162 0 1 10.603680 6.957830 593.661072
163 0 1 10.078630 7.078142 594.506897
164 0 1 9.456180 7.370443 595.075073
165 0 1 8.743807 7.698289 595.663696
166 0 1 8.099360 8.217453 596.130005
167 0 1 7.517982 8.755606 596.781799
168 0 1 7.080016 9.188260 597.479492
169 0 1 6.516980 9.413310 598.222473
170 0 1 6.146850 9.680470 599.059998
171 0 1 5.528900 9.931830 599.812927
172 0 1 5.189150 10.229270 600.715027
173 0 1 5.323480 10.472370 601.687500
174 0 1 5.274520 10.663580 602.625977
175 0 1 5.192550 10.695400 603.590515
176 0 1 5.099520 10.414670 604.501831
177 0 1 5.274000 10.322240 605.476624
178 0 1 5.472710 10.273251 606.441406
179 0 1 5.374500 10.458490 607.368591
180 0 1 5.227580 10.360770 608.367188
181 0 1 4.691480 10.407210 609.274414
182 0 1 4.550980 10.234290 610.223694
183 0 1 4.734010 10.068490 611.156372
184 0 1 4.970290 9.509540 611.919189
185 0 1 5.034440 9.027210 612.761902
186 0 1 5.032980 8.448996 613.519287
187 0 1 5.104800 7.831635 614.212585
188 0 1 5.226940 7.317531 615.055176
189 0 1 4.961970 6.846430 615.866699
190 0 1 4.671580 6.716080 616.785400
191 0 1 4.611240 6.625560 617.757080
192 0 1 4.692140 6.710980 618.684814
193 0 1 4.615400 6.660010 619.676819
194 0 1 4.388890 6.799280 620.614075
195 0 1 4.050550 7.082361 621.436218
196 0 1 3.707780 7.170157 622.315491
197 0 1 3.667580 7.570714 623.195984
198 0 1 3.901420 7.977433 623.993591
199 0 1 4.073410 7.777794 624.964783
200 0 1 4.291090 7.232864 625.729065
201 0 1 4.333840 6.903040 626.669800
202 0 1 4.380910 7.220924 627.551208
203 0 1 4.440690 7.347018 628.560913
204 0 1 4.075690 7.723730 629.385315
205 0 1 3.532010 7.894747 630.175781
206 0 1 3.162040 8.099009 631.039124
207 0 1 2.743820 8.333867 631.864319
208 0 1 2.725340 8.813434 632.738647
209 0 1 2.400360 9.261660 633.514160
210 0 1 2.106110 9.587980 634.389526
211 0 1 2.093770 9.894350 635.297363
212 0 1 2.122430 10.187150 636.211670
213 0 1 2.682870 10.303350 636.986450
214 0 1 3.221650 9.900860 637.723999
215 0 1 3.799940 9.385730 638.277039
216 0 1 4.187950 8.754764 638.952515
217 0 1 4.770360 8.324999 639.499878
218 0 1 5.509780 8.165767 640.182312
219 0 1 6.310380 8.202896 640.639771
220 0 1 6.985280 8.078476 641.339722
221 0 1 7.688773 8.108938 642.052185
222 0 1 8.287204 8.089077 642.813721
223 0 1 8.788267 8.335020 643.710022
224 0 1 9.125250 8.534293 644.597473
225 0 1 9.355890 9.056110 645.417297
226 0 1 9.516020 9.569540 646.193970
227 0 1 9.854990 9.924970 647.005981
228 0 1 10.268130 10.337260 647.750793
229 0 1 10.963770 10.667990 648.338074
230 0 1 11.776950 10.866261 648.923096
231 0 1 12.349990 11.207770 649.633972
232 0 1 12.802340 11.355530 650.539490
233 0 1 13.070180 11.237490 651.406189
234 0 1 13.099939 11.031950 652.332520
235 0 1 13.311251 10.707650 653.209717
236 0 1 13.347839 10.359240 654.073914
237 0 1 13.152250 9.902020 654.976013
238 0 1 13.038219 9.443160 655.850281
239 0 1 12.712270 8.993953 656.603210
240 0 1 12.292210 8.637433 657.346497
241 0 1 11.803770 8.569518 658.182373
242 0 1 11.288240 8.622618 658.970886
243 0 1 10.918370 8.805105 659.843689
244 0 1 10.405700 8.994558 660.721375
245 0 1 9.787540 9.220140 661.405029
246 0 1 9.461500 9.492510 662.298401
247 0 1 8.991385 9.709540 663.055298
248 0 1 8.525800 9.925190 663.906189
249 0 1 7.856237 10.044530 664.617310
250 0 1 7.259741 10.003510 665.309570
251 0 1 6.601040 10.023610 665.954224
252 0 1 5.909600 10.520790 666.536987
253 0 1 5.437720 11.011930 667.185791
254 0 1 4.972410 11.576950 667.829712
255 0 1 4.603160 12.050900 668.546204
256 0 1 4.400330 12.450650 669.424316
257 0 1 4.408050 12.985780 670.192505
258 0 1 4.340060 13.482470 671.078796
259 0 1 4.887590 13.980340 671.849609
260 0 1 5.259060 14.197610 672.727417
261 0 1 6.014070 14.124610 673.279480
262 0 1 6.656350 13.958250 674.011780
263 0 1 7.041693 13.729691 674.839172
264 0 1 7.281884 13.825399 675.770813
265 0 1 7.276205 13.722560 676.689087
266 0 1 7.148418 13.778151 677.678101
267 0 1 7.119489 13.666719 678.607788
268 0 1 7.181162 13.867200 679.574585
269 0 1 7.325293 13.835560 680.464172
270 0 1 7.403917 14.035620 681.462585
271 0 1 7.389331 14.529340 682.306519
272 0 1 7.073107 14.705790 683.213379
273 0 1 6.820160 14.650021 684.158325
274 0 1 6.556050 14.644040 685.114868
275 0 1 6.018650 14.266621 685.806274
276 0 1 5.721730 13.767340 686.535278
277 0 1 5.254120 13.333460 687.245728
278 0 1 4.674690 12.826010 687.946899
279 0 1 4.317680 12.374360 688.741821
280 0 1 4.354460 12.242290 689.690796
281 0 1 4.729190 12.234840 690.592712
282 0 1 5.148350 12.219690 691.479492
283 0 1 5.443540 12.388000 692.383911
284 0 1 6.003850 12.445910 693.138428
285 0 1 6.547060 12.878901 693.789795
286 0 1 7.309232 13.235530 694.254395
287 0 1 8.177358 13.376490 694.645020
288 0 1 8.848785 13.329420 695.358398
289 0 1 9.090510 13.202650 696.216431
290 0 1 9.217440 12.802150 697.097168
291 0 1 9.401860 12.587410 698.062195
292 0 1 9.276100 12.238410 698.977112
293 0 1 8.943064 12.087481 699.823730
294 0 1 8.830806 12.090000 700.801575
295 0 1 8.838871 12.189150 701.716431
296 0 1 8.718540 12.259340 702.728821
297 0 1 8.478507 12.505140 703.590881
298 0 1 8.263407 12.594130 704.529114
299 0 1 7.878449 12.719971 705.430420
300 0 1 7.540023 12.812380 706.339966
301 0 1 7.304926 13.192810 707.230103
302 0 1 6.979680 13.786060 708.005920
303 0 1 6.673660 14.034030 708.819519
304 0 1 6.415680 14.256240 709.703674
305 0 1 6.079280 14.030490 710.624512
306 0 1 5.570210 13.609440 711.404602
307 0 1 5.349470 13.300720 712.328186
308 0 1 5.315570 13.265130 713.292175
309 0 1 5.446900 13.144920 714.296021
310 0 1 5.585570 13.012310 715.216675
311 0 1 5.881100 12.799709 716.079407
312 0 1 6.247300 12.799931 716.932495
313 0 1 6.515560 12.576780 717.937012
314 0 1 6.815840 12.342609 718.837585
315 0 1 7.013844 11.954430 719.782227
316 0 1 7.243912 11.696050 720.656677
317 0 1 7.568308 11.276360 721.447632
318 0 1 8.114236 11.022940 722.153809
319 0 1 8.522920 10.780990 722.980286
320 0 1 9.104321 10.911370 723.790527
321 0 1 9.773720 10.772449 724.435303
322 0 1 10.431640 10.892981 725.106323
323 0 1 11.133580 10.832180 725.780823
324 0 1 11.643460 10.949471 726.593201
325 0 1 12.189939 10.786680 727.335083
326 0 1 12.584010 10.680490 728.177979
327 0 1 13.000820 10.527390 729.057983
328 0 1 13.090670 10.151340 729.867981
329 0 1 13.488450 9.854640 730.773010
330 0 1 13.681749 9.339560 731.552979
331 0 1 14.023060 8.725618 732.218994
332 0 1 13.951469 8.112247 732.987000
333 0 1 13.570721 7.704649 733.807007
334 0 1 12.985920 7.158331 734.452026
335 0 1 12.289539 6.659010 734.867004
336 0 1 11.552660 6.458150 735.427002
337 0 1 10.905240 6.508000 736.143005
338 0 1 10.190790 6.370510 736.789001
339 0 1 9.532950 6.342720 737.481995
340 0 1 8.844677 6.188640 738.120972
341 0 1 8.386058 5.901280 738.922974
342 0 1 8.018874 5.503090 739.625000
343 0 1 7.544898 5.113510 740.388977
344 0 1 7.354679 4.739010 741.234985
345 0 1 7.345714 4.697240 742.179016
346 0 1 7.272021 4.686810 743.103027
347 0 1 6.795850 4.539140 743.994019
348 0 1 6.347410 4.684760 744.807007
349 0 1 5.817650 4.704790 745.679993
350 0 1 5.374140 4.822960 746.562988
351 0 1 4.896770 4.982080 747.391968
352 0 1 4.514140 4.993190 748.236023
353 0 1 4.283410 5.096420 749.182007
354 0 1 4.192180 5.021940 750.108032
355 0 1 4.089410 5.500430 750.931030
356 0 1 4.258670 5.882910 751.812988
357 0 1 4.434800 6.281720 752.663025
358 0 1 4.802410 6.609940 753.500977
359 0 1 5.121400 6.854940 754.358032
360 0 1 5.154630 6.721120 755.341980
361 0 1 5.404200 6.627990 756.273010
362 0 1 5.258550 6.690150 757.210999
363 0 1 5.071720 6.831680 758.190002
364 0 1 4.644220 6.998940 759.049011
365 0 1 4.449870 6.797750 759.989014
366 0 1 4.056280 6.629890 760.879028
367 0 1 3.633770 6.554000 761.747009
368 0 1 3.269150 6.584850 762.622986
369 0 1 3.609130 6.859320 763.432983
370 0 1 3.874570 6.882320 764.317993
371 0 1 3.975540 6.867790 765.302979
372 0 1 4.261500 6.787060 766.229004
373 0 1 4.634670 6.741730 767.181030
374 0 1 5.126760 6.690030 767.981018
375 0 1 5.620960 6.564660 768.833984
376 0 1 6.045940 6.538250 769.687012
377 0 1 6.248090 6.942200 770.593018
378 0 1 6.176230 7.007643 771.544006
379 0 1 5.979420 7.049949 772.476013
380 0 1 5.605690 7.122262 773.379028
381 0 1 4.996810 7.142736 774.117004
382 0 1 4.717130 7.378628 775.039978
383 0 1 4.389890 7.756177 775.947021
384 0 1 4.123710 8.099129 776.786987
385 0 1 4.051400 8.430550 777.677979
386 0 1 4.183920 8.756274 778.542969
387 0 1 4.135970 9.132780 779.421021
388 0 1 4.211410 9.384000 780.296997
389 0 1 4.152800 9.373480 781.281006
390 0 1 4.466430 9.228500 782.106995
391 0 1 5.001240 9.005410 782.880981
392 0 1 5.476440 8.948630 783.742004
393 0 1 5.778000 9.096180 784.658020
394 0 1 6.163140 9.033500 785.520020
395 0 1 6.388640 8.990885 786.460022
396 0 1 6.644780 8.632608 787.327026
397 0 1 6.844110 8.036534 788.101990
398 0 1 7.220963 7.667647 788.942993
399 0 1 7.388506 7.071810 789.695007
400 0 1 7.557289 6.728450 790.630981
401 0 1 7.348488 6.618970 791.589966
402 0 1 7.282557 6.728690 792.549011
403 0 1 7.346253 6.957740 793.487000
404 0 1 6.987660 7.410201 794.263000
405 0 1 6.533860 7.729060 795.010010
406 0 1 6.087100 7.840664 795.858032
407 0 1 5.402590 7.713754 796.427002
408 0 1 4.906560 7.694643 797.351990
409 0 1 4.356700 7.530551 798.083008
410 0 1 3.811810 7.829490 798.804993
411 0 1 3.404270 7.849311 799.679993
412 0 1 3.372230 8.135195 800.640015
413 0 1 3.383300 8.465567 801.554993
414 0 1 3.361980 9.009790 802.372986
415 0 1 2.832920 9.196990 803.205994
416 0 1 2.449560 9.454220 804.023987
417 0 1 2.204290 9.758820 804.950989
418 0 1 2.240430 9.729910 805.936035
419 0 1 2.395690 9.586790 806.872986
420 0 1 2.817940 9.087140 807.598022
421 0 1 3.213040 8.911740 808.492981
422 0 1 3.620450 8.911986 809.422974
423 0 1 4.013630 9.145600 810.276001
424 0 1 4.441070 9.538720 811.026001
425 0 1 4.895930 9.962480 811.761963
426 0 1 5.526540 10.114920 812.528992
427 0 1 5.776610 10.518940 813.315979
428 0 1 6.010990 10.934050 814.125977
429 0 1 6.387060 11.339951 814.940002
430 0 1 6.811590 11.568240 815.755005
431 0 1 6.862440 11.587240 816.687988
432 0 1 6.848170 11.520700 817.632019
433 0 1 6.949480 11.170520 818.500977
434 0 1 6.909310 10.843430 819.377991
435 0 1 7.125563 10.485900 820.200989
436 0 1 7.272370 10.130490 821.077026
437 0 1 7.507970 9.728660 821.914001
438 0 1 7.832213 9.545300 822.833008
439 0 1 7.829856 9.549960 823.789978
440 0 1 8.002035 9.620800 824.737000
441 0 1 8.220009 9.495290 825.653992
442 0 1 8.271985 9.330250 826.599976
443 0 1 8.440950 9.629720 827.533997
444 0 1 8.470368 9.882380 828.494995
445 0 1 8.353064 10.057590 829.422974
446 0 1 8.334535 10.291340 830.356018
447 0 1 8.233713 10.471320 831.307983
448 0 1 8.190965 10.466640 832.252014
449 0 1 8.074593 10.411150 833.187012
450 0 1 7.823473 10.395090 834.120972
451 0 1 7.630633 10.454930 835.070007
452 0 1 7.196065 10.071310 835.885986
453 0 1 6.859340 9.503800 836.549011
454 0 1 6.791700 8.785007 837.190002
455 0 1 6.181020 8.133949 837.565979
456 0 1 5.420610 7.588939 837.768982
457 0 1 4.600800 7.127724 837.754028
458 0 1 3.864420 6.638180 837.250977
459 0 1 3.336990 6.068890 836.604980
460 0 1 2.920790 5.663240 835.851990
461 0 1 2.592510 5.210560 835.057007
462 0 1 2.296570 5.023600 834.202026
463 0 1 2.114850 5.028870 833.231995
464 0 1 2.139340 5.058610 832.270996
465 0 1 2.372100 4.774720 831.332031
466 0 1 2.488370 4.413810 830.471008
467 0 1 2.793140 3.962930 829.719971
468 0 1 3.311390 3.712450 828.950012
469 0 1 4.006220 3.333270 828.339966
470 0 1 4.665200 3.200570 827.583008
471 0 1 5.198340 3.112740 826.773010
472 0 1 5.527350 2.806760 825.886963
473 0 1 5.951440 2.684040 824.978027
474 0 1 6.668600 2.710990 824.266968
475 0 1 7.307237 2.702360 823.485962
476 0 1 8.092890 2.827900 823.046997
477 0 1 8.636135 3.431880 822.497986
478 0 1 8.848673 4.035630 821.820984
479 0 1 8.857070 4.642310 821.143982
480 0 1 9.065900 4.934660 820.252014
481 0 1 9.096490 5.174860 819.296021
482 0 1 9.226610 5.270770 818.309998
483 0 1 9.312580 5.200250 817.317017
484 0 1 9.691830 5.001150 816.492004
485 0 1 10.139760 5.027320 815.629028
486 0 1 10.821730 5.242160 815.020020
487 0 1 11.438590 5.265310 814.328979
488 0 1 11.926390 5.516950 813.563965
489 0 1 12.301510 5.412710 812.629028
490 0 1 12.206841 4.800870 811.863037
491 0 1 12.022110 4.471220 810.983032
492 0 1 11.761909 4.322870 810.070984
493 0 1 11.429290 4.019320 809.205994
494 0 1 11.340720 3.690790 808.359985
495 0 1 10.950960 3.291560 807.515991
496 0 1 10.709320 2.936080 806.671997
497 0 1 10.194890 2.458380 805.953003
498 0 1 9.861980 2.117250 805.146973
499 0 1 9.619650 1.800720 804.192017
500 0 1 9.456660 1.521030 803.320984
501 0 1 9.401970 1.430590 802.338989
502 0 1 9.709090 1.775720 801.474976
503 0 1 9.991230 2.377940 800.781982
504 0 1 10.258660 3.148020 800.349976
505 0 1 10.122380 4.087330 799.942993
506 0 1 10.156981 4.711670 799.286011
507 0 1 9.931350 5.487620 798.721985
508 0 1 9.779540 6.208370 798.103027
509 0 1 9.742380 6.582590 797.223022
510 0 1 10.026421 6.828570 796.229004
511 0 1 10.542940 7.259679 795.562012
512 0 1 10.835270 7.918209 794.957031
513 0 1 11.317230 8.383911 794.341003
514 0 1 11.829741 8.975934 793.710022
515 0 1 12.494600 9.120040 792.978027
516 0 1 12.891860 9.228140 792.115967
517 0 1 12.946770 9.508090 791.169006
518 0 1 12.815781 9.709010 790.237000
519 0 1 12.418470 9.997030 789.414978
520 0 1 11.846500 10.411940 788.703979
521 0 1 11.215590 10.817090 788.109009
522 0 1 10.698270 11.143240 787.341003
523 0 1 10.282030 11.351980 786.544006
524 0 1 9.875190 11.251930 785.664978
525 0 1 9.510480 11.033560 784.771973
526 0 1 9.057310 10.946400 783.926025
527 0 1 8.706259 10.952300 783.075012
528 0 1 8.235880 10.840130 782.239014
529 0 1 7.773763 10.622440 781.440979
530 0 1 7.523673 10.552650 780.559998
531 0 1 7.436410 10.576580 779.593994
532 0 1 7.231227 10.447090 778.645996
533 0 1 6.931390 10.693510 777.737000
534 0 1 6.662800 10.955220 776.885986
535 0 1 6.461210 11.139250 775.990967
536 0 1 6.282670 11.183610 775.096985
537 0 1 6.204420 11.341470 774.171997
538 0 1 6.349390 11.346230 773.200989
539 0 1 6.460970 11.284290 772.286987
540 0 1 6.467340 11.076290 771.393982
541 0 1 6.466350 10.664310 770.565002
542 0 1 6.360450 10.027500 769.854004
543 0 1 6.555320 9.412520 769.174011
544 0 1 6.874440 8.890812 768.463013
545 0 1 7.295313 8.301835 767.869019
546 0 1 7.911414 7.603277 767.671021
547 0 1 8.403216 6.908690 767.174011
548 0 1 9.012540 6.411670 766.572021
549 0 1 9.478500 6.178930 765.754028
550 0 1 9.908430 6.126250 764.906006
551 0 1 10.289150 6.017840 764.018005
552 0 1 10.691060 5.868440 763.117981
553 0 1 11.196150 5.642050 762.386963
554 0 1 11.560190 5.340210 761.559021
555 0 1 11.882660 4.817320 760.734985
556 0 1 11.990380 4.836800 759.791016
557 0 1 12.151480 4.888740 758.858032
558 0 1 12.449240 5.190000 758.010986
559 0 1 12.957911 5.487500 757.244019
560 0 1 13.093850 5.684020 756.323975
561 0 1 13.159840 5.822810 755.341003
562 0 1 12.994930 5.676400 754.417969
563 0 1 12.802010 5.716640 753.429016
564 0 1 12.747630 5.957750 752.471008
565 0 1 12.675779 6.237660 751.596985
566 0 1 12.698009 6.516890 750.690979
567 0 1 12.737260 6.400550 749.736023
568 0 1 12.391060 6.250090 748.895020
569 0 1 11.943790 5.964550 748.046997
570 0 1 11.522330 5.392050 747.424011
571 0 1 10.975980 4.750140 747.023987
572 0 1 10.333981 4.194910 746.627014
573 0 1 9.723890 3.550750 746.218018
574 0 1 9.387490 3.214670 745.393982
575 0 1 9.075100 2.957970 744.492004
576 0 1 8.787374 2.868330 743.515991
577 0 1 8.636085 2.838620 742.559021
578 0 1 8.414076 2.630540 741.681030
579 0 1 8.238054 2.703260 740.692993
580 0 1 7.991412 2.768700 739.833984
581 0 1 7.618542 2.986880 738.994995
582 0 1 7.465892 3.430020 738.163025
583 0 1 7.248179 3.624930 737.229004
584 0 1 7.114298 3.723920 736.198975
585 0 1 6.900620 3.855380 735.281982
586 0 1 6.660400 3.718210 734.348022
587 0 1 6.598600 3.549210 733.426025
588 0 1 6.679600 3.547520 732.455017
589 0 1 6.740830 3.901650 731.520996
590 0 1 6.838750 4.320970 730.634033
591 0 1 7.246927 4.452990 729.792969
592 0 1 7.488701 4.164290 728.906006
593 0 1 7.454501 3.701740 728.012573
594 0 1 7.528760 3.541470 727.065796
595 0 1 7.610324 3.336460 726.172607
596 0 1 7.701453 3.169710 725.208679
597 0 1 7.726079 3.304070 724.283508
598 0 1 7.613418 3.663250 723.413879
599 0 1 7.678234 4.003310 722.502197
600 0 1 7.897406 4.528730 721.681213
601 0 1 8.102031 5.079080 720.949280
602 0 1 8.157038 5.483860 720.125732
603 0 1 8.255522 5.960390 719.294678
604 0 1 8.315647 6.481300 718.460999
605 0 1 8.268539 6.724400 717.524292
606 0 1 8.152528 7.067406 716.641785
607 0 1 7.822478 7.485551 715.860901
608 0 1 7.554918 7.909729 714.984131
609 0 1 7.239356 8.294790 714.139771
610 0 1 6.993800 8.730724 713.331909
611 0 1 6.461480 9.248780 712.697815
612 0 1 6.085130 9.762270 711.966675
613 0 1 5.625140 10.177410 711.209229
614 0 1 5.249760 10.676710 710.503906
615 0 1 5.016490 10.976410 709.593811
616 0 1 4.771810 11.199640 708.664124
617 0 1 4.589220 11.067560 707.722168
618 0 1 4.752920 10.979490 706.775513
619 0 1 4.797720 10.968540 705.717407
620 0 1 4.786850 10.837440 704.686096
621 0 1 5.121940 10.364850 703.888672
622 0 1 5.257990 9.551380 703.384888
623 0 1 5.607190 8.811759 702.800781
624 0 1 5.866370 8.174846 702.081482
625 0 1 6.081730 7.685443 701.342773
626 0 1 6.173540 7.049423 700.614868
627 0 1 6.510230 6.788720 699.690430
628 0 1 6.760080 6.660390 698.711487
629 0 1 6.905960 6.650800 697.773315
630 0 1 7.024787 6.752000 696.831116
631 0 1 7.381689 6.742510 695.907227
632 0 1 7.885092 6.582960 695.107483
633 0 1 8.481533 6.581950 694.306824
634 0 1 9.075410 6.749500 693.548401
635 0 1 9.842230 6.766530 692.863586
636 0 1 10.404100 6.645260 692.012329
637 0 1 10.901720 6.645730 691.269775
638 0 1 11.292270 6.629000 690.408691
639 0 1 11.513450 6.563280 689.452026
640 0 1 11.527380 6.379420 688.524475
641 0 1 11.331039 6.077470 687.595215
642 0 1 11.355590 5.652370 686.787781
643 0 1 11.248060 5.176220 685.934021
644 0 1 10.957190 4.770490 685.025391
645 0 1 10.595160 4.272720 684.307007
646 0 1 10.292180 3.851780 683.453491
647 0 1 10.106430 3.372950 682.687500
648 0 1 9.836070 2.865720 681.899109
649 0 1 9.417490 2.575500 681.125977
650 0 1 9.072740 2.626590 680.248596
651 0 1 8.671083 2.760450 679.417297
652 0 1 8.126463 2.975300 678.659119
653 0 1 7.729267 3.244710 677.816895
654 0 1 7.269853 3.622390 677.012573
655 0 1 7.126827 3.767990 676.006226
656 0 1 6.917210 4.039130 675.160889
657 0 1 6.855960 4.264690 674.237488
658 0 1 6.547990 4.444710 673.353821
659 0 1 6.072270 4.393040 672.494873
660 0 1 5.655080 4.200850 671.577515
661 0 1 5.192990 4.267770 670.793701
662 0 1 4.665080 4.167760 669.942017
663 0 1 4.420930 4.293430 669.069214
664 0 1 4.256220 4.440150 668.155090
665 0 1 4.395480 4.731370 667.239319
666 0 1 4.394740 4.805750 666.293579
667 0 1 4.715670 5.025340 665.440491
668 0 1 4.954890 5.135720 664.480591
669 0 1 5.363720 5.414750 663.652222
670 0 1 5.824240 5.381370 662.822021
671 0 1 6.145550 5.264290 661.870972
672 0 1 6.486100 5.712430 661.074890
673 0 1 6.732300 6.317680 660.254211
674 0 1 6.879330 6.890410 659.477905
675 0 1 6.872150 7.415898 658.627808
676 0 1 7.109584 8.030601 657.908325
677 0 1 7.091984 8.544795 657.142822
678 0 1 6.904310 8.853082 656.251221
679 0 1 6.823200 9.330370 655.370728
680 0 1 6.549510 9.598410 654.414001
681 0 1 6.592420 9.975830 653.569824
682 0 1 6.713140 10.059440 652.647278
683 0 1 6.982880 10.024879 651.714600
684 0 1 7.264314 9.874430 650.735596
685 0 1 7.355126 9.787220 649.807373
686 0 1 7.368999 9.958790 648.840515
687 0 1 7.182488 9.908280 647.931885
688 0 1 7.282717 9.928930 646.992676
689 0 1 7.461849 10.269939 646.096802
690 0 1 7.478750 10.651160 645.250122
691 0 1 7.618593 10.867240 644.322327
692 0 1 7.431620 11.070860 643.373718
693 0 1 7.030407 11.059520 642.496887
694 0 1 6.752560 11.066710 641.587402
695 0 1 6.512520 10.912310 640.653687
696 0 1 6.255570 10.845980 639.779114
697 0 1 6.132940 10.902260 638.789612
698 0 1 6.241060 10.819930 637.799927
699 0 1 6.239550 10.876300 636.866882
700 0 1 6.206950 10.969600 635.868042
701 0 1 5.837290 11.093750 635.010376
702 0 1 5.658310 10.802530 633.977356
703 0 1 5.396500 10.893720 633.082336
704 0 1 5.060910 10.700080 632.259583
705 0 1 4.737440 10.637630 631.365967
706 0 1 4.722790 10.796350 630.445068
707 0 1 4.768630 10.615110 629.478088
708 0 1 5.273060 10.587070 628.629700
709 0 1 5.590540 10.604300 627.761414
710 0 1 5.841780 10.709030 626.831421
711 0 1 6.113470 10.858419 625.900024
712 0 1 6.330920 10.943871 624.991394
713 0 1 6.210660 11.170919 624.050598
714 0 1 5.997770 11.314180 623.109619
715 0 1 5.761990 11.598610 622.298828
716 0 1 5.433120 11.642050 621.376953
717 0 1 4.967140 11.558969 620.579651
718 0 1 4.474810 11.325930 619.794861
719 0 1 3.929290 11.201330 618.980591
720 0 1 3.432610 11.399640 618.090393
721 0 1 2.775530 11.557730 617.427673
722 0 1 2.509930 11.375999 616.559204
723 0 1 2.286600 11.058520 615.674805
724 0 1 2.136350 10.739350 614.818420
725 0 1 2.178270 10.487230 613.886414
726 0 1 2.281470 10.225930 612.976929
727 0 1 2.295230 10.032980 612.041504
728 0 1 2.525590 9.724610 611.126221
729 0 1 2.681930 9.588440 610.228516
730 0 1 2.864610 9.419800 609.250427
731 0 1 3.086830 9.118020 608.326599
732 0 1 3.278920 8.731960 607.398010
733 0 1 3.373570 8.468542 606.528992
734 0 1 3.369920 8.038368 605.618591
735 0 1 3.093230 7.854269 604.762207
736 0 1 2.842370 7.802177 603.853210
737 0 1 2.408890 7.758462 602.895691
738 0 1 2.389540 7.775653 601.931824
739 0 1 2.482670 7.591032 601.044983
740 0 1 2.629260 7.368870 600.130615
741 0 1 2.673980 7.306464 599.175598
742 0 1 2.539100 7.358131 598.207520
743 0 1 2.610160 7.421484 597.270081
744 0 1 2.914660 7.577127 596.365723
745 0 1 3.332610 8.118012 595.659668
746 0 1 3.578340 8.478784 594.804382
747 0 1 3.944080 8.426461 593.955872
748 0 1 4.167250 8.342791 593.020081
749 0 1 4.548660 8.243086 592.104614
750 0 1 5.044880 8.028781 591.251526
751 0 1 5.207780 7.930289 590.309814
752 0 1 4.902790 7.769641 589.333923
753 0 1 4.791270 7.736854 588.374512
754 0 1 4.822070 7.828105 587.386108
755 0 1 4.585560 8.088840 586.462402
756 0 1 4.366380 8.047313 585.554688
757 0 1 4.353180 7.970485 584.600891
758 0 1 4.502400 8.004261 583.667175
759 0 1 4.843020 7.891405 582.776001
760 0 1 5.072060 7.565983 581.892578
761 0 1 5.203270 6.969490 581.162720
762 0 1 5.233610 6.350660 580.429199
763 0 1 5.354750 5.877530 579.564819
764 0 1 5.210140 5.729730 578.644775
765 0 1 5.133370 5.477900 577.695679
766 0 1 4.891020 5.236170 576.809326
767 0 1 4.753550 4.974820 575.920105
768 0 1 4.537230 4.589070 575.069519
769 0 1 4.315910 4.384370 574.088684
770 0 1 4.075780 4.489140 573.068115
771 0 1 3.774080 4.608730 572.129578
772 0 1 3.539180 4.584740 571.223999
773 0 1 3.375490 4.635420 570.319885
774 0 1 3.277990 4.569250 569.270203
775 0 1 3.545490 4.525140 568.338013
776 0 1 3.638700 4.265670 567.327820
777 0 1 3.826240 4.240980 566.377380
778 0 1 3.817260 4.456990 565.449890
779 0 1 4.027650 4.436410 564.530579
780 0 1 4.051180 4.214450 563.620422
781 0 1 4.147710 3.934060 562.728516
782 0 1 4.399010 4.122410 561.833008
783 0 1 4.586690 4.010010 560.928406
784 0 1 4.936560 3.976970 560.027405
785 0 1 5.138880 3.511110 559.165771
786 0 1 5.405580 3.116660 558.307312
787 0 1 5.792170 3.138110 557.403076
788 0 1 6.081530 2.990450 556.410583
789 0 1 6.170000 2.987960 555.470520
790 0 1 5.999600 2.892400 554.470825
791 0 1 5.826720 2.491710 553.549683
792 0 1 5.624750 2.388640 552.595520
793 0 1 5.529420 2.433370 551.618530