LAMMPS data file via MDAnalysis

        1000  atoms
        1000  bonds
        1000  angles
           0  dihedrals
           0  impropers

           1  atom types
           1  bond types
           1  angle types
           0  dihedral types
           0  improper types

0.000000 16.000000 xlo xhi
0.000000 16.000000 ylo yhi
0.000000 1257.000000 zlo zhi


Masses

1 1.000000

Atoms

1 0 1 13.753490 7.909608 457.822998
2 0 1 13.991119 7.773124 458.703979
3 0 1 14.089701 7.985052 459.628998
4 0 1 14.177031 8.084405 460.583008
5 0 1 14.287720 8.452183 461.505005
6 0 1 14.332670 8.689015 462.470001
7 0 1 14.296690 8.512667 463.484985
8 0 1 14.428391 8.440246 464.471985
9 0 1 14.254620 8.300450 465.479004
10 0 1 14.453939 8.285648 466.425995
11 0 1 14.506269 8.177848 467.354004
12 0 1 14.427980 8.090094 468.335999
13 0 1 14.355141 8.385881 469.229980
14 0 1 14.365191 8.807889 470.054016
15 0 1 14.222810 9.085900 470.979980
16 0 1 13.857170 9.275630 471.835999
17 0 1 13.635260 9.143460 472.737000
18 0 1 13.256690 9.326910 473.619995
19 0 1 13.038130 9.739950 474.455994
20 0 1 12.585150 10.215260 475.109985
21 0 1 12.030180 10.577770 475.794983
22 0 1 11.404181 10.722780 476.476013
23 0 1 10.709280 10.768050 477.164978
24 0 1 10.505850 10.912610 478.106018
25 0 1 10.061350 10.772440 478.947021
26 0 1 9.642470 10.532070 479.786011
27 0 1 9.568540 10.888090 480.621002
28 0 1 9.473400 11.186590 481.544006
29 0 1 9.530519 11.672230 482.372009
30 0 1 9.564000 12.273530 483.135010
31 0 1 9.952030 12.733540 483.891998
32 0 1 10.360450 12.557020 484.783020
33 0 1 10.392941 12.649070 485.770020
34 0 1 10.212840 12.863250 486.703003
35 0 1 10.023540 12.874900 487.666016
36 0 1 9.799520 13.091630 488.559998
37 0 1 9.565100 13.324511 489.471008
38 0 1 9.203630 13.441910 490.348022
39 0 1 9.012060 13.387350 491.333008
40 0 1 8.966132 13.252180 492.265015
41 0 1 9.061069 13.251530 493.261993
42 0 1 9.033110 13.021860 494.158020
43 0 1 9.030130 12.902280 495.122986
44 0 1 8.853303 12.928020 496.166992
45 0 1 8.709362 12.919180 497.156006
46 0 1 8.499804 12.862061 498.075989
47 0 1 8.717281 13.062420 498.994995
48 0 1 8.955002 13.200911 499.945007
49 0 1 9.131260 13.096040 500.911987
50 0 1 9.399600 13.100309 501.871002
51 0 1 9.574200 13.150640 502.799988
52 0 1 9.720280 12.910271 503.704010
53 0 1 10.165700 12.919780 504.562988
54 0 1 10.872640 12.678650 505.223999
55 0 1 11.650909 12.507840 505.700989
56 0 1 12.313749 12.132380 506.304993
57 0 1 12.942130 11.577530 506.817017
58 0 1 13.425631 10.960450 507.489014
59 0 1 13.767170 10.241080 508.062012
60 0 1 14.042980 9.575890 508.690002
61 0 1 14.242519 8.831324 509.291992
62 0 1 14.453350 7.979134 509.678009
63 0 1 14.397580 7.078390 510.014008
64 0 1 14.303710 6.166470 510.411011
65 0 1 13.880011 5.272740 510.510010
66 0 1 13.355480 4.520950 510.713989
67 0 1 12.907209 3.787520 510.977997
68 0 1 12.321609 3.070320 511.294983
69 0 1 11.930140 2.594730 512.104980
70 0 1 11.688430 2.345030 513.023987
71 0 1 11.469950 2.551490 513.955017
72 0 1 11.425030 3.043290 514.797974
73 0 1 11.371510 3.397040 515.664978
74 0 1 11.168170 3.918060 516.533020
75 0 1 10.776760 4.427010 517.302979
76 0 1 10.296761 5.038140 517.966003
77 0 1 9.700600 5.513790 518.575989
78 0 1 9.196900 5.783370 519.343018
79 0 1 8.791912 5.759660 520.252014
80 0 1 8.545445 5.526910 521.184021
81 0 1 8.682378 5.258720 522.122986
82 0 1 8.906548 5.052360 523.075012
83 0 1 9.021670 4.953060 524.075012
84 0 1 9.137570 4.457810 524.898010
85 0 1 9.253980 3.803110 525.538025
86 0 1 9.461530 3.238800 526.273010
87 0 1 9.585630 2.703310 527.064026
88 0 1 9.615180 2.342490 527.984009
89 0 1 9.779881 1.913190 528.823425
90 0 1 9.935400 1.830600 529.759094
91 0 1 10.282470 1.738100 530.668396
92 0 1 10.236440 1.877450 531.606201
93 0 1 10.234150 2.194690 532.490417
94 0 1 10.239070 2.263900 533.431702
95 0 1 10.453660 2.273470 534.323608
96 0 1 10.803061 2.498840 535.187195
97 0 1 11.138480 2.582200 536.087097
98 0 1 11.467530 2.596240 537.047302
99 0 1 11.763120 2.843660 537.935120
100 0 1 11.965160 3.508590 538.593079
101 0 1 12.098721 3.955690 539.458374
102 0 1 12.219580 4.438250 540.271606
103 0 1 12.457479 4.578790 541.168518
104 0 1 12.635670 4.668340 542.104492
105 0 1 12.741920 5.071320 543.002075
106 0 1 13.247971 5.231170 543.796631
107 0 1 13.602180 5.449700 544.615601
108 0 1 13.797010 5.937860 545.464783
109 0 1 13.991460 6.193270 546.369080
110 0 1 14.287479 6.331990 547.325317
111 0 1 14.341700 6.712090 548.252686
112 0 1 14.703070 6.921930 549.085571
113 0 1 14.590139 7.039507 550.043579
114 0 1 14.416241 7.223687 550.951416
115 0 1 14.045310 7.590415 551.794495
116 0 1 13.716260 7.708756 552.717590
117 0 1 13.562120 7.819560 553.614319
118 0 1 13.300700 8.083114 554.496094
119 0 1 13.081640 8.150650 555.405212
120 0 1 12.839650 8.538067 556.275818
121 0 1 12.828620 8.564685 557.260620
122 0 1 12.623090 8.524717 558.207397
123 0 1 12.561970 8.748906 559.169189
124 0 1 12.320060 8.734876 560.107483
125 0 1 12.227961 8.858533 561.007874
126 0 1 12.336220 8.977634 561.989380
127 0 1 12.420250 8.955192 563.011719
128 0 1 12.640580 8.623576 563.913696
129 0 1 12.528180 8.284547 564.793213
130 0 1 12.348530 8.074035 565.692383
131 0 1 12.339120 8.055288 566.630676
132 0 1 12.181200 7.885025 567.523315
133 0 1 12.139390 7.667241 568.502014
134 0 1 11.847219 7.620457 569.424500
135 0 1 11.460640 7.478202 570.286621
136 0 1 11.137150 7.277391 571.148987
137 0 1 11.240129 7.049287 572.070190
138 0 1 11.582770 6.923920 572.941101
139 0 1 11.952500 6.871010 573.765991
140 0 1 12.324369 6.633310 574.681702
141 0 1 12.524230 6.773910 575.698608
142 0 1 12.724140 6.685840 576.609192
143 0 1 13.012130 6.615610 577.518982
144 0 1 12.978410 6.682820 578.456116
145 0 1 13.272631 6.847450 579.438232
146 0 1 13.456680 7.171793 580.320496
147 0 1 13.525721 7.458217 581.226990
148 0 1 13.217490 7.679327 582.147827
149 0 1 12.792630 8.144124 582.924316
150 0 1 12.250259 8.439769 583.672424
151 0 1 11.710270 8.498243 584.545105
152 0 1 11.204960 8.472846 585.389587
153 0 1 10.840860 8.447776 586.294800
154 0 1 10.553400 8.437518 587.257812
155 0 1 10.358580 8.450218 588.233215
156 0 1 10.271880 8.326560 589.239075
157 0 1 10.472140 8.315390 590.240417
158 0 1 10.775770 8.569088 591.120911
159 0 1 10.884410 8.686453 592.070190
160 0 1 10.700530 8.664435 593.078491
161 0 1 10.293890 8.593831 593.961304
162 0 1 9.808130 8.498109 594.918091
163 0 1 9.692870 8.437165 595.897278
164 0 1 9.485120 8.722510 596.855774
165 0 1 8.915938 8.930996 597.627991
166 0 1 8.705318 9.339510 598.474426
167 0 1 8.754254 9.517720 599.416809
168 0 1 9.077271 9.411760 600.296021
169 0 1 9.476060 9.435810 601.183411
170 0 1 9.643070 9.448660 602.124329
171 0 1 9.692350 9.402940 603.056580
172 0 1 9.707490 9.232260 604.017517
173 0 1 9.639390 9.037830 604.937317
174 0 1 9.804070 8.725926 605.910400
175 0 1 9.507930 8.670727 606.820923
176 0 1 8.913929 8.671735 607.600830
177 0 1 8.289904 8.928838 608.319519
178 0 1 7.642316 9.040060 609.032227
179 0 1 7.115484 9.190530 609.759521
180 0 1 6.898230 8.966429 610.643311
181 0 1 6.308210 8.723923 611.376099
182 0 1 5.618490 8.681105 612.068726
183 0 1 5.245240 8.480403 612.975403
184 0 1 4.731010 8.330160 613.796814
185 0 1 4.079170 8.126796 614.425598
186 0 1 3.766450 7.739898 615.337097
187 0 1 3.727060 7.162870 616.152100
188 0 1 3.918990 6.797890 617.076477
189 0 1 4.420300 6.579800 617.833496
190 0 1 4.982280 6.383290 618.543945
191 0 1 5.456790 6.058730 619.288879
192 0 1 6.030100 5.712820 620.024780
193 0 1 6.342700 5.323560 620.835205
194 0 1 6.392020 4.932300 621.779724
195 0 1 6.810880 4.548410 622.649963
196 0 1 7.143017 4.178450 623.431763
197 0 1 7.347931 3.745850 624.290100
198 0 1 7.562743 3.681470 625.183350
199 0 1 7.565431 3.767180 626.084290
200 0 1 7.401090 3.801520 627.032654
201 0 1 7.158731 3.711270 628.015991
202 0 1 7.092346 3.847820 628.993286
203 0 1 6.939720 3.902590 629.940125
204 0 1 6.712830 3.963790 630.892273
205 0 1 6.831890 4.393480 631.719971
206 0 1 6.855530 4.946300 632.414917
207 0 1 6.891550 5.626500 633.026855
208 0 1 7.088075 6.345240 633.696533
209 0 1 7.270498 6.861290 634.417969
210 0 1 7.547947 7.464035 635.158081
211 0 1 7.847965 7.625473 636.046265
212 0 1 7.902127 7.893675 636.981384
213 0 1 7.739387 8.037807 637.981323
214 0 1 7.366773 8.112346 638.934387
215 0 1 7.281183 8.059569 639.892822
216 0 1 7.289147 7.711539 640.778625
217 0 1 7.293038 7.425021 641.640686
218 0 1 7.561897 7.061721 642.494629
219 0 1 7.860695 6.814200 643.339905
220 0 1 8.249639 6.593880 644.248413
221 0 1 8.278090 6.376980 645.292480
222 0 1 8.435513 6.209010 646.212097
223 0 1 8.526497 6.323870 647.168884
224 0 1 8.629882 6.083500 648.082581
225 0 1 8.883556 5.763250 648.926086
226 0 1 8.848432 5.083070 649.640015
227 0 1 8.745354 4.680080 650.466919
228 0 1 8.690108 4.285990 651.355408
229 0 1 8.904560 3.921430 652.247986
230 0 1 9.219690 3.713630 653.195679
231 0 1 9.516340 3.618420 654.106323
232 0 1 9.904070 3.771100 654.989807
233 0 1 10.299660 3.864830 655.899597
234 0 1 10.492690 3.962460 656.984192
235 0 1 10.805340 4.102830 657.919495
236 0 1 11.289690 4.557290 658.650513
237 0 1 11.769840 4.973390 659.392517
238 0 1 12.221120 5.227550 660.207703
239 0 1 12.524570 5.468090 661.218018
240 0 1 12.774830 5.688650 662.171387
241 0 1 13.032710 5.956990 663.047791
242 0 1 13.100810 6.275930 663.901611
243 0 1 12.974461 6.613400 664.754395
244 0 1 13.253180 6.978320 665.734192
245 0 1 13.123470 6.920090 666.698425
246 0 1 12.943780 6.898390 667.613770
247 0 1 12.899469 6.730910 668.508911
248 0 1 12.888990 6.624850 669.498718
249 0 1 12.961559 6.265250 670.446716
250 0 1 13.018800 6.220530 671.575317
251 0 1 12.693380 6.388160 672.460388
252 0 1 12.659250 6.302180 673.426208
253 0 1 12.761040 6.315240 674.408997
254 0 1 12.736850 6.306990 675.354492
255 0 1 12.761070 6.060110 676.236877
256 0 1 13.039660 5.733070 677.070801
257 0 1 13.204470 5.527550 678.068726
258 0 1 13.270470 5.545540 679.016479
259 0 1 12.991830 5.541670 679.923828
260 0 1 12.610340 5.454060 680.803406
261 0 1 12.090150 5.419570 681.630981
262 0 1 11.495580 5.139860 682.340210
263 0 1 10.884960 5.188310 683.107483
264 0 1 10.324490 5.202480 683.895630
265 0 1 9.695940 5.351980 684.619324
266 0 1 9.169780 5.248280 685.386902
267 0 1 8.888903 4.936990 686.230225
268 0 1 8.443013 4.773020 687.041870
269 0 1 8.073417 4.629320 687.927307
270 0 1 7.762503 4.492150 688.836487
271 0 1 7.411886 4.577560 689.688599
272 0 1 7.356595 4.416390 690.651489
273 0 1 7.169899 4.205100 691.501221
274 0 1 7.091097 4.065030 692.421509
275 0 1 7.036354 3.955120 693.388184
276 0 1 7.139251 3.772740 694.320618
277 0 1 6.972720 3.370250 695.200623
278 0 1 6.817110 3.348220 696.123169
279 0 1 6.771760 3.466450 697.126282
280 0 1 7.107953 3.670350 698.053467
281 0 1 7.511797 4.083190 698.821289
282 0 1 7.794746 4.499430 699.660400
283 0 1 7.798533 4.878900 700.505005
284 0 1 7.733820 5.292610 701.461121
285 0 1 7.562230 5.898590 702.201416
286 0 1 7.614221 6.405820 703.066772
287 0 1 7.581363 6.685170 703.933105
288 0 1 7.245150 6.940660 704.814331
289 0 1 7.105259 7.184652 705.685669
290 0 1 6.735930 7.574952 706.516785
291 0 1 6.195300 7.737801 707.280884
292 0 1 5.724090 7.641586 708.124084
293 0 1 5.765950 7.498642 709.071289
294 0 1 5.799690 7.314979 710.008911
295 0 1 5.739940 6.950970 710.882874
296 0 1 5.888040 6.562000 711.728577
297 0 1 6.071320 5.979540 712.479004
298 0 1 6.196310 5.749680 713.403076
299 0 1 6.431670 5.646590 714.271118
300 0 1 6.807600 5.414800 715.117676
301 0 1 7.083707 5.465390 716.056396
302 0 1 7.510936 5.565630 716.923096
303 0 1 8.157384 5.551940 717.660278
304 0 1 8.781812 5.437280 718.423218
305 0 1 9.295780 5.230720 719.221802
306 0 1 9.699550 4.977590 719.996704
307 0 1 10.119090 4.711900 720.826721
308 0 1 10.579390 4.827970 721.682190
309 0 1 10.871870 5.007050 722.601501
310 0 1 11.099190 5.359560 723.504578
311 0 1 11.469230 5.600590 724.367126
312 0 1 11.959050 5.689760 725.205322
313 0 1 12.235180 5.983220 726.056824
314 0 1 12.438590 6.373660 726.895386
315 0 1 12.751390 6.556820 727.765869
316 0 1 12.960110 6.592240 728.791992
317 0 1 12.865350 6.704910 729.695007
318 0 1 12.459080 7.024662 730.612000
319 0 1 12.133500 7.378683 731.507996
320 0 1 11.604910 7.630947 732.276001
321 0 1 11.273320 8.103089 733.177002
322 0 1 10.838350 8.229393 734.083008
323 0 1 10.367229 8.272000 734.888000
324 0 1 9.774020 8.286799 735.663025
325 0 1 9.279770 8.585725 736.458984
326 0 1 8.913289 9.048480 737.151001
327 0 1 8.945508 9.569390 737.953003
328 0 1 9.191330 10.072360 738.786987
329 0 1 9.456880 10.516050 739.630981
330 0 1 9.596110 10.596970 740.596985
331 0 1 9.783590 10.961850 741.471985
332 0 1 9.738070 11.122550 742.364014
333 0 1 9.811769 11.372700 743.250977
334 0 1 9.506240 11.585550 744.184998
335 0 1 9.535550 11.373720 745.089966
336 0 1 9.419390 11.111430 746.012024
337 0 1 9.093270 10.737020 746.828979
338 0 1 8.749680 10.461880 747.693970
339 0 1 8.630759 10.330670 748.693970
340 0 1 8.792860 10.401570 749.615967
341 0 1 8.969151 10.199850 750.572998
342 0 1 8.975547 9.931130 751.479980
343 0 1 9.211580 9.791020 752.424011
344 0 1 9.650311 9.436220 753.182983
345 0 1 9.749969 9.119320 754.089966
346 0 1 9.564700 8.911225 755.010986
347 0 1 9.165270 8.590273 755.910034
348 0 1 9.015220 8.295039 756.818970
349 0 1 8.735298 8.500582 757.773010
350 0 1 8.466878 8.493053 758.674011
351 0 1 8.082021 8.387764 759.546021
352 0 1 7.883725 8.447646 760.528992
353 0 1 7.760405 8.417603 761.438965
354 0 1 7.870185 8.469808 762.408020
355 0 1 8.129115 8.615149 763.351990
356 0 1 8.613599 8.613965 764.135010
357 0 1 9.031000 8.689975 764.999023
358 0 1 9.399390 8.843657 765.888000
359 0 1 9.243700 8.950366 766.794983
360 0 1 9.282980 9.525650 767.541016
361 0 1 9.270060 10.274700 768.212036
362 0 1 9.394490 10.927700 768.992004
363 0 1 9.467810 11.399010 769.851013
364 0 1 9.613580 11.842609 770.707031
365 0 1 9.942890 12.411921 771.549988
366 0 1 10.388160 12.773420 772.276978
367 0 1 10.790430 13.079090 773.046997
368 0 1 11.098200 13.210070 774.031982
369 0 1 11.018290 13.570320 774.886963
370 0 1 10.529700 13.562349 775.716980
371 0 1 10.100800 13.766640 776.520996
372 0 1 9.813890 13.777430 777.448975
373 0 1 9.404550 13.857330 778.296021
374 0 1 9.023940 14.017321 779.172974
375 0 1 8.745748 14.151670 780.075989
376 0 1 8.390947 14.306971 780.963013
377 0 1 8.215780 14.420139 781.932983
378 0 1 8.059337 14.442619 782.874023
379 0 1 8.104090 14.281930 783.786011
380 0 1 7.962770 14.103840 784.811035
381 0 1 7.851773 13.821011 785.705994
382 0 1 7.797731 13.710690 786.640015
383 0 1 7.814300 13.368219 787.520996
384 0 1 7.826344 12.971519 788.422974
385 0 1 8.012476 12.488990 789.294006
386 0 1 8.347161 12.084710 790.156982
387 0 1 8.626683 11.587590 790.901001
388 0 1 9.037300 11.282030 791.688965
389 0 1 9.436530 10.788800 792.380981
390 0 1 9.987500 10.305930 793.037964
391 0 1 10.413190 9.924780 793.844971
392 0 1 10.480040 9.550790 794.752014
393 0 1 10.282320 9.445740 795.702026
394 0 1 10.056030 9.339700 796.591003
395 0 1 9.820420 9.050770 797.442993
396 0 1 9.549390 8.881163 798.370972
397 0 1 9.497490 8.616299 799.323975
398 0 1 9.461650 8.193066 800.130981
399 0 1 9.363091 7.938612 801.054016
400 0 1 9.446800 7.358336 801.773987
401 0 1 9.671930 7.005482 802.627014
402 0 1 9.732600 6.444290 803.408020
403 0 1 10.027360 5.939400 804.145996
404 0 1 10.411290 5.558370 804.958008
405 0 1 10.456070 5.286260 805.880981
406 0 1 10.495090 5.073430 806.778015
407 0 1 10.215120 4.759780 807.719971
408 0 1 9.902480 4.450500 808.625977
409 0 1 9.705280 4.166700 809.509033
410 0 1 9.538810 3.981970 810.434021
411 0 1 9.889640 3.874390 811.372986
412 0 1 10.256520 3.767080 812.182007
413 0 1 10.713090 3.953600 812.989990
414 0 1 10.771160 4.033450 814.004028
415 0 1 10.535290 4.430480 814.867004
416 0 1 10.032170 4.581480 815.708984
417 0 1 9.444530 4.556440 816.520020
418 0 1 8.816371 4.519280 817.323975
419 0 1 8.125448 4.544250 817.955994
420 0 1 7.328793 4.536280 818.481018
421 0 1 6.692040 4.499780 819.177002
422 0 1 6.212800 4.671990 820.002014
423 0 1 5.674480 4.935610 820.738037
424 0 1 5.047410 5.153930 821.507996
425 0 1 4.446080 5.231840 822.299988
426 0 1 4.001040 5.359940 823.161987
427 0 1 3.745120 5.299420 824.130981
428 0 1 3.612500 5.339360 825.089966
429 0 1 3.533450 5.633090 826.000000
430 0 1 3.473380 6.169850 826.802002
431 0 1 3.360280 6.673720 827.639038
432 0 1 3.391510 7.496229 828.106018
433 0 1 3.319900 8.333079 828.572998
434 0 1 3.613590 9.224390 828.973999
435 0 1 3.996390 9.935180 829.476013
436 0 1 4.674430 10.521470 829.880981
437 0 1 5.387620 11.172170 830.226013
438 0 1 5.856090 11.882140 830.617981
439 0 1 6.593740 12.415040 831.036987
440 0 1 7.363250 12.770411 831.556030
441 0 1 8.233716 13.086300 831.744995
442 0 1 9.242720 12.915140 831.615967
443 0 1 10.091510 12.569230 831.403992
444 0 1 10.917240 12.147210 831.080994
445 0 1 11.666050 11.805190 830.643005
446 0 1 12.393860 11.461230 830.113037
447 0 1 12.905399 11.047750 829.403015
448 0 1 13.352940 10.766109 828.528015
449 0 1 13.486270 10.580260 827.594971
450 0 1 13.461929 10.150730 826.766968
451 0 1 13.526680 9.903450 825.811035
452 0 1 13.186340 9.671180 824.916016
453 0 1 12.788710 9.552280 824.020996
454 0 1 12.711510 9.448060 823.054016
455 0 1 12.658871 9.086080 822.122009
456 0 1 12.388180 8.642109 821.302002
457 0 1 11.924250 8.371036 820.380981
458 0 1 11.656110 8.228752 819.391968
459 0 1 11.318350 8.075879 818.452026
460 0 1 10.881041 8.184053 817.526978
461 0 1 10.587900 8.309184 816.570984
462 0 1 10.212500 8.651351 815.794006
463 0 1 9.653470 8.746062 814.983032
464 0 1 9.131970 8.804699 814.117004
465 0 1 8.726676 9.024590 813.335022
466 0 1 8.409217 9.071600 812.442017
467 0 1 8.132228 9.137970 811.547974
468 0 1 7.693489 9.323760 810.684998
469 0 1 7.380456 9.721720 809.811035
470 0 1 7.181175 10.124750 808.976013
471 0 1 7.147270 10.748620 808.237000
472 0 1 7.368752 11.223490 807.317993
473 0 1 7.584303 11.143720 806.341980
474 0 1 7.668339 11.013360 805.390015
475 0 1 7.345900 10.743950 804.515991
476 0 1 6.984680 10.476370 803.667969
477 0 1 6.764560 10.182730 802.750977
478 0 1 6.686860 9.920590 801.841980
479 0 1 6.708620 9.745490 800.856018
480 0 1 7.184465 9.729150 799.976013
481 0 1 7.975877 9.767250 799.411987
482 0 1 8.765216 9.919550 798.884033
483 0 1 9.553920 10.288900 798.463013
484 0 1 10.323100 10.781970 798.114014
485 0 1 11.193600 10.975790 797.760986
486 0 1 12.085131 10.924110 797.348022
487 0 1 12.755270 10.451469 796.812012
488 0 1 13.156060 9.859640 796.198975
489 0 1 13.564270 9.105570 795.750977
490 0 1 13.716030 8.607273 794.994019
491 0 1 13.699630 7.930983 794.312012
492 0 1 13.618380 7.262399 793.695007
493 0 1 13.145700 6.641720 793.098999
494 0 1 12.782560 6.053140 792.437988
495 0 1 12.320391 5.417060 791.853027
496 0 1 11.696050 4.707250 791.429993
497 0 1 11.002090 3.966540 791.281982
498 0 1 10.324270 3.406590 790.973022
499 0 1 9.731110 3.074850 790.299011
500 0 1 9.135330 3.026190 789.606018
501 0 1 8.498016 3.120490 788.905029
502 0 1 7.853980 3.194140 788.213989
503 0 1 7.783176 3.558440 787.317993
504 0 1 7.791608 3.787860 786.364990
505 0 1 7.501331 4.048740 785.492981
506 0 1 7.318618 4.205880 784.552002
507 0 1 7.261226 4.552590 783.526001
508 0 1 7.219089 4.436230 782.570007
509 0 1 7.265564 4.404530 781.587036
510 0 1 7.086766 4.699900 780.583984
511 0 1 6.775730 4.981620 779.700012
512 0 1 6.358480 5.303480 778.916016
513 0 1 5.980410 5.806470 778.167969
514 0 1 5.425420 6.145390 777.421997
515 0 1 4.847520 6.475160 776.737000
516 0 1 4.394720 6.875710 775.900024
517 0 1 4.197910 7.394680 775.161987
518 0 1 4.007870 7.556428 774.184998
519 0 1 3.749600 7.537650 773.309998
520 0 1 3.555650 7.532935 772.391968
521 0 1 3.385080 7.528536 771.450012
522 0 1 3.317950 7.353088 770.537964
523 0 1 3.311220 6.677100 769.807007
524 0 1 3.545180 6.139290 769.070984
525 0 1 3.759080 6.037150 768.212036
526 0 1 4.270920 6.077290 767.385010
527 0 1 4.560590 6.288310 766.438965
528 0 1 4.713160 6.294600 765.526978
529 0 1 4.950180 6.485940 764.575989
530 0 1 4.933640 6.930310 763.781982
531 0 1 4.974950 7.454259 763.036987
532 0 1 5.100420 7.866692 762.210999
533 0 1 5.662640 8.294591 761.575012
534 0 1 6.166900 8.772915 760.943970
535 0 1 6.891570 9.182080 760.471008
536 0 1 7.581207 9.778250 760.037964
537 0 1 8.467049 10.058960 759.700989
538 0 1 9.279390 10.434710 759.354980
539 0 1 9.936170 10.803210 758.768005
540 0 1 10.519570 11.025880 758.130981
541 0 1 11.019011 11.322010 757.325989
542 0 1 11.300961 11.463680 756.365967
543 0 1 11.200560 11.818810 755.481995
544 0 1 11.301030 12.083990 754.572021
545 0 1 11.436660 12.340179 753.650024
546 0 1 11.595030 12.420700 752.674988
547 0 1 11.709760 12.789160 751.783997
548 0 1 11.659730 13.041100 750.827026
549 0 1 11.729850 12.892600 749.880005
550 0 1 11.638810 12.806030 748.940979
551 0 1 11.725760 12.436251 748.000977
552 0 1 11.691590 12.007959 747.184998
553 0 1 11.974580 11.282760 746.588989
554 0 1 12.409650 10.408900 746.278992
555 0 1 12.910860 9.613100 746.125000
556 0 1 13.454821 8.870583 745.825012
557 0 1 13.851760 8.230054 745.276978
558 0 1 13.963170 7.551621 744.541992
559 0 1 13.723610 6.758450 744.072021
560 0 1 13.158590 5.941900 743.948975
561 0 1 12.603860 5.237420 743.703979
562 0 1 12.197010 4.676500 743.057983
563 0 1 11.597260 4.443880 742.359009
564 0 1 11.076500 4.453810 741.585022
565 0 1 10.636670 4.270770 740.765015
566 0 1 10.380060 4.261550 739.796997
567 0 1 9.859159 4.373410 739.028015
568 0 1 9.226690 4.763410 738.283020
569 0 1 8.688495 5.340820 737.742004
570 0 1 8.092663 5.870410 737.214966
571 0 1 7.499009 6.564730 736.755005
572 0 1 6.918050 7.141167 736.181030
573 0 1 6.145620 7.504628 735.807007
574 0 1 5.306580 7.883451 735.405029
575 0 1 4.845270 8.362988 734.716003
576 0 1 4.558590 8.986486 734.067993
577 0 1 4.249520 9.457710 733.309021
578 0 1 4.037350 9.488470 732.372009
579 0 1 4.155930 9.681250 731.469971
580 0 1 4.464770 9.768230 730.594971
581 0 1 5.084290 9.988570 729.887024
582 0 1 5.681700 10.138041 729.096985
583 0 1 6.144830 10.098260 728.181885
584 0 1 6.520580 10.210020 727.233704
585 0 1 7.178049 10.172780 726.533386
586 0 1 7.575180 10.027140 725.651367
587 0 1 7.789292 9.598780 724.764709
588 0 1 7.883307 9.216780 723.867004
589 0 1 8.150797 9.000230 723.012878
590 0 1 8.354256 8.830041 722.062683
591 0 1 8.614842 8.634992 721.187195
592 0 1 9.224790 8.618426 720.493225
593 0 1 9.585810 8.804121 719.562683
594 0 1 10.011960 9.130900 718.764587
595 0 1 10.364450 9.441050 717.824585
596 0 1 11.022490 9.552180 717.129700
597 0 1 11.708440 9.635040 716.476318
598 0 1 12.266790 9.478900 715.717773
599 0 1 12.629450 9.287980 714.901306
600 0 1 12.967871 9.384400 714.043518
601 0 1 13.427080 9.225680 713.204895
602 0 1 13.711950 9.119860 712.298401
603 0 1 14.000980 8.726632 711.385132
604 0 1 14.103580 8.291647 710.430908
605 0 1 14.140710 7.991747 709.502319
606 0 1 13.930000 7.846931 708.537109
607 0 1 13.702590 8.059454 707.643921
608 0 1 13.378950 8.453302 706.780579
609 0 1 13.198669 8.888858 705.957275
610 0 1 13.137740 9.021780 705.024109
611 0 1 12.915910 8.761411 704.154907
612 0 1 12.658850 8.262444 703.339966
613 0 1 12.345250 8.243476 702.436401
614 0 1 11.799860 8.144231 701.643005
615 0 1 11.146900 8.235588 700.857910
616 0 1 10.630600 8.678271 700.190796
617 0 1 10.062920 9.119980 699.543213
618 0 1 9.582770 9.545400 698.789429
619 0 1 9.372460 9.913430 697.887085
620 0 1 9.255190 10.114600 696.966797
621 0 1 9.027620 10.493620 696.094116
622 0 1 8.741036 10.970260 695.208130
623 0 1 8.448142 11.205610 694.335999
624 0 1 7.964183 10.942720 693.533691
625 0 1 7.352075 10.729310 692.891602
626 0 1 6.861990 10.342520 692.130371
627 0 1 6.283010 9.801291 691.490112
628 0 1 5.787360 9.271640 690.820923
629 0 1 5.296120 9.058150 690.056702
630 0 1 4.882270 8.791832 689.207520
631 0 1 4.387560 8.831335 688.372620
632 0 1 4.051040 9.231770 687.540894
633 0 1 3.835630 9.234780 686.636292
634 0 1 3.678970 9.558969 685.703918
635 0 1 3.936750 9.839160 684.836426
636 0 1 4.327860 10.036880 683.984314
637 0 1 4.874570 10.702980 683.513489
638 0 1 5.283350 11.159210 682.722717
639 0 1 5.652130 11.640900 681.925171
640 0 1 6.150850 11.991570 681.196716
641 0 1 6.651380 12.457581 680.515198
642 0 1 7.105178 12.594100 679.623474
643 0 1 7.764064 12.809380 678.913879
644 0 1 8.376842 12.878690 678.158691
645 0 1 8.871212 12.793489 677.274414
646 0 1 9.334150 12.424490 676.491211
647 0 1 9.593640 12.090770 675.642395
648 0 1 9.916140 11.960090 674.735107
649 0 1 10.152880 11.710560 673.816772
650 0 1 10.714000 11.360210 673.059998
651 0 1 11.270730 11.212350 672.226013
652 0 1 11.549400 11.086370 671.356323
653 0 1 11.655860 10.675390 670.448975
654 0 1 11.804930 10.331150 669.585022
655 0 1 12.091400 10.042430 668.652893
656 0 1 12.177111 9.629410 667.793823
657 0 1 12.092421 9.256350 666.937317
658 0 1 11.885180 8.773708 666.061584
659 0 1 11.870430 8.222743 665.264221
660 0 1 11.801889 7.374881 664.806213
661 0 1 11.696560 6.579130 664.216919
662 0 1 11.680910 5.778570 663.708130
663 0 1 11.453930 5.092180 663.113586
664 0 1 11.406240 4.664720 662.165222
665 0 1 11.631250 4.045210 661.478821
666 0 1 11.692080 3.549060 660.638184
667 0 1 11.972660 3.413240 659.767883
668 0 1 12.262310 3.401920 658.806824
669 0 1 12.495220 3.481160 657.908325
670 0 1 12.655251 3.805450 656.968994
671 0 1 12.667040 3.913330 656.031128
672 0 1 12.626120 4.110780 655.083618
673 0 1 12.728400 4.064120 654.142029
674 0 1 12.500830 4.180620 653.221680
675 0 1 12.437230 4.135650 652.266479
676 0 1 12.471570 4.008640 651.298523
677 0 1 12.546680 3.756490 650.340210
678 0 1 12.460450 3.483100 649.371826
679 0 1 12.244220 3.422440 648.383972
680 0 1 11.891400 3.565440 647.433411
681 0 1 11.674580 3.862480 646.511780
682 0 1 11.409190 3.958520 645.596497
683 0 1 11.049040 4.092860 644.667419
684 0 1 10.786119 4.256990 643.706482
685 0 1 10.635230 4.356620 642.770081
686 0 1 10.650579 4.540630 641.799927
687 0 1 10.632010 4.638570 640.845886
688 0 1 10.241540 4.819380 639.893127
689 0 1 9.656630 4.910700 639.079285
690 0 1 8.997781 5.028260 638.385986
691 0 1 8.295672 4.997140 637.713440
692 0 1 7.640998 4.927980 637.010559
693 0 1 6.871600 4.775260 636.447144
694 0 1 6.217970 4.476540 635.791626
695 0 1 5.530880 4.414730 635.171936
696 0 1 5.070840 4.438010 634.325317
697 0 1 4.640660 4.448620 633.419678
698 0 1 4.120260 4.382940 632.612122
699 0 1 3.628130 4.512730 631.854370
700 0 1 3.158280 4.684430 630.971436
701 0 1 2.662100 4.907580 630.147583
702 0 1 2.197760 5.216670 629.372437
703 0 1 1.746480 5.429870 628.501038
704 0 1 1.530460 5.586230 627.523560
705 0 1 1.675510 5.834960 626.598450
706 0 1 1.629460 5.944740 625.694153
707 0 1 1.727520 6.218540 624.743530
708 0 1 1.880250 6.621280 623.890259
709 0 1 2.159190 6.920860 622.999390
710 0 1 2.377660 7.043509 622.076050
711 0 1 2.845570 7.303350 621.188721
712 0 1 3.278280 7.509351 620.329041
713 0 1 3.796160 7.528457 619.480042
714 0 1 4.416200 7.506000 618.667542
715 0 1 5.021670 7.638332 617.921509
716 0 1 5.807060 7.901437 617.492004
717 0 1 6.613270 8.335570 617.114197
718 0 1 7.484191 8.560092 616.806519
719 0 1 8.223408 8.957892 616.409912
720 0 1 8.887205 9.447309 616.018188
721 0 1 9.405560 9.982040 615.375793
722 0 1 9.520320 10.055120 614.420410
723 0 1 9.481970 10.342890 613.494385
724 0 1 9.945760 10.514709 612.624817
725 0 1 10.450740 10.330070 611.761414
726 0 1 10.984910 10.502871 610.946716
727 0 1 11.313710 10.846889 610.080322
728 0 1 11.307050 11.455009 609.332275
729 0 1 11.430190 11.851010 608.407410
730 0 1 11.326850 12.462350 607.703125
731 0 1 10.956560 12.847879 606.898499
732 0 1 10.532340 13.239330 606.089111
733 0 1 10.338511 13.391000 605.174500
734 0 1 10.040610 13.383989 604.238220
735 0 1 9.591860 13.403980 603.290527
736 0 1 9.084070 13.471120 602.449890
737 0 1 8.425017 13.240330 601.729126
738 0 1 8.090323 12.809340 600.904785
739 0 1 7.636667 12.433331 600.101074
740 0 1 7.063018 11.905530 599.420471
741 0 1 6.762980 11.181180 598.796692
742 0 1 6.693650 10.388230 598.220703
743 0 1 6.889410 9.772990 597.532471
744 0 1 7.497569 9.484900 596.836670
745 0 1 7.815433 9.113390 596.010193
746 0 1 8.191792 9.083549 595.045715
747 0 1 8.207618 9.126860 594.120300
748 0 1 7.996382 9.296290 593.190796
749 0 1 8.009948 9.518150 592.283203
750 0 1 8.013628 9.590330 591.341125
751 0 1 7.759622 9.969070 590.461121
752 0 1 7.942520 10.446790 589.629272
753 0 1 7.986435 10.917459 588.766418
754 0 1 7.799211 11.405810 587.903809
755 0 1 7.691551 11.786850 587.016907
756 0 1 7.687943 12.023470 585.959106
757 0 1 7.656482 12.071020 585.002319
758 0 1 7.619223 11.922010 584.064087
759 0 1 7.485758 11.814440 583.072083
760 0 1 7.306601 11.663480 582.150696
761 0 1 7.161805 11.516300 581.221619
762 0 1 7.228360 11.250629 580.290710
763 0 1 7.190775 10.878941 579.423706
764 0 1 7.207804 10.466220 578.564026
765 0 1 7.444583 10.236950 577.675110
766 0 1 7.686304 10.196060 576.730896
767 0 1 7.938879 10.090140 575.817810
768 0 1 8.400614 10.082310 574.964294
769 0 1 8.809657 9.805360 574.111694
770 0 1 9.118670 9.726380 573.182617
771 0 1 9.450960 9.291150 572.377380
772 0 1 9.365090 9.090580 571.437500
773 0 1 9.378820 8.955298 570.472168
774 0 1 9.606610 9.236180 569.515625
775 0 1 9.823500 9.376310 568.583984
776 0 1 10.015660 9.578290 567.659912
777 0 1 10.036850 9.876280 566.724976
778 0 1 10.119750 10.224670 565.848572
779 0 1 10.509700 10.386280 564.947388
780 0 1 10.602961 10.332460 563.972168
781 0 1 10.500020 10.283330 563.013306
782 0 1 10.357830 10.416019 562.079712
783 0 1 10.269810 10.468710 561.139771
784 0 1 10.319370 10.332290 560.199524
785 0 1 10.620340 10.439671 559.260132
786 0 1 11.008170 10.577720 558.372986
787 0 1 11.209560 10.696440 557.414612
788 0 1 11.312910 10.873140 556.467896