LAMMPS data file via MDAnalysis

        1000  atoms
        1000  bonds
        1000  angles
           0  dihedrals
           0  impropers

           1  atom types
           1  bond types
           1  angle types
           0  dihedral types
           0  improper types

0.000000 16.000000 xlo xhi
0.000000 16.000000 ylo yhi
0.000000 1257.000000 zlo zhi


Masses

1 1.000000

Atoms

1 0 1 7.382206 7.600955 456.061005
2 0 1 7.297358 7.884761 456.992004
3 0 1 7.683632 8.656912 457.613007
4 0 1 8.002439 9.488690 458.132996
5 0 1 8.254544 10.210300 458.645996
6 0 1 8.553850 10.991550 459.003998
7 0 1 8.816144 11.794090 459.440979
8 0 1 9.194970 12.546410 459.958984
9 0 1 9.360490 13.161551 460.699005
10 0 1 9.518960 13.274900 461.613007
11 0 1 9.835600 13.343740 462.550995
12 0 1 10.226400 13.310500 463.447021
13 0 1 10.357320 13.007760 464.369995
14 0 1 10.442420 12.493970 465.174011
15 0 1 10.180099 11.987690 465.936005
16 0 1 9.715390 11.612820 466.690979
17 0 1 9.633670 11.021300 467.376007
18 0 1 9.470680 10.421761 468.140015
19 0 1 9.307870 9.639370 468.721985
20 0 1 8.958514 8.976530 469.260010
21 0 1 8.533657 8.495730 469.927979
22 0 1 8.563262 8.168539 470.882019
23 0 1 8.317066 7.951808 471.899994
24 0 1 8.239848 8.031690 472.897003
25 0 1 8.234021 8.118082 473.851013
26 0 1 8.176583 8.263361 474.796997
27 0 1 7.940070 8.573157 475.669983
28 0 1 7.929300 8.790956 476.648010
29 0 1 7.773530 8.988473 477.578979
30 0 1 7.480886 9.255010 478.485992
31 0 1 7.790151 9.292810 479.437988
32 0 1 8.034376 9.326850 480.384003
33 0 1 8.393589 9.213449 481.226013
34 0 1 8.802006 8.885925 482.062012
35 0 1 9.012840 8.915672 482.976990
36 0 1 9.386900 8.896455 483.891998
37 0 1 9.867620 9.093370 484.742004
38 0 1 9.925190 9.487470 485.601990
39 0 1 9.693350 10.274100 486.048004
40 0 1 9.485660 10.949290 486.697021
41 0 1 9.317340 11.629760 487.421021
42 0 1 8.939193 12.356350 487.854980
43 0 1 8.294560 12.892290 488.425995
44 0 1 7.610740 13.194651 488.987000
45 0 1 7.155927 13.260070 489.859985
46 0 1 6.579360 13.141040 490.565979
47 0 1 6.060840 13.161010 491.338989
48 0 1 5.304310 12.819901 491.921021
49 0 1 4.794280 12.369841 492.645020
50 0 1 4.848320 11.745060 493.328979
51 0 1 4.802050 11.107480 494.061005
52 0 1 5.006820 10.602060 494.841980
53 0 1 5.601870 10.373540 495.575012
54 0 1 6.100520 10.034270 496.259003
55 0 1 6.537340 9.434060 496.937012
56 0 1 7.007873 9.217880 497.725006
57 0 1 7.333365 8.896359 498.575012
58 0 1 7.524066 9.000960 499.509003
59 0 1 7.894022 9.160270 500.429993
60 0 1 8.376858 9.016280 501.263000
61 0 1 8.762848 8.963183 502.089996
62 0 1 9.261050 9.064370 502.902008
63 0 1 9.681620 9.092010 503.824005
64 0 1 9.946350 9.019050 504.824005
65 0 1 9.857200 9.138060 505.751007
66 0 1 10.047131 9.241570 506.694000
67 0 1 10.076010 9.585530 507.661987
68 0 1 9.967070 9.821760 508.588013
69 0 1 9.662980 9.844570 509.510010
70 0 1 9.291350 9.815470 510.382019
71 0 1 8.869331 9.651820 511.201996
72 0 1 8.261911 9.543400 511.937988
73 0 1 7.866809 9.510360 512.859985
74 0 1 7.654352 9.293790 513.768982
75 0 1 7.506829 8.977113 514.667969
76 0 1 7.270522 8.801802 515.578979
77 0 1 6.927340 8.775180 516.494019
78 0 1 6.516010 8.684321 517.494019
79 0 1 6.031670 8.700483 518.348999
80 0 1 5.667060 8.575142 519.229980
81 0 1 5.268160 8.338462 520.135010
82 0 1 4.855010 7.877025 520.843018
83 0 1 4.791800 7.646957 521.752014
84 0 1 4.502190 7.574251 522.705017
85 0 1 4.072700 7.356058 523.536011
86 0 1 3.556630 7.173701 524.346008
87 0 1 3.002020 6.953680 525.145996
88 0 1 2.425930 6.588970 525.903015
89 0 1 1.975900 5.965490 526.500000
90 0 1 1.745040 5.460770 527.271973
91 0 1 1.837340 4.927480 528.073975
92 0 1 2.292950 4.681960 528.901184
93 0 1 2.456830 4.573180 529.904602
94 0 1 2.541760 4.448210 530.804810
95 0 1 2.296170 4.833890 531.737976
96 0 1 2.005930 5.156440 532.608521
97 0 1 1.951370 5.260620 533.543701
98 0 1 1.978410 5.395080 534.499207
99 0 1 2.038340 5.603280 535.416199
100 0 1 2.166370 5.668670 536.334290
101 0 1 2.326540 5.891000 537.243408
102 0 1 2.603380 5.979630 538.150024
103 0 1 3.229820 6.134720 538.893677
104 0 1 3.985970 6.234270 539.536316
105 0 1 4.638450 6.321760 540.220825
106 0 1 5.255250 6.468810 540.971680
107 0 1 6.028830 6.623260 541.541870
108 0 1 6.740900 6.909640 542.189392
109 0 1 7.352567 7.142078 542.907471
110 0 1 7.863579 7.331285 543.779785
111 0 1 8.231691 7.394831 544.690308
112 0 1 8.467035 7.443500 545.625732
113 0 1 8.893099 7.346805 546.535889
114 0 1 9.044290 7.487060 547.421692
115 0 1 9.183661 7.833343 548.336304
116 0 1 9.132170 8.151153 549.261902
117 0 1 9.055460 8.141188 550.188416
118 0 1 8.961997 7.779152 551.099426
119 0 1 8.935547 7.679895 552.060913
120 0 1 8.767685 7.842797 553.027405
121 0 1 8.694777 7.598426 553.995483
122 0 1 8.800050 7.373498 554.919434
123 0 1 8.732028 7.064314 555.878906
124 0 1 8.840551 6.872390 556.787720
125 0 1 8.986745 6.566960 557.655823
126 0 1 9.231421 6.629530 558.557800
127 0 1 9.252210 6.514520 559.542480
128 0 1 9.312520 6.441690 560.490479
129 0 1 9.456210 5.987530 561.365295
130 0 1 9.658840 5.468870 562.179932
131 0 1 9.729300 5.238140 563.184509
132 0 1 9.807450 5.161310 564.194214
133 0 1 9.816120 4.871570 565.071106
134 0 1 9.601650 4.722700 565.955994
135 0 1 9.221760 4.756970 566.859192
136 0 1 8.697360 4.733870 567.646301
137 0 1 8.054163 4.914470 568.330017
138 0 1 7.520830 5.345540 569.051819
139 0 1 6.970790 5.856670 569.631409
140 0 1 6.455510 6.368800 570.393127
141 0 1 6.288700 6.862410 571.152527
142 0 1 6.523840 7.448918 571.928284
143 0 1 6.593710 8.009748 572.717590
144 0 1 6.775850 8.613741 573.441101
145 0 1 6.939120 9.166121 574.207031
146 0 1 7.229609 9.501030 575.028931
147 0 1 7.511264 9.769630 575.906921
148 0 1 7.509486 10.187490 576.760315
149 0 1 7.167974 10.607780 577.570068
150 0 1 6.847630 11.125810 578.275391
151 0 1 6.500120 11.683220 578.899719
152 0 1 6.705390 12.209270 579.752808
153 0 1 6.799420 12.616671 580.662476
154 0 1 6.866400 12.702990 581.616516
155 0 1 6.841730 12.655280 582.595398
156 0 1 6.992420 12.654261 583.571289
157 0 1 7.159292 12.573950 584.528809
158 0 1 7.381736 12.269360 585.364502
159 0 1 7.207863 11.926410 586.259521
160 0 1 6.856090 11.698470 587.132812
161 0 1 6.571270 11.509430 588.076904
162 0 1 6.251070 11.645560 589.038086
163 0 1 5.940650 11.802430 589.989624
164 0 1 5.664560 11.590360 590.958618
165 0 1 5.609600 11.463660 591.949707
166 0 1 5.876840 11.144180 592.806885
167 0 1 5.962060 10.814640 593.706421
168 0 1 5.967450 10.364650 594.575928
169 0 1 5.860140 10.042430 595.578796
170 0 1 5.765400 9.833490 596.595825
171 0 1 5.723840 9.683830 597.597290
172 0 1 5.346870 9.535060 598.452393
173 0 1 5.040850 9.650760 599.394104
174 0 1 4.812810 9.758850 600.403809
175 0 1 4.855900 10.081750 601.403198
176 0 1 5.268160 10.016790 602.263428
177 0 1 5.752650 9.947790 603.092773
178 0 1 6.268000 9.965140 603.869873
179 0 1 6.939330 10.033900 604.562683
180 0 1 7.397405 9.719940 605.340576
181 0 1 7.902981 9.612590 606.140503
182 0 1 8.342896 9.665380 607.016724
183 0 1 8.824590 9.725460 607.876587
184 0 1 9.161150 9.573940 608.741272
185 0 1 9.307540 9.250440 609.642700
186 0 1 9.128460 8.888107 610.543701
187 0 1 8.818832 8.779377 611.410095
188 0 1 8.881534 8.588029 612.326172
189 0 1 9.157280 8.645385 613.272888
190 0 1 9.455570 8.671459 614.172424
191 0 1 9.630810 8.591013 615.137207
192 0 1 9.820580 8.461832 616.103394
193 0 1 10.015471 8.139605 616.980225
194 0 1 10.396310 7.969133 617.913818
195 0 1 10.794440 7.886060 618.844788
196 0 1 10.942600 7.761850 619.773193
197 0 1 10.776150 7.600548 620.778809
198 0 1 10.734720 7.578887 621.749451
199 0 1 10.592340 7.637137 622.682373
200 0 1 10.225451 7.963794 623.581665
201 0 1 9.615690 8.327943 624.291870
202 0 1 9.202510 8.746572 625.053040
203 0 1 9.065800 9.201670 625.972168
204 0 1 8.586531 9.271710 626.817078
205 0 1 8.134794 9.478840 627.720581
206 0 1 7.726114 9.741120 628.568970
207 0 1 7.295244 9.947090 629.357666
208 0 1 6.888280 10.428720 630.085449
209 0 1 6.411410 11.034590 630.632019
210 0 1 5.918780 11.621710 631.238586
211 0 1 5.202820 12.037371 631.782715
212 0 1 4.623570 12.098150 632.490906
213 0 1 3.963820 12.013781 633.172363
214 0 1 3.439190 12.040520 634.007507
215 0 1 3.122110 12.065980 634.930054
216 0 1 2.997870 11.866489 635.894775
217 0 1 2.823200 11.444390 636.709229
218 0 1 2.806200 10.829070 637.466248
219 0 1 2.685190 10.345840 638.290344
220 0 1 2.482320 9.733660 639.068115
221 0 1 2.221580 8.896221 639.545776
222 0 1 2.133600 8.126986 640.152710
223 0 1 2.099030 7.431732 640.755005
224 0 1 2.094720 6.728110 641.490479
225 0 1 2.186630 6.278660 642.333496
226 0 1 2.447370 6.017940 643.276611
227 0 1 2.598430 5.787840 644.192871
228 0 1 2.852800 5.752240 645.154907
229 0 1 3.056110 5.975630 646.085876
230 0 1 3.386320 6.163430 646.997314
231 0 1 3.616470 6.425770 647.804688
232 0 1 4.198970 6.580310 648.601685
233 0 1 4.820120 6.185260 649.268127
234 0 1 5.362110 5.784470 649.903809
235 0 1 5.587150 5.370970 650.757507
236 0 1 5.758720 5.309920 651.692810
237 0 1 5.638030 5.322760 652.615417
238 0 1 5.641020 5.826100 653.528809
239 0 1 5.409150 6.058890 654.425476
240 0 1 5.221460 6.293130 655.311279
241 0 1 5.196610 6.832750 656.177307
242 0 1 5.351580 7.410190 656.928406
243 0 1 5.302620 8.037499 657.658020
244 0 1 5.024680 8.584961 658.366882
245 0 1 4.881830 8.936778 659.249878
246 0 1 4.555700 9.322130 660.155823
247 0 1 4.348890 9.643400 661.067200
248 0 1 4.269240 9.615530 661.985229
249 0 1 4.505160 9.792780 662.835815
250 0 1 4.841250 9.747910 663.671326
251 0 1 5.389320 9.908580 664.427979
252 0 1 5.857970 9.917720 665.301208
253 0 1 6.384170 10.054461 666.173523
254 0 1 6.715850 10.256510 667.047424
255 0 1 7.150207 10.630160 667.770691
256 0 1 7.333915 10.966750 668.645996
257 0 1 7.363406 11.402420 669.491272
258 0 1 7.568963 11.769330 670.394409
259 0 1 7.691997 11.863760 671.348389
260 0 1 7.865487 12.172091 672.177124
261 0 1 8.207378 12.359011 673.121826
262 0 1 8.186406 12.321290 674.025879
263 0 1 7.980327 12.024640 674.913818
264 0 1 7.869433 11.710420 675.796021
265 0 1 7.858645 11.389900 676.665710
266 0 1 7.795919 10.873180 677.431274
267 0 1 7.833822 10.481180 678.226318
268 0 1 7.746178 10.363380 679.179199
269 0 1 7.839903 10.193700 680.130615
270 0 1 7.822499 9.736520 681.005005
271 0 1 8.104056 9.496280 681.899719
272 0 1 8.167357 9.165440 682.826172
273 0 1 8.153947 8.934032 683.726990
274 0 1 8.156151 8.710685 684.632690
275 0 1 8.250336 8.402673 685.557495
276 0 1 8.125407 8.101053 686.483826
277 0 1 7.904042 7.415691 687.206726
278 0 1 7.814247 6.807390 688.018982
279 0 1 7.763955 6.239090 688.848206
280 0 1 8.055260 5.706990 689.562805
281 0 1 8.478158 5.456180 690.454773
282 0 1 9.015160 5.206410 691.225098
283 0 1 9.580670 5.051430 691.972168
284 0 1 10.216870 5.022660 692.602417
285 0 1 10.920031 5.039820 693.288086
286 0 1 11.572340 5.294460 694.002625
287 0 1 12.160299 5.131850 694.671387
288 0 1 12.419430 4.775920 695.535278
289 0 1 12.626801 4.370210 696.375366
290 0 1 12.614491 3.864880 697.182922
291 0 1 12.644220 3.429880 697.987488
292 0 1 12.373460 3.394760 698.930725
293 0 1 11.841400 3.072770 699.649292
294 0 1 11.327020 3.207440 700.441284
295 0 1 10.805970 3.426790 701.227112
296 0 1 10.237090 3.567930 701.981689
297 0 1 9.636140 3.627260 702.658386
298 0 1 8.903566 3.510970 703.223999
299 0 1 8.317038 4.045070 703.757324
300 0 1 7.986916 4.483450 704.546631
301 0 1 7.634732 5.017410 705.288208
302 0 1 7.472252 5.388150 706.156189
303 0 1 7.643716 5.545350 707.096619
304 0 1 7.998096 5.651690 707.939880
305 0 1 8.439031 5.949770 708.790100
306 0 1 8.914348 6.269070 709.621521
307 0 1 9.593250 6.623560 710.247375
308 0 1 10.104560 6.973130 711.027222
309 0 1 10.645140 7.365650 711.749512
310 0 1 10.881041 7.749164 712.624023
311 0 1 10.938480 8.163409 713.459473
312 0 1 11.119860 8.697915 714.305115
313 0 1 11.089390 8.874462 715.223206
314 0 1 10.753410 8.842409 716.154419
315 0 1 10.325350 8.850433 717.026367
316 0 1 9.782080 9.017530 717.806824
317 0 1 9.390940 8.800585 718.661499
318 0 1 8.794459 8.531188 719.438782
319 0 1 8.031522 8.751116 720.101318
320 0 1 7.442599 8.884946 720.864868
321 0 1 7.114522 8.964131 721.751709
322 0 1 6.945190 9.142241 722.772400
323 0 1 6.995440 9.321780 723.742004
324 0 1 6.865690 9.664470 724.756897
325 0 1 6.791250 9.854170 725.661621
326 0 1 6.831870 9.899960 726.639221
327 0 1 7.189708 10.038470 727.527893
328 0 1 7.210466 10.093400 728.492188
329 0 1 7.572358 9.644130 729.288025
330 0 1 8.144241 9.020500 729.810974
331 0 1 8.710166 8.575578 730.458008
332 0 1 9.489520 8.432332 731.141968
333 0 1 10.104410 7.862134 731.653992
334 0 1 10.853310 7.689559 732.307983
335 0 1 11.224060 7.594004 733.176025
336 0 1 11.346980 7.839948 734.155029
337 0 1 11.340720 7.962949 735.129028
338 0 1 11.463230 8.018193 736.101013
339 0 1 11.664300 8.050021 737.098999
340 0 1 11.936860 8.085189 738.026001
341 0 1 11.986120 7.865848 739.021973
342 0 1 11.917910 7.901018 739.981018
343 0 1 12.122250 7.732242 740.911987
344 0 1 12.227110 7.337646 741.783997
345 0 1 12.231180 7.250893 742.695007
346 0 1 12.153510 7.192654 743.635010
347 0 1 12.280210 7.411270 744.528992
348 0 1 12.401810 7.748358 745.416992
349 0 1 12.520121 8.135174 746.304993
350 0 1 12.569680 8.754146 747.031982
351 0 1 12.368340 9.201760 747.890015
352 0 1 12.199520 9.590590 748.750977
353 0 1 11.946810 9.719730 749.695007
354 0 1 11.565290 9.838580 750.572021
355 0 1 11.081420 9.990480 751.406982
356 0 1 10.574210 10.410100 752.067993
357 0 1 9.889530 10.653680 752.723022
358 0 1 9.274000 10.946711 753.325012
359 0 1 8.450767 10.887210 753.997986
360 0 1 7.855418 10.783910 754.739014
361 0 1 7.338967 10.375130 755.489990
362 0 1 6.929370 9.767130 756.158020
363 0 1 6.714930 9.105320 756.804993
364 0 1 6.335540 8.622143 757.549988
365 0 1 6.191610 8.146522 758.365967
366 0 1 5.914980 8.128239 759.390991
367 0 1 5.663010 7.875728 760.301025
368 0 1 5.448170 7.456371 761.161987
369 0 1 5.248840 7.242570 762.047974
370 0 1 5.118520 7.026550 762.921997
371 0 1 5.461840 7.005625 763.901001
372 0 1 5.518430 7.084128 764.817017
373 0 1 5.230080 7.146957 765.760986
374 0 1 4.988480 7.233563 766.669006
375 0 1 4.659610 7.333394 767.552002
376 0 1 4.178270 7.604288 768.333008
377 0 1 3.669160 7.966185 769.212036
378 0 1 3.428090 8.505474 770.011963
379 0 1 3.110710 8.961386 770.755981
380 0 1 2.813620 9.303980 771.610962
381 0 1 2.664790 9.480980 772.589966
382 0 1 2.595100 9.350970 773.580017
383 0 1 2.470830 9.194360 774.473999
384 0 1 2.217600 9.198800 775.410034
385 0 1 1.912080 9.484060 776.294983
386 0 1 1.725160 9.376580 777.197021
387 0 1 1.936920 9.347490 778.112000
388 0 1 1.998750 9.034660 779.016968
389 0 1 2.280940 8.877778 779.922974
390 0 1 2.726620 8.731774 780.740967
391 0 1 3.194950 8.813336 781.552979
392 0 1 3.605900 8.839535 782.440979
393 0 1 3.981920 8.886984 783.294006
394 0 1 3.917790 9.117100 784.218994
395 0 1 4.106510 8.909701 785.114014
396 0 1 4.271510 8.949593 786.106995
397 0 1 4.603570 9.268440 787.002991
398 0 1 4.909090 9.418420 787.867981
399 0 1 5.450820 9.309610 788.733032
400 0 1 5.840500 9.433080 789.601013
401 0 1 6.024030 9.440001 790.528015
402 0 1 6.245140 9.463580 791.460999
403 0 1 6.470990 9.222610 792.359985
404 0 1 6.838820 8.969347 793.234985
405 0 1 7.188869 8.712096 794.099976
406 0 1 7.500577 8.774670 795.049011
407 0 1 7.719362 8.832078 795.987000
408 0 1 7.757121 9.133060 796.924988
409 0 1 8.075640 9.640770 797.822998
410 0 1 8.323533 10.194680 798.528015
411 0 1 8.606844 10.748340 799.427979
412 0 1 8.650630 11.076080 800.304016
413 0 1 8.653069 11.239270 801.322998
414 0 1 8.910990 11.086070 802.249023
415 0 1 9.189330 11.336630 803.167969
416 0 1 9.411170 11.557370 804.072998
417 0 1 9.486310 11.867780 804.989014
418 0 1 9.642750 12.094120 805.929016
419 0 1 9.867480 12.408210 806.781006
420 0 1 10.240420 12.848200 807.546997
421 0 1 10.379180 13.180340 808.463013
422 0 1 10.314460 13.354530 809.427979
423 0 1 10.243780 13.335020 810.346008
424 0 1 10.247459 13.039740 811.265015
425 0 1 10.365550 12.812210 812.153015
426 0 1 10.838520 12.396891 812.898010
427 0 1 11.470260 12.191860 813.536011
428 0 1 11.970370 11.929300 814.304993
429 0 1 12.097270 11.456750 815.104004
430 0 1 12.245700 10.868990 815.823975
431 0 1 12.339001 10.337560 816.603027
432 0 1 12.419479 9.829760 817.410034
433 0 1 12.406270 9.488070 818.369995
434 0 1 12.049690 9.467970 819.254028
435 0 1 11.778060 9.752480 820.166016
436 0 1 11.669790 10.051790 821.094971
437 0 1 11.633600 10.219280 822.044983
438 0 1 11.997700 10.293660 822.979980
439 0 1 12.268570 10.366170 823.889038
440 0 1 12.307301 10.350810 824.911011
441 0 1 12.422729 10.297260 825.912964
442 0 1 12.535060 10.241930 826.851013
443 0 1 12.651390 10.150690 827.851013
444 0 1 12.575940 10.003000 828.815979
445 0 1 12.318029 9.795880 829.809998
446 0 1 12.269580 9.770340 830.839966
447 0 1 12.096849 9.928370 831.708984
448 0 1 11.731740 10.223560 832.473999
449 0 1 11.189780 10.627110 833.205017
450 0 1 10.467210 11.026979 833.635010
451 0 1 9.542160 11.331450 833.843994
452 0 1 8.614277 11.521730 833.940002
453 0 1 7.643497 11.579440 833.848999
454 0 1 6.701630 11.506150 833.713013
455 0 1 5.848210 11.448490 833.210022
456 0 1 5.141750 11.499030 832.570007
457 0 1 4.564850 11.787970 831.859009
458 0 1 4.076680 11.984921 831.078003
459 0 1 3.601460 11.805600 830.186035
460 0 1 3.254440 11.863060 829.341003
461 0 1 3.015200 11.920630 828.339966
462 0 1 2.979810 11.652620 827.377014
463 0 1 3.237970 11.314529 826.494995
464 0 1 3.580120 11.136830 825.606995
465 0 1 3.698020 10.727640 824.825989
466 0 1 4.108380 10.368350 823.937988
467 0 1 4.755970 10.136790 823.260010
468 0 1 5.385600 10.039949 822.554993
469 0 1 6.010270 10.109489 821.863037
470 0 1 6.805090 10.189180 821.231995
471 0 1 7.460348 10.254060 820.476013
472 0 1 8.026467 10.225070 819.692993
473 0 1 8.536026 10.273400 818.820984
474 0 1 8.822626 10.199860 817.905029
475 0 1 9.052180 9.963790 817.054993
476 0 1 9.357290 9.967760 816.174011
477 0 1 9.787280 10.038730 815.338989
478 0 1 10.299510 9.926080 814.537964
479 0 1 10.691610 9.763920 813.636963
480 0 1 10.595970 9.507960 812.677002
481 0 1 10.420410 9.269560 811.702026
482 0 1 10.278970 8.923672 810.869019
483 0 1 10.249331 8.827908 809.938965
484 0 1 10.423870 8.477907 809.049011
485 0 1 10.605100 7.996070 808.193970
486 0 1 11.171100 7.591992 807.518982
487 0 1 11.798320 7.271033 806.760986
488 0 1 12.304930 7.227252 805.841003
489 0 1 12.491320 7.150465 804.945984
490 0 1 12.811110 6.855110 804.080017
491 0 1 13.072610 6.706230 803.158997
492 0 1 12.748859 6.613030 802.257019
493 0 1 12.616079 6.677380 801.297974
494 0 1 12.431100 6.660740 800.427979
495 0 1 12.365709 6.773720 799.499023
496 0 1 11.909770 7.036011 798.667969
497 0 1 11.576670 7.338520 797.755005
498 0 1 11.243350 7.503463 796.908020
499 0 1 10.753830 7.582021 796.077026
500 0 1 10.450290 7.795873 795.240967
501 0 1 10.081440 7.904940 794.354980
502 0 1 9.858010 7.579436 793.427979
503 0 1 9.449990 6.971690 792.755005
504 0 1 8.876508 6.330520 792.260010
505 0 1 8.301144 5.759630 791.785034
506 0 1 7.939855 4.957430 791.447021
507 0 1 7.652286 4.157640 791.033020
508 0 1 7.369393 3.449030 790.552002
509 0 1 7.200710 2.669170 790.010010
510 0 1 7.057030 2.066760 789.224976
511 0 1 6.916920 1.574840 788.396973
512 0 1 6.857360 1.366620 787.463013
513 0 1 7.085588 1.325860 786.547974
514 0 1 7.309902 1.220000 785.610962
515 0 1 7.610982 1.354140 784.702026
516 0 1 7.920794 1.525450 783.765015
517 0 1 8.385501 1.990950 783.018005
518 0 1 8.363877 2.609710 782.260986
519 0 1 7.796292 3.038660 781.539001
520 0 1 7.249468 3.588660 781.046021
521 0 1 6.689850 4.011710 780.393982
522 0 1 6.339690 4.706600 779.632019
523 0 1 6.304980 5.247510 778.818970
524 0 1 6.260040 5.899780 778.153992
525 0 1 6.319550 6.389830 777.365967
526 0 1 6.495740 6.928410 776.617981
527 0 1 6.401490 7.265554 775.759033
528 0 1 6.453560 7.527742 774.875000
529 0 1 6.362170 7.756518 773.934998
530 0 1 6.172830 8.451851 773.289978
531 0 1 6.123540 8.993315 772.510986
532 0 1 5.974640 9.524650 771.695984
533 0 1 5.611920 9.647930 770.731018
534 0 1 5.188820 9.945200 769.945007
535 0 1 4.941470 10.353090 769.089966
536 0 1 4.845970 10.740940 768.161011
537 0 1 4.689420 10.892611 767.260010
538 0 1 4.460260 10.758150 766.286987
539 0 1 4.458890 10.751940 765.369995
540 0 1 4.418510 10.837340 764.377991
541 0 1 4.437400 10.996090 763.411011
542 0 1 4.632660 11.129760 762.484009
543 0 1 4.984440 10.937340 761.674011
544 0 1 5.300440 10.570230 760.869995
545 0 1 5.949740 10.239990 760.270996
546 0 1 6.417100 9.689050 759.613037
547 0 1 6.821010 9.337120 758.812012
548 0 1 7.295973 8.886471 758.089966
549 0 1 7.722617 8.207902 757.513000
550 0 1 8.090980 7.501315 756.822021
551 0 1 8.300318 6.778760 756.234985
552 0 1 8.649669 6.048610 755.606995
553 0 1 8.830645 5.395760 754.937012
554 0 1 9.183150 4.673210 754.281006
555 0 1 9.353390 3.979750 753.658997
556 0 1 9.518920 3.417910 752.895996
557 0 1 9.859040 2.802320 752.270996
558 0 1 9.904660 2.494130 751.379028
559 0 1 9.855430 2.657110 750.361023
560 0 1 9.807990 2.672620 749.262024
561 0 1 9.908800 2.779250 748.285034
562 0 1 10.008369 2.910490 747.275024
563 0 1 9.914530 2.895540 746.283020
564 0 1 9.964440 3.031900 745.385010
565 0 1 9.942310 3.265630 744.382996
566 0 1 9.830700 3.387480 743.445007
567 0 1 9.709000 3.516130 742.499023
568 0 1 9.257450 3.883340 741.736023
569 0 1 8.808071 4.164220 740.905029
570 0 1 8.767038 4.632590 740.046997
571 0 1 8.720472 5.298320 739.346985
572 0 1 8.616375 5.993340 738.671021
573 0 1 8.675699 6.826170 738.216003
574 0 1 8.876091 7.650550 737.692993
575 0 1 9.172770 8.572465 737.354980
576 0 1 9.579110 9.355850 736.851990
577 0 1 9.830290 10.088260 736.325989
578 0 1 10.055400 10.973490 736.077026
579 0 1 10.247260 11.692600 735.509033
580 0 1 10.225740 12.403620 734.903992
581 0 1 10.188430 13.083170 734.197998
582 0 1 10.294991 13.528151 733.320007
583 0 1 10.443740 13.641160 732.292969
584 0 1 10.375040 13.304680 731.362000
585 0 1 10.429930 13.120930 730.421021
586 0 1 10.579470 13.009920 729.460999
587 0 1 10.863610 12.763010 728.559021
588 0 1 10.808270 12.746981 727.588623
589 0 1 10.774600 12.647030 726.623413
590 0 1 10.784650 12.737480 725.665283
591 0 1 10.752370 12.648350 724.665710
592 0 1 10.842290 12.705811 723.682007
593 0 1 11.068510 12.811260 722.760376
594 0 1 11.173920 13.028270 721.838074
595 0 1 11.102700 13.099370 720.799194
596 0 1 10.848540 12.998270 719.888794
597 0 1 10.715590 12.690590 718.996887
598 0 1 10.528180 12.623569 718.064026
599 0 1 9.878960 12.458310 717.372620
600 0 1 9.410450 12.282930 716.514587
601 0 1 9.240520 12.172380 715.562988
602 0 1 9.122620 12.375720 714.645996
603 0 1 9.101990 12.562930 713.674072
604 0 1 9.055510 12.736919 712.690918
605 0 1 9.141450 12.930320 711.754517
606 0 1 9.140390 13.311399 710.875732
607 0 1 9.096480 13.423420 709.929321
608 0 1 8.760181 13.639790 709.109009
609 0 1 8.626406 13.686410 708.191223
610 0 1 8.525392 13.555679 707.304932
611 0 1 8.459022 13.733700 706.311890
612 0 1 7.932534 13.772150 705.529175
613 0 1 7.136766 13.503099 704.971497
614 0 1 6.449090 13.063160 704.432922
615 0 1 5.760650 12.593000 703.998291
616 0 1 4.993850 12.274750 703.616089
617 0 1 4.372350 11.833320 703.018616
618 0 1 3.705400 11.455960 702.395081
619 0 1 3.178780 11.037530 701.726196
620 0 1 2.898990 10.273730 701.196533
621 0 1 2.870820 9.494850 700.602783
622 0 1 3.034440 8.725713 700.048523
623 0 1 3.550810 8.150344 699.523193
624 0 1 3.896500 7.363010 699.056396
625 0 1 4.257700 6.741630 698.447083
626 0 1 4.932340 6.169710 697.996887
627 0 1 5.546100 5.732750 697.415527
628 0 1 6.071080 5.311150 696.694275
629 0 1 6.371290 4.894600 695.912231
630 0 1 6.955950 4.599460 695.210388
631 0 1 7.271340 4.319210 694.349182
632 0 1 7.546421 4.270290 693.451599
633 0 1 7.710725 4.379860 692.579285
634 0 1 7.904612 4.370870 691.578979
635 0 1 7.893561 4.236380 690.627197
636 0 1 7.980375 3.560970 689.940125
637 0 1 8.177577 3.333230 689.071411
638 0 1 8.366367 3.148030 688.048584
639 0 1 8.992969 3.129430 687.369202
640 0 1 9.443120 3.151430 686.461487
641 0 1 9.815400 3.390030 685.609009
642 0 1 9.978070 3.889730 684.728394
643 0 1 10.127380 4.493120 684.016724
644 0 1 10.294940 5.060210 683.183777
645 0 1 10.124010 5.529990 682.405029
646 0 1 9.853621 5.793690 681.559082
647 0 1 9.597010 6.143440 680.669678
648 0 1 9.104210 6.464240 679.906189
649 0 1 8.482028 6.690770 679.211121
650 0 1 7.947430 6.903380 678.420715
651 0 1 7.533652 7.039321 677.493713
652 0 1 7.100699 7.317523 676.708618
653 0 1 6.601800 7.763101 676.011108
654 0 1 6.080530 8.210103 675.329224
655 0 1 5.376960 8.510233 674.768311
656 0 1 4.767000 8.992736 674.242615
657 0 1 4.193680 9.344380 673.534180
658 0 1 3.848500 9.527020 672.689331
659 0 1 3.461090 9.606160 671.838806
660 0 1 3.034230 9.754020 670.968628
661 0 1 2.634860 9.824840 670.035828
662 0 1 2.689160 9.782681 669.074890
663 0 1 2.799960 9.914989 668.151611
664 0 1 2.967150 10.271600 667.221008
665 0 1 3.304700 10.581580 666.368896
666 0 1 3.792720 10.744810 665.565125
667 0 1 4.113560 11.036570 664.732605
668 0 1 4.468310 11.516150 663.984802
669 0 1 5.038010 11.595380 663.207397
670 0 1 5.496840 11.576190 662.406372
671 0 1 5.765520 11.676280 661.490784
672 0 1 5.802240 11.678010 660.464111
673 0 1 6.232720 11.757960 659.639893
674 0 1 6.440490 11.890750 658.737000
675 0 1 6.916910 11.900550 657.949829
676 0 1 7.393125 12.045150 657.169128
677 0 1 7.888546 12.316760 656.428772
678 0 1 8.286751 12.495990 655.570496
679 0 1 8.622799 12.510540 654.639771
680 0 1 8.975383 12.516590 653.671326
681 0 1 9.608070 12.291980 652.980286
682 0 1 10.007450 12.039801 652.137695
683 0 1 10.255510 11.711411 651.304504
684 0 1 10.638690 11.231550 650.531921
685 0 1 11.108240 10.934270 649.782410
686 0 1 11.564730 10.683240 648.973877
687 0 1 12.155650 10.589610 648.283569
688 0 1 12.235430 10.439920 647.367920
689 0 1 12.649300 10.187970 646.521423
690 0 1 12.978570 10.106370 645.621216
691 0 1 13.092490 9.839950 644.740601
692 0 1 13.059320 9.697570 643.804626
693 0 1 13.084420 9.491070 642.908508
694 0 1 12.903020 9.058740 642.077515
695 0 1 12.865200 8.540484 641.219727
696 0 1 12.870260 8.182044 640.304993
697 0 1 12.845520 7.969276 639.417419
698 0 1 12.750970 7.629622 638.588623
699 0 1 12.610920 7.276072 637.576294
700 0 1 12.582090 7.101252 636.677429
701 0 1 12.702829 6.997210 635.757996
702 0 1 12.695351 6.702150 634.770874
703 0 1 12.702560 6.575890 633.837341
704 0 1 12.553801 6.182700 633.002136
705 0 1 12.706221 5.761410 632.133240
706 0 1 13.013309 5.516090 631.263000
707 0 1 13.380791 5.639040 630.422302
708 0 1 13.539740 5.756870 629.489441
709 0 1 13.673450 6.023440 628.561707
710 0 1 13.743370 6.261940 627.654968
711 0 1 13.659950 6.427920 626.673096
712 0 1 13.597281 7.010568 625.858765
713 0 1 13.691669 7.598845 625.072266
714 0 1 13.769670 8.367155 624.448547
715 0 1 13.821199 9.167260 623.893677
716 0 1 13.586660 10.066950 623.569153
717 0 1 13.282700 10.924100 623.138367
718 0 1 12.858521 11.840130 623.016113
719 0 1 12.295640 12.516970 622.671997
720 0 1 11.564510 13.091940 622.410522
721 0 1 10.800450 13.649080 622.041504
722 0 1 10.283940 14.119551 621.396790
723 0 1 9.765740 14.559390 620.719788
724 0 1 9.065560 14.711411 620.062500
725 0 1 8.383763 14.534760 619.407349
726 0 1 7.587017 14.361589 618.738220
727 0 1 7.237227 13.928101 617.930786
728 0 1 6.960430 13.859660 617.027100
729 0 1 6.588450 13.713760 616.168396
730 0 1 6.279020 13.393650 615.321106
731 0 1 6.241440 13.056231 614.451294
732 0 1 5.996610 12.615320 613.667297
733 0 1 6.014770 12.028390 612.856323
734 0 1 6.034130 11.303740 612.187622
735 0 1 6.367910 10.670410 611.525208
736 0 1 6.430250 10.025760 610.865173
737 0 1 6.541650 9.290440 610.276917
738 0 1 6.781750 8.671023 609.485779
739 0 1 7.207953 8.061769 608.886414
740 0 1 7.673393 7.587758 608.182373
741 0 1 8.055913 6.902890 607.703125
742 0 1 8.326908 6.292170 606.942505
743 0 1 8.922444 5.687760 606.471191
744 0 1 9.370461 5.120770 605.823120
745 0 1 9.575690 4.659800 605.072021
746 0 1 9.366670 4.178420 604.171082
747 0 1 9.372020 4.058140 603.242371
748 0 1 9.531330 3.988440 602.321716
749 0 1 9.599710 3.898130 601.403015
750 0 1 9.536489 3.572360 600.432312
751 0 1 9.285470 3.406620 599.549500
752 0 1 8.843413 2.968770 598.782471
753 0 1 8.575232 2.744390 597.867004
754 0 1 8.085212 2.578600 596.981018
755 0 1 7.536591 2.720850 596.162598
756 0 1 6.900170 2.989110 595.522278
757 0 1 6.335120 3.519400 594.904602
758 0 1 5.590470 4.019090 594.515808
759 0 1 4.993480 4.253330 593.792175
760 0 1 4.657040 4.658050 592.974121
761 0 1 4.605100 4.978480 592.065613
762 0 1 4.533160 4.990640 591.100586
763 0 1 4.813770 4.989950 590.191589
764 0 1 4.892010 4.742470 589.210571
765 0 1 4.849300 4.652080 588.211609
766 0 1 4.801310 4.759280 587.201294
767 0 1 4.826550 4.816580 586.222900
768 0 1 4.759170 4.881710 585.272217
769 0 1 4.660260 5.127330 584.312622
770 0 1 4.578270 5.180510 583.349915
771 0 1 4.919030 5.089930 582.428101
772 0 1 5.231350 5.006650 581.494995
773 0 1 5.549040 5.042630 580.601624
774 0 1 5.627080 5.145710 579.659485
775 0 1 5.628530 5.508870 578.764893
776 0 1 5.872030 5.670140 577.800476
777 0 1 5.891500 5.950990 576.844116
778 0 1 5.802430 6.068800 575.937683
779 0 1 5.567470 6.212580 575.057922
780 0 1 5.385620 6.260090 574.103577
781 0 1 5.173810 6.139200 573.150208
782 0 1 5.010180 6.052100 572.187317
783 0 1 4.738260 6.051460 571.278015
784 0 1 4.609010 5.973920 570.270508
785 0 1 4.396800 5.800300 569.279297
786 0 1 4.319360 5.720330 568.338928
787 0 1 4.288000 5.990170 567.403687
788 0 1 4.145240 6.435260 566.556885
789 0 1 4.157140 6.870230 565.721008
790 0 1 4.200520 7.395339 564.879822
791 0 1 4.224130 7.849067 564.059875