LAMMPS data file via MDAnalysis

        1000  atoms
        1000  bonds
        1000  angles
           0  dihedrals
           0  impropers

           1  atom types
           1  bond types
           1  angle types
           0  dihedral types
           0  improper types

0.000000 16.000000 xlo xhi
0.000000 16.000000 ylo yhi
0.000000 1257.000000 zlo zhi


Masses

1 1.000000

Atoms

1 0 1 8.269552 13.618130 443.286987
2 0 1 8.220767 13.796989 444.248993
3 0 1 8.256797 13.918530 445.179993
4 0 1 8.018970 14.011950 446.041992
5 0 1 7.533180 14.007870 446.854004
6 0 1 7.235997 14.228849 447.744019
7 0 1 7.126169 14.275030 448.705017
8 0 1 7.020924 14.231979 449.674011
9 0 1 7.031210 14.481100 450.585999
10 0 1 7.044100 14.413150 451.548004
11 0 1 6.907450 14.368290 452.509003
12 0 1 6.956590 14.555000 453.442017
13 0 1 7.112395 14.802589 454.319000
14 0 1 7.294128 14.791000 455.325989
15 0 1 7.579719 14.497360 456.192017
16 0 1 7.664385 14.287300 457.130981
17 0 1 7.755803 13.999760 458.052979
18 0 1 7.620285 13.680640 458.942017
19 0 1 7.368275 13.405001 459.867981
20 0 1 7.136283 12.951260 460.713013
21 0 1 7.068895 12.738740 461.684021
22 0 1 6.844370 12.826000 462.588989
23 0 1 6.762720 12.683010 463.541992
24 0 1 6.803940 12.833780 464.481018
25 0 1 6.857270 12.971809 465.436005
26 0 1 7.251264 13.063080 466.320007
27 0 1 7.493349 13.381229 467.173004
28 0 1 7.590930 13.871560 467.960022
29 0 1 7.751567 14.061689 468.859985
30 0 1 7.660601 14.186279 469.806000
31 0 1 7.417713 14.076820 470.828003
32 0 1 7.088456 13.798150 471.653015
33 0 1 6.635790 13.531440 472.604980
34 0 1 6.297910 13.091610 473.341003
35 0 1 5.865500 12.560360 473.989014
36 0 1 5.426440 12.068120 474.656982
37 0 1 5.141720 11.726130 475.546997
38 0 1 5.040980 11.096581 476.278015
39 0 1 4.947890 10.470170 477.031006
40 0 1 4.553040 9.833250 477.699005
41 0 1 4.098060 9.402370 478.412994
42 0 1 3.717890 9.138410 479.264008
43 0 1 3.256280 8.765623 480.015015
44 0 1 3.024890 8.397753 480.898010
45 0 1 2.982920 7.775598 481.662994
46 0 1 3.081330 7.213653 482.403015
47 0 1 3.122740 6.585910 483.160004
48 0 1 3.191360 6.254020 484.065002
49 0 1 3.210740 6.002240 485.005005
50 0 1 3.143590 5.946050 485.927002
51 0 1 3.451850 5.800960 486.798004
52 0 1 3.793190 5.777030 487.700012
53 0 1 4.150110 5.636900 488.580017
54 0 1 4.512720 5.721280 489.476013
55 0 1 4.644380 5.809640 490.432007
56 0 1 4.555630 5.997430 491.406982
57 0 1 4.332500 6.017020 492.416016
58 0 1 4.270280 6.266220 493.352997
59 0 1 4.284990 6.462870 494.296997
60 0 1 4.538320 6.826920 495.169983
61 0 1 4.624270 7.262190 496.044983
62 0 1 4.828350 7.297449 496.997986
63 0 1 4.771070 7.613017 497.937012
64 0 1 4.954650 7.822859 498.863007
65 0 1 5.138670 8.157946 499.755005
66 0 1 5.544450 8.283126 500.613007
67 0 1 6.050410 8.615991 501.377014
68 0 1 6.352690 8.768716 502.283997
69 0 1 6.737450 8.917724 503.194000
70 0 1 7.096417 8.955324 504.114990
71 0 1 7.306444 8.987919 505.033997
72 0 1 7.491930 9.460840 505.951996
73 0 1 7.698363 9.949810 506.734009
74 0 1 7.866890 10.289330 507.572998
75 0 1 7.930820 10.453310 508.558990
76 0 1 8.257795 10.589240 509.458008
77 0 1 8.630449 10.678610 510.321991
78 0 1 9.045920 10.974350 511.095001
79 0 1 9.311710 11.192080 511.989014
80 0 1 9.558670 11.548090 512.872986
81 0 1 9.913500 11.469660 513.786987
82 0 1 10.031870 11.395070 514.737976
83 0 1 9.729770 11.355910 515.622009
84 0 1 9.375110 11.221970 516.507019
85 0 1 9.075920 11.102440 517.390015
86 0 1 8.723212 11.018990 518.283020
87 0 1 8.499194 11.049700 519.223022
88 0 1 8.183952 10.660891 520.005981
89 0 1 8.021390 10.549270 520.903015
90 0 1 7.725083 10.532870 521.791992
91 0 1 7.195792 10.313900 522.624023
92 0 1 6.765470 10.169870 523.510986
93 0 1 6.477940 9.994160 524.391968
94 0 1 6.033890 9.707710 525.207031
95 0 1 5.613650 9.595280 526.085022
96 0 1 5.360910 9.202070 527.052002
97 0 1 5.251180 8.796240 527.932983
98 0 1 5.202550 8.608534 528.870300
99 0 1 5.256800 8.660698 529.865784
100 0 1 5.393210 8.806013 530.812012
101 0 1 5.585750 8.907769 531.762573
102 0 1 5.862190 9.030410 532.730103
103 0 1 5.877360 9.176680 533.671509
104 0 1 5.839890 9.077860 534.661926
105 0 1 5.643480 9.239861 535.703979
106 0 1 5.424820 9.289730 536.704407
107 0 1 5.383170 9.611550 537.609131
108 0 1 5.621770 10.018520 538.488281
109 0 1 5.390690 10.362510 539.412476
110 0 1 5.289640 10.881760 540.250122
111 0 1 5.101940 11.341170 541.037720
112 0 1 5.083160 11.831930 541.883301
113 0 1 5.116210 12.314180 542.684570
114 0 1 4.892240 12.564100 543.604919
115 0 1 4.792300 12.569740 544.540527
116 0 1 4.763920 12.616079 545.499084
117 0 1 4.813720 12.723160 546.469482
118 0 1 4.872480 12.880280 547.471008
119 0 1 4.922200 12.913600 548.456909
120 0 1 5.212670 12.464211 549.293701
121 0 1 5.353180 12.179820 550.198608
122 0 1 5.282430 11.597820 550.926819
123 0 1 5.044940 11.159710 551.770386
124 0 1 4.869040 11.060260 552.696899
125 0 1 4.598990 10.835550 553.527405
126 0 1 4.188160 10.640841 554.357178
127 0 1 3.625060 10.576730 555.170105
128 0 1 3.041760 10.412720 556.004211
129 0 1 2.718880 10.343040 556.884033
130 0 1 2.419460 10.046460 557.831421
131 0 1 2.450760 10.070950 558.781128
132 0 1 2.448980 10.185630 559.716614
133 0 1 2.418210 10.532630 560.660034
134 0 1 2.535130 10.877040 561.554993
135 0 1 2.931890 11.048300 562.400513
136 0 1 3.125460 11.116610 563.337708
137 0 1 3.612380 11.175390 564.148987
138 0 1 4.068020 11.321980 564.973511
139 0 1 4.354850 11.164450 565.837402
140 0 1 4.535360 10.839170 566.732727
141 0 1 5.031210 10.469220 567.542419
142 0 1 5.471520 10.067841 568.276184
143 0 1 5.839100 9.652000 569.003479
144 0 1 6.251830 9.485190 569.818787
145 0 1 6.203530 9.507680 570.837891
146 0 1 6.220820 9.683960 571.776917
147 0 1 6.302400 9.789220 572.749023
148 0 1 6.409810 9.781640 573.704712
149 0 1 6.360300 9.719890 574.636108
150 0 1 6.407390 9.360410 575.512085
151 0 1 6.728910 9.063140 576.396729
152 0 1 6.883400 8.789700 577.241272
153 0 1 7.364648 8.369071 578.043091
154 0 1 8.008977 7.839701 578.607788
155 0 1 8.395190 7.359922 579.308777
156 0 1 8.810678 7.052648 580.121277
157 0 1 9.362800 6.525820 580.769714
158 0 1 9.929330 6.326100 581.526428
159 0 1 10.279250 6.214670 582.438416
160 0 1 10.667850 5.848790 583.281494
161 0 1 10.806040 5.303180 584.071228
162 0 1 11.089510 4.871350 584.919189
163 0 1 11.173080 4.550380 585.798096
164 0 1 11.296890 4.055900 586.581787
165 0 1 11.457470 3.626290 587.522583
166 0 1 11.496230 3.335840 588.453125
167 0 1 11.349960 3.068930 589.346313
168 0 1 11.346840 2.779410 590.294006
169 0 1 10.852670 2.420640 591.081299
170 0 1 10.525060 2.416240 592.018494
171 0 1 10.000880 2.585240 592.849976
172 0 1 9.375210 3.046800 593.507080
173 0 1 8.540377 3.504390 593.870605
174 0 1 8.078820 4.046450 594.457703
175 0 1 7.535093 4.680730 594.953613
176 0 1 7.072595 5.465870 595.414978
177 0 1 6.580540 6.096660 595.940979
178 0 1 6.314330 6.889480 596.421692
179 0 1 5.899570 7.500593 597.214722
180 0 1 5.401790 8.211708 597.898010
181 0 1 4.858170 8.422046 598.658875
182 0 1 4.302810 8.753324 599.338074
183 0 1 3.665160 8.914147 600.077576
184 0 1 3.282440 8.821518 600.998413
185 0 1 3.173030 8.831183 601.970886
186 0 1 3.163330 8.879680 602.921692
187 0 1 3.202070 9.202940 603.790588
188 0 1 3.134390 9.383160 604.809204
189 0 1 3.033900 9.545550 605.788879
190 0 1 3.079240 9.817570 606.806824
191 0 1 3.393690 9.930210 607.786926
192 0 1 3.754650 9.876700 608.652527
193 0 1 3.916160 9.794220 609.584717
194 0 1 3.897310 9.654470 610.545898
195 0 1 3.872170 9.833930 611.519409
196 0 1 3.684950 9.869860 612.516785
197 0 1 3.541450 9.929650 613.466492
198 0 1 3.823130 9.994010 614.379883
199 0 1 4.081000 9.791630 615.274902
200 0 1 4.323970 9.557590 616.173828
201 0 1 4.640370 9.498210 617.076721
202 0 1 5.053920 9.264660 617.887695
203 0 1 5.572400 9.368560 618.703369
204 0 1 6.264340 9.257790 619.434143
205 0 1 6.877450 9.439010 620.149414
206 0 1 7.634588 9.037820 620.682190
207 0 1 7.969227 8.436206 621.359436
208 0 1 8.477833 7.933117 622.147278
209 0 1 9.151300 7.617438 622.765076
210 0 1 9.851710 7.383465 623.475464
211 0 1 10.511050 7.394802 624.211609
212 0 1 10.901540 7.533740 625.116211
213 0 1 11.437120 7.576005 625.954895
214 0 1 11.897850 7.620604 626.840332
215 0 1 11.978700 7.573724 627.861694
216 0 1 12.015820 7.405556 628.770935
217 0 1 11.793750 7.190734 629.685486
218 0 1 11.553699 6.958510 630.593506
219 0 1 11.145690 6.759610 631.427734
220 0 1 10.916420 6.806420 632.378113
221 0 1 10.449520 6.870160 633.201477
222 0 1 10.187310 6.812170 634.148499
223 0 1 9.717110 6.580900 635.032471
224 0 1 9.284290 6.722080 635.905151
225 0 1 8.906871 6.851690 636.821350
226 0 1 8.304351 7.062704 637.511841
227 0 1 7.736671 7.533741 638.142883
228 0 1 7.163584 8.141546 638.692078
229 0 1 6.631080 8.821559 639.162109
230 0 1 6.031320 9.425570 639.744873
231 0 1 5.622360 10.252180 640.145630
232 0 1 5.316280 10.822290 640.805176
233 0 1 4.936150 11.282660 641.558899
234 0 1 4.628800 11.673450 642.405884
235 0 1 4.081320 11.771481 643.281616
236 0 1 3.873410 11.561620 644.260193
237 0 1 3.836370 11.284451 645.161804
238 0 1 3.882590 11.006920 646.124573
239 0 1 3.964250 10.929680 647.054382
240 0 1 4.208740 11.036300 647.919373
241 0 1 4.541690 11.262930 648.803223
242 0 1 4.761650 11.456779 649.700623
243 0 1 4.793190 11.469820 650.668884
244 0 1 4.570980 11.385550 651.649170
245 0 1 4.661460 11.147000 652.554321
246 0 1 5.196070 10.778490 653.245483
247 0 1 5.915050 10.471010 653.796814
248 0 1 6.363990 10.228820 654.531189
249 0 1 6.676870 10.015690 655.401001
250 0 1 7.402186 10.048260 656.061218
251 0 1 8.124797 10.226320 656.704590
252 0 1 8.774420 10.435970 657.362976
253 0 1 9.393650 10.765870 658.016296
254 0 1 9.962260 11.131741 658.715820
255 0 1 10.563090 11.436540 659.353699
256 0 1 11.125580 11.673670 660.124207
257 0 1 11.265360 12.108220 661.000183
258 0 1 11.144810 12.148090 662.006775
259 0 1 11.183280 11.930059 662.951111
260 0 1 10.959240 11.676331 663.839783
261 0 1 10.908979 11.432140 664.762207
262 0 1 11.178010 10.983521 665.616577
263 0 1 11.464330 10.574720 666.395325
264 0 1 11.598710 10.119030 667.207825
265 0 1 11.839590 9.553570 667.931885
266 0 1 11.760110 9.037640 668.715820
267 0 1 11.703780 8.470673 669.474426
268 0 1 11.384310 7.931996 670.181091
269 0 1 10.943560 7.367149 670.772888
270 0 1 10.498980 7.168898 671.594299
271 0 1 10.141050 7.101698 672.494873
272 0 1 9.951280 7.243215 673.408875
273 0 1 9.900949 7.554741 674.338928
274 0 1 9.936680 7.906347 675.198181
275 0 1 9.752240 8.242953 676.157104
276 0 1 9.468150 8.413174 677.036926
277 0 1 9.305650 8.566054 678.030212
278 0 1 9.191480 8.853384 678.918274
279 0 1 9.178800 9.106840 679.846924
280 0 1 9.337540 9.397480 680.744690
281 0 1 9.570050 9.856130 681.626587
282 0 1 9.768770 10.310860 682.451172
283 0 1 10.016450 10.849091 683.183472
284 0 1 10.060740 11.455460 683.961975
285 0 1 9.964490 12.000549 684.806824
286 0 1 9.889250 12.524380 685.635986
287 0 1 9.778490 12.654921 686.566101
288 0 1 9.682310 12.913940 687.507080
289 0 1 9.424820 12.928970 688.428589
290 0 1 9.128150 13.136100 689.336609
291 0 1 9.119720 13.194440 690.313110
292 0 1 9.262050 13.329300 691.253723
293 0 1 9.244380 13.578550 692.217285
294 0 1 8.893899 13.689190 693.066895
295 0 1 8.277917 13.623560 693.839233
296 0 1 7.643343 13.543159 694.538513
297 0 1 7.366727 13.212370 695.357117
298 0 1 7.544173 13.309570 696.327209
299 0 1 7.683968 13.486940 697.305176
300 0 1 7.464905 13.632151 698.291992
301 0 1 7.349842 13.841101 699.184875
302 0 1 7.372272 14.104469 700.141296
303 0 1 7.318965 14.196950 701.098694
304 0 1 7.458268 14.214790 702.054993
305 0 1 7.801169 14.358690 702.993774
306 0 1 8.295066 14.304390 703.780029
307 0 1 8.549721 14.210070 704.706177
308 0 1 8.565905 14.061251 705.604126
309 0 1 8.694062 14.025790 706.591919
310 0 1 8.981905 14.153500 707.476624
311 0 1 9.189920 14.158150 708.458130
312 0 1 9.400860 14.033220 709.351013
313 0 1 9.621110 14.126670 710.324402
314 0 1 9.776690 14.164180 711.272217
315 0 1 9.972370 14.223980 712.220520
316 0 1 10.235590 14.289391 713.137817
317 0 1 10.642190 14.098249 714.094177
318 0 1 10.544160 13.795890 715.035889
319 0 1 10.363700 13.566790 716.038818
320 0 1 10.093360 13.572980 717.003418
321 0 1 9.426060 13.452600 717.709717
322 0 1 8.967035 13.241850 718.536499
323 0 1 8.524706 13.275770 719.490112
324 0 1 8.302151 13.388800 720.409485
325 0 1 8.215302 13.477720 721.339417
326 0 1 8.345895 13.618330 722.277222
327 0 1 8.322127 13.490311 723.272278
328 0 1 8.388412 13.309520 724.218506
329 0 1 8.353450 13.401700 725.195374
330 0 1 8.452828 13.306860 726.165405
331 0 1 8.246955 13.293711 727.095215
332 0 1 7.933445 13.502649 728.004395
333 0 1 7.354982 13.573030 728.822021
334 0 1 6.857670 13.621540 729.648987
335 0 1 6.490480 13.484890 730.494019
336 0 1 6.266030 13.409700 731.419006
337 0 1 6.323940 13.318689 732.301025
338 0 1 6.659010 13.136909 733.278992
339 0 1 6.968920 13.349360 734.214966
340 0 1 7.598041 13.455070 734.969971
341 0 1 7.780190 13.705650 735.914001
342 0 1 7.924863 13.951740 736.815002
343 0 1 8.203186 13.948870 737.752991
344 0 1 8.378660 14.002340 738.690979
345 0 1 8.480847 13.767200 739.635986
346 0 1 8.609354 13.491110 740.523987
347 0 1 8.574418 13.418580 741.593994
348 0 1 8.714343 13.284560 742.521973
349 0 1 8.551412 12.937950 743.384033
350 0 1 8.279366 12.671810 744.299011
351 0 1 8.419084 12.245900 745.166016
352 0 1 8.759379 12.245550 746.060974
353 0 1 9.400650 12.212440 746.770996
354 0 1 10.020420 11.982861 747.466003
355 0 1 10.587680 11.786500 748.229004
356 0 1 11.255780 11.423590 748.905029
357 0 1 11.873890 10.889170 749.453979
358 0 1 12.065680 10.267830 750.158997
359 0 1 12.204411 9.728251 750.943970
360 0 1 12.319400 9.460910 751.827026
361 0 1 12.180820 8.798710 752.578003
362 0 1 12.356300 8.168208 753.203003
363 0 1 12.360710 7.383542 753.778015
364 0 1 12.279079 6.626210 754.288025
365 0 1 12.364560 5.697790 754.705994
366 0 1 12.192289 4.727790 755.033997
367 0 1 11.741850 3.815120 755.117004
368 0 1 11.061480 3.232950 755.499023
369 0 1 10.600770 2.644480 756.023010
370 0 1 10.191610 2.214620 756.839966
371 0 1 9.748480 1.865010 757.702026
372 0 1 9.311131 1.826380 758.613037
373 0 1 8.689511 1.616320 759.414001
374 0 1 8.140797 1.365370 760.254028
375 0 1 7.725260 1.364560 761.122009
376 0 1 7.397040 1.518270 762.015015
377 0 1 6.973740 1.717680 762.862000
378 0 1 6.812060 2.257900 763.681030
379 0 1 6.411230 2.773030 764.333008
380 0 1 5.994530 3.361000 764.984985
381 0 1 5.546710 4.034100 765.617981
382 0 1 5.109260 4.626950 766.205994
383 0 1 4.649270 5.055650 766.940002
384 0 1 4.153980 5.561660 767.692993
385 0 1 4.141550 6.039790 768.531982
386 0 1 4.218240 6.337230 769.432983
387 0 1 4.589340 6.515410 770.301025
388 0 1 4.761090 6.455990 771.208984
389 0 1 5.103320 6.189740 772.109009
390 0 1 5.554370 6.159490 772.950989
391 0 1 6.110160 6.400770 773.780029
392 0 1 6.267450 6.753160 774.646973
393 0 1 6.520550 7.261500 775.427979
394 0 1 6.783540 7.715719 776.297974
395 0 1 6.788160 8.237594 777.067993
396 0 1 6.846140 8.692881 777.919006
397 0 1 6.901140 9.022950 778.833008
398 0 1 7.044966 9.322350 779.763000
399 0 1 7.214438 9.698870 780.573975
400 0 1 7.104434 10.085260 781.504028
401 0 1 7.098039 10.121380 782.484985
402 0 1 7.008184 10.052190 783.432983
403 0 1 6.700410 10.532560 784.287964
404 0 1 6.693780 11.209830 784.976990
405 0 1 6.568930 11.748220 785.731995
406 0 1 6.400330 12.256701 786.570007
407 0 1 6.436940 12.882680 787.312988
408 0 1 6.430140 13.516560 788.028992
409 0 1 6.335720 13.838320 788.945984
410 0 1 6.092090 14.018410 789.914001
411 0 1 6.054880 14.095770 790.854004
412 0 1 5.902390 14.287130 791.813965
413 0 1 5.740890 14.141211 792.780029
414 0 1 5.538780 14.110840 793.698975
415 0 1 5.359590 13.966590 794.625977
416 0 1 5.170770 13.744200 795.528992
417 0 1 5.141140 13.541070 796.539978
418 0 1 4.804910 13.476480 797.460999
419 0 1 4.867170 13.393190 798.403015
420 0 1 5.059570 13.183661 799.299011
421 0 1 5.338160 13.042800 800.247009
422 0 1 5.437630 12.911961 801.195007
423 0 1 5.765330 13.011810 802.190979
424 0 1 6.198910 12.813300 803.016968
425 0 1 6.573270 12.631460 803.895020
426 0 1 7.085797 12.768351 804.669006
427 0 1 7.779025 12.906110 805.312988
428 0 1 8.370107 12.906031 806.031982
429 0 1 8.999490 12.687590 806.760986
430 0 1 9.607190 12.488260 807.445007
431 0 1 10.273911 12.152531 808.184998
432 0 1 10.676380 12.347960 808.994995
433 0 1 11.088190 12.651180 809.812012
434 0 1 11.365650 12.855890 810.723022
435 0 1 11.047390 13.265340 811.549988
436 0 1 10.775600 13.544800 812.419983
437 0 1 10.425220 13.808640 813.320007
438 0 1 10.097500 13.924000 814.219971
439 0 1 9.771950 13.810670 815.127991
440 0 1 9.520190 13.556980 815.979004
441 0 1 9.439450 13.174379 816.815979
442 0 1 9.533960 12.665710 817.643005
443 0 1 9.787930 12.145969 818.426025
444 0 1 10.322350 11.841110 819.190002
445 0 1 10.738250 11.818290 820.067017
446 0 1 11.338570 11.882790 820.872986
447 0 1 11.777180 12.039530 821.785034
448 0 1 12.144180 11.982400 822.635010
449 0 1 12.614460 11.881230 823.485962
450 0 1 13.127670 11.848530 824.315002
451 0 1 13.384490 11.543330 825.202026
452 0 1 13.795600 11.065980 825.908997
453 0 1 13.970270 10.561359 826.718018
454 0 1 14.066860 10.217680 827.562988
455 0 1 13.728400 9.935880 828.411987
456 0 1 13.452660 9.229640 829.080994
457 0 1 13.026440 8.835158 829.804993
458 0 1 12.355619 8.394624 830.332031
459 0 1 11.714340 7.921159 830.916992
460 0 1 10.912690 7.843278 831.484985
461 0 1 10.188910 7.760817 832.132019
462 0 1 9.375350 8.115173 832.562988
463 0 1 8.424941 8.335230 832.627991
464 0 1 7.569340 8.644443 832.505981
465 0 1 6.845180 9.256470 832.235962
466 0 1 6.403830 10.065790 831.958984
467 0 1 5.905710 10.830650 831.690002
468 0 1 5.768240 11.372410 831.000000
469 0 1 5.512460 11.851350 830.208984
470 0 1 5.390270 12.420650 829.384033
471 0 1 5.332730 12.794809 828.518982
472 0 1 5.149460 13.279470 827.669983
473 0 1 5.350550 13.648029 826.789001
474 0 1 5.536130 13.896040 825.818970
475 0 1 5.736850 14.064070 824.903992
476 0 1 5.716360 14.057350 823.958008
477 0 1 5.623230 13.929640 822.869995
478 0 1 5.554500 13.804729 821.893005
479 0 1 5.685510 13.638189 820.919983
480 0 1 5.924700 13.388730 819.901001
481 0 1 6.267850 13.148800 818.966003
482 0 1 6.661090 13.081800 818.134033
483 0 1 7.042778 13.130770 817.266968
484 0 1 7.404154 13.100690 816.408020
485 0 1 7.757381 12.587490 815.698975
486 0 1 8.142445 12.083450 815.015015
487 0 1 8.430122 11.283979 814.379028
488 0 1 8.802560 10.530940 814.005005
489 0 1 8.959330 9.737260 813.492004
490 0 1 8.780974 9.031870 812.833008
491 0 1 8.640200 8.261088 812.330017
492 0 1 8.783617 7.661889 811.546997
493 0 1 8.739598 7.144476 810.693970
494 0 1 8.507059 6.694360 809.879028
495 0 1 8.222914 6.040740 809.242981
496 0 1 7.955259 5.572670 808.434021
497 0 1 7.989855 5.287760 807.518005
498 0 1 8.267215 4.939420 806.632996
499 0 1 8.382323 4.532930 805.783020
500 0 1 8.496258 4.419870 804.825012
501 0 1 8.175245 4.237000 803.895020
502 0 1 7.878670 3.801240 803.087036
503 0 1 7.535721 4.006340 802.213989
504 0 1 7.101360 4.237390 801.320007
505 0 1 7.101260 4.676830 800.473022
506 0 1 7.185905 5.482970 799.906982
507 0 1 7.142327 5.929910 799.052979
508 0 1 6.913120 6.510120 798.328979
509 0 1 6.977640 7.036772 797.507996
510 0 1 6.966580 7.629507 796.760986
511 0 1 6.992350 8.247115 796.011963
512 0 1 6.932470 8.890648 795.263000
513 0 1 6.869770 9.620760 794.601990
514 0 1 6.883170 10.339640 793.974976
515 0 1 7.228439 10.921440 793.384033
516 0 1 7.556685 11.502150 792.617981
517 0 1 7.787770 12.121450 791.945984
518 0 1 8.071013 12.304689 791.061035
519 0 1 8.208679 12.524970 790.103027
520 0 1 8.472786 12.607611 789.156982
521 0 1 8.884876 12.563910 788.333984
522 0 1 9.582500 12.293210 787.661011
523 0 1 10.020880 11.980360 786.864014
524 0 1 10.499730 11.644440 786.059998
525 0 1 10.690041 11.546780 785.124023
526 0 1 10.616631 11.273100 784.176025
527 0 1 10.512070 11.339880 783.229980
528 0 1 10.560620 11.461020 782.286987
529 0 1 10.386160 11.584500 781.348022
530 0 1 9.907400 11.505380 780.437988
531 0 1 9.375740 11.501990 779.604004
532 0 1 9.076490 11.489500 778.692017
533 0 1 8.899611 11.744580 777.783020
534 0 1 8.612777 12.100750 776.844971
535 0 1 8.040854 12.146700 776.146973
536 0 1 7.438797 12.131130 775.380005
537 0 1 6.896430 12.010990 774.604004
538 0 1 6.656800 12.047840 773.627991
539 0 1 6.219910 12.169849 772.786987
540 0 1 5.980100 12.271180 771.863037
541 0 1 6.042190 12.519810 770.908997
542 0 1 6.084940 12.921870 770.085999
543 0 1 6.211280 13.308290 769.176025
544 0 1 6.158630 13.718670 768.353027
545 0 1 6.066720 13.958020 767.504028
546 0 1 6.326260 13.844601 766.539001
547 0 1 6.532980 13.672290 765.630981
548 0 1 6.606580 13.447081 764.664001
549 0 1 6.555630 13.624250 763.653015
550 0 1 6.441420 14.030240 762.710999
551 0 1 6.731140 14.015460 761.838989
552 0 1 6.964080 13.545839 761.028992
553 0 1 7.183227 13.139629 760.186035
554 0 1 7.444287 13.074390 759.239014
555 0 1 8.049488 12.943670 758.526001
556 0 1 8.702907 12.491671 757.901001
557 0 1 9.202360 12.057940 757.161987
558 0 1 9.410450 11.674210 756.335022
559 0 1 9.532040 11.261820 755.476990
560 0 1 9.500590 10.485200 754.739990
561 0 1 9.699210 9.784700 754.072021
562 0 1 9.917190 9.008510 753.531006
563 0 1 10.048110 8.158969 753.080017
564 0 1 9.891520 7.335672 752.646973
565 0 1 9.505939 6.816410 751.997986
566 0 1 9.342830 6.369100 751.129028
567 0 1 8.751794 6.042380 750.410034
568 0 1 8.218164 5.882340 749.672974
569 0 1 7.629578 5.437990 749.119995
570 0 1 7.231419 5.011090 748.270020
571 0 1 7.086727 4.808180 747.322021
572 0 1 6.780020 4.369900 746.515991
573 0 1 6.336440 4.372490 745.663025
574 0 1 5.858820 4.346880 744.823975
575 0 1 5.509530 4.416630 743.906006
576 0 1 4.828760 4.613040 743.172974
577 0 1 4.290510 4.993230 742.559998
578 0 1 3.693820 5.409870 741.888000
579 0 1 3.464040 5.588140 740.994995
580 0 1 3.123370 5.512750 740.086975
581 0 1 3.151570 5.442740 739.098999
582 0 1 3.255440 5.390120 738.156006
583 0 1 3.493810 5.343100 737.221008
584 0 1 3.675010 5.603990 736.333008
585 0 1 4.038070 5.697060 735.435974
586 0 1 4.505410 5.646010 734.601013
587 0 1 4.580960 5.735920 733.625000
588 0 1 4.789080 5.792480 732.695984
589 0 1 5.250110 5.860190 731.802002
590 0 1 5.687910 5.949590 730.973022
591 0 1 6.055020 5.965610 730.059021
592 0 1 6.567730 6.062110 729.257996
593 0 1 7.299978 6.184470 728.588013
594 0 1 7.864826 6.521540 727.876526
595 0 1 8.311273 6.920910 727.118774
596 0 1 8.436463 7.365500 726.299683
597 0 1 8.509601 7.953607 725.515503
598 0 1 8.720548 8.616228 724.842896
599 0 1 8.824986 9.345250 724.203125
600 0 1 9.173710 10.039021 723.674194
601 0 1 9.306780 10.878010 723.124268
602 0 1 9.268420 11.310940 722.275818
603 0 1 9.252160 11.690269 721.417480
604 0 1 9.325800 11.895890 720.395386
605 0 1 9.304290 12.073570 719.473999
606 0 1 9.091920 12.054110 718.495728
607 0 1 8.865387 12.019700 717.547119
608 0 1 8.927981 12.156370 716.562378
609 0 1 8.842832 12.475740 715.634705
610 0 1 8.396137 12.797570 714.837891
611 0 1 7.785137 12.883440 714.070801
612 0 1 7.263820 13.071011 713.309387
613 0 1 6.594150 12.928141 712.647217
614 0 1 6.039990 12.666571 711.828186
615 0 1 5.591250 12.296130 711.093689
616 0 1 5.100450 11.667350 710.514099
617 0 1 4.779090 11.103730 709.780396
618 0 1 4.512960 10.518060 709.051025
619 0 1 4.038010 9.904090 708.525818
620 0 1 3.717820 9.290950 707.940613
621 0 1 3.466580 8.701183 707.176514
622 0 1 3.587230 8.299458 706.354919
623 0 1 3.748310 7.953232 705.413391
624 0 1 3.798300 7.923406 704.407898
625 0 1 3.913540 7.963228 703.433777
626 0 1 4.232230 8.306540 702.546082
627 0 1 4.472050 8.758612 701.759033
628 0 1 4.801540 9.224620 700.986694
629 0 1 5.061500 9.485110 700.109314
630 0 1 5.323120 9.632700 699.170532
631 0 1 5.050590 9.747110 698.195190
632 0 1 5.123660 9.801400 697.233521
633 0 1 5.106680 9.663280 696.303833
634 0 1 5.026020 9.548010 695.357483
635 0 1 4.967210 9.392241 694.347290
636 0 1 4.864040 9.141230 693.460205
637 0 1 4.761290 9.009600 692.515503
638 0 1 4.452880 8.586013 691.689392
639 0 1 4.239050 8.311649 690.796997
640 0 1 4.043540 8.155626 689.827515
641 0 1 3.778670 8.018168 688.891296
642 0 1 3.191150 8.121030 688.102600
643 0 1 2.695470 7.941801 687.298706
644 0 1 2.436280 7.961912 686.375122
645 0 1 2.208180 7.494906 685.577881
646 0 1 1.746350 7.148179 684.809875
647 0 1 1.545650 6.738960 683.997070
648 0 1 1.320210 6.611010 682.974792
649 0 1 1.383770 6.074940 682.130981
650 0 1 1.584970 5.735450 681.236206
651 0 1 1.646350 5.359250 680.365479
652 0 1 2.123770 4.859280 679.723511
653 0 1 2.501370 4.262870 679.117004
654 0 1 3.264910 3.772490 678.645508
655 0 1 4.092040 3.427180 678.237671
656 0 1 4.920960 3.287880 677.745972
657 0 1 5.545130 3.429520 677.065613
658 0 1 6.223630 3.180150 676.430176
659 0 1 6.727280 2.925510 675.637878
660 0 1 7.282333 2.707920 674.829468
661 0 1 8.110555 2.470200 674.372620
662 0 1 8.902839 2.157790 673.917480
663 0 1 9.832200 2.306930 673.738098
664 0 1 10.620720 2.718060 673.290283
665 0 1 11.374160 3.234260 672.915100
666 0 1 12.016610 3.729790 672.429932
667 0 1 12.657980 4.015030 671.730286
668 0 1 13.011440 4.616240 671.090820
669 0 1 13.377460 5.264560 670.473206
670 0 1 13.738880 5.790240 669.708008
671 0 1 13.743450 6.077490 668.782898
672 0 1 13.727690 6.604250 667.976685
673 0 1 13.720130 7.017039 667.105591
674 0 1 13.646470 7.239943 666.144287
675 0 1 13.477130 7.410546 665.216125
676 0 1 13.099860 7.503526 664.353882
677 0 1 12.412460 7.327564 663.713379
678 0 1 11.561340 7.058840 663.273926
679 0 1 10.860870 6.662210 662.794312
680 0 1 10.229810 6.116860 662.255676
681 0 1 9.770270 5.637670 661.557495
682 0 1 9.221840 5.173380 660.876587
683 0 1 8.710840 4.825170 660.160217
684 0 1 7.983922 4.704100 659.487976
685 0 1 7.305761 4.711790 658.854797
686 0 1 6.785640 4.937060 658.073486
687 0 1 6.376020 5.506020 657.374512
688 0 1 5.896470 5.898380 656.616394
689 0 1 5.531200 6.230020 655.807983
690 0 1 5.071470 6.328590 654.968079
691 0 1 4.575660 6.392680 654.220398
692 0 1 4.290120 6.470760 653.311401
693 0 1 3.935020 7.007414 652.569580
694 0 1 3.720560 7.378136 651.675781
695 0 1 3.692000 7.469773 650.743286
696 0 1 3.572580 7.582351 649.827698
697 0 1 3.312580 7.627911 648.911011
698 0 1 3.475660 7.915964 648.047424
699 0 1 3.670800 8.044053 647.101074
700 0 1 4.000020 7.956297 646.247070
701 0 1 4.322340 7.759568 645.373413
702 0 1 4.413270 7.411714 644.497925
703 0 1 4.676440 7.236643 643.589111
704 0 1 4.908920 7.044328 642.680298
705 0 1 5.067610 6.882340 641.694214
706 0 1 5.310110 6.554480 640.840393
707 0 1 5.439510 6.332270 639.925293
708 0 1 5.507390 5.920580 639.058899
709 0 1 5.393750 5.782810 638.140076
710 0 1 5.122110 5.716820 637.222290
711 0 1 4.803920 5.322440 636.394714
712 0 1 4.365780 5.125540 635.619263
713 0 1 4.235790 4.657840 634.794006
714 0 1 4.294760 4.633640 633.777100
715 0 1 4.690940 4.502690 632.929138
716 0 1 4.980260 4.375290 632.022095
717 0 1 5.239380 4.286690 631.090881
718 0 1 5.455010 4.039210 630.166199
719 0 1 5.472600 3.901250 629.196045
720 0 1 5.377820 3.930980 628.246582
721 0 1 5.456250 3.817790 627.320374
722 0 1 5.276650 3.608680 626.371948
723 0 1 4.884740 3.476000 625.438721
724 0 1 4.639040 3.618720 624.446838
725 0 1 4.801240 3.832230 623.483765
726 0 1 4.882640 3.748110 622.553650
727 0 1 5.122260 3.672260 621.632629
728 0 1 5.462940 3.906740 620.761353
729 0 1 5.575070 4.083310 619.807312
730 0 1 5.787640 4.451080 618.858093
731 0 1 6.281130 5.016920 618.190430
732 0 1 6.695570 5.656650 617.604370
733 0 1 6.686360 6.504790 617.166077
734 0 1 6.728160 7.231311 616.502075
735 0 1 6.788190 7.899931 615.859802
736 0 1 6.790190 8.535101 615.147400
737 0 1 6.778500 8.815531 614.241699
738 0 1 6.696870 9.100100 613.258789
739 0 1 6.503710 9.042370 612.298401
740 0 1 6.161680 9.094890 611.324829
741 0 1 5.869030 9.306550 610.437805
742 0 1 5.467260 9.573130 609.619324
743 0 1 5.236000 9.874090 608.752014
744 0 1 5.181410 10.190969 607.856323
745 0 1 5.075350 10.418640 606.921814
746 0 1 5.128500 10.534270 605.906921
747 0 1 5.082740 10.590090 604.929871
748 0 1 5.031250 10.569430 604.010925
749 0 1 5.215580 10.221470 603.114075
750 0 1 5.671690 9.895060 602.244507
751 0 1 6.150310 9.836430 601.394897
752 0 1 6.527700 9.907330 600.540405
753 0 1 6.836160 9.930890 599.635010
754 0 1 7.297266 9.926700 598.827026
755 0 1 7.639550 9.807980 597.935608
756 0 1 7.756332 9.902020 596.961182
757 0 1 7.910097 10.152150 596.036987
758 0 1 7.852807 10.515010 595.186218
759 0 1 7.845872 10.538060 594.237610
760 0 1 7.738288 10.573130 593.320679
761 0 1 7.579436 10.750420 592.400696
762 0 1 7.393411 10.920420 591.461121
763 0 1 7.068092 10.903490 590.560913
764 0 1 6.808470 10.795300 589.648926
765 0 1 6.592520 10.432650 588.763123
766 0 1 6.280510 9.838110 588.063477
767 0 1 5.859550 9.162930 587.525024
768 0 1 5.316540 8.456611 586.967529
769 0 1 4.900710 8.031842 586.218201
770 0 1 4.368490 7.716217 585.431702
771 0 1 3.817290 7.412328 584.742493
772 0 1 3.363180 7.165320 583.928406
773 0 1 3.265850 6.897810 582.960022
774 0 1 3.179660 6.639670 582.023926
775 0 1 3.002580 6.608170 581.070984
776 0 1 2.773690 6.621780 580.141113
777 0 1 2.580620 6.676980 579.217773
778 0 1 2.731920 6.719690 578.242004
779 0 1 3.147330 6.504700 577.405701
780 0 1 3.652740 6.222340 576.594482
781 0 1 4.462720 6.150880 576.035278
782 0 1 5.376040 6.121470 575.619385
783 0 1 6.287770 6.045710 575.214294
784 0 1 7.143064 6.358380 575.118713
785 0 1 8.077606 6.533460 574.801086
786 0 1 9.024970 6.541180 574.608887
787 0 1 9.790310 6.629100 574.018677
788 0 1 10.329360 6.639190 573.222778
789 0 1 11.152451 6.707220 572.690186
790 0 1 11.895300 6.871550 572.021118