LAMMPS data file via MDAnalysis

        1000  atoms
        1000  bonds
        1000  angles
           0  dihedrals
           0  impropers

           1  atom types
           1  bond types
           1  angle types
           0  dihedral types
           0  improper types

0.000000 16.000000 xlo xhi
0.000000 16.000000 ylo yhi
0.000000 1257.000000 zlo zhi


Masses

1 1.000000

Atoms

1 0 1 7.310828 11.191900 455.981995
2 0 1 7.204937 11.106980 456.971008
3 0 1 7.277238 11.379690 457.845001
4 0 1 7.227548 11.505480 458.786011
5 0 1 7.420850 11.760469 459.643005
6 0 1 7.419015 11.863900 460.645996
7 0 1 7.352388 11.947400 461.593994
8 0 1 7.715857 12.177650 462.458008
9 0 1 8.045586 12.329900 463.299011
10 0 1 8.025086 12.233191 464.306000
11 0 1 8.130204 12.301260 465.341003
12 0 1 8.409236 12.530479 466.174011
13 0 1 8.655883 12.614670 467.075989
14 0 1 8.660076 12.629089 468.037994
15 0 1 8.719099 12.684731 469.085022
16 0 1 8.595625 12.618560 470.033997
17 0 1 8.496386 12.226419 470.945007
18 0 1 8.329098 11.657490 471.720001
19 0 1 8.289411 11.044780 472.576996
20 0 1 8.426581 10.624860 473.514008
21 0 1 8.241904 10.209320 474.365997
22 0 1 8.006924 9.695370 475.132996
23 0 1 7.618575 9.025780 475.761993
24 0 1 7.206632 8.646536 476.507019
25 0 1 6.833540 7.990467 477.011993
26 0 1 6.425140 7.270962 477.444000
27 0 1 5.704210 6.999880 478.018982
28 0 1 4.995920 6.797460 478.617004
29 0 1 4.267220 6.633430 479.203003
30 0 1 3.572650 6.428550 479.858002
31 0 1 3.114090 6.347580 480.773987
32 0 1 2.967740 6.664140 481.695007
33 0 1 3.101970 7.117314 482.645996
34 0 1 3.253960 7.358950 483.598999
35 0 1 3.467050 7.201559 484.523010
36 0 1 3.683800 7.408025 485.437012
37 0 1 4.026350 7.496168 486.330017
38 0 1 4.375790 7.577801 487.221985
39 0 1 4.778470 7.669992 488.088989
40 0 1 5.090480 7.817929 488.963013
41 0 1 5.435520 7.944523 489.931000
42 0 1 5.613480 7.675897 490.906006
43 0 1 5.705380 7.355317 491.796021
44 0 1 5.617170 6.911440 492.621002
45 0 1 5.532660 6.328370 493.341980
46 0 1 5.505340 5.879640 494.200012
47 0 1 5.518790 5.544840 495.085022
48 0 1 5.550900 5.160250 495.945984
49 0 1 5.671130 4.866830 496.889008
50 0 1 5.889820 4.747300 497.845001
51 0 1 6.010640 4.712040 498.786011
52 0 1 6.136780 4.489580 499.660004
53 0 1 5.896120 4.121580 500.552002
54 0 1 5.697910 4.125100 501.484009
55 0 1 5.442790 4.157770 502.447998
56 0 1 5.268090 4.313720 503.346985
57 0 1 5.171320 4.369630 504.343994
58 0 1 4.995140 4.367660 505.307007
59 0 1 5.090390 4.162020 506.226990
60 0 1 5.220590 4.120860 507.183990
61 0 1 5.608390 4.055700 508.160004
62 0 1 5.837810 3.990030 509.049011
63 0 1 5.958220 3.911070 510.065002
64 0 1 6.308750 4.030110 511.007996
65 0 1 6.266860 4.239330 511.984009
66 0 1 6.133830 4.388440 512.924011
67 0 1 6.056250 4.880960 513.759033
68 0 1 6.001470 5.607460 514.450989
69 0 1 6.066590 6.299300 515.125000
70 0 1 6.463680 6.818700 515.786987
71 0 1 6.607750 7.097811 516.710999
72 0 1 6.704860 7.445712 517.666016
73 0 1 6.463830 7.846139 518.499023
74 0 1 6.085260 8.183547 519.315979
75 0 1 5.939350 8.619958 520.177002
76 0 1 6.165170 9.035860 521.010010
77 0 1 6.007150 9.322460 521.932007
78 0 1 6.009310 9.367390 522.898987
79 0 1 6.259550 9.425920 523.828003
80 0 1 6.420750 9.420950 524.851990
81 0 1 6.635210 9.238450 525.742004
82 0 1 6.695610 9.107590 526.780029
83 0 1 6.844190 8.924559 527.742004
84 0 1 7.127270 8.716570 528.676575
85 0 1 7.241953 8.720217 529.631897
86 0 1 7.192438 8.613199 530.567993
87 0 1 7.338239 8.207087 531.533081
88 0 1 7.258376 7.684109 532.341125
89 0 1 7.389338 7.301758 533.205322
90 0 1 7.209756 7.190000 534.172791
91 0 1 6.994410 7.229503 535.087524
92 0 1 6.728280 7.168406 536.146118
93 0 1 6.343250 7.146594 537.052979
94 0 1 6.197170 7.138051 538.042786
95 0 1 6.388260 7.101375 538.988403
96 0 1 6.195770 6.987410 539.929321
97 0 1 5.803020 6.906720 540.774170
98 0 1 5.129350 7.062659 541.461182
99 0 1 4.638530 7.094671 542.312683
100 0 1 4.040710 7.059185 543.057007
101 0 1 3.687160 7.276157 543.928101
102 0 1 3.438210 7.765934 544.771118
103 0 1 3.174250 8.008356 545.643921
104 0 1 2.881360 8.517161 546.358398
105 0 1 2.849320 8.914097 547.174683
106 0 1 2.616310 9.272030 547.983826
107 0 1 2.392430 9.354280 548.907593
108 0 1 2.199640 9.415370 549.789307
109 0 1 2.102550 9.564810 550.722168
110 0 1 2.104090 9.222270 551.601013
111 0 1 2.195430 8.814799 552.437317
112 0 1 2.327720 8.397307 553.360718
113 0 1 2.530040 8.223256 554.263000
114 0 1 2.567360 8.165325 555.260681
115 0 1 2.868050 7.865796 556.119812
116 0 1 3.326020 7.768712 556.959290
117 0 1 3.860590 7.976928 557.750732
118 0 1 4.545970 8.068157 558.380676
119 0 1 5.258080 7.998652 558.971802
120 0 1 6.068730 7.988214 559.505188
121 0 1 6.696190 8.227218 560.212280
122 0 1 7.203634 8.538956 560.958801
123 0 1 7.434229 8.889454 561.767395
124 0 1 7.621988 9.204010 562.729187
125 0 1 7.878558 9.433130 563.570618
126 0 1 8.054470 9.592330 564.531677
127 0 1 8.620041 9.687700 565.398987
128 0 1 9.061940 9.898149 566.207275
129 0 1 9.143650 9.819310 567.131470
130 0 1 9.295760 9.777990 568.052979
131 0 1 9.352730 9.597440 569.001892
132 0 1 9.248780 9.299580 569.919189
133 0 1 9.354150 9.137200 570.908081
134 0 1 9.272440 9.064550 571.840088
135 0 1 8.977618 8.941695 572.756470
136 0 1 8.660430 8.836730 573.684692
137 0 1 8.526777 8.794380 574.610779
138 0 1 8.489366 9.015450 575.547302
139 0 1 8.595421 9.143510 576.473572
140 0 1 8.943098 9.302550 577.337219
141 0 1 9.072040 9.590500 578.271606
142 0 1 9.300050 10.108220 579.035217
143 0 1 9.666490 10.459820 579.880493
144 0 1 9.670070 10.355350 580.793213
145 0 1 9.826630 10.088740 581.713623
146 0 1 9.636590 9.960190 582.634827
147 0 1 9.680380 9.775470 583.610596
148 0 1 9.520340 9.761170 584.658691
149 0 1 9.770110 9.979220 585.544617
150 0 1 10.279960 10.169220 586.340881
151 0 1 10.704170 10.469950 587.190430
152 0 1 11.017580 10.889650 588.013611
153 0 1 11.322650 11.455350 588.763916
154 0 1 11.291389 11.985590 589.612915
155 0 1 11.093781 12.495700 590.504089
156 0 1 10.594140 12.688940 591.268005
157 0 1 9.879270 12.836570 591.954773
158 0 1 9.181890 12.928300 592.673096
159 0 1 8.478879 12.868760 593.266724
160 0 1 7.872798 13.019370 594.057800
161 0 1 7.289154 13.233720 594.849121
162 0 1 6.611030 13.318560 595.564819
163 0 1 6.413670 13.188140 596.505981
164 0 1 6.301460 13.187260 597.425476
165 0 1 6.394350 13.232920 598.416077
166 0 1 6.710370 13.340401 599.370972
167 0 1 6.961640 13.045490 600.249878
168 0 1 7.198355 12.598801 601.092102
169 0 1 7.299585 11.909380 601.809570
170 0 1 7.251094 11.411310 602.591614
171 0 1 7.307607 10.985519 603.422791
172 0 1 7.314084 10.528521 604.286316
173 0 1 7.473204 10.056020 605.076904
174 0 1 7.546984 9.772590 606.019714
175 0 1 7.595505 9.917640 606.971802
176 0 1 7.501149 9.958790 607.891907
177 0 1 7.655876 9.753990 608.880371
178 0 1 7.717765 9.359921 609.793884
179 0 1 7.790450 8.790055 610.558472
180 0 1 7.662605 8.205122 611.417969
181 0 1 7.363673 7.599658 612.095825
182 0 1 7.100167 7.048448 612.840210
183 0 1 7.398507 6.620860 613.650513
184 0 1 7.542691 6.349370 614.572815
185 0 1 7.474008 6.506630 615.607727
186 0 1 7.410044 6.733730 616.485718
187 0 1 7.148621 6.769020 617.405212
188 0 1 7.119696 6.728920 618.382324
189 0 1 7.156283 6.764640 619.341125
190 0 1 7.433742 6.802050 620.313049
191 0 1 7.560336 7.361783 621.152588
192 0 1 7.552743 8.035940 621.859009
193 0 1 7.237114 8.461995 622.702148
194 0 1 6.893010 8.779211 623.520813
195 0 1 6.757950 9.128210 624.463135
196 0 1 6.556010 9.207240 625.459839
197 0 1 6.407180 9.350930 626.379333
198 0 1 6.334350 9.346850 627.358582
199 0 1 6.656620 9.221640 628.265503
200 0 1 7.042489 8.670901 628.899536
201 0 1 7.599212 8.173910 629.518311
202 0 1 7.955330 7.850190 630.315063
203 0 1 8.371472 7.417990 631.017883
204 0 1 8.376910 7.297267 631.936096
205 0 1 8.546685 7.043559 632.871460
206 0 1 8.827811 6.906770 633.790283
207 0 1 9.015420 6.828590 634.706055
208 0 1 9.151910 6.601790 635.689819
209 0 1 9.470430 6.427830 636.550842
210 0 1 9.657830 6.251230 637.477478
211 0 1 9.835850 6.087350 638.448486
212 0 1 10.145330 5.715540 639.268372
213 0 1 10.451480 5.594300 640.193115
214 0 1 10.791080 5.599500 641.074219
215 0 1 10.908240 5.525290 642.032776
216 0 1 11.180520 5.775120 642.948120
217 0 1 11.202380 5.997510 643.858215
218 0 1 11.108340 6.371550 644.708130
219 0 1 10.896481 6.863010 645.509827
220 0 1 10.537780 6.980060 646.411926
221 0 1 10.190269 7.232835 647.241089
222 0 1 9.812350 7.671349 648.003174
223 0 1 9.397640 8.213912 648.680786
224 0 1 8.985709 8.454234 649.572815
225 0 1 8.521659 8.774094 650.334473
226 0 1 7.902294 8.870226 651.101318
227 0 1 7.459278 8.957525 651.952393
228 0 1 7.397073 8.883263 652.870605
229 0 1 7.608346 8.762041 653.821472
230 0 1 7.717147 8.567789 654.777283
231 0 1 7.817904 8.050427 655.601379
232 0 1 7.934996 7.705666 656.505188
233 0 1 8.053623 7.434022 657.359497
234 0 1 8.258945 7.517322 658.246887
235 0 1 8.292574 7.408069 659.222229
236 0 1 8.334687 6.886570 660.033813
237 0 1 8.222859 6.671870 661.042786
238 0 1 8.272680 6.735530 661.967529
239 0 1 8.624269 6.573060 662.861511
240 0 1 8.790469 6.287050 663.840698
241 0 1 8.971307 6.080400 664.803711
242 0 1 9.111460 5.950420 665.769714
243 0 1 9.333740 5.778790 666.649902
244 0 1 9.695800 5.763880 667.539978
245 0 1 9.811940 5.854030 668.513794
246 0 1 9.707980 6.053490 669.461914
247 0 1 9.679550 6.185730 670.421326
248 0 1 9.604180 6.413810 671.411621
249 0 1 9.685540 6.395660 672.389587
250 0 1 10.002710 6.053190 673.226318
251 0 1 10.498720 6.063460 674.003479
252 0 1 10.973650 6.039810 674.868774
253 0 1 11.227480 5.887730 675.741028
254 0 1 11.416880 6.002750 676.653992
255 0 1 11.459400 6.134320 677.660583
256 0 1 11.494650 5.856840 678.602905
257 0 1 11.222010 5.690340 679.542908
258 0 1 11.200820 5.616470 680.503479
259 0 1 11.101590 5.652540 681.488403
260 0 1 11.183250 5.574010 682.419312
261 0 1 11.044140 5.519070 683.349426
262 0 1 10.927820 5.588880 684.316772
263 0 1 11.047350 5.550910 685.310181
264 0 1 11.172630 5.372870 686.227600
265 0 1 11.239890 5.460800 687.168579
266 0 1 11.158870 5.441120 688.182495
267 0 1 10.646070 5.135080 688.930115
268 0 1 10.266360 4.937150 689.806702
269 0 1 9.962630 4.992620 690.703491
270 0 1 9.685620 5.110340 691.638000
271 0 1 9.325320 5.447650 692.540405
272 0 1 9.147380 5.979380 693.409302
273 0 1 9.006020 6.481590 694.198914
274 0 1 8.817329 7.126930 694.872009
275 0 1 8.780424 7.767537 695.604187
276 0 1 8.847357 8.382513 696.432678
277 0 1 8.655024 8.929365 697.200500
278 0 1 8.132469 9.230190 697.981934
279 0 1 7.637628 9.227600 698.801208
280 0 1 7.276676 9.137310 699.733398
281 0 1 7.053630 8.949935 700.608887
282 0 1 6.949860 8.653650 701.539124
283 0 1 7.012013 8.152983 702.377502
284 0 1 7.226902 7.779901 703.209717
285 0 1 7.640681 7.163612 703.903198
286 0 1 8.031306 6.523840 704.596680
287 0 1 8.356694 6.160130 705.447083
288 0 1 8.562788 6.021290 706.391785
289 0 1 8.687047 5.772750 707.314819
290 0 1 8.775084 5.591470 708.270508
291 0 1 9.036850 5.282650 709.140381
292 0 1 9.345920 4.994400 709.963318
293 0 1 9.598250 4.280000 710.567688
294 0 1 9.791670 3.624240 711.270691
295 0 1 9.963140 2.985470 711.914124
296 0 1 10.199360 2.546480 712.640198
297 0 1 10.476180 2.210450 713.493530
298 0 1 10.795340 2.276020 714.394592
299 0 1 11.010860 2.619440 715.253296
300 0 1 10.981230 2.950740 716.162598
301 0 1 11.394020 3.187670 717.027832
302 0 1 11.715390 3.177360 717.947876
303 0 1 11.865290 3.331110 718.848816
304 0 1 12.150110 3.478940 719.731201
305 0 1 12.626619 3.683430 720.531372
306 0 1 13.143550 4.043120 721.253784
307 0 1 13.538620 4.399830 722.052795
308 0 1 13.797780 4.879670 722.843872
309 0 1 13.958799 5.248020 723.663879
310 0 1 14.151020 5.526420 724.630920
311 0 1 14.063931 6.025340 725.477783
312 0 1 13.766100 6.569650 726.225281
313 0 1 13.303020 6.991850 726.966492
314 0 1 13.081079 7.386730 727.804993
315 0 1 12.979280 7.826839 728.703003
316 0 1 12.871320 8.269322 729.568970
317 0 1 12.773621 8.342708 730.551025
318 0 1 12.757140 8.828829 731.424011
319 0 1 12.787260 9.319550 732.244019
320 0 1 12.808320 9.762640 733.096008
321 0 1 12.998720 9.747830 734.078979
322 0 1 13.129320 9.667690 735.031006
323 0 1 12.955390 9.477890 736.028015
324 0 1 12.666969 9.407619 736.900024
325 0 1 12.974680 9.454010 737.823975
326 0 1 13.230801 9.769430 738.700989
327 0 1 13.282860 9.852420 739.695984
328 0 1 13.301590 9.752831 740.682983
329 0 1 13.432040 9.941370 741.608032
330 0 1 13.193359 9.933390 742.549988
331 0 1 12.822500 9.676060 743.460999
332 0 1 12.445190 9.334220 744.276978
333 0 1 12.136770 8.934446 745.135986
334 0 1 11.706141 8.483071 745.862000
335 0 1 11.177510 8.202825 746.676025
336 0 1 10.771880 7.983099 747.526001
337 0 1 10.620390 7.793181 748.419006
338 0 1 10.802040 7.828378 749.359985
339 0 1 11.056160 7.866353 750.304016
340 0 1 11.444080 8.070457 751.104980
341 0 1 11.919160 8.476768 751.851013
342 0 1 12.201190 8.812909 752.818970
343 0 1 12.486200 9.069430 753.815979
344 0 1 12.512239 9.430510 754.703979
345 0 1 12.348690 9.671810 755.596985
346 0 1 11.838820 9.757060 756.458984
347 0 1 11.128320 9.890260 757.025024
348 0 1 10.465300 10.166310 757.648987
349 0 1 10.072269 10.043700 758.471985
350 0 1 9.732300 10.172820 759.410034
351 0 1 9.693550 10.191220 760.359009
352 0 1 9.698600 9.917680 761.283997
353 0 1 9.926150 9.517330 762.119019
354 0 1 10.000130 9.410180 763.096008
355 0 1 10.318790 9.401510 764.015015
356 0 1 10.602010 9.459170 764.940002
357 0 1 11.023940 9.765510 765.781982
358 0 1 11.417250 10.053610 766.567017
359 0 1 11.709450 10.269100 767.587036
360 0 1 11.887170 10.567260 768.473022
361 0 1 11.924510 11.074690 769.344971
362 0 1 11.584909 11.355860 770.202026
363 0 1 11.403470 11.663260 771.051025
364 0 1 11.625000 11.710930 772.052979
365 0 1 12.162390 11.690760 772.818970
366 0 1 12.632730 11.585360 773.716003
367 0 1 12.673360 11.706960 774.731018
368 0 1 12.721270 11.828730 775.671997
369 0 1 12.453630 11.817650 776.624023
370 0 1 12.212540 11.529140 777.520020
371 0 1 11.852410 11.098790 778.281982
372 0 1 11.340740 10.512660 778.828979
373 0 1 10.745160 10.094749 779.426025
374 0 1 9.934390 9.698440 779.781982
375 0 1 9.159500 9.339160 780.221008
376 0 1 8.336785 9.152580 780.692993
377 0 1 7.703881 8.928901 781.364990
378 0 1 7.257345 8.885126 782.216003
379 0 1 6.934130 8.905523 783.125977
380 0 1 6.404900 8.830574 783.994019
381 0 1 5.946900 8.701490 784.786011
382 0 1 5.609070 8.522079 785.679993
383 0 1 5.284020 8.230692 786.528992
384 0 1 4.780300 8.012510 787.250000
385 0 1 4.693130 7.591246 788.088013
386 0 1 4.553880 7.250960 788.981995
387 0 1 4.386690 6.812040 789.858032
388 0 1 4.278160 6.317430 790.671021
389 0 1 3.870990 5.925640 791.528015
390 0 1 3.548530 5.530000 792.372986
391 0 1 3.276570 5.271200 793.218018
392 0 1 3.033610 5.075450 794.193970
393 0 1 2.829120 4.978320 795.098022
394 0 1 2.699940 4.831340 796.031982
395 0 1 2.735290 4.826940 796.999023
396 0 1 2.776230 4.761300 797.981018
397 0 1 2.987950 4.765230 798.914978
398 0 1 3.271290 4.731320 799.799988
399 0 1 3.702400 4.604520 800.669983
400 0 1 4.258540 4.314500 801.490967
401 0 1 4.789440 4.034180 802.281006
402 0 1 5.146220 4.021600 803.231995
403 0 1 4.920370 4.014740 804.151978
404 0 1 4.581570 4.024910 805.083008
405 0 1 4.357750 4.218360 806.009033
406 0 1 4.014650 4.510150 806.835022
407 0 1 3.768750 4.651100 807.806030
408 0 1 3.774700 4.843070 808.721985
409 0 1 3.845190 4.927370 809.721985
410 0 1 3.950520 4.802110 810.726990
411 0 1 3.861700 4.583980 811.681030
412 0 1 3.823820 4.569610 812.635010
413 0 1 3.887410 4.432530 813.588989
414 0 1 4.102300 4.456130 814.515991
415 0 1 4.549570 4.477680 815.349976
416 0 1 4.671820 4.127690 816.302002
417 0 1 5.076820 4.311740 817.221985
418 0 1 5.618670 4.510860 818.016968
419 0 1 5.948290 4.521460 818.940002
420 0 1 6.219410 4.555050 819.906982
421 0 1 6.578820 4.327850 820.787964
422 0 1 6.984420 4.182360 821.643005
423 0 1 7.084500 3.829020 822.549011
424 0 1 7.000083 3.408640 823.442017
425 0 1 6.748090 2.921640 824.214966
426 0 1 6.296510 2.714880 825.078003
427 0 1 5.997410 2.507430 826.002991
428 0 1 5.936470 2.449010 826.929993
429 0 1 5.905550 2.323550 827.901978
430 0 1 5.910380 2.260270 828.786011
431 0 1 6.016230 2.286380 829.822021
432 0 1 6.142190 2.047070 830.703003
433 0 1 6.442420 2.146340 831.609985
434 0 1 6.765320 2.043730 832.509033
435 0 1 7.074177 2.050220 833.398987
436 0 1 7.352071 2.100140 834.307007
437 0 1 7.695118 2.150870 835.264038
438 0 1 8.015290 2.165080 836.125977
439 0 1 8.676027 2.358490 836.837036
440 0 1 9.047440 2.585430 837.703979
441 0 1 9.455740 2.959550 838.561035
442 0 1 9.843380 3.296650 839.405029
443 0 1 9.979670 3.765600 840.238037
444 0 1 10.120399 4.408240 840.895020
445 0 1 10.653510 5.163670 841.156006
446 0 1 10.984470 6.047810 841.221985
447 0 1 11.254560 6.961190 841.200012
448 0 1 11.761130 7.829916 840.976013
449 0 1 12.071500 8.658949 840.583984
450 0 1 12.431931 9.321960 839.966980
451 0 1 12.797740 10.028709 839.332031
452 0 1 12.855090 10.385390 838.416992
453 0 1 13.027370 10.905190 837.591980
454 0 1 13.193300 11.142270 836.723022
455 0 1 13.275450 11.335700 835.815002
456 0 1 13.206320 11.340070 834.895996
457 0 1 13.152719 11.518220 833.978027
458 0 1 12.905880 11.808260 833.052979
459 0 1 12.720170 12.035510 832.046997
460 0 1 12.567910 12.178040 831.093994
461 0 1 12.519660 12.395121 830.158997
462 0 1 12.291790 12.564859 829.245972
463 0 1 12.177900 12.857719 828.333008
464 0 1 11.881520 12.945250 827.469971
465 0 1 11.415590 12.939011 826.606018
466 0 1 10.954170 12.981501 825.700989
467 0 1 10.546340 12.484990 824.964966
468 0 1 10.105350 12.093700 824.266968
469 0 1 9.832660 11.433040 823.552979
470 0 1 10.087120 11.052170 822.718994
471 0 1 10.135030 10.905400 821.739990
472 0 1 10.174240 10.608250 820.820984
473 0 1 10.420880 10.193350 819.974976
474 0 1 10.209340 9.685010 819.205017
475 0 1 10.047370 9.460090 818.278992
476 0 1 9.812330 9.110291 817.434021
477 0 1 9.662370 8.736107 816.614990
478 0 1 9.635840 8.631338 815.718994
479 0 1 9.808790 8.541190 814.804993
480 0 1 10.048389 8.144336 813.984985
481 0 1 10.397960 7.487416 813.390991
482 0 1 10.831100 6.920540 812.718018
483 0 1 10.922180 6.455610 811.924988
484 0 1 10.901160 6.128150 810.984985
485 0 1 10.877250 6.118580 810.059998
486 0 1 10.390141 6.126640 809.231018
487 0 1 9.870620 6.314460 808.479004
488 0 1 9.208930 6.526130 807.738037
489 0 1 8.751597 6.971940 806.955017
490 0 1 8.509184 7.493917 806.135010
491 0 1 8.001781 7.998072 805.479004
492 0 1 7.672375 8.332839 804.671997
493 0 1 7.354754 8.414237 803.770020
494 0 1 6.761750 8.565905 802.966980
495 0 1 6.511540 8.551168 801.963989
496 0 1 6.253400 8.730247 801.044006
497 0 1 6.384720 8.651922 800.091980
498 0 1 6.600670 8.680338 799.148987
499 0 1 6.724850 8.336783 798.223999
500 0 1 6.751080 8.051111 797.328979
501 0 1 6.761270 7.704860 796.395996
502 0 1 6.977350 7.302358 795.509033
503 0 1 6.854620 6.799610 794.671021
504 0 1 7.070663 6.287470 793.896973
505 0 1 7.458129 5.785330 793.171021
506 0 1 7.916096 5.397360 792.406006
507 0 1 8.203587 5.117920 791.593994
508 0 1 8.503097 4.731670 790.773010
509 0 1 8.671873 4.279920 789.968994
510 0 1 9.102480 4.084160 789.114990
511 0 1 9.446180 3.882450 788.296997
512 0 1 9.711370 3.680920 787.364014
513 0 1 9.970910 3.639340 786.427002
514 0 1 10.365420 3.682460 785.562988
515 0 1 10.700200 3.990370 784.739014
516 0 1 10.673970 4.640550 783.962036
517 0 1 10.735110 5.216320 783.184998
518 0 1 10.705150 5.635860 782.286987
519 0 1 10.774660 5.894010 781.359985
520 0 1 10.753060 6.322100 780.479004
521 0 1 10.429430 6.830560 779.702026
522 0 1 9.774910 7.065363 779.067993
523 0 1 8.964860 7.192301 778.658020
524 0 1 8.177913 7.424345 778.110962
525 0 1 7.360827 7.208196 777.671997
526 0 1 6.367480 7.079022 777.398987
527 0 1 5.436420 7.229887 777.078003
528 0 1 4.624450 7.169336 776.552002
529 0 1 4.054370 6.802810 775.931030
530 0 1 3.762470 6.273850 775.224976
531 0 1 3.544540 5.893600 774.337036
532 0 1 3.484860 5.470300 773.453979
533 0 1 2.991160 5.545820 772.585022
534 0 1 2.466300 5.644160 771.738037
535 0 1 2.212140 5.480660 770.856018
536 0 1 2.120510 5.553810 769.841980
537 0 1 2.335220 5.638930 768.886963
538 0 1 2.764990 5.954120 768.082031
539 0 1 3.107910 6.401800 767.266968
540 0 1 3.677720 6.709080 766.551025
541 0 1 4.035650 7.187166 765.799011
542 0 1 4.177500 7.840248 765.088013
543 0 1 4.243800 8.514973 764.443970
544 0 1 4.431700 9.310440 763.938965
545 0 1 4.388970 10.091750 763.353027
546 0 1 4.413730 10.744680 762.684021
547 0 1 4.670800 11.344450 761.994019
548 0 1 5.077180 11.850349 761.341980
549 0 1 5.430590 12.202789 760.502014
550 0 1 5.734710 12.641520 759.714966
551 0 1 6.308290 12.941589 759.035034
552 0 1 6.650610 13.135611 758.213013
553 0 1 7.112684 13.559320 757.539001
554 0 1 7.778106 13.805330 756.838013
555 0 1 8.220153 13.821671 755.942993
556 0 1 8.418604 13.488060 755.049988
557 0 1 8.764364 13.140940 754.226990
558 0 1 9.006360 12.832500 753.403015
559 0 1 9.027170 12.503590 752.458984
560 0 1 9.235991 12.091490 751.585022
561 0 1 9.365450 11.865740 750.554993
562 0 1 9.418730 11.340820 749.736023
563 0 1 9.421400 10.812840 748.934021
564 0 1 9.587020 10.506690 748.057983
565 0 1 9.740280 10.350950 747.083984
566 0 1 9.668500 10.371130 745.986023
567 0 1 9.903600 10.054660 745.089966
568 0 1 9.751270 9.823290 744.096008
569 0 1 9.832810 9.569880 743.187988
570 0 1 10.088530 9.176300 742.288025
571 0 1 10.416750 8.731242 741.471008
572 0 1 10.996180 8.675415 740.710999
573 0 1 11.404830 8.254359 739.927002
574 0 1 11.738300 7.614307 739.302002
575 0 1 11.985050 7.228671 738.388000
576 0 1 12.267350 6.947870 737.471985
577 0 1 12.352750 6.947480 736.526978
578 0 1 12.603149 6.917520 735.648010
579 0 1 12.679359 7.204304 734.733032
580 0 1 12.464090 7.546664 733.875000
581 0 1 12.082860 7.922024 733.106018
582 0 1 11.622169 7.958430 732.250977
583 0 1 11.453000 8.074226 731.301025
584 0 1 11.459460 8.242364 730.348022
585 0 1 11.455030 8.531982 729.432983
586 0 1 11.648330 8.656121 728.499634
587 0 1 11.874331 8.683583 727.572998
588 0 1 11.953140 8.964043 726.653015
589 0 1 11.738060 9.250970 725.795776
590 0 1 11.482460 9.414940 724.921326
591 0 1 11.427980 9.301710 724.014709
592 0 1 11.054120 8.990728 723.154297
593 0 1 10.923700 8.501427 722.360718
594 0 1 10.976720 7.951500 721.583923
595 0 1 10.876120 7.499297 720.790894
596 0 1 10.808710 7.216000 719.851929
597 0 1 10.781360 6.822920 718.932007
598 0 1 10.564090 6.433730 718.090881
599 0 1 10.071810 6.157060 717.252319
600 0 1 9.331330 6.411010 716.677612
601 0 1 8.573057 6.744860 716.199219
602 0 1 7.843923 7.170761 715.721802
603 0 1 7.124934 7.530307 715.214417
604 0 1 6.717830 7.807668 714.355103
605 0 1 6.284200 8.202372 713.566223
606 0 1 5.752060 8.243622 712.747986
607 0 1 5.274530 8.221216 711.921631
608 0 1 4.917040 8.189988 710.989807
609 0 1 4.922550 8.115227 710.033508
610 0 1 5.002120 8.205180 709.084473
611 0 1 5.107340 8.114308 708.109619
612 0 1 5.027500 7.783262 707.225220
613 0 1 4.582820 7.463447 706.446411
614 0 1 4.465900 7.459738 705.480103
615 0 1 4.642700 7.522738 704.536133
616 0 1 4.594380 7.430842 703.579468
617 0 1 4.603150 7.165766 702.575806
618 0 1 4.595290 6.889010 701.686584
619 0 1 4.671840 6.923120 700.764099
620 0 1 4.809160 7.162401 699.801086
621 0 1 5.006120 7.439334 698.930115
622 0 1 5.010660 7.692011 697.971375
623 0 1 4.784050 7.839577 697.064575
624 0 1 4.847950 7.882566 696.119385
625 0 1 5.124010 7.890169 695.185181
626 0 1 5.062100 7.536932 694.324524
627 0 1 4.952100 7.390406 693.322083
628 0 1 4.874570 7.269091 692.369629
629 0 1 4.514170 7.090625 691.493225
630 0 1 4.264560 7.093538 690.570496
631 0 1 4.214390 6.940290 689.609680
632 0 1 4.164100 6.592930 688.650513
633 0 1 3.903480 6.105210 687.909790
634 0 1 3.722810 5.929430 686.999084
635 0 1 4.063240 5.899260 686.077393
636 0 1 4.327140 6.029980 685.171387
637 0 1 4.490350 5.884120 684.235413
638 0 1 4.896560 5.637480 683.384094
639 0 1 5.437130 5.643950 682.638306
640 0 1 6.012360 5.877470 681.812195
641 0 1 6.248980 6.370450 681.008423
642 0 1 6.435490 7.024558 680.346008
643 0 1 6.885540 7.438579 679.638977
644 0 1 7.118266 7.993186 678.949524
645 0 1 7.541837 8.443815 678.180115
646 0 1 7.917243 8.984268 677.400085
647 0 1 8.421810 9.345440 676.707886
648 0 1 8.949646 9.492720 675.895020
649 0 1 9.115180 9.552580 674.976318
650 0 1 9.474350 9.954290 674.124207
651 0 1 9.588440 10.212049 673.239624
652 0 1 9.715590 10.454960 672.274597
653 0 1 9.829490 10.506080 671.328003
654 0 1 9.546320 10.700650 670.416687
655 0 1 9.128600 10.871550 669.595703
656 0 1 8.715076 11.054290 668.731873
657 0 1 8.459757 11.281160 667.781799
658 0 1 8.338403 11.288919 666.881775
659 0 1 8.430231 11.212510 665.848328
660 0 1 8.317280 10.709249 664.975586
661 0 1 8.457361 10.146670 664.148621
662 0 1 8.362769 9.554830 663.390320
663 0 1 8.588668 9.065790 662.578674
664 0 1 8.535812 8.843040 661.661316
665 0 1 8.523020 8.585391 660.775696
666 0 1 8.692248 8.620818 659.857300
667 0 1 8.914634 8.679806 658.903809
668 0 1 9.026210 8.704720 657.933105
669 0 1 8.840333 9.074100 657.082092
670 0 1 8.876650 9.250600 656.180115
671 0 1 9.182250 9.465440 655.321106
672 0 1 9.614400 9.528980 654.446594
673 0 1 9.900210 9.679140 653.583130
674 0 1 10.134250 9.957000 652.680481
675 0 1 10.358530 10.119240 651.728699
676 0 1 10.674931 10.181980 650.789307
677 0 1 10.647170 10.046770 649.742188
678 0 1 10.628790 9.782850 648.775024
679 0 1 10.639380 9.708410 647.831116
680 0 1 10.917390 9.591230 646.920105
681 0 1 11.282949 9.523680 645.969482
682 0 1 11.576630 9.608459 645.086792
683 0 1 11.867960 9.865020 644.177185
684 0 1 12.187810 9.855360 643.193298
685 0 1 12.133360 9.722850 642.244995
686 0 1 11.877590 9.723970 641.328125
687 0 1 11.711810 9.722450 640.382996
688 0 1 11.049550 9.667280 639.710205
689 0 1 10.833370 9.721820 638.804688
690 0 1 10.836910 9.664330 637.817871
691 0 1 10.838090 9.559540 636.860901
692 0 1 11.156480 9.589090 635.978394
693 0 1 11.431160 9.693200 635.080811
694 0 1 11.894260 10.057460 634.342102
695 0 1 12.344790 10.245560 633.527588
696 0 1 12.603170 10.236550 632.663513
697 0 1 12.744570 10.110889 631.733093
698 0 1 12.528811 10.208920 630.785095
699 0 1 12.015390 10.023030 629.978699
700 0 1 11.515910 9.957120 629.166687
701 0 1 11.266280 10.069830 628.253174
702 0 1 10.769150 9.981790 627.432434
703 0 1 10.398410 9.788370 626.527771
704 0 1 10.054190 9.505910 625.710815
705 0 1 9.810160 9.294450 624.810974
706 0 1 9.709260 8.981642 623.895203
707 0 1 9.547050 8.800140 622.851501
708 0 1 9.366560 8.505079 621.995911
709 0 1 9.490090 8.301784 621.050110
710 0 1 9.442910 8.222007 620.081482
711 0 1 9.782110 8.014948 619.200012
712 0 1 10.226600 7.888932 618.422729
713 0 1 10.395900 8.141155 617.528503
714 0 1 10.427589 8.349093 616.603210
715 0 1 10.365780 8.367310 615.603699
716 0 1 10.330360 8.440235 614.602600
717 0 1 10.715410 8.533011 613.765869
718 0 1 11.154040 8.686330 612.830627
719 0 1 11.636610 8.551345 612.003601
720 0 1 11.767290 8.526318 611.100830
721 0 1 11.821680 8.504113 610.147705
722 0 1 11.867400 8.686566 609.231995
723 0 1 11.869780 8.798686 608.315613
724 0 1 11.886420 8.936007 607.368408
725 0 1 11.720660 9.180060 606.432373
726 0 1 11.325809 9.193030 605.523926
727 0 1 11.153790 9.144440 604.586914
728 0 1 11.120461 9.145570 603.594910
729 0 1 11.257290 9.294520 602.681091
730 0 1 11.595779 9.494340 601.743286
731 0 1 11.880610 9.702430 600.854309
732 0 1 12.230310 9.954170 599.958374
733 0 1 12.141560 10.206430 599.041504
734 0 1 11.862160 10.413670 598.162598
735 0 1 11.773980 10.736540 597.216919
736 0 1 11.584270 10.835220 596.286072
737 0 1 11.349590 10.768160 595.360779
738 0 1 11.170060 10.472090 594.406677
739 0 1 11.087140 10.151700 593.434387
740 0 1 10.986830 10.067650 592.513794
741 0 1 10.614350 9.883490 591.629700
742 0 1 10.525520 9.756180 590.688782
743 0 1 10.461950 9.436220 589.805481
744 0 1 10.471260 9.055090 588.927979
745 0 1 10.381440 8.961363 587.951111
746 0 1 10.189460 8.806782 587.010010
747 0 1 9.568690 8.808708 586.203979
748 0 1 8.783886 8.498048 585.632202
749 0 1 8.074589 8.551786 585.005005
750 0 1 7.438009 8.502606 584.263489
751 0 1 6.792120 8.209043 583.576721
752 0 1 6.256590 7.956705 582.819275
753 0 1 6.097130 7.581967 581.849121
754 0 1 6.023750 7.279851 580.896423
755 0 1 6.102640 7.135346 579.932800
756 0 1 5.781040 6.967600 578.977417
757 0 1 5.452700 6.517270 578.209290
758 0 1 5.061350 6.213150 577.359009
759 0 1 4.876080 5.782480 576.527588
760 0 1 4.772300 5.356410 575.664429
761 0 1 4.702530 4.823530 574.859131
762 0 1 4.675590 4.611150 573.881409
763 0 1 4.541740 4.205800 572.960022
764 0 1 4.568710 3.989200 571.976379
765 0 1 4.893900 3.615800 571.119507
766 0 1 4.973190 3.201910 570.262390
767 0 1 4.934190 3.003420 569.376892
768 0 1 5.029330 2.837850 568.398987
769 0 1 5.333690 2.374820 567.577026
770 0 1 5.523550 2.297700 566.613892
771 0 1 5.642780 2.446880 565.658203
772 0 1 5.763710 2.909190 564.791321
773 0 1 6.090400 3.138080 563.985596
774 0 1 6.326730 3.248630 563.016113
775 0 1 6.484640 3.320590 562.059021
776 0 1 6.641200 3.632370 561.117004
777 0 1 6.899100 4.039290 560.304993
778 0 1 7.133899 4.440870 559.428101
779 0 1 7.451893 4.850520 558.582092
780 0 1 7.723793 5.299700 557.777283
781 0 1 8.052927 5.923940 557.116882
782 0 1 8.594218 6.297050 556.332092
783 0 1 8.663161 6.809150 555.557800
784 0 1 8.697101 7.459536 554.825989
785 0 1 8.871613 7.837290 553.997070
786 0 1 9.015670 8.225331 553.067871
787 0 1 9.107460 8.574994 552.083679
788 0 1 9.325640 8.865573 551.183716
789 0 1 9.183150 8.934746 550.239319
790 0 1 9.081060 9.022560 549.226013
791 0 1 8.962518 9.365330 548.284912
792 0 1 9.005420 9.655720 547.392517