LAMMPS data file via MDAnalysis

        1000  atoms
        1000  bonds
        1000  angles
           0  dihedrals
           0  impropers

           1  atom types
           1  bond types
           1  angle types
           0  dihedral types
           0  improper types

0.000000 16.000000 xlo xhi
0.000000 16.000000 ylo yhi
0.000000 1257.000000 zlo zhi


Masses

1 1.000000

Atoms

1 0 1 10.641479 12.502359 455.304016
2 0 1 11.172280 12.299370 456.078979
3 0 1 11.462650 12.059330 456.971008
4 0 1 11.722420 11.546329 457.804993
5 0 1 12.053870 11.242790 458.694000
6 0 1 12.250360 10.877100 459.559021
7 0 1 12.533390 10.448100 460.424011
8 0 1 12.796460 10.224460 461.360992
9 0 1 12.923270 10.432870 462.346008
10 0 1 13.093420 10.530390 463.354004
11 0 1 13.069910 10.297720 464.270996
12 0 1 13.455770 10.154200 465.161011
13 0 1 13.783600 10.015350 466.048004
14 0 1 14.127890 9.744490 466.950012
15 0 1 14.151320 9.708980 467.863007
16 0 1 13.947969 10.058840 468.744995
17 0 1 13.500160 9.942990 469.606018
18 0 1 13.392870 9.803320 470.569000
19 0 1 13.702320 9.792920 471.479980
20 0 1 13.988720 9.737570 472.345001
21 0 1 14.426950 9.523280 473.174011
22 0 1 14.467421 9.122270 474.018982
23 0 1 14.687640 8.634994 474.812988
24 0 1 14.778180 8.360609 475.697998
25 0 1 14.385900 8.017303 476.505981
26 0 1 13.881330 7.465890 477.020020
27 0 1 13.465270 6.820970 477.598999
28 0 1 13.068420 6.334900 478.423004
29 0 1 12.997340 5.916850 479.333984
30 0 1 13.015050 5.537690 480.213013
31 0 1 13.163589 5.170470 481.154999
32 0 1 13.309090 5.185700 482.104980
33 0 1 13.204679 4.893110 483.023010
34 0 1 13.162149 4.445480 483.789001
35 0 1 12.803970 4.515010 484.705017
36 0 1 12.174601 4.587380 485.509003
37 0 1 11.549710 4.623090 486.255005
38 0 1 11.126060 4.778320 487.049988
39 0 1 10.534960 4.644070 487.781982
40 0 1 9.988810 4.441860 488.548004
41 0 1 9.455920 4.511430 489.372009
42 0 1 8.865891 5.045250 489.964996
43 0 1 8.408377 5.523220 490.755981
44 0 1 7.978598 6.059800 491.442017
45 0 1 7.414973 6.681060 492.121002
46 0 1 6.756760 7.087003 492.738007
47 0 1 6.103800 7.364737 493.541016
48 0 1 5.713660 7.863762 494.234985
49 0 1 5.419100 8.268080 495.052002
50 0 1 5.301790 8.541249 495.979004
51 0 1 5.087020 8.777231 496.886993
52 0 1 5.170630 9.053260 497.786987
53 0 1 5.401950 8.876900 498.688995
54 0 1 5.404830 8.655764 499.615997
55 0 1 5.008220 8.539034 500.549988
56 0 1 4.615120 8.682707 501.408997
57 0 1 4.348310 8.418356 502.319000
58 0 1 4.041760 7.812019 503.098999
59 0 1 3.449430 7.228123 503.546997
60 0 1 2.837230 6.770320 504.096985
61 0 1 2.502340 6.462940 504.890991
62 0 1 2.505890 6.584900 505.903992
63 0 1 2.293190 6.686600 506.878998
64 0 1 2.106610 6.684030 507.812012
65 0 1 2.213400 6.674790 508.838013
66 0 1 2.204410 6.718550 509.779999
67 0 1 2.525280 6.669140 510.645996
68 0 1 3.123900 6.648010 511.449005
69 0 1 3.426060 6.554420 512.341980
70 0 1 3.756120 6.499950 513.306030
71 0 1 4.275690 6.737680 514.023987
72 0 1 4.877470 7.148716 514.645020
73 0 1 5.415130 7.418319 515.539001
74 0 1 5.917400 7.927510 516.075012
75 0 1 6.447440 8.382355 516.729980
76 0 1 6.878880 8.940379 517.400024
77 0 1 7.167256 9.668010 517.969971
78 0 1 7.533851 10.192640 518.771973
79 0 1 7.967525 10.444640 519.575989
80 0 1 8.320494 10.981160 520.310974
81 0 1 8.575503 11.345860 521.101990
82 0 1 8.582379 11.516610 522.052002
83 0 1 8.845799 11.854930 522.997009
84 0 1 9.202650 11.963220 523.910034
85 0 1 9.590510 12.071920 524.768005
86 0 1 9.804190 12.129590 525.702026
87 0 1 10.233620 12.228600 526.557983
88 0 1 10.580920 12.133881 527.489014
89 0 1 10.728610 11.927010 528.390991
90 0 1 10.694941 11.799740 529.302917
91 0 1 10.643050 11.567980 530.210327
92 0 1 10.469521 11.774670 531.156372
93 0 1 10.123330 11.775820 532.006775
94 0 1 9.860450 11.906200 532.882568
95 0 1 9.855110 12.078190 533.845703
96 0 1 10.153490 12.021070 534.758606
97 0 1 10.526711 12.260241 535.600281
98 0 1 10.790649 12.650960 536.419312
99 0 1 11.056800 12.758329 537.297974
100 0 1 11.506080 12.691790 538.211609
101 0 1 11.876930 12.412920 539.064026
102 0 1 12.051041 12.127150 539.973083
103 0 1 12.220340 12.140120 540.919800
104 0 1 11.949990 12.180320 541.835083
105 0 1 11.854321 11.904470 542.702271
106 0 1 11.350470 11.782120 543.466125
107 0 1 10.611950 11.548510 544.008484
108 0 1 10.073360 11.446620 544.817383
109 0 1 9.443800 11.310431 545.570801
110 0 1 9.244750 11.215100 546.500977
111 0 1 9.218650 10.846650 547.424316
112 0 1 8.932551 10.671600 548.389404
113 0 1 8.575498 10.776360 549.237122
114 0 1 8.130331 10.465670 550.075317
115 0 1 7.731602 10.215640 550.990784
116 0 1 7.548659 10.075030 551.931580
117 0 1 7.895816 9.963610 552.803223
118 0 1 8.127941 10.058180 553.779724
119 0 1 8.215548 10.254370 554.708923
120 0 1 8.048006 10.390350 555.628296
121 0 1 7.667805 10.603650 556.452393
122 0 1 7.538989 10.979280 557.367432
123 0 1 7.149391 11.165970 558.198608
124 0 1 6.712870 11.085300 559.053894
125 0 1 6.239020 10.834351 559.845886
126 0 1 5.862450 10.782290 560.671692
127 0 1 5.468420 10.304900 561.476501
128 0 1 5.055280 10.050230 562.286316
129 0 1 4.828430 9.803300 563.197998
130 0 1 4.545400 9.304670 564.004089
131 0 1 4.420080 8.758552 564.820984
132 0 1 4.529550 8.191584 565.582397
133 0 1 4.500090 7.558214 566.372498
134 0 1 4.563620 6.943950 567.186523
135 0 1 4.396800 6.305720 567.909119
136 0 1 4.354810 5.782010 568.757690
137 0 1 4.522130 5.346610 569.624817
138 0 1 4.592530 5.112740 570.587219
139 0 1 4.638860 4.620570 571.432129
140 0 1 4.800600 4.166740 572.223816
141 0 1 5.033930 3.734990 573.025085
142 0 1 5.199660 3.530440 573.989319
143 0 1 5.203240 3.290550 574.969421
144 0 1 5.585880 3.322540 575.882507
145 0 1 6.285110 3.521690 576.504517
146 0 1 6.785800 3.976500 577.187073
147 0 1 7.397583 4.492350 577.739502
148 0 1 7.811514 5.203950 578.237488
149 0 1 8.236782 5.956070 578.684204
150 0 1 8.635038 6.550370 579.296997
151 0 1 9.234950 6.960360 579.922913
152 0 1 9.695190 7.332031 580.645691
153 0 1 10.178200 7.713171 581.336487
154 0 1 10.664490 7.985949 582.124878
155 0 1 10.907900 8.328169 583.000305
156 0 1 10.942920 8.972027 583.737000
157 0 1 11.201520 9.511100 584.444275
158 0 1 11.546790 9.980320 585.183411
159 0 1 11.876810 10.378901 586.023010
160 0 1 12.355300 10.651360 586.808899
161 0 1 12.461430 10.885000 587.739990
162 0 1 12.625760 10.839240 588.678589
163 0 1 12.530430 10.772370 589.625610
164 0 1 12.533649 10.501110 590.575500
165 0 1 12.847660 10.064910 591.468506
166 0 1 13.127550 9.696020 592.367126
167 0 1 13.218000 9.530660 593.309326
168 0 1 13.128230 9.239620 594.215698
169 0 1 13.020590 9.102790 595.162720
170 0 1 12.916300 8.712574 596.042114
171 0 1 12.793380 8.570232 597.001221
172 0 1 12.907050 8.036034 597.779907
173 0 1 12.721490 7.529581 598.610718
174 0 1 12.467480 7.092495 599.424072
175 0 1 12.165300 6.727990 600.263977
176 0 1 12.031469 6.447010 601.224304
177 0 1 11.815480 6.517400 602.177429
178 0 1 11.623350 6.417230 603.159729
179 0 1 11.563660 6.226220 604.124390
180 0 1 11.506050 6.210020 605.053406
181 0 1 11.284200 6.204620 605.976074
182 0 1 10.953290 6.126450 606.895325
183 0 1 11.110780 6.092660 607.857178
184 0 1 11.213760 6.137330 608.798828
185 0 1 10.901870 6.347780 609.641479
186 0 1 10.934410 6.608010 610.587219
187 0 1 10.752930 6.614640 611.530090
188 0 1 10.534840 6.800930 612.487427
189 0 1 10.453510 7.211209 613.400513
190 0 1 10.212610 7.762489 614.158813
191 0 1 9.888870 8.238632 614.898193
192 0 1 9.358290 8.285206 615.685303
193 0 1 8.865634 8.163932 616.550598
194 0 1 8.729728 8.343987 617.492004
195 0 1 8.616356 8.211254 618.418884
196 0 1 8.582802 8.289179 619.394226
197 0 1 8.750470 8.375695 620.322449
198 0 1 9.092160 8.204905 621.283081
199 0 1 9.066339 7.804891 622.144165
200 0 1 9.129390 7.406995 623.086914
201 0 1 9.124680 7.113062 624.014038
202 0 1 9.034960 6.398660 624.694946
203 0 1 9.052460 5.660160 625.309814
204 0 1 9.133370 4.985270 625.914917
205 0 1 9.320950 4.418480 626.665527
206 0 1 9.574700 3.979230 627.494690
207 0 1 9.546250 3.815940 628.443298
208 0 1 9.431050 3.614970 629.407532
209 0 1 9.458130 3.399880 630.428650
210 0 1 9.592381 3.390890 631.419250
211 0 1 9.918660 3.520320 632.304932
212 0 1 10.316910 3.607260 633.223022
213 0 1 10.678960 3.501360 634.153503
214 0 1 11.220720 3.852020 634.871643
215 0 1 11.310880 4.154240 635.755981
216 0 1 11.387880 4.345770 636.706726
217 0 1 11.487860 4.264820 637.660767
218 0 1 11.616280 4.384660 638.617615
219 0 1 11.857650 4.481360 639.555176
220 0 1 11.947670 4.606600 640.473206
221 0 1 12.007250 4.683350 641.440796
222 0 1 12.309071 4.992260 642.272278
223 0 1 12.595181 5.128310 643.177185
224 0 1 12.589980 5.209850 644.133911
225 0 1 12.357370 5.149170 645.046814
226 0 1 12.670670 4.937770 645.964905
227 0 1 12.854130 4.952210 646.959595
228 0 1 12.816320 5.059040 647.959412
229 0 1 12.900200 5.224510 648.893677
230 0 1 13.056480 5.437850 649.826477
231 0 1 12.896820 5.368750 650.731812
232 0 1 12.517590 5.255160 651.611206
233 0 1 12.471180 4.926940 652.573120
234 0 1 12.455629 4.465260 653.495422
235 0 1 12.164420 4.222660 654.416077
236 0 1 11.616870 4.201760 655.294189
237 0 1 11.277620 4.247710 656.169922
238 0 1 11.242970 4.316460 657.116516
239 0 1 11.246700 4.428760 658.061707
240 0 1 11.644160 4.543310 658.933899
241 0 1 12.201410 4.700740 659.641785
242 0 1 12.778510 4.805570 660.411926
243 0 1 13.271220 4.910090 661.266785
244 0 1 13.764410 4.960260 662.120789
245 0 1 13.962440 4.815500 663.096985
246 0 1 14.021570 4.888830 664.075989
247 0 1 13.896959 5.090000 664.981628
248 0 1 13.574070 5.594880 665.791321
249 0 1 13.206910 5.926730 666.596497
250 0 1 12.760960 6.286760 667.328308
251 0 1 12.621270 6.803920 668.153809
252 0 1 12.569490 7.025577 669.073608
253 0 1 12.479420 7.662171 669.868713
254 0 1 12.581810 8.149091 670.794678
255 0 1 12.539120 8.370550 671.742310
256 0 1 12.258980 8.557393 672.683411
257 0 1 12.063721 8.694581 673.601807
258 0 1 11.808720 8.637668 674.559814
259 0 1 11.404960 8.505545 675.426514
260 0 1 11.019680 8.413567 676.301208
261 0 1 10.734840 8.366724 677.225830
262 0 1 10.775600 8.152371 678.130798
263 0 1 10.956530 8.056307 679.175171
264 0 1 11.210381 7.755893 680.078918
265 0 1 11.255740 7.629330 681.034790
266 0 1 11.188169 7.558609 681.996704
267 0 1 11.046460 7.532440 682.941711
268 0 1 10.881750 7.798019 683.839905
269 0 1 10.785660 8.134419 684.739685
270 0 1 10.698790 8.411959 685.640808
271 0 1 10.516100 8.567272 686.579712
272 0 1 10.365490 8.569590 687.559326
273 0 1 10.505800 8.488965 688.583801
274 0 1 10.589590 8.200190 689.537903
275 0 1 10.374750 7.732898 690.324829
276 0 1 10.001540 7.690483 691.183899
277 0 1 9.420840 7.496485 692.006287
278 0 1 8.915856 7.682089 692.790894
279 0 1 8.458824 7.851517 693.585327
280 0 1 8.087311 7.897969 694.430420
281 0 1 7.588003 7.886404 695.229004
282 0 1 7.186468 8.100174 696.071594
283 0 1 6.955550 8.368227 696.975220
284 0 1 6.872000 8.548150 697.877930
285 0 1 6.990990 8.274516 698.869507
286 0 1 7.227139 8.001137 699.796692
287 0 1 7.459253 7.645741 700.750000
288 0 1 7.647671 7.479192 701.652832
289 0 1 7.595253 7.394111 702.642395
290 0 1 7.639825 7.540253 703.629395
291 0 1 7.851785 7.608502 704.562988
292 0 1 7.851946 7.444470 705.512207
293 0 1 7.353180 7.340700 706.349487
294 0 1 7.126851 7.335580 707.300903
295 0 1 7.041283 7.152709 708.255371
296 0 1 6.756550 7.036941 709.228577
297 0 1 6.596440 7.329905 710.134033
298 0 1 6.705730 7.651885 711.005676
299 0 1 6.796610 7.737370 711.960571
300 0 1 7.074807 7.406102 712.818970
301 0 1 6.965180 7.134684 713.733887
302 0 1 7.021733 7.094011 714.750793
303 0 1 6.700580 7.109605 715.607605
304 0 1 6.885730 7.198048 716.573608
305 0 1 6.749650 7.319875 717.513428
306 0 1 6.879390 7.466064 718.507690
307 0 1 7.003085 7.627873 719.456604
308 0 1 7.198287 7.790748 720.394592
309 0 1 7.243068 7.929152 721.387024
310 0 1 7.380556 7.984294 722.421326
311 0 1 7.231847 8.357087 723.310791
312 0 1 7.393011 8.640857 724.226807
313 0 1 7.485333 8.949704 725.119080
314 0 1 7.566535 9.207410 726.013916
315 0 1 7.342270 9.118440 726.909119
316 0 1 7.244992 9.372530 727.859497
317 0 1 7.156784 9.617730 728.773010
318 0 1 7.377445 9.867200 729.685974
319 0 1 7.474623 10.224430 730.577026
320 0 1 7.079011 10.632210 731.348022
321 0 1 6.582280 10.738570 732.137024
322 0 1 6.080730 10.988910 732.922974
323 0 1 5.467660 10.733770 733.615967
324 0 1 4.700630 10.568900 734.200012
325 0 1 4.225520 9.984710 734.781006
326 0 1 3.779970 9.469800 735.523010
327 0 1 3.425290 9.154910 736.450989
328 0 1 3.401870 8.522990 737.155029
329 0 1 3.698590 7.882182 737.807007
330 0 1 4.052920 7.305187 738.542969
331 0 1 4.276570 7.038724 739.445007
332 0 1 4.699390 6.710900 740.325012
333 0 1 4.918780 6.454250 741.205994
334 0 1 5.362590 6.310010 742.075012
335 0 1 5.935250 6.452480 742.817017
336 0 1 6.559530 6.737880 743.489014
337 0 1 6.952350 6.932390 744.315002
338 0 1 7.300380 7.161374 745.190002
339 0 1 7.751417 7.389716 745.987000
340 0 1 8.295937 7.706055 746.734985
341 0 1 8.634891 8.116335 747.556030
342 0 1 8.736655 8.553110 748.516968
343 0 1 8.759846 9.295920 749.072998
344 0 1 8.989514 10.119830 749.638000
345 0 1 9.143450 10.727840 750.346985
346 0 1 9.527660 11.402650 750.943970
347 0 1 9.691730 11.814600 751.770020
348 0 1 9.713600 12.127610 752.733032
349 0 1 9.487310 12.257990 753.693970
350 0 1 9.016900 12.317860 754.513000
351 0 1 8.788391 12.248970 755.405029
352 0 1 8.881283 11.959430 756.359009
353 0 1 8.986739 11.499690 757.167969
354 0 1 9.070690 11.047670 758.018005
355 0 1 9.297740 10.772079 758.989014
356 0 1 9.424550 10.638590 759.936035
357 0 1 9.260400 10.920620 760.864990
358 0 1 9.182610 11.190130 761.761963
359 0 1 9.257540 11.495171 762.641968
360 0 1 9.068000 11.934160 763.565002
361 0 1 8.838480 12.268860 764.445007
362 0 1 8.444803 12.649680 765.237000
363 0 1 7.980517 12.954161 766.031982
364 0 1 7.731572 13.069281 766.914978
365 0 1 7.616156 13.151180 767.926025
366 0 1 7.634423 13.355930 768.862000
367 0 1 7.665290 13.153851 769.851990
368 0 1 7.844589 12.903720 770.804993
369 0 1 8.050036 12.492050 771.682983
370 0 1 8.368597 12.020460 772.471008
371 0 1 8.986517 11.509820 773.009033
372 0 1 9.434420 11.063490 773.662964
373 0 1 9.833480 10.484410 774.260986
374 0 1 10.285789 9.941320 774.891968
375 0 1 10.856960 9.458549 775.520996
376 0 1 11.116060 9.170590 776.427002
377 0 1 11.252330 9.102120 777.354004
378 0 1 11.399930 8.887134 778.271973
379 0 1 11.770741 8.714851 779.146973
380 0 1 11.984460 8.633529 780.085999
381 0 1 12.178761 8.950255 780.983032
382 0 1 12.350770 9.225440 781.865967
383 0 1 12.272940 9.759820 782.792969
384 0 1 12.195630 10.318069 783.567993
385 0 1 12.146030 10.922970 784.328979
386 0 1 12.089420 11.331340 785.179016
387 0 1 11.875840 11.711250 786.036011
388 0 1 11.551150 12.000000 786.916992
389 0 1 11.513540 12.116199 787.880005
390 0 1 11.414770 11.773760 788.789978
391 0 1 11.631030 11.466740 789.757996
392 0 1 11.691260 11.319600 790.770020
393 0 1 11.697800 11.349040 791.765991
394 0 1 11.605289 11.636140 792.703003
395 0 1 11.188330 11.876900 793.552979
396 0 1 10.894140 12.068830 794.483032
397 0 1 10.635380 12.287800 795.338989
398 0 1 10.532150 12.536221 796.229004
399 0 1 10.428690 12.713060 797.151978
400 0 1 10.136240 12.991880 798.083008
401 0 1 9.700490 13.309410 798.905029
402 0 1 9.546860 13.589090 799.870972
403 0 1 9.584330 13.719160 800.776001
404 0 1 9.383039 13.641310 801.728027
405 0 1 9.228850 13.617100 802.761963
406 0 1 8.935067 13.387470 803.643982
407 0 1 8.891045 13.259029 804.606995
408 0 1 8.940431 13.283490 805.583008
409 0 1 9.086670 13.050830 806.554993
410 0 1 9.179970 12.837500 807.551025
411 0 1 9.343810 12.621349 808.497009
412 0 1 9.538470 12.534470 809.427002
413 0 1 9.546110 12.341440 810.341003
414 0 1 9.472919 12.172461 811.343994
415 0 1 9.398980 12.036610 812.330994
416 0 1 9.247470 11.967440 813.317017
417 0 1 8.814486 11.762360 814.146973
418 0 1 8.095824 11.521500 814.739990
419 0 1 7.549564 11.079280 815.285034
420 0 1 7.276106 10.358390 815.828979
421 0 1 7.054568 9.612780 816.460022
422 0 1 6.880810 9.028270 817.145020
423 0 1 6.948760 8.229319 817.661987
424 0 1 6.816640 7.391432 818.229980
425 0 1 7.174137 6.525670 818.604980
426 0 1 7.539327 5.785260 819.188965
427 0 1 7.565575 4.898700 819.567993
428 0 1 7.584527 3.980960 820.018982
429 0 1 7.790880 3.216440 820.563965
430 0 1 8.025167 2.784900 821.452026
431 0 1 8.248665 2.580850 822.364014
432 0 1 8.254232 2.216610 823.285034
433 0 1 8.303201 2.069030 824.221008
434 0 1 8.500453 2.135030 825.171997
435 0 1 8.448798 2.169550 826.132996
436 0 1 8.190058 2.402710 827.067993
437 0 1 7.889749 2.515400 827.981995
438 0 1 7.499786 2.465130 828.893982
439 0 1 7.249356 2.476330 829.820007
440 0 1 7.069185 2.445960 830.755005
441 0 1 6.847510 2.487890 831.739014
442 0 1 6.538180 2.692940 832.546021
443 0 1 6.081860 3.111030 833.313965
444 0 1 5.903510 3.579700 834.145020
445 0 1 5.793390 4.398240 834.679993
446 0 1 5.684920 5.281390 835.023010
447 0 1 5.640320 6.222140 835.289001
448 0 1 5.804080 7.087773 835.674988
449 0 1 6.481000 7.777237 835.994019
450 0 1 7.074812 8.520613 836.291016
451 0 1 7.584315 9.428180 836.299988
452 0 1 7.838632 10.297720 836.088989
453 0 1 8.351689 11.055799 835.838989
454 0 1 8.678930 11.807020 835.291992
455 0 1 9.243930 12.165080 834.568970
456 0 1 9.650750 12.438960 833.778015
457 0 1 10.269210 12.314370 833.075989
458 0 1 10.929240 11.868629 832.494019
459 0 1 11.576120 11.467360 831.869995
460 0 1 12.029190 11.307820 830.927979
461 0 1 12.422410 10.832990 830.176025
462 0 1 12.677959 10.501590 829.320007
463 0 1 12.522690 10.303350 828.398010
464 0 1 12.211880 9.827971 827.596008
465 0 1 12.322720 9.206230 826.843994
466 0 1 12.000031 8.623617 826.062988
467 0 1 11.695210 8.029453 825.375000
468 0 1 11.584690 7.339392 824.681030
469 0 1 11.671659 6.660560 824.065002
470 0 1 11.932010 6.190810 823.242004
471 0 1 12.313971 5.813210 822.375977
472 0 1 12.722520 5.410740 821.653992
473 0 1 12.967890 5.353530 820.664978
474 0 1 12.979280 5.563890 819.684021
475 0 1 13.081150 5.659980 818.686035
476 0 1 12.920710 5.778400 817.778992
477 0 1 12.837460 6.085340 816.886963
478 0 1 12.949591 6.471610 816.030029
479 0 1 13.002020 6.907330 815.122986
480 0 1 13.245150 6.956840 814.174988
481 0 1 13.412360 7.100710 813.233032
482 0 1 13.308960 7.442297 812.292969
483 0 1 13.640369 7.764659 811.445984
484 0 1 14.020189 8.094889 810.635986
485 0 1 14.276590 8.447845 809.778992
486 0 1 14.428310 8.845573 808.877991
487 0 1 14.464230 9.253210 807.981018
488 0 1 14.049320 9.462350 807.063965
489 0 1 13.564250 9.696340 806.281006
490 0 1 13.261570 9.744410 805.341003
491 0 1 12.674250 9.768610 804.464966
492 0 1 11.914900 9.951210 803.867004
493 0 1 11.399139 10.046750 803.072998
494 0 1 10.754880 10.126560 802.382019
495 0 1 10.089160 10.266490 801.598022
496 0 1 9.318520 10.318140 801.039001
497 0 1 8.470024 10.209800 800.630005
498 0 1 7.551534 9.792720 800.718018
499 0 1 6.589270 9.696930 800.492004
500 0 1 5.677400 9.463310 800.304993
501 0 1 4.734890 9.205630 800.059998
502 0 1 3.967680 8.802759 799.518005
503 0 1 3.328060 8.423385 798.924011
504 0 1 2.725390 7.877392 798.328003
505 0 1 2.516550 7.321261 797.593994
506 0 1 2.230130 6.729500 796.818970
507 0 1 2.017370 6.227300 795.984009
508 0 1 1.908160 5.814400 795.044006
509 0 1 1.824900 5.562270 794.132996
510 0 1 2.050550 5.464110 793.177002
511 0 1 2.295850 5.447410 792.213989
512 0 1 2.727640 5.411590 791.380981
513 0 1 2.964460 5.547070 790.535034
514 0 1 3.093950 5.910070 789.604980
515 0 1 3.218310 6.102780 788.692993
516 0 1 3.188510 6.592540 787.893982
517 0 1 2.755260 7.175532 787.306030
518 0 1 2.541770 7.684624 786.471008
519 0 1 2.398990 8.185444 785.669006
520 0 1 2.686270 8.522870 784.856018
521 0 1 2.994830 8.622016 783.966980
522 0 1 3.059170 8.940482 783.046997
523 0 1 2.922240 9.139350 782.148987
524 0 1 2.860990 9.341330 781.239014
525 0 1 2.831500 9.639440 780.313965
526 0 1 3.087150 9.329850 779.388000
527 0 1 3.557420 8.808108 778.703003
528 0 1 4.060790 8.264842 778.099976
529 0 1 4.714770 7.839134 777.457031
530 0 1 5.293610 7.349760 776.858032
531 0 1 5.998250 6.776140 776.307007
532 0 1 6.336890 6.160580 775.546997
533 0 1 6.463810 5.829710 774.671021
534 0 1 6.570920 5.519700 773.744995
535 0 1 6.712390 5.730120 772.863037
536 0 1 6.779520 6.078840 771.952026
537 0 1 6.567390 6.655720 771.212036
538 0 1 6.582730 7.207144 770.405029
539 0 1 6.495900 7.747656 769.630005
540 0 1 6.526850 7.955387 768.690979
541 0 1 6.737220 8.208550 767.835999
542 0 1 7.087779 8.492694 766.950012
543 0 1 7.259369 8.689745 766.062012
544 0 1 7.288515 8.698738 765.091003
545 0 1 7.279180 8.807694 764.143982
546 0 1 7.448880 8.923748 763.212036
547 0 1 7.752896 9.091180 762.312988
548 0 1 7.970641 9.425150 761.442017
549 0 1 7.785723 9.476410 760.528015
550 0 1 7.636638 8.919873 759.773987
551 0 1 7.413747 8.550812 758.919983
552 0 1 7.146079 8.247738 758.018982
553 0 1 6.737710 7.921885 757.167969
554 0 1 6.750080 7.810975 756.263977
555 0 1 6.464960 7.962492 755.385010
556 0 1 6.104140 7.880561 754.457031
557 0 1 5.594360 7.668660 753.667969
558 0 1 5.060070 7.629580 752.851990
559 0 1 4.802300 7.927220 751.969971
560 0 1 4.747970 8.495877 751.245972
561 0 1 4.630990 9.099000 750.478027
562 0 1 4.519420 9.315710 749.556030
563 0 1 4.722560 9.571880 748.624023
564 0 1 4.547130 9.544380 747.619995
565 0 1 4.328590 9.574390 746.702026
566 0 1 4.360290 9.979400 745.885986
567 0 1 4.495260 10.353800 744.961975
568 0 1 4.758420 10.620359 744.125000
569 0 1 5.388570 11.000480 743.464966
570 0 1 6.060880 11.417540 742.760010
571 0 1 6.277540 11.736290 741.882019
572 0 1 6.806880 11.878820 740.981995
573 0 1 7.278507 12.047160 740.078003
574 0 1 7.382089 12.127570 739.151978
575 0 1 7.720271 12.206810 738.278992
576 0 1 8.162173 12.310340 737.437988
577 0 1 8.697364 12.302790 736.697021
578 0 1 9.183490 12.335640 735.848999
579 0 1 9.657550 12.123240 735.010986
580 0 1 9.831830 12.014420 734.070007
581 0 1 10.210100 11.688960 733.219971
582 0 1 10.284420 11.151830 732.380005
583 0 1 10.723800 10.872860 731.557983
584 0 1 10.963590 10.782210 730.640991
585 0 1 10.901230 10.558090 729.677979
586 0 1 10.521330 10.399110 728.804993
587 0 1 10.359529 10.414730 727.825012
588 0 1 10.163810 10.520140 726.921814
589 0 1 9.849910 10.535310 726.003601
590 0 1 9.405800 10.756060 725.209778
591 0 1 8.958455 11.303520 724.516968
592 0 1 8.531199 11.664930 723.702393
593 0 1 8.039557 11.838881 722.866394
594 0 1 7.500038 11.847360 722.050476
595 0 1 6.824030 11.572950 721.434692
596 0 1 6.278240 11.161090 720.777893
597 0 1 5.734680 10.763550 720.113098
598 0 1 5.397080 10.520020 719.274902
599 0 1 4.876280 10.095620 718.504395
600 0 1 4.343280 9.612080 717.830688
601 0 1 3.982530 8.992425 717.137878
602 0 1 3.685650 8.552941 716.372498
603 0 1 3.291640 7.868316 715.706299
604 0 1 2.896450 7.367917 714.979370
605 0 1 2.630570 6.714630 714.296082
606 0 1 2.611240 6.052920 713.610229
607 0 1 2.985390 5.645810 712.857605
608 0 1 3.551500 5.343860 712.118408
609 0 1 4.054540 4.824070 711.488525
610 0 1 4.513620 4.415710 710.639099
611 0 1 4.720240 4.090230 709.754089
612 0 1 5.034730 3.974150 708.862305
613 0 1 5.502150 4.112660 708.020813
614 0 1 5.878650 4.299720 707.145081
615 0 1 6.181600 4.422230 706.206909
616 0 1 6.278610 4.674140 705.276306
617 0 1 6.453510 4.961760 704.377075
618 0 1 6.439870 5.103120 703.462097
619 0 1 6.481990 5.264400 702.531128
620 0 1 6.234780 5.159670 701.671631
621 0 1 6.104000 5.116450 700.700989
622 0 1 6.125180 5.094220 699.731934
623 0 1 6.483900 4.907040 698.845276
624 0 1 7.117903 4.593020 698.162292
625 0 1 7.843909 4.128500 697.614624
626 0 1 8.336184 3.788090 696.847778
627 0 1 8.639695 3.330430 696.020386
628 0 1 8.999899 2.785350 695.368591
629 0 1 9.232040 2.511730 694.496094
630 0 1 9.112730 2.400510 693.577881
631 0 1 9.296080 2.269140 692.607483
632 0 1 9.719740 2.009280 691.778625
633 0 1 9.861590 2.025380 690.820190
634 0 1 10.076550 2.076270 689.845215
635 0 1 10.219370 2.317930 688.756226
636 0 1 10.207920 2.354460 687.817505
637 0 1 10.140830 2.731880 686.901001
638 0 1 9.918820 2.927050 685.945679
639 0 1 9.852950 3.245470 685.001099
640 0 1 9.925120 3.619480 684.093994
641 0 1 10.000140 4.271320 683.412231
642 0 1 10.097270 4.644730 682.547791
643 0 1 10.000080 5.030300 681.707214
644 0 1 9.834490 5.689900 680.941284
645 0 1 9.568310 6.153830 680.158508
646 0 1 9.341150 6.583390 679.350891
647 0 1 8.809901 6.875030 678.608887
648 0 1 8.703614 7.028649 677.620728
649 0 1 8.695942 7.299694 676.667114
650 0 1 8.553685 7.356296 675.713928
651 0 1 8.587917 7.461967 674.819092
652 0 1 8.665929 7.248508 673.865784
653 0 1 8.583732 6.786140 672.961487
654 0 1 8.911275 6.176820 672.298706
655 0 1 9.182600 5.522050 671.601685
656 0 1 9.445630 5.165470 670.777100
657 0 1 9.328070 5.014330 669.871826
658 0 1 9.183710 4.636010 668.923584
659 0 1 9.303761 4.266650 668.051575
660 0 1 9.498970 4.165390 667.107788
661 0 1 9.564050 4.225420 666.194580
662 0 1 9.446080 4.163850 665.185608
663 0 1 9.411390 4.406300 664.246826
664 0 1 9.166430 4.801880 663.403198
665 0 1 9.291310 5.369250 662.691711
666 0 1 9.467740 5.790190 661.855408
667 0 1 9.711570 5.695570 660.908875
668 0 1 9.915390 5.398950 660.058777
669 0 1 10.132010 5.541380 659.138611
670 0 1 10.074080 5.613540 658.153076
671 0 1 9.847730 5.623880 657.254700
672 0 1 9.729720 5.267260 656.394592
673 0 1 9.357650 5.186810 655.556396
674 0 1 8.915146 5.211390 654.688416
675 0 1 8.386602 5.367780 653.936279
676 0 1 7.782808 5.523040 653.299377
677 0 1 7.188307 6.082200 652.640503
678 0 1 6.672400 6.384900 651.933411
679 0 1 6.142120 6.758220 651.299927
680 0 1 5.707090 6.972670 650.559570
681 0 1 5.452550 7.318209 649.661987
682 0 1 5.340260 7.280570 648.706604
683 0 1 5.043340 7.239969 647.762878
684 0 1 4.822880 7.529148 646.765808
685 0 1 4.720830 7.892883 645.878723
686 0 1 4.224920 8.239152 645.102905
687 0 1 3.882220 8.452144 644.175598
688 0 1 3.404660 8.680581 643.329773
689 0 1 3.277190 8.590948 642.376221
690 0 1 3.278170 8.701124 641.406799
691 0 1 3.048250 9.085510 640.488403
692 0 1 3.130870 9.288390 639.496704
693 0 1 3.314050 9.224080 638.512390
694 0 1 3.297140 8.795726 637.659424
695 0 1 3.418610 8.494911 636.733704
696 0 1 3.452340 8.043601 635.909607
697 0 1 3.330090 7.350920 635.308716
698 0 1 3.380750 6.824660 634.491943
699 0 1 3.552010 6.225200 633.711060
700 0 1 3.844420 5.786300 632.871277
701 0 1 3.947620 5.314880 631.992981
702 0 1 3.868450 4.909160 631.082031
703 0 1 3.869490 4.941440 630.157532
704 0 1 4.111780 4.844290 629.247070
705 0 1 4.244790 4.775780 628.344971
706 0 1 4.537110 4.760980 627.442932
707 0 1 4.907190 4.809700 626.523376
708 0 1 4.912230 4.607450 625.579346
709 0 1 5.103410 4.515500 624.643372
710 0 1 5.437410 4.620140 623.743469
711 0 1 6.028360 4.791730 622.942688
712 0 1 6.219720 4.831530 621.968933
713 0 1 6.288890 5.196990 621.098755
714 0 1 6.475330 5.297650 620.165649
715 0 1 6.672650 5.141730 619.185608
716 0 1 6.552430 5.140000 618.127991
717 0 1 6.400910 5.225530 617.133301
718 0 1 6.386650 5.676060 616.290588
719 0 1 6.025030 6.229520 615.643982
720 0 1 5.442440 6.684960 615.071716
721 0 1 5.058240 7.350339 614.487610
722 0 1 4.575850 8.113361 614.204590
723 0 1 4.187940 8.902397 613.884583
724 0 1 3.695380 9.541290 613.335205
725 0 1 3.625450 10.439250 612.986084
726 0 1 3.372790 10.991190 612.274475
727 0 1 3.057650 11.120831 611.425415
728 0 1 3.038530 11.333210 610.496094
729 0 1 3.032090 11.597400 609.558289
730 0 1 3.078720 11.590500 608.572388
731 0 1 3.121860 11.403900 607.546387
732 0 1 3.001080 11.093310 606.621704
733 0 1 2.720960 11.021720 605.656372
734 0 1 2.612380 10.814750 604.723022
735 0 1 2.535540 10.898920 603.752502
736 0 1 2.577430 11.061140 602.793274
737 0 1 2.472200 11.259330 601.905212
738 0 1 2.268100 11.434970 600.982605
739 0 1 2.200180 11.618540 600.062500
740 0 1 2.114340 11.620590 599.083801
741 0 1 2.288270 11.494260 598.135925
742 0 1 2.803960 11.148450 597.412476
743 0 1 3.050290 10.728991 596.524475
744 0 1 3.137820 10.261730 595.637329
745 0 1 3.078050 9.823890 594.720276
746 0 1 3.206480 9.418820 593.855408
747 0 1 3.663570 9.261570 593.046326
748 0 1 4.218450 9.112090 592.303101
749 0 1 4.544330 9.158540 591.369873
750 0 1 4.631490 9.553050 590.435913
751 0 1 4.852880 9.848430 589.553101
752 0 1 5.149250 10.339211 588.749512
753 0 1 5.284300 10.686230 587.927368
754 0 1 5.154180 11.064220 586.976013
755 0 1 5.244520 11.438910 586.089783
756 0 1 5.379410 11.562790 585.085022
757 0 1 5.594770 11.734080 584.026489
758 0 1 5.717510 12.092170 583.136719
759 0 1 5.983860 12.391060 582.281189
760 0 1 6.394360 12.716351 581.459473
761 0 1 6.724260 13.110340 580.606079
762 0 1 7.228028 13.244511 579.746216
763 0 1 7.693367 13.091539 578.914307
764 0 1 8.156821 12.774469 578.120605
765 0 1 8.786686 12.455100 577.446594
766 0 1 9.301740 12.065149 576.782715
767 0 1 9.846460 11.877090 575.926392
768 0 1 10.290480 11.468170 575.141113
769 0 1 10.571430 11.189260 574.239014
770 0 1 10.801120 10.980810 573.367920
771 0 1 11.187740 10.929820 572.510803
772 0 1 11.390000 10.647200 571.559814
773 0 1 11.356820 10.240740 570.681091
774 0 1 11.084270 9.797400 569.875916
775 0 1 10.845350 9.743000 568.954468
776 0 1 10.431010 9.695510 568.106201
777 0 1 10.473800 9.459790 567.219116
778 0 1 10.455070 9.331230 566.280029
779 0 1 10.681700 9.248130 565.392090
780 0 1 10.569370 8.870821 564.436523
781 0 1 10.675450 8.825772 563.467896
782 0 1 10.765150 8.546013 562.564026
783 0 1 10.876090 8.104224 561.733276
784 0 1 10.911221 7.857078 560.790527
785 0 1 10.914820 7.663848 559.841003
786 0 1 11.040040 7.369846 558.941101
787 0 1 11.078310 7.153193 558.020203
788 0 1 11.065090 6.474760 557.362305
789 0 1 11.330510 5.941710 556.570679