LAMMPS data file via MDAnalysis

        1000  atoms
        1000  bonds
        1000  angles
           0  dihedrals
           0  impropers

           1  atom types
           1  bond types
           1  angle types
           0  dihedral types
           0  improper types

0.000000 16.000000 xlo xhi
0.000000 16.000000 ylo yhi
0.000000 1257.000000 zlo zhi


Masses

1 1.000000

Atoms

1 0 1 10.433850 3.479490 451.462006
2 0 1 10.320030 3.164880 452.388000
3 0 1 9.816300 3.075370 453.244995
4 0 1 9.346581 3.032030 454.067017
5 0 1 9.117770 3.005800 454.958008
6 0 1 8.828525 2.943610 455.858002
7 0 1 8.474694 3.019850 456.778992
8 0 1 8.064598 2.870970 457.636993
9 0 1 7.652466 2.713250 458.515015
10 0 1 7.352039 2.669880 459.410004
11 0 1 6.974340 2.670350 460.302979
12 0 1 6.734140 3.051760 461.158020
13 0 1 6.380900 3.251020 462.015015
14 0 1 6.028040 3.450270 462.937012
15 0 1 5.444400 3.703920 463.647003
16 0 1 4.988020 3.760750 464.464996
17 0 1 4.421730 3.831620 465.252991
18 0 1 3.984010 3.683550 466.140991
19 0 1 3.482700 3.691130 466.994019
20 0 1 3.472700 3.863330 467.940002
21 0 1 3.698840 3.806020 468.826996
22 0 1 3.668150 3.795490 469.800995
23 0 1 3.590770 3.673110 470.812988
24 0 1 3.662420 3.581990 471.760010
25 0 1 3.971260 3.645330 472.682007
26 0 1 4.132520 3.789530 473.604004
27 0 1 4.267160 3.727690 474.524994
28 0 1 4.733910 3.885790 475.279999
29 0 1 5.322530 4.030900 476.050995
30 0 1 5.658050 4.301770 476.910004
31 0 1 6.214120 4.342980 477.690002
32 0 1 6.574400 4.400240 478.630005
33 0 1 7.114382 4.679430 479.411011
34 0 1 7.704730 5.139330 479.984985
35 0 1 8.139782 5.735150 480.660004
36 0 1 8.173673 6.164220 481.497986
37 0 1 8.239680 6.290400 482.399994
38 0 1 8.382194 6.541640 483.401978
39 0 1 8.569618 7.080283 484.257019
40 0 1 8.935481 7.460500 485.075989
41 0 1 8.999922 7.811171 486.009003
42 0 1 9.397380 8.098549 486.799988
43 0 1 9.593560 8.204934 487.731995
44 0 1 9.863410 8.263873 488.682007
45 0 1 9.988720 8.392663 489.651001
46 0 1 9.780820 8.381735 490.601990
47 0 1 9.715890 8.557646 491.552002
48 0 1 9.616840 8.864352 492.515015
49 0 1 9.498400 8.984645 493.471008
50 0 1 9.385240 8.832636 494.388000
51 0 1 9.312950 8.596536 495.339996
52 0 1 9.091410 8.462758 496.312012
53 0 1 8.668310 8.385706 497.246002
54 0 1 8.400237 8.343144 498.164001
55 0 1 8.123665 8.212717 499.174011
56 0 1 8.196531 7.945058 500.104980
57 0 1 8.068987 7.605173 501.015015
58 0 1 8.009234 7.381703 501.947998
59 0 1 8.032800 7.435616 502.906006
60 0 1 8.236968 7.386514 503.867981
61 0 1 8.231815 7.201398 504.778015
62 0 1 8.189527 6.984860 505.755981
63 0 1 7.963346 6.497530 506.601013
64 0 1 8.083208 5.722520 507.351013
65 0 1 7.742608 5.172920 508.114014
66 0 1 7.296850 4.898590 508.972992
67 0 1 6.708800 4.695070 509.705017
68 0 1 6.027320 4.777480 510.354004
69 0 1 5.366790 4.943730 511.018005
70 0 1 4.875290 5.264170 511.799988
71 0 1 4.391980 5.667400 512.528015
72 0 1 3.861320 6.076890 513.179016
73 0 1 3.242340 6.479510 513.807007
74 0 1 2.720600 6.593090 514.554016
75 0 1 2.433400 6.771520 515.421997
76 0 1 2.067150 6.917370 516.318970
77 0 1 1.737940 6.977120 517.240967
78 0 1 1.856080 7.054599 518.156982
79 0 1 1.904250 6.986420 519.137024
80 0 1 2.030080 6.598290 519.989990
81 0 1 2.488980 6.173090 520.763000
82 0 1 3.125880 5.670940 521.310974
83 0 1 4.016110 5.390710 521.681030
84 0 1 4.679610 4.924100 522.033997
85 0 1 5.362530 4.495910 522.608032
86 0 1 6.056400 4.127760 523.242981
87 0 1 6.551420 3.704820 524.002991
88 0 1 6.928900 3.353350 524.794983
89 0 1 7.258456 3.315530 525.710999
90 0 1 7.686493 3.572350 526.583984
91 0 1 7.902669 4.063030 527.401001
92 0 1 8.171285 4.665100 528.174988
93 0 1 8.445758 4.823570 529.032715
94 0 1 8.380287 4.970460 529.933228
95 0 1 8.529006 5.319760 530.790100
96 0 1 8.663980 5.916450 531.557007
97 0 1 8.728153 6.454060 532.293274
98 0 1 8.937221 6.783750 533.111572
99 0 1 9.179840 7.162952 533.933594
100 0 1 9.316710 7.754904 534.630310
101 0 1 9.672800 8.161509 535.466187
102 0 1 9.874331 8.281797 536.371399
103 0 1 10.040421 8.613501 537.245300
104 0 1 10.139580 8.867672 538.237610
105 0 1 10.187980 9.307850 539.067688
106 0 1 10.168980 9.764250 539.960815
107 0 1 9.832300 9.961330 540.860474
108 0 1 9.474420 10.377220 541.656128
109 0 1 9.017400 10.938470 542.321533
110 0 1 8.640083 11.332300 543.186584
111 0 1 8.642579 11.563650 544.072693
112 0 1 8.682571 11.494990 545.011719
113 0 1 8.675720 11.490000 545.962891
114 0 1 8.440641 11.575490 546.904602
115 0 1 8.193112 11.617650 547.848633
116 0 1 8.030694 11.442980 548.773926
117 0 1 7.613601 11.383200 549.637329
118 0 1 7.215566 11.340050 550.510193
119 0 1 6.806830 11.450250 551.374817
120 0 1 6.442490 11.334500 552.299805
121 0 1 5.907720 11.348820 553.126099
122 0 1 5.363610 11.045810 553.932373
123 0 1 5.065070 10.549740 554.702209
124 0 1 4.622480 10.330060 555.502319
125 0 1 4.446570 10.374260 556.449890
126 0 1 4.341850 10.435670 557.423706
127 0 1 4.475410 10.562400 558.312317
128 0 1 4.874610 10.575590 559.180786
129 0 1 5.044350 10.530930 560.168701
130 0 1 5.140570 10.572720 561.105225
131 0 1 5.177070 10.609550 562.047302
132 0 1 5.362130 10.583241 562.977783
133 0 1 5.508160 10.682340 563.976807
134 0 1 5.942910 10.671250 564.918091
135 0 1 5.981950 10.289230 565.856018
136 0 1 5.999870 9.865140 566.794373
137 0 1 5.991720 9.440720 567.655273
138 0 1 5.901380 8.880926 568.447510
139 0 1 5.472200 8.476364 569.175110
140 0 1 5.228860 8.330749 570.067505
141 0 1 4.685420 8.181012 570.941772
142 0 1 4.329140 8.216078 571.947998
143 0 1 3.940240 8.396718 572.743286
144 0 1 3.310120 8.755199 573.379272
145 0 1 2.963960 9.195530 574.172791
146 0 1 2.627470 9.446360 575.003113
147 0 1 2.492060 9.849920 575.814819
148 0 1 2.398250 10.181530 576.745728
149 0 1 2.498800 10.340760 577.721619
150 0 1 2.759760 10.303980 578.697510
151 0 1 2.947330 10.419180 579.627991
152 0 1 3.284470 10.463670 580.616699
153 0 1 3.359570 10.367540 581.562927
154 0 1 3.281180 10.517360 582.489990
155 0 1 3.186980 10.837550 583.484497
156 0 1 2.971010 11.047970 584.376282
157 0 1 2.700580 11.016780 585.339111
158 0 1 2.570170 10.961480 586.349915
159 0 1 2.699080 10.837510 587.293518
160 0 1 2.979420 10.667089 588.170898
161 0 1 3.470890 10.318250 589.004211
162 0 1 3.855980 9.861780 589.755676
163 0 1 4.226730 9.282000 590.597168
164 0 1 4.571990 8.948663 591.438232
165 0 1 5.089370 8.564231 592.153992
166 0 1 5.671610 8.001095 592.675781
167 0 1 6.252650 7.764657 593.345703
168 0 1 6.964540 7.387725 593.851013
169 0 1 7.313076 7.212696 594.718201
170 0 1 7.560704 6.993030 595.645386
171 0 1 7.432202 6.800030 596.606689
172 0 1 7.435009 6.541830 597.555908
173 0 1 7.228878 5.982250 598.340698
174 0 1 7.387442 5.423050 599.096497
175 0 1 7.671545 4.786760 599.769226
176 0 1 7.854017 4.418290 600.638306
177 0 1 8.193399 4.098290 601.424072
178 0 1 8.685318 3.748800 602.257385
179 0 1 9.346620 3.687630 603.028992
180 0 1 9.702120 3.426480 603.892212
181 0 1 9.827700 3.536380 604.896790
182 0 1 9.779660 3.540620 605.828491
183 0 1 9.747100 3.436440 606.786621
184 0 1 9.723260 3.102810 607.704224
185 0 1 9.654870 3.069350 608.654907
186 0 1 9.609600 3.195350 609.605713
187 0 1 9.244290 3.569310 610.436890
188 0 1 8.747991 3.849090 611.230774
189 0 1 8.680739 4.285280 612.111694
190 0 1 8.478241 4.765020 612.887817
191 0 1 8.492138 5.168790 613.763000
192 0 1 8.783017 5.539360 614.605225
193 0 1 9.008580 5.783250 615.510315
194 0 1 9.226860 5.996500 616.451172
195 0 1 9.381260 6.288380 617.336975
196 0 1 9.888910 6.857280 617.900879
197 0 1 10.335640 7.187964 618.753479
198 0 1 10.361600 7.610613 619.604553
199 0 1 10.379350 7.783767 620.520630
200 0 1 10.546350 7.996689 621.445618
201 0 1 10.644930 8.313733 622.365112
202 0 1 10.906510 8.506165 623.303833
203 0 1 11.321290 8.567028 624.237671
204 0 1 11.661610 8.687249 625.211426
205 0 1 11.904210 8.861614 626.121094
206 0 1 11.703110 9.168410 627.001038
207 0 1 11.703740 9.409120 627.922241
208 0 1 11.670259 9.815660 628.831360
209 0 1 11.510260 10.058820 629.752380
210 0 1 11.792660 9.958030 630.680847
211 0 1 12.173090 9.936600 631.578979
212 0 1 12.498960 10.036630 632.479980
213 0 1 12.394950 9.830050 633.427246
214 0 1 11.985180 9.606920 634.293152
215 0 1 11.289630 9.552860 635.008789
216 0 1 10.847680 9.576400 635.866333
217 0 1 10.676291 9.794410 636.774597
218 0 1 10.793180 9.808580 637.665588
219 0 1 10.550780 9.707830 638.560425
220 0 1 10.447300 9.758560 639.516418
221 0 1 10.412550 9.907540 640.496582
222 0 1 10.745220 9.877470 641.465576
223 0 1 11.302290 9.841170 642.226990
224 0 1 11.743250 9.953430 643.118591
225 0 1 12.030640 9.847560 644.043518
226 0 1 12.124030 9.684660 645.005981
227 0 1 11.951820 9.640290 645.989624
228 0 1 11.837240 9.697570 646.965393
229 0 1 11.689000 9.702570 647.928528
230 0 1 11.333490 9.709140 648.817078
231 0 1 11.132280 9.928140 649.730713
232 0 1 10.909810 10.103889 650.655029
233 0 1 10.829770 10.480540 651.467773
234 0 1 10.845430 10.981840 652.270203
235 0 1 10.582900 11.125620 653.183594
236 0 1 10.166870 11.434840 653.972290
237 0 1 9.623960 11.569201 654.754822
238 0 1 9.066270 11.547640 655.538879
239 0 1 8.767126 11.405880 656.439087
240 0 1 8.415048 11.367470 657.372803
241 0 1 8.309131 11.209300 658.306030
242 0 1 8.238380 11.239290 659.222107
243 0 1 8.268479 11.425980 660.155212
244 0 1 8.141123 11.531260 661.094604
245 0 1 8.058504 11.698130 662.056702
246 0 1 7.858839 11.653230 663.002686
247 0 1 7.686691 11.514920 663.889893
248 0 1 7.365614 11.634600 664.828613
249 0 1 7.332774 11.909330 665.713318
250 0 1 7.390373 11.934760 666.650085
251 0 1 7.682906 11.792530 667.540405
252 0 1 8.079147 11.391160 668.350830
253 0 1 8.513140 11.381910 669.238892
254 0 1 8.893589 11.472460 670.208618
255 0 1 9.332580 11.702620 671.023926
256 0 1 9.722780 11.808160 671.907410
257 0 1 10.017920 11.697309 672.875305
258 0 1 10.152719 11.667980 673.866211
259 0 1 10.522810 11.757339 674.760986
260 0 1 10.661660 12.298759 675.573914
261 0 1 10.686520 12.310530 676.583923
262 0 1 10.946120 12.607000 677.507996
263 0 1 11.199220 12.757200 678.383179
264 0 1 11.413100 12.536591 679.337891
265 0 1 11.813710 12.280479 680.151978
266 0 1 12.031321 11.975349 680.957886
267 0 1 11.998970 11.893940 681.897400
268 0 1 11.911380 11.883730 682.849792
269 0 1 11.804070 11.966760 683.856689
270 0 1 11.430320 11.907030 684.769592
271 0 1 11.099450 11.879230 685.662598
272 0 1 10.705890 11.479110 686.521423
273 0 1 10.279819 11.230950 687.322632
274 0 1 9.600710 11.189790 688.099426
275 0 1 8.927042 11.311450 688.717773
276 0 1 8.529451 11.208839 689.551514
277 0 1 8.416445 11.205730 690.504395
278 0 1 8.285514 11.578210 691.422485
279 0 1 8.385688 11.843390 692.337524
280 0 1 8.204646 12.488800 693.047302
281 0 1 8.277574 12.744551 693.987000
282 0 1 8.106040 12.904950 694.974792
283 0 1 7.936985 13.090401 695.926514
284 0 1 7.591027 13.221710 696.768005
285 0 1 7.620625 13.447750 697.725830
286 0 1 7.468973 13.200940 698.586426
287 0 1 7.580615 12.801980 699.461975
288 0 1 7.639952 12.549770 700.362488
289 0 1 7.872421 12.470110 701.315308
290 0 1 8.120991 12.324080 702.327698
291 0 1 8.153838 12.275920 703.310486
292 0 1 8.207490 12.130330 704.266174
293 0 1 8.497363 11.767490 705.146912
294 0 1 8.800052 11.982780 705.969910
295 0 1 9.373700 12.271720 706.738708
296 0 1 9.864750 12.462570 707.510193
297 0 1 10.417330 12.641211 708.289429
298 0 1 11.062450 12.972820 708.854797
299 0 1 11.725960 13.199230 709.562805
300 0 1 12.427219 13.044950 710.239014
301 0 1 12.915860 12.794270 711.009583
302 0 1 13.134710 12.365049 711.835022
303 0 1 13.289260 11.778370 712.578003
304 0 1 13.604080 10.989630 713.085083
305 0 1 13.706540 10.173450 713.632019
306 0 1 14.056311 9.439880 714.100830
307 0 1 14.501410 8.702443 714.437622
308 0 1 14.734330 7.950053 714.996521
309 0 1 14.700350 7.366723 715.766724
310 0 1 14.643690 6.681300 716.439209
311 0 1 14.505970 5.982310 717.119385
312 0 1 14.217410 5.284710 717.841003
313 0 1 13.943630 4.535830 718.485596
314 0 1 13.571280 4.006380 719.185913
315 0 1 13.161699 3.685280 719.957275
316 0 1 12.647961 3.368990 720.718506
317 0 1 12.070089 3.121330 721.508667
318 0 1 11.873930 3.086730 722.473877
319 0 1 11.717640 3.236750 723.385681
320 0 1 11.754450 3.430080 724.346985
321 0 1 11.755180 3.768580 725.299500
322 0 1 12.064520 3.996720 726.171875
323 0 1 12.431330 4.420990 726.999878
324 0 1 12.719880 5.008850 727.674683
325 0 1 12.581320 5.716350 728.479919
326 0 1 12.530390 6.533610 729.062988
327 0 1 12.410450 7.398965 729.453979
328 0 1 12.493879 8.277427 729.882019
329 0 1 12.639210 9.099370 730.388977
330 0 1 12.780740 9.861070 730.935974
331 0 1 12.881821 10.499200 731.638000
332 0 1 12.518740 11.400750 732.028992
333 0 1 12.151470 11.942960 732.729980
334 0 1 11.790880 12.535610 733.335022
335 0 1 11.273050 13.122789 733.995972
336 0 1 10.869280 13.437170 734.807007
337 0 1 10.286990 13.457630 735.583008
338 0 1 9.657420 13.235140 736.323975
339 0 1 8.965227 13.003080 736.976990
340 0 1 8.526844 12.813110 737.812012
341 0 1 8.186173 12.639980 738.711975
342 0 1 7.738709 12.612680 739.554993
343 0 1 7.179206 12.801280 740.322998
344 0 1 6.701060 12.858290 741.177002
345 0 1 6.091970 12.538630 741.858032
346 0 1 5.479100 12.091510 742.513977
347 0 1 5.018300 11.705320 743.242981
348 0 1 4.986860 11.313290 744.070984
349 0 1 4.981820 10.796021 744.890991
350 0 1 4.916270 10.346519 745.731995
351 0 1 4.750740 10.042900 746.669006
352 0 1 4.466410 10.009080 747.620972
353 0 1 4.327550 10.222230 748.538025
354 0 1 4.135010 10.248950 749.507996
355 0 1 3.852720 10.173130 750.502014
356 0 1 3.918900 10.280690 751.466980
357 0 1 4.067420 10.374190 752.421021
358 0 1 4.436420 10.259220 753.224976
359 0 1 4.908520 10.257940 754.117981
360 0 1 5.227840 10.019450 755.044983
361 0 1 5.613440 9.923420 755.994019
362 0 1 6.138790 9.459880 756.682007
363 0 1 6.692930 9.228010 757.412964
364 0 1 7.443834 8.811469 757.817993
365 0 1 8.195085 8.370134 758.317993
366 0 1 8.849114 7.998759 758.934998
367 0 1 9.552590 7.777731 759.577026
368 0 1 9.936370 7.658897 760.419006
369 0 1 10.273930 7.963701 761.281006
370 0 1 10.719800 8.237982 762.115967
371 0 1 11.409590 8.603301 762.806030
372 0 1 11.931490 8.781643 763.551025
373 0 1 12.504040 8.910013 764.358032
374 0 1 12.740829 9.056670 765.271973
375 0 1 12.842250 9.436069 766.164001
376 0 1 13.196159 9.828530 766.981995
377 0 1 13.402121 10.180960 767.848022
378 0 1 13.488720 10.486230 768.757019
379 0 1 13.451981 10.760490 769.679993
380 0 1 13.459290 10.886060 770.639038
381 0 1 13.198170 10.654221 771.562012
382 0 1 12.699591 10.350780 772.351013
383 0 1 12.499810 9.969720 773.221008
384 0 1 12.186541 9.519630 774.072021
385 0 1 12.012730 9.205680 775.002991
386 0 1 11.536250 9.180760 775.789978
387 0 1 11.188980 9.351000 776.669983
388 0 1 11.009410 9.533810 777.582031
389 0 1 10.585570 9.830700 778.379028
390 0 1 10.107170 10.027850 779.179016
391 0 1 9.710590 10.405109 780.016968
392 0 1 9.489240 10.621990 780.973999
393 0 1 9.163400 10.603310 781.872009
394 0 1 9.006500 10.804650 782.744019
395 0 1 8.823787 11.021900 783.754028
396 0 1 8.629110 11.137640 784.684021
397 0 1 8.280253 11.316790 785.505981
398 0 1 7.837784 11.123569 786.281006
399 0 1 7.448619 11.188770 787.203003
400 0 1 7.360165 11.316510 788.151978
401 0 1 7.248901 11.526170 789.073975
402 0 1 7.220032 12.092520 789.864990
403 0 1 7.269844 12.651060 790.669006
404 0 1 7.330931 13.136070 791.500000
405 0 1 7.608011 13.228450 792.419006
406 0 1 7.505516 13.005341 793.370972
407 0 1 7.416142 12.623590 794.221008
408 0 1 7.510128 12.127290 795.035034
409 0 1 7.484627 11.904150 795.932983
410 0 1 7.492125 11.783670 796.853027
411 0 1 7.156425 11.443050 797.690002
412 0 1 6.888850 10.937130 798.565002
413 0 1 7.001867 10.451090 799.466003
414 0 1 6.966230 10.206470 800.484985
415 0 1 7.006186 9.508590 801.127991
416 0 1 6.919710 8.801623 801.804993
417 0 1 6.720670 8.147060 802.583984
418 0 1 6.624010 7.538517 803.379028
419 0 1 6.362770 6.898280 804.062012
420 0 1 5.981100 6.541370 804.820984
421 0 1 5.543320 6.636830 805.613037
422 0 1 5.559400 7.112622 806.411987
423 0 1 5.126760 7.464655 807.166992
424 0 1 4.802700 7.628979 808.062012
425 0 1 4.570940 7.874940 808.963989
426 0 1 4.449440 8.110938 809.958008
427 0 1 4.384640 8.109762 810.929993
428 0 1 4.179980 7.768803 811.815979
429 0 1 4.208190 7.543989 812.747986
430 0 1 3.786750 7.238818 813.622009
431 0 1 3.365880 7.024780 814.497009
432 0 1 2.985600 6.884800 815.484009
433 0 1 2.830760 6.429680 816.359009
434 0 1 3.159330 5.880540 817.158997
435 0 1 3.478750 5.414430 817.940002
436 0 1 3.770010 5.058810 818.785034
437 0 1 3.838770 4.805750 819.755981
438 0 1 3.906040 4.529260 820.650024
439 0 1 4.001920 4.051830 821.419006
440 0 1 4.231180 3.741130 822.333008
441 0 1 4.522680 3.331250 823.169006
442 0 1 4.744300 3.132440 824.026978
443 0 1 5.043920 2.671350 824.846008
444 0 1 5.370730 2.222490 825.635986
445 0 1 5.322220 1.966660 826.502014
446 0 1 5.326000 1.762700 827.421997
447 0 1 5.451120 1.559610 828.375977
448 0 1 5.469450 1.736440 829.330017
449 0 1 5.446510 2.164770 830.286011
450 0 1 5.420190 2.780980 830.994995
451 0 1 5.124990 3.532980 831.585999
452 0 1 4.859890 4.349650 832.031982
453 0 1 4.619000 5.233870 832.338013
454 0 1 4.127760 6.108920 832.307007
455 0 1 3.602590 6.936610 832.317017
456 0 1 3.031070 7.649343 831.945007
457 0 1 2.623770 8.038772 831.182983
458 0 1 2.207560 8.426462 830.414001
459 0 1 1.866290 8.462227 829.546997
460 0 1 1.541270 8.448255 828.591980
461 0 1 1.391160 8.553112 827.645020
462 0 1 1.340260 8.461876 826.664978
463 0 1 1.664610 8.181499 825.752991
464 0 1 1.838350 7.903035 824.880981
465 0 1 2.372470 7.841600 824.078979
466 0 1 2.716960 7.770784 823.260986
467 0 1 3.268610 8.055097 822.471985
468 0 1 3.955620 8.220740 821.820007
469 0 1 4.522590 7.995019 820.990967
470 0 1 5.257950 7.947400 820.388000
471 0 1 6.138330 7.827341 819.869995
472 0 1 6.860580 7.830926 819.242981
473 0 1 7.629605 7.921506 818.739990
474 0 1 8.526112 8.097026 818.299011
475 0 1 9.024290 8.143320 817.516968
476 0 1 9.264370 8.134014 816.632996
477 0 1 9.196010 7.914885 815.692017
478 0 1 9.142970 7.859694 814.747986
479 0 1 8.801051 7.552540 813.960022
480 0 1 8.416567 7.288894 813.070984
481 0 1 7.767056 7.123769 812.385010
482 0 1 7.216771 6.989360 811.656982
483 0 1 6.840070 7.032053 810.791016
484 0 1 6.520050 6.806760 809.888000
485 0 1 6.065920 6.442330 809.119019
486 0 1 5.736950 5.973570 808.286011
487 0 1 5.530740 5.696900 807.405029
488 0 1 5.230600 5.551080 806.507019
489 0 1 5.074440 5.448520 805.559021
490 0 1 5.267090 5.349640 804.596008
491 0 1 5.159840 5.319880 803.651001
492 0 1 5.176160 5.384840 802.640991
493 0 1 5.247370 5.107550 801.710022
494 0 1 5.291980 4.795340 800.792969
495 0 1 5.596840 4.589780 799.867004
496 0 1 6.093940 4.549650 799.020020
497 0 1 6.821140 4.654200 798.351990
498 0 1 7.561301 4.863660 797.686035
499 0 1 8.474015 4.988970 797.245972
500 0 1 9.269710 4.894730 796.797974
501 0 1 10.208700 4.802080 796.554993
502 0 1 11.004880 4.829270 796.037964
503 0 1 11.671050 5.102390 795.432983
504 0 1 11.973000 5.500350 794.648010
505 0 1 11.896000 6.087880 793.804993
506 0 1 11.975240 6.423200 792.929993
507 0 1 12.200251 6.831200 792.041016
508 0 1 12.257820 7.310623 791.247009
509 0 1 12.314400 7.644559 790.323975
510 0 1 12.001630 8.284581 789.656982
511 0 1 11.938530 9.026850 789.031982
512 0 1 11.699350 9.878640 788.563965
513 0 1 11.457190 10.757240 788.153015
514 0 1 11.044650 11.480210 787.629028
515 0 1 10.937571 12.250870 787.020996
516 0 1 10.518870 12.753810 786.354980
517 0 1 10.315090 13.190260 785.510986
518 0 1 10.293390 13.406560 784.568970
519 0 1 10.368860 13.284830 783.565002
520 0 1 10.527030 13.058189 782.669006
521 0 1 10.834090 12.952761 781.750977
522 0 1 10.924440 12.669980 780.841003
523 0 1 11.208920 12.562620 779.908020
524 0 1 11.536380 12.754721 779.096008
525 0 1 11.781981 12.932560 778.129028
526 0 1 12.025829 12.928590 777.192993
527 0 1 11.963990 12.623960 776.283020
528 0 1 11.693690 12.134830 775.442993
529 0 1 11.273500 11.692960 774.692993
530 0 1 10.795980 11.205910 773.989990
531 0 1 10.329440 10.620440 773.434998
532 0 1 10.251950 9.807961 772.870972
533 0 1 9.946790 9.138180 772.250000
534 0 1 9.660450 8.635400 771.421021
535 0 1 9.404950 8.198200 770.617981
536 0 1 9.080730 7.927655 769.661011
537 0 1 8.555541 7.863845 768.811035
538 0 1 7.834868 7.753961 768.182007
539 0 1 7.236073 7.571024 767.421997
540 0 1 6.453310 7.390226 766.880981
541 0 1 5.776530 7.393453 766.158020
542 0 1 5.148890 7.217126 765.426025
543 0 1 4.415160 7.083708 764.789978
544 0 1 3.966870 6.814840 763.922974
545 0 1 3.792410 6.326100 763.073975
546 0 1 3.815870 5.812910 762.285034
547 0 1 3.739650 5.466890 761.369019
548 0 1 3.878730 5.344140 760.429016
549 0 1 4.502050 5.334860 759.742004
550 0 1 5.138800 5.322000 758.973022
551 0 1 5.461540 5.279910 758.046997
552 0 1 6.107420 5.431800 757.335999
553 0 1 6.631870 5.424970 756.510010
554 0 1 7.245104 5.462460 755.771973
555 0 1 7.802885 5.511630 754.940979
556 0 1 8.549903 5.548700 754.424988
557 0 1 9.406700 5.718940 753.929993
558 0 1 10.014860 6.372470 753.557983
559 0 1 10.683100 6.779300 752.963989
560 0 1 11.431060 6.829100 752.369019
561 0 1 12.199221 7.271293 752.035034
562 0 1 12.850790 7.786267 751.490967
563 0 1 13.271490 8.409237 750.864990
564 0 1 13.633699 8.965014 750.130981
565 0 1 13.808630 9.276711 749.247986
566 0 1 13.872720 9.550470 748.245972
567 0 1 13.685680 9.482000 747.328003
568 0 1 13.631730 9.630910 746.387024
569 0 1 13.447910 9.466880 745.473022
570 0 1 13.006491 9.284781 744.671021
571 0 1 12.750040 9.181840 743.745972
572 0 1 12.470840 8.983998 742.807983
573 0 1 12.431880 8.983254 741.765015
574 0 1 12.320730 9.122630 740.807983
575 0 1 11.839130 9.167770 740.028992
576 0 1 11.586580 9.436210 739.155029
577 0 1 11.387640 9.433870 738.259033
578 0 1 11.130250 9.270170 737.330017
579 0 1 10.837910 9.158940 736.374023
580 0 1 10.667240 8.867718 735.479980
581 0 1 10.597680 8.603694 734.622986
582 0 1 10.593679 8.573061 733.554993
583 0 1 10.662260 8.530776 732.622009
584 0 1 10.877230 8.710123 731.723999
585 0 1 10.929560 8.855961 730.731018
586 0 1 11.100980 8.963750 729.828003
587 0 1 11.139580 8.973057 728.859009
588 0 1 11.196850 9.129440 727.909302
589 0 1 11.123320 9.436069 726.955566
590 0 1 11.100110 9.792490 726.047485
591 0 1 11.084900 10.039260 725.122375
592 0 1 10.709600 10.496059 724.283203
593 0 1 10.370690 10.953011 723.445801
594 0 1 9.814710 11.277370 722.713318
595 0 1 9.501030 11.428820 721.724915
596 0 1 9.323260 11.747570 720.839478
597 0 1 8.658098 11.569700 720.152283
598 0 1 7.928411 11.688650 719.525574
599 0 1 7.238957 11.617001 718.884033
600 0 1 6.404050 11.696100 718.351929
601 0 1 5.749000 11.972960 717.730469
602 0 1 5.116430 12.302420 717.062134
603 0 1 4.584630 12.152550 716.280518
604 0 1 4.080320 12.151300 715.451904
605 0 1 3.679630 11.739940 714.706482
606 0 1 3.429190 11.388360 713.796692
607 0 1 3.023540 11.281540 712.916626
608 0 1 2.525090 10.896910 712.156982
609 0 1 2.023140 10.379510 711.604492
610 0 1 1.643370 10.055700 710.832214
611 0 1 1.313400 9.659400 710.014709
612 0 1 1.166130 9.153111 709.170898
613 0 1 1.107040 8.728024 708.359192
614 0 1 1.138840 8.106543 707.470520
615 0 1 1.682390 7.591355 706.887695
616 0 1 1.903620 7.475135 706.020325
617 0 1 2.358950 7.064643 705.224304
618 0 1 2.932140 6.539370 704.672119
619 0 1 3.471800 6.113980 703.966919
620 0 1 4.004370 5.804090 703.256714
621 0 1 4.428350 5.600300 702.436890
622 0 1 4.522940 5.278340 701.486877
623 0 1 4.571250 5.081430 700.524109
624 0 1 4.624890 4.871680 699.549988
625 0 1 4.579420 4.767100 698.585022
626 0 1 4.792010 4.863880 697.654602
627 0 1 5.003980 5.061660 696.759705
628 0 1 5.571340 5.432290 695.975525
629 0 1 6.151950 5.974340 695.427185
630 0 1 6.759860 6.222320 694.665283
631 0 1 7.380812 6.328160 693.929993
632 0 1 8.026393 6.572900 693.234375
633 0 1 8.634898 6.712430 692.516479
634 0 1 9.163950 6.789220 691.707703
635 0 1 9.358880 6.984010 690.747803
636 0 1 9.381090 6.934400 689.811768
637 0 1 9.762800 7.029833 688.931030
638 0 1 10.200350 7.509674 688.278320
639 0 1 10.587379 7.978985 687.593079
640 0 1 10.870340 8.410999 686.758118
641 0 1 11.103410 8.856461 685.982422
642 0 1 11.376410 9.151560 685.049377
643 0 1 11.483150 8.922297 684.112610
644 0 1 11.562440 8.978093 683.173828
645 0 1 11.655180 8.623679 682.289490
646 0 1 11.524981 8.360141 681.374023
647 0 1 11.406830 8.090186 680.494690
648 0 1 11.552950 7.765703 679.619995
649 0 1 11.599620 7.201461 678.866699
650 0 1 11.874210 6.764490 678.050110
651 0 1 12.069620 6.222190 677.270996
652 0 1 12.380810 5.723610 676.495911
653 0 1 12.538890 5.517140 675.548096
654 0 1 12.410540 5.338380 674.632507
655 0 1 12.323111 5.345980 673.673523
656 0 1 12.164560 5.186820 672.725708
657 0 1 12.007310 5.092160 671.802185
658 0 1 11.995399 5.140900 670.794983
659 0 1 11.878650 5.123600 669.864624
660 0 1 11.915570 4.990350 668.910095
661 0 1 12.001740 4.762340 668.032227
662 0 1 12.154600 4.786700 667.076904
663 0 1 12.118259 4.814700 666.105286
664 0 1 12.101950 4.851540 665.059204
665 0 1 11.998930 4.896220 664.030212
666 0 1 11.642290 4.927220 663.106689
667 0 1 11.164330 5.033640 662.330627
668 0 1 10.794020 5.165010 661.413513
669 0 1 10.501440 5.335450 660.580200
670 0 1 10.297080 5.290930 659.609192
671 0 1 9.997180 5.463180 658.688416
672 0 1 9.572450 5.482080 657.843384
673 0 1 9.054150 5.756160 657.063110
674 0 1 8.398406 6.147590 656.477905
675 0 1 7.797277 6.573320 655.911987
676 0 1 7.277845 6.950270 655.246582
677 0 1 6.643490 7.151636 654.538208
678 0 1 6.201610 7.338540 653.676880
679 0 1 5.671300 6.942540 652.891907
680 0 1 5.222240 6.472980 652.154907
681 0 1 4.929890 6.008370 651.371216
682 0 1 4.902760 5.558210 650.515076
683 0 1 4.746400 5.259630 649.583130
684 0 1 5.061530 4.748660 648.796814
685 0 1 5.620060 4.387070 648.130188
686 0 1 6.008290 4.292950 647.211914
687 0 1 6.187080 3.997920 646.340820
688 0 1 6.283700 3.685720 645.445801
689 0 1 6.543680 3.240370 644.638489
690 0 1 6.698180 2.947320 643.770020
691 0 1 6.894830 2.423460 642.976074
692 0 1 7.297894 1.945750 642.182922
693 0 1 7.615031 1.736160 641.257019
694 0 1 7.945858 1.316390 640.346497
695 0 1 8.473759 1.152140 639.549500
696 0 1 9.125960 1.276520 638.811707
697 0 1 9.553500 1.724070 638.038818
698 0 1 10.182240 2.125830 637.421265
699 0 1 10.515550 2.864680 636.878479
700 0 1 10.921480 3.522250 636.322266
701 0 1 11.326880 4.196330 635.803345
702 0 1 11.421150 5.010780 635.282654
703 0 1 11.175180 5.755080 634.813232
704 0 1 10.876420 6.481610 634.261353
705 0 1 10.512510 6.709550 633.383423
706 0 1 10.332510 6.967060 632.468140
707 0 1 9.980790 7.502447 631.710205
708 0 1 9.846930 7.631472 630.825684
709 0 1 9.660700 8.003655 629.913635
710 0 1 9.492030 8.443163 629.072693
711 0 1 9.294630 9.080260 628.413879
712 0 1 9.065100 9.815510 627.823975
713 0 1 8.943877 10.264950 627.002563
714 0 1 8.630823 10.565120 626.164551
715 0 1 8.085473 10.513360 625.380310
716 0 1 7.474268 10.628850 624.681641
717 0 1 7.005460 10.761780 623.845642
718 0 1 6.802770 10.580510 622.976562
719 0 1 6.616030 10.416110 622.027771
720 0 1 6.616460 10.469590 621.066956
721 0 1 6.613610 10.449310 620.119568
722 0 1 6.839220 10.371660 619.187988
723 0 1 7.109916 10.370520 618.232788
724 0 1 7.235062 10.574130 617.330811
725 0 1 7.242804 10.815520 616.381897
726 0 1 7.411523 11.265430 615.507202
727 0 1 7.441684 11.634720 614.548401
728 0 1 7.618779 11.382090 613.623474
729 0 1 7.578071 10.935070 612.821716
730 0 1 7.552799 10.598800 611.905518
731 0 1 7.706924 10.131041 611.063721
732 0 1 7.630231 10.041540 610.094177
733 0 1 7.305218 9.884930 609.163025
734 0 1 6.907260 9.657230 608.310669
735 0 1 6.592910 9.399430 607.399170
736 0 1 6.128260 9.116430 606.585083
737 0 1 5.550660 8.578363 606.026978
738 0 1 5.131550 8.022594 605.374207
739 0 1 5.221450 7.218569 604.825684
740 0 1 5.227440 6.326210 604.465698
741 0 1 5.611370 5.496150 604.083374
742 0 1 5.779440 4.725890 603.392090
743 0 1 6.047690 4.257960 602.512024
744 0 1 5.797320 3.975650 601.585571
745 0 1 5.697020 3.763670 600.635986
746 0 1 5.734810 3.808170 599.702393
747 0 1 5.847030 3.782710 598.747009
748 0 1 6.008590 3.987480 597.810486
749 0 1 6.126310 4.469870 596.916687
750 0 1 6.166240 4.716290 595.996704
751 0 1 5.991260 4.821030 595.097473
752 0 1 5.792890 4.996980 594.196289
753 0 1 5.741810 5.321110 593.336304
754 0 1 5.463280 5.834840 592.532715
755 0 1 5.329340 6.393770 591.689575
756 0 1 4.908060 6.926830 590.969177
757 0 1 4.496230 7.246175 590.087280
758 0 1 3.917020 7.569078 589.400208
759 0 1 3.471710 7.856631 588.611328
760 0 1 3.278980 8.392372 587.865601
761 0 1 3.106140 8.719360 586.981995
762 0 1 2.771800 8.790567 586.056702
763 0 1 2.961260 8.652596 585.088013
764 0 1 3.206080 8.504925 584.110291
765 0 1 3.262470 8.269347 583.176575
766 0 1 3.280850 7.770372 582.345276
767 0 1 3.322610 7.309443 581.487183
768 0 1 3.324180 6.716470 580.750977
769 0 1 3.349940 6.236540 579.946289
770 0 1 3.271590 5.585950 579.291626
771 0 1 3.053750 5.028630 578.541321
772 0 1 3.033090 4.581350 577.753784
773 0 1 3.136440 4.192030 576.882385
774 0 1 3.239360 4.094660 575.942810
775 0 1 3.052190 4.033330 575.000977
776 0 1 2.883480 4.197560 574.089294
777 0 1 2.893630 4.311110 573.139709
778 0 1 2.784280 4.736800 572.268494
779 0 1 2.750280 5.401230 571.442627
780 0 1 2.604750 5.857500 570.643616
781 0 1 2.238130 6.131580 569.808105
782 0 1 1.996770 6.341410 568.843018
783 0 1 1.810510 6.595260 567.975525
784 0 1 1.749770 7.046714 567.181702
785 0 1 1.774360 7.492296 566.358032
786 0 1 1.912770 8.026164 565.526978
787 0 1 2.153780 8.209469 564.607483
788 0 1 2.299450 8.324850 563.687195
789 0 1 2.726280 8.352692 562.777222
790 0 1 3.204650 8.463816 561.942993