LAMMPS data file via MDAnalysis

        1000  atoms
        1000  bonds
        1000  angles
           0  dihedrals
           0  impropers

           1  atom types
           1  bond types
           1  angle types
           0  dihedral types
           0  improper types

0.000000 16.000000 xlo xhi
0.000000 16.000000 ylo yhi
0.000000 1257.000000 zlo zhi


Masses

1 1.000000

Atoms

1 0 1 11.282360 8.054848 452.520020
2 0 1 11.011360 8.120605 453.424988
3 0 1 10.973280 8.165332 454.442017
4 0 1 11.112761 8.478082 455.364990
5 0 1 11.327710 8.447828 456.291016
6 0 1 11.741100 8.497207 457.130981
7 0 1 11.879210 8.831099 458.101013
8 0 1 11.887569 9.024430 459.007996
9 0 1 11.294970 9.009420 459.973022
10 0 1 10.788880 8.697837 460.766998
11 0 1 10.277730 8.717348 461.572021
12 0 1 9.905140 9.042930 462.385986
13 0 1 9.324980 9.229200 463.203003
14 0 1 8.874139 9.286090 464.167999
15 0 1 8.404484 9.203220 464.973022
16 0 1 7.826627 9.139330 465.789978
17 0 1 7.225970 9.154090 466.585022
18 0 1 6.971220 9.233630 467.509003
19 0 1 6.764330 9.082740 468.388000
20 0 1 6.942290 8.817261 469.238007
21 0 1 7.257474 8.494572 470.104004
22 0 1 7.623966 8.086030 470.865997
23 0 1 7.616514 7.772493 471.726990
24 0 1 7.368730 7.690628 472.713013
25 0 1 7.363759 7.392496 473.608002
26 0 1 7.078105 6.909610 474.388000
27 0 1 6.614760 6.519690 475.122986
28 0 1 6.221460 6.266340 475.987000
29 0 1 5.714230 6.103980 476.800995
30 0 1 5.478830 5.934250 477.718994
31 0 1 5.359390 5.763830 478.671997
32 0 1 5.171750 5.473470 479.617004
33 0 1 4.623740 5.326940 480.463989
34 0 1 4.219690 5.293940 481.423004
35 0 1 4.028960 5.645810 482.270996
36 0 1 4.307720 6.091330 483.153992
37 0 1 4.502880 6.560420 483.997986
38 0 1 4.629050 7.240074 484.634003
39 0 1 4.854130 7.711091 485.377991
40 0 1 4.874190 8.387391 485.988007
41 0 1 4.676010 9.097180 486.601013
42 0 1 4.668740 9.566150 487.417999
43 0 1 4.547590 9.695930 488.388000
44 0 1 4.322490 10.129230 489.270996
45 0 1 4.377440 10.677550 490.088013
46 0 1 4.690680 11.096450 490.890015
47 0 1 5.002910 11.100540 491.787994
48 0 1 5.688270 10.958800 492.427002
49 0 1 6.386190 11.020490 493.057007
50 0 1 7.021478 10.957420 493.796997
51 0 1 7.805409 10.869500 494.330994
52 0 1 8.336646 11.031981 495.076996
53 0 1 8.864256 11.004720 495.851990
54 0 1 9.556900 10.652210 496.526001
55 0 1 9.777680 10.310320 497.325989
56 0 1 10.181790 10.121161 498.136993
57 0 1 10.539761 9.747790 498.938995
58 0 1 10.935860 9.776180 499.828003
59 0 1 11.107070 9.803860 500.807983
60 0 1 11.059940 9.890020 501.781006
61 0 1 11.190080 9.967050 502.696991
62 0 1 11.395590 9.968480 503.705994
63 0 1 11.826250 9.851550 504.572998
64 0 1 12.152140 9.770000 505.463013
65 0 1 11.840590 9.893670 506.343018
66 0 1 11.490150 10.104780 507.135986
67 0 1 11.303650 10.704590 507.889008
68 0 1 11.270670 10.913390 508.839996
69 0 1 11.125230 11.044330 509.763000
70 0 1 10.898940 11.267700 510.751007
71 0 1 10.399470 11.412340 511.619019
72 0 1 9.782210 11.300010 512.335999
73 0 1 9.032230 11.209970 512.913025
74 0 1 8.272314 10.985390 513.437988
75 0 1 7.733221 10.557060 514.124023
76 0 1 7.371286 10.002290 514.812988
77 0 1 6.922210 9.318120 515.372009
78 0 1 6.481810 8.776301 516.020996
79 0 1 6.077390 8.248089 516.685974
80 0 1 5.461980 7.701977 517.065979
81 0 1 4.787640 7.114596 517.473999
82 0 1 4.411990 6.374580 517.984985
83 0 1 4.023700 5.620340 518.575989
84 0 1 4.044200 5.014160 519.339966
85 0 1 4.208990 4.368160 519.999023
86 0 1 4.366350 3.686370 520.695007
87 0 1 4.597920 3.132530 521.432983
88 0 1 5.054270 2.840910 522.275024
89 0 1 5.445270 3.032360 523.151978
90 0 1 5.769430 3.369010 524.044983
91 0 1 6.105290 3.345070 524.945007
92 0 1 6.274100 3.328950 525.864014
93 0 1 6.432780 3.472250 526.799011
94 0 1 6.736110 3.355450 527.723022
95 0 1 6.968600 3.576160 528.667175
96 0 1 7.335011 3.826770 529.480469
97 0 1 7.646135 4.170700 530.311584
98 0 1 8.043562 4.587110 531.066528
99 0 1 8.514192 4.977530 531.822815
100 0 1 9.062210 4.909590 532.569580
101 0 1 9.710390 5.044990 533.340515
102 0 1 10.290610 5.442860 534.056091
103 0 1 10.841880 5.620490 534.841125
104 0 1 11.421000 5.944640 535.611328
105 0 1 11.802330 6.000830 536.513306
106 0 1 11.857121 5.651630 537.396729
107 0 1 11.997470 5.453420 538.310974
108 0 1 11.741529 5.235880 539.237122
109 0 1 11.466430 4.980500 540.142883
110 0 1 11.095700 4.812180 541.033508
111 0 1 10.843470 4.783010 541.948914
112 0 1 10.555370 4.766310 542.910889
113 0 1 10.151381 4.996180 543.741089
114 0 1 9.817050 5.274620 544.585327
115 0 1 9.505770 5.467700 545.448425
116 0 1 9.310270 5.880980 546.266479
117 0 1 9.247850 6.497290 547.035522
118 0 1 9.021610 7.109607 547.732788
119 0 1 8.803027 7.587805 548.496826
120 0 1 8.586122 8.109553 549.309082
121 0 1 8.427794 8.324789 550.266785
122 0 1 8.466261 8.680866 551.202515
123 0 1 8.573542 9.140660 552.000366
124 0 1 8.460941 9.425960 552.928589
125 0 1 8.626312 9.528470 553.841187
126 0 1 8.644769 9.766660 554.730103
127 0 1 8.318281 9.913800 555.646423
128 0 1 7.929366 9.986180 556.548828
129 0 1 7.571869 9.935790 557.408508
130 0 1 7.360742 9.782610 558.357117
131 0 1 7.543531 9.919680 559.337097
132 0 1 7.599079 9.912970 560.330566
133 0 1 8.023262 9.618850 561.176819
134 0 1 8.415674 9.277330 562.024597
135 0 1 8.843192 9.171310 562.868591
136 0 1 8.953153 8.915901 563.814575
137 0 1 8.831645 8.752460 564.842102
138 0 1 8.379117 8.901027 565.677795
139 0 1 7.866199 8.808474 566.483887
140 0 1 7.091194 8.405893 567.053772
141 0 1 6.271070 7.979064 567.500183
142 0 1 5.664380 7.473480 568.012024
143 0 1 5.180310 7.199240 568.843872
144 0 1 4.830760 6.814390 569.631775
145 0 1 4.622870 6.443260 570.514099
146 0 1 4.783000 6.372680 571.469299
147 0 1 5.100550 6.277840 572.449097
148 0 1 5.082370 6.175870 573.375000
149 0 1 4.971040 5.765310 574.251526
150 0 1 5.130700 5.664620 575.164307
151 0 1 5.414560 5.891750 576.046509
152 0 1 6.040040 6.346310 576.670227
153 0 1 6.534920 6.807850 577.335571
154 0 1 7.165504 7.159620 578.065979
155 0 1 7.781897 7.588563 578.725525
156 0 1 8.612213 7.888404 579.086182
157 0 1 9.222870 8.421695 579.568604
158 0 1 9.634090 9.109390 580.018005
159 0 1 10.116140 9.617760 580.758606
160 0 1 10.375790 9.823960 581.619812
161 0 1 10.518400 9.698550 582.645691
162 0 1 10.512230 9.362570 583.544678
163 0 1 10.585870 8.883655 584.460327
164 0 1 10.526170 8.397441 585.306274
165 0 1 10.311050 7.894614 586.137878
166 0 1 9.882170 7.616240 586.918579
167 0 1 9.679029 7.233966 587.821899
168 0 1 9.196930 6.753000 588.618225
169 0 1 8.589211 6.420970 589.295593
170 0 1 8.206757 6.052570 590.056702
171 0 1 7.813714 5.806560 590.962891
172 0 1 7.311001 5.363480 591.640198
173 0 1 7.103399 4.905910 592.432495
174 0 1 6.815850 4.564020 593.304199
175 0 1 6.544040 4.707270 594.230713
176 0 1 6.396230 4.912150 595.191711
177 0 1 6.254320 5.229260 596.184326
178 0 1 5.947620 5.528740 597.029297
179 0 1 5.534130 5.965680 597.808899
180 0 1 5.359430 6.222430 598.739990
181 0 1 5.347050 6.334770 599.674316
182 0 1 5.633160 6.542350 600.567383
183 0 1 5.994580 6.801660 601.362793
184 0 1 6.276890 6.999020 602.312073
185 0 1 6.517600 7.218314 603.192383
186 0 1 6.651240 7.580150 604.081482
187 0 1 6.852710 7.962739 604.949219
188 0 1 7.107967 8.165105 605.837769
189 0 1 7.246599 8.341587 606.741394
190 0 1 7.298970 8.472660 607.683105
191 0 1 7.406147 8.614081 608.611084
192 0 1 7.346019 8.799166 609.533813
193 0 1 7.275476 8.691605 610.546692
194 0 1 7.232269 8.300465 611.451416
195 0 1 7.114788 7.710009 612.285278
196 0 1 7.026128 7.599053 613.250977
197 0 1 6.697260 7.724933 614.119019
198 0 1 6.287540 7.703761 614.990295
199 0 1 6.187970 7.913434 615.880188
200 0 1 6.272540 7.776164 616.833923
201 0 1 6.326960 7.447717 617.788391
202 0 1 6.213650 6.887750 618.531372
203 0 1 5.921820 6.499870 619.392334
204 0 1 5.606630 6.195660 620.262512
205 0 1 5.262220 5.677210 621.002502
206 0 1 4.762520 5.222880 621.637756
207 0 1 4.333340 4.775270 622.381897
208 0 1 4.213550 4.240510 623.123718
209 0 1 4.209090 3.769770 623.986755
210 0 1 4.183010 3.627670 624.962891
211 0 1 4.071480 3.497640 625.906311
212 0 1 3.694230 3.599720 626.791016
213 0 1 3.484190 3.824850 627.663513
214 0 1 3.352960 4.148140 628.522644
215 0 1 3.332250 4.485250 629.445068
216 0 1 3.034040 4.403570 630.391968
217 0 1 2.905940 4.474010 631.326904
218 0 1 2.886160 4.550670 632.333984
219 0 1 2.709730 4.756310 633.260986
220 0 1 2.418400 4.995860 634.126709
221 0 1 1.885900 5.349140 634.881348
222 0 1 1.577560 5.844120 635.609619
223 0 1 1.317980 6.550060 636.200562
224 0 1 1.179560 7.284428 636.793945
225 0 1 1.337440 7.891763 637.573120
226 0 1 1.582760 8.068983 638.536377
227 0 1 1.842330 8.226250 639.430786
228 0 1 2.074810 8.180649 640.351501
229 0 1 2.379250 8.333279 641.272827
230 0 1 2.914470 8.331606 642.016724
231 0 1 3.433360 8.270671 642.806885
232 0 1 3.953710 8.096672 643.541992
233 0 1 4.415430 7.952628 644.373230
234 0 1 5.008830 7.819787 645.067688
235 0 1 5.641340 7.725759 645.781799
236 0 1 6.374300 7.560593 646.460571
237 0 1 7.117659 7.474147 646.984192
238 0 1 7.877963 7.395132 647.653931
239 0 1 8.381063 7.516036 648.406677
240 0 1 8.986753 7.654848 649.199219
241 0 1 9.476990 7.450647 649.975891
242 0 1 10.109261 6.950550 650.464294
243 0 1 10.810900 6.756860 651.098389
244 0 1 11.503120 6.434730 651.660583
245 0 1 12.160339 6.120900 652.249512
246 0 1 12.674540 5.748600 652.958191
247 0 1 13.183420 5.674550 653.774597
248 0 1 13.511330 5.401650 654.654724
249 0 1 13.667089 4.839410 655.409424
250 0 1 13.735450 4.704570 656.325928
251 0 1 13.659890 4.675910 657.263977
252 0 1 13.219110 4.842760 658.136719
253 0 1 12.637560 5.326110 658.714722
254 0 1 12.087860 5.622390 659.372192
255 0 1 11.610910 5.921780 660.165710
256 0 1 10.822530 6.122190 660.545776
257 0 1 9.854510 6.244560 660.793396
258 0 1 8.889422 6.020710 660.944580
259 0 1 8.099261 5.888630 661.460022
260 0 1 7.568637 5.957050 662.252380
261 0 1 6.914540 6.139350 663.112793
262 0 1 6.294950 6.112610 663.871826
263 0 1 5.715310 5.731960 664.520874
264 0 1 5.440660 5.419290 665.366821
265 0 1 5.330140 5.337600 666.312988
266 0 1 5.331110 5.400620 667.290894
267 0 1 5.502040 5.402020 668.176575
268 0 1 5.685570 5.495110 669.110291
269 0 1 5.648160 5.093030 670.032410
270 0 1 5.434560 4.481460 670.702820
271 0 1 5.282440 3.974270 671.588928
272 0 1 5.226490 3.486100 672.458496
273 0 1 5.079030 3.128920 673.373291
274 0 1 5.189790 2.839460 674.277405
275 0 1 5.389390 2.624010 675.192200
276 0 1 5.557900 2.595060 676.108826
277 0 1 5.681290 2.638560 677.110718
278 0 1 5.763150 2.769390 678.068481
279 0 1 6.037610 3.140020 679.002014
280 0 1 6.231040 2.940120 679.883606
281 0 1 6.625510 2.650760 680.775696
282 0 1 6.791880 2.651500 681.681091
283 0 1 6.792760 2.419950 682.636292
284 0 1 6.491840 2.468860 683.611511
285 0 1 6.303080 2.656040 684.556885
286 0 1 6.466670 2.970680 685.462097
287 0 1 6.401790 3.264920 686.390320
288 0 1 6.640190 3.608200 687.275574
289 0 1 6.823790 3.758290 688.282227
290 0 1 7.163092 3.912150 689.174988
291 0 1 7.613688 4.025430 690.031006
292 0 1 8.164961 4.126070 690.784485
293 0 1 8.924344 4.375200 691.341980
294 0 1 9.463910 4.890030 692.001221
295 0 1 10.065410 5.547530 692.465576
296 0 1 10.790040 5.959100 692.968994
297 0 1 11.374440 6.155730 693.725586
298 0 1 11.874470 6.387690 694.557312
299 0 1 12.199580 6.369330 695.560181
300 0 1 12.249559 6.505030 696.503601
301 0 1 12.063601 6.790220 697.397827
302 0 1 11.768590 6.857110 698.319580
303 0 1 11.669610 6.971950 699.256470
304 0 1 11.928650 7.052696 700.212280
305 0 1 11.881820 7.249971 701.259705
306 0 1 11.647190 7.178894 702.161377
307 0 1 11.372450 6.914640 703.008423
308 0 1 11.546250 6.761150 703.978394
309 0 1 11.469340 6.646320 704.869690
310 0 1 11.332650 6.679370 705.802612
311 0 1 10.981780 6.723550 706.711975
312 0 1 10.571711 7.055272 707.613403
313 0 1 10.003580 7.141713 708.306091
314 0 1 9.707100 7.117888 709.261414
315 0 1 9.528780 7.080503 710.212402
316 0 1 9.479590 6.868790 711.182190
317 0 1 9.565830 6.551570 712.087219
318 0 1 9.615040 6.457910 713.096802
319 0 1 9.780080 6.547470 713.984802
320 0 1 9.780360 6.556950 714.933105
321 0 1 9.463240 6.686270 715.947388
322 0 1 9.592240 6.652060 716.953186
323 0 1 9.701030 6.452940 717.878784
324 0 1 9.751431 6.221340 718.810791
325 0 1 9.835500 5.661580 719.596313
326 0 1 9.371390 5.608790 720.446899
327 0 1 8.709925 5.759480 721.141479
328 0 1 8.100475 5.592720 721.932983
329 0 1 7.597637 5.595350 722.750977
330 0 1 7.070300 5.712240 723.670898
331 0 1 6.534260 5.935040 724.473267
332 0 1 6.035870 6.196730 725.328979
333 0 1 5.758280 6.649120 726.100708
334 0 1 5.307600 6.889280 726.992981
335 0 1 5.430270 7.156385 727.896484
336 0 1 5.746330 7.309270 728.794006
337 0 1 5.920940 7.546432 729.750000
338 0 1 6.185470 7.780047 730.700012
339 0 1 6.030750 7.951600 731.625977
340 0 1 5.938290 7.801295 732.689026
341 0 1 5.963230 7.781704 733.671997
342 0 1 5.844750 7.994175 734.624023
343 0 1 5.480130 8.059328 735.502014
344 0 1 4.868060 7.879781 736.200989
345 0 1 4.563730 7.531090 737.044006
346 0 1 4.397220 7.322290 737.976990
347 0 1 4.276640 7.039198 738.839966
348 0 1 4.408550 6.454870 739.609985
349 0 1 4.297500 5.855770 740.400024
350 0 1 4.125930 5.275790 741.193970
351 0 1 3.938510 5.192960 742.098999
352 0 1 3.722830 5.071900 743.015015
353 0 1 3.770280 5.038800 743.961975
354 0 1 3.796200 4.941200 744.877014
355 0 1 3.968950 4.882740 745.825012
356 0 1 4.273590 4.580350 746.627991
357 0 1 4.660540 4.715790 747.504028
358 0 1 5.117370 5.068020 748.299988
359 0 1 5.441600 5.643220 749.085022
360 0 1 5.590780 5.925510 749.989990
361 0 1 5.831750 6.444360 750.731995
362 0 1 5.849460 7.110105 751.546021
363 0 1 6.263120 7.703210 752.249023
364 0 1 6.745820 8.262919 752.843018
365 0 1 6.890430 9.032440 753.507019
366 0 1 6.898220 9.901950 753.934998
367 0 1 6.760920 10.591690 754.567993
368 0 1 6.256690 11.036740 755.292969
369 0 1 6.139760 11.196939 756.245972
370 0 1 5.848910 11.073730 757.151978
371 0 1 5.804210 10.961360 758.098022
372 0 1 5.755400 10.754340 758.992004
373 0 1 5.730260 10.384680 759.885010
374 0 1 5.469280 10.193970 760.794983
375 0 1 5.219730 9.946750 761.786011
376 0 1 4.829000 9.589630 762.624023
377 0 1 4.531230 9.153530 763.385986
378 0 1 4.072040 8.833959 764.242004
379 0 1 3.751320 8.403920 765.007996
380 0 1 3.368150 7.982237 765.802002
381 0 1 2.862440 7.535597 766.478027
382 0 1 2.397150 7.031825 767.164978
383 0 1 2.469410 6.418830 767.895996
384 0 1 2.456500 5.913710 768.773010
385 0 1 2.331240 5.546560 769.635010
386 0 1 2.246320 5.059140 770.479980
387 0 1 2.390350 4.585780 771.346008
388 0 1 2.782400 4.319260 772.216980
389 0 1 2.865400 4.145650 773.162964
390 0 1 3.099570 4.159930 774.109985
391 0 1 3.621770 4.108320 774.912964
392 0 1 4.139370 4.314940 775.739990
393 0 1 4.896600 4.523640 776.322021
394 0 1 5.552050 5.064400 776.755981
395 0 1 6.166580 5.660500 777.281982
396 0 1 6.809570 6.032190 777.942017
397 0 1 7.397782 6.354510 778.648010
398 0 1 8.056376 6.541800 779.294983
399 0 1 8.586589 6.785570 780.065002
400 0 1 8.985148 7.013820 780.953003
401 0 1 9.560540 7.359905 781.735962
402 0 1 10.262390 7.547051 782.448975
403 0 1 10.907360 7.703887 783.203003
404 0 1 11.503560 7.503458 783.924988
405 0 1 11.818470 7.052345 784.664978
406 0 1 12.209750 6.521810 785.388000
407 0 1 12.435249 6.233620 786.313965
408 0 1 12.442500 6.111140 787.292969
409 0 1 12.681630 6.154810 788.224976
410 0 1 13.101770 6.078080 789.098022
411 0 1 13.432930 6.084080 790.091003
412 0 1 13.637600 6.430720 790.992004
413 0 1 13.846260 6.873800 791.833984
414 0 1 14.057070 7.303038 792.676025
415 0 1 14.425039 7.525474 793.539978
416 0 1 14.655170 7.737814 794.432983
417 0 1 14.800370 7.964577 795.351013
418 0 1 14.821899 8.096516 796.306030
419 0 1 14.860820 8.077644 797.239990
420 0 1 14.649879 8.140552 798.141968
421 0 1 14.653709 7.883895 799.052979
422 0 1 14.584860 7.817235 800.044006
423 0 1 14.402560 7.628046 800.989990
424 0 1 14.122749 6.986750 801.599976
425 0 1 13.858931 6.548690 802.437012
426 0 1 13.744989 6.428210 803.362000
427 0 1 13.439590 6.336790 804.242004
428 0 1 13.314110 6.068720 805.167969
429 0 1 13.273621 5.714910 806.075989
430 0 1 12.984180 5.403910 806.922974
431 0 1 12.503480 5.365670 807.781982
432 0 1 12.215651 5.417430 808.731018
433 0 1 11.813360 5.500200 809.556030
434 0 1 11.316520 5.513960 810.354980
435 0 1 11.143350 5.591750 811.318970
436 0 1 10.899050 5.516450 812.202026
437 0 1 10.656870 5.498230 813.125000
438 0 1 10.507460 5.482720 814.096985
439 0 1 10.102819 5.521090 814.989990
440 0 1 9.698800 5.401790 815.880981
441 0 1 9.168330 5.247170 816.661987
442 0 1 8.758447 5.260760 817.572998
443 0 1 8.322062 5.111330 818.365967
444 0 1 7.900719 5.231410 819.228027
445 0 1 7.568370 5.664290 820.047974
446 0 1 7.497203 6.114900 820.893005
447 0 1 7.326308 6.563340 821.770996
448 0 1 7.048012 7.212240 822.513000
449 0 1 6.809870 7.738596 823.268982
450 0 1 6.808120 8.184583 824.134033
451 0 1 6.638810 8.717472 824.872009
452 0 1 6.360640 9.083130 825.705017
453 0 1 5.978980 9.460530 826.504028
454 0 1 5.676620 9.633940 827.372986
455 0 1 5.218960 9.869500 828.252014
456 0 1 4.888810 10.187300 829.195007
457 0 1 4.788920 10.512590 830.054993
458 0 1 4.772460 10.751950 831.041016
459 0 1 4.883900 11.148160 831.957031
460 0 1 4.883170 11.521749 832.799011
461 0 1 4.841510 12.202100 833.515015
462 0 1 5.123980 12.974470 834.063965
463 0 1 5.648660 13.604410 834.525024
464 0 1 6.225910 13.914431 835.187988
465 0 1 7.031465 13.882800 835.703979
466 0 1 7.914146 13.572860 835.924988
467 0 1 8.692849 12.942080 836.171997
468 0 1 9.226280 12.178830 836.025024
469 0 1 9.826360 11.370120 835.765991
470 0 1 9.909930 10.396490 835.687012
471 0 1 9.928270 9.499350 835.669983
472 0 1 9.762970 8.542917 835.625977
473 0 1 9.633180 7.648823 835.338989
474 0 1 9.518460 6.726220 835.046021
475 0 1 9.558650 5.962510 834.481995
476 0 1 9.217970 5.374690 833.833984
477 0 1 8.908341 4.833980 833.143005
478 0 1 8.417746 4.608280 832.389038
479 0 1 7.579465 4.436500 831.817017
480 0 1 7.077075 4.029150 831.115967
481 0 1 6.779730 3.824470 830.205017
482 0 1 6.296020 3.781770 829.297974
483 0 1 6.279990 3.911230 828.393982
484 0 1 6.280310 4.280010 827.462036
485 0 1 6.528240 4.429010 826.557007
486 0 1 6.832290 4.496210 825.627014
487 0 1 6.791100 4.157350 824.761963
488 0 1 6.805510 3.813500 823.898010
489 0 1 6.955040 3.503200 822.942017
490 0 1 6.964430 3.260590 821.987000
491 0 1 7.134269 2.924230 821.096008
492 0 1 7.118203 2.775350 820.197021
493 0 1 7.152014 2.733600 819.260986
494 0 1 7.035379 2.381280 818.393982
495 0 1 7.362619 2.401160 817.520020
496 0 1 7.765552 2.380130 816.682983
497 0 1 7.943346 2.387180 815.713013
498 0 1 7.907032 2.170380 814.812988
499 0 1 7.994015 2.107700 813.822998
500 0 1 7.821358 2.251050 812.882019
501 0 1 8.064084 2.306150 811.971985
502 0 1 8.380939 2.240560 811.083008
503 0 1 8.522775 2.317380 810.057983
504 0 1 8.730773 2.352500 809.114014
505 0 1 8.961353 2.316840 808.179993
506 0 1 9.309050 2.185570 807.283020
507 0 1 9.685600 2.204720 806.445984
508 0 1 9.955580 2.354200 805.533997
509 0 1 10.322120 2.531650 804.666016
510 0 1 10.897390 2.570120 803.863037
511 0 1 11.474590 2.639910 803.007996
512 0 1 11.646690 2.656940 802.067993
513 0 1 11.595370 2.656290 801.087036
514 0 1 11.501380 2.728860 800.210999
515 0 1 11.549470 2.680970 799.281006
516 0 1 11.594210 2.561170 798.304016
517 0 1 11.352060 2.630310 797.364014
518 0 1 11.142800 2.789610 796.448975
519 0 1 11.090450 2.854640 795.485962
520 0 1 10.867730 2.904910 794.494995
521 0 1 10.474370 3.208930 793.716003
522 0 1 9.962220 3.431990 792.917969
523 0 1 9.653100 3.449660 791.960022
524 0 1 9.286480 3.336460 791.061035
525 0 1 9.058240 2.979080 790.218018
526 0 1 8.962679 2.830570 789.320007
527 0 1 9.080020 2.810050 788.372009
528 0 1 9.260410 2.609040 787.427002
529 0 1 9.200480 2.443580 786.484985
530 0 1 9.155200 2.227600 785.526978
531 0 1 9.233891 1.939700 784.620972
532 0 1 9.197510 1.692300 783.723999
533 0 1 9.319110 1.613710 782.791016
534 0 1 9.421060 1.810420 781.841980
535 0 1 9.577930 1.935740 780.846985
536 0 1 9.784370 2.268670 779.942993
537 0 1 10.015990 2.574220 779.054993
538 0 1 9.994420 2.743020 778.109985
539 0 1 9.842880 3.109220 777.212036
540 0 1 9.790070 3.702240 776.348022
541 0 1 9.820420 4.365330 775.681030
542 0 1 9.713170 5.081910 775.033020
543 0 1 9.749220 5.936870 774.575989
544 0 1 9.958360 6.705450 774.132019
545 0 1 9.873890 7.480469 773.549011
546 0 1 9.726460 8.221488 772.958008
547 0 1 9.673300 9.059210 772.414978
548 0 1 9.556650 9.743860 771.783997
549 0 1 9.645870 10.285990 771.011963
550 0 1 9.710270 10.605200 770.130005
551 0 1 9.492580 10.757990 769.228027
552 0 1 9.486060 11.150340 768.328003
553 0 1 9.171870 11.280010 767.386963
554 0 1 8.907608 11.221300 766.476013
555 0 1 8.791954 11.032610 765.536987
556 0 1 8.786399 10.449380 764.740967
557 0 1 8.802881 10.092421 763.833984
558 0 1 8.665052 10.089911 762.953003
559 0 1 8.463675 10.047770 762.026001
560 0 1 8.379301 9.876730 761.106995
561 0 1 8.435480 9.968340 760.182983
562 0 1 8.502652 9.934450 759.184998
563 0 1 8.883154 10.190320 758.323975
564 0 1 9.342860 10.086860 757.463989
565 0 1 9.742050 9.945601 756.572998
566 0 1 9.686420 9.739110 755.638000
567 0 1 9.653180 9.086980 754.835022
568 0 1 9.493760 8.752792 753.992981
569 0 1 9.263200 8.442376 753.140991
570 0 1 8.749852 8.343465 752.325989
571 0 1 8.475851 8.129226 751.424011
572 0 1 8.173269 7.970569 750.577026
573 0 1 8.074130 8.208220 749.645020
574 0 1 8.226576 8.672555 748.867981
575 0 1 8.279310 9.225540 748.109009
576 0 1 8.353177 9.815010 747.353027
577 0 1 8.411590 10.384290 746.575989
578 0 1 8.672341 10.794790 745.707031
579 0 1 8.722329 11.494280 745.015015
580 0 1 8.729888 12.094280 744.281982
581 0 1 8.522636 12.576700 743.513977
582 0 1 8.208902 13.188459 742.739014
583 0 1 7.740800 13.482460 741.921021
584 0 1 7.466441 13.812981 741.088989
585 0 1 7.360622 14.216000 740.250000
586 0 1 7.480791 14.375060 739.325989
587 0 1 7.594422 14.124710 738.325989
588 0 1 7.441811 13.807751 737.434998
589 0 1 7.408801 13.805740 736.510010
590 0 1 7.134754 13.896240 735.604004
591 0 1 6.956090 13.976490 734.622986
592 0 1 6.871780 14.250299 733.752991
593 0 1 6.633110 14.315840 732.810974
594 0 1 6.223070 14.110240 731.932983
595 0 1 5.935750 13.848391 731.112000
596 0 1 5.472600 13.386260 730.447998
597 0 1 5.111900 13.095860 729.533020
598 0 1 4.812140 12.922100 728.617981
599 0 1 4.674200 12.731380 727.709106
600 0 1 4.478520 12.577089 726.710876
601 0 1 4.226540 12.412510 725.804810
602 0 1 4.035900 12.152650 724.909790
603 0 1 3.968990 11.881260 723.985718
604 0 1 3.973050 11.549640 723.064392
605 0 1 3.849910 11.273290 722.143005
606 0 1 3.819660 11.130939 721.188293
607 0 1 3.732790 11.009700 720.257568
608 0 1 3.626410 11.007990 719.289612
609 0 1 3.627620 10.966730 718.257385
610 0 1 3.443880 10.971160 717.328003
611 0 1 3.293290 10.649750 716.372009
612 0 1 3.284610 10.417120 715.479126
613 0 1 3.537850 10.005030 714.624268
614 0 1 3.745890 9.649200 713.768616
615 0 1 4.069290 9.654010 712.876892
616 0 1 4.241430 9.520800 711.920288
617 0 1 4.016420 9.772860 711.043274
618 0 1 3.903680 10.178370 710.155029
619 0 1 3.549990 10.429290 709.299011
620 0 1 3.457770 10.668630 708.398926
621 0 1 3.491990 10.780360 707.411926
622 0 1 3.799010 10.774390 706.535217
623 0 1 4.217590 10.881041 705.690430
624 0 1 4.710810 10.848021 704.905029
625 0 1 5.039680 10.835840 704.028320
626 0 1 5.464040 10.803240 703.186584
627 0 1 5.840960 10.827740 702.261108
628 0 1 6.256520 10.634780 701.472900
629 0 1 6.710630 10.379370 700.698181
630 0 1 7.336221 9.878270 700.105713
631 0 1 7.850876 9.617990 699.329590
632 0 1 8.272223 9.531270 698.479492
633 0 1 8.585347 9.887990 697.569885
634 0 1 8.798770 9.918280 696.669678
635 0 1 9.161551 10.235810 695.791199
636 0 1 9.331560 10.526510 694.950195
637 0 1 9.490050 10.744790 694.024597
638 0 1 9.607080 11.006570 693.111023
639 0 1 9.573260 11.330120 692.190125
640 0 1 9.508690 11.522950 691.281494
641 0 1 9.640110 11.546440 690.217529
642 0 1 9.928990 11.696630 689.289978
643 0 1 9.937880 11.757230 688.326172
644 0 1 9.982320 11.697150 687.359985
645 0 1 9.944520 11.568160 686.403503
646 0 1 10.024640 11.298780 685.430115
647 0 1 9.952090 11.106461 684.528198
648 0 1 9.588400 10.770030 683.730286
649 0 1 9.189160 10.393590 682.954468
650 0 1 9.083120 10.189660 682.085205
651 0 1 9.294390 9.921400 681.157593
652 0 1 9.869320 9.764140 680.462708
653 0 1 10.319710 9.462140 679.648682
654 0 1 10.898420 9.363050 678.904175
655 0 1 11.569770 9.169260 678.295288
656 0 1 12.330120 9.189650 677.626526
657 0 1 13.025160 9.116660 676.960205
658 0 1 13.467751 9.184920 676.149292
659 0 1 13.729830 9.458000 675.274780
660 0 1 13.704470 9.321760 674.256592
661 0 1 13.821780 9.212650 673.368530
662 0 1 13.823460 9.088170 672.450623
663 0 1 13.456730 9.152100 671.448486
664 0 1 13.389290 9.135790 670.518311
665 0 1 13.160690 9.283050 669.647705
666 0 1 12.966080 9.226260 668.644897
667 0 1 12.916650 8.879386 667.712708
668 0 1 12.597760 8.469022 666.863281
669 0 1 12.465640 8.318448 665.897400
670 0 1 12.256380 7.973481 665.016296
671 0 1 12.036730 7.658804 664.111084
672 0 1 11.803930 7.602847 663.193298
673 0 1 11.476510 7.782682 662.301208
674 0 1 11.349150 8.192090 661.407288
675 0 1 10.878260 8.542232 660.687073
676 0 1 10.563860 8.861044 659.819397
677 0 1 10.233750 9.241390 658.977112
678 0 1 9.906170 9.737410 658.168396
679 0 1 9.542700 10.168800 657.443787
680 0 1 9.087440 10.611710 656.649414
681 0 1 8.874690 11.169950 655.820374
682 0 1 8.589441 11.696480 654.994995
683 0 1 8.609732 12.083651 654.055786
684 0 1 8.574095 12.558200 653.261230
685 0 1 8.629618 12.799749 652.282410
686 0 1 8.839883 13.057060 651.296875
687 0 1 8.864121 13.185900 650.364197
688 0 1 8.516409 13.509650 649.446106
689 0 1 7.974327 13.727039 648.679688
690 0 1 7.261991 13.691370 647.944580
691 0 1 6.905700 13.675060 646.930725
692 0 1 6.748090 13.450200 645.928101
693 0 1 6.566510 13.318470 645.029419
694 0 1 6.277300 13.026051 644.078979
695 0 1 6.115040 12.629320 643.206482
696 0 1 6.059710 11.982320 642.552673
697 0 1 5.818420 11.452020 641.783386
698 0 1 5.450820 10.965060 641.063293
699 0 1 5.251760 10.377790 640.387878
700 0 1 4.913130 9.811990 639.707703
701 0 1 4.583870 9.314530 638.940613
702 0 1 4.330620 8.680754 638.218201
703 0 1 3.989840 8.076294 637.503296
704 0 1 3.554820 7.826853 636.716187
705 0 1 3.012760 7.723188 635.888367
706 0 1 2.806410 7.765214 634.917542
707 0 1 3.062170 8.001462 633.969360
708 0 1 3.267950 8.463188 633.123718
709 0 1 3.254080 8.890702 632.275452
710 0 1 3.288880 9.179750 631.314026
711 0 1 3.279010 9.362460 630.313354
712 0 1 3.352740 9.082900 629.412781
713 0 1 3.436990 8.829130 628.506348
714 0 1 3.794950 8.494313 627.664307
715 0 1 4.071790 8.289907 626.813416
716 0 1 4.004580 8.269889 625.905273
717 0 1 3.939740 8.213030 624.894287
718 0 1 3.940130 8.250079 623.914124
719 0 1 3.663200 8.265428 622.976440
720 0 1 3.466770 8.178080 622.046631
721 0 1 3.260420 7.883118 621.167419
722 0 1 2.994150 7.502107 620.362427
723 0 1 2.502430 7.099518 619.614624
724 0 1 1.983930 6.992060 618.830933
725 0 1 1.656310 6.691230 617.983215
726 0 1 1.549480 6.574780 617.020691
727 0 1 1.475570 6.398930 616.110901
728 0 1 1.484480 6.253670 615.166504
729 0 1 1.597760 6.221440 614.248291
730 0 1 1.524810 5.951500 613.291809
731 0 1 1.579760 6.056070 612.314392
732 0 1 1.415790 6.500230 611.405396
733 0 1 1.419940 7.211593 610.704285
734 0 1 1.595330 7.631429 609.769714
735 0 1 1.588600 7.856287 608.837585
736 0 1 1.867700 8.136290 607.921814
737 0 1 2.008690 8.310425 606.994202
738 0 1 1.919960 8.348179 606.069275
739 0 1 1.980510 8.403988 605.094299
740 0 1 2.237110 8.251173 604.213379
741 0 1 2.533920 8.299703 603.298096
742 0 1 2.882540 8.579831 602.399292
743 0 1 3.209470 8.794647 601.525818
744 0 1 3.511540 8.757886 600.569702
745 0 1 3.629330 8.448179 599.642090
746 0 1 3.736030 8.390830 598.662598
747 0 1 4.001570 8.406180 597.741882
748 0 1 4.016300 8.089511 596.808289
749 0 1 3.770060 7.937828 595.885803
750 0 1 3.744010 7.729023 594.948975
751 0 1 3.893810 7.818395 594.011719
752 0 1 4.304480 7.552893 593.199402
753 0 1 4.768780 7.180962 592.405029
754 0 1 5.266620 6.897920 591.633423
755 0 1 5.997760 6.795190 591.118408
756 0 1 6.660120 6.839570 590.375183
757 0 1 7.124935 6.541010 589.543091
758 0 1 7.461827 6.425790 588.664978
759 0 1 7.724091 6.219530 587.781372
760 0 1 7.905188 6.076600 586.854980
761 0 1 8.273765 5.485660 586.180786
762 0 1 8.707386 4.949090 585.529907
763 0 1 9.205950 4.347870 584.959412
764 0 1 9.901560 4.116510 584.338196
765 0 1 10.689780 4.210080 583.817810
766 0 1 11.177170 4.225870 583.021301
767 0 1 11.842520 4.327280 582.365601
768 0 1 12.500990 4.644210 581.701782
769 0 1 12.806470 5.023740 580.878418
770 0 1 12.727779 5.473130 580.025391
771 0 1 12.674891 5.815000 579.131104
772 0 1 12.544439 6.108100 578.265808
773 0 1 12.042280 6.406570 577.467102
774 0 1 12.069860 6.340180 576.467407
775 0 1 11.963511 6.159710 575.569580
776 0 1 11.759380 5.807790 574.672485
777 0 1 11.772320 5.614080 573.720520
778 0 1 11.975170 5.482140 572.761292
779 0 1 12.132071 5.177820 571.796814
780 0 1 12.105141 4.637160 570.979919
781 0 1 11.952050 3.998610 570.212524
782 0 1 11.611190 3.448260 569.499878
783 0 1 11.404730 3.044140 568.650391
784 0 1 11.083780 2.662580 567.860229
785 0 1 10.856570 2.345530 566.972778
786 0 1 10.409130 2.266400 566.108826
787 0 1 10.055850 2.347210 565.239075
788 0 1 9.739380 2.535400 564.382080
789 0 1 9.129340 2.698660 563.590576
790 0 1 8.560868 2.994800 562.955811
791 0 1 8.152783 3.192930 562.121582
792 0 1 7.976679 3.531880 561.241882
793 0 1 7.850105 3.754770 560.311768
794 0 1 7.588516 4.092100 559.472412