LAMMPS data file via MDAnalysis

        1000  atoms
        1000  bonds
        1000  angles
           0  dihedrals
           0  impropers

           1  atom types
           1  bond types
           1  angle types
           0  dihedral types
           0  improper types

0.000000 16.000000 xlo xhi
0.000000 16.000000 ylo yhi
0.000000 1257.000000 zlo zhi


Masses

1 1.000000

Atoms

1 0 1 10.247790 4.225500 457.054993
2 0 1 10.331050 4.577410 457.929016
3 0 1 10.235120 5.146170 458.815979
4 0 1 10.173310 5.671140 459.550995
5 0 1 9.976990 6.138590 460.411011
6 0 1 9.817801 6.570130 461.250000
7 0 1 9.645160 7.271271 461.903992
8 0 1 9.467850 8.032657 462.546021
9 0 1 9.338750 8.771849 463.104980
10 0 1 9.487490 9.471410 463.815979
11 0 1 9.390750 10.031620 464.598022
12 0 1 9.375810 10.626880 465.384003
13 0 1 9.407570 11.142000 466.252991
14 0 1 9.705100 11.632690 467.067993
15 0 1 10.108530 12.283590 467.744019
16 0 1 10.399780 12.849190 468.464996
17 0 1 10.893590 13.128410 469.234009
18 0 1 11.133101 13.049240 470.182983
19 0 1 11.500401 12.920150 471.041992
20 0 1 11.832820 12.616880 471.903992
21 0 1 12.157770 12.301550 472.778015
22 0 1 12.577391 11.810240 473.528992
23 0 1 12.834320 11.162060 474.251007
24 0 1 12.928020 10.540110 475.031006
25 0 1 12.909430 9.843070 475.737000
26 0 1 12.554020 9.450040 476.570007
27 0 1 12.448481 9.030560 477.438995
28 0 1 12.265690 8.615895 478.325989
29 0 1 12.116449 8.418583 479.304993
30 0 1 11.858680 8.284117 480.213013
31 0 1 11.755650 8.596472 481.114014
32 0 1 11.748671 9.084249 481.931000
33 0 1 11.885760 9.478770 482.848022
34 0 1 11.963060 9.592810 483.770020
35 0 1 12.135450 9.561500 484.766998
36 0 1 11.948870 9.534620 485.723999
37 0 1 11.468940 9.546360 486.554016
38 0 1 10.974840 9.646250 487.324005
39 0 1 10.432690 9.647130 488.167999
40 0 1 10.259610 9.444139 489.093994
41 0 1 10.395630 9.240680 489.953979
42 0 1 10.349400 8.823396 490.832001
43 0 1 10.118480 8.352922 491.701996
44 0 1 9.882450 7.882805 492.468994
45 0 1 9.609050 7.323037 493.179993
46 0 1 9.303070 6.966580 494.016998
47 0 1 8.669471 6.890890 494.804016
48 0 1 8.007668 6.863000 495.466003
49 0 1 7.499775 7.144942 496.184998
50 0 1 7.004634 7.332234 496.936005
51 0 1 6.777600 7.770437 497.822021
52 0 1 6.460330 8.416596 498.440979
53 0 1 6.184710 8.924503 499.145996
54 0 1 5.794410 9.224670 499.998993
55 0 1 5.328060 9.542270 500.727997
56 0 1 4.870760 9.826930 501.549988
57 0 1 4.504590 9.811140 502.411011
58 0 1 4.217530 10.151040 503.337006
59 0 1 4.027930 10.688370 504.117981
60 0 1 3.916460 11.133610 504.945007
61 0 1 3.741560 11.467020 505.838989
62 0 1 3.530000 11.450500 506.822998
63 0 1 3.268810 11.129230 507.798004
64 0 1 3.249910 10.722400 508.649994
65 0 1 3.302670 10.372800 509.510986
66 0 1 3.488550 10.048310 510.445984
67 0 1 3.902310 9.730800 511.216003
68 0 1 4.196930 9.309310 511.997986
69 0 1 4.574580 8.922089 512.700989
70 0 1 5.160580 8.435853 513.323975
71 0 1 5.847410 8.186705 514.002014
72 0 1 6.506000 7.861605 514.591980
73 0 1 6.935400 7.356235 515.328979
74 0 1 7.669614 7.133202 515.937012
75 0 1 8.375826 6.896150 516.523010
76 0 1 9.071760 6.443430 517.106018
77 0 1 9.606410 6.024240 517.745972
78 0 1 9.817380 5.774430 518.660034
79 0 1 10.152830 5.439820 519.439026
80 0 1 10.457390 4.975580 520.252014
81 0 1 10.542850 4.802140 521.200012
82 0 1 10.612540 4.427750 522.078979
83 0 1 10.723420 4.035250 522.958008
84 0 1 10.584840 3.837640 523.885010
85 0 1 10.391860 3.795150 524.879028
86 0 1 10.134710 3.724050 525.763977
87 0 1 10.037120 3.300030 526.648987
88 0 1 9.770570 3.034060 527.518005
89 0 1 9.365770 2.814760 528.333008
90 0 1 9.303780 2.574690 529.273315
91 0 1 9.100690 2.395240 530.131592
92 0 1 9.017300 2.267800 531.075195
93 0 1 8.998095 2.096930 532.013672
94 0 1 8.915291 2.071890 532.991333
95 0 1 8.957667 1.917240 533.942200
96 0 1 8.904102 1.809530 534.893921
97 0 1 8.709170 1.831540 535.847534
98 0 1 8.651115 1.766260 536.770630
99 0 1 8.981115 1.616320 537.649292
100 0 1 9.520160 1.643250 538.424072
101 0 1 10.249460 1.833340 539.114075
102 0 1 10.941090 2.321500 539.552368
103 0 1 11.450790 2.795080 540.216614
104 0 1 11.718960 3.439460 540.900696
105 0 1 12.082220 4.097090 541.520386
106 0 1 12.695150 4.588340 542.144775
107 0 1 13.321370 4.713060 542.853577
108 0 1 13.888060 4.836650 543.641602
109 0 1 14.172110 4.885740 544.554199
110 0 1 14.055389 5.060490 545.428284
111 0 1 13.822980 5.357170 546.349976
112 0 1 13.850030 5.515370 547.276306
113 0 1 13.694420 5.652700 548.233276
114 0 1 13.474820 5.868810 549.155823
115 0 1 13.577430 6.428150 549.954895
116 0 1 13.132339 7.085807 550.623413
117 0 1 12.823940 7.743766 551.234924
118 0 1 12.435820 8.227558 552.025574
119 0 1 12.226920 8.831003 552.755615
120 0 1 12.062640 9.258630 553.628723
121 0 1 11.911850 9.850720 554.370605
122 0 1 11.941830 10.273640 555.258789
123 0 1 12.114450 10.749030 556.045288
124 0 1 12.241980 11.188770 556.885498
125 0 1 12.344040 11.471030 557.853577
126 0 1 12.260930 11.638950 558.858276
127 0 1 11.898880 11.792940 559.815002
128 0 1 11.717110 11.784110 560.764404
129 0 1 11.419460 11.839870 561.639709
130 0 1 11.058740 11.869190 562.536194
131 0 1 10.808070 11.911500 563.497620
132 0 1 10.457850 12.264380 564.288513
133 0 1 9.909140 12.406071 565.059204
134 0 1 9.463340 12.534821 565.946228
135 0 1 9.302720 12.803370 566.881470
136 0 1 8.660214 13.001949 567.602783
137 0 1 8.052762 13.060801 568.310181
138 0 1 7.699471 12.877080 569.114868
139 0 1 7.673820 12.698060 570.072876
140 0 1 7.558044 12.580980 571.062988
141 0 1 7.334084 12.200020 571.908081
142 0 1 6.942970 11.967780 572.704102
143 0 1 6.571670 11.694870 573.614624
144 0 1 5.958170 11.553780 574.336609
145 0 1 5.297090 11.433730 575.024414
146 0 1 4.742850 11.321270 575.838928
147 0 1 4.155690 10.844500 576.361328
148 0 1 3.574010 10.221790 576.840332
149 0 1 3.117090 9.665770 577.431580
150 0 1 2.761290 9.083640 578.068787
151 0 1 2.329650 8.626587 578.892090
152 0 1 1.949700 8.359086 579.745300
153 0 1 1.662040 8.117619 580.667786
154 0 1 1.616370 7.853026 581.597717
155 0 1 1.756210 7.583244 582.515320
156 0 1 2.118400 7.377033 583.401001
157 0 1 2.313670 6.944680 584.274109
158 0 1 2.317950 6.738140 585.285828
159 0 1 2.150480 6.372220 586.163208
160 0 1 2.206970 5.977580 587.002808
161 0 1 2.691190 5.904140 587.855103
162 0 1 3.075460 5.783120 588.763977
163 0 1 3.580070 5.646120 589.591614
164 0 1 3.930980 5.584950 590.447876
165 0 1 4.435310 5.724910 591.266785
166 0 1 4.685450 5.884310 592.154907
167 0 1 4.972110 5.824520 593.101929
168 0 1 5.268440 5.782990 594.040588
169 0 1 5.679390 5.721910 594.933411
170 0 1 5.860330 5.468940 595.809387
171 0 1 6.235720 5.235370 596.696716
172 0 1 6.463650 4.836700 597.598083
173 0 1 6.189900 4.776310 598.539429
174 0 1 6.229330 4.516920 599.432800
175 0 1 6.201750 4.389120 600.407593
176 0 1 6.065400 4.299180 601.338928
177 0 1 5.640680 4.143590 602.251709
178 0 1 5.347690 4.088540 603.210083
179 0 1 5.086990 4.132630 604.147400
180 0 1 5.035490 4.130780 605.104919
181 0 1 5.174200 4.267000 606.124695
182 0 1 5.275270 4.523140 607.044006
183 0 1 5.486460 4.608700 607.965210
184 0 1 5.648650 4.786190 608.913879
185 0 1 5.852100 4.636880 609.816772
186 0 1 5.822990 4.876200 610.743408
187 0 1 5.263850 5.199750 611.493103
188 0 1 4.573370 5.601010 612.013916
189 0 1 4.091650 6.226980 612.648193
190 0 1 3.665140 6.861750 613.179382
191 0 1 3.406170 7.496038 613.831909
192 0 1 3.253380 8.023396 614.579895
193 0 1 3.108570 8.498554 615.386902
194 0 1 2.820410 9.106790 616.021179
195 0 1 2.532810 9.738890 616.709717
196 0 1 2.736380 10.436680 617.306580
197 0 1 3.157980 11.213160 617.727112
198 0 1 3.418230 11.848900 618.362122
199 0 1 3.821350 12.405331 618.998291
200 0 1 4.307740 13.112909 619.603699
201 0 1 4.758840 13.647670 620.243347
202 0 1 5.441120 13.890230 620.874084
203 0 1 6.183200 14.035379 621.461426
204 0 1 6.798180 14.055580 622.294250
205 0 1 7.111845 14.189569 623.182007
206 0 1 7.285281 14.443470 624.079224
207 0 1 7.802604 14.425810 624.868225
208 0 1 8.418022 14.528920 625.594543
209 0 1 8.977370 14.274981 626.325684
210 0 1 9.466160 13.772079 627.065674
211 0 1 9.703460 13.335490 627.837708
212 0 1 9.632940 12.871799 628.620728
213 0 1 9.671250 12.413219 629.442871
214 0 1 9.480040 11.834230 630.236145
215 0 1 9.353280 11.045570 630.821838
216 0 1 9.215010 10.286760 631.335876
217 0 1 9.134860 9.608590 631.989380
218 0 1 8.845536 9.246490 632.839294
219 0 1 8.472831 9.358590 633.730713
220 0 1 8.230939 9.355290 634.648132
221 0 1 7.828203 9.250580 635.540710
222 0 1 7.461934 9.150920 636.487854
223 0 1 7.095861 9.131620 637.428955
224 0 1 7.062133 9.096581 638.357971
225 0 1 7.064751 8.940289 639.312500
226 0 1 6.744300 8.741118 640.164612
227 0 1 6.446450 8.302442 641.011108
228 0 1 5.934790 8.094555 641.846069
229 0 1 5.312150 7.696667 642.527405
230 0 1 4.866510 7.444616 643.358521
231 0 1 4.790930 7.441750 644.328003
232 0 1 4.739640 7.098464 645.276001
233 0 1 4.697490 6.940430 646.186523
234 0 1 4.623440 7.095664 647.127686
235 0 1 4.381600 7.042906 648.028381
236 0 1 4.076440 7.044832 648.942871
237 0 1 3.731750 6.863840 649.812622
238 0 1 3.452490 6.806780 650.742615
239 0 1 3.370130 6.615910 651.690491
240 0 1 3.029700 6.548350 652.565918
241 0 1 2.731670 6.432720 653.432617
242 0 1 2.961800 6.249450 654.339783
243 0 1 3.292870 6.026240 655.203491
244 0 1 3.775580 5.843600 656.052307
245 0 1 3.868090 5.971650 657.028503
246 0 1 4.364620 6.169450 657.882324
247 0 1 4.752670 6.246120 658.778809
248 0 1 4.929020 6.303140 659.838074
249 0 1 5.052510 6.543160 660.764709
250 0 1 5.333890 6.743860 661.623291
251 0 1 5.539500 7.120834 662.488708
252 0 1 5.744550 7.343881 663.393616
253 0 1 6.100070 7.682446 664.296387
254 0 1 6.427010 7.837660 665.190125
255 0 1 7.009336 7.887205 665.962219
256 0 1 7.677373 8.206171 666.564209
257 0 1 8.075537 8.525616 667.296997
258 0 1 8.642152 8.713739 668.083923
259 0 1 9.074400 8.906732 668.985229
260 0 1 9.427700 8.758462 669.872925
261 0 1 9.521060 8.505685 670.748779
262 0 1 9.571390 8.514076 671.712891
263 0 1 9.705760 8.424514 672.721313
264 0 1 9.717180 8.343675 673.722412
265 0 1 9.658689 8.278846 674.708191
266 0 1 9.776000 8.210136 675.626221
267 0 1 9.887750 8.075083 676.580383
268 0 1 9.925030 8.244569 677.583801
269 0 1 9.743470 7.975927 678.511719
270 0 1 9.660710 7.999492 679.476379
271 0 1 9.721380 8.391426 680.343994
272 0 1 10.017611 8.601199 681.291321
273 0 1 10.347651 9.148190 682.057678
274 0 1 10.426600 9.815290 682.781799
275 0 1 10.686430 10.378490 683.484924
276 0 1 11.209610 11.012011 683.992004
277 0 1 11.544440 11.416170 684.772522
278 0 1 11.472879 11.577830 685.737610
279 0 1 11.545350 11.768770 686.631592
280 0 1 11.225370 11.797310 687.510498
281 0 1 11.045620 11.866780 688.473694
282 0 1 10.985000 12.085580 689.380127
283 0 1 11.022881 12.286330 690.327087
284 0 1 11.095340 12.515560 691.271118
285 0 1 11.278379 12.607280 692.231201
286 0 1 11.787200 12.381310 693.052917
287 0 1 11.840990 12.107840 693.976807
288 0 1 11.900370 11.831640 694.884888
289 0 1 11.935650 11.458139 695.752380
290 0 1 12.350890 11.173670 696.551025
291 0 1 12.142210 11.206350 697.500366
292 0 1 11.740980 11.274390 698.390320
293 0 1 11.196671 11.305610 699.192993
294 0 1 10.411160 11.373770 699.679382
295 0 1 9.654070 11.642060 700.184875
296 0 1 8.701682 11.655690 700.462097
297 0 1 7.884627 11.870510 700.780579
298 0 1 7.030988 12.052970 701.208191
299 0 1 6.153870 12.098680 701.657898
300 0 1 5.600660 12.091980 702.477478
301 0 1 5.163910 11.684380 703.219971
302 0 1 4.957870 11.294650 704.113220
303 0 1 4.815540 10.904070 705.033020
304 0 1 4.811620 10.337670 705.791504
305 0 1 4.639930 9.674570 706.476013
306 0 1 4.304500 9.018270 707.093201
307 0 1 4.056250 8.644194 707.986816
308 0 1 3.666290 8.155159 708.828918
309 0 1 3.557820 7.612294 709.636108
310 0 1 3.741460 7.020842 710.451782
311 0 1 3.578940 6.591680 711.368896
312 0 1 3.650590 6.191390 712.257202
313 0 1 3.874650 5.864170 713.091675
314 0 1 4.081280 5.611360 714.029907
315 0 1 4.128950 5.611050 714.928711
316 0 1 4.384230 5.672750 715.913391
317 0 1 4.646290 5.652770 716.796387
318 0 1 5.078020 5.554640 717.667603
319 0 1 5.520880 5.496210 718.520874
320 0 1 6.224630 5.744680 719.140625
321 0 1 6.705530 5.992710 719.961121
322 0 1 7.226060 6.217490 720.686707
323 0 1 7.603759 6.650200 721.483093
324 0 1 8.043103 7.187043 722.125732
325 0 1 8.658589 7.571311 722.797424
326 0 1 9.220290 8.141084 723.358215
327 0 1 9.557920 8.757003 723.998596
328 0 1 9.765710 9.431980 724.678711
329 0 1 10.177090 10.017370 725.329407
330 0 1 10.708290 10.414351 725.982117
331 0 1 11.248700 10.541520 726.812012
332 0 1 11.858680 10.695960 727.601013
333 0 1 12.361020 10.885010 728.451904
334 0 1 12.617060 10.944540 729.332031
335 0 1 12.519690 10.843920 730.315979
336 0 1 12.498960 10.542880 731.239990
337 0 1 12.626870 10.357730 732.184998
338 0 1 12.674950 10.452850 733.167969
339 0 1 12.722731 10.424440 734.161011
340 0 1 12.693810 10.617750 735.179993
341 0 1 12.428400 10.836070 736.093994
342 0 1 12.034410 11.334880 736.781006
343 0 1 11.479940 11.869930 737.377014
344 0 1 10.612410 12.239531 737.768982
345 0 1 9.898670 12.806240 737.906006
346 0 1 9.103830 13.029270 738.489990
347 0 1 8.336433 13.240650 739.035034
348 0 1 7.626740 13.207650 739.637024
349 0 1 7.027369 13.643820 740.276001
350 0 1 6.811360 13.929319 741.135986
351 0 1 6.450720 13.870790 741.990967
352 0 1 5.883750 13.711121 742.814026
353 0 1 5.524460 13.588870 743.692017
354 0 1 5.351610 13.579741 744.663025
355 0 1 5.050660 13.309780 745.492981
356 0 1 5.085090 12.611640 746.108032
357 0 1 5.092550 11.979180 746.835999
358 0 1 5.100730 11.302990 747.525024
359 0 1 5.216210 10.848460 748.395996
360 0 1 5.270270 10.539450 749.416016
361 0 1 5.329130 10.333590 750.410034
362 0 1 5.205180 10.222780 751.349976
363 0 1 5.430930 10.566580 752.203979
364 0 1 5.700450 10.830410 753.052002
365 0 1 6.214450 10.827890 753.825012
366 0 1 6.722910 11.087740 754.582031
367 0 1 7.128368 11.106070 755.403015
368 0 1 7.279378 10.992990 756.437012
369 0 1 7.277018 11.167930 757.333984
370 0 1 7.056938 11.532960 758.212036
371 0 1 6.691270 11.760630 759.083008
372 0 1 6.060020 11.725910 759.757996
373 0 1 5.805120 11.679380 760.815002
374 0 1 5.324430 11.362770 761.682007
375 0 1 5.169860 11.126820 762.617981
376 0 1 4.955140 11.065240 763.523010
377 0 1 5.191290 10.712860 764.466980
378 0 1 5.637360 10.618470 765.301025
379 0 1 6.008870 10.424000 766.195007
380 0 1 6.534900 10.244960 767.007019
381 0 1 7.092761 10.138680 767.778992
382 0 1 7.466724 9.904690 768.601013
383 0 1 7.669143 9.586760 769.469971
384 0 1 7.871925 9.636280 770.448975
385 0 1 8.010532 9.522270 771.421997
386 0 1 8.136463 9.605170 772.422974
387 0 1 8.367797 9.559960 773.360962
388 0 1 8.642531 9.774880 774.286987
389 0 1 9.008110 9.786390 775.171021
390 0 1 8.939315 9.266470 776.026978
391 0 1 8.946140 9.140141 777.015991
392 0 1 8.839974 8.912198 777.952026
393 0 1 8.874910 8.653593 778.869995
394 0 1 9.148420 8.297696 779.708008
395 0 1 9.265180 7.938739 780.570007
396 0 1 9.418510 7.626807 781.429993
397 0 1 9.497040 7.302509 782.367004
398 0 1 9.611330 6.841430 783.275024
399 0 1 9.891980 6.483950 784.093994
400 0 1 10.159210 6.453240 785.026001
401 0 1 10.401880 6.829760 785.849976
402 0 1 10.596200 7.509447 786.535034
403 0 1 10.725890 8.015312 787.286987
404 0 1 10.843679 8.601819 788.033997
405 0 1 10.903840 8.977495 788.912964
406 0 1 10.721470 9.582200 789.601013
407 0 1 10.744470 10.070570 790.405029
408 0 1 10.890739 10.599640 791.226990
409 0 1 10.811090 11.135780 791.985962
410 0 1 10.622570 11.397430 792.891968
411 0 1 10.329880 11.604890 793.773987
412 0 1 10.154610 11.328190 794.716980
413 0 1 10.216980 10.861670 795.599976
414 0 1 10.434140 10.592040 796.488037
415 0 1 10.824890 10.494520 797.377014
416 0 1 10.852620 10.661489 798.379028
417 0 1 10.887011 10.905160 799.301025
418 0 1 11.153650 11.111430 800.254028
419 0 1 11.127990 11.340030 801.221008
420 0 1 10.798890 11.664490 801.978027
421 0 1 10.704860 11.980910 802.919983
422 0 1 10.711349 12.376221 803.869995
423 0 1 10.634040 12.636040 804.817993
424 0 1 10.573640 12.353100 805.731995
425 0 1 10.593940 12.183460 806.708984
426 0 1 10.620470 11.600940 807.535034
427 0 1 10.604730 11.007760 808.263000
428 0 1 10.518660 10.579230 809.106995
429 0 1 10.273140 10.116500 809.885010
430 0 1 10.228570 9.512140 810.662964
431 0 1 9.974310 9.134920 811.516968
432 0 1 9.416821 8.693938 812.226990
433 0 1 8.861830 8.213963 812.992004
434 0 1 8.346096 7.960251 813.716980
435 0 1 7.890030 7.482818 814.432983
436 0 1 7.400550 6.941770 815.044006
437 0 1 6.860530 6.599390 815.733032
438 0 1 6.531560 5.782690 816.343994
439 0 1 6.185890 5.120160 816.979980
440 0 1 5.974110 4.580530 817.710022
441 0 1 5.836530 3.954860 818.427979
442 0 1 5.886610 3.339700 819.164001
443 0 1 5.876060 2.795930 819.978027
444 0 1 5.707830 2.329620 820.820984
445 0 1 5.742710 2.219600 821.773010
446 0 1 5.681410 2.295370 822.754028
447 0 1 5.553490 2.303320 823.671021
448 0 1 5.566180 2.341670 824.557983
449 0 1 5.793180 2.674500 825.440002
450 0 1 6.034840 3.040670 826.218018
451 0 1 6.143910 3.464830 827.075012
452 0 1 6.545500 3.878660 827.919983
453 0 1 7.011872 4.208910 828.684021
454 0 1 7.597287 4.447370 829.421021
455 0 1 8.210951 4.743330 830.075989
456 0 1 8.849590 5.212650 830.594971
457 0 1 9.633600 5.763600 830.765991
458 0 1 10.329650 6.167490 831.210022
459 0 1 11.089400 6.725370 831.088013
460 0 1 11.453540 7.634285 831.057007
461 0 1 12.097839 8.364426 830.997986
462 0 1 12.765980 9.005780 830.638000
463 0 1 13.429050 9.453609 830.124023
464 0 1 13.953979 9.803761 829.447998
465 0 1 14.475830 9.919690 828.630005
466 0 1 14.565090 9.828100 827.700989
467 0 1 14.488710 9.711780 826.700012
468 0 1 14.523140 9.530730 825.765015
469 0 1 14.501181 9.308540 824.812988
470 0 1 13.972130 9.114070 824.007019
471 0 1 13.434350 8.861598 823.153992
472 0 1 12.766530 8.810024 822.450989
473 0 1 12.057130 8.660303 821.770020
474 0 1 11.230520 8.456949 821.283020
475 0 1 10.617900 8.573673 820.507019
476 0 1 10.274910 8.708324 819.577026
477 0 1 9.770790 8.602639 818.761963
478 0 1 9.174760 8.730663 818.014038
479 0 1 8.661147 8.458075 817.346985
480 0 1 8.061078 8.144334 816.612000
481 0 1 7.284994 7.893051 816.158997
482 0 1 6.412750 7.693381 815.716980
483 0 1 5.928720 7.309141 814.994995
484 0 1 5.150130 7.020412 814.549011
485 0 1 4.505430 6.535070 814.080017
486 0 1 3.759500 6.182070 813.609009
487 0 1 2.935430 5.929800 813.150024
488 0 1 2.231280 5.849660 812.468018
489 0 1 1.910360 5.919520 811.563965
490 0 1 2.002810 5.917140 810.601013
491 0 1 2.207990 5.787800 809.679016
492 0 1 2.362080 5.271000 808.875000
493 0 1 2.743180 4.856180 808.091003
494 0 1 3.158700 4.433670 807.348022
495 0 1 3.681200 4.444180 806.551025
496 0 1 4.060460 4.482530 805.640015
497 0 1 4.403100 4.337490 804.660034
498 0 1 4.553370 4.258770 803.690979
499 0 1 4.360370 4.361320 802.801025
500 0 1 4.398810 4.263740 801.854004
501 0 1 4.296090 4.187330 800.846008
502 0 1 4.099470 4.131550 799.910034
503 0 1 3.812000 4.096080 799.031006
504 0 1 3.649730 3.802900 798.088013
505 0 1 3.452420 3.674980 797.143005
506 0 1 3.404250 3.582420 796.218994
507 0 1 3.321580 3.558090 795.276001
508 0 1 3.154080 3.440600 794.360962
509 0 1 3.023370 3.528490 793.447021
510 0 1 3.063590 3.640380 792.479004
511 0 1 2.928950 3.847000 791.552979
512 0 1 3.166890 4.169960 790.705017
513 0 1 3.019220 4.704370 789.924988
514 0 1 3.031840 5.634710 789.613037
515 0 1 2.895040 6.568260 789.492981
516 0 1 2.975890 7.548641 789.674011
517 0 1 3.125100 8.470709 789.744019
518 0 1 3.394240 9.404350 789.513000
519 0 1 3.785600 10.135910 789.087036
520 0 1 4.250530 10.584880 788.338989
521 0 1 4.658360 11.321120 787.750000
522 0 1 5.100110 12.017860 787.250000
523 0 1 5.593440 12.564140 786.622986
524 0 1 5.650780 13.270861 785.994019
525 0 1 5.675250 13.498260 785.103027
526 0 1 5.917120 13.640500 784.114990
527 0 1 6.328880 13.838470 783.289978
528 0 1 6.817520 13.720580 782.474976
529 0 1 7.264826 13.457930 781.681030
530 0 1 7.748276 13.652800 780.841980
531 0 1 7.822649 14.075581 779.937012
532 0 1 7.940806 14.120850 778.971008
533 0 1 8.069973 13.899210 778.070007
534 0 1 8.063924 13.606831 777.182983
535 0 1 8.292726 13.461670 776.224976
536 0 1 8.372251 13.268280 775.273987
537 0 1 8.805685 12.896430 774.502991
538 0 1 9.328450 12.805890 773.653992
539 0 1 9.936100 12.675460 772.927979
540 0 1 10.627710 12.638430 772.307983
541 0 1 11.411230 12.458960 771.807007
542 0 1 12.051741 12.239759 771.091003
543 0 1 12.628870 11.819670 770.422974
544 0 1 13.100780 11.595970 769.619995
545 0 1 13.541030 11.218960 768.747009
546 0 1 13.573650 10.714000 767.896973
547 0 1 13.676970 10.490400 766.964966
548 0 1 13.884211 9.748140 766.374023
549 0 1 13.701720 8.897009 765.875000
550 0 1 13.392590 8.073505 765.403015
551 0 1 12.975941 7.388445 764.890015
552 0 1 12.610590 6.787720 764.171997
553 0 1 12.130671 6.339110 763.492004
554 0 1 11.966230 6.160460 762.617004
555 0 1 11.605761 6.008270 761.765015
556 0 1 11.203939 5.691710 760.893005
557 0 1 10.772800 5.344490 760.047974
558 0 1 10.369150 4.946620 759.278992
559 0 1 9.939700 5.006730 758.424988
560 0 1 9.776120 5.543260 757.655029
561 0 1 9.668540 6.150680 756.877991
562 0 1 9.366700 6.627700 756.109985
563 0 1 8.830204 7.177238 755.442017
564 0 1 8.610274 7.303297 754.575012
565 0 1 8.727985 7.844877 753.731995
566 0 1 8.707668 8.201413 752.828003
567 0 1 8.645975 8.760810 752.075012
568 0 1 8.872797 9.338120 751.330994
569 0 1 9.238910 9.907740 750.653015
570 0 1 9.670680 10.381741 749.903992
571 0 1 10.099590 10.737590 749.033020
572 0 1 10.547800 11.016250 748.257019
573 0 1 10.886740 11.052770 747.322998
574 0 1 11.156520 10.719891 746.414001
575 0 1 11.403080 10.388230 745.567017
576 0 1 11.648000 10.208800 744.634033
577 0 1 12.013260 10.029660 743.771973
578 0 1 12.004930 9.848650 742.823975
579 0 1 12.091431 9.492430 741.992981
580 0 1 12.201910 8.989421 741.189026
581 0 1 12.495800 8.550541 740.364014
582 0 1 12.776100 7.948613 739.622009
583 0 1 12.966850 7.355425 738.922974
584 0 1 12.827880 6.718740 738.195007
585 0 1 12.754930 6.281990 737.338989
586 0 1 12.618670 5.837940 736.489014
587 0 1 12.442300 5.474360 735.593994
588 0 1 12.164850 5.170020 734.762024
589 0 1 11.922000 4.871910 733.893005
590 0 1 11.980280 4.571190 732.976013
591 0 1 12.105761 4.335150 732.096008
592 0 1 12.099110 4.023000 731.148987
593 0 1 12.044650 4.132540 730.198975
594 0 1 11.966230 4.281480 729.202026
595 0 1 11.479410 4.327550 728.395081
596 0 1 10.971770 4.453290 727.558777
597 0 1 10.750820 4.512420 726.665222
598 0 1 10.467670 4.377530 725.760315
599 0 1 10.106860 4.311630 724.811523
600 0 1 9.855100 4.481960 723.924194
601 0 1 9.914390 4.617170 722.983093
602 0 1 10.091760 4.665840 722.036682
603 0 1 10.315410 4.722270 721.098022
604 0 1 10.637230 4.865370 720.246826
605 0 1 11.238501 5.055890 719.467224
606 0 1 11.447110 5.045890 718.512329
607 0 1 11.611680 4.870970 717.622314
608 0 1 11.951760 4.989500 716.704468
609 0 1 12.026360 5.174460 715.760193
610 0 1 12.030661 5.250050 714.808899
611 0 1 12.067619 5.362880 713.822388
612 0 1 11.883580 5.535170 712.896484
613 0 1 11.773980 5.496090 711.944397
614 0 1 11.591670 5.743040 710.999512
615 0 1 11.469870 5.769840 710.043274
616 0 1 11.088040 5.745570 709.172791
617 0 1 10.382600 5.474300 708.493408
618 0 1 9.708410 5.173500 707.801819
619 0 1 8.921009 5.043020 707.175598
620 0 1 8.233599 4.972980 706.501709
621 0 1 7.420273 4.852020 706.082031
622 0 1 6.463100 4.755560 705.806702
623 0 1 5.573630 4.755080 705.430115
624 0 1 4.792400 5.037130 704.994873
625 0 1 4.203090 5.241990 704.313293
626 0 1 3.579580 5.484210 703.596191
627 0 1 3.207650 5.631350 702.695923
628 0 1 2.851970 5.733700 701.816284
629 0 1 2.459980 5.832480 700.966614
630 0 1 2.272620 5.931260 699.992981
631 0 1 2.199870 5.762040 699.049683
632 0 1 2.308820 5.484230 698.062317
633 0 1 2.035630 5.226090 697.206299
634 0 1 2.075100 5.100920 696.263306
635 0 1 2.164240 4.852900 695.329224
636 0 1 2.275700 4.692500 694.369812
637 0 1 2.161530 4.553840 693.406982
638 0 1 2.079610 4.694980 692.484375
639 0 1 1.944800 4.804630 691.522827
640 0 1 2.056320 5.220270 690.694702
641 0 1 2.083100 5.841540 689.982300
642 0 1 1.837630 6.344570 689.149475
643 0 1 1.761580 6.775220 688.283203
644 0 1 1.886070 7.195106 687.369385
645 0 1 2.038320 7.683262 686.578308
646 0 1 2.014210 8.184228 685.764893
647 0 1 2.152290 8.643343 684.931213
648 0 1 2.509410 8.784355 684.031311
649 0 1 3.139410 8.956613 683.258606
650 0 1 3.660840 9.005080 682.466614
651 0 1 4.003100 9.140990 681.543213
652 0 1 4.271640 8.953439 680.602478
653 0 1 4.350200 8.929264 679.617004
654 0 1 4.271890 9.144810 678.671631
655 0 1 4.323460 9.334230 677.714783
656 0 1 4.713420 9.715320 676.927002
657 0 1 5.079600 10.082520 676.106506
658 0 1 5.573370 10.515280 675.383789
659 0 1 6.062110 10.757660 674.593018
660 0 1 6.571620 10.846760 673.814392
661 0 1 6.975560 10.868830 672.939514
662 0 1 7.316845 10.599340 672.088196
663 0 1 7.681992 10.373460 671.205322
664 0 1 8.037815 10.180310 670.317688
665 0 1 8.097245 9.851030 669.363525
666 0 1 8.209539 9.716730 668.409485
667 0 1 8.131649 9.618310 667.461609
668 0 1 8.246839 9.611230 666.430603
669 0 1 8.541050 9.845100 665.557800
670 0 1 8.672325 9.982950 664.572510
671 0 1 8.764494 10.516230 663.718811
672 0 1 8.983948 10.860150 662.841980
673 0 1 9.120940 11.072630 661.914795
674 0 1 9.411680 11.645560 661.173706
675 0 1 9.577100 12.400459 660.528931
676 0 1 9.872400 12.948510 659.805420
677 0 1 10.188990 13.458260 659.029175
678 0 1 10.492050 13.820770 658.070374
679 0 1 10.504230 14.143930 657.124023
680 0 1 10.380310 14.244490 656.150879
681 0 1 10.050210 14.225400 655.224182
682 0 1 9.845490 14.080521 654.295227
683 0 1 9.756680 13.817110 653.310974
684 0 1 9.479720 13.592270 652.401123
685 0 1 9.276350 13.470961 651.446594
686 0 1 8.959386 13.511820 650.551086
687 0 1 8.868791 13.290640 649.646912
688 0 1 8.926054 12.921130 648.749695
689 0 1 9.273510 12.402700 647.923218
690 0 1 9.295080 12.081090 646.996582
691 0 1 9.507150 11.907391 646.057922
692 0 1 9.627990 11.837290 645.115784
693 0 1 9.769930 11.511380 644.240601
694 0 1 9.955510 11.367380 643.269409
695 0 1 10.232480 11.368050 642.292419
696 0 1 10.437799 11.238940 641.373413
697 0 1 10.757450 10.964790 640.465393
698 0 1 10.947980 11.095200 639.477417
699 0 1 10.895810 11.280880 638.527588
700 0 1 10.770290 11.394930 637.515625
701 0 1 10.497690 11.055350 636.572266
702 0 1 10.419519 11.036140 635.608643
703 0 1 10.261150 11.222400 634.602539
704 0 1 9.876790 11.484410 633.712708
705 0 1 9.308270 11.463300 632.874023
706 0 1 8.554178 11.455379 632.327759
707 0 1 7.952925 11.097651 631.681458
708 0 1 7.406495 10.719749 631.039917
709 0 1 6.837600 10.341949 630.442017
710 0 1 6.453410 10.108931 629.577698
711 0 1 6.051040 9.725690 628.763855
712 0 1 5.591810 9.447410 628.005737
713 0 1 5.099770 9.446980 627.112854
714 0 1 4.540890 9.201610 626.371521
715 0 1 3.801290 9.016780 625.781677
716 0 1 3.342730 9.008720 624.951721
717 0 1 3.079240 9.199050 624.058594
718 0 1 3.131630 9.472850 623.140137
719 0 1 3.185370 9.783360 622.239014
720 0 1 3.276370 9.939090 621.294189
721 0 1 3.359830 10.269800 620.363037
722 0 1 3.427760 10.562160 619.474854
723 0 1 4.041970 10.705070 618.646484
724 0 1 4.522710 10.566031 617.831970
725 0 1 5.005670 10.290620 617.016785
726 0 1 5.447020 9.787370 616.314209
727 0 1 5.910860 9.101530 615.685791
728 0 1 6.073880 8.708769 614.793030
729 0 1 5.725630 8.135833 614.156677
730 0 1 5.234740 7.691090 613.451599
731 0 1 4.859550 7.315387 612.614197
732 0 1 4.362760 7.162081 611.738403
733 0 1 4.016940 7.336248 610.875183
734 0 1 3.544410 7.551871 609.992310
735 0 1 3.169120 7.342127 609.131775
736 0 1 2.863420 6.929930 608.268799
737 0 1 2.624480 7.062396 607.347717
738 0 1 2.227370 6.869410 606.487183
739 0 1 1.760250 6.732400 605.575684
740 0 1 1.289170 6.716680 604.754028
741 0 1 1.241900 6.733780 603.780701
742 0 1 1.440730 6.743930 602.862488
743 0 1 1.489080 6.720580 601.826111
744 0 1 1.710810 6.951530 600.887329
745 0 1 2.059850 6.988700 600.006775
746 0 1 2.328090 7.229431 599.076721
747 0 1 2.490100 7.330562 598.152405
748 0 1 2.664890 7.400146 597.196228
749 0 1 2.757320 7.359467 596.178589
750 0 1 3.189600 7.201721 595.369202
751 0 1 3.826520 7.293692 594.696289
752 0 1 4.395040 7.221747 593.990906
753 0 1 5.161080 7.243788 593.364990
754 0 1 5.815590 7.412071 592.675903
755 0 1 6.351090 7.520022 591.836792
756 0 1 6.597410 7.561001 590.840210
757 0 1 6.615540 7.623396 589.861023
758 0 1 6.442220 7.826296 588.950500
759 0 1 5.956940 8.040747 588.144897
760 0 1 5.719970 8.504368 587.344971
761 0 1 5.177390 8.944163 586.623474
762 0 1 4.979550 9.356720 585.759521
763 0 1 4.799260 9.398230 584.837402
764 0 1 4.836710 9.213410 583.865479
765 0 1 4.977950 9.240530 582.945312
766 0 1 5.169050 9.153410 581.973572
767 0 1 5.384950 8.996781 580.949524
768 0 1 5.577240 9.004560 579.995972
769 0 1 5.719880 9.038370 579.001282
770 0 1 5.815970 8.796561 578.020508
771 0 1 5.702450 8.736877 577.102112
772 0 1 5.907490 8.768457 576.084900
773 0 1 5.774750 8.919658 575.159668
774 0 1 5.522870 9.248770 574.211670
775 0 1 5.419400 9.368490 573.277283
776 0 1 5.453250 9.415040 572.305786
777 0 1 5.353440 9.395950 571.373474
778 0 1 5.331640 9.421460 570.413879
779 0 1 5.166200 9.206330 569.430725
780 0 1 5.020530 9.051270 568.436218
781 0 1 4.997810 8.997832 567.434326
782 0 1 5.078960 9.007870 566.518982
783 0 1 5.387690 8.996917 565.596924
784 0 1 5.614170 9.032660 564.608582
785 0 1 5.846060 9.005210 563.670166
786 0 1 6.281900 8.829302 562.872070
787 0 1 6.699500 8.793402 561.994873
788 0 1 6.939510 8.855022 561.079895
789 0 1 7.249322 9.023380 560.171997