LAMMPS data file via MDAnalysis

        1000  atoms
        1000  bonds
        1000  angles
           0  dihedrals
           0  impropers

           1  atom types
           1  bond types
           1  angle types
           0  dihedral types
           0  improper types

0.000000 16.000000 xlo xhi
0.000000 16.000000 ylo yhi
0.000000 1257.000000 zlo zhi


Masses

1 1.000000

Atoms

1 0 1 8.150510 7.405746 445.348999
2 0 1 7.912906 7.499514 446.270020
3 0 1 7.781895 7.693736 447.252014
4 0 1 7.864121 7.906615 448.210022
5 0 1 8.205838 8.283168 449.048004
6 0 1 8.494987 8.457698 449.950012
7 0 1 8.634982 8.744140 450.862000
8 0 1 8.913749 8.803901 451.774994
9 0 1 9.149350 8.791001 452.653992
10 0 1 9.222540 8.764093 453.645020
11 0 1 9.041810 8.909086 454.635010
12 0 1 8.893096 9.236300 455.575012
13 0 1 8.683695 9.551680 456.423004
14 0 1 8.429338 9.824600 457.312988
15 0 1 8.161059 10.031740 458.213013
16 0 1 7.822323 10.538549 458.929016
17 0 1 8.018297 10.828170 459.833008
18 0 1 8.190857 10.903680 460.746002
19 0 1 8.261325 10.860291 461.703003
20 0 1 8.438096 10.915560 462.660004
21 0 1 8.638150 10.871920 463.546021
22 0 1 8.569473 10.903500 464.520996
23 0 1 8.771375 10.848090 465.476013
24 0 1 8.578632 10.786910 466.416016
25 0 1 8.643519 10.546490 467.351013
26 0 1 8.442451 10.888980 468.246002
27 0 1 8.478512 11.090690 469.216003
28 0 1 8.428130 11.524630 470.091980
29 0 1 8.258558 11.829630 471.001007
30 0 1 7.985610 12.287500 471.867004
31 0 1 7.708422 12.433880 472.826996
32 0 1 7.405890 12.674870 473.753998
33 0 1 7.254089 12.701410 474.651001
34 0 1 7.192598 12.793380 475.574005
35 0 1 6.913590 12.921249 476.497009
36 0 1 6.514960 13.112090 477.307007
37 0 1 6.033970 13.041700 478.147003
38 0 1 5.801130 13.001289 479.108002
39 0 1 5.595190 12.933020 480.052002
40 0 1 5.262210 12.677460 480.944000
41 0 1 5.072800 12.428490 481.911011
42 0 1 5.068870 11.934930 482.786011
43 0 1 5.175150 11.512860 483.666992
44 0 1 5.126060 11.098560 484.518005
45 0 1 4.982720 10.353570 485.223999
46 0 1 4.749290 9.632880 485.916016
47 0 1 4.684820 9.027360 486.674988
48 0 1 4.547510 8.433409 487.429993
49 0 1 4.236610 7.989451 488.309998
50 0 1 4.052110 7.704399 489.265991
51 0 1 3.916900 7.473223 490.207001
52 0 1 3.795260 7.112282 491.109985
53 0 1 3.624010 6.521470 491.971985
54 0 1 3.531140 5.972540 492.752991
55 0 1 3.477370 5.853660 493.726990
56 0 1 3.351740 5.623900 494.626007
57 0 1 3.253590 5.468920 495.552002
58 0 1 3.218110 5.202540 496.464996
59 0 1 3.368860 5.029760 497.449005
60 0 1 3.673350 4.846760 498.375000
61 0 1 3.906190 4.369980 499.220001
62 0 1 4.308150 3.899070 499.950012
63 0 1 4.451170 3.317360 500.746002
64 0 1 4.303640 3.049540 501.619019
65 0 1 4.492540 2.921800 502.561005
66 0 1 4.866510 2.572620 503.380981
67 0 1 5.173200 2.566820 504.312988
68 0 1 5.733230 2.656640 505.110992
69 0 1 6.080440 2.808020 506.016998
70 0 1 6.580810 3.040620 506.766998
71 0 1 6.879460 3.433050 507.632019
72 0 1 7.054592 3.826770 508.424011
73 0 1 7.369433 4.296120 509.169983
74 0 1 7.506707 4.751910 510.019989
75 0 1 7.235713 5.331290 510.740997
76 0 1 6.981530 5.869320 511.529999
77 0 1 6.696810 5.864480 512.473999
78 0 1 6.604810 5.885520 513.457031
79 0 1 6.514630 5.955170 514.413025
80 0 1 6.418730 6.150580 515.296021
81 0 1 6.118760 5.985060 516.167969
82 0 1 5.826100 6.018870 517.082031
83 0 1 5.654930 5.892920 518.000000
84 0 1 5.325520 5.471800 518.903992
85 0 1 5.205250 5.169220 519.809021
86 0 1 5.208210 4.699940 520.634033
87 0 1 5.103640 4.423840 521.557007
88 0 1 5.112150 4.444600 522.559998
89 0 1 5.149830 4.395050 523.525024
90 0 1 5.206800 4.248050 524.461975
91 0 1 5.008190 4.180850 525.432983
92 0 1 4.930360 4.183430 526.356018
93 0 1 4.768190 4.413990 527.278015
94 0 1 4.476690 4.619740 528.164001
95 0 1 4.167640 5.028820 528.985413
96 0 1 3.791930 5.718900 529.653809
97 0 1 3.677000 6.152980 530.474915
98 0 1 3.775740 6.562270 531.406921
99 0 1 3.584340 7.006304 532.187378
100 0 1 3.349220 7.454064 533.051575
101 0 1 2.979300 7.799463 533.923889
102 0 1 2.676180 8.000451 534.720581
103 0 1 2.187630 7.978912 535.540222
104 0 1 2.004940 7.903183 536.548584
105 0 1 1.744840 8.030240 537.490479
106 0 1 1.776570 8.268601 538.425598
107 0 1 1.999540 8.397042 539.372192
108 0 1 2.271080 8.426914 540.261719
109 0 1 2.300140 8.223184 541.211792
110 0 1 2.409020 7.722950 542.086121
111 0 1 2.128450 7.168756 542.825928
112 0 1 2.032640 6.759380 543.719910
113 0 1 2.050330 6.456920 544.632812
114 0 1 1.930380 6.368060 545.580688
115 0 1 2.135420 6.463330 546.566895
116 0 1 2.346390 6.500020 547.541382
117 0 1 2.178040 6.691340 548.546814
118 0 1 2.350200 6.611250 549.498779
119 0 1 2.502880 6.624410 550.466492
120 0 1 2.605520 6.664210 551.407715
121 0 1 2.643240 6.997170 552.394531
122 0 1 2.659790 7.327570 553.339966
123 0 1 2.655500 7.708980 554.260315
124 0 1 2.564290 8.042377 555.204712
125 0 1 2.362760 8.542910 555.996704
126 0 1 2.245110 9.051170 556.819519
127 0 1 2.271030 9.445850 557.705933
128 0 1 2.276790 9.529290 558.675476
129 0 1 2.616700 9.555450 559.507812
130 0 1 2.757260 9.445200 560.417175
131 0 1 3.029730 9.415600 561.413330
132 0 1 3.249120 9.097630 562.333496
133 0 1 3.351740 8.809678 563.248596
134 0 1 3.432750 8.484816 564.111511
135 0 1 3.483210 8.147143 565.002991
136 0 1 3.466460 7.638568 565.784912
137 0 1 3.339730 7.124345 566.648193
138 0 1 3.447020 6.595110 567.526184
139 0 1 3.177210 6.149490 568.330078
140 0 1 2.858290 5.807040 569.137207
141 0 1 2.990660 5.364170 569.956421
142 0 1 2.945760 4.946630 570.835388
143 0 1 2.857670 4.792940 571.891418
144 0 1 2.901870 4.859080 572.838623
145 0 1 2.889190 4.692170 573.856384
146 0 1 2.854420 4.609570 574.764099
147 0 1 2.962690 4.339760 575.681702
148 0 1 3.133740 4.193720 576.648071
149 0 1 3.349170 4.179640 577.582886
150 0 1 3.541850 4.036560 578.528931
151 0 1 3.859240 3.779800 579.366211
152 0 1 4.490550 3.461590 580.070496
153 0 1 5.208260 3.212970 580.666321
154 0 1 5.821930 3.160770 581.409485
155 0 1 6.388660 2.988140 582.254395
156 0 1 7.028257 2.906420 583.074280
157 0 1 7.385564 2.767190 583.944519
158 0 1 7.747850 2.597610 584.924316
159 0 1 7.922446 2.260190 585.786011
160 0 1 8.159606 1.891530 586.614807
161 0 1 8.086535 1.899950 587.603699
162 0 1 8.002607 1.988900 588.542297
163 0 1 8.004951 2.194550 589.521301
164 0 1 7.856397 2.272960 590.442078
165 0 1 7.490722 2.328160 591.344971
166 0 1 7.238339 2.482290 592.283325
167 0 1 6.933570 2.560790 593.185608
168 0 1 6.572800 2.526450 594.075623
169 0 1 6.171680 2.678970 594.976501
170 0 1 5.853430 2.756870 595.880127
171 0 1 5.550780 2.912750 596.784119
172 0 1 5.409650 3.067420 597.726013
173 0 1 5.151310 3.271750 598.631104
174 0 1 4.801250 3.770460 599.392883
175 0 1 4.363220 4.431750 599.971619
176 0 1 3.783370 4.828560 600.571289
177 0 1 3.271870 5.059880 601.329895
178 0 1 3.250310 5.610790 602.110596
179 0 1 3.222380 6.099190 602.947205
180 0 1 3.296370 6.579140 603.772217
181 0 1 3.458930 6.738100 604.678223
182 0 1 3.658450 6.618920 605.645386
183 0 1 3.586610 6.602370 606.563171
184 0 1 3.362400 6.765350 607.545288
185 0 1 3.353300 6.891440 608.491699
186 0 1 3.146280 7.399969 609.302185
187 0 1 2.841250 7.888708 610.030823
188 0 1 2.448730 8.276440 610.788391
189 0 1 1.959320 8.776670 611.438171
190 0 1 1.756420 9.148260 612.292480
191 0 1 1.627730 9.432650 613.228394
192 0 1 1.771810 9.615000 614.173279
193 0 1 1.984060 9.988540 615.060486
194 0 1 2.072220 10.245890 616.002197
195 0 1 2.301160 10.276600 616.969971
196 0 1 2.426580 10.518170 617.895081
197 0 1 2.423520 10.941120 618.771240
198 0 1 2.423380 11.564030 619.522522
199 0 1 2.284910 11.902570 620.364990
200 0 1 2.387420 11.949020 621.303467
201 0 1 2.542850 11.809950 622.250244
202 0 1 2.598870 11.506300 623.151184
203 0 1 2.805610 11.458740 624.092834
204 0 1 3.088420 11.397720 625.075256
205 0 1 3.313140 11.430180 626.002441
206 0 1 3.490030 11.526820 626.906860
207 0 1 3.466190 11.473021 627.826233
208 0 1 3.366290 11.126340 628.733154
209 0 1 3.333660 10.799459 629.589233
210 0 1 3.191920 10.347020 630.427063
211 0 1 3.080560 9.698950 631.129150
212 0 1 3.063070 9.064210 631.864441
213 0 1 2.580290 8.601033 632.523315
214 0 1 2.276600 8.287130 633.428711
215 0 1 1.894870 7.855775 634.228455
216 0 1 1.578940 7.593958 635.110107
217 0 1 1.490540 7.404670 636.067383
218 0 1 1.428170 7.092845 637.027283
219 0 1 1.422120 6.855320 637.983521
220 0 1 1.371430 6.821160 639.009399
221 0 1 1.563110 6.891970 639.973816
222 0 1 1.732220 6.953630 640.870483
223 0 1 2.232250 6.638600 641.751221
224 0 1 2.733280 6.657400 642.548828
225 0 1 3.275150 7.003794 643.264587
226 0 1 3.962350 6.939270 643.968018
227 0 1 4.515220 7.062566 644.753601
228 0 1 4.917380 7.054506 645.619324
229 0 1 5.458610 7.022452 646.401917
230 0 1 6.064310 7.007717 647.102722
231 0 1 6.754290 7.364018 647.697327
232 0 1 7.308240 7.346562 648.447388
233 0 1 8.160323 7.380313 648.939880
234 0 1 8.969217 7.308281 649.399475
235 0 1 9.634820 7.017596 650.000671
236 0 1 10.239210 6.594930 650.646118
237 0 1 10.862090 6.367730 651.305115
238 0 1 11.296030 6.509220 652.166382
239 0 1 11.611589 6.543830 653.052795
240 0 1 11.849360 6.406630 653.972107
241 0 1 12.210510 6.261930 654.783813
242 0 1 12.342899 6.073780 655.718994
243 0 1 12.279930 6.145240 656.658203
244 0 1 12.317110 6.316610 657.592224
245 0 1 12.360910 6.767110 658.460693
246 0 1 12.371429 6.998820 659.366028
247 0 1 12.260990 7.174812 660.313110
248 0 1 11.755280 7.360589 661.114502
249 0 1 11.259660 7.895466 661.804077
250 0 1 10.828000 8.412344 662.425110
251 0 1 10.563499 9.147200 663.060974
252 0 1 10.391230 9.963540 663.577576
253 0 1 10.408040 10.716190 664.142822
254 0 1 10.197290 11.315940 664.870300
255 0 1 9.920920 11.811290 665.650208
256 0 1 9.455550 12.280640 666.360901
257 0 1 9.070210 12.749870 667.195312
258 0 1 8.705360 13.141570 668.000183
259 0 1 8.442815 13.506480 668.867676
260 0 1 8.262413 13.972830 669.664612
261 0 1 8.076105 14.247240 670.554504
262 0 1 7.888936 14.288651 671.524292
263 0 1 7.578678 14.351550 672.437500
264 0 1 7.203295 14.154970 673.263672
265 0 1 6.761560 13.953130 674.123413
266 0 1 6.262920 13.815240 674.940613
267 0 1 5.988030 13.810440 675.812012
268 0 1 6.067830 13.802710 676.849609
269 0 1 6.139240 13.299620 677.596313
270 0 1 5.930950 12.644670 678.340820
271 0 1 6.018330 12.058090 679.057617
272 0 1 6.041470 11.529260 679.889771
273 0 1 6.136380 11.268970 680.796631
274 0 1 6.513370 11.051320 681.697021
275 0 1 7.293792 10.775240 682.271606
276 0 1 7.983019 10.380910 682.791382
277 0 1 8.742314 10.168190 683.279785
278 0 1 9.561370 10.109850 683.809814
279 0 1 10.338530 10.421150 684.345215
280 0 1 10.973100 10.509010 685.120911
281 0 1 11.608940 10.579020 685.815430
282 0 1 12.028270 10.767050 686.634583
283 0 1 12.302820 11.061370 687.569824
284 0 1 12.483390 10.748480 688.553528
285 0 1 12.740040 10.340690 689.388428
286 0 1 12.889970 9.817020 690.119507
287 0 1 13.142770 9.480930 691.091919
288 0 1 13.287390 9.386220 692.047180
289 0 1 13.174749 9.116090 693.021606
290 0 1 12.946040 8.759501 693.858582
291 0 1 12.886880 8.454350 694.800598
292 0 1 12.560120 8.252632 695.701599
293 0 1 12.009350 7.992958 696.447876
294 0 1 11.435950 7.851870 697.138306
295 0 1 10.975400 7.861164 698.013977
296 0 1 10.912690 7.941073 698.979309
297 0 1 10.514441 8.038984 699.864624
298 0 1 10.369300 8.361965 700.729797
299 0 1 10.367001 8.973884 701.473083
300 0 1 10.249800 9.623960 702.113220
301 0 1 10.020260 10.425190 702.634521
302 0 1 9.980220 11.231190 703.215088
303 0 1 9.805910 12.007270 703.822632
304 0 1 9.321790 12.401330 704.512329
305 0 1 8.926672 12.843269 705.261292
306 0 1 8.494565 13.082380 706.125488
307 0 1 8.455397 13.402180 706.995911
308 0 1 8.132708 13.474461 707.883423
309 0 1 7.609627 13.803170 708.713501
310 0 1 7.413227 13.959650 709.656189
311 0 1 7.401915 13.929060 710.644409
312 0 1 7.451994 14.150970 711.674072
313 0 1 7.548330 14.305730 712.657715
314 0 1 7.530325 14.447630 713.570923
315 0 1 7.736690 14.759319 714.470825
316 0 1 8.042670 14.715150 715.447021
317 0 1 8.437627 14.552230 716.326172
318 0 1 8.867632 14.213770 717.087769
319 0 1 9.365340 13.767340 717.794495
320 0 1 9.536500 13.486050 718.645691
321 0 1 9.545530 13.146580 719.545532
322 0 1 9.859170 12.657240 720.308899
323 0 1 10.085480 12.500910 721.335693
324 0 1 10.507690 12.245330 722.194092
325 0 1 10.733270 12.381701 723.124512
326 0 1 10.716960 12.488979 724.109009
327 0 1 10.505140 12.496190 725.072083
328 0 1 10.288390 12.290970 726.003723
329 0 1 10.052790 12.082790 726.924011
330 0 1 9.660400 11.927990 727.787415
331 0 1 9.227350 11.778440 728.573975
332 0 1 8.863999 11.926940 729.521973
333 0 1 8.507987 12.205050 730.341003
334 0 1 8.276034 12.769011 731.088989
335 0 1 8.052122 13.168449 731.895020
336 0 1 7.435981 13.471991 732.664001
337 0 1 7.328651 13.675520 733.588989
338 0 1 7.180793 13.943050 734.521973
339 0 1 7.008695 14.049450 735.463013
340 0 1 6.746980 14.233110 736.349976
341 0 1 6.543130 14.308990 737.323975
342 0 1 6.373220 14.134951 738.221008
343 0 1 6.161890 13.896040 739.132019
344 0 1 6.181340 13.514930 740.015015
345 0 1 6.179010 13.609330 740.979004
346 0 1 6.420380 13.734650 741.906006
347 0 1 6.558920 13.380720 742.718018
348 0 1 6.697400 12.924681 743.650024
349 0 1 6.742610 12.146080 744.388977
350 0 1 7.118141 11.573800 745.145996
351 0 1 7.568748 10.913970 745.723022
352 0 1 7.756913 10.197830 746.250977
353 0 1 8.103843 9.453050 746.718994
354 0 1 8.135534 8.506740 746.898987
355 0 1 8.070926 7.609501 747.317993
356 0 1 8.069099 6.892800 747.893982
357 0 1 8.274099 6.517390 748.810974
358 0 1 8.531724 6.099790 749.627991
359 0 1 8.912162 5.799780 750.510010
360 0 1 9.473730 5.688960 751.231995
361 0 1 9.747510 5.412890 752.080017
362 0 1 9.804930 4.856790 752.872009
363 0 1 9.590340 4.439940 753.695007
364 0 1 9.368660 3.874700 754.398987
365 0 1 9.178620 3.293250 755.151001
366 0 1 9.070580 3.044550 756.054993
367 0 1 9.107130 2.835340 756.978027
368 0 1 9.218270 2.662510 757.957031
369 0 1 8.937803 2.351040 758.908020
370 0 1 8.632157 1.933090 759.744019
371 0 1 8.285702 1.746320 760.612000
372 0 1 8.106732 1.867960 761.570007
373 0 1 8.150599 2.019690 762.521973
374 0 1 8.163486 2.316470 763.411987
375 0 1 8.211721 2.467630 764.359985
376 0 1 7.974774 2.714000 765.223022
377 0 1 7.539186 2.398340 766.109009
378 0 1 7.312735 2.227970 767.020020
379 0 1 7.100837 2.182280 767.988037
380 0 1 7.026418 2.231960 768.932983
381 0 1 7.243144 2.351740 769.929016
382 0 1 7.467910 2.448400 770.864014
383 0 1 7.526570 2.481790 771.822021
384 0 1 7.617730 2.373420 772.775024
385 0 1 7.340725 2.339670 773.638000
386 0 1 7.427237 2.485500 774.557007
387 0 1 7.605662 2.415360 775.484985
388 0 1 7.748027 2.296300 776.440002
389 0 1 7.878517 2.256330 777.393005
390 0 1 8.057560 2.514410 778.286011
391 0 1 7.998372 2.711770 779.228027
392 0 1 8.029359 2.887680 780.210022
393 0 1 8.123116 2.916030 781.169006
394 0 1 8.341008 2.773710 782.057983
395 0 1 8.696898 2.853770 782.973022
396 0 1 9.037330 2.764000 783.848999
397 0 1 9.561740 2.745750 784.697998
398 0 1 10.001200 2.820350 785.541016
399 0 1 10.509490 2.963800 786.356018
400 0 1 10.825730 3.179990 787.221985
401 0 1 11.047890 3.642740 788.059998
402 0 1 11.401040 4.157270 788.783997
403 0 1 11.627740 4.735760 789.583008
404 0 1 11.335510 5.278900 790.408020
405 0 1 11.219040 5.898430 791.091980
406 0 1 11.364250 6.488620 791.877014
407 0 1 11.510060 6.793760 792.809021
408 0 1 11.397250 6.825120 793.735962
409 0 1 11.478430 6.914860 794.705994
410 0 1 11.656510 7.218828 795.594971
411 0 1 11.719820 7.495883 796.450989
412 0 1 11.764760 7.747403 797.385010
413 0 1 11.924240 7.677034 798.292969
414 0 1 12.394660 7.558921 799.114014
415 0 1 12.695641 7.327875 800.035034
416 0 1 12.748260 6.931630 800.885986
417 0 1 12.868210 6.534100 801.728027
418 0 1 13.104530 5.986330 802.525024
419 0 1 13.170790 5.410980 803.309021
420 0 1 13.081310 4.791680 804.088013
421 0 1 12.812910 4.608470 805.023987
422 0 1 12.506680 4.329710 805.934998
423 0 1 12.402531 4.091500 806.859985
424 0 1 12.292910 3.932690 807.761963
425 0 1 12.148760 3.805450 808.676025
426 0 1 12.007191 4.070230 809.608032
427 0 1 11.810750 4.288320 810.587036
428 0 1 11.798030 4.740780 811.442993
429 0 1 11.519600 5.183260 812.268005
430 0 1 11.461140 5.879250 812.945007
431 0 1 11.098460 6.448590 813.627991
432 0 1 11.210630 6.813590 814.488037
433 0 1 11.116720 7.179945 815.330017
434 0 1 11.081300 7.483322 816.273010
435 0 1 11.100719 7.853528 817.242004
436 0 1 11.265260 8.092246 818.192993
437 0 1 11.397520 8.246259 819.188965
438 0 1 11.144660 8.290435 820.117981
439 0 1 10.748380 8.339723 821.033997
440 0 1 10.656970 8.091537 821.994995
441 0 1 10.609780 7.908788 822.916016
442 0 1 10.435150 8.068603 823.843994
443 0 1 10.333380 8.092304 824.854980
444 0 1 9.834170 7.814089 825.747986
445 0 1 9.266780 7.676368 826.468994
446 0 1 8.645155 7.647140 827.195007
447 0 1 7.980664 7.783473 827.896973
448 0 1 7.344845 8.042892 828.588013
449 0 1 6.676530 8.280301 829.263000
450 0 1 6.032270 8.546482 829.921021
451 0 1 5.404760 8.520461 830.601013
452 0 1 5.017870 8.289165 831.487000
453 0 1 4.386960 7.877024 832.104980
454 0 1 3.837260 7.468711 832.740967
455 0 1 3.558960 7.133806 833.599976
456 0 1 3.161170 7.238747 834.440979
457 0 1 2.875140 7.372730 835.364990
458 0 1 2.506250 7.341164 836.283997
459 0 1 2.531110 7.273987 837.265015
460 0 1 2.663500 7.293018 838.203003
461 0 1 3.033030 7.452850 839.046021
462 0 1 3.649650 7.713174 839.839966
463 0 1 4.436230 7.749887 840.466003
464 0 1 5.373320 7.852034 840.656982
465 0 1 6.290750 8.108242 840.638000
466 0 1 7.091075 8.526387 840.244019
467 0 1 7.691138 8.881843 839.570984
468 0 1 8.371878 9.281620 839.009033
469 0 1 8.540022 9.594080 838.109985
470 0 1 8.767210 9.787570 837.174011
471 0 1 9.013350 9.864530 836.304993
472 0 1 9.209050 9.720720 835.360962
473 0 1 9.201990 9.611570 834.375000
474 0 1 8.880189 9.658130 833.374023
475 0 1 8.755256 9.665790 832.421021
476 0 1 8.784719 9.485900 831.536987
477 0 1 9.021160 9.074880 830.684998
478 0 1 9.236000 8.747123 829.802979
479 0 1 9.503270 8.414885 828.880005
480 0 1 9.739560 7.854100 828.153992
481 0 1 10.223650 7.406148 827.429016
482 0 1 10.764240 7.009575 826.695984
483 0 1 11.343081 6.832400 825.877014
484 0 1 11.882990 6.714620 825.122986
485 0 1 12.430850 6.859810 824.332031
486 0 1 12.955299 6.875610 823.531982
487 0 1 13.451340 6.783900 822.707031
488 0 1 13.853200 6.764250 821.802002
489 0 1 13.950490 6.967810 820.924011
490 0 1 13.982960 7.024244 819.911011
491 0 1 13.649710 7.396023 818.971985
492 0 1 13.375290 7.804056 818.096985
493 0 1 13.266720 8.145819 817.184021
494 0 1 13.151600 8.243049 816.205994
495 0 1 13.007680 8.093496 815.260986
496 0 1 12.541150 7.711827 814.411987
497 0 1 12.181180 7.651199 813.549011
498 0 1 11.865440 7.332634 812.721008
499 0 1 11.426170 7.375259 811.843018
500 0 1 11.016330 7.219530 810.926025
501 0 1 10.784210 7.026431 809.934021
502 0 1 10.490020 7.181860 809.031982
503 0 1 9.712600 6.960000 808.468994
504 0 1 8.795039 6.722780 808.037964
505 0 1 7.915134 6.566620 807.523987
506 0 1 7.482367 6.187890 806.739014
507 0 1 7.529712 5.839340 805.838989
508 0 1 7.674093 5.447050 805.025024
509 0 1 7.752182 4.887190 804.161987
510 0 1 7.702342 4.325870 803.349976
511 0 1 7.818371 3.757360 802.521973
512 0 1 7.851941 3.257190 801.718018
513 0 1 7.606251 2.834260 800.870972
514 0 1 7.306987 2.592910 800.031006
515 0 1 7.233400 2.250300 799.078003
516 0 1 7.331307 2.126430 798.176025
517 0 1 7.539424 2.200780 797.273010
518 0 1 7.596846 2.484800 796.370972
519 0 1 7.887264 2.676470 795.484009
520 0 1 8.212248 2.761990 794.606995
521 0 1 8.361767 2.805900 793.651978
522 0 1 8.116695 2.723760 792.658997
523 0 1 7.913222 2.527110 791.713013
524 0 1 7.674885 2.487130 790.783997
525 0 1 7.234864 2.473950 789.906006
526 0 1 6.892670 2.489050 788.937012
527 0 1 6.869510 2.444840 787.960999
528 0 1 6.671360 2.674400 787.002991
529 0 1 6.386420 3.171710 786.192993
530 0 1 6.339600 3.472440 785.239990
531 0 1 6.220380 3.748670 784.285034
532 0 1 6.048490 4.126860 783.412964
533 0 1 5.991280 4.743930 782.650024
534 0 1 5.923560 5.456080 781.992004
535 0 1 5.737060 6.159500 781.348022
536 0 1 5.553630 6.858360 780.750977
537 0 1 5.329110 7.259700 779.891968
538 0 1 5.159380 7.745616 779.115967
539 0 1 4.700570 8.196536 778.354004
540 0 1 4.338640 8.317135 777.481995
541 0 1 4.074380 8.496652 776.559998
542 0 1 3.777440 8.885361 775.791016
543 0 1 3.709320 9.102360 774.844971
544 0 1 3.423130 9.149880 773.906982
545 0 1 3.158990 9.307950 773.010986
546 0 1 3.330760 9.161230 772.104004
547 0 1 3.446490 8.984887 771.148010
548 0 1 3.481900 8.792683 770.212036
549 0 1 3.558220 8.865912 769.198975
550 0 1 3.446640 8.797550 768.286987
551 0 1 3.345550 8.994004 767.302979
552 0 1 3.032830 9.246060 766.478027
553 0 1 2.826780 9.348710 765.544006
554 0 1 2.633770 9.673710 764.674011
555 0 1 2.806900 9.758870 763.733032
556 0 1 2.831100 10.032351 762.806030
557 0 1 2.999120 10.305130 761.879028
558 0 1 3.118420 10.668730 761.062012
559 0 1 3.021120 10.825130 760.078003
560 0 1 2.855340 10.795170 759.140015
561 0 1 2.774150 11.109510 758.250977
562 0 1 2.744870 11.083651 757.299011
563 0 1 2.597500 10.990050 756.369019
564 0 1 2.598610 10.839060 755.458008
565 0 1 2.797900 10.421650 754.603027
566 0 1 2.965090 9.937180 753.752014
567 0 1 3.326190 9.630370 752.835022
568 0 1 3.321880 9.440250 751.901978
569 0 1 3.355050 9.316960 750.950012
570 0 1 3.450190 9.317430 750.000000
571 0 1 3.773700 9.377080 749.057007
572 0 1 4.120600 9.214600 748.198975
573 0 1 4.176560 9.137800 747.245972
574 0 1 4.426810 9.155390 746.260010
575 0 1 4.610820 9.153140 745.231018
576 0 1 4.719070 9.099070 744.296021
577 0 1 5.049310 8.851505 743.375000
578 0 1 5.478960 8.758895 742.507996
579 0 1 5.740970 8.483676 741.630981
580 0 1 5.951250 8.357939 740.653015
581 0 1 6.119840 8.492285 739.744995
582 0 1 6.290750 8.737376 738.791992
583 0 1 6.579930 8.986693 737.872986
584 0 1 6.768360 9.116180 736.958984
585 0 1 6.823740 9.484180 736.075989
586 0 1 6.649640 9.872630 735.239014
587 0 1 6.707020 10.148200 734.323975
588 0 1 6.698690 10.203560 733.374023
589 0 1 6.882700 10.072599 732.375000
590 0 1 6.910640 10.248720 731.489990
591 0 1 7.121017 10.182880 730.601990
592 0 1 7.339758 10.343821 729.669983
593 0 1 7.414142 10.472300 728.702026
594 0 1 7.271434 10.509100 727.770874
595 0 1 7.067010 10.400710 726.747986
596 0 1 7.101072 10.395960 725.819824
597 0 1 7.329123 10.376850 724.880310
598 0 1 7.314913 10.288480 723.909424
599 0 1 7.223506 10.308870 722.980774
600 0 1 7.369993 10.186340 722.009033
601 0 1 7.776026 10.363750 721.136292
602 0 1 8.386303 10.471291 720.413574
603 0 1 9.005730 10.707980 719.736572
604 0 1 9.724790 10.757590 719.081909
605 0 1 10.090400 10.930720 718.210022
606 0 1 10.162580 11.266230 717.345886
607 0 1 9.972740 11.516050 716.473267
608 0 1 10.045650 11.811300 715.515015
609 0 1 9.810990 11.992730 714.599487
610 0 1 9.403650 11.903800 713.708313
611 0 1 8.903072 11.920570 712.874634
612 0 1 8.504995 11.998260 711.939514
613 0 1 8.184376 11.811420 711.046692
614 0 1 8.274254 11.805460 710.049927
615 0 1 8.537730 11.699200 709.128479
616 0 1 8.782326 11.286460 708.318176
617 0 1 9.034540 11.083730 707.351013
618 0 1 9.125520 10.840179 706.398926
619 0 1 8.995110 10.106350 705.725403
620 0 1 8.705616 9.489080 705.059814
621 0 1 8.190476 9.164530 704.246521
622 0 1 8.128835 9.044210 703.276917
623 0 1 8.043499 8.982130 702.326294
624 0 1 7.964373 8.969175 701.351196
625 0 1 7.632272 9.119950 700.497192
626 0 1 7.416570 9.412340 699.596497
627 0 1 7.303985 9.278540 698.635681
628 0 1 6.991950 8.875481 697.796204
629 0 1 6.716550 8.169832 697.194885
630 0 1 6.422240 7.861447 696.331299
631 0 1 6.192800 7.812397 695.440674
632 0 1 5.886450 7.627450 694.542603
633 0 1 5.479820 7.476511 693.711670
634 0 1 5.082810 7.406195 692.864685
635 0 1 4.897070 7.650364 691.861816
636 0 1 4.744410 8.014068 690.993530
637 0 1 4.435550 8.370457 690.171326
638 0 1 4.153630 8.640537 689.278992
639 0 1 4.011720 9.021820 688.367615
640 0 1 3.888100 9.390200 687.493896
641 0 1 3.753580 9.451220 686.492188
642 0 1 3.792540 9.558500 685.559814
643 0 1 4.095860 9.638340 684.629822
644 0 1 4.492520 9.713490 683.710388
645 0 1 4.922750 9.721180 682.850830
646 0 1 5.320120 9.852090 682.070190
647 0 1 5.913850 9.932500 681.283997
648 0 1 6.454910 10.123960 680.446106
649 0 1 7.046751 10.045800 679.646423
650 0 1 7.431320 9.821660 678.728394
651 0 1 7.808469 9.342590 678.008179
652 0 1 8.168373 8.780313 677.201294
653 0 1 8.472932 8.182792 676.528503
654 0 1 8.778018 7.927613 675.638672
655 0 1 9.256970 7.706250 674.864624
656 0 1 9.950450 7.458097 674.225830
657 0 1 10.497770 7.249704 673.466309
658 0 1 10.814870 7.170082 672.552185
659 0 1 10.917220 6.925720 671.667419
660 0 1 10.959410 6.751320 670.764709
661 0 1 11.213580 6.869840 669.792114
662 0 1 11.693590 6.925400 668.850281
663 0 1 12.281120 6.842220 667.975708
664 0 1 12.661261 6.604050 667.043579
665 0 1 12.720330 6.334010 666.135132
666 0 1 12.818740 5.994350 665.186279
667 0 1 12.648890 5.957440 664.278015
668 0 1 12.220060 5.813330 663.403625
669 0 1 11.799510 5.546240 662.623596
670 0 1 11.237410 5.508680 661.777222
671 0 1 10.724860 5.147490 660.942078
672 0 1 9.877520 5.131210 660.448486
673 0 1 9.035660 5.174270 659.945801
674 0 1 8.215377 5.627450 659.825806
675 0 1 7.311418 5.656410 659.552612
676 0 1 6.497440 5.434040 659.012695
677 0 1 6.131660 5.562360 658.174805
678 0 1 5.352590 5.423310 657.512695
679 0 1 4.673930 5.513670 656.852600
680 0 1 4.028290 5.788690 656.192993
681 0 1 3.500720 6.195180 655.472778
682 0 1 2.975370 6.679620 654.830872
683 0 1 2.782190 7.222888 654.108704
684 0 1 2.462280 7.801194 653.389282
685 0 1 2.413070 8.378156 652.580383
686 0 1 2.422180 8.911747 651.817017
687 0 1 2.507540 9.513670 651.046814
688 0 1 2.616620 10.230350 650.443115
689 0 1 2.910840 10.854770 649.791077
690 0 1 3.329770 11.264950 649.032898
691 0 1 3.734990 11.285810 648.125610
692 0 1 4.124680 11.600560 647.311890
693 0 1 4.760680 11.698890 646.447388
694 0 1 5.444310 11.793500 645.784790
695 0 1 5.877370 11.823000 644.931702
696 0 1 6.074680 11.917270 643.929871
697 0 1 6.387890 11.973989 642.984497
698 0 1 6.731710 11.924060 642.119507
699 0 1 6.956220 12.170259 641.169922
700 0 1 7.419044 12.262270 640.281189
701 0 1 7.988772 12.265210 639.535278
702 0 1 8.076931 12.709110 638.655518
703 0 1 8.365051 12.977350 637.799561
704 0 1 8.837078 12.917430 637.005859
705 0 1 9.526640 12.795750 636.330994
706 0 1 10.335260 12.605190 635.761902
707 0 1 10.521300 12.219090 634.882507
708 0 1 10.641390 11.807380 634.026184
709 0 1 10.624140 11.424410 633.055847
710 0 1 10.727261 11.031620 632.166565
711 0 1 10.928180 10.827230 631.271118
712 0 1 11.095760 10.504670 630.420349
713 0 1 11.222130 10.228090 629.446838
714 0 1 11.195470 9.855860 628.569153
715 0 1 11.149910 9.657670 627.557007
716 0 1 11.183720 9.366150 626.602234
717 0 1 11.307420 8.974894 625.640808
718 0 1 11.256890 8.705665 624.758850
719 0 1 11.456200 8.732408 623.833862
720 0 1 11.550961 8.683747 622.848511
721 0 1 11.548980 8.840200 621.896118
722 0 1 11.600010 8.678431 620.927856
723 0 1 11.417700 8.608262 619.947510
724 0 1 11.167789 8.184555 619.086792
725 0 1 10.922200 7.938818 618.160889
726 0 1 10.544720 7.550185 617.399109
727 0 1 10.327690 7.234954 616.431274
728 0 1 10.294950 7.068789 615.452026
729 0 1 10.461210 6.940800 614.439880
730 0 1 10.730730 6.700290 613.492981
731 0 1 10.934110 6.657330 612.565796
732 0 1 11.019050 6.400770 611.693726
733 0 1 11.337300 6.032090 610.895691
734 0 1 11.438931 5.772380 609.988708
735 0 1 11.552410 5.678800 608.992188
736 0 1 11.702650 5.704770 608.054016
737 0 1 11.660930 5.984880 607.137207
738 0 1 11.256610 6.162520 606.286804
739 0 1 10.790480 6.146180 605.497498
740 0 1 10.141780 5.883810 604.863586
741 0 1 9.477720 5.461870 604.282776
742 0 1 8.719402 5.148410 603.781921
743 0 1 7.910377 5.151400 603.199280
744 0 1 7.366413 5.095730 602.452271
745 0 1 6.785370 5.060520 601.686096
746 0 1 6.097010 4.954790 600.962402
747 0 1 5.401990 4.897120 600.216614
748 0 1 4.895120 5.232330 599.429688
749 0 1 4.502630 5.617900 598.627014
750 0 1 3.908000 5.612900 597.865173
751 0 1 3.405080 5.761130 597.060608
752 0 1 3.077840 5.991380 596.179077
753 0 1 2.753710 6.391620 595.443176
754 0 1 2.329340 6.763630 594.651428
755 0 1 1.745090 6.906260 593.888123
756 0 1 1.429280 7.175946 592.997681
757 0 1 1.263860 7.334032 592.067322
758 0 1 1.427900 7.487195 591.164307
759 0 1 1.566160 7.802769 590.243286
760 0 1 1.695740 8.305549 589.444275
761 0 1 2.017040 8.669769 588.641602
762 0 1 2.386140 9.094550 587.844910
763 0 1 3.002570 9.646010 587.343323
764 0 1 3.593020 10.134769 586.726685
765 0 1 4.332310 10.593170 586.218323
766 0 1 4.989010 10.731500 585.541077
767 0 1 5.439340 10.916140 584.625000
768 0 1 5.932840 11.012850 583.793884
769 0 1 6.499630 11.064310 582.961792
770 0 1 6.806850 10.992599 582.041992
771 0 1 7.106514 10.698750 581.091675
772 0 1 7.354564 10.182590 580.282227
773 0 1 7.706541 9.766580 579.496277
774 0 1 8.027071 9.389950 578.688599
775 0 1 8.425298 8.748820 578.128296
776 0 1 8.812294 8.086090 577.443604
777 0 1 9.062630 7.770298 576.542419
778 0 1 9.087250 7.516426 575.654724
779 0 1 9.063850 7.380418 574.702271
780 0 1 9.109570 7.201125 573.750305
781 0 1 9.189740 6.906200 572.838928
782 0 1 9.349590 6.577250 571.917480
783 0 1 9.327660 6.222700 571.001892
784 0 1 9.452930 5.742650 570.152832
785 0 1 9.644130 5.253740 569.328186
786 0 1 9.248300 5.033680 568.443970
787 0 1 8.973104 4.937840 567.510193
788 0 1 8.356680 4.760360 566.718689
789 0 1 7.825506 4.834410 565.990417
790 0 1 7.522310 4.903860 565.012390
791 0 1 7.139195 5.396300 564.278625
792 0 1 6.773640 5.653570 563.422119