LAMMPS data file via MDAnalysis

        1000  atoms
        1000  bonds
        1000  angles
           0  dihedrals
           0  impropers

           1  atom types
           1  bond types
           1  angle types
           0  dihedral types
           0  improper types

0.000000 16.000000 xlo xhi
0.000000 16.000000 ylo yhi
0.000000 1257.000000 zlo zhi


Masses

1 1.000000

Atoms

1 0 1 4.082690 7.435763 463.003998
2 0 1 4.067820 7.569004 463.947021
3 0 1 4.195500 7.692422 464.862000
4 0 1 3.926320 7.834221 465.765015
5 0 1 3.675030 8.202286 466.723022
6 0 1 3.409750 8.815626 467.411987
7 0 1 3.279050 9.416940 468.184021
8 0 1 3.328850 10.057470 469.016998
9 0 1 3.504200 10.470750 469.968018
10 0 1 3.678230 10.808440 470.856995
11 0 1 4.089260 10.866840 471.712006
12 0 1 4.665930 10.958410 472.462006
13 0 1 5.130990 11.307710 473.187012
14 0 1 5.466740 11.705780 474.031982
15 0 1 5.886350 11.764900 474.825012
16 0 1 6.594170 11.771920 475.550995
17 0 1 7.181569 11.730690 476.408020
18 0 1 7.679240 11.526400 477.268982
19 0 1 8.256542 11.389700 478.072998
20 0 1 8.674649 11.389260 478.890015
21 0 1 9.053530 11.486120 479.804993
22 0 1 9.159400 11.629220 480.761993
23 0 1 9.257870 11.428680 481.740997
24 0 1 9.252000 11.001160 482.627014
25 0 1 8.868900 10.690100 483.471985
26 0 1 8.759694 10.273570 484.313995
27 0 1 8.699797 9.967381 485.226990
28 0 1 8.511887 9.550110 486.088013
29 0 1 8.382609 9.272320 487.069000
30 0 1 8.286078 9.000050 488.039001
31 0 1 8.219311 8.780085 488.942017
32 0 1 8.205274 8.256587 489.757019
33 0 1 8.023257 8.036839 490.664978
34 0 1 7.858396 7.669169 491.536987
35 0 1 7.523711 7.133403 492.279999
36 0 1 7.454216 6.856290 493.213013
37 0 1 7.397783 6.587110 494.106995
38 0 1 7.176042 6.537580 495.057007
39 0 1 7.105537 6.619790 496.069000
40 0 1 7.034120 6.934750 496.957001
41 0 1 7.048229 7.043194 498.029999
42 0 1 7.050326 7.042309 498.937012
43 0 1 6.844090 6.874470 499.891998
44 0 1 6.561270 6.746240 500.850006
45 0 1 6.371060 6.655350 501.773987
46 0 1 6.345010 6.373330 502.678009
47 0 1 6.395040 5.893960 503.432983
48 0 1 6.521410 5.378230 504.240997
49 0 1 6.718850 4.865700 505.015991
50 0 1 7.031266 4.348790 505.794006
51 0 1 7.351426 4.372690 506.660004
52 0 1 7.919966 4.193330 507.360992
53 0 1 8.565653 4.345860 508.023987
54 0 1 9.168230 4.692510 508.687988
55 0 1 9.682420 5.089800 509.440002
56 0 1 9.859050 5.771000 510.153015
57 0 1 10.184930 6.506480 510.713989
58 0 1 10.288960 7.208716 511.432007
59 0 1 10.218610 7.873945 512.078979
60 0 1 9.900060 8.529963 512.749023
61 0 1 9.667710 8.903614 513.586975
62 0 1 9.488330 9.131770 514.542969
63 0 1 9.235460 9.418870 515.460999
64 0 1 9.051380 9.684390 516.306030
65 0 1 9.019730 9.900340 517.234985
66 0 1 8.920409 10.119101 518.164001
67 0 1 8.769513 10.473760 519.004028
68 0 1 8.404412 10.493670 519.958008
69 0 1 8.080200 10.213860 520.835022
70 0 1 7.995031 9.956700 521.755981
71 0 1 7.701849 9.733850 522.643982
72 0 1 7.582085 9.718950 523.567993
73 0 1 7.585278 9.743760 524.562988
74 0 1 7.403861 9.898390 525.479980
75 0 1 7.027698 9.905220 526.411011
76 0 1 6.569440 9.795330 527.354980
77 0 1 6.246510 9.615860 528.312988
78 0 1 6.154380 9.347260 529.279724
79 0 1 5.955780 8.766890 530.007019
80 0 1 5.497250 8.287302 530.728027
81 0 1 4.916940 7.935432 531.368225
82 0 1 4.397740 7.774815 532.220276
83 0 1 3.857830 7.426497 532.956726
84 0 1 3.483120 7.110365 533.799988
85 0 1 3.352680 6.545290 534.629272
86 0 1 3.403450 5.854820 535.297974
87 0 1 3.747780 5.240890 536.015198
88 0 1 4.242740 4.620520 536.508118
89 0 1 4.885650 4.108550 537.048218
90 0 1 5.748340 4.001610 537.441772
91 0 1 6.584750 4.006530 538.037415
92 0 1 7.406359 3.793280 538.685425
93 0 1 7.835939 3.291940 539.373779
94 0 1 8.225896 3.053980 540.236877
95 0 1 8.739705 2.697430 540.923889
96 0 1 9.304700 2.683270 541.672607
97 0 1 9.784180 2.610630 542.474915
98 0 1 10.294690 2.593010 543.298584
99 0 1 10.955750 2.789600 543.949829
100 0 1 11.554450 2.988820 544.673096
101 0 1 12.133360 3.425960 545.335693
102 0 1 12.475821 3.825340 546.197693
103 0 1 12.590020 4.150610 547.059326
104 0 1 13.008881 4.749000 547.683289
105 0 1 13.233490 5.448960 548.321777
106 0 1 13.425819 5.902510 549.209473
107 0 1 13.264020 6.147250 550.078674
108 0 1 13.240030 6.342730 551.018494
109 0 1 13.278410 6.524840 551.988770
110 0 1 13.682070 6.731080 552.841492
111 0 1 13.894341 6.813240 553.773987
112 0 1 14.347731 7.067295 554.637512
113 0 1 14.397620 7.719764 555.418274
114 0 1 14.038410 8.269335 556.021973
115 0 1 13.623060 8.985159 556.423401
116 0 1 13.180070 9.808690 556.609924
117 0 1 12.897810 10.436150 557.233215
118 0 1 12.892530 10.671360 558.170776
119 0 1 12.660240 10.820930 559.086670
120 0 1 12.442070 11.076080 559.972290
121 0 1 12.294130 10.862710 560.919617
122 0 1 12.254049 10.949580 561.945801
123 0 1 12.254601 11.118670 562.906982
124 0 1 12.103300 11.204980 563.847412
125 0 1 11.988670 11.390610 564.753784
126 0 1 11.539360 11.568990 565.615173
127 0 1 11.174840 11.554200 566.528320
128 0 1 10.534840 11.562550 567.250000
129 0 1 9.909550 11.576340 568.185791
130 0 1 9.356570 11.380140 568.969299
131 0 1 8.996717 11.245440 569.961121
132 0 1 8.485308 11.040649 570.772278
133 0 1 7.961852 10.833150 571.545532
134 0 1 7.535729 11.012400 572.315796
135 0 1 7.046841 10.996660 573.181030
136 0 1 6.729250 11.014500 574.132690
137 0 1 6.523620 10.731300 575.050293
138 0 1 5.952320 10.430770 575.853271
139 0 1 5.822510 10.482850 576.794922
140 0 1 5.687310 10.703730 577.722717
141 0 1 5.808130 10.799260 578.639526
142 0 1 6.140430 11.098740 579.442871
143 0 1 6.790580 11.146580 580.187622
144 0 1 7.484665 11.102130 580.766785
145 0 1 8.220436 11.325330 581.421204
146 0 1 9.040930 11.386530 581.950195
147 0 1 9.613760 11.581310 582.700806
148 0 1 9.709690 12.100250 583.498413
149 0 1 10.028530 12.610800 584.299194
150 0 1 10.201350 12.958700 585.179626
151 0 1 10.342319 13.126670 586.128479
152 0 1 10.122080 13.430620 587.099731
153 0 1 9.999300 13.693310 588.037415
154 0 1 9.591190 13.477700 588.927979
155 0 1 9.191870 13.089581 589.734009
156 0 1 9.037590 12.679171 590.545105
157 0 1 8.817486 12.268970 591.436218
158 0 1 8.533806 11.995430 592.313904
159 0 1 8.337058 11.396510 593.101196
160 0 1 8.181901 11.107350 593.997681
161 0 1 7.925888 10.521151 594.754211
162 0 1 7.740269 9.935880 595.504272
163 0 1 7.601368 9.550300 596.456482
164 0 1 7.377710 9.324000 597.302917
165 0 1 7.200465 8.759655 598.106506
166 0 1 7.145837 8.094285 598.763489
167 0 1 7.245923 7.411240 599.491821
168 0 1 7.516325 6.760130 600.130493
169 0 1 8.103694 6.210950 600.802124
170 0 1 8.511369 5.766420 601.509888
171 0 1 8.873739 5.418170 602.330994
172 0 1 9.197250 5.136700 603.165527
173 0 1 9.070800 4.461850 603.858582
174 0 1 9.079350 3.617700 604.397278
175 0 1 9.006760 3.027710 605.131775
176 0 1 9.204460 2.688800 605.985474
177 0 1 9.189930 2.847460 606.950500
178 0 1 9.457590 3.107060 607.830688
179 0 1 9.838970 3.463040 608.711914
180 0 1 9.714690 3.910200 609.550171
181 0 1 9.777850 4.269520 610.508301
182 0 1 10.174340 4.779790 611.236389
183 0 1 10.613100 5.249460 611.977600
184 0 1 10.961400 5.617230 612.799805
185 0 1 11.277300 5.818430 613.688477
186 0 1 11.542020 6.074330 614.521729
187 0 1 11.549080 6.561820 615.348694
188 0 1 11.318720 6.781650 616.199524
189 0 1 10.966810 7.250031 616.942993
190 0 1 10.718850 7.531613 617.811707
191 0 1 10.881240 7.789332 618.766968
192 0 1 11.096870 7.883716 619.734558
193 0 1 11.289289 8.052248 620.696228
194 0 1 11.065030 7.957059 621.662354
195 0 1 10.715100 7.528843 622.466064
196 0 1 10.501060 7.003338 623.201660
197 0 1 10.153780 6.551870 623.969727
198 0 1 9.993130 6.317400 624.871338
199 0 1 9.904980 6.364180 625.801453
200 0 1 10.011340 6.301720 626.706055
201 0 1 9.743220 6.042440 627.667480
202 0 1 9.379910 5.978360 628.548462
203 0 1 8.803487 6.030690 629.270874
204 0 1 8.090117 5.699150 629.814697
205 0 1 7.601979 5.305830 630.591003
206 0 1 7.530133 4.997550 631.452942
207 0 1 7.591746 4.890730 632.464417
208 0 1 7.497792 4.943160 633.375610
209 0 1 6.951750 5.050800 634.149231
210 0 1 6.441140 5.127110 634.975098
211 0 1 6.219750 5.063900 635.919067
212 0 1 6.126310 5.062110 636.903687
213 0 1 6.141550 5.171330 637.874939
214 0 1 6.177070 5.084760 638.838501
215 0 1 6.184020 4.688370 639.762329
216 0 1 6.575560 4.384480 640.563477
217 0 1 7.243611 4.533230 641.267883
218 0 1 7.742623 4.557700 642.102478
219 0 1 8.228304 4.601880 642.940674
220 0 1 8.697376 4.560620 643.808411
221 0 1 9.460640 4.718870 644.446106
222 0 1 10.247440 4.840230 645.074585
223 0 1 10.870240 4.732370 645.760498
224 0 1 11.149970 4.477400 646.608093
225 0 1 11.627340 4.278200 647.427307
226 0 1 12.192650 4.265970 648.184692
227 0 1 12.470020 4.147450 649.086792
228 0 1 12.859910 3.886860 649.938110
229 0 1 13.138360 3.895810 650.903687
230 0 1 13.209220 4.014670 651.860229
231 0 1 13.343400 3.922240 652.823303
232 0 1 13.234320 3.947910 653.813110
233 0 1 13.311850 3.854490 654.882629
234 0 1 12.941490 3.880410 655.828308
235 0 1 12.479919 3.823480 656.687500
236 0 1 12.115700 3.872250 657.571777
237 0 1 11.810740 3.695510 658.462708
238 0 1 11.317801 3.685590 659.294678
239 0 1 10.806290 3.765300 660.151184
240 0 1 10.350970 3.857950 660.992004
241 0 1 9.854640 3.949610 661.777222
242 0 1 9.358690 3.985850 662.638916
243 0 1 9.084620 3.998990 663.562195
244 0 1 8.791762 4.087450 664.456116
245 0 1 8.371355 4.388090 665.284485
246 0 1 7.972318 4.765670 666.061890
247 0 1 7.631483 5.147360 666.903503
248 0 1 7.464118 5.495890 667.781372
249 0 1 7.353733 5.727340 668.765625
250 0 1 7.492201 6.070200 669.672302
251 0 1 7.697232 6.441380 670.558228
252 0 1 7.663426 6.840840 671.488220
253 0 1 7.618649 7.233263 672.361084
254 0 1 7.466934 7.654413 673.220093
255 0 1 7.105904 8.013914 674.018799
256 0 1 6.859170 8.418267 674.799622
257 0 1 6.567030 9.090000 675.379578
258 0 1 6.102410 9.569570 676.067810
259 0 1 5.557340 9.982430 676.665527
260 0 1 5.480860 10.402590 677.475403
261 0 1 5.303320 10.466540 678.416809
262 0 1 5.012210 10.537460 679.347107
263 0 1 4.622700 10.400579 680.277710
264 0 1 4.113570 10.119761 681.043884
265 0 1 3.825530 9.482380 681.658081
266 0 1 3.623320 8.617192 682.110413
267 0 1 3.492700 7.814618 682.672729
268 0 1 3.450970 7.051936 683.213074
269 0 1 3.184590 6.411300 683.862427
270 0 1 2.897710 5.970470 684.642578
271 0 1 2.625670 5.702830 685.525024
272 0 1 2.587180 5.701620 686.490601
273 0 1 2.569440 5.973290 687.385925
274 0 1 2.550520 6.341700 688.271118
275 0 1 2.846790 6.379200 689.178894
276 0 1 3.190620 6.400050 690.073792
277 0 1 3.617460 6.181560 690.897217
278 0 1 3.859680 6.221060 691.906311
279 0 1 3.913280 6.054200 692.858582
280 0 1 3.893930 5.951600 693.775696
281 0 1 4.114420 5.932300 694.792908
282 0 1 4.164380 6.228070 695.727478
283 0 1 4.388830 6.518730 696.603027
284 0 1 4.657490 6.790320 697.472534
285 0 1 4.654470 7.400339 698.222412
286 0 1 4.925010 7.920253 698.961121
287 0 1 5.412770 8.506707 699.574219
288 0 1 6.021240 8.845125 700.247192
289 0 1 6.413260 8.980208 701.142883
290 0 1 6.686320 9.117750 702.108704
291 0 1 6.889600 8.997052 703.025574
292 0 1 7.206918 9.093010 704.011902
293 0 1 7.514908 9.127330 704.890686
294 0 1 8.221988 9.172870 705.615967
295 0 1 8.956376 9.151170 706.226074
296 0 1 9.754550 9.073810 706.762695
297 0 1 10.591280 8.664590 707.149719
298 0 1 11.511850 8.418439 707.597717
299 0 1 12.222990 8.208893 708.239319
300 0 1 12.780479 7.881695 709.012024
301 0 1 13.107880 7.441729 709.825195
302 0 1 13.384200 7.257047 710.773315
303 0 1 13.528180 7.231843 711.713318
304 0 1 13.864719 7.059722 712.585999
305 0 1 14.153339 6.943300 713.487122
306 0 1 14.365271 7.244593 714.386292
307 0 1 14.643560 7.574478 715.289307
308 0 1 14.490480 7.935796 716.136414
309 0 1 14.261820 8.049102 717.064026
310 0 1 13.799620 8.241261 717.889587
311 0 1 13.152719 8.259831 718.631470
312 0 1 12.528620 8.197853 719.343872
313 0 1 12.143490 8.200063 720.238586
314 0 1 11.867770 8.472867 721.093872
315 0 1 11.773790 8.595764 722.059509
316 0 1 11.850080 8.788553 723.026489
317 0 1 12.055450 9.010540 723.910767
318 0 1 12.332951 9.405390 724.916382
319 0 1 12.377430 9.808340 725.776611
320 0 1 12.432250 10.011780 726.757568
321 0 1 12.360180 10.014970 727.703186
322 0 1 12.253759 10.080620 728.641968
323 0 1 11.866570 9.982450 729.513977
324 0 1 11.309780 9.535380 730.177979
325 0 1 10.490620 9.122499 730.562012
326 0 1 9.731710 8.720537 731.042969
327 0 1 8.889024 8.506965 731.499023
328 0 1 8.117252 8.367528 732.044006
329 0 1 7.269406 8.487808 732.460022
330 0 1 6.472820 8.613595 733.093018
331 0 1 5.876360 8.519320 733.832031
332 0 1 5.474410 8.117884 734.594971
333 0 1 5.204710 7.715642 735.458008
334 0 1 4.811480 7.578237 736.312012
335 0 1 4.594760 7.173128 737.158997
336 0 1 4.139030 6.938860 738.009033
337 0 1 3.818890 6.844910 738.963013
338 0 1 3.636300 6.716480 739.885010
339 0 1 3.555040 6.487730 740.802979
340 0 1 3.603610 6.369420 741.773987
341 0 1 3.334590 6.346670 742.703979
342 0 1 3.492740 6.529180 743.643005
343 0 1 3.925080 6.452220 744.504028
344 0 1 4.394080 6.504530 745.469971
345 0 1 4.832430 6.456010 746.289001
346 0 1 5.390840 6.336380 747.068970
347 0 1 5.849000 6.321210 747.973999
348 0 1 6.162380 6.427270 748.854004
349 0 1 6.290980 6.244080 749.802979
350 0 1 6.105300 6.017960 750.750000
351 0 1 5.717640 6.117740 751.578979
352 0 1 5.462430 5.994610 752.536011
353 0 1 5.263230 5.977930 753.484009
354 0 1 4.974010 6.044110 754.384033
355 0 1 4.825450 6.200660 755.304993
356 0 1 4.717040 6.219220 756.364990
357 0 1 4.787860 6.428090 757.348999
358 0 1 4.863900 6.563420 758.327026
359 0 1 4.763680 6.778530 759.313965
360 0 1 4.546790 6.883280 760.242981
361 0 1 3.982910 6.920400 761.016968
362 0 1 3.414610 6.582940 761.739014
363 0 1 2.920560 6.436020 762.533997
364 0 1 2.552160 5.949920 763.328979
365 0 1 2.495300 5.825810 764.286987
366 0 1 2.362810 5.749020 765.255981
367 0 1 2.309900 5.890570 766.229004
368 0 1 2.062860 6.129830 767.143005
369 0 1 2.015890 6.377450 768.062988
370 0 1 2.017570 6.308600 769.044983
371 0 1 2.225910 6.044570 769.937988
372 0 1 2.347040 5.923820 770.838013
373 0 1 2.303360 5.711170 771.787964
374 0 1 2.340620 5.585450 772.791016
375 0 1 2.422390 5.576670 773.783997
376 0 1 2.546140 5.828950 774.676025
377 0 1 2.647180 6.102820 775.588989
378 0 1 2.622060 5.954050 776.622986
379 0 1 2.773550 5.784680 777.599976
380 0 1 2.974780 5.826710 778.525024
381 0 1 3.038100 6.365880 779.304016
382 0 1 3.180350 6.800780 780.158997
383 0 1 3.489230 6.899100 781.135986
384 0 1 3.886820 6.513340 781.947998
385 0 1 4.048310 6.036720 782.783020
386 0 1 4.284610 5.473110 783.549988
387 0 1 4.649160 4.845220 784.273010
388 0 1 4.872590 4.211870 784.947998
389 0 1 5.028330 3.655870 785.677002
390 0 1 4.695170 3.313300 786.580994
391 0 1 4.450680 2.998350 787.458984
392 0 1 4.702480 2.599340 788.359009
393 0 1 5.303210 2.350130 789.156006
394 0 1 5.935330 2.254920 789.879028
395 0 1 6.743810 2.330730 790.320007
396 0 1 7.617189 2.736740 790.619995
397 0 1 8.375405 3.334200 790.903015
398 0 1 8.953829 3.680730 791.535034
399 0 1 9.456420 4.214100 792.089966
400 0 1 9.869250 4.709310 792.859009
401 0 1 10.259990 5.092530 793.596985
402 0 1 10.628510 5.640920 794.313965
403 0 1 10.928130 6.300000 794.992004
404 0 1 10.989510 6.935750 795.708984
405 0 1 11.037400 7.647738 796.276978
406 0 1 11.137239 8.350092 796.864990
407 0 1 11.242970 9.103559 797.417969
408 0 1 11.329390 9.933120 798.026978
409 0 1 11.282360 10.776410 798.536011
410 0 1 11.235860 11.183680 799.398010
411 0 1 11.077641 10.943130 800.403992
412 0 1 10.725670 10.547480 801.234009
413 0 1 10.076120 10.201730 801.882019
414 0 1 9.305390 10.076620 802.406006
415 0 1 8.589040 10.211880 803.023987
416 0 1 7.817141 10.252690 803.682007
417 0 1 7.264783 10.135850 804.460999
418 0 1 6.736160 9.811950 805.210999
419 0 1 6.359990 9.065030 805.723022
420 0 1 6.305600 8.234966 806.226990
421 0 1 6.221580 7.421453 806.726013
422 0 1 6.174410 7.165276 807.601013
423 0 1 6.179990 7.004557 808.562012
424 0 1 6.018210 6.657130 809.443970
425 0 1 6.032510 6.376280 810.348999
426 0 1 6.121150 6.034610 811.260986
427 0 1 6.027880 5.818850 812.187012
428 0 1 5.832930 6.109190 813.068970
429 0 1 5.513260 6.072700 813.978027
430 0 1 4.999250 6.096320 814.776001
431 0 1 4.499230 5.942880 815.681030
432 0 1 4.042430 5.852100 816.541992
433 0 1 3.949270 5.960870 817.488037
434 0 1 3.865860 5.968850 818.450012
435 0 1 4.030000 5.806160 819.353027
436 0 1 3.987590 5.885590 820.286987
437 0 1 3.800050 6.049570 821.242004
438 0 1 3.921410 6.104240 822.247986
439 0 1 4.052060 6.142280 823.250000
440 0 1 4.231980 6.107350 824.190979
441 0 1 4.298880 5.933910 825.166016
442 0 1 3.988050 5.848800 826.078979
443 0 1 3.733810 5.738820 827.015991
444 0 1 3.672840 6.022270 827.916016
445 0 1 3.739420 6.450090 828.785034
446 0 1 3.768610 7.041286 829.507996
447 0 1 4.031590 7.651035 830.153992
448 0 1 4.324160 8.197212 830.908997
449 0 1 4.695600 8.744496 831.669983
450 0 1 5.237660 9.276090 832.200989
451 0 1 5.627670 9.954450 832.687988
452 0 1 5.946000 10.743150 833.122986
453 0 1 6.217940 11.590179 833.286011
454 0 1 6.571180 12.482340 833.164001
455 0 1 7.168358 13.175580 833.062012
456 0 1 7.677334 13.742860 832.455994
457 0 1 8.221519 13.988070 831.624023
458 0 1 8.647892 14.259490 830.789001
459 0 1 8.897046 14.367701 829.841980
460 0 1 9.318840 14.413219 828.979004
461 0 1 9.582670 14.312281 828.044006
462 0 1 9.743220 14.341030 827.101990
463 0 1 9.866380 14.105640 826.130981
464 0 1 10.026660 13.913950 825.247986
465 0 1 10.251830 13.803329 824.339966
466 0 1 10.663640 13.994740 823.547974
467 0 1 10.903620 13.920839 822.627014
468 0 1 11.020370 13.656990 821.757996
469 0 1 11.189529 13.442870 820.851990
470 0 1 11.401340 13.198009 819.960999
471 0 1 11.418600 12.784571 819.103027
472 0 1 11.575769 12.553511 818.161987
473 0 1 11.687120 12.246281 817.228027
474 0 1 11.425580 11.918550 816.401001
475 0 1 11.019090 11.413321 815.750000
476 0 1 10.622510 10.905900 815.028992
477 0 1 10.271709 10.208660 814.471008
478 0 1 9.763860 9.406470 814.237000
479 0 1 9.282970 8.594450 813.997986
480 0 1 8.820959 7.978217 813.396973
481 0 1 8.455998 7.252642 812.937988
482 0 1 8.288295 6.486270 812.364014
483 0 1 7.903953 5.868900 811.643982
484 0 1 7.872093 5.405430 810.752014
485 0 1 7.787073 5.013970 809.817993
486 0 1 7.875806 4.464340 809.015991
487 0 1 7.927529 4.233980 808.132996
488 0 1 7.866846 4.176340 807.228027
489 0 1 7.692888 4.305120 806.318970
490 0 1 7.422765 4.352430 805.328979
491 0 1 7.441363 4.122580 804.372009
492 0 1 7.633708 4.117430 803.406982
493 0 1 7.723249 4.330550 802.473999
494 0 1 8.061713 4.520440 801.578003
495 0 1 8.344173 4.561730 800.622009
496 0 1 8.743614 4.691830 799.781006
497 0 1 9.134809 4.478570 798.947021
498 0 1 9.489799 4.000350 798.101990
499 0 1 9.862860 3.649440 797.223999
500 0 1 10.110400 3.295620 796.375000
501 0 1 10.362010 3.118090 795.440979
502 0 1 10.599680 2.854270 794.580017
503 0 1 10.905400 2.439790 793.721985
504 0 1 10.903790 2.114020 792.765991
505 0 1 10.744650 1.967780 791.801025
506 0 1 10.690410 1.795130 790.823975
507 0 1 10.267390 1.726110 789.905029
508 0 1 10.126500 1.612610 788.966003
509 0 1 10.014450 1.803880 788.061035
510 0 1 9.750090 2.058950 787.103027
511 0 1 9.726620 2.549410 786.218018
512 0 1 9.480240 2.871700 785.322998
513 0 1 8.978518 3.043070 784.489990
514 0 1 8.771774 3.163000 783.598999
515 0 1 8.608466 3.176090 782.688965
516 0 1 8.578580 3.332890 781.719971
517 0 1 8.735492 3.397050 780.731995
518 0 1 9.281570 3.625400 779.979980
519 0 1 9.598040 3.837880 779.023987
520 0 1 9.811630 3.849060 778.075989
521 0 1 9.577920 4.087390 777.158020
522 0 1 8.933535 4.437400 776.535034
523 0 1 8.243100 4.779260 775.911011
524 0 1 7.488209 5.276130 775.620972
525 0 1 6.862970 5.863930 775.122009
526 0 1 6.193280 6.160360 774.539001
527 0 1 5.634620 6.633320 773.940979
528 0 1 4.953990 6.950500 773.297974
529 0 1 4.456010 7.381511 772.549011
530 0 1 4.421070 7.884225 771.700012
531 0 1 4.338010 8.176038 770.823975
532 0 1 4.089930 8.144124 769.860962
533 0 1 3.684040 8.173406 768.895020
534 0 1 3.517550 8.111853 767.992004
535 0 1 3.435880 7.872523 767.088013
536 0 1 3.229320 8.201056 766.164001
537 0 1 3.104640 8.753325 765.286987
538 0 1 3.193320 9.217350 764.502991
539 0 1 3.393830 9.572160 763.606995
540 0 1 3.476860 10.048759 762.794983
541 0 1 3.684760 10.663730 762.075989
542 0 1 3.953790 10.977470 761.213013
543 0 1 3.986520 11.064070 760.254028
544 0 1 4.284280 11.517950 759.442017
545 0 1 4.366810 12.199480 758.635010
546 0 1 4.431400 12.949640 758.000000
547 0 1 4.423020 13.072599 757.059021
548 0 1 4.451350 13.411079 756.114990
549 0 1 4.343140 13.596760 755.214966
550 0 1 4.324890 13.730410 754.252991
551 0 1 4.403100 13.737270 753.281982
552 0 1 4.647230 13.340860 752.424988
553 0 1 4.927250 12.943330 751.539978
554 0 1 5.381520 12.503880 750.786987
555 0 1 5.888020 11.863370 750.141968
556 0 1 6.286750 11.485970 749.354980
557 0 1 6.606200 10.803840 748.698975
558 0 1 6.551140 10.186550 748.000000
559 0 1 6.327920 9.643660 747.239014
560 0 1 6.249620 9.009130 746.608032
561 0 1 6.248620 8.459899 745.893005
562 0 1 6.296730 8.204956 744.986023
563 0 1 6.304800 8.325623 743.987976
564 0 1 6.468990 8.489753 742.997009
565 0 1 6.420160 8.849512 742.096008
566 0 1 6.048600 9.112360 741.304993
567 0 1 5.668210 9.071700 740.474976
568 0 1 5.242960 9.051950 739.568970
569 0 1 5.082860 8.806341 738.638977
570 0 1 4.810670 8.715368 737.656006
571 0 1 4.780610 8.767732 736.682007
572 0 1 4.964270 8.986217 735.719971
573 0 1 4.959560 9.363200 734.893005
574 0 1 4.878440 9.799450 734.002991
575 0 1 4.727700 10.399230 733.286011
576 0 1 4.696950 11.107830 732.530029
577 0 1 4.728630 11.715820 731.870972
578 0 1 4.946880 12.382959 731.231995
579 0 1 5.094260 13.163071 730.666016
580 0 1 5.508500 13.488131 729.896973
581 0 1 6.020840 13.671490 729.067017
582 0 1 6.434550 13.718229 728.122620
583 0 1 6.753430 13.635860 727.245300
584 0 1 7.186377 13.730209 726.375488
585 0 1 7.335680 13.686270 725.432190
586 0 1 7.730897 13.696390 724.603821
587 0 1 7.868280 13.622820 723.624207
588 0 1 7.901572 13.046770 722.884888
589 0 1 7.944523 12.603519 722.042725
590 0 1 7.847346 12.160770 721.258301
591 0 1 7.792924 11.764600 720.425903
592 0 1 7.836892 11.533810 719.504211
593 0 1 7.615868 11.304320 718.517395
594 0 1 7.514899 10.906160 717.651794
595 0 1 7.545756 10.173680 716.987305
596 0 1 7.735642 9.575840 716.319885
597 0 1 7.773910 9.316590 715.426575
598 0 1 7.760467 9.475190 714.480896
599 0 1 7.705172 9.555440 713.517517
600 0 1 7.770647 9.530730 712.538391
601 0 1 7.834423 9.431040 711.614014
602 0 1 7.735527 9.529819 710.643616
603 0 1 7.791040 9.433520 709.669006
604 0 1 7.975687 9.709920 708.812317
605 0 1 7.796584 10.032810 707.897095
606 0 1 7.872789 10.619380 707.150391
607 0 1 8.070744 11.257520 706.515198
608 0 1 8.464286 11.837690 705.911621
609 0 1 9.123460 12.234449 705.291199
610 0 1 9.677940 12.423370 704.486389
611 0 1 9.997280 12.506830 703.555420
612 0 1 10.127850 12.719299 702.653015
613 0 1 10.447660 12.783290 701.772888
614 0 1 10.581141 12.753950 700.827087
615 0 1 10.777770 12.801400 699.841003
616 0 1 10.613420 13.113660 698.953918
617 0 1 10.586180 13.357660 698.045288
618 0 1 10.582790 13.059160 697.166016
619 0 1 10.526460 12.824630 696.245605
620 0 1 10.448320 12.488770 695.395813
621 0 1 10.401540 12.202550 694.533997
622 0 1 10.293591 12.209860 693.596619
623 0 1 10.314180 11.907890 692.645630
624 0 1 10.485920 11.581170 691.741089
625 0 1 10.581090 11.196310 690.820312
626 0 1 10.302361 10.887720 689.929688
627 0 1 9.744761 10.504980 689.151611
628 0 1 9.068710 10.386520 688.423584
629 0 1 8.609856 9.574030 688.171326
630 0 1 8.098493 8.923212 687.708191
631 0 1 7.716168 8.343575 687.068909
632 0 1 7.560337 7.612138 686.450012
633 0 1 7.464722 6.823090 685.873901
634 0 1 7.352005 6.231190 685.104675
635 0 1 7.675366 5.679460 684.324219
636 0 1 7.713464 5.119580 683.598389
637 0 1 7.796600 4.977570 682.615112
638 0 1 7.758564 5.008220 681.573975
639 0 1 7.493038 5.321240 680.708801
640 0 1 7.006840 5.418520 679.896973
641 0 1 6.452310 5.448720 679.043091
642 0 1 6.248470 5.531910 678.160095
643 0 1 6.389040 5.810250 677.240479
644 0 1 6.585810 6.195590 676.276978
645 0 1 6.333200 6.798680 675.558594
646 0 1 5.872970 7.026964 674.721497
647 0 1 5.100820 7.195816 674.123169
648 0 1 4.488430 7.276472 673.332275
649 0 1 3.963020 7.165524 672.560913
650 0 1 3.375080 7.048117 671.842529
651 0 1 2.664850 6.945360 671.152832
652 0 1 2.113710 6.668760 670.409485
653 0 1 1.941000 6.264270 669.620789
654 0 1 1.933780 6.029310 668.683899
655 0 1 2.174250 5.821690 667.760315
656 0 1 2.676840 5.591850 666.963928
657 0 1 3.097420 5.303560 666.168213
658 0 1 3.500170 5.068760 665.297913
659 0 1 3.839470 4.707890 664.495178
660 0 1 4.316020 4.129710 663.803589
661 0 1 4.952440 3.716520 663.207275
662 0 1 5.401070 3.344830 662.366821
663 0 1 6.024530 3.072320 661.720276
664 0 1 6.601220 2.754470 660.993591
665 0 1 7.260157 3.008230 660.315125
666 0 1 7.667865 3.318670 659.474121
667 0 1 7.741139 3.265290 658.402405
668 0 1 7.903369 3.283300 657.418518
669 0 1 7.913783 3.391910 656.443176
670 0 1 8.111033 3.556320 655.518982
671 0 1 8.356277 3.846570 654.633179
672 0 1 8.528763 4.342640 653.837402
673 0 1 8.821668 4.855160 653.111084
674 0 1 8.889980 5.233510 652.199890
675 0 1 9.006240 5.343730 651.257812
676 0 1 9.465100 5.314310 650.384277
677 0 1 9.886710 5.226110 649.516418
678 0 1 10.234221 5.294630 648.656677
679 0 1 10.214140 5.562230 647.706604
680 0 1 10.076560 6.005900 646.811707
681 0 1 9.696280 6.247320 645.998901
682 0 1 9.327840 6.559790 645.142822
683 0 1 8.606825 6.960350 644.537781
684 0 1 7.794177 7.065349 644.072510
685 0 1 7.106070 7.310688 643.372009
686 0 1 6.391890 7.542926 642.846191
687 0 1 5.726240 7.791776 642.152283
688 0 1 5.241260 8.026186 641.359375
689 0 1 4.892840 8.244650 640.551208
690 0 1 4.878890 7.961068 639.575928
691 0 1 4.728160 7.733156 638.631897
692 0 1 4.698690 7.501180 637.703430
693 0 1 4.582240 7.092648 636.888306
694 0 1 4.436450 6.533670 636.084961
695 0 1 4.362190 6.182250 635.162415
696 0 1 4.430570 5.601510 634.266541
697 0 1 4.273410 5.291640 633.377319
698 0 1 4.755070 5.006940 632.579468
699 0 1 5.088280 4.740140 631.741455
700 0 1 5.409730 4.730620 630.863037
701 0 1 6.010310 4.441740 630.123291
702 0 1 6.655420 4.008160 629.602966
703 0 1 7.209910 3.942360 628.769897
704 0 1 7.804052 3.898140 628.025940
705 0 1 8.407670 3.793640 627.272949
706 0 1 8.857989 3.439900 626.451233
707 0 1 9.315331 2.966790 625.738525
708 0 1 9.464390 2.715950 624.877502
709 0 1 9.050370 2.749140 623.940125
710 0 1 8.663448 3.161410 623.182678
711 0 1 8.649766 3.242830 622.206543
712 0 1 8.777426 3.425920 621.224243
713 0 1 8.928269 3.580080 620.254272
714 0 1 9.251940 3.549820 619.336670
715 0 1 9.301250 3.349280 618.344299
716 0 1 9.253770 2.925340 617.456604
717 0 1 9.383410 2.510960 616.608093
718 0 1 9.556030 2.210790 615.737183
719 0 1 10.096519 2.326700 614.968689
720 0 1 10.586610 2.734810 614.258911
721 0 1 10.864170 2.921180 613.335022
722 0 1 10.904590 3.014630 612.383118
723 0 1 11.213449 3.039870 611.444824
724 0 1 11.481820 3.371040 610.604187
725 0 1 11.950650 3.632630 609.812012
726 0 1 12.277810 4.183350 609.101685
727 0 1 12.577311 4.605190 608.310913
728 0 1 12.547279 4.961220 607.369324
729 0 1 12.455250 5.254870 606.432678
730 0 1 12.228809 5.582030 605.592590
731 0 1 12.054660 5.893230 604.717407
732 0 1 11.784240 6.198900 603.918701
733 0 1 11.610420 6.564080 603.077026
734 0 1 11.370780 6.879440 602.219727
735 0 1 11.026670 6.851940 601.327271
736 0 1 10.796030 6.968480 600.448120
737 0 1 10.434910 7.028296 599.585388
738 0 1 9.908960 6.893620 598.724121
739 0 1 9.333660 6.846740 597.931396
740 0 1 9.281919 6.900030 596.952087
741 0 1 9.134930 7.427544 596.150085
742 0 1 9.050180 8.059580 595.399170
743 0 1 8.955171 8.231461 594.487976
744 0 1 8.684343 8.709033 593.690430
745 0 1 8.369510 9.433550 593.102722
746 0 1 8.145176 10.162519 592.567810
747 0 1 8.168616 10.829540 591.929016
748 0 1 8.202813 11.414230 591.116577
749 0 1 8.172429 11.757630 590.214600
750 0 1 8.222121 12.054740 589.277527
751 0 1 8.402588 12.273680 588.418884
752 0 1 8.324685 12.114820 587.483032
753 0 1 8.015105 11.771000 586.660400
754 0 1 8.038772 11.462830 585.696106
755 0 1 7.825733 11.007210 584.941528
756 0 1 7.674026 10.655990 583.981812
757 0 1 7.402838 10.027190 583.282104
758 0 1 7.401374 9.446210 582.487000
759 0 1 7.764774 8.945572 581.719910
760 0 1 7.896787 8.323529 581.007324
761 0 1 8.142012 7.561763 580.469604
762 0 1 8.387999 6.922400 579.847412
763 0 1 8.480271 6.163900 579.271912
764 0 1 8.317721 5.400560 578.603271
765 0 1 8.152978 4.659810 578.021423
766 0 1 7.585284 4.063450 577.393494
767 0 1 7.020435 3.421500 576.855713
768 0 1 6.539740 2.872600 576.194397
769 0 1 6.292650 2.621220 575.343018
770 0 1 5.929920 2.365910 574.483032
771 0 1 5.728590 2.215520 573.558594
772 0 1 5.664840 2.509310 572.615784
773 0 1 5.539300 2.627500 571.698425
774 0 1 5.411440 2.630910 570.755920
775 0 1 5.647520 2.571450 569.820801
776 0 1 5.585080 2.758030 568.866882
777 0 1 5.590530 2.812380 567.900696
778 0 1 5.456810 3.188990 566.986328
779 0 1 5.435050 3.476550 565.965332
780 0 1 5.432250 3.886570 565.071472
781 0 1 5.421000 4.195060 564.184326
782 0 1 5.220740 4.471130 563.306091
783 0 1 5.096790 4.929060 562.456909
784 0 1 5.471680 5.186770 561.564087
785 0 1 5.709620 5.361150 560.600830
786 0 1 5.659620 5.646250 559.689026
787 0 1 5.741410 5.783670 558.791687
788 0 1 5.962000 5.994920 557.859619
789 0 1 6.098760 6.479410 556.995911
790 0 1 6.185990 6.718040 556.033386
791 0 1 6.274540 6.978170 555.098694
792 0 1 6.216300 7.117231 554.164185
793 0 1 6.344300 7.267162 553.207825