LAMMPS data file via MDAnalysis

        1000  atoms
        1000  bonds
        1000  angles
           0  dihedrals
           0  impropers

           1  atom types
           1  bond types
           1  angle types
           0  dihedral types
           0  improper types

0.000000 16.000000 xlo xhi
0.000000 16.000000 ylo yhi
0.000000 1257.000000 zlo zhi


Masses

1 1.000000

Atoms

1 0 1 8.203435 5.505000 458.166992
2 0 1 8.342455 5.438770 459.161987
3 0 1 8.166026 5.288100 460.104980
4 0 1 7.714201 5.460270 460.897003
5 0 1 7.092649 5.947550 461.488007
6 0 1 6.572670 6.652450 461.925995
7 0 1 6.300760 7.463797 462.451996
8 0 1 6.093220 7.941275 463.218018
9 0 1 6.140890 8.421191 464.061005
10 0 1 6.019690 8.755104 465.015991
11 0 1 5.852500 8.700300 465.947021
12 0 1 5.689950 8.670689 466.882019
13 0 1 5.546720 8.551990 467.792999
14 0 1 5.859060 8.464841 468.697021
15 0 1 6.021160 8.433240 469.645020
16 0 1 6.168260 8.406896 470.557983
17 0 1 6.273150 8.472885 471.485992
18 0 1 6.229840 8.423358 472.434021
19 0 1 6.253750 8.377445 473.390991
20 0 1 6.215370 8.007416 474.351990
21 0 1 6.192240 7.509175 475.166992
22 0 1 6.336090 6.945260 475.989990
23 0 1 6.542680 6.755290 476.860992
24 0 1 6.611680 6.525990 477.817993
25 0 1 6.859610 6.508820 478.729980
26 0 1 7.073793 6.492690 479.666992
27 0 1 7.269530 6.338210 480.666992
28 0 1 7.356740 6.349030 481.622009
29 0 1 7.214469 6.342050 482.559021
30 0 1 7.121616 6.218960 483.492004
31 0 1 7.241414 5.867400 484.432007
32 0 1 7.262990 5.840520 485.468018
33 0 1 7.022671 5.550610 486.419006
34 0 1 6.999460 5.407150 487.325989
35 0 1 7.003739 5.319930 488.304016
36 0 1 6.878000 5.273670 489.296021
37 0 1 6.761620 5.342270 490.226013
38 0 1 6.749120 5.362710 491.226013
39 0 1 6.978240 5.460270 492.148010
40 0 1 7.348149 5.732680 493.013000
41 0 1 7.686370 6.136500 493.799988
42 0 1 8.017838 6.397720 494.645996
43 0 1 8.513905 6.812750 495.337006
44 0 1 9.184050 6.951480 496.059998
45 0 1 9.746720 7.188039 496.776978
46 0 1 10.276000 7.793152 497.270996
47 0 1 10.942050 8.155567 497.800995
48 0 1 11.597850 8.653036 498.251007
49 0 1 12.089510 9.065860 498.937988
50 0 1 12.531670 9.180861 499.773987
51 0 1 12.906080 9.545700 500.640015
52 0 1 12.937660 9.787450 501.609985
53 0 1 12.753360 10.001740 502.549011
54 0 1 12.607330 10.279050 503.459991
55 0 1 12.293070 10.806459 504.244019
56 0 1 11.853300 11.333879 504.847992
57 0 1 11.242910 11.698140 505.507996
58 0 1 10.623671 12.077950 506.121002
59 0 1 9.994570 12.036039 506.859985
60 0 1 9.599570 12.299960 507.721985
61 0 1 9.419140 12.345739 508.653015
62 0 1 9.070520 12.279890 509.549988
63 0 1 8.589670 12.257780 510.371002
64 0 1 8.355908 12.263150 511.313995
65 0 1 8.167436 12.365320 512.207031
66 0 1 7.753981 12.466770 513.075989
67 0 1 7.317845 12.594590 513.973999
68 0 1 6.806170 12.571630 514.823975
69 0 1 6.062890 12.531310 515.492004
70 0 1 5.358870 12.199430 516.148010
71 0 1 4.702800 12.029449 516.785034
72 0 1 4.154860 11.836770 517.528015
73 0 1 3.499670 11.361080 518.270996
74 0 1 3.095020 10.482590 518.562012
75 0 1 2.694200 9.766479 519.015015
76 0 1 2.581980 8.937966 519.469971
77 0 1 2.906200 8.162207 519.939026
78 0 1 3.320270 7.400959 520.242981
79 0 1 3.764220 6.832740 520.846008
80 0 1 4.362070 6.276600 521.398987
81 0 1 5.126750 5.795290 521.663025
82 0 1 6.010620 5.554780 521.781006
83 0 1 6.937230 5.594960 522.096008
84 0 1 7.767680 5.998240 522.348022
85 0 1 8.585958 6.369190 522.643005
86 0 1 9.318400 6.500630 523.278992
87 0 1 9.756520 6.725220 524.099976
88 0 1 10.386000 6.903120 524.830994
89 0 1 11.068480 7.217391 525.565002
90 0 1 11.891310 7.475256 526.109009
91 0 1 12.651421 7.632014 526.671997
92 0 1 13.221331 7.988363 527.309998
93 0 1 13.433290 8.403257 528.169983
94 0 1 13.491430 8.922398 528.977478
95 0 1 13.689180 9.362170 529.794312
96 0 1 13.769310 9.572330 530.714478
97 0 1 13.645920 9.856370 531.632568
98 0 1 13.296949 9.949480 532.538330
99 0 1 12.884790 9.949020 533.434509
100 0 1 12.419849 9.918460 534.353699
101 0 1 11.833600 9.869699 535.030823
102 0 1 11.409400 9.683310 535.866699
103 0 1 11.133039 9.354000 536.674316
104 0 1 10.966920 8.858446 537.508179
105 0 1 10.459290 8.754373 538.344910
106 0 1 9.968210 8.693173 539.210327
107 0 1 9.637700 8.447425 540.138794
108 0 1 8.962222 8.478684 540.791687
109 0 1 8.605442 8.500154 541.701111
110 0 1 8.464133 8.151977 542.567383
111 0 1 8.167377 8.242508 543.562988
112 0 1 8.020653 8.409641 544.499512
113 0 1 7.552107 8.245913 545.310120
114 0 1 7.053109 7.812861 546.020874
115 0 1 6.580510 7.711445 546.854187
116 0 1 6.069640 7.486728 547.612305
117 0 1 5.789820 7.458214 548.509705
118 0 1 5.292570 7.207425 549.295898
119 0 1 5.244320 6.821590 550.145325
120 0 1 5.249670 6.505240 551.057190
121 0 1 5.365310 6.425800 551.992615
122 0 1 5.759830 6.356450 552.870728
123 0 1 6.201450 6.095080 553.734131
124 0 1 6.584250 5.623420 554.516907
125 0 1 7.122574 5.028330 555.026611
126 0 1 7.566628 4.712990 555.835815
127 0 1 7.957234 4.873900 556.709595
128 0 1 8.376097 4.784720 557.590393
129 0 1 8.846157 4.590720 558.423218
130 0 1 9.205910 4.629370 559.310608
131 0 1 9.626320 4.414140 560.291626
132 0 1 10.094620 4.060620 561.040588
133 0 1 10.642281 3.855500 561.836609
134 0 1 10.733829 3.650750 562.821106
135 0 1 10.824480 3.430540 563.763123
136 0 1 10.968620 3.027330 564.646423
137 0 1 11.023750 2.760540 565.622925
138 0 1 10.917820 2.740060 566.590393
139 0 1 10.586020 3.008850 567.468872
140 0 1 10.368800 3.013020 568.391113
141 0 1 10.346280 2.955090 569.358887
142 0 1 10.142910 2.997170 570.294373
143 0 1 10.253730 3.253660 571.258484
144 0 1 10.446390 3.696430 572.106873
145 0 1 10.739940 3.960380 572.950623
146 0 1 11.004320 3.950830 573.864319
147 0 1 11.004499 3.737790 574.864197
148 0 1 10.904900 4.072840 575.770874
149 0 1 10.682870 4.378470 576.705688
150 0 1 10.633880 4.794280 577.595520
151 0 1 10.638670 5.187220 578.456421
152 0 1 10.615870 5.450550 579.341797
153 0 1 10.542930 5.678850 580.306885
154 0 1 10.272980 5.936760 581.205322
155 0 1 9.942470 6.180010 582.128174
156 0 1 9.607710 6.162110 583.037292
157 0 1 9.368430 6.057770 583.933289
158 0 1 8.958520 5.757760 584.730896
159 0 1 8.513094 5.442110 585.531494
160 0 1 7.932952 4.880040 586.093506
161 0 1 7.351715 4.399310 586.670898
162 0 1 7.067449 3.797190 587.337769
163 0 1 6.694100 3.192120 588.005371
164 0 1 6.140520 2.877590 588.794006
165 0 1 5.837090 2.561800 589.645325
166 0 1 5.528780 2.443580 590.528076
167 0 1 5.335870 2.486610 591.444824
168 0 1 5.140420 2.693830 592.436768
169 0 1 5.007790 2.533170 593.385010
170 0 1 5.222950 2.707860 594.295715
171 0 1 5.317660 3.112170 595.140015
172 0 1 5.358000 3.713020 595.934021
173 0 1 5.371730 4.079020 596.854004
174 0 1 5.374520 4.524740 597.765686
175 0 1 5.418370 4.783640 598.676208
176 0 1 5.238460 5.188140 599.558899
177 0 1 5.272700 5.292160 600.509583
178 0 1 5.103560 5.640540 601.455017
179 0 1 5.051670 5.512730 602.383179
180 0 1 5.108190 5.406650 603.354370
181 0 1 5.395460 5.218230 604.282288
182 0 1 5.369520 5.232780 605.269409
183 0 1 5.426710 5.159330 606.240601
184 0 1 5.639940 4.819540 607.102783
185 0 1 5.822540 4.648850 608.059998
186 0 1 5.906710 4.710550 609.032104
187 0 1 5.733500 4.453070 609.984802
188 0 1 5.475070 4.448490 610.961426
189 0 1 5.537660 4.388320 611.914124
190 0 1 5.683170 4.158090 612.896484
191 0 1 5.810270 3.909110 613.864990
192 0 1 6.032270 3.746530 614.756470
193 0 1 6.244670 3.935740 615.651611
194 0 1 6.333660 3.909040 616.598022
195 0 1 6.168770 4.025780 617.529785
196 0 1 5.816630 4.192710 618.351624
197 0 1 5.565310 4.275130 619.252869
198 0 1 5.360930 4.183890 620.129272
199 0 1 5.252780 3.990690 621.033752
200 0 1 5.232890 3.622250 621.961060
201 0 1 5.263250 3.263990 622.808533
202 0 1 5.378640 2.818810 623.663147
203 0 1 5.320190 2.522180 624.572266
204 0 1 5.583260 2.144800 625.439941
205 0 1 5.604840 1.849470 626.327820
206 0 1 5.837420 1.549830 627.150940
207 0 1 6.026730 1.652270 628.157104
208 0 1 6.198470 1.761780 629.138733
209 0 1 5.909600 2.266370 629.927551
210 0 1 5.723900 2.861040 630.660889
211 0 1 5.757950 3.480990 631.445557
212 0 1 5.834700 3.861770 632.396484
213 0 1 5.772250 4.282070 633.273987
214 0 1 5.605910 4.674380 634.144714
215 0 1 5.567180 5.136260 634.947571
216 0 1 5.461320 5.700080 635.715820
217 0 1 5.613620 6.352660 636.405579
218 0 1 5.491230 6.700590 637.245239
219 0 1 5.193420 7.048271 638.137268
220 0 1 5.076960 7.407824 639.005493
221 0 1 4.815170 7.851550 639.786926
222 0 1 4.372110 8.296521 640.482605
223 0 1 3.804780 8.650658 641.191895
224 0 1 3.453710 8.866628 642.065186
225 0 1 3.478550 9.192030 643.030579
226 0 1 3.606700 9.496030 643.912292
227 0 1 3.453210 9.697390 644.801819
228 0 1 3.434810 9.856180 645.769226
229 0 1 3.320980 10.043300 646.683105
230 0 1 3.676620 10.324960 647.494324
231 0 1 4.080650 10.682230 648.297974
232 0 1 4.287360 11.125110 649.160828
233 0 1 4.398980 11.548420 650.056213
234 0 1 4.450180 12.004200 650.924072
235 0 1 4.563370 12.573561 651.678589
236 0 1 4.909200 13.150160 652.376831
237 0 1 5.517930 13.362770 653.096008
238 0 1 5.860690 13.367200 654.014893
239 0 1 5.898100 13.366760 654.975403
240 0 1 6.122290 13.242710 655.914001
241 0 1 6.511360 13.068120 656.731995
242 0 1 6.710290 12.740080 657.616089
243 0 1 6.760870 12.394930 658.531189
244 0 1 6.776360 12.035290 659.416626
245 0 1 6.774380 11.658130 660.276306
246 0 1 6.670890 11.382860 661.149475
247 0 1 6.732370 11.107700 662.051575
248 0 1 7.189447 10.722480 662.810181
249 0 1 7.526761 10.343060 663.686768
250 0 1 7.818018 9.929290 664.516174
251 0 1 8.310177 9.692020 665.325073
252 0 1 8.912846 9.702200 666.058105
253 0 1 9.157540 9.707350 667.028687
254 0 1 9.372620 9.616300 667.924927
255 0 1 9.519870 9.283689 668.763000
256 0 1 9.649650 8.909229 669.671204
257 0 1 9.817280 8.528423 670.575012
258 0 1 10.237030 8.263172 671.465027
259 0 1 10.671900 8.006636 672.240417
260 0 1 11.082911 8.166556 673.190491
261 0 1 11.482380 8.462296 674.001587
262 0 1 12.090850 8.670972 674.798889
263 0 1 12.663560 8.447435 675.530273
264 0 1 12.850969 8.217121 676.434021
265 0 1 13.136539 7.858701 677.275024
266 0 1 13.231050 7.570561 678.208008
267 0 1 12.849899 7.231224 679.136230
268 0 1 12.475330 7.108735 680.030396
269 0 1 12.097780 6.999800 680.958191
270 0 1 11.761630 6.668060 681.770020
271 0 1 11.623210 6.194880 682.637390
272 0 1 11.404921 5.793350 683.452576
273 0 1 11.308790 5.363120 684.386108
274 0 1 11.480570 4.990010 685.224426
275 0 1 11.422170 4.731480 686.122803
276 0 1 11.321860 4.565130 687.069214
277 0 1 11.179240 4.541120 688.047791
278 0 1 10.982750 4.594350 688.989990
279 0 1 10.540270 4.591440 689.871887
280 0 1 10.271009 4.593880 690.836121
281 0 1 9.807899 4.832390 691.630981
282 0 1 9.368780 4.950110 692.526367
283 0 1 9.032580 4.705700 693.435181
284 0 1 8.639533 4.628440 694.307373
285 0 1 8.074027 4.712950 695.112915
286 0 1 7.380049 4.638000 695.835571
287 0 1 6.714500 4.377650 696.567078
288 0 1 5.883090 4.217580 697.042969
289 0 1 5.053900 4.526760 697.425293
290 0 1 4.295420 4.832260 697.952576
291 0 1 3.549950 5.333260 698.261780
292 0 1 2.979650 6.080130 698.524475
293 0 1 2.554520 6.723810 699.041870
294 0 1 2.346790 7.406671 699.663818
295 0 1 2.347030 7.965775 700.443909
296 0 1 2.498530 8.588511 701.159790
297 0 1 2.514830 9.163030 701.885925
298 0 1 2.737150 9.621560 702.715698
299 0 1 2.941950 9.668650 703.625916
300 0 1 2.998230 9.900490 704.607300
301 0 1 2.860390 10.219990 705.470093
302 0 1 2.622220 10.191020 706.387878
303 0 1 2.696840 10.116301 707.290527
304 0 1 2.748180 9.973460 708.214783
305 0 1 2.836060 9.931480 709.200073
306 0 1 3.007930 9.373830 709.929382
307 0 1 2.823180 8.809512 710.718201
308 0 1 2.478760 8.571717 711.525024
309 0 1 2.264570 8.265715 712.375366
310 0 1 2.330750 7.937552 713.263489
311 0 1 2.374160 7.548961 714.153381
312 0 1 2.342920 7.071961 714.980286
313 0 1 2.193700 6.723620 715.810913
314 0 1 2.409430 6.261010 716.661011
315 0 1 2.715950 6.100120 717.535583
316 0 1 3.057880 5.672360 718.322693
317 0 1 3.489280 5.454640 719.226929
318 0 1 3.851140 5.051310 720.038391
319 0 1 4.217250 4.620070 720.777222
320 0 1 4.120890 4.164750 721.606934
321 0 1 4.252980 3.895360 722.524902
322 0 1 4.318390 3.864790 723.507996
323 0 1 4.247860 3.716420 724.457703
324 0 1 3.974930 3.432960 725.405090
325 0 1 4.095680 2.994680 726.257568
326 0 1 4.317880 3.041150 727.162598
327 0 1 4.548340 3.360180 728.072388
328 0 1 4.532920 3.881740 728.841003
329 0 1 4.810210 4.346550 729.624023
330 0 1 5.322850 4.781130 730.255005
331 0 1 5.604390 5.287940 731.031006
332 0 1 6.123750 5.781570 731.655029
333 0 1 6.729470 5.936000 732.377014
334 0 1 7.456134 6.098610 732.989990
335 0 1 8.137139 6.682090 733.362976
336 0 1 8.987888 7.022675 733.667969
337 0 1 9.821930 7.438687 734.098999
338 0 1 10.581350 7.879391 734.515015
339 0 1 10.766710 8.408570 735.302979
340 0 1 10.571380 8.743465 736.135986
341 0 1 10.343400 9.149430 736.974976
342 0 1 10.420800 9.049400 737.895020
343 0 1 10.279090 9.216990 738.796997
344 0 1 10.194410 9.490050 739.711975
345 0 1 10.508450 9.794930 740.557983
346 0 1 10.820320 10.347549 741.291992
347 0 1 10.989370 10.626010 742.184021
348 0 1 11.418830 10.725710 743.085022
349 0 1 11.723780 10.895200 744.033020
350 0 1 11.795691 10.875790 744.942993
351 0 1 11.886770 10.553550 745.835999
352 0 1 11.992270 10.104800 746.770020
353 0 1 11.977830 9.704910 747.583984
354 0 1 12.083281 9.605030 748.505981
355 0 1 12.119801 9.753280 749.442993
356 0 1 12.173491 10.145870 750.374023
357 0 1 12.249440 10.293050 751.322021
358 0 1 12.010890 10.236870 752.244019
359 0 1 11.588790 9.803580 752.992981
360 0 1 11.232460 9.125590 753.577026
361 0 1 10.908020 8.514492 754.330017
362 0 1 10.546750 8.118322 755.106995
363 0 1 10.371790 7.798366 756.038025
364 0 1 10.501050 7.751572 756.968018
365 0 1 10.569440 7.745390 757.875977
366 0 1 10.838660 7.580113 758.739014
367 0 1 11.155080 7.486444 759.635986
368 0 1 11.374870 7.501144 760.546997
369 0 1 11.486880 7.448269 761.541016
370 0 1 11.558730 7.420996 762.481995
371 0 1 11.638820 7.328963 763.424988
372 0 1 11.744110 7.135357 764.403992
373 0 1 11.875600 6.751290 765.386963
374 0 1 11.869790 6.508510 766.285034
375 0 1 11.644400 6.089080 767.214966
376 0 1 11.516790 5.643460 768.122986
377 0 1 11.493050 5.358920 769.039978
378 0 1 11.426090 5.185500 770.013000
379 0 1 11.203900 4.851340 770.924988
380 0 1 11.187060 4.325490 771.710999
381 0 1 11.146220 3.785700 772.542969
382 0 1 11.068180 3.694150 773.523987
383 0 1 11.329081 3.642560 774.478027
384 0 1 11.484140 3.888590 775.385010
385 0 1 11.577750 3.808810 776.307007
386 0 1 11.442990 3.997920 777.250000
387 0 1 11.280240 4.125110 778.176025
388 0 1 11.174180 4.373470 779.077026
389 0 1 11.073230 4.392140 780.013000
390 0 1 10.987220 4.820490 780.919983
391 0 1 11.192580 5.426130 781.648010
392 0 1 11.580500 5.822110 782.419006
393 0 1 11.707270 6.173420 783.307007
394 0 1 11.765340 6.630140 784.148010
395 0 1 11.477030 7.240053 784.901001
396 0 1 11.139320 7.907468 785.523010
397 0 1 10.698140 8.389641 786.224976
398 0 1 10.404079 8.949567 786.934021
399 0 1 9.928610 9.393830 787.608032
400 0 1 9.248320 9.610800 788.304993
401 0 1 8.792988 9.977921 788.979004
402 0 1 8.343454 10.415760 789.765015
403 0 1 7.866378 10.918000 790.375977
404 0 1 7.571603 11.486050 791.098022
405 0 1 7.479173 12.133369 791.830994
406 0 1 7.607583 12.779830 792.615967
407 0 1 7.664972 13.010910 793.613037
408 0 1 7.621906 13.267710 794.612000
409 0 1 7.695186 13.429871 795.570984
410 0 1 7.995864 13.607710 796.528015
411 0 1 8.541862 13.748250 797.318970
412 0 1 8.472776 13.490191 798.302979
413 0 1 8.555267 13.046600 799.187012
414 0 1 8.558278 12.470730 799.971008
415 0 1 8.286287 12.326720 800.911011
416 0 1 8.142456 12.338230 801.875977
417 0 1 7.770462 12.148690 802.726013
418 0 1 7.327730 11.911700 803.539978
419 0 1 7.125187 11.477840 804.333984
420 0 1 6.884600 10.847620 805.028992
421 0 1 6.425950 10.371660 805.721985
422 0 1 5.999390 9.852290 806.367004
423 0 1 5.646870 9.513930 807.184998
424 0 1 5.122260 9.400560 808.035034
425 0 1 4.734740 9.425310 808.884033
426 0 1 4.166970 9.204620 809.645020
427 0 1 4.078920 8.814150 810.507019
428 0 1 3.949080 8.465357 811.424988
429 0 1 3.899010 8.138647 812.406006
430 0 1 4.143280 7.740348 813.213013
431 0 1 4.286070 7.330831 814.114014
432 0 1 4.566380 7.041903 815.049011
433 0 1 4.915130 6.671000 815.863037
434 0 1 5.154560 6.387380 816.687988
435 0 1 5.277790 5.931340 817.484985
436 0 1 5.406110 5.387590 818.338989
437 0 1 5.648310 4.837000 819.085022
438 0 1 5.856750 4.229620 819.820984
439 0 1 6.137380 3.833130 820.640991
440 0 1 6.265270 3.357980 821.464966
441 0 1 6.526290 2.828170 822.286987
442 0 1 6.670060 2.259160 823.072021
443 0 1 6.940840 1.944370 823.884033
444 0 1 7.314249 1.534320 824.672974
445 0 1 7.962370 1.458580 825.330017
446 0 1 8.476744 1.212620 826.166992
447 0 1 9.045110 1.389450 826.984009
448 0 1 9.408440 1.567970 827.820984
449 0 1 9.676430 1.923970 828.690002
450 0 1 10.088700 2.086870 829.554993
451 0 1 10.708310 2.097740 830.312988
452 0 1 11.051430 2.076190 831.151001
453 0 1 11.314320 2.002920 832.085999
454 0 1 11.329060 1.993450 833.028015
455 0 1 11.092800 2.083820 833.988037
456 0 1 10.783490 2.279650 834.875000
457 0 1 10.362391 2.232430 835.757019
458 0 1 9.660570 2.477130 836.353027
459 0 1 8.812971 2.783070 836.688965
460 0 1 7.880672 2.958320 836.927979
461 0 1 6.969570 3.372110 836.843994
462 0 1 6.396910 4.135060 836.747986
463 0 1 6.037770 4.901460 836.270020
464 0 1 5.504900 5.369300 835.632019
465 0 1 4.864930 5.839840 834.958984
466 0 1 4.349620 6.416050 834.335999
467 0 1 3.846900 6.897420 833.686035
468 0 1 3.435800 7.305905 832.958984
469 0 1 3.162370 7.670359 832.130005
470 0 1 3.099100 7.836320 831.184021
471 0 1 3.376050 8.046519 830.322998
472 0 1 3.292580 8.039427 829.341003
473 0 1 3.034410 8.385541 828.528992
474 0 1 2.749310 8.494240 827.620972
475 0 1 2.803200 8.569256 826.622009
476 0 1 2.933480 8.752264 825.677002
477 0 1 2.647250 8.719631 824.792969
478 0 1 2.106220 8.924685 824.025024
479 0 1 1.848790 9.153340 823.094971
480 0 1 1.625150 9.663870 822.332031
481 0 1 1.750790 10.393830 821.718018
482 0 1 2.244880 11.228650 821.351990
483 0 1 2.854160 11.942160 821.000977
484 0 1 3.581790 12.539180 820.585999
485 0 1 4.219550 12.888700 819.880005
486 0 1 4.848170 13.023160 819.158020
487 0 1 5.446640 13.106680 818.411011
488 0 1 5.893510 13.130751 817.528992
489 0 1 6.327820 13.244120 816.635010
490 0 1 6.579130 13.521231 815.783020
491 0 1 6.745580 14.036060 814.942017
492 0 1 7.298357 14.133830 814.113037
493 0 1 7.781017 14.258500 813.317993
494 0 1 8.353913 14.397221 812.546997
495 0 1 8.786688 14.289550 811.671997
496 0 1 9.246400 14.151979 810.844971
497 0 1 9.337390 13.683340 810.049011
498 0 1 9.413230 13.352980 809.114990
499 0 1 9.748060 12.823230 808.346008
500 0 1 10.129641 12.207870 807.651001
501 0 1 10.288450 11.601210 806.854980
502 0 1 10.612720 11.143240 806.103027
503 0 1 10.834600 10.959980 805.244019
504 0 1 10.890090 10.684640 804.296997
505 0 1 11.160780 10.265580 803.421021
506 0 1 11.412360 9.673210 802.739990
507 0 1 11.387900 9.261830 801.932983
508 0 1 11.404560 8.774180 801.169006
509 0 1 11.481620 8.491884 800.250000
510 0 1 11.845079 8.405406 799.339966
511 0 1 11.876510 8.430107 798.385010
512 0 1 11.791121 8.386661 797.337036
513 0 1 11.800070 8.223330 796.337036
514 0 1 11.712860 8.128636 795.369995
515 0 1 11.670980 7.924802 794.494995
516 0 1 11.175770 7.704717 793.760010
517 0 1 10.865900 7.210989 793.013000
518 0 1 10.852090 6.699090 792.203003
519 0 1 10.514380 6.271050 791.382996
520 0 1 10.039470 6.018170 790.653992
521 0 1 9.749780 5.635920 789.737000
522 0 1 9.458210 5.305240 788.963989
523 0 1 8.959819 5.316680 788.080994
524 0 1 8.342624 5.223570 787.419983
525 0 1 7.545590 5.058650 786.869019
526 0 1 6.730160 4.868580 786.380981
527 0 1 6.153330 4.826740 785.695984
528 0 1 5.677240 4.600030 784.886963
529 0 1 5.346780 4.411530 784.007996
530 0 1 5.046510 4.592440 783.020996
531 0 1 4.770310 4.470580 782.110962
532 0 1 4.462360 4.526470 781.202026
533 0 1 3.933850 4.522850 780.416992
534 0 1 3.259670 4.481220 779.651001
535 0 1 2.958540 4.842860 778.837036
536 0 1 2.640390 5.225590 777.860962
537 0 1 2.606860 5.463970 776.882019
538 0 1 2.605910 5.780410 775.987000
539 0 1 2.594310 5.863340 775.018005
540 0 1 2.567610 5.887460 774.010986
541 0 1 2.746150 6.141480 773.091980
542 0 1 2.954640 6.481580 772.208008
543 0 1 3.418720 6.959180 771.530029
544 0 1 4.185160 7.194291 771.002991
545 0 1 4.639960 7.435969 770.226990
546 0 1 4.764930 7.892102 769.396973
547 0 1 4.979420 8.194344 768.535034
548 0 1 5.235690 8.562245 767.682983
549 0 1 5.249190 9.195820 766.828003
550 0 1 5.328280 9.649630 766.044983
551 0 1 5.407840 9.868860 765.089966
552 0 1 5.659890 9.818830 764.208984
553 0 1 6.084300 9.989590 763.369995
554 0 1 6.361040 10.102070 762.471985
555 0 1 6.581100 10.053190 761.520996
556 0 1 6.720380 9.799820 760.662964
557 0 1 6.589520 9.793960 759.721008
558 0 1 6.489360 9.885340 758.771973
559 0 1 6.667750 9.718620 757.858032
560 0 1 6.812710 9.742780 756.931030
561 0 1 6.921590 9.845510 755.940979
562 0 1 6.961460 9.936500 755.031006
563 0 1 7.086382 10.139170 754.086975
564 0 1 7.296780 10.105540 753.089966
565 0 1 7.604376 9.901440 752.198975
566 0 1 7.827930 9.517300 751.328979
567 0 1 8.188914 9.032100 750.608032
568 0 1 8.641733 8.822484 749.650024
569 0 1 9.442780 8.684896 749.176025
570 0 1 10.290450 8.408962 748.789978
571 0 1 10.892560 8.027420 748.143982
572 0 1 11.455840 7.721352 747.377014
573 0 1 11.682490 7.649317 746.500000
574 0 1 11.593040 7.313153 745.601013
575 0 1 11.627350 7.014906 744.690002
576 0 1 11.516230 6.831480 743.794006
577 0 1 11.480270 6.547100 742.927002
578 0 1 11.270330 6.198900 742.070984
579 0 1 11.283780 5.931240 741.135986
580 0 1 11.132700 5.674450 740.221985
581 0 1 10.939280 5.817280 739.317993
582 0 1 10.900260 6.203210 738.421021
583 0 1 11.021020 6.505560 737.542969
584 0 1 11.206250 6.953820 736.734009
585 0 1 11.584090 7.354806 735.893982
586 0 1 11.849010 7.533623 734.990967
587 0 1 11.997640 7.548287 733.961975
588 0 1 12.090900 7.834873 733.049011
589 0 1 12.060720 7.797436 732.046997
590 0 1 12.053890 8.087805 731.070984
591 0 1 12.240340 8.251455 730.138977
592 0 1 12.355460 8.434656 729.190002
593 0 1 12.339710 8.379793 728.207397
594 0 1 12.434589 8.149122 727.275024
595 0 1 12.370190 7.623684 726.404419
596 0 1 12.576500 7.155834 725.608704
597 0 1 12.557030 6.638160 724.844421
598 0 1 12.512760 5.970720 724.110596
599 0 1 12.411480 5.373450 723.346497
600 0 1 12.323420 4.943250 722.488525
601 0 1 12.178690 4.287890 721.699402
602 0 1 11.897920 4.042850 720.772217
603 0 1 11.735200 3.670620 719.950317
604 0 1 11.496890 3.483750 719.057129
605 0 1 11.501260 3.315330 718.138794
606 0 1 11.645411 3.370880 717.122498
607 0 1 11.979110 3.775030 716.301086
608 0 1 12.251380 4.193340 715.427673
609 0 1 12.658319 4.486430 714.628479
610 0 1 12.967199 4.773810 713.755493
611 0 1 13.096120 5.052010 712.762573
612 0 1 13.054660 5.389970 711.830078
613 0 1 12.987410 5.818470 710.922119
614 0 1 12.574630 6.175570 710.126526
615 0 1 12.110950 6.317900 709.308105
616 0 1 11.458870 6.559940 708.570190
617 0 1 10.856870 6.707210 707.809509
618 0 1 10.157600 6.950930 707.190308
619 0 1 9.497860 7.246222 706.558289
620 0 1 8.961545 7.768249 705.957092
621 0 1 8.397765 8.199215 705.284180
622 0 1 7.964685 8.222414 704.452698
623 0 1 7.513372 8.292721 703.601379
624 0 1 6.984860 8.684261 702.910767
625 0 1 6.467540 9.019320 702.146423
626 0 1 5.958460 9.408570 701.410889
627 0 1 5.399950 9.914240 700.703918
628 0 1 5.271020 10.185620 699.710876
629 0 1 5.380340 10.556820 698.818970
630 0 1 5.281170 10.717440 697.896729
631 0 1 5.054740 10.695150 696.902222
632 0 1 4.825500 10.490140 695.997314
633 0 1 4.764130 10.194850 695.132202
634 0 1 4.865770 10.423080 694.214417
635 0 1 4.896850 10.803850 693.359802
636 0 1 4.684740 11.125120 692.476318
637 0 1 4.373590 11.205600 691.566711
638 0 1 4.465420 11.043040 690.635010
639 0 1 4.584120 10.759580 689.662903
640 0 1 4.875130 10.507500 688.750610
641 0 1 5.192720 10.154580 687.892212
642 0 1 5.540130 10.191669 686.975586
643 0 1 5.634700 10.170361 686.016907
644 0 1 5.587940 10.232400 685.053223
645 0 1 5.631900 10.050730 684.086304
646 0 1 5.961700 9.878230 683.195312
647 0 1 6.194350 9.528150 682.283020
648 0 1 6.539260 9.342350 681.364319
649 0 1 6.949080 9.118390 680.566406
650 0 1 6.978880 9.160440 679.636108
651 0 1 7.114781 9.079760 678.720215
652 0 1 7.239237 8.820417 677.756287
653 0 1 7.333932 8.610188 676.823303
654 0 1 7.570445 8.685596 675.867920
655 0 1 7.671259 8.309065 675.023499
656 0 1 7.779410 8.210836 674.109314
657 0 1 7.761806 8.221329 673.103821
658 0 1 7.976500 8.176451 672.198425
659 0 1 7.900061 8.438382 671.217896
660 0 1 7.816522 8.972091 670.362183
661 0 1 7.715528 9.358160 669.465088
662 0 1 7.792234 9.408460 668.442993
663 0 1 7.675762 9.153890 667.502380
664 0 1 7.420178 9.136990 666.618896
665 0 1 7.148206 8.586174 665.738586
666 0 1 7.178568 8.072372 664.905701
667 0 1 7.125605 7.805137 663.988770
668 0 1 6.927280 7.510053 663.074585
669 0 1 7.239367 7.397853 662.212585
670 0 1 7.319819 6.844540 661.465332
671 0 1 7.228999 6.424630 660.637573
672 0 1 7.070562 5.945470 659.828186
673 0 1 6.666600 5.608920 658.923096
674 0 1 6.603660 5.134300 658.053101
675 0 1 6.355930 4.843750 657.149475
676 0 1 6.174010 4.655670 656.203918
677 0 1 5.931980 4.802480 655.262573
678 0 1 5.853650 4.750050 654.276428
679 0 1 5.725140 4.738080 653.332092
680 0 1 5.833050 4.583420 652.352173
681 0 1 5.905530 4.543990 651.378479
682 0 1 5.786000 4.554700 650.453796
683 0 1 6.078540 4.727810 649.459290
684 0 1 6.583060 4.972570 648.671997
685 0 1 7.087661 5.220280 647.841187
686 0 1 7.564807 5.534850 647.113403
687 0 1 7.907568 5.900130 646.281006
688 0 1 8.171972 6.082620 645.343384
689 0 1 8.478763 6.568370 644.583496
690 0 1 8.768688 7.035733 643.836914
691 0 1 8.904584 7.613485 643.047607
692 0 1 9.410760 7.936560 642.217407
693 0 1 9.660650 8.029642 641.298523
694 0 1 9.685240 7.728688 640.372803
695 0 1 9.897141 7.593797 639.440491
696 0 1 10.227100 7.568631 638.510010
697 0 1 10.206060 7.933871 637.619629
698 0 1 9.838100 8.239731 636.781311
699 0 1 9.413740 8.388568 635.913330
700 0 1 8.958222 8.546286 634.995361
701 0 1 9.080900 8.618267 634.041138
702 0 1 9.017260 8.947237 633.162842
703 0 1 8.936019 9.239540 632.244934
704 0 1 8.839041 8.890915 631.371887
705 0 1 8.886387 8.629641 630.446289
706 0 1 9.181200 8.395693 629.579041
707 0 1 9.602000 8.131432 628.718079
708 0 1 10.148000 7.915576 627.988098
709 0 1 10.426720 7.570785 627.142700
710 0 1 10.271049 7.389343 626.121887
711 0 1 9.983430 7.290359 625.180969
712 0 1 9.689440 7.267888 624.263977
713 0 1 9.346210 7.528978 623.386658
714 0 1 9.008110 7.559699 622.447632
715 0 1 8.783565 7.524654 621.553772
716 0 1 8.757527 7.259165 620.555786
717 0 1 8.656173 7.150404 619.573730
718 0 1 8.693012 6.742390 618.678040
719 0 1 8.872905 6.436270 617.733704
720 0 1 8.958624 6.068600 616.791382
721 0 1 8.801771 5.905650 615.864990
722 0 1 8.710469 5.485300 615.010315
723 0 1 8.765199 5.012030 614.150574
724 0 1 9.000600 4.452720 613.410522
725 0 1 9.323390 3.893490 612.715393
726 0 1 9.493600 3.381440 611.910828
727 0 1 9.567400 2.968400 611.040710
728 0 1 9.796710 2.678060 610.179382
729 0 1 9.905860 2.324730 609.245728
730 0 1 10.286570 2.197130 608.352478
731 0 1 10.369640 2.313160 607.420227
732 0 1 10.232600 2.692680 606.536987
733 0 1 10.116020 3.020340 605.653625
734 0 1 10.157660 3.702740 604.984802
735 0 1 10.221700 4.155830 604.153931
736 0 1 10.369980 4.856090 603.488892
737 0 1 10.500230 5.308590 602.588074
738 0 1 10.557540 5.568150 601.662598
739 0 1 10.431030 5.533220 600.663574
740 0 1 10.328920 5.764950 599.728394
741 0 1 10.565320 5.930350 598.724426
742 0 1 10.483500 6.217020 597.801392
743 0 1 10.633039 6.486800 596.919800
744 0 1 10.891310 6.632190 595.984009
745 0 1 11.084810 6.902820 595.107483
746 0 1 11.224450 7.438158 594.277527
747 0 1 11.338150 8.047169 593.541077
748 0 1 11.451260 8.618181 592.821899
749 0 1 11.666840 9.124010 592.032104
750 0 1 11.733550 9.631830 591.259216
751 0 1 11.685680 10.275870 590.606201
752 0 1 11.794490 10.905790 589.889893
753 0 1 11.423650 11.403120 589.106018
754 0 1 11.035080 11.496420 588.268616
755 0 1 10.477640 11.442790 587.497009
756 0 1 10.009760 11.341500 586.665527
757 0 1 9.655160 11.558760 585.819580
758 0 1 9.279000 11.986070 585.009521
759 0 1 8.967313 12.257290 584.102173
760 0 1 8.883471 12.910980 583.416809
761 0 1 8.611940 13.317610 582.624512
762 0 1 8.514076 13.582160 581.703613
763 0 1 8.310427 13.621930 580.783020
764 0 1 8.225420 13.431250 579.851379
765 0 1 8.291858 13.194270 578.895081
766 0 1 8.118168 13.154030 577.981873
767 0 1 8.061494 12.972490 577.049377
768 0 1 7.944527 12.847710 576.129822
769 0 1 7.941167 12.515060 575.185486
770 0 1 7.874612 12.069480 574.304993
771 0 1 7.210245 11.864429 573.592102
772 0 1 6.834340 11.711200 572.695068
773 0 1 6.665070 11.551300 571.810181
774 0 1 6.649230 11.239310 570.891602
775 0 1 6.658260 11.088330 569.876709
776 0 1 6.360570 10.803560 568.990906
777 0 1 6.175200 10.795470 568.032471
778 0 1 5.984590 10.718970 567.074402
779 0 1 5.758420 10.720300 566.140381
780 0 1 5.341980 10.923240 565.303528
781 0 1 4.922980 11.140520 564.512512
782 0 1 4.968390 11.436600 563.629822
783 0 1 4.874880 11.571600 562.707581
784 0 1 4.725850 11.574550 561.740173
785 0 1 4.816490 11.521730 560.740723
786 0 1 5.185400 11.606220 559.829834
787 0 1 5.572820 11.522160 558.995117
788 0 1 5.727850 11.503410 558.039185
789 0 1 5.937990 11.595921 557.119812
790 0 1 6.100610 11.203820 556.276978
791 0 1 6.262050 10.798429 555.406372
792 0 1 6.480820 10.388850 554.579224