LAMMPS data file via MDAnalysis

        1000  atoms
        1000  bonds
        1000  angles
           0  dihedrals
           0  impropers

           1  atom types
           1  bond types
           1  angle types
           0  dihedral types
           0  improper types

0.000000 16.000000 xlo xhi
0.000000 16.000000 ylo yhi
0.000000 1257.000000 zlo zhi


Masses

1 1.000000

Atoms

1 0 1 6.090100 6.735610 449.542999
2 0 1 6.485440 7.181911 450.294006
3 0 1 6.679450 7.556898 451.119019
4 0 1 7.007071 7.826661 451.998993
5 0 1 7.476940 8.087907 452.773987
6 0 1 7.957121 8.239369 453.688995
7 0 1 8.184079 8.444132 454.591980
8 0 1 8.348725 8.729300 455.552979
9 0 1 8.566358 9.178550 456.330017
10 0 1 8.902249 9.691160 457.061005
11 0 1 9.330580 9.977120 457.798004
12 0 1 9.650230 10.266610 458.658997
13 0 1 10.206990 10.573410 459.516998
14 0 1 10.480100 10.619710 460.458008
15 0 1 10.713970 11.052470 461.281006
16 0 1 11.215630 11.633880 461.929016
17 0 1 11.294130 11.835620 462.904999
18 0 1 11.385509 12.061920 463.890991
19 0 1 11.811430 11.913730 464.694000
20 0 1 12.087740 11.994790 465.635986
21 0 1 11.847870 12.437090 466.529999
22 0 1 11.590179 13.008170 467.377014
23 0 1 11.302640 13.332280 468.216980
24 0 1 10.870470 13.663380 469.005981
25 0 1 10.446100 13.787510 469.898987
26 0 1 9.896680 13.759270 470.694000
27 0 1 9.501050 13.772870 471.580994
28 0 1 9.057720 13.927900 472.412994
29 0 1 8.893217 14.018690 473.440979
30 0 1 8.562035 14.214270 474.346985
31 0 1 8.130175 14.283520 475.177002
32 0 1 7.996874 14.104000 476.132019
33 0 1 8.347604 14.016661 477.101013
34 0 1 8.293796 13.852530 478.052002
35 0 1 8.173488 13.330299 478.901001
36 0 1 7.904345 12.656860 479.487000
37 0 1 7.863716 11.866930 480.041992
38 0 1 7.836112 11.010330 480.580017
39 0 1 8.007182 10.069370 480.919983
40 0 1 8.063869 9.141830 481.169983
41 0 1 7.875638 8.349881 481.753998
42 0 1 7.847804 7.558073 482.382019
43 0 1 7.911118 7.006930 483.153015
44 0 1 8.203217 6.741120 484.076996
45 0 1 8.196713 6.298140 484.966980
46 0 1 8.130188 6.044650 485.903992
47 0 1 8.314364 5.993490 486.820007
48 0 1 8.574562 6.133720 487.768005
49 0 1 8.937867 6.324900 488.575012
50 0 1 9.326360 6.543600 489.434998
51 0 1 9.398450 6.827490 490.399994
52 0 1 9.451720 6.754260 491.410004
53 0 1 9.650270 6.706640 492.343018
54 0 1 9.833160 6.936510 493.343018
55 0 1 10.190250 7.422194 494.121002
56 0 1 10.449600 7.782921 495.009003
57 0 1 10.875900 8.128881 495.764008
58 0 1 11.175070 8.427483 496.596008
59 0 1 11.220470 8.902354 497.416992
60 0 1 11.508910 9.345300 498.220001
61 0 1 11.879350 9.848190 498.955017
62 0 1 12.176180 10.271070 499.716980
63 0 1 12.378651 10.895130 500.401978
64 0 1 12.296329 11.617229 501.104004
65 0 1 12.425180 12.220369 501.889008
66 0 1 12.138710 12.850320 502.606018
67 0 1 11.730050 13.103170 503.476013
68 0 1 11.435420 13.653790 504.161987
69 0 1 11.163100 13.814011 505.057983
70 0 1 10.740840 13.953310 505.893982
71 0 1 10.373720 14.115350 506.773987
72 0 1 9.824210 14.215820 507.541992
73 0 1 9.123810 14.374360 508.229004
74 0 1 8.608188 14.372370 508.976990
75 0 1 8.089271 14.285940 509.739014
76 0 1 7.654962 14.077641 510.602997
77 0 1 7.349132 14.175200 511.533997
78 0 1 7.162374 14.113070 512.500000
79 0 1 6.640090 14.054860 513.323975
80 0 1 6.116520 14.158131 514.135010
81 0 1 5.532480 14.118940 514.895996
82 0 1 4.962080 14.000811 515.653015
83 0 1 4.531290 13.923180 516.489990
84 0 1 4.416650 13.639800 517.442017
85 0 1 4.096100 13.389570 518.359985
86 0 1 3.850630 13.295500 519.281982
87 0 1 3.763510 13.170259 520.315002
88 0 1 3.958160 12.855289 521.167969
89 0 1 4.383350 12.404420 521.932007
90 0 1 4.999080 11.878270 522.395020
91 0 1 5.678380 11.524390 522.929016
92 0 1 6.202370 11.394620 523.797974
93 0 1 6.781510 11.466890 524.528015
94 0 1 7.354524 11.669470 525.325989
95 0 1 7.758682 11.617310 526.254028
96 0 1 8.252321 11.436831 527.109985
97 0 1 8.411837 11.404680 528.015991
98 0 1 8.551135 11.636311 528.941711
99 0 1 8.884039 11.680310 529.804626
100 0 1 9.128210 11.642590 530.713196
101 0 1 9.381910 11.749550 531.652466
102 0 1 9.470440 11.754580 532.653015
103 0 1 9.609950 11.735790 533.581421
104 0 1 9.668570 11.674070 534.656494
105 0 1 9.483870 11.347950 535.509521
106 0 1 9.177250 11.099910 536.362671
107 0 1 8.893312 10.713270 537.242004
108 0 1 8.108528 10.276630 537.687805
109 0 1 7.298846 9.903910 538.069824
110 0 1 6.694590 9.208170 538.450073
111 0 1 6.034310 8.654022 538.758789
112 0 1 5.321500 8.253676 539.317322
113 0 1 4.608490 7.815817 539.858398
114 0 1 4.155730 7.714621 540.662476
115 0 1 3.851200 7.281863 541.453369
116 0 1 3.523310 6.894060 542.247986
117 0 1 3.418310 6.518870 543.120728
118 0 1 3.410810 6.011850 543.994812
119 0 1 3.531980 5.479350 544.859497
120 0 1 3.840570 5.045560 545.750793
121 0 1 3.951090 4.889350 546.742676
122 0 1 4.188080 4.988270 547.725708
123 0 1 4.702490 5.330450 548.505493
124 0 1 5.073730 5.589370 549.336914
125 0 1 5.471010 6.047040 550.149292
126 0 1 6.027730 6.419220 550.934509
127 0 1 6.290110 6.695100 551.844116
128 0 1 6.517760 6.987150 552.718506
129 0 1 6.577250 6.823980 553.644531
130 0 1 6.627540 6.883620 554.671326
131 0 1 6.751510 6.890400 555.667175
132 0 1 6.955800 7.150688 556.635925
133 0 1 7.298907 7.325128 557.481995
134 0 1 7.514153 7.510145 558.378174
135 0 1 7.847241 7.687827 559.254395
136 0 1 8.115016 8.035805 560.189392
137 0 1 7.967157 8.439465 561.035583
138 0 1 7.899658 9.060030 561.817505
139 0 1 7.923275 9.699100 562.577271
140 0 1 7.865837 10.224840 563.434021
141 0 1 8.032836 10.675290 564.248108
142 0 1 8.440956 10.936930 565.040710
143 0 1 8.955820 11.183290 565.741028
144 0 1 9.358891 11.372271 566.553711
145 0 1 9.770060 11.788980 567.291382
146 0 1 9.904290 12.387370 568.026978
147 0 1 10.049680 12.788000 568.962585
148 0 1 10.020400 12.863710 569.963684
149 0 1 9.880960 13.152130 570.886780
150 0 1 9.749650 13.247880 571.878784
151 0 1 9.470940 13.025630 572.775024
152 0 1 9.386570 12.570271 573.638916
153 0 1 9.569940 12.437230 574.607605
154 0 1 9.816440 12.309500 575.567627
155 0 1 10.075420 11.909130 576.444824
156 0 1 10.483610 11.469310 577.221802
157 0 1 10.722440 10.891230 577.955872
158 0 1 10.982450 10.236550 578.590698
159 0 1 11.317250 9.664370 579.274292
160 0 1 11.458090 8.945262 579.925720
161 0 1 11.232680 8.346926 580.705627
162 0 1 11.107470 7.766192 581.456726
163 0 1 11.103270 7.127680 582.200195
164 0 1 10.927760 6.630880 583.035522
165 0 1 10.715900 6.350210 583.938110
166 0 1 10.745461 6.049430 584.793274
167 0 1 10.693060 5.861250 585.701416
168 0 1 10.518800 5.780970 586.629883
169 0 1 10.336400 5.583320 587.535889
170 0 1 10.045490 5.130160 588.313416
171 0 1 9.923240 4.748380 589.199829
172 0 1 9.882980 4.426360 590.156677
173 0 1 9.725350 4.156310 591.131409
174 0 1 9.292610 3.988720 592.027283
175 0 1 9.035130 4.042050 592.990173
176 0 1 8.683027 4.120640 593.940002
177 0 1 8.347261 4.031460 594.802490
178 0 1 8.007341 3.968000 595.757874
179 0 1 7.911407 4.003650 596.758606
180 0 1 7.806543 3.685470 597.681213
181 0 1 7.692788 3.527040 598.619324
182 0 1 7.676076 3.396790 599.561218
183 0 1 7.497436 3.480740 600.484802
184 0 1 6.984800 3.650290 601.244629
185 0 1 6.470340 3.476150 602.031616
186 0 1 5.945830 3.359350 602.837891
187 0 1 5.598530 3.339770 603.746826
188 0 1 5.250490 3.419710 604.723511
189 0 1 4.844260 3.709930 605.618530
190 0 1 4.506780 3.970650 606.513184
191 0 1 4.325490 4.305480 607.430481
192 0 1 3.928420 4.769020 608.154724
193 0 1 3.818360 5.462670 608.748596
194 0 1 3.679120 6.133920 609.451111
195 0 1 3.779160 6.509110 610.275879
196 0 1 4.392060 6.778780 610.942078
197 0 1 4.876170 6.947430 611.751404
198 0 1 5.235350 7.148000 612.688293
199 0 1 5.562980 7.456976 613.570007
200 0 1 6.125930 7.724708 614.282898
201 0 1 6.620710 7.856269 615.157104
202 0 1 6.974900 8.207843 616.032410
203 0 1 7.454552 8.666284 616.756714
204 0 1 7.589805 9.203000 617.521790
205 0 1 7.656016 9.882100 618.155518
206 0 1 7.757458 10.602210 618.810913
207 0 1 7.691120 11.207930 619.515747
208 0 1 7.702801 11.667670 620.400269
209 0 1 7.786793 12.056300 621.240540
210 0 1 7.693051 12.404221 622.145935
211 0 1 7.344922 12.162410 623.063171
212 0 1 6.886130 12.246531 623.868103
213 0 1 6.503530 12.200830 624.750305
214 0 1 5.906360 11.870080 625.520142
215 0 1 5.183180 11.763580 626.100830
216 0 1 4.474870 11.354780 626.663574
217 0 1 3.940250 10.852221 627.323120
218 0 1 3.401870 10.206440 627.907288
219 0 1 2.999950 9.861070 628.683838
220 0 1 2.694400 9.618080 629.546326
221 0 1 2.205280 9.502730 630.396667
222 0 1 1.830980 9.133570 631.200623
223 0 1 1.510520 8.780687 632.049500
224 0 1 1.216040 8.833267 632.975830
225 0 1 1.296490 8.833048 633.923706
226 0 1 1.524560 9.042370 634.817871
227 0 1 1.702000 9.338620 635.744812
228 0 1 1.671610 9.855300 636.583069
229 0 1 1.669670 10.035690 637.529053
230 0 1 1.826950 10.201230 638.517212
231 0 1 1.958330 10.147190 639.518799
232 0 1 2.206020 10.197780 640.481995
233 0 1 2.132010 9.792110 641.364319
234 0 1 2.222260 9.316420 642.175476
235 0 1 2.348460 8.769536 642.932800
236 0 1 2.736280 8.247565 643.637573
237 0 1 3.028730 7.589860 644.301575
238 0 1 3.163750 7.125642 645.115295
239 0 1 3.300820 6.562740 645.848389
240 0 1 3.970990 6.267900 646.440918
241 0 1 4.769740 6.242780 646.878479
242 0 1 5.592550 6.390350 647.354614
243 0 1 6.343650 6.622480 647.928772
244 0 1 7.132721 6.963050 648.367371
245 0 1 7.811080 7.282193 648.953125
246 0 1 8.208309 7.658116 649.729797
247 0 1 8.747004 8.088779 650.555115
248 0 1 8.953004 8.538035 651.449402
249 0 1 8.937965 8.841331 652.343384
250 0 1 9.080390 9.329160 653.139404
251 0 1 9.410880 9.950350 653.868713
252 0 1 9.756830 10.443020 654.576111
253 0 1 9.970220 10.828609 655.398071
254 0 1 10.264290 11.276290 656.236816
255 0 1 10.861540 11.636710 656.919983
256 0 1 11.463680 11.859529 657.636292
257 0 1 12.027861 11.606260 658.429871
258 0 1 12.114540 11.427120 659.367371
259 0 1 12.034150 11.181300 660.293884
260 0 1 11.873480 10.973490 661.222168
261 0 1 11.658140 10.745750 662.135498
262 0 1 11.624200 10.807910 663.093079
263 0 1 11.626860 10.613490 663.969177
264 0 1 11.447269 10.431360 664.852905
265 0 1 11.319320 10.463350 665.788086
266 0 1 11.104880 10.709820 666.757019
267 0 1 10.750260 10.998270 667.689880
268 0 1 10.253990 11.189610 668.446289
269 0 1 9.892060 11.132071 669.377075
270 0 1 9.606390 11.405540 670.198914
271 0 1 9.315660 11.890900 670.992920
272 0 1 9.114420 12.516040 671.708618
273 0 1 9.133720 13.265280 672.375977
274 0 1 8.791331 13.885410 672.954895
275 0 1 8.323459 14.314810 673.691711
276 0 1 7.960580 14.442980 674.599304
277 0 1 7.593711 14.485189 675.451904
278 0 1 7.233193 14.405690 676.378479
279 0 1 6.821270 14.217470 677.202820
280 0 1 6.609570 13.970631 678.094971
281 0 1 6.277890 13.698470 678.936890
282 0 1 6.222860 13.097250 679.725525
283 0 1 6.152170 12.297440 680.263123
284 0 1 6.091780 11.395910 680.632568
285 0 1 6.127260 10.513160 680.958130
286 0 1 6.452230 9.718290 681.463806
287 0 1 6.814640 8.916948 681.924927
288 0 1 7.443095 8.365042 682.455322
289 0 1 8.066453 8.119812 683.136292
290 0 1 8.699641 8.012179 683.871399
291 0 1 9.478820 7.594248 684.309814
292 0 1 10.393681 7.235403 684.234131
293 0 1 11.318250 6.989370 684.375427
294 0 1 12.003059 7.156916 685.045532
295 0 1 12.574181 7.085565 685.782227
296 0 1 13.186760 7.229135 686.509216
297 0 1 13.635970 7.364452 687.346313
298 0 1 13.878220 7.562423 688.257385
299 0 1 14.041100 7.538043 689.254883
300 0 1 14.115200 7.565251 690.241028
301 0 1 14.229290 7.696636 691.170410
302 0 1 13.997379 7.960344 692.099487
303 0 1 13.619640 8.382598 692.898193
304 0 1 13.737909 8.885029 693.701904
305 0 1 13.472549 9.514110 694.363892
306 0 1 12.960540 10.107759 694.954468
307 0 1 12.472970 10.647870 695.552307
308 0 1 11.966040 11.213970 696.174072
309 0 1 11.736530 11.658520 697.047974
310 0 1 11.403500 11.889020 697.904480
311 0 1 10.869930 11.957300 698.706299
312 0 1 10.320790 11.938880 699.534424
313 0 1 9.965320 11.801331 700.428101
314 0 1 9.871450 11.748810 701.419312
315 0 1 9.718840 11.471240 702.397400
316 0 1 9.532520 11.168950 703.250183
317 0 1 9.383200 10.803810 704.191711
318 0 1 9.245330 10.721910 705.157410
319 0 1 9.183070 10.352420 705.992615
320 0 1 9.074580 9.964980 706.826477
321 0 1 9.206960 9.700960 707.726318
322 0 1 9.614110 9.566830 708.610291
323 0 1 10.235710 9.455780 709.335327
324 0 1 10.891510 9.300140 710.096985
325 0 1 11.312780 9.135210 710.927368
326 0 1 11.899611 8.859855 711.630005
327 0 1 12.482560 8.590822 712.404785
328 0 1 12.934219 8.613161 713.249207
329 0 1 13.262791 8.522879 714.115967
330 0 1 13.344250 8.395926 715.055298
331 0 1 13.602470 8.103402 715.903381
332 0 1 13.616850 7.797502 716.846985
333 0 1 13.644279 7.356325 717.720398
334 0 1 13.733601 7.025916 718.622070
335 0 1 13.837320 6.592000 719.509277
336 0 1 13.738760 5.977720 720.190430
337 0 1 13.568860 5.327490 720.905273
338 0 1 13.311530 4.794320 721.705200
339 0 1 13.008540 4.259860 722.502930
340 0 1 12.402070 3.704050 723.085205
341 0 1 11.829790 3.147010 723.567200
342 0 1 11.178410 2.776150 724.137085
343 0 1 10.309160 2.620260 724.511475
344 0 1 9.604460 2.597530 725.104126
345 0 1 8.878937 2.668390 725.748291
346 0 1 8.116594 2.865390 726.307800
347 0 1 7.562530 3.244430 726.989197
348 0 1 7.107548 3.550230 727.793213
349 0 1 6.285420 3.635370 728.432800
350 0 1 5.562460 3.833580 729.028015
351 0 1 4.959440 4.220390 729.641968
352 0 1 4.569010 4.579100 730.434998
353 0 1 4.322810 4.934370 731.322998
354 0 1 4.313360 5.227720 732.317993
355 0 1 4.557710 5.574670 733.171997
356 0 1 4.728840 5.768930 734.156982
357 0 1 5.223070 6.081680 734.937988
358 0 1 5.599020 6.176780 735.781006
359 0 1 5.808000 6.413080 736.716980
360 0 1 5.916610 6.737910 737.580994
361 0 1 5.823640 7.042980 738.473999
362 0 1 5.731990 7.045970 739.530029
363 0 1 5.616730 7.038050 740.414001
364 0 1 5.528640 6.900090 741.400024
365 0 1 5.372640 6.665650 742.364990
366 0 1 5.321130 6.835480 743.343994
367 0 1 5.079410 7.002383 744.278015
368 0 1 4.987930 7.150720 745.156982
369 0 1 4.918100 7.362482 746.148987
370 0 1 4.656650 7.577259 747.044006
371 0 1 4.402110 7.698502 747.952026
372 0 1 4.100080 7.912603 748.865967
373 0 1 3.662250 8.193358 749.630981
374 0 1 3.645170 8.625341 750.510986
375 0 1 3.476060 8.781473 751.401001
376 0 1 3.512020 8.904527 752.382996
377 0 1 3.428360 8.927237 753.346985
378 0 1 3.344650 8.883076 754.318970
379 0 1 3.396280 8.700065 755.218018
380 0 1 3.710140 8.365939 756.091980
381 0 1 3.862420 8.157236 757.010986
382 0 1 3.908910 8.317920 758.015015
383 0 1 3.940970 8.381620 758.931030
384 0 1 4.146320 8.218885 759.870972
385 0 1 4.451660 8.011076 760.760010
386 0 1 5.037620 7.700743 761.453003
387 0 1 5.577000 7.398409 762.162964
388 0 1 6.367740 7.277644 762.734985
389 0 1 7.102025 6.945800 763.317017
390 0 1 7.495927 6.851270 764.208008
391 0 1 7.764391 6.723040 765.101990
392 0 1 8.091491 6.721730 766.051025
393 0 1 8.009131 6.996300 766.952026
394 0 1 7.618020 6.905360 767.849976
395 0 1 7.019953 6.819160 768.681030
396 0 1 6.526020 7.205235 769.375000
397 0 1 5.906650 7.761452 769.947021
398 0 1 5.305030 8.305660 770.463013
399 0 1 4.738840 8.656941 771.141968
400 0 1 4.208550 9.169710 771.872009
401 0 1 3.576070 9.484350 772.578003
402 0 1 3.218920 9.860190 773.410034
403 0 1 2.892010 9.982480 774.351013
404 0 1 2.500380 10.144960 775.224976
405 0 1 2.216170 10.012430 776.174011
406 0 1 2.065370 9.994220 777.093018
407 0 1 1.853270 9.967620 778.037964
408 0 1 1.701230 9.986010 778.979980
409 0 1 1.807420 10.013750 779.921021
410 0 1 2.071840 10.122310 780.841980
411 0 1 2.469730 10.405930 781.686035
412 0 1 2.742700 10.699400 782.562012
413 0 1 2.739780 11.017469 783.536987
414 0 1 2.745570 11.097950 784.523987
415 0 1 3.049860 10.968550 785.411987
416 0 1 3.503190 10.690580 786.219971
417 0 1 4.101260 10.337620 786.934021
418 0 1 4.474250 9.968019 787.770996
419 0 1 4.851980 9.820190 788.612000
420 0 1 5.220940 9.464540 789.419983
421 0 1 5.577650 9.225200 790.260986
422 0 1 5.886540 8.983937 791.160034
423 0 1 6.390420 9.007390 791.940979
424 0 1 6.912020 8.729452 792.684998
425 0 1 7.343793 8.364213 793.520996
426 0 1 7.609828 8.041919 794.380981
427 0 1 7.876446 7.688898 795.299988
428 0 1 8.040380 7.159332 796.054993
429 0 1 8.214738 6.593960 796.828979
430 0 1 8.473823 5.942790 797.505981
431 0 1 8.946270 5.456180 798.184021
432 0 1 9.244280 4.976590 798.984985
433 0 1 9.314610 4.687310 799.890015
434 0 1 9.388630 4.583120 800.801025
435 0 1 9.322090 4.437600 801.752991
436 0 1 9.166360 4.606160 802.705994
437 0 1 9.316290 4.728950 803.632019
438 0 1 9.300920 4.662030 804.565979
439 0 1 9.464260 4.846840 805.442993
440 0 1 9.395700 4.771150 806.390991
441 0 1 9.235291 4.402620 807.297974
442 0 1 9.166290 4.332830 808.276978
443 0 1 9.389870 4.651320 809.167969
444 0 1 9.847260 4.948230 810.010010
445 0 1 10.256750 5.339330 810.759033
446 0 1 10.463700 5.836160 811.546997
447 0 1 10.712090 6.261950 812.380005
448 0 1 10.690780 6.624430 813.210999
449 0 1 10.766340 7.256189 813.945007
450 0 1 10.791550 7.776938 814.733032
451 0 1 10.994420 8.074272 815.698975
452 0 1 11.445070 8.329991 816.518005
453 0 1 11.493840 8.918852 817.242981
454 0 1 11.764650 9.551690 817.926025
455 0 1 12.078939 10.113040 818.604004
456 0 1 12.129230 10.256540 819.500977
457 0 1 11.947269 10.435440 820.471008
458 0 1 11.643370 10.461380 821.351013
459 0 1 11.348600 10.397600 822.239014
460 0 1 10.892469 10.270230 823.078003
461 0 1 10.556910 10.318380 824.028015
462 0 1 10.484240 10.487830 825.041992
463 0 1 10.544340 10.664340 826.030029
464 0 1 10.525700 10.658490 826.948975
465 0 1 10.731060 10.742240 827.869019
466 0 1 11.100030 10.771540 828.764038
467 0 1 11.555440 10.805970 829.542969
468 0 1 12.186090 10.738050 830.210022
469 0 1 12.527620 10.508340 831.091003
470 0 1 12.776091 9.862850 831.802979
471 0 1 12.860340 9.324640 832.518982
472 0 1 12.961411 8.771190 833.328979
473 0 1 12.581460 8.105522 833.825989
474 0 1 12.094250 7.558710 834.471985
475 0 1 11.561029 6.963970 835.018982
476 0 1 10.757060 6.422700 834.966980
477 0 1 9.850590 5.987180 835.020020
478 0 1 9.121080 5.500380 834.695007
479 0 1 8.660842 4.757790 834.273010
480 0 1 7.913633 4.612070 833.765015
481 0 1 7.041838 4.438180 833.421997
482 0 1 6.285410 4.493490 832.885010
483 0 1 6.006890 4.938760 832.145020
484 0 1 5.849870 5.179300 831.184998
485 0 1 5.601600 5.658000 830.341003
486 0 1 5.632270 6.138110 829.460022
487 0 1 5.972490 6.683870 828.686035
488 0 1 6.232960 7.133874 827.848022
489 0 1 6.575240 7.761118 827.193970
490 0 1 6.848790 8.096287 826.325989
491 0 1 6.922950 8.155370 825.320007
492 0 1 6.912100 8.561219 824.429993
493 0 1 7.088916 8.922604 823.580994
494 0 1 7.329087 8.838147 822.591980
495 0 1 7.377456 8.866707 821.596008
496 0 1 7.264937 9.027740 820.656006
497 0 1 7.188211 9.344660 819.754028
498 0 1 7.128881 9.436180 818.729004
499 0 1 7.146274 9.462990 817.771973
500 0 1 7.057748 9.524480 816.768005
501 0 1 7.230825 9.500980 815.837036
502 0 1 7.224923 9.387250 814.884033
503 0 1 7.273758 9.328810 813.921997
504 0 1 7.468093 9.607590 813.025024
505 0 1 7.354574 9.945430 812.151001
506 0 1 7.262750 10.444310 811.313965
507 0 1 7.103309 10.642570 810.372009
508 0 1 7.198721 10.966300 809.464966
509 0 1 7.418912 11.216021 808.536987
510 0 1 7.268939 11.395411 807.536987
511 0 1 6.865260 11.643820 806.684998
512 0 1 6.616360 11.846621 805.750977
513 0 1 6.734850 11.748120 804.755005
514 0 1 7.058463 11.551550 803.901978
515 0 1 7.064862 11.269730 802.979980
516 0 1 7.072280 11.035540 802.047974
517 0 1 6.947180 10.796680 801.132019
518 0 1 6.633150 10.586309 800.280029
519 0 1 6.386890 10.382970 799.309998
520 0 1 6.126140 10.178160 798.380981
521 0 1 5.580980 10.050220 797.625000
522 0 1 5.405570 10.188780 796.688965
523 0 1 5.155570 10.001101 795.768982
524 0 1 4.966760 9.833320 794.796997
525 0 1 5.176920 9.771220 793.802002
526 0 1 5.149790 9.724740 792.799988
527 0 1 5.263520 9.878990 791.846985
528 0 1 5.388550 10.297310 790.985962
529 0 1 5.281150 10.620920 790.083008
530 0 1 5.264600 10.922220 789.125000
531 0 1 5.384360 10.883801 788.200989
532 0 1 5.463300 10.962780 787.257019
533 0 1 5.606740 11.204750 786.382019
534 0 1 5.812070 11.263530 785.455017
535 0 1 5.942800 11.461400 784.526001
536 0 1 6.099520 12.052150 783.785034
537 0 1 6.363030 12.504271 782.955994
538 0 1 6.593980 12.825640 782.108032
539 0 1 6.695930 13.099960 781.143982
540 0 1 6.638290 12.935400 780.213989
541 0 1 6.821360 12.753300 779.286987
542 0 1 6.963880 12.643160 778.312988
543 0 1 7.093556 12.752960 777.367981
544 0 1 7.117795 12.583731 776.386963
545 0 1 7.110634 12.325769 775.417969
546 0 1 7.008403 12.238350 774.458008
547 0 1 6.902360 12.346371 773.489014
548 0 1 6.938010 12.402121 772.521973
549 0 1 6.996120 12.363300 771.505981
550 0 1 7.120874 11.966460 770.646973
551 0 1 7.475964 11.674160 769.801025
552 0 1 7.717488 11.345100 768.953979
553 0 1 7.877840 11.145220 767.999023
554 0 1 8.207886 10.831750 767.169006
555 0 1 8.343546 10.700530 766.176025
556 0 1 8.279190 10.644530 765.233032
557 0 1 8.291211 10.639320 764.306030
558 0 1 8.465464 10.251880 763.450989
559 0 1 8.743135 9.876490 762.601990
560 0 1 9.070910 9.368400 761.825012
561 0 1 9.192410 8.677713 761.057983
562 0 1 9.476650 8.040957 760.286011
563 0 1 10.006310 7.561856 759.664978
564 0 1 10.428900 7.005636 758.978027
565 0 1 10.916861 6.717290 758.239014
566 0 1 11.546480 6.453530 757.531006
567 0 1 12.017000 6.068160 756.843994
568 0 1 12.532619 5.829760 756.062988
569 0 1 12.887890 5.761630 755.148010
570 0 1 12.936760 5.580820 754.210999
571 0 1 12.891470 5.287100 753.266968
572 0 1 12.959370 5.030170 752.367004
573 0 1 13.168190 4.782840 751.536987
574 0 1 13.257600 4.380620 750.700012
575 0 1 13.248970 4.044490 749.788025
576 0 1 13.080999 3.714470 748.844971
577 0 1 12.954679 3.644590 747.921997
578 0 1 12.726789 3.812230 746.926025
579 0 1 12.347630 3.894700 746.035034
580 0 1 12.075439 4.127550 745.067993
581 0 1 11.570770 4.700240 744.445984
582 0 1 11.240789 5.399610 743.870972
583 0 1 10.892030 6.160820 743.301025
584 0 1 10.705920 6.679000 742.567993
585 0 1 10.282721 7.274168 741.931030
586 0 1 10.193630 7.844567 741.200012
587 0 1 9.881580 8.685205 740.687012
588 0 1 9.509040 9.135100 739.862000
589 0 1 9.250500 9.442120 739.000000
590 0 1 8.987281 9.883030 738.120972
591 0 1 8.488059 10.227880 737.286987
592 0 1 7.934956 10.485540 736.494019
593 0 1 7.406758 10.572710 735.669983
594 0 1 6.997070 10.902830 734.843018
595 0 1 6.794650 11.149720 733.914978
596 0 1 6.656280 11.267640 732.961975
597 0 1 6.574730 11.458720 732.021973
598 0 1 6.926800 11.339290 731.125977
599 0 1 7.318295 10.857230 730.447021
600 0 1 7.677495 10.500910 729.565002
601 0 1 8.136302 10.262890 728.778015
602 0 1 8.470260 9.797870 728.019104
603 0 1 8.584178 9.365520 727.012085
604 0 1 8.720035 9.128810 726.064575
605 0 1 8.553536 9.005700 725.100281
606 0 1 8.790217 9.224010 724.130493
607 0 1 9.001440 9.123600 723.207825
608 0 1 9.374490 9.250290 722.322388
609 0 1 9.714000 9.472670 721.393677
610 0 1 10.129760 9.195040 720.534119
611 0 1 10.489440 9.003860 719.620911
612 0 1 11.097930 8.631649 718.887878
613 0 1 11.526940 8.303715 718.060181
614 0 1 11.967570 8.304549 717.184204
615 0 1 12.091740 8.254350 716.203918
616 0 1 12.132530 8.056002 715.245300
617 0 1 12.103130 7.968419 714.244507
618 0 1 11.593480 7.887942 713.395325
619 0 1 11.117350 7.624582 712.597900
620 0 1 10.756670 7.248736 711.830078
621 0 1 10.395800 6.978740 711.012695
622 0 1 10.196560 6.844120 710.125000
623 0 1 9.899090 6.661610 709.244629
624 0 1 9.736880 6.657600 708.315125
625 0 1 9.639600 7.293863 707.612976
626 0 1 9.314060 7.982841 707.083923
627 0 1 8.750065 8.591098 706.542908
628 0 1 8.371139 9.069890 705.743591
629 0 1 8.235875 9.410000 704.865784
630 0 1 8.345654 9.970850 704.135010
631 0 1 8.404593 10.443250 703.345093
632 0 1 8.279420 11.183050 702.777405
633 0 1 7.958743 11.784230 702.015198
634 0 1 7.723008 12.275010 701.120483
635 0 1 7.663084 12.581540 700.208496
636 0 1 7.401614 12.976749 699.393799
637 0 1 7.052037 13.073450 698.475098
638 0 1 6.792850 13.130569 697.558899
639 0 1 6.251070 13.144011 696.737122
640 0 1 5.923930 12.856770 695.934509
641 0 1 5.333500 12.589120 695.191711
642 0 1 4.671400 12.180201 694.627930
643 0 1 4.115970 11.867370 693.943787
644 0 1 3.570200 11.514590 693.120789
645 0 1 3.353120 11.039230 692.284668
646 0 1 2.977140 10.757590 691.476990
647 0 1 3.032520 10.365300 690.594177
648 0 1 2.910700 9.907810 689.750610
649 0 1 2.969120 9.354280 688.974121
650 0 1 2.733120 8.655917 688.349731
651 0 1 2.647970 7.949780 687.695007
652 0 1 2.534910 7.245962 687.066711
653 0 1 2.423870 6.646630 686.277527
654 0 1 2.245910 6.210020 685.457275
655 0 1 2.094310 5.767880 684.647705
656 0 1 2.372310 5.455320 683.770508
657 0 1 2.757890 4.958310 683.026489
658 0 1 2.882160 4.582190 682.160706
659 0 1 3.008000 4.409060 681.236694
660 0 1 3.002800 4.556230 680.305420
661 0 1 2.809280 4.363400 679.309875
662 0 1 2.628040 4.704060 678.353027
663 0 1 2.291370 4.911100 677.521118
664 0 1 2.255210 5.307930 676.607910
665 0 1 2.410350 5.507110 675.706177
666 0 1 2.344240 5.771240 674.742493
667 0 1 2.129790 5.597760 673.832031
668 0 1 2.473540 5.354880 672.950989
669 0 1 2.906290 5.245040 672.064209
670 0 1 3.257370 5.247520 671.176514
671 0 1 3.435820 5.139110 670.159973
672 0 1 3.932500 5.448850 669.402100
673 0 1 4.435530 5.529590 668.580200
674 0 1 5.186370 5.406910 668.020813
675 0 1 5.783740 5.404120 667.285095
676 0 1 6.413480 5.235050 666.650513
677 0 1 6.993670 5.234650 665.893982
678 0 1 7.624121 5.080450 665.160217
679 0 1 7.592272 4.760000 664.203125
680 0 1 7.393995 4.452510 663.292419
681 0 1 6.933520 4.594390 662.453308
682 0 1 6.359630 4.737480 661.723206
683 0 1 6.128490 5.181800 660.887024
684 0 1 5.871760 5.589260 660.004211
685 0 1 5.696600 5.916250 659.047607
686 0 1 5.577250 6.174920 658.169312
687 0 1 5.706400 6.903190 657.580505
688 0 1 5.937700 7.502628 656.815308
689 0 1 6.286210 8.194663 656.223572
690 0 1 6.759210 8.821790 655.801514
691 0 1 7.227348 9.667650 655.366882
692 0 1 7.834135 10.372410 655.210815
693 0 1 8.500230 10.997310 654.629578
694 0 1 8.927687 11.580250 653.948303
695 0 1 9.375090 11.945180 653.193115
696 0 1 9.670990 12.092060 652.316101
697 0 1 9.789650 12.133910 651.364685
698 0 1 9.949710 11.962160 650.432495
699 0 1 10.400430 11.855880 649.592773
700 0 1 10.858459 12.115191 648.783691
701 0 1 11.401170 12.504510 648.038879
702 0 1 11.464360 12.675950 647.098022
703 0 1 11.487761 12.912621 646.188171
704 0 1 11.330060 12.959660 645.276184
705 0 1 11.227070 12.992390 644.350586
706 0 1 10.948610 12.993851 643.366211
707 0 1 10.777690 12.973030 642.466003
708 0 1 10.440780 13.151680 641.631714
709 0 1 9.868950 13.057620 640.881897
710 0 1 9.433960 12.908470 640.042603
711 0 1 9.252020 12.504180 639.221619
712 0 1 8.875288 12.003490 638.484558
713 0 1 8.571208 11.818750 637.546387
714 0 1 8.300010 11.576571 636.706116
715 0 1 7.913110 11.366310 635.830505
716 0 1 7.879952 10.869520 635.044556
717 0 1 7.908401 10.279720 634.297546
718 0 1 7.881186 9.527220 633.583618
719 0 1 7.889632 9.118060 632.689697
720 0 1 7.869094 8.721793 631.849976
721 0 1 8.176709 8.170824 631.109131
722 0 1 8.386697 8.093931 630.167847
723 0 1 8.690683 8.013941 629.264221
724 0 1 9.097281 7.841826 628.307617
725 0 1 9.223510 7.523556 627.432800
726 0 1 9.248150 7.206576 626.558594
727 0 1 9.407320 7.104167 625.586426
728 0 1 9.694850 6.747760 624.665222
729 0 1 9.964570 6.114500 624.016907
730 0 1 9.954640 5.410400 623.363342
731 0 1 9.779580 4.613380 622.836487
732 0 1 9.783110 3.994930 622.108521
733 0 1 9.885170 3.371000 621.347473
734 0 1 10.119920 3.041130 620.470520
735 0 1 10.040070 2.548270 619.657837
736 0 1 9.796721 2.119360 618.803040
737 0 1 9.528570 1.975640 617.873291
738 0 1 9.250570 1.895460 616.928589
739 0 1 9.057070 1.864710 615.948425
740 0 1 9.251280 2.008830 615.020020
741 0 1 9.383060 2.391620 614.079773
742 0 1 9.524700 2.929920 613.299988
743 0 1 9.625140 3.470360 612.518188
744 0 1 9.852840 4.085640 611.791016
745 0 1 9.952810 4.589570 610.974915
746 0 1 9.797980 5.061720 610.239380
747 0 1 9.532850 5.413640 609.303528
748 0 1 9.460780 5.562730 608.372925
749 0 1 9.459180 5.556670 607.426025
750 0 1 9.690690 5.537840 606.502014
751 0 1 9.861620 5.568280 605.542603
752 0 1 9.864410 5.582840 604.523315
753 0 1 10.191640 5.718920 603.596375
754 0 1 10.212060 5.901190 602.661377
755 0 1 10.352420 6.108540 601.735901
756 0 1 10.465520 6.303470 600.803772
757 0 1 10.606670 6.642400 599.926819
758 0 1 10.551040 6.623250 599.003479
759 0 1 10.642080 6.600820 598.039673
760 0 1 10.761980 6.779250 597.103699
761 0 1 10.751670 6.716930 596.149109
762 0 1 10.917200 6.879080 595.239502
763 0 1 11.078020 7.386341 594.438782
764 0 1 11.412460 7.802667 593.621277
765 0 1 11.607470 7.911068 592.708801
766 0 1 11.656830 8.303433 591.790894
767 0 1 11.527660 8.673255 590.902100
768 0 1 11.484250 8.934710 589.994202
769 0 1 11.517400 9.206650 589.090027
770 0 1 11.418770 9.466390 588.163330
771 0 1 11.197160 9.821250 587.297729
772 0 1 11.032460 10.127650 586.322205
773 0 1 10.968200 10.315510 585.366699
774 0 1 10.896090 10.352510 584.427368
775 0 1 10.607710 10.288310 583.572876
776 0 1 10.281010 10.424960 582.604492
777 0 1 9.988670 10.742440 581.747192
778 0 1 9.566590 11.094270 580.913391
779 0 1 9.057530 11.433190 580.171692
780 0 1 8.606875 11.654390 579.274597
781 0 1 8.340857 11.789070 578.385986
782 0 1 8.317009 12.088830 577.496277
783 0 1 8.405637 12.249599 576.530518
784 0 1 8.460151 12.313010 575.603699
785 0 1 8.341288 12.443439 574.687195
786 0 1 8.046170 12.719191 573.724609
787 0 1 7.892898 13.086950 572.836426
788 0 1 7.619365 13.531820 572.006409
789 0 1 7.369790 13.958670 571.245789