LAMMPS data file via MDAnalysis

        1000  atoms
        1000  bonds
        1000  angles
           0  dihedrals
           0  impropers

           1  atom types
           1  bond types
           1  angle types
           0  dihedral types
           0  improper types

0.000000 16.000000 xlo xhi
0.000000 16.000000 ylo yhi
0.000000 1257.000000 zlo zhi


Masses

1 1.000000

Atoms

1 0 1 7.862686 8.238062 452.671021
2 0 1 7.774849 8.320440 453.640015
3 0 1 7.401357 8.487902 454.483002
4 0 1 7.124340 8.574554 455.393005
5 0 1 7.289691 8.533218 456.309998
6 0 1 7.461711 8.573509 457.328003
7 0 1 7.449065 8.583747 458.322021
8 0 1 6.934860 8.376396 459.110992
9 0 1 6.447570 8.358031 459.885986
10 0 1 6.179960 8.537011 460.735992
11 0 1 5.892200 8.987867 461.636993
12 0 1 5.287160 9.123640 462.364990
13 0 1 4.893540 9.137720 463.272003
14 0 1 4.510930 8.701405 464.075989
15 0 1 4.400160 8.183318 464.877014
16 0 1 4.146030 7.678735 465.664978
17 0 1 3.955230 7.139567 466.466003
18 0 1 3.524030 7.084540 467.299011
19 0 1 2.933630 7.078755 468.078979
20 0 1 2.819410 7.343966 469.005981
21 0 1 2.546580 7.488715 469.872009
22 0 1 2.281120 7.166226 470.705017
23 0 1 1.961650 7.069464 471.627991
24 0 1 1.762570 6.903160 472.578979
25 0 1 2.028770 6.760040 473.497009
26 0 1 2.006560 6.536660 474.419983
27 0 1 2.279550 6.154870 475.239014
28 0 1 2.893020 6.065450 475.966980
29 0 1 3.624720 6.155240 476.591980
30 0 1 4.425930 6.290810 477.171997
31 0 1 4.999410 6.665250 477.854980
32 0 1 5.508050 7.125189 478.481018
33 0 1 5.822410 7.778906 479.135010
34 0 1 6.189700 8.309791 479.864014
35 0 1 6.397080 8.942258 480.507996
36 0 1 6.565230 9.682410 481.115997
37 0 1 6.706090 10.496531 481.701996
38 0 1 6.952700 11.311700 482.175995
39 0 1 7.234896 12.183290 482.612000
40 0 1 7.500871 12.521709 483.449005
41 0 1 7.781579 12.532930 484.335999
42 0 1 8.002084 12.646629 485.270020
43 0 1 8.124632 12.761810 486.226990
44 0 1 8.098714 12.765420 487.216003
45 0 1 8.516691 12.958600 488.054016
46 0 1 8.722076 13.140430 488.951996
47 0 1 8.953675 13.218420 489.877014
48 0 1 9.246270 13.459850 490.744995
49 0 1 9.300950 13.854259 491.694000
50 0 1 9.503280 14.087231 492.669983
51 0 1 9.608730 14.191521 493.593018
52 0 1 9.654380 14.163731 494.559998
53 0 1 9.574580 13.801229 495.502991
54 0 1 9.721170 13.433710 496.390991
55 0 1 9.482560 13.103750 497.312012
56 0 1 9.254690 13.001340 498.360992
57 0 1 9.194090 13.021160 499.369995
58 0 1 8.938759 12.799550 500.234009
59 0 1 8.658631 12.675520 501.167999
60 0 1 8.434877 12.372419 502.049988
61 0 1 8.224844 12.125970 502.940002
62 0 1 7.897324 12.072650 503.919983
63 0 1 7.700958 12.266940 504.825012
64 0 1 7.392094 12.231200 505.731018
65 0 1 6.918190 12.195580 506.582001
66 0 1 6.555580 12.053881 507.562988
67 0 1 6.391000 11.415970 508.218018
68 0 1 6.242680 10.789940 508.950012
69 0 1 6.126660 10.181260 509.716003
70 0 1 5.978190 9.402880 510.257019
71 0 1 5.661880 8.747288 510.807983
72 0 1 5.583740 8.190668 511.575989
73 0 1 5.749140 7.722494 512.375000
74 0 1 5.825210 7.365529 513.318970
75 0 1 6.260050 7.213815 514.210999
76 0 1 6.820970 7.435277 514.986023
77 0 1 7.423641 7.368241 515.762024
78 0 1 8.036880 7.581098 516.495972
79 0 1 8.818894 7.292190 516.945984
80 0 1 9.719970 7.252712 517.369019
81 0 1 10.399780 7.121498 518.031006
82 0 1 10.598370 7.064972 518.990967
83 0 1 10.559780 6.938100 519.945984
84 0 1 10.831360 7.133246 520.806030
85 0 1 11.225670 7.265946 521.692017
86 0 1 11.717530 7.534416 522.450012
87 0 1 12.033020 7.641996 523.374023
88 0 1 12.097321 7.623083 524.301025
89 0 1 12.029490 7.726655 525.237976
90 0 1 11.818660 7.359703 526.052979
91 0 1 11.821040 7.115792 526.968994
92 0 1 11.465700 6.776790 527.814026
93 0 1 10.894670 6.547260 528.534912
94 0 1 10.318680 6.317970 529.311401
95 0 1 9.624960 6.037930 530.074524
96 0 1 9.197110 5.779030 530.915771
97 0 1 8.597996 5.576300 531.648682
98 0 1 8.265296 5.454900 532.511230
99 0 1 7.939734 5.240800 533.369812
100 0 1 7.859678 5.242890 534.398621
101 0 1 8.103609 5.348470 535.330078
102 0 1 8.584377 5.316750 536.203979
103 0 1 9.087390 5.403800 536.999268
104 0 1 9.495300 5.659000 537.776978
105 0 1 9.868420 5.830950 538.703186
106 0 1 10.154000 5.652980 539.516174
107 0 1 10.036430 5.488730 540.516113
108 0 1 10.085210 5.424010 541.460388
109 0 1 9.845620 5.671710 542.386902
110 0 1 9.645200 6.102530 543.237427
111 0 1 9.248520 6.439590 544.107788
112 0 1 9.256570 6.391380 545.079102
113 0 1 9.120050 6.387880 546.055298
114 0 1 9.179880 6.266850 546.941223
115 0 1 9.367420 6.252720 547.872620
116 0 1 9.762020 6.085460 548.742920
117 0 1 10.168380 6.201250 549.563721
118 0 1 10.562890 6.637100 550.298889
119 0 1 11.021610 7.103673 550.959473
120 0 1 11.472660 7.423496 551.757324
121 0 1 12.009380 7.798417 552.458801
122 0 1 12.504971 8.027377 553.250793
123 0 1 12.786570 7.989053 554.183899
124 0 1 12.850451 8.083567 555.132080
125 0 1 12.835560 8.463737 556.034302
126 0 1 12.814260 8.830442 556.960876
127 0 1 12.737320 9.254960 557.831177
128 0 1 12.437950 9.613880 558.610718
129 0 1 12.428329 9.936020 559.542114
130 0 1 12.546460 9.980730 560.493713
131 0 1 12.723300 10.206600 561.415771
132 0 1 13.016581 10.233250 562.355408
133 0 1 13.215130 10.295400 563.332703
134 0 1 13.158100 10.153930 564.269775
135 0 1 12.941180 10.046870 565.184326
136 0 1 12.591311 10.007020 566.058105
137 0 1 12.420090 10.083000 567.031311
138 0 1 11.945320 9.901620 567.863586
139 0 1 11.113461 9.907760 568.366699
140 0 1 10.328700 9.941350 568.861084
141 0 1 9.643350 9.666980 569.517395
142 0 1 8.976724 9.197840 570.070312
143 0 1 8.328927 8.953840 570.767395
144 0 1 7.856815 8.534611 571.491821
145 0 1 7.561611 7.974211 572.338013
146 0 1 7.298746 7.520761 573.137878
147 0 1 7.412962 6.928110 573.910400
148 0 1 7.504180 6.716770 574.881592
149 0 1 7.825574 6.684780 575.850586
150 0 1 8.060765 6.650470 576.783325
151 0 1 8.325198 6.329870 577.624207
152 0 1 7.938294 6.051930 578.414978
153 0 1 7.771326 5.947370 579.378784
154 0 1 7.632495 5.597180 580.291077
155 0 1 7.687331 5.495420 581.193298
156 0 1 7.859408 5.470800 582.157776
157 0 1 7.976782 5.358340 583.122314
158 0 1 8.003395 5.135370 584.066895
159 0 1 8.342313 4.989590 584.957581
160 0 1 8.542868 5.068220 585.917419
161 0 1 8.693403 5.210520 586.886475
162 0 1 8.972263 5.488560 587.795288
163 0 1 9.261620 5.827980 588.659973
164 0 1 9.612180 6.182730 589.437622
165 0 1 10.036480 6.255490 590.294495
166 0 1 10.560050 6.179420 591.071777
167 0 1 10.870100 6.235520 591.979370
168 0 1 10.901830 6.278340 592.964478
169 0 1 10.841080 6.498010 593.878418
170 0 1 10.929060 7.135272 594.580688
171 0 1 10.849860 7.528616 595.433289
172 0 1 10.597549 7.615240 596.383301
173 0 1 10.351891 7.896857 597.286072
174 0 1 10.192020 8.387193 598.120911
175 0 1 9.841410 8.622744 598.986816
176 0 1 9.457840 8.434423 599.877014
177 0 1 9.232960 7.965998 600.707397
178 0 1 9.201800 7.598169 601.571777
179 0 1 8.985478 7.391496 602.567871
180 0 1 8.706518 7.093462 603.389526
181 0 1 8.514643 6.808580 604.314026
182 0 1 8.352555 6.377420 605.203674
183 0 1 8.115725 6.089150 606.096191
184 0 1 8.131547 5.926070 606.999695
185 0 1 7.916144 5.695170 607.922302
186 0 1 7.674934 5.030040 608.583374
187 0 1 7.197777 4.566580 609.325073
188 0 1 6.915530 4.372160 610.255615
189 0 1 6.718060 4.732880 611.132324
190 0 1 6.542330 5.214850 611.953796
191 0 1 6.345420 5.751760 612.649597
192 0 1 6.075400 6.453210 613.240295
193 0 1 5.969760 7.197122 613.791687
194 0 1 6.114200 7.956344 614.389587
195 0 1 6.429510 8.438119 615.195129
196 0 1 6.723520 8.701918 616.093506
197 0 1 7.030236 8.838725 617.034180
198 0 1 7.150919 9.150260 618.014282
199 0 1 7.210501 9.345350 618.938843
200 0 1 6.932380 9.866060 619.693665
201 0 1 6.624980 10.263730 620.575073
202 0 1 6.675220 10.331110 621.563354
203 0 1 6.906800 10.620910 622.414429
204 0 1 7.213092 10.815580 623.326355
205 0 1 7.862418 10.813280 624.140442
206 0 1 8.628189 10.773400 624.680176
207 0 1 8.989173 10.853889 625.603882
208 0 1 9.254650 10.809660 626.580994
209 0 1 9.147330 10.684220 627.538879
210 0 1 9.064750 10.744510 628.482727
211 0 1 9.145310 10.955441 629.400574
212 0 1 9.435960 11.250590 630.310303
213 0 1 9.678810 11.646760 631.142212
214 0 1 9.896460 12.173531 631.982483
215 0 1 9.927210 12.556080 632.819824
216 0 1 9.923690 13.048660 633.694885
217 0 1 9.980700 13.440420 634.622070
218 0 1 9.900760 13.802150 635.543518
219 0 1 9.681160 13.980690 636.431763
220 0 1 9.278100 14.011120 637.305786
221 0 1 8.824439 13.850491 638.124939
222 0 1 8.388003 14.138420 638.976013
223 0 1 8.511630 14.272200 639.961426
224 0 1 8.354309 14.677120 640.815308
225 0 1 7.906837 14.677320 641.664001
226 0 1 7.614277 14.522610 642.526306
227 0 1 7.319121 13.974950 643.299011
228 0 1 7.172050 13.606920 644.164978
229 0 1 6.780480 13.068330 644.853394
230 0 1 6.360150 12.651270 645.555481
231 0 1 5.992570 12.125840 646.327515
232 0 1 5.609230 11.547380 647.018005
233 0 1 5.015180 11.201330 647.708984
234 0 1 4.394990 10.763110 648.306885
235 0 1 4.141110 10.160940 649.010681
236 0 1 4.193220 9.698900 649.934692
237 0 1 4.017720 9.216750 650.751099
238 0 1 3.789250 8.928030 651.647583
239 0 1 3.542100 8.373504 652.412781
240 0 1 3.267180 7.863589 653.170227
241 0 1 2.971910 7.653592 654.102783
242 0 1 3.164950 7.512307 655.071777
243 0 1 3.377850 7.212998 655.978699
244 0 1 3.435870 6.697520 656.850281
245 0 1 3.522450 6.238750 657.676025
246 0 1 3.847100 5.756520 658.506287
247 0 1 4.106020 5.511940 659.364807
248 0 1 4.443970 5.080690 660.101318
249 0 1 4.897500 4.706150 660.854980
250 0 1 5.457450 4.615930 661.626404
251 0 1 5.989740 4.625360 662.372192
252 0 1 6.655660 4.643520 663.100220
253 0 1 7.120194 4.718970 663.911377
254 0 1 7.474836 4.666930 664.822998
255 0 1 7.821971 4.720750 665.712585
256 0 1 7.952864 4.918230 666.596497
257 0 1 8.322310 4.992800 667.548828
258 0 1 8.785719 5.040560 668.389893
259 0 1 8.857117 4.779580 669.319580
260 0 1 8.977421 4.623150 670.300903
261 0 1 9.348970 4.779770 671.168823
262 0 1 9.632100 4.848600 672.097717
263 0 1 9.815650 4.996520 673.021790
264 0 1 9.681680 5.415820 673.881409
265 0 1 9.544400 5.714850 674.868774
266 0 1 9.416990 5.752090 675.830078
267 0 1 9.219190 6.063350 676.767883
268 0 1 9.326800 6.183670 677.833679
269 0 1 9.424829 6.215630 678.854492
270 0 1 9.727580 6.510360 679.766479
271 0 1 9.879090 6.726840 680.703186
272 0 1 10.147270 7.016721 681.583374
273 0 1 10.121290 7.416444 682.499084
274 0 1 9.943570 7.420662 683.405212
275 0 1 9.890900 7.247977 684.394409
276 0 1 10.079960 7.361472 685.280579
277 0 1 10.302959 7.683251 686.226624
278 0 1 10.738020 7.753861 687.047729
279 0 1 11.102270 7.564704 687.962402
280 0 1 11.141880 7.204015 688.839722
281 0 1 11.142910 7.001870 689.826782
282 0 1 11.167970 6.974930 690.767273
283 0 1 11.096280 6.927980 691.732788
284 0 1 10.977320 6.776440 692.697815
285 0 1 10.914210 6.779840 693.658020
286 0 1 10.892100 6.747900 694.612610
287 0 1 10.708900 6.900020 695.557922
288 0 1 10.842480 7.048872 696.534912
289 0 1 11.055850 7.039756 697.457031
290 0 1 11.214010 6.821320 698.385803
291 0 1 11.234330 6.893720 699.289185
292 0 1 11.242690 7.081921 700.201416
293 0 1 11.056850 7.050860 701.213867
294 0 1 10.817500 7.211870 702.124817
295 0 1 10.444560 7.360597 702.988586
296 0 1 10.258790 7.812471 703.879211
297 0 1 9.884180 8.145090 704.657715
298 0 1 9.622850 8.279321 705.543701
299 0 1 9.525060 8.359968 706.533081
300 0 1 9.686769 8.364202 707.520081
301 0 1 9.824310 8.588537 708.407471
302 0 1 9.913400 8.695415 709.351990
303 0 1 10.122129 8.903291 710.221619
304 0 1 10.478600 9.178930 711.084717
305 0 1 10.913930 9.246970 711.932800
306 0 1 11.305990 9.451310 712.768066
307 0 1 11.848090 9.476490 713.585388
308 0 1 12.314980 9.378010 714.411499
309 0 1 12.319710 9.405310 715.299622
310 0 1 12.468821 9.507090 716.285522
311 0 1 12.571400 9.547450 717.210083
312 0 1 12.594550 9.816840 718.149170
313 0 1 12.286591 10.150720 718.991394
314 0 1 11.848920 10.561240 719.736023
315 0 1 11.577240 10.699620 720.684998
316 0 1 11.196140 10.648870 721.632568
317 0 1 10.918360 10.678160 722.536804
318 0 1 10.540820 10.685510 723.413086
319 0 1 10.151230 10.844070 724.217285
320 0 1 9.603580 11.047210 724.991211
321 0 1 9.079530 11.376090 725.741089
322 0 1 8.460170 11.325940 726.419495
323 0 1 8.061433 11.059250 727.238220
324 0 1 8.007988 10.969710 728.204407
325 0 1 7.853725 10.966440 729.177002
326 0 1 7.754096 10.486600 729.966003
327 0 1 7.714252 10.214780 730.880981
328 0 1 7.706270 9.695900 731.739014
329 0 1 7.825546 9.127800 732.526978
330 0 1 7.969864 8.629886 733.369019
331 0 1 8.317468 8.208139 734.151978
332 0 1 8.535548 7.950105 735.138000
333 0 1 8.639705 7.882953 736.056030
334 0 1 8.788732 7.637377 736.973022
335 0 1 9.058100 7.356521 737.814026
336 0 1 9.197380 7.312231 738.848999
337 0 1 9.551570 7.348673 739.789001
338 0 1 9.781400 7.240164 740.749023
339 0 1 9.895890 7.027201 741.671021
340 0 1 10.107460 7.047423 742.679016
341 0 1 10.379810 7.221889 743.541016
342 0 1 10.672720 7.556974 744.380981
343 0 1 10.924100 7.654138 745.351013
344 0 1 11.384960 7.683470 746.184021
345 0 1 11.619180 7.908762 747.137024
346 0 1 11.879320 7.833674 748.082031
347 0 1 12.134470 7.991267 749.077026
348 0 1 12.129160 7.831362 750.039978
349 0 1 12.213390 7.996232 750.958984
350 0 1 12.224569 8.601792 751.760986
351 0 1 12.421480 9.156630 752.486023
352 0 1 12.951520 9.639160 753.172974
353 0 1 13.236640 9.964960 754.016968
354 0 1 13.395890 10.465100 754.849976
355 0 1 13.137520 10.617180 755.760010
356 0 1 12.985450 10.601370 756.690002
357 0 1 12.831980 10.376560 757.588989
358 0 1 13.092000 10.557890 758.489014
359 0 1 13.145420 10.843160 759.416016
360 0 1 12.980110 11.019570 760.346008
361 0 1 12.704850 11.293780 761.195984
362 0 1 12.373899 11.264080 762.143005
363 0 1 11.827230 11.025570 763.005005
364 0 1 11.271310 10.765830 763.721008
365 0 1 10.790250 10.440701 764.497986
366 0 1 10.138639 10.329900 765.177002
367 0 1 9.615000 10.165150 766.030029
368 0 1 8.970117 10.015400 766.713989
369 0 1 8.537196 9.791430 767.507019
370 0 1 7.913886 9.976080 768.231018
371 0 1 7.574628 10.313920 769.101990
372 0 1 7.104180 10.689960 769.903992
373 0 1 6.627630 10.911790 770.775024
374 0 1 6.169780 11.009560 771.536011
375 0 1 5.750340 11.105950 772.401978
376 0 1 5.562040 10.682320 773.250000
377 0 1 5.422350 10.258970 774.135986
378 0 1 5.268210 9.770160 774.937012
379 0 1 5.451010 9.254640 775.786987
380 0 1 5.833120 8.860969 776.554993
381 0 1 6.096590 8.382406 777.360962
382 0 1 6.414730 7.937809 778.127014
383 0 1 6.786530 7.587210 778.966980
384 0 1 7.147406 7.393958 779.837036
385 0 1 7.390770 7.233201 780.739990
386 0 1 7.347602 7.177886 781.695007
387 0 1 7.366627 7.201563 782.713013
388 0 1 7.515874 7.248602 783.630005
389 0 1 7.664628 7.350842 784.563965
390 0 1 7.976395 7.282580 785.518005
391 0 1 8.227819 7.323751 786.434998
392 0 1 8.164512 7.497206 787.462036
393 0 1 8.330556 7.520678 788.408020
394 0 1 8.188687 7.428016 789.325012
395 0 1 8.083139 7.392506 790.332031
396 0 1 8.222545 7.561627 791.252991
397 0 1 8.061575 7.827485 792.169006
398 0 1 8.073494 7.839627 793.148010
399 0 1 7.641192 8.013356 794.030029
400 0 1 7.171056 8.027746 794.869019
401 0 1 6.961380 8.146840 795.833008
402 0 1 6.669570 8.065231 796.747986
403 0 1 6.346590 8.086493 797.677979
404 0 1 6.068980 8.013703 798.591980
405 0 1 5.881120 7.621205 799.429016
406 0 1 5.788250 7.212339 800.234985
407 0 1 5.833340 6.581650 800.988037
408 0 1 5.887970 5.957060 801.776001
409 0 1 5.990270 5.691640 802.653015
410 0 1 6.297830 5.504720 803.613037
411 0 1 6.626530 5.221870 804.514038
412 0 1 6.904080 5.060610 805.359009
413 0 1 6.996270 4.790160 806.276978
414 0 1 7.237492 4.683840 807.224976
415 0 1 7.532186 4.396170 808.186035
416 0 1 7.690960 4.197950 809.119019
417 0 1 8.124184 3.722810 809.869019
418 0 1 8.463345 3.354130 810.714966
419 0 1 8.688313 3.188650 811.718018
420 0 1 8.720536 3.102030 812.648987
421 0 1 8.757588 2.972660 813.619019
422 0 1 8.620781 2.673720 814.507019
423 0 1 8.466314 2.567730 815.455017
424 0 1 8.503977 2.546240 816.414001
425 0 1 8.397592 2.543340 817.421997
426 0 1 8.222058 2.739990 818.299011
427 0 1 8.221782 2.852690 819.283020
428 0 1 8.376510 3.101910 820.187012
429 0 1 8.531246 3.200870 821.146973
430 0 1 8.562411 3.046410 822.059998
431 0 1 8.587305 2.910480 823.056030
432 0 1 8.258531 2.717600 823.983032
433 0 1 7.976864 2.604930 824.916992
434 0 1 7.803455 2.485200 825.869995
435 0 1 7.480468 2.491790 826.813965
436 0 1 7.292419 2.499130 827.765991
437 0 1 7.008658 2.176160 828.578979
438 0 1 6.664890 2.076070 829.567017
439 0 1 6.307060 2.095060 830.516968
440 0 1 6.020810 2.387890 831.403992
441 0 1 5.651410 2.641650 832.202026
442 0 1 5.291690 2.969330 833.061035
443 0 1 5.094520 3.233990 833.955017
444 0 1 5.181480 3.463060 834.905029
445 0 1 5.189980 3.747170 835.841980
446 0 1 5.441860 3.918560 836.742981
447 0 1 5.941830 4.042530 837.520020
448 0 1 6.553250 4.267470 838.190979
449 0 1 7.293403 4.317240 838.809998
450 0 1 8.020195 4.455630 839.468018
451 0 1 8.617348 4.531650 840.218994
452 0 1 9.274970 4.449290 840.889038
453 0 1 9.806440 4.839280 841.632019
454 0 1 10.106650 5.609840 842.240967
455 0 1 10.396520 6.505070 842.575012
456 0 1 10.496780 7.407485 842.838013
457 0 1 10.505410 8.389586 842.614990
458 0 1 10.388800 9.206150 842.036987
459 0 1 10.111390 9.835160 841.349976
460 0 1 9.624910 10.459949 840.679016
461 0 1 9.390540 10.816710 839.757996
462 0 1 8.888588 11.361200 839.124023
463 0 1 8.601704 11.740490 838.317017
464 0 1 8.264506 11.913520 837.460999
465 0 1 8.182337 12.166890 836.531006
466 0 1 7.924364 11.996360 835.606995
467 0 1 7.801802 11.821600 834.635010
468 0 1 7.753557 11.653950 833.716003
469 0 1 7.902017 11.585270 832.734009
470 0 1 8.032230 11.819580 831.796021
471 0 1 8.064894 12.128520 830.841003
472 0 1 7.776029 12.266710 829.958984
473 0 1 7.508829 12.259809 829.054016
474 0 1 7.061774 12.490520 828.247009
475 0 1 6.583660 12.482430 827.390015
476 0 1 6.252980 12.412170 826.473022
477 0 1 6.206280 12.280890 825.434021
478 0 1 5.821560 12.244061 824.546021
479 0 1 5.540860 12.436800 823.653992
480 0 1 5.518080 12.427120 822.688965
481 0 1 5.532560 12.225850 821.778992
482 0 1 5.688720 11.805340 820.880981
483 0 1 5.581790 11.487550 819.953003
484 0 1 5.303420 10.967480 819.158020
485 0 1 5.212290 10.716110 818.190979
486 0 1 5.169820 10.442980 817.273987
487 0 1 5.272220 9.918500 816.471008
488 0 1 5.139280 9.388830 815.690979
489 0 1 5.151930 8.983566 814.825012
490 0 1 4.980750 8.901994 813.827026
491 0 1 4.980500 8.571676 812.914001
492 0 1 5.152100 8.277546 812.010010
493 0 1 5.156730 8.120956 811.052002
494 0 1 5.677660 8.019052 810.223022
495 0 1 5.963720 8.074221 809.307983
496 0 1 6.336630 8.255786 808.377991
497 0 1 6.718760 8.521751 807.483032
498 0 1 6.889770 8.570581 806.494019
499 0 1 6.946970 8.513376 805.500977
500 0 1 6.649510 8.347720 804.622009
501 0 1 6.527620 8.432242 803.664001
502 0 1 6.749770 8.570860 802.768005
503 0 1 6.979360 8.453455 801.789001
504 0 1 7.332012 8.364789 800.843994
505 0 1 7.586628 8.511395 799.926025
506 0 1 7.806054 8.791889 799.075012
507 0 1 8.216267 8.576219 798.261963
508 0 1 8.746397 8.548341 797.380981
509 0 1 9.096740 8.454665 796.445984
510 0 1 9.691240 8.624019 795.676025
511 0 1 10.307470 8.698876 794.983032
512 0 1 10.571980 8.457145 794.115967
513 0 1 10.681110 8.320259 793.169006
514 0 1 10.685550 7.958494 792.190002
515 0 1 10.767480 7.798726 791.218018
516 0 1 10.929800 7.597733 790.264038
517 0 1 10.812040 7.458776 789.322021
518 0 1 10.711150 7.360622 788.364014
519 0 1 10.764500 7.304929 787.398987
520 0 1 10.693180 7.452418 786.434021
521 0 1 10.562429 7.737761 785.500000
522 0 1 10.566020 8.051455 784.614014
523 0 1 10.692010 8.275460 783.640015
524 0 1 10.636420 8.578122 782.739014
525 0 1 10.433920 8.701826 781.764038
526 0 1 9.894830 8.835682 780.947021
527 0 1 9.358400 9.109950 780.140015
528 0 1 8.825285 8.991741 779.412964
529 0 1 8.120085 8.572971 778.875977
530 0 1 7.625333 8.017725 778.275024
531 0 1 7.253922 7.718821 777.401978
532 0 1 6.731160 7.521328 776.658020
533 0 1 6.224020 7.464948 775.789001
534 0 1 5.878280 7.261868 774.890015
535 0 1 5.860840 7.118536 773.950012
536 0 1 5.671710 6.780230 773.130005
537 0 1 5.677480 6.415620 772.221008
538 0 1 5.654990 6.097690 771.315002
539 0 1 5.510500 5.814540 770.379028
540 0 1 5.371440 5.593570 769.471008
541 0 1 5.281330 5.202770 768.531982
542 0 1 5.234620 4.635560 767.813965
543 0 1 5.251000 4.080240 766.940979
544 0 1 5.354880 3.501130 766.200012
545 0 1 5.431390 3.062270 765.315979
546 0 1 5.426830 2.681960 764.422974
547 0 1 5.690760 2.537990 763.411987
548 0 1 5.798060 2.394730 762.434998
549 0 1 6.092020 2.156270 761.613037
550 0 1 6.516550 1.996330 760.812988
551 0 1 7.108197 2.015400 760.018005
552 0 1 7.605850 2.304690 759.155029
553 0 1 7.934849 2.672360 758.304993
554 0 1 8.312261 3.176040 757.582031
555 0 1 8.500782 3.709870 756.807983
556 0 1 8.708773 4.264700 756.072021
557 0 1 8.902789 4.849370 755.315979
558 0 1 8.956035 5.318710 754.468018
559 0 1 9.228730 5.811840 753.697021
560 0 1 9.200720 6.500890 753.038025
561 0 1 9.417440 7.118293 752.312012
562 0 1 9.560270 7.686548 751.578979
563 0 1 9.832420 8.205990 750.817017
564 0 1 10.288300 8.549861 750.067993
565 0 1 10.562830 8.794300 749.151001
566 0 1 10.760250 9.015720 748.210022
567 0 1 10.896330 9.411110 747.304016
568 0 1 10.782210 9.671021 746.395996
569 0 1 10.595070 9.676850 745.502014
570 0 1 10.379880 9.573430 744.599976
571 0 1 10.336110 9.382120 743.664978
572 0 1 10.334390 9.199690 742.737976
573 0 1 10.551980 8.969995 741.780029
574 0 1 10.838140 8.688169 740.911987
575 0 1 11.134920 8.200851 740.148987
576 0 1 11.297340 7.481061 739.510010
577 0 1 11.544590 6.989970 738.745972
578 0 1 12.087700 6.941620 737.984985
579 0 1 12.675671 6.638100 737.247986
580 0 1 13.265420 6.558990 736.495972
581 0 1 13.800400 6.402230 735.698975
582 0 1 13.968540 6.547920 734.718018
583 0 1 13.816540 6.629930 733.780029
584 0 1 13.502911 6.602380 732.841003
585 0 1 13.368441 6.508280 731.835999
586 0 1 13.224530 6.476480 730.957031
587 0 1 13.075490 6.771800 730.039978
588 0 1 12.700940 7.192350 729.153992
589 0 1 12.374350 7.373276 728.297119
590 0 1 12.259430 7.633662 727.397400
591 0 1 12.095261 7.842889 726.418518
592 0 1 11.761160 8.188181 725.522888
593 0 1 11.428761 8.487670 724.677185
594 0 1 11.244410 8.499462 723.698425
595 0 1 10.707420 8.377615 722.920410
596 0 1 10.029810 8.377004 722.249817
597 0 1 9.272200 8.339081 721.644592
598 0 1 8.874974 8.138462 720.728394
599 0 1 8.608686 7.892562 719.808289
600 0 1 8.490616 7.703177 718.857605
601 0 1 8.169921 7.576837 718.019104
602 0 1 7.768504 7.060503 717.274109
603 0 1 7.586210 6.665400 716.433777
604 0 1 7.681101 6.143920 715.606689
605 0 1 8.102815 5.413030 715.134888
606 0 1 8.714916 4.954240 714.531372
607 0 1 8.938708 4.403970 713.758911
608 0 1 9.237770 4.013340 712.972717
609 0 1 9.410460 3.267550 712.296997
610 0 1 9.462360 2.759030 711.511597
611 0 1 9.211020 2.137010 710.829895
612 0 1 8.758165 1.755430 710.026611
613 0 1 8.526668 1.620870 709.110779
614 0 1 8.497114 2.079870 708.332092
615 0 1 8.461765 2.695720 707.578613
616 0 1 8.337612 3.260760 706.821777
617 0 1 8.258213 3.809510 705.910522
618 0 1 8.282351 4.202240 705.032471
619 0 1 8.278399 4.524500 704.094910
620 0 1 8.337363 5.103440 703.292908
621 0 1 8.487274 5.694720 702.536621
622 0 1 8.757593 6.208050 701.801208
623 0 1 8.897078 6.842660 701.004028
624 0 1 8.933193 7.522442 700.282715
625 0 1 9.176170 7.953865 699.444397
626 0 1 9.189550 8.291766 698.589233
627 0 1 9.368460 8.398115 697.630981
628 0 1 9.497480 8.829058 696.698792
629 0 1 9.896270 8.793031 695.789917
630 0 1 10.194890 8.882335 694.897522
631 0 1 10.634190 8.713812 694.024414
632 0 1 11.207530 8.585093 693.183716
633 0 1 11.675520 8.326965 692.354370
634 0 1 12.229930 8.091830 691.583496
635 0 1 12.623740 7.918243 690.650696
636 0 1 12.659700 7.407966 689.872375
637 0 1 12.790480 7.220439 688.928772
638 0 1 12.767900 6.997730 687.927002
639 0 1 12.875530 6.822470 686.961975
640 0 1 12.630180 6.537560 686.095093
641 0 1 12.329790 6.192640 685.187927
642 0 1 11.941860 5.898240 684.378479
643 0 1 11.327120 5.523150 683.709900
644 0 1 11.120760 4.925610 682.918518
645 0 1 10.817841 4.504790 682.117004
646 0 1 10.480850 4.506670 681.228699
647 0 1 10.072960 4.353870 680.423279
648 0 1 9.919260 3.908920 679.552795
649 0 1 9.907300 3.487120 678.694824
650 0 1 9.699790 3.310970 677.747803
651 0 1 9.395640 3.271160 676.785400
652 0 1 9.091190 3.033990 675.879211
653 0 1 9.040530 2.797570 674.907776
654 0 1 9.314970 2.614710 674.041626
655 0 1 9.499950 2.491950 673.022522
656 0 1 9.511190 2.285370 672.126526
657 0 1 9.492770 2.222160 671.226074
658 0 1 9.431640 2.131090 670.292603
659 0 1 9.545760 1.930830 669.350891
660 0 1 9.687210 1.886570 668.380798
661 0 1 9.538740 1.877290 667.441589
662 0 1 9.292660 1.790100 666.491699
663 0 1 8.930815 1.665920 665.639587
664 0 1 8.579974 1.790440 664.737427
665 0 1 8.319732 1.991360 663.906006
666 0 1 7.838171 2.459640 663.229309
667 0 1 7.388396 2.838560 662.444214
668 0 1 7.128964 3.503780 661.739197
669 0 1 7.090674 4.047420 660.980286
670 0 1 7.249386 4.718930 660.303589
671 0 1 7.672302 5.164860 659.549194
672 0 1 7.803329 5.443050 658.646484
673 0 1 7.776888 5.677930 657.711914
674 0 1 7.805607 5.905520 656.809082
675 0 1 7.794432 6.488770 656.044800
676 0 1 7.270674 6.782850 655.283020
677 0 1 6.701790 6.808800 654.465088
678 0 1 6.369860 6.785300 653.565491
679 0 1 5.952900 6.410180 652.814880
680 0 1 5.614140 6.172150 651.964417
681 0 1 5.467270 6.082660 651.063721
682 0 1 5.315810 5.874710 650.193726
683 0 1 5.535870 5.731650 649.294312
684 0 1 5.877800 5.667530 648.381226
685 0 1 6.370170 5.243200 647.672974
686 0 1 6.618020 5.106600 646.821289
687 0 1 7.030464 5.044580 645.957886
688 0 1 7.643681 4.834270 645.307678
689 0 1 8.086311 4.713240 644.474121
690 0 1 8.627449 4.872880 643.736206
691 0 1 9.259230 4.882360 642.921631
692 0 1 9.923010 4.754440 642.228821
693 0 1 10.334500 4.747590 641.250305
694 0 1 10.724640 4.769200 640.350098
695 0 1 11.062660 4.667660 639.455872
696 0 1 11.448170 4.656410 638.553284
697 0 1 11.974660 4.494390 637.725586
698 0 1 12.657090 4.478120 637.014404
699 0 1 13.161100 4.498250 636.111694
700 0 1 13.419280 4.427780 635.237732
701 0 1 13.768000 4.693170 634.358582
702 0 1 14.073740 5.179340 633.558105
703 0 1 14.198360 5.784970 632.795349
704 0 1 14.427270 6.388350 632.067017
705 0 1 14.263861 6.915120 631.259644
706 0 1 14.062250 7.544084 630.565735
707 0 1 13.906530 8.078016 629.817444
708 0 1 13.650940 8.500111 628.979858
709 0 1 13.401360 8.895372 628.194031
710 0 1 13.014470 9.430900 627.490173
711 0 1 12.750330 9.798970 626.579590
712 0 1 12.281170 9.876540 625.779907
713 0 1 11.565400 10.173480 625.182190
714 0 1 11.080120 10.543650 624.511963
715 0 1 10.656990 10.871910 623.685242
716 0 1 10.261290 10.882290 622.856201
717 0 1 10.186630 10.749110 621.923889
718 0 1 10.083930 10.345730 621.079712
719 0 1 10.138411 10.124490 620.131042
720 0 1 10.140750 9.927490 619.173096
721 0 1 10.354959 9.703000 618.301880
722 0 1 10.416821 9.426490 617.358704
723 0 1 10.337280 9.027910 616.473328
724 0 1 10.139339 8.603329 615.563721
725 0 1 9.781950 8.214630 614.715271
726 0 1 9.388120 7.480254 614.162781
727 0 1 9.157530 6.805140 613.414429
728 0 1 9.075260 6.224660 612.658508
729 0 1 8.971871 5.651590 611.895996
730 0 1 8.962055 4.922360 611.241211
731 0 1 9.080620 4.246990 610.571899
732 0 1 9.331380 3.793320 609.823303
733 0 1 9.484100 3.431840 608.930298
734 0 1 9.475300 3.431520 607.940308
735 0 1 9.187320 3.423580 606.994995
736 0 1 9.130610 3.386150 605.998169
737 0 1 9.030630 3.019560 605.127075
738 0 1 8.625271 3.107900 604.153809
739 0 1 8.349955 2.857960 603.260498
740 0 1 8.039971 2.797690 602.372009
741 0 1 7.815989 3.010440 601.461426
742 0 1 7.644805 3.248700 600.573914
743 0 1 7.797782 3.378730 599.637085
744 0 1 8.085032 3.604120 598.749207
745 0 1 8.668666 3.742600 597.954895
746 0 1 8.995428 3.927170 597.041016
747 0 1 9.470330 4.185090 596.236877
748 0 1 9.913520 4.209910 595.449280
749 0 1 10.296659 4.334550 594.554688
750 0 1 10.511370 4.365840 593.608521
751 0 1 10.608730 4.361390 592.590881
752 0 1 10.918270 4.329000 591.680115
753 0 1 11.163919 4.380150 590.717102
754 0 1 11.075809 4.167350 589.745972
755 0 1 11.168170 3.904570 588.789185
756 0 1 11.247520 4.317860 587.929626
757 0 1 10.973351 4.619660 587.066895
758 0 1 10.734070 5.151910 586.341492
759 0 1 10.489670 5.927560 585.758606
760 0 1 9.992880 6.676430 585.301575
761 0 1 9.365770 7.360104 584.943298
762 0 1 8.756655 7.912394 584.379395
763 0 1 8.375794 8.100231 583.507996
764 0 1 8.121310 8.232014 582.589172
765 0 1 7.662187 8.543951 581.761475
766 0 1 7.195412 8.734581 580.985474
767 0 1 6.936970 9.114320 580.160522
768 0 1 6.628680 9.583190 579.373901
769 0 1 6.309060 9.934510 578.536499
770 0 1 6.237740 10.323220 577.634583
771 0 1 6.198460 10.735150 576.729370
772 0 1 5.909790 10.948910 575.900208
773 0 1 5.846040 10.829600 574.962280
774 0 1 5.890370 10.424191 574.006775
775 0 1 6.008050 10.456110 573.051697
776 0 1 6.324140 10.437410 572.070007
777 0 1 6.378020 10.352390 571.134277
778 0 1 6.447810 10.148680 570.172485
779 0 1 6.272580 10.160290 569.237000
780 0 1 5.724410 9.813780 568.457031
781 0 1 5.447280 9.537470 567.627625
782 0 1 5.410160 9.351500 566.674500
783 0 1 5.305510 9.297590 565.725830
784 0 1 5.114310 9.733680 564.911194
785 0 1 5.044520 9.959920 563.936401
786 0 1 4.775570 10.200360 562.967407
787 0 1 4.434450 10.223690 562.087280
788 0 1 4.134940 10.112289 561.184509
789 0 1 3.927200 9.764700 560.322388
790 0 1 3.627030 9.549180 559.428833
791 0 1 3.294320 9.270120 558.526489
792 0 1 2.969380 8.903493 557.684875