LAMMPS data file via MDAnalysis

        1000  atoms
        1000  bonds
        1000  angles
           0  dihedrals
           0  impropers

           1  atom types
           1  bond types
           1  angle types
           0  dihedral types
           0  improper types

0.000000 16.000000 xlo xhi
0.000000 16.000000 ylo yhi
0.000000 1257.000000 zlo zhi


Masses

1 1.000000

Atoms

1 0 1 10.686020 6.316000 449.376007
2 0 1 10.668450 6.075480 450.272003
3 0 1 10.616420 5.756760 451.223022
4 0 1 10.636750 5.528140 452.143982
5 0 1 10.279090 5.410370 453.023987
6 0 1 9.935030 5.339610 453.932007
7 0 1 10.003440 5.267470 454.885010
8 0 1 10.206860 5.139800 455.854004
9 0 1 10.525410 5.113170 456.800995
10 0 1 10.846660 5.381110 457.675995
11 0 1 11.240891 5.388160 458.563995
12 0 1 11.547590 5.467950 459.479980
13 0 1 11.914810 5.879720 460.364990
14 0 1 12.063820 6.121270 461.220001
15 0 1 12.347050 6.608830 462.026978
16 0 1 12.778999 7.024874 462.757019
17 0 1 13.092850 7.425841 463.554993
18 0 1 13.134510 7.791941 464.497009
19 0 1 13.160740 7.983627 465.434021
20 0 1 13.110320 8.160718 466.377991
21 0 1 12.917900 8.563296 467.247986
22 0 1 12.729200 8.580699 468.199005
23 0 1 12.272250 8.761650 469.020020
24 0 1 11.977530 8.938415 469.940979
25 0 1 11.653140 9.105530 470.837006
26 0 1 11.498470 9.177050 471.789978
27 0 1 11.351170 9.278710 472.796021
28 0 1 11.381080 9.184500 473.757996
29 0 1 11.089880 9.158430 474.660004
30 0 1 10.875210 8.970041 475.622009
31 0 1 10.825080 8.541459 476.502991
32 0 1 10.447510 8.217330 477.372986
33 0 1 9.757380 8.161064 478.184021
34 0 1 9.398740 8.027721 479.085999
35 0 1 8.996409 7.923448 479.869995
36 0 1 8.444851 7.929168 480.744019
37 0 1 8.056010 7.941368 481.578979
38 0 1 7.667361 7.938232 482.440979
39 0 1 7.318432 7.835084 483.380981
40 0 1 6.997990 7.633465 484.315002
41 0 1 6.626520 7.295794 485.166992
42 0 1 6.083490 7.103310 485.960022
43 0 1 5.523160 7.142535 486.768005
44 0 1 5.208230 7.188042 487.625000
45 0 1 4.768150 7.470735 488.414978
46 0 1 4.558390 7.570351 489.375000
47 0 1 4.367840 7.663046 490.335022
48 0 1 4.142300 7.697709 491.289978
49 0 1 3.850190 7.609961 492.145996
50 0 1 3.280010 7.474995 492.872009
51 0 1 2.575450 7.628717 493.492004
52 0 1 2.217400 7.471741 494.385986
53 0 1 2.130430 7.481111 495.317017
54 0 1 2.188080 7.397856 496.320984
55 0 1 1.914650 7.110705 497.225006
56 0 1 1.800270 6.829100 498.169006
57 0 1 2.001050 6.585660 499.057983
58 0 1 2.181770 6.345710 500.039001
59 0 1 2.572940 6.229460 500.916016
60 0 1 2.987210 6.263990 501.785004
61 0 1 3.225050 6.116420 502.691010
62 0 1 3.229520 6.044030 503.684998
63 0 1 3.495550 6.043400 504.683990
64 0 1 3.748160 5.956210 505.669983
65 0 1 4.093920 5.978960 506.593018
66 0 1 4.248660 6.389860 507.513000
67 0 1 4.336530 6.610830 508.447998
68 0 1 4.268030 6.839770 509.428009
69 0 1 4.269250 6.814160 510.424011
70 0 1 4.239550 6.987110 511.359985
71 0 1 4.059890 7.136338 512.315979
72 0 1 3.858770 7.298605 513.229980
73 0 1 3.775750 7.304501 514.265991
74 0 1 3.715740 7.394462 515.283997
75 0 1 3.652640 7.468571 516.242981
76 0 1 3.558810 7.495681 517.231018
77 0 1 3.477990 7.363757 518.187012
78 0 1 3.294780 7.071446 519.098999
79 0 1 3.311310 6.598480 519.950012
80 0 1 3.278950 6.059200 520.770020
81 0 1 3.281560 5.708930 521.721008
82 0 1 3.504400 5.563680 522.724976
83 0 1 3.876190 5.394220 523.580994
84 0 1 4.012880 5.141600 524.499023
85 0 1 4.091770 4.956940 525.442993
86 0 1 4.328960 4.664240 526.309998
87 0 1 4.734690 4.245160 527.163025
88 0 1 5.358810 4.000730 527.864014
89 0 1 5.965390 3.846890 528.550476
90 0 1 6.516320 3.866310 529.436584
91 0 1 6.625810 4.235290 530.362305
92 0 1 6.144060 4.608250 531.150269
93 0 1 5.306440 4.593520 531.754272
94 0 1 4.372530 4.778990 532.221069
95 0 1 3.656190 5.121920 532.732483
96 0 1 3.340900 5.639830 533.430786
97 0 1 3.181810 6.235320 534.224609
98 0 1 2.979310 6.739500 535.012024
99 0 1 2.806690 7.137451 535.970581
100 0 1 2.562000 7.654798 536.707275
101 0 1 2.586660 8.116017 537.559998
102 0 1 2.661690 8.425852 538.470215
103 0 1 2.670000 8.514333 539.486877
104 0 1 2.897140 8.602880 540.437378
105 0 1 2.890300 8.824934 541.341492
106 0 1 3.213670 9.079560 542.294495
107 0 1 3.575220 9.153260 543.245728
108 0 1 3.618390 9.166360 544.202515
109 0 1 3.571930 9.338990 545.132996
110 0 1 3.553570 9.634610 546.155029
111 0 1 3.441970 9.795740 547.084595
112 0 1 3.344210 10.101690 547.994690
113 0 1 3.376270 10.152050 548.952576
114 0 1 3.292380 10.243760 549.989807
115 0 1 3.129410 10.439380 550.920105
116 0 1 2.921500 10.422150 551.858398
117 0 1 2.567950 10.247050 552.664673
118 0 1 2.474140 9.891130 553.503296
119 0 1 2.476230 9.533560 554.341675
120 0 1 2.123210 9.176890 555.152588
121 0 1 1.957210 8.673079 555.971191
122 0 1 1.765700 8.227939 556.864197
123 0 1 1.410670 7.723077 557.620605
124 0 1 1.231790 7.324749 558.512878
125 0 1 1.314730 7.143741 559.481079
126 0 1 1.706580 7.264057 560.343079
127 0 1 2.254430 7.249712 561.264587
128 0 1 2.683670 7.292687 562.146484
129 0 1 3.124620 7.446456 563.031494
130 0 1 3.158510 7.555994 564.028687
131 0 1 3.741480 7.327427 564.770691
132 0 1 4.401400 7.084618 565.343506
133 0 1 5.113260 7.081948 566.005310
134 0 1 5.845770 6.969940 566.627380
135 0 1 6.583050 6.892530 567.177124
136 0 1 7.094472 7.004270 568.010010
137 0 1 7.845629 7.142280 568.604980
138 0 1 8.358897 6.921400 569.407593
139 0 1 8.824801 6.841230 570.211792
140 0 1 9.490900 6.725260 570.929932
141 0 1 10.158930 6.521270 571.599731
142 0 1 10.863970 6.157510 572.096008
143 0 1 11.349920 5.457930 572.589600
144 0 1 11.803270 4.871760 573.250793
145 0 1 11.930990 4.140840 573.865601
146 0 1 12.368750 3.504370 574.492188
147 0 1 12.868071 3.343200 575.340393
148 0 1 13.065269 3.415740 576.298096
149 0 1 13.003429 3.661790 577.237427
150 0 1 12.477430 4.191840 577.971191
151 0 1 11.970670 4.541560 578.789978
152 0 1 11.375629 4.607220 579.564697
153 0 1 11.057810 4.579010 580.479919
154 0 1 10.579081 4.544850 581.319397
155 0 1 10.211520 4.615200 582.188599
156 0 1 9.895220 4.712370 583.066772
157 0 1 9.645050 4.934320 583.942871
158 0 1 9.119699 5.015430 584.701782
159 0 1 8.597461 5.292820 585.426086
160 0 1 8.225957 5.696850 586.239075
161 0 1 8.037242 5.867890 587.231873
162 0 1 7.738865 6.013510 588.107727
163 0 1 7.191684 6.165230 588.839111
164 0 1 6.702740 6.760420 589.466125
165 0 1 6.307020 7.198895 590.253174
166 0 1 6.150750 7.769801 591.021790
167 0 1 5.689670 8.409948 591.577820
168 0 1 5.325110 9.115910 592.133789
169 0 1 4.808780 9.524690 592.826904
170 0 1 4.466940 9.869610 593.627625
171 0 1 3.938240 9.962870 594.437805
172 0 1 3.348820 10.350270 595.059570
173 0 1 2.777060 10.253720 595.848389
174 0 1 2.349460 10.037780 596.660583
175 0 1 2.056310 10.028040 597.578613
176 0 1 1.779440 9.911410 598.457275
177 0 1 1.779240 9.441070 599.243774
178 0 1 1.751980 9.234690 600.161621
179 0 1 2.015580 9.270800 601.131775
180 0 1 2.192690 9.323780 602.056824
181 0 1 2.329810 9.400140 603.005615
182 0 1 2.332570 9.503620 603.976013
183 0 1 2.486810 9.736350 604.999329
184 0 1 2.714370 10.018900 605.900696
185 0 1 2.717000 9.937390 606.865906
186 0 1 2.537830 9.860260 607.807495
187 0 1 2.465910 9.979720 608.780029
188 0 1 2.776080 10.296470 609.624817
189 0 1 3.310830 10.378730 610.427612
190 0 1 3.729050 10.551240 611.289612
191 0 1 4.265350 10.731610 612.019287
192 0 1 4.739620 10.885760 612.902710
193 0 1 5.105980 10.934470 613.747498
194 0 1 5.325990 10.943200 614.666016
195 0 1 5.660770 11.137550 615.572327
196 0 1 5.764090 11.273310 616.491211
197 0 1 5.699470 11.179029 617.558899
198 0 1 5.609310 11.393311 618.501526
199 0 1 5.598090 11.403260 619.454529
200 0 1 5.583170 11.399740 620.448792
201 0 1 5.692940 11.494900 621.437561
202 0 1 5.548190 11.340651 622.423401
203 0 1 5.727630 11.378850 623.319580
204 0 1 5.715180 11.390030 624.275208
205 0 1 5.483280 11.549740 625.223755
206 0 1 5.007770 11.708490 626.030029
207 0 1 4.445580 11.512140 626.823792
208 0 1 3.992360 11.333390 627.612427
209 0 1 3.308020 11.227221 628.355286
210 0 1 2.773660 11.406610 629.200073
211 0 1 2.554310 11.573709 630.199951
212 0 1 2.439200 11.737090 631.189148
213 0 1 2.624910 11.965630 632.147583
214 0 1 2.702300 12.123560 633.109924
215 0 1 2.816630 12.302710 634.019348
216 0 1 2.740380 12.086610 634.943481
217 0 1 2.456210 11.625830 635.769226
218 0 1 2.210890 11.110661 636.527161
219 0 1 2.353780 10.539440 637.316101
220 0 1 2.463370 9.948050 638.107239
221 0 1 2.710730 9.580860 639.014526
222 0 1 3.054950 9.257880 639.832275
223 0 1 3.603680 9.099100 640.570312
224 0 1 4.117640 9.170590 641.370789
225 0 1 4.781960 9.449300 642.111694
226 0 1 5.396130 10.008380 642.591187
227 0 1 6.109940 10.096640 643.421021
228 0 1 6.691480 10.405070 644.136475
229 0 1 6.995690 11.058710 644.869202
230 0 1 7.238730 11.745680 645.480591
231 0 1 7.287141 12.321400 646.247009
232 0 1 7.534574 12.853960 647.026428
233 0 1 7.953760 13.308140 647.837524
234 0 1 8.619136 13.409090 648.526672
235 0 1 9.268940 13.254900 649.320374
236 0 1 9.870490 13.027660 649.990295
237 0 1 10.123370 12.464320 650.767273
238 0 1 10.339780 11.895820 651.557922
239 0 1 10.667730 11.400440 652.328674
240 0 1 10.992920 11.232440 653.189819
241 0 1 11.573390 10.901310 653.895996
242 0 1 12.041930 10.873290 654.743713
243 0 1 12.441750 11.054660 655.637390
244 0 1 12.782090 11.223579 656.533997
245 0 1 12.797720 11.016360 657.475403
246 0 1 12.872440 10.956420 658.410278
247 0 1 12.636030 10.806000 659.363098
248 0 1 12.187321 10.927320 660.178894
249 0 1 11.698400 11.137210 660.985596
250 0 1 11.027230 11.528970 661.679016
251 0 1 10.352670 11.957660 662.248718
252 0 1 9.519670 12.167120 662.712280
253 0 1 8.764076 12.216460 663.230103
254 0 1 7.874879 12.339690 663.646423
255 0 1 7.184851 12.681789 664.189392
256 0 1 6.631230 12.660470 664.910522
257 0 1 6.222980 12.528920 665.776611
258 0 1 5.669810 12.379230 666.520325
259 0 1 5.065970 12.249929 667.290771
260 0 1 4.522590 12.157579 668.098389
261 0 1 4.423080 12.262130 669.018005
262 0 1 4.399700 12.012461 669.990479
263 0 1 4.208610 11.854040 670.919922
264 0 1 4.050230 11.627769 671.829773
265 0 1 3.639360 11.718830 672.699402
266 0 1 3.639120 11.702220 673.713684
267 0 1 3.767240 11.326550 674.570923
268 0 1 3.707410 11.138300 675.520386
269 0 1 3.747890 11.223380 676.458984
270 0 1 3.843380 11.183150 677.452271
271 0 1 4.060290 11.342751 678.324707
272 0 1 3.925780 11.745650 679.189026
273 0 1 3.936470 12.056070 680.143494
274 0 1 3.945580 12.490490 680.988892
275 0 1 3.844950 12.609510 681.910828
276 0 1 3.625390 12.617220 682.850708
277 0 1 3.448880 12.305850 683.758972
278 0 1 3.319160 11.736600 684.476685
279 0 1 3.173180 11.124900 685.263916
280 0 1 3.088850 10.367580 685.929932
281 0 1 2.949150 9.863480 686.744080
282 0 1 2.951250 9.341980 687.566284
283 0 1 2.833380 8.870624 688.462708
284 0 1 2.741710 8.422064 689.278625
285 0 1 2.556110 7.892019 690.119690
286 0 1 2.436710 7.644231 691.030396
287 0 1 2.549940 7.386920 691.966980
288 0 1 2.870060 6.919840 692.749023
289 0 1 2.903950 6.539130 693.631226
290 0 1 3.096130 5.983200 694.414429
291 0 1 3.341350 5.183750 695.010681
292 0 1 3.727960 4.744860 695.759827
293 0 1 3.980900 4.107670 696.447083
294 0 1 4.054430 3.510470 697.161621
295 0 1 4.109220 3.013230 698.000366
296 0 1 4.136940 2.805200 698.927368
297 0 1 4.044710 2.775710 699.924072
298 0 1 3.886680 2.880950 700.881287
299 0 1 3.699130 2.764320 701.832275
300 0 1 3.502070 2.917640 702.800598
301 0 1 3.325850 3.136470 703.774597
302 0 1 3.175150 3.195770 704.711914
303 0 1 3.168440 3.569900 705.682312
304 0 1 3.144100 3.552650 706.630615
305 0 1 3.141440 3.858250 707.512207
306 0 1 3.145130 4.266390 708.341003
307 0 1 3.230490 4.537610 709.253174
308 0 1 3.279130 4.850400 710.175293
309 0 1 3.274060 5.109610 711.108887
310 0 1 3.304100 5.447990 712.050110
311 0 1 3.163720 5.859410 712.908813
312 0 1 3.538560 6.209660 713.758179
313 0 1 3.820940 6.395300 714.713074
314 0 1 4.121790 6.722800 715.565308
315 0 1 4.475570 7.208822 716.296204
316 0 1 4.868200 7.722041 717.081787
317 0 1 5.250090 7.760468 717.973511
318 0 1 5.735210 7.685100 718.789612
319 0 1 6.323490 7.782091 719.619507
320 0 1 7.010486 7.844522 720.328613
321 0 1 7.516391 7.927752 721.122803
322 0 1 8.285701 7.985232 721.775208
323 0 1 8.918867 7.827726 722.453613
324 0 1 9.312950 8.127510 723.257019
325 0 1 9.516440 8.347674 724.189209
326 0 1 9.610070 8.689264 725.087769
327 0 1 9.711080 8.842861 726.030579
328 0 1 9.564020 9.101270 726.983276
329 0 1 9.123740 9.359670 727.811401
330 0 1 8.638318 9.647230 728.599976
331 0 1 8.298904 9.962160 729.448975
332 0 1 8.392439 10.166970 730.377991
333 0 1 8.654382 10.475280 731.257019
334 0 1 8.987654 10.954120 731.995972
335 0 1 9.592570 11.334700 732.617981
336 0 1 10.230010 11.482861 733.307983
337 0 1 10.657300 11.507020 734.132996
338 0 1 10.743720 11.370580 735.059998
339 0 1 10.882299 11.280920 736.044006
340 0 1 10.995670 11.465450 736.964966
341 0 1 11.046030 11.728880 737.908020
342 0 1 10.648211 12.147699 738.752014
343 0 1 10.283091 12.531031 739.565002
344 0 1 9.665230 12.946421 740.307983
345 0 1 9.170420 13.117650 741.098022
346 0 1 8.809186 13.201180 741.992004
347 0 1 8.456600 13.266870 742.911011
348 0 1 8.073839 13.159679 743.776001
349 0 1 7.944532 12.872419 744.643005
350 0 1 7.634124 12.620930 745.589966
351 0 1 7.385244 12.184170 746.466980
352 0 1 7.271128 11.555380 747.156982
353 0 1 7.225927 10.845650 747.874023
354 0 1 6.969730 10.239660 748.648010
355 0 1 6.914860 9.760201 749.427002
356 0 1 6.755640 9.560230 750.406006
357 0 1 6.638450 9.351520 751.354980
358 0 1 6.572200 8.885863 752.148010
359 0 1 6.792890 8.332518 752.914978
360 0 1 6.851750 7.969300 753.776001
361 0 1 6.775820 7.483451 754.620972
362 0 1 6.803000 7.214448 755.572998
363 0 1 6.738380 7.317468 756.505981
364 0 1 6.708940 7.394890 757.473022
365 0 1 6.732690 7.156061 758.395996
366 0 1 6.923030 7.295387 759.377991
367 0 1 6.975060 7.395293 760.354980
368 0 1 7.136582 7.714625 761.213013
369 0 1 7.673139 7.980756 761.992981
370 0 1 8.243132 8.442610 762.573975
371 0 1 8.613617 8.988608 763.216003
372 0 1 8.829632 9.180940 764.252014
373 0 1 9.045100 9.666940 765.020996
374 0 1 9.166650 9.734270 765.938965
375 0 1 9.366170 9.989180 766.846985
376 0 1 9.429590 10.103140 767.811035
377 0 1 9.426830 10.185020 768.765015
378 0 1 9.560160 10.652081 769.547974
379 0 1 9.430910 11.312450 770.367004
380 0 1 9.371300 11.732770 771.294983
381 0 1 9.191740 12.021000 772.309021
382 0 1 9.072460 12.157200 773.238037
383 0 1 9.264190 12.598841 774.073975
384 0 1 9.468530 12.935120 774.924011
385 0 1 9.858930 12.882401 775.848999
386 0 1 10.101490 12.692511 776.760986
387 0 1 10.217520 12.507320 777.705017
388 0 1 10.455790 11.947830 778.518982
389 0 1 10.366631 11.523860 779.421997
390 0 1 10.080330 11.238131 780.421997
391 0 1 9.877400 11.039980 781.424011
392 0 1 9.710840 10.937240 782.330994
393 0 1 9.493240 10.768220 783.186035
394 0 1 9.167220 10.359710 784.000977
395 0 1 8.708183 10.084610 784.775024
396 0 1 8.254922 10.099340 785.604980
397 0 1 7.823165 9.791410 786.379028
398 0 1 7.335717 9.243361 787.011963
399 0 1 6.677990 8.930079 787.580994
400 0 1 6.192280 8.717105 788.403992
401 0 1 5.602690 8.656659 789.198975
402 0 1 4.925000 8.480728 789.841003
403 0 1 4.089000 8.256066 790.299988
404 0 1 3.362800 8.229872 791.005005
405 0 1 3.060190 8.162137 791.953003
406 0 1 2.694170 7.843367 792.757019
407 0 1 2.278730 7.326238 793.541016
408 0 1 2.013000 7.145157 794.434021
409 0 1 1.959960 7.012255 795.447998
410 0 1 1.958870 6.903900 796.395020
411 0 1 1.854860 6.999600 797.338013
412 0 1 1.889590 7.091901 798.249023
413 0 1 1.894350 7.298407 799.148987
414 0 1 1.863610 7.397922 800.078003
415 0 1 1.671960 7.234095 801.007996
416 0 1 1.613720 7.074996 802.031006
417 0 1 1.280190 7.307880 802.924988
418 0 1 1.146080 7.604648 803.838989
419 0 1 1.303310 8.104913 804.622986
420 0 1 1.366940 8.683377 805.390015
421 0 1 1.626890 9.033940 806.216980
422 0 1 1.875220 9.225690 807.122986
423 0 1 2.104470 9.415310 808.052979
424 0 1 2.170930 9.518160 809.049988
425 0 1 2.265790 9.763371 810.067017
426 0 1 2.510840 9.894310 811.080017
427 0 1 3.011350 10.179420 811.822021
428 0 1 3.362840 10.502560 812.604980
429 0 1 3.656460 10.891680 813.468994
430 0 1 3.972780 11.058840 814.354980
431 0 1 4.268760 11.328130 815.221008
432 0 1 4.715870 11.646520 815.981018
433 0 1 5.053820 11.878410 816.877991
434 0 1 5.228560 12.056290 817.752014
435 0 1 5.703100 11.927130 818.572998
436 0 1 6.241140 11.703420 819.358032
437 0 1 6.742220 11.655890 820.187012
438 0 1 7.008813 11.588950 821.088013
439 0 1 7.093541 11.629980 822.089966
440 0 1 7.289369 11.931900 822.971985
441 0 1 7.399750 12.005770 823.929993
442 0 1 7.264048 12.276711 824.833008
443 0 1 6.967780 12.575060 825.707031
444 0 1 6.589800 12.953500 826.635010
445 0 1 6.181230 13.148410 827.515015
446 0 1 5.569080 13.116550 828.213013
447 0 1 5.340400 12.787470 829.083984
448 0 1 4.991230 12.881090 829.990967
449 0 1 4.591400 12.798650 830.856018
450 0 1 4.190070 12.471769 831.635010
451 0 1 3.744840 11.946270 832.304993
452 0 1 3.307480 11.232350 832.815002
453 0 1 2.964250 10.436110 833.218018
454 0 1 2.862010 9.641050 833.729004
455 0 1 2.883390 8.749907 834.197021
456 0 1 2.720610 7.901934 834.559998
457 0 1 2.611650 6.871040 834.542969
458 0 1 2.704980 5.891710 834.445007
459 0 1 2.949360 4.971310 834.218994
460 0 1 3.502510 4.216950 834.033997
461 0 1 4.140400 3.892960 833.468018
462 0 1 4.726220 3.550940 832.739014
463 0 1 5.391740 3.287130 832.129028
464 0 1 6.030360 3.321870 831.424011
465 0 1 6.584360 3.355800 830.666016
466 0 1 6.957500 3.623440 829.796997
467 0 1 7.428371 3.715490 828.971008
468 0 1 8.060541 3.895710 828.242004
469 0 1 8.729398 4.317730 827.614014
470 0 1 9.499310 4.885030 827.174011
471 0 1 10.183990 5.281770 826.497009
472 0 1 10.952641 5.607390 825.997986
473 0 1 11.655220 6.093920 825.625000
474 0 1 12.318729 6.248140 824.891968
475 0 1 12.506340 6.554950 824.039978
476 0 1 12.314520 6.819900 823.070007
477 0 1 12.426439 6.847220 822.124023
478 0 1 12.499800 6.841250 821.208008
479 0 1 12.319580 7.101583 820.335022
480 0 1 12.075581 7.314756 819.318970
481 0 1 12.057570 7.615043 818.384033
482 0 1 12.030310 8.078590 817.526001
483 0 1 11.599940 8.333921 816.672974
484 0 1 10.917160 8.152623 815.947021
485 0 1 10.094151 8.063764 815.479004
486 0 1 9.375731 7.983434 814.916992
487 0 1 8.691952 7.527684 814.348022
488 0 1 8.279343 7.269963 813.490967
489 0 1 7.933539 7.336251 812.557983
490 0 1 7.602080 7.420156 811.697021
491 0 1 6.977850 7.457906 810.966003
492 0 1 6.433500 7.349172 810.171021
493 0 1 6.258840 7.582592 809.247986
494 0 1 6.149750 7.413706 808.322998
495 0 1 5.962680 7.047829 807.457031
496 0 1 5.593700 6.968960 806.614990
497 0 1 5.125720 6.907310 805.791016
498 0 1 4.799850 7.212237 804.869995
499 0 1 4.873000 7.339181 803.937012
500 0 1 5.133820 7.134408 802.999023
501 0 1 5.560760 7.198806 802.065002
502 0 1 5.716120 7.537186 801.179993
503 0 1 5.842150 7.961654 800.312012
504 0 1 6.006470 8.356250 799.377991
505 0 1 6.117580 8.789559 798.536987
506 0 1 6.396460 9.262690 797.796997
507 0 1 6.626390 9.638600 796.872009
508 0 1 6.860590 9.945280 795.932007
509 0 1 7.138153 10.301350 795.007996
510 0 1 7.433355 10.694960 794.179016
511 0 1 7.796498 11.078520 793.367981
512 0 1 7.963023 11.694250 792.617981
513 0 1 7.931571 12.196819 791.786011
514 0 1 7.864745 12.690310 790.924988
515 0 1 7.824430 13.033850 789.971985
516 0 1 8.127695 13.138850 788.999023
517 0 1 8.255588 12.993811 788.030029
518 0 1 8.180498 12.951780 787.049988
519 0 1 8.124362 13.184510 786.083008
520 0 1 8.199579 13.364660 785.169006
521 0 1 8.333121 13.455259 784.182983
522 0 1 8.603242 13.281260 783.291992
523 0 1 8.808305 13.384860 782.315002
524 0 1 9.009570 13.223471 781.403015
525 0 1 9.106421 13.249001 780.408020
526 0 1 9.537560 13.423670 779.561035
527 0 1 10.227870 13.585190 778.889038
528 0 1 11.148220 13.749460 778.455994
529 0 1 11.922800 13.596149 777.942993
530 0 1 12.478360 13.249371 777.254028
531 0 1 12.805400 12.966410 776.369995
532 0 1 12.977079 12.751400 775.479004
533 0 1 13.182510 12.421460 774.554993
534 0 1 13.264481 11.933120 773.766968
535 0 1 13.021530 11.507170 772.927002
536 0 1 13.000570 10.836370 772.190979
537 0 1 13.280991 10.103870 771.601990
538 0 1 13.465700 9.495540 770.820007
539 0 1 13.427020 9.082780 770.002014
540 0 1 13.394880 9.008660 769.002014
541 0 1 13.392110 8.833094 768.077026
542 0 1 13.463409 8.812607 767.108032
543 0 1 13.380760 8.334033 766.289001
544 0 1 13.144489 7.754349 765.575989
545 0 1 12.787800 7.361053 764.752014
546 0 1 12.128099 7.294113 763.981018
547 0 1 11.550750 7.083860 763.224976
548 0 1 11.070490 6.940980 762.458984
549 0 1 10.526711 6.709680 761.687012
550 0 1 10.039970 6.143660 761.139038
551 0 1 9.522150 5.617600 760.395996
552 0 1 8.996623 5.258730 759.674011
553 0 1 8.422386 4.946570 758.938965
554 0 1 7.944798 4.469670 758.200012
555 0 1 7.505561 4.073230 757.429016
556 0 1 7.307762 3.740900 756.536987
557 0 1 7.276430 3.360020 755.593018
558 0 1 7.237283 3.364610 754.641968
559 0 1 7.070655 3.464260 753.745972
560 0 1 7.193856 3.643120 752.817017
561 0 1 7.519261 4.120900 752.015015
562 0 1 7.700480 4.868110 751.422974
563 0 1 7.759327 5.504440 750.638000
564 0 1 7.855935 5.947870 749.785034
565 0 1 7.768993 6.284110 748.898987
566 0 1 7.646464 6.758320 748.000000
567 0 1 7.558516 7.169476 747.106995
568 0 1 7.456726 7.361447 746.132996
569 0 1 7.628220 7.711202 745.141968
570 0 1 7.498640 7.928578 744.210999
571 0 1 7.489499 7.661881 743.289978
572 0 1 7.420998 7.769205 742.341003
573 0 1 7.276011 7.752332 741.426025
574 0 1 7.158384 7.540134 740.490967
575 0 1 6.730260 7.140934 739.744995
576 0 1 6.680180 7.047024 738.794006
577 0 1 6.664340 6.811580 737.872009
578 0 1 6.683680 6.659890 736.875977
579 0 1 6.682290 6.674680 735.877991
580 0 1 6.739780 6.761050 734.942993
581 0 1 6.823640 6.615140 733.966003
582 0 1 6.996400 6.145150 733.184021
583 0 1 7.280894 5.488930 732.502014
584 0 1 7.561217 5.394640 731.565002
585 0 1 7.953081 5.186490 730.766968
586 0 1 7.937311 4.966160 729.841980
587 0 1 8.084743 4.787330 728.914001
588 0 1 7.950435 4.644380 727.942993
589 0 1 7.483164 4.497300 727.034119
590 0 1 7.195655 4.465710 726.150208
591 0 1 6.959480 4.444510 725.237488
592 0 1 6.989880 4.404010 724.311584
593 0 1 7.073170 4.692470 723.324524
594 0 1 7.209673 4.823760 722.339600
595 0 1 7.240863 4.979190 721.390076
596 0 1 7.208909 5.090280 720.468018
597 0 1 7.300525 5.110160 719.486572
598 0 1 7.443446 4.985820 718.499634
599 0 1 7.636380 4.755850 717.572815
600 0 1 7.844704 4.660880 716.697083
601 0 1 7.923889 4.287680 715.801392
602 0 1 8.237940 4.114910 714.878418
603 0 1 8.330100 3.942050 713.965332
604 0 1 8.530360 3.658710 712.992432
605 0 1 8.740438 3.325330 712.150024
606 0 1 8.818523 3.009040 711.256104
607 0 1 8.712679 2.831800 710.306702
608 0 1 8.470632 2.397440 709.468994
609 0 1 8.414179 1.968520 708.579102
610 0 1 8.580514 1.591390 707.784912
611 0 1 8.731029 1.355960 706.856995
612 0 1 9.160390 1.488460 706.036926
613 0 1 9.836590 1.797970 705.367798
614 0 1 10.521520 2.096910 704.737122
615 0 1 10.956540 2.422620 703.921204
616 0 1 11.531110 2.495200 703.160583
617 0 1 11.897141 2.683250 702.285522
618 0 1 12.119890 2.800620 701.396729
619 0 1 11.824860 3.006080 700.475525
620 0 1 11.325920 3.497670 699.745117
621 0 1 10.884060 3.902310 699.001099
622 0 1 10.779140 4.568320 698.276367
623 0 1 10.827230 5.357680 697.738892
624 0 1 10.974421 6.194090 697.389526
625 0 1 11.184230 6.882880 696.765320
626 0 1 11.345070 7.460651 696.022888
627 0 1 11.316310 8.250237 695.422180
628 0 1 11.517010 9.104690 695.054199
629 0 1 11.881500 9.922860 694.681396
630 0 1 12.382600 10.422070 693.999268
631 0 1 12.627951 10.579420 693.038025
632 0 1 12.673040 10.690790 692.154602
633 0 1 12.906610 11.023230 691.294189
634 0 1 12.704741 11.408970 690.425110
635 0 1 12.519870 11.617290 689.525574
636 0 1 12.381660 11.775320 688.599976
637 0 1 12.330180 11.648010 687.720703
638 0 1 12.147770 11.531760 686.775269
639 0 1 12.138730 11.245590 685.905579
640 0 1 12.117340 11.202090 684.928223
641 0 1 12.107759 11.508210 684.003113
642 0 1 12.202710 11.633610 683.070312
643 0 1 12.182740 11.700760 682.007996
644 0 1 12.311640 11.695460 681.045227
645 0 1 12.451200 11.633590 680.016602
646 0 1 12.460930 11.667690 679.039612
647 0 1 12.606060 11.900690 678.069885
648 0 1 12.876520 11.981170 677.150696
649 0 1 12.916750 12.271780 676.208923
650 0 1 12.793910 12.457160 675.275879
651 0 1 12.584160 12.494040 674.293518
652 0 1 12.583611 12.136480 673.411316
653 0 1 12.612761 11.776450 672.548706
654 0 1 12.764580 11.284100 671.664490
655 0 1 12.785740 10.691970 670.812988
656 0 1 12.870180 10.416950 669.927612
657 0 1 12.829130 10.132350 668.953979
658 0 1 12.959110 10.088940 667.981018
659 0 1 13.271231 10.178070 667.089478
660 0 1 13.143400 10.344710 666.126709
661 0 1 12.784100 10.211750 665.302917
662 0 1 12.699450 9.917440 664.361328
663 0 1 12.675859 9.547791 663.431030
664 0 1 12.909349 9.141730 662.539917
665 0 1 12.957880 8.985856 661.643982
666 0 1 13.111879 9.092940 660.645691
667 0 1 13.114110 9.031830 659.747009
668 0 1 12.976110 8.669897 658.892578
669 0 1 12.784960 8.453847 657.954712
670 0 1 12.658440 8.564918 656.989624
671 0 1 12.282650 8.670982 656.146179
672 0 1 11.988250 8.953890 655.262878
673 0 1 11.863190 9.425250 654.474487
674 0 1 11.888330 9.917090 653.666077
675 0 1 11.834450 10.346280 652.823792
676 0 1 11.852990 10.856500 651.953003
677 0 1 11.732470 11.249110 651.085571
678 0 1 11.657240 11.544800 650.007996
679 0 1 11.757290 11.737410 649.084717
680 0 1 11.732810 11.966480 648.168518
681 0 1 11.494460 11.796630 647.235901
682 0 1 11.491790 11.764760 646.287781
683 0 1 11.543440 11.866261 645.324707
684 0 1 11.382010 11.888330 644.349976
685 0 1 11.485280 12.235041 643.419373
686 0 1 11.334790 12.404460 642.447205
687 0 1 11.212030 12.583640 641.511719
688 0 1 10.829041 12.899560 640.692993
689 0 1 10.361410 12.651910 639.871216
690 0 1 9.706320 12.505210 639.206787
691 0 1 9.028450 12.519711 638.523987
692 0 1 8.646382 12.399560 637.649963
693 0 1 8.031955 12.291480 636.972900
694 0 1 7.268496 11.981770 636.569946
695 0 1 6.477670 11.819400 636.030151
696 0 1 5.702240 11.541750 635.537781
697 0 1 5.065720 11.092381 635.012817
698 0 1 4.488700 10.404130 634.715027
699 0 1 4.021570 9.750180 634.108765
700 0 1 3.844470 8.836531 633.716980
701 0 1 3.832830 7.841781 633.545532
702 0 1 3.694340 6.916320 633.232910
703 0 1 3.505380 6.006950 632.710144
704 0 1 3.546180 5.332760 632.022400
705 0 1 3.922440 4.807330 631.282471
706 0 1 4.396830 4.354830 630.487000
707 0 1 5.060190 4.228890 629.816162
708 0 1 5.867200 4.572970 629.335815
709 0 1 6.737260 4.898200 628.972534
710 0 1 7.519965 5.283290 628.483276
711 0 1 8.279261 5.546770 627.888000
712 0 1 9.088150 5.670380 627.433411
713 0 1 9.869370 5.803780 626.866638
714 0 1 10.435270 5.991080 626.135315
715 0 1 11.074120 6.164730 625.500671
716 0 1 11.689600 6.393810 624.778809
717 0 1 12.546080 6.703220 624.472778
718 0 1 13.072701 6.982180 623.742920
719 0 1 13.491320 7.099474 622.859558
720 0 1 13.658580 7.161242 621.841675
721 0 1 13.648430 7.165911 620.772400
722 0 1 13.340480 7.083404 619.892334
723 0 1 12.759809 6.946400 619.075378
724 0 1 12.327499 6.629250 618.316406
725 0 1 11.930970 6.391210 617.472473
726 0 1 11.678480 6.282590 616.598389
727 0 1 11.350750 6.452510 615.682800
728 0 1 11.300550 6.710140 614.687317
729 0 1 11.037060 6.655460 613.805176
730 0 1 10.738150 6.634240 612.798279
731 0 1 10.132441 6.926800 612.071106
732 0 1 9.579750 7.001760 611.223572
733 0 1 9.266100 7.040289 610.257202
734 0 1 8.825216 7.255711 609.441589
735 0 1 8.573031 7.769868 608.732483
736 0 1 8.304063 7.942386 607.829590
737 0 1 8.202091 8.056685 606.910583
738 0 1 8.002271 8.003751 605.989380
739 0 1 8.155531 7.752480 605.047485
740 0 1 8.438616 7.539917 604.146912
741 0 1 8.793337 7.396742 603.218506
742 0 1 9.017310 7.436107 602.258606
743 0 1 9.324840 6.968330 601.419006
744 0 1 9.683850 6.690470 600.562988
745 0 1 9.782570 6.757660 599.661194
746 0 1 10.046010 6.627100 598.733582
747 0 1 10.133540 6.252610 597.841125
748 0 1 10.262900 6.183660 596.865417
749 0 1 10.419440 6.057000 595.946716
750 0 1 10.193160 6.188640 595.023987
751 0 1 9.456110 6.022580 594.427307
752 0 1 8.812739 5.998130 593.741028
753 0 1 8.398470 5.587690 592.897522
754 0 1 8.270278 5.151440 591.966614
755 0 1 8.524642 4.917020 591.035889
756 0 1 8.683692 4.751900 590.059814
757 0 1 8.982074 4.804750 589.176575
758 0 1 9.108410 4.856890 588.218628
759 0 1 9.527390 5.090540 587.413818
760 0 1 9.965630 5.411560 586.595398
761 0 1 10.176950 5.774460 585.723816
762 0 1 10.446609 6.348740 584.983215
763 0 1 10.540250 6.767400 584.155579
764 0 1 10.822400 6.963980 583.308899
765 0 1 11.086470 7.130786 582.394714
766 0 1 11.240089 7.215148 581.420776
767 0 1 11.477430 7.764971 580.732483
768 0 1 11.297720 8.459939 580.107117
769 0 1 11.535510 9.081160 579.383911
770 0 1 11.582911 9.539690 578.506104
771 0 1 11.791861 10.136830 577.790100
772 0 1 11.646170 10.605350 576.986084
773 0 1 11.573030 11.009220 576.123596
774 0 1 11.546619 11.173600 575.172607
775 0 1 11.432620 11.400010 574.249023
776 0 1 11.196500 11.502069 573.383789
777 0 1 11.004240 11.529230 572.416626
778 0 1 10.898260 11.340730 571.478027
779 0 1 10.785920 10.956409 570.617004
780 0 1 11.060110 10.619460 569.651672
781 0 1 11.619530 10.105860 568.916626
782 0 1 12.446341 9.964720 568.389099
783 0 1 13.312910 9.760520 567.913696
784 0 1 13.693729 9.439230 567.161804
785 0 1 14.026510 8.925865 566.390869
786 0 1 14.080690 8.735352 565.450623
787 0 1 14.018370 8.591574 564.555603
788 0 1 13.786760 8.431808 563.636780
789 0 1 13.377270 8.384702 562.720093