LAMMPS data file via MDAnalysis

        1000  atoms
        1000  bonds
        1000  angles
           0  dihedrals
           0  impropers

           1  atom types
           1  bond types
           1  angle types
           0  dihedral types
           0  improper types

0.000000 16.000000 xlo xhi
0.000000 16.000000 ylo yhi
0.000000 1257.000000 zlo zhi


Masses

1 1.000000

Atoms

1 0 1 12.429440 10.337140 452.968018
2 0 1 12.861000 10.171090 453.877014
3 0 1 13.262430 9.692101 454.671021
4 0 1 13.577040 9.479010 455.494995
5 0 1 13.765910 9.081410 456.309998
6 0 1 14.066840 8.861466 457.213013
7 0 1 14.131189 8.839400 458.194000
8 0 1 13.823120 9.015820 459.101990
9 0 1 13.253180 9.364620 459.809998
10 0 1 12.803070 9.766150 460.575012
11 0 1 12.483300 10.163570 461.332001
12 0 1 11.903009 10.410740 462.044983
13 0 1 11.720100 10.704570 462.945984
14 0 1 11.599070 10.438140 463.942993
15 0 1 11.482340 10.098770 464.817993
16 0 1 11.138200 9.846860 465.806000
17 0 1 10.568130 9.477520 466.492004
18 0 1 10.165530 9.099490 467.408020
19 0 1 9.643670 8.900642 468.161011
20 0 1 8.899991 8.951642 468.802002
21 0 1 8.195462 8.897081 469.464996
22 0 1 7.452500 8.675918 470.070984
23 0 1 6.950620 8.339511 470.832001
24 0 1 6.380550 8.037387 471.582001
25 0 1 5.979780 7.700471 472.289978
26 0 1 5.779890 7.128114 473.015015
27 0 1 5.825370 6.618360 473.812988
28 0 1 5.535600 5.921730 474.502014
29 0 1 5.278190 5.342770 475.213989
30 0 1 4.987860 4.655060 475.830994
31 0 1 4.490140 4.215870 476.489990
32 0 1 4.119660 4.346070 477.333008
33 0 1 3.605800 4.549570 478.059998
34 0 1 3.346620 4.550610 479.056000
35 0 1 3.458060 4.620500 479.994019
36 0 1 3.697640 4.501520 480.936005
37 0 1 3.755920 4.386960 481.919983
38 0 1 3.667000 4.499280 482.825989
39 0 1 3.751770 4.546770 483.783997
40 0 1 3.869450 4.424820 484.690979
41 0 1 3.722100 4.503690 485.596008
42 0 1 3.932000 4.822920 486.471008
43 0 1 3.981960 4.954570 487.406006
44 0 1 4.078180 5.166870 488.312012
45 0 1 4.017160 5.410790 489.338989
46 0 1 4.122590 5.823060 490.248993
47 0 1 3.969500 6.174930 491.145020
48 0 1 3.926570 6.607890 491.963013
49 0 1 3.634950 7.054197 492.747986
50 0 1 3.289810 7.056365 493.695007
51 0 1 3.114350 7.166831 494.692017
52 0 1 2.990820 7.408457 495.588989
53 0 1 2.965310 7.627677 496.511993
54 0 1 3.086460 7.952312 497.343018
55 0 1 3.791750 8.281699 497.878998
56 0 1 4.439440 8.532784 498.524994
57 0 1 5.143580 9.033490 498.932007
58 0 1 6.003410 9.217060 499.326996
59 0 1 6.728310 8.880486 499.873993
60 0 1 7.583685 8.434032 500.109009
61 0 1 8.274140 7.800655 500.447998
62 0 1 8.772718 7.196715 501.024994
63 0 1 9.133680 6.667520 501.726990
64 0 1 9.380460 5.943240 502.325012
65 0 1 9.493080 5.119120 502.876007
66 0 1 9.426800 4.464460 503.575012
67 0 1 9.299510 3.664410 504.076996
68 0 1 9.157300 2.908480 504.606995
69 0 1 9.013420 2.259060 505.338989
70 0 1 8.954745 1.942630 506.192017
71 0 1 9.257450 2.024550 507.113007
72 0 1 9.518910 2.254970 507.976013
73 0 1 10.045919 2.483540 508.725006
74 0 1 10.476950 2.697840 509.580017
75 0 1 10.943860 3.028950 510.324005
76 0 1 11.435280 3.408060 511.093018
77 0 1 11.531470 3.716930 511.919006
78 0 1 11.631300 3.974500 512.864990
79 0 1 11.815100 4.120490 513.786987
80 0 1 12.043409 4.230530 514.703979
81 0 1 11.962250 4.282270 515.641968
82 0 1 11.556390 4.576710 516.520996
83 0 1 11.357200 4.962940 517.416016
84 0 1 11.435250 5.356520 518.315979
85 0 1 11.033570 5.780210 519.035034
86 0 1 10.423640 6.280110 519.627991
87 0 1 9.964260 7.066957 520.099976
88 0 1 9.674460 7.511373 520.919983
89 0 1 9.464490 8.105634 521.695984
90 0 1 8.975822 8.284438 522.516968
91 0 1 8.402752 8.274878 523.362000
92 0 1 7.790052 8.172733 524.094971
93 0 1 7.575741 8.021237 525.007019
94 0 1 7.228323 7.781325 525.818970
95 0 1 7.268449 7.598811 526.791016
96 0 1 7.069386 7.457771 527.698975
97 0 1 6.812360 7.608785 528.583801
98 0 1 6.668700 7.743183 529.568787
99 0 1 6.557720 7.709925 530.557190
100 0 1 6.321670 7.596934 531.503296
101 0 1 6.105560 7.506870 532.427368
102 0 1 6.056820 7.376601 533.457092
103 0 1 6.023720 7.267552 534.382385
104 0 1 5.951050 7.027466 535.350281
105 0 1 5.654500 6.690950 536.197815
106 0 1 5.488610 5.966340 536.756592
107 0 1 5.572570 5.314710 537.382019
108 0 1 5.354680 4.601360 538.041382
109 0 1 4.914900 3.806060 538.484009
110 0 1 4.476960 3.314520 539.177185
111 0 1 4.101760 3.031630 540.006226
112 0 1 3.815740 2.833830 540.890686
113 0 1 3.909200 2.880420 541.859131
114 0 1 3.989400 2.810840 542.849609
115 0 1 4.091600 2.888440 543.802124
116 0 1 4.200450 3.191500 544.690491
117 0 1 4.393960 3.365300 545.584290
118 0 1 4.810620 3.433450 546.492798
119 0 1 5.182580 3.642730 547.362122
120 0 1 5.760230 3.788230 548.124817
121 0 1 6.231820 3.805620 549.058289
122 0 1 6.604220 3.384740 549.820801
123 0 1 7.078856 3.100100 550.624878
124 0 1 7.618761 3.134520 551.439819
125 0 1 8.400797 3.169480 552.095093
126 0 1 9.131180 3.455610 552.634277
127 0 1 9.739910 3.536200 553.417297
128 0 1 10.157340 3.524440 554.301270
129 0 1 10.429540 3.576220 555.229309
130 0 1 10.736890 3.689610 556.138123
131 0 1 10.800620 3.602020 557.090881
132 0 1 10.572330 3.250200 558.015686
133 0 1 10.359921 2.899650 558.836426
134 0 1 10.345680 2.636810 559.756470
135 0 1 10.466180 2.395700 560.783386
136 0 1 10.485800 2.536030 561.753174
137 0 1 10.623150 2.665980 562.683472
138 0 1 10.640240 2.853500 563.578796
139 0 1 10.818000 3.299160 564.395691
140 0 1 10.801920 3.872290 565.177612
141 0 1 10.720730 4.183850 566.041870
142 0 1 10.950130 4.393500 566.955994
143 0 1 11.151150 4.623290 567.888306
144 0 1 11.381010 4.900450 568.773499
145 0 1 11.434130 5.196670 569.643799
146 0 1 11.626141 5.705090 570.396973
147 0 1 11.575280 6.436560 571.032715
148 0 1 11.275430 7.158882 571.582092
149 0 1 10.914220 7.766878 572.267700
150 0 1 10.556740 8.308319 573.043823
151 0 1 10.317210 8.582217 573.907227
152 0 1 9.903900 8.694011 574.789612
153 0 1 9.722730 8.476368 575.718994
154 0 1 9.728100 8.071918 576.629578
155 0 1 9.723940 7.705087 577.493591
156 0 1 9.718600 7.697555 578.450073
157 0 1 9.675520 7.757957 579.383301
158 0 1 9.948440 7.664408 580.283203
159 0 1 10.327360 7.721794 581.117188
160 0 1 10.660680 7.761549 582.051025
161 0 1 10.851720 7.404168 582.956909
162 0 1 10.852551 7.080130 583.818115
163 0 1 10.998330 6.983680 584.809082
164 0 1 11.304540 6.746680 585.676025
165 0 1 11.729310 6.533220 586.654785
166 0 1 11.703780 6.597100 587.570007
167 0 1 11.941771 6.622300 588.594971
168 0 1 12.073290 6.697800 589.590576
169 0 1 11.909340 6.494600 590.489380
170 0 1 11.757010 6.110950 591.395325
171 0 1 12.013090 5.858140 592.306580
172 0 1 12.220190 5.363250 593.092712
173 0 1 12.129700 4.862310 593.906372
174 0 1 12.220290 4.474200 594.888916
175 0 1 12.170930 4.061670 595.763428
176 0 1 12.193501 4.002100 596.741028
177 0 1 11.788480 3.849140 597.625183
178 0 1 11.161079 3.730580 598.366089
179 0 1 10.272490 3.528090 598.722107
180 0 1 9.426410 3.494770 599.153625
181 0 1 8.568752 3.392830 599.458984
182 0 1 7.676804 3.254190 599.741516
183 0 1 6.804590 2.994580 599.937500
184 0 1 6.239200 2.550970 600.518005
185 0 1 5.524220 2.154240 601.019714
186 0 1 4.981450 2.060980 601.836121
187 0 1 4.608860 2.133910 602.709229
188 0 1 4.298400 2.625340 603.510681
189 0 1 3.749170 3.002060 604.243591
190 0 1 3.229340 3.342960 604.976501
191 0 1 2.806860 3.613600 605.844421
192 0 1 2.498470 4.126330 606.670715
193 0 1 2.259540 4.809500 607.309204
194 0 1 2.103430 5.273530 608.100891
195 0 1 1.990110 5.715830 608.946472
196 0 1 1.853680 5.890650 609.927307
197 0 1 1.808550 6.124570 610.903992
198 0 1 1.685980 6.379270 611.825500
199 0 1 1.627040 6.644900 612.813110
200 0 1 1.731590 6.738490 613.802795
201 0 1 1.919840 6.794950 614.761414
202 0 1 2.416430 6.814790 615.638489
203 0 1 2.921670 6.455040 616.353821
204 0 1 3.315410 6.159610 617.239807
205 0 1 3.751220 5.797730 618.080872
206 0 1 3.977420 5.680950 619.036926
207 0 1 4.107490 5.432610 619.908325
208 0 1 4.383430 5.221750 620.873413
209 0 1 4.600640 5.177590 621.854675
210 0 1 5.066110 5.507560 622.710510
211 0 1 5.312930 5.874840 623.588806
212 0 1 5.188870 6.051890 624.526550
213 0 1 5.494630 6.421530 625.386169
214 0 1 5.646090 6.594450 626.329590
215 0 1 5.841130 6.884760 627.283386
216 0 1 5.672920 7.416436 628.078369
217 0 1 5.380210 7.666155 629.016479
218 0 1 5.124750 7.921635 629.926453
219 0 1 4.594340 8.216113 630.651917
220 0 1 4.421450 8.277350 631.626160
221 0 1 4.009230 8.384221 632.456726
222 0 1 3.584020 8.057944 633.223999
223 0 1 3.070220 7.770582 634.105225
224 0 1 2.886890 7.549149 635.057983
225 0 1 2.621950 7.435293 636.027283
226 0 1 2.362730 7.174844 636.885498
227 0 1 1.945300 7.219382 637.759888
228 0 1 1.668500 7.722874 638.750916
229 0 1 1.492290 8.479814 639.273621
230 0 1 1.655590 8.917552 640.149597
231 0 1 1.720130 9.318890 640.990906
232 0 1 1.507840 9.786330 641.866028
233 0 1 1.462410 9.926360 642.815002
234 0 1 1.497210 10.236440 643.739319
235 0 1 1.778250 10.459470 644.662109
236 0 1 1.967000 10.444060 645.632874
237 0 1 2.292270 10.436850 646.543823
238 0 1 2.807070 10.432350 647.384888
239 0 1 3.268680 10.459850 648.258423
240 0 1 3.785140 10.955441 648.878601
241 0 1 4.257970 11.654779 649.328918
242 0 1 4.818340 12.332420 649.734497
243 0 1 5.607590 12.778660 650.099976
244 0 1 6.396440 12.851210 650.634521
245 0 1 6.842530 12.791510 651.423096
246 0 1 7.437255 12.712629 652.185913
247 0 1 7.798806 12.713840 653.065002
248 0 1 8.441084 12.513070 653.750305
249 0 1 8.940483 12.657050 654.632019
250 0 1 9.271230 12.833910 655.526306
251 0 1 9.537310 12.982121 656.428101
252 0 1 9.610150 12.779881 657.376221
253 0 1 9.526100 12.646460 658.333130
254 0 1 9.730280 12.552840 659.288208
255 0 1 9.779720 12.770170 660.284302
256 0 1 9.893570 13.089490 661.251587
257 0 1 10.122140 13.325090 662.119019
258 0 1 10.169750 13.414300 663.081726
259 0 1 10.280360 13.487881 664.025269
260 0 1 10.211860 13.370319 664.940002
261 0 1 10.335570 12.956079 665.823303
262 0 1 10.104660 12.497540 666.694275
263 0 1 9.936090 11.904740 667.393616
264 0 1 9.596800 11.208710 668.055420
265 0 1 9.409090 10.532480 668.672119
266 0 1 9.283630 9.895670 669.396301
267 0 1 9.014030 9.344300 670.127319
268 0 1 9.000490 8.842148 670.984619
269 0 1 8.575561 8.359023 671.759521
270 0 1 8.062671 7.995452 672.609619
271 0 1 7.737753 7.619639 673.398987
272 0 1 7.231581 7.590849 674.298706
273 0 1 6.943840 7.690857 675.197632
274 0 1 6.649170 7.742347 676.111206
275 0 1 6.388780 8.033579 677.038208
276 0 1 5.971770 8.415955 677.740295
277 0 1 5.641000 8.778241 678.520386
278 0 1 5.584870 8.962471 679.421509
279 0 1 5.356840 9.399520 680.234985
280 0 1 4.906770 9.667540 681.001099
281 0 1 4.709220 9.950150 681.903931
282 0 1 4.204810 10.055389 682.706177
283 0 1 3.737100 10.002580 683.603882
284 0 1 3.286480 9.975110 684.516968
285 0 1 3.035950 10.113560 685.436707
286 0 1 2.750180 10.036160 686.320007
287 0 1 2.810770 10.123529 687.314087
288 0 1 2.622090 9.829690 688.187378
289 0 1 2.515510 9.749220 689.108887
290 0 1 2.318470 9.673960 690.039795
291 0 1 2.290230 9.575960 690.990479
292 0 1 2.679510 9.449490 691.892578
293 0 1 2.929120 9.390779 692.809021
294 0 1 3.290810 9.407500 693.785522
295 0 1 3.417370 9.435170 694.747803
296 0 1 3.583280 9.544740 695.698914
297 0 1 3.776200 9.292090 696.615906
298 0 1 3.951530 8.840653 697.476196
299 0 1 4.033410 8.359402 698.266785
300 0 1 4.220160 8.264577 699.185791
301 0 1 4.609270 8.180445 700.096313
302 0 1 5.043660 8.215277 700.916321
303 0 1 5.303130 7.904270 701.740906
304 0 1 5.438870 7.521624 702.640320
305 0 1 5.385460 7.272519 703.621582
306 0 1 5.748530 6.994340 704.459106
307 0 1 5.897000 6.499030 705.242493
308 0 1 6.036310 6.025210 706.101379
309 0 1 6.222910 5.534550 706.942505
310 0 1 6.135460 5.159480 707.871582
311 0 1 5.843040 4.947860 708.797607
312 0 1 5.609820 4.973960 709.716431
313 0 1 5.562720 5.256740 710.629517
314 0 1 5.501450 5.694640 711.437805
315 0 1 5.467720 6.049320 712.337524
316 0 1 5.416250 5.988510 713.322632
317 0 1 4.957170 5.889310 714.117676
318 0 1 4.497750 5.711780 714.876404
319 0 1 3.877170 5.469940 715.615479
320 0 1 3.362580 5.545680 716.401733
321 0 1 2.975090 5.612010 717.232910
322 0 1 2.835000 5.670630 718.172974
323 0 1 2.666330 6.246310 718.958679
324 0 1 2.607350 6.607000 719.867676
325 0 1 2.781710 7.052719 720.604797
326 0 1 3.029960 7.365954 721.488708
327 0 1 3.227000 7.701945 722.397095
328 0 1 3.422930 7.939235 723.293884
329 0 1 3.594730 8.152381 724.210876
330 0 1 3.961370 8.078729 725.197021
331 0 1 4.369540 7.861230 726.074402
332 0 1 4.900900 7.567255 726.795776
333 0 1 5.284780 7.354834 727.648499
334 0 1 5.790350 6.990870 728.411316
335 0 1 6.420510 6.664400 729.064026
336 0 1 7.192800 6.351010 729.533020
337 0 1 8.124406 6.268130 729.880981
338 0 1 8.936675 6.294780 730.322998
339 0 1 9.552330 6.114560 731.041016
340 0 1 9.892570 6.100620 731.934998
341 0 1 9.976360 6.117830 732.903992
342 0 1 9.776130 6.298070 733.818970
343 0 1 9.583060 6.502180 734.703003
344 0 1 9.542430 6.863250 735.609985
345 0 1 9.301430 7.127393 736.500977
346 0 1 9.323510 7.448210 737.442017
347 0 1 9.230450 7.600698 738.435974
348 0 1 9.272570 7.752093 739.393005
349 0 1 8.913933 8.104513 740.260010
350 0 1 8.703908 8.206906 741.174988
351 0 1 8.973889 8.313862 742.060974
352 0 1 9.096290 8.533245 743.013977
353 0 1 9.267130 8.497439 743.987000
354 0 1 9.379410 8.653941 744.955994
355 0 1 9.131830 8.715261 745.903992
356 0 1 8.952963 8.807549 746.879028
357 0 1 8.650872 8.516323 747.768982
358 0 1 8.361508 8.168504 748.708008
359 0 1 7.986900 7.768918 749.471985
360 0 1 7.825993 7.364098 750.312988
361 0 1 8.131695 7.088035 751.174988
362 0 1 8.257024 6.714030 752.091980
363 0 1 8.411581 6.350290 753.028015
364 0 1 8.228348 6.252560 753.932007
365 0 1 7.900630 6.111990 754.796021
366 0 1 7.566254 6.059800 755.692993
367 0 1 7.529303 6.014580 756.669983
368 0 1 7.629140 5.912790 757.677979
369 0 1 7.541851 5.755980 758.617004
370 0 1 7.397260 5.213750 759.442017
371 0 1 7.400861 4.897830 760.369019
372 0 1 7.571922 4.459740 761.205994
373 0 1 7.737321 4.108300 762.031982
374 0 1 8.073484 3.629760 762.853027
375 0 1 8.366147 3.443550 763.710999
376 0 1 8.828157 3.388270 764.598999
377 0 1 9.175780 3.506830 765.504028
378 0 1 9.240120 3.508250 766.427002
379 0 1 9.216560 3.540610 767.445984
380 0 1 9.627630 3.485810 768.323975
381 0 1 9.732850 3.495470 769.330017
382 0 1 9.932690 3.536340 770.304016
383 0 1 9.989520 3.399800 771.259033
384 0 1 9.891790 3.508060 772.287964
385 0 1 9.771280 3.541050 773.208984
386 0 1 9.368050 3.657960 774.037964
387 0 1 8.950729 3.897670 774.856018
388 0 1 8.588820 4.145980 775.731018
389 0 1 8.152377 4.520050 776.479980
390 0 1 7.577328 4.706550 777.344971
391 0 1 7.089345 4.818470 778.242981
392 0 1 6.874710 4.979000 779.169006
393 0 1 6.718340 4.955400 780.093994
394 0 1 6.773980 4.881860 781.091980
395 0 1 7.015495 4.960760 782.031982
396 0 1 7.419223 4.976290 782.895996
397 0 1 7.638319 4.795000 783.817017
398 0 1 7.731926 4.756870 784.775024
399 0 1 7.992917 4.796210 785.765991
400 0 1 8.232316 4.854880 786.690002
401 0 1 8.383820 5.172110 787.661011
402 0 1 8.411418 5.208110 788.656982
403 0 1 8.380960 5.210870 789.664978
404 0 1 8.424145 5.079980 790.708008
405 0 1 8.356535 5.258720 791.653992
406 0 1 8.633250 5.672870 792.557983
407 0 1 9.040920 5.846340 793.452026
408 0 1 9.322680 6.007980 794.390015
409 0 1 9.914190 6.457300 795.025024
410 0 1 10.083480 7.136459 795.745972
411 0 1 10.250260 7.453373 796.619019
412 0 1 10.162820 7.942006 797.398010
413 0 1 10.014880 8.350838 798.318970
414 0 1 10.080130 8.894552 799.167969
415 0 1 10.006090 9.404600 800.070984
416 0 1 9.745820 9.500940 800.987000
417 0 1 9.331440 9.643320 801.856995
418 0 1 8.843273 9.979930 802.639038
419 0 1 8.428481 10.410940 803.431030
420 0 1 8.386387 10.543150 804.351013
421 0 1 8.204057 10.683760 805.281982
422 0 1 7.924862 10.672330 806.234009
423 0 1 7.920406 11.024380 807.110962
424 0 1 7.803072 11.247250 808.046997
425 0 1 7.597665 11.519200 808.987000
426 0 1 7.851134 11.605890 809.891968
427 0 1 7.955018 11.727850 810.838989
428 0 1 7.972870 12.088320 811.735962
429 0 1 8.160827 12.576110 812.500977
430 0 1 8.474198 12.953630 813.315002
431 0 1 8.740896 13.171260 814.252014
432 0 1 9.080360 13.005130 815.109009
433 0 1 9.215690 12.844760 816.083008
434 0 1 9.471600 12.776051 817.005005
435 0 1 9.583241 12.701930 817.929993
436 0 1 9.627470 13.003241 818.815979
437 0 1 9.566680 13.238609 819.713013
438 0 1 9.598570 13.329300 820.688965
439 0 1 9.461710 13.128550 821.640015
440 0 1 9.246700 12.942110 822.554016
441 0 1 8.835052 12.771280 823.341980
442 0 1 8.412073 12.600220 824.231995
443 0 1 7.844873 12.617090 824.987000
444 0 1 7.161750 12.792271 825.666992
445 0 1 6.612920 13.208590 826.365967
446 0 1 6.224490 13.451070 827.208008
447 0 1 6.090660 13.722670 828.033997
448 0 1 5.773750 14.031799 828.905029
449 0 1 5.621090 13.914730 829.910034
450 0 1 5.659900 13.568621 830.813965
451 0 1 5.763590 13.299520 831.773987
452 0 1 5.606960 12.947430 832.614014
453 0 1 5.174210 12.849670 833.426025
454 0 1 4.933780 12.686430 834.335022
455 0 1 4.750470 12.159870 835.146973
456 0 1 4.928600 11.512880 835.841003
457 0 1 5.001930 10.765000 836.390015
458 0 1 4.975370 9.905060 836.843994
459 0 1 4.940270 9.046520 837.166016
460 0 1 4.964670 8.169937 837.671997
461 0 1 5.171140 7.346631 838.205017
462 0 1 5.176250 6.449740 838.567017
463 0 1 5.418880 5.541360 838.724976
464 0 1 5.671000 4.650160 839.070007
465 0 1 6.133200 3.857950 839.377014
466 0 1 6.702570 3.148940 839.589966
467 0 1 7.383753 2.498360 839.479980
468 0 1 8.170623 2.133940 839.098999
469 0 1 8.899082 2.245620 838.437988
470 0 1 9.088690 2.605540 837.601990
471 0 1 8.938875 2.971030 836.763000
472 0 1 8.851801 3.325560 835.914001
473 0 1 9.081450 3.374600 834.973022
474 0 1 9.289020 3.480290 834.072021
475 0 1 9.647910 3.800140 833.187012
476 0 1 9.984290 4.246210 832.338013
477 0 1 10.337851 4.590410 831.514038
478 0 1 10.447140 4.870440 830.630981
479 0 1 10.403720 5.277460 829.781982
480 0 1 10.312670 5.612960 828.833008
481 0 1 10.422880 6.209360 828.101990
482 0 1 10.292260 6.713770 827.341003
483 0 1 10.134980 6.973140 826.466980
484 0 1 10.181940 7.240184 825.515015
485 0 1 10.240820 7.486881 824.489014
486 0 1 10.291300 7.982065 823.645020
487 0 1 10.110310 8.304194 822.669006
488 0 1 9.799570 8.256007 821.648010
489 0 1 9.515920 7.858287 820.773987
490 0 1 9.444250 7.343783 820.000977
491 0 1 9.525210 6.886160 819.134033
492 0 1 9.822260 6.281500 818.463013
493 0 1 9.829460 5.746770 817.645020
494 0 1 9.881050 5.581710 816.674988
495 0 1 10.285749 5.463980 815.797974
496 0 1 10.602110 5.235740 814.891968
497 0 1 10.852961 4.937870 813.984009
498 0 1 11.040710 4.397390 813.294983
499 0 1 11.190110 4.057130 812.462036
500 0 1 11.270380 3.610050 811.551025
501 0 1 11.134740 3.221380 810.676025
502 0 1 10.734570 2.950490 809.833984
503 0 1 10.203700 2.518090 809.122009
504 0 1 9.482900 2.609540 808.539001
505 0 1 8.861180 2.797580 807.802002
506 0 1 8.216233 2.894060 807.113037
507 0 1 7.696288 2.898090 806.311035
508 0 1 7.171488 2.863470 805.500000
509 0 1 6.700840 3.177720 804.617004
510 0 1 6.493020 3.383970 803.714966
511 0 1 6.488100 3.480070 802.770020
512 0 1 6.021620 3.521030 801.966980
513 0 1 5.497680 3.548600 801.166016
514 0 1 5.081830 3.959770 800.462036
515 0 1 4.733830 4.343480 799.661987
516 0 1 4.278290 4.769770 798.841980
517 0 1 3.747170 5.013830 797.958008
518 0 1 3.487760 5.077340 797.062012
519 0 1 3.275500 4.944320 796.109009
520 0 1 3.091020 5.010860 795.176025
521 0 1 2.760940 4.913340 794.229980
522 0 1 2.774410 5.135570 793.291016
523 0 1 2.612690 5.575830 792.458008
524 0 1 2.733130 5.869940 791.526978
525 0 1 2.832300 6.252470 790.646973
526 0 1 3.236350 6.455420 789.787964
527 0 1 3.727290 6.339300 789.005981
528 0 1 4.408070 6.207810 788.320007
529 0 1 5.179660 6.054180 787.710999
530 0 1 5.766890 6.048560 786.886963
531 0 1 6.334800 6.256320 786.148010
532 0 1 6.863070 6.683170 785.483032
533 0 1 7.294011 7.158205 784.693970
534 0 1 7.262450 7.636840 783.905029
535 0 1 7.512985 7.892828 782.979980
536 0 1 7.559745 8.321758 782.135986
537 0 1 7.683621 8.836873 781.341003
538 0 1 8.060188 9.459820 780.750977
539 0 1 8.317603 10.133760 780.047974
540 0 1 8.659984 10.687270 779.325989
541 0 1 8.999874 11.068250 778.442017
542 0 1 9.553640 11.314030 777.703003
543 0 1 9.678930 11.552770 776.791016
544 0 1 9.934130 11.588079 775.835999
545 0 1 10.135080 11.521180 774.924988
546 0 1 10.181760 11.400930 773.940979
547 0 1 10.146441 11.185699 773.033020
548 0 1 10.218081 11.000530 772.062012
549 0 1 10.742800 10.690540 771.311035
550 0 1 11.257120 10.485070 770.591003
551 0 1 11.811460 10.386700 769.818970
552 0 1 12.218901 10.082130 768.948975
553 0 1 12.528709 10.071530 768.031006
554 0 1 12.878740 10.131500 767.135986
555 0 1 13.115440 10.223180 766.192993
556 0 1 13.502800 9.994500 765.344971
557 0 1 13.575280 10.184910 764.377014
558 0 1 13.846790 10.170440 763.478027
559 0 1 14.047190 10.373650 762.565002
560 0 1 14.012930 10.559680 761.568970
561 0 1 13.797070 10.752439 760.630981
562 0 1 13.858850 11.086760 759.681030
563 0 1 13.794001 11.185659 758.749023
564 0 1 13.793240 11.210570 757.731995
565 0 1 13.571990 11.270850 756.828003
566 0 1 13.378520 11.251600 755.830017
567 0 1 13.282721 11.408319 754.849976
568 0 1 13.347620 11.215580 753.960022
569 0 1 13.363250 11.187140 753.023987
570 0 1 13.416180 11.045190 752.073975
571 0 1 13.585569 10.633320 751.219971
572 0 1 13.355141 10.251940 750.291992
573 0 1 13.441360 9.872940 749.349976
574 0 1 13.519060 9.477620 748.468994
575 0 1 13.728270 9.203470 747.570007
576 0 1 13.676260 8.938157 746.664001
577 0 1 13.259130 9.027920 745.786987
578 0 1 12.963690 9.148600 744.901978
579 0 1 12.710920 9.247910 744.046021
580 0 1 12.169970 9.601390 743.343018
581 0 1 11.926540 9.782440 742.419983
582 0 1 11.379340 10.021120 741.601990
583 0 1 10.893681 10.273010 740.792969
584 0 1 10.589060 10.615010 739.945984
585 0 1 10.165380 10.902451 739.093018
586 0 1 9.996500 11.105340 738.190979
587 0 1 9.921820 11.363110 737.218994
588 0 1 10.118330 11.239300 736.275024
589 0 1 10.273570 11.099130 735.382019
590 0 1 10.341140 10.917510 734.414978
591 0 1 10.522710 10.830170 733.510986
592 0 1 10.974450 10.838830 732.660034
593 0 1 11.348530 10.950140 731.714966
594 0 1 11.635220 10.756930 730.780029
595 0 1 12.125010 10.516230 729.961975
596 0 1 12.741341 10.421610 729.240967
597 0 1 13.025770 10.026220 728.409607
598 0 1 13.076670 9.608170 727.550171
599 0 1 13.040720 9.187590 726.697632
600 0 1 13.004300 8.820226 725.819275
601 0 1 12.817410 8.492354 724.871094
602 0 1 12.687460 7.986994 724.122498
603 0 1 12.387711 7.630905 723.236572
604 0 1 11.947920 7.520777 722.343872
605 0 1 11.615410 7.538784 721.413696
606 0 1 11.396240 7.885480 720.516113
607 0 1 11.155370 7.952303 719.533508
608 0 1 11.358419 8.159750 718.626099
609 0 1 11.314050 8.550380 717.778809
610 0 1 11.168310 8.722951 716.848999
611 0 1 11.227100 8.853204 715.874390
612 0 1 11.220850 8.989439 714.928589
613 0 1 11.247190 8.806096 713.959412
614 0 1 10.836300 8.649980 713.120972
615 0 1 10.569530 8.558048 712.204285
616 0 1 10.113310 8.531571 711.361511
617 0 1 9.935220 8.585982 710.389771
618 0 1 9.784710 8.959846 709.511230
619 0 1 9.566630 9.280940 708.635010
620 0 1 9.415640 9.436640 707.719910
621 0 1 9.099540 9.705080 706.857666
622 0 1 8.882642 9.633410 705.905518
623 0 1 9.017250 9.782610 704.972717
624 0 1 9.360170 9.863050 704.031982
625 0 1 9.473060 9.997760 703.135620
626 0 1 9.606500 10.165230 702.183228
627 0 1 9.714840 10.307950 701.267395
628 0 1 9.999590 10.255030 700.343506
629 0 1 10.093670 10.001810 699.425476
630 0 1 10.480340 9.792880 698.568176
631 0 1 11.055759 9.614450 697.800415
632 0 1 11.609200 9.291940 697.012390
633 0 1 12.124180 9.074010 696.229980
634 0 1 12.621770 8.763025 695.410706
635 0 1 12.852859 8.397188 694.570801
636 0 1 12.994310 8.157842 693.612427
637 0 1 13.135170 8.080472 692.684998
638 0 1 13.396790 8.026813 691.702087
639 0 1 13.623671 7.980635 690.735779
640 0 1 13.620399 7.999210 689.812195
641 0 1 13.452880 7.976324 688.908875
642 0 1 13.009820 7.565500 688.171997
643 0 1 12.383101 7.222099 687.523071
644 0 1 11.869460 6.682700 686.907288
645 0 1 11.614059 6.051040 686.187500
646 0 1 11.319120 5.437630 685.537903
647 0 1 11.243500 4.692510 684.958801
648 0 1 10.987100 4.200590 684.140015
649 0 1 10.733650 3.947340 683.261597
650 0 1 10.440130 3.820740 682.353699
651 0 1 10.202909 3.885610 681.428894
652 0 1 9.672930 3.986970 680.596191
653 0 1 9.422190 4.188760 679.713318
654 0 1 9.300230 4.260380 678.731323
655 0 1 8.990110 4.304150 677.771973
656 0 1 8.862696 4.437760 676.846191
657 0 1 8.801625 4.546070 675.926392
658 0 1 8.508669 4.410990 675.028015
659 0 1 8.151364 4.230640 674.149109
660 0 1 7.515548 3.895880 673.396729
661 0 1 7.065091 3.767280 672.581726
662 0 1 6.618740 3.288710 671.962097
663 0 1 6.255390 2.730490 671.290100
664 0 1 5.769360 2.233240 670.606628
665 0 1 5.234610 2.099720 669.849426
666 0 1 4.906440 2.330880 668.982727
667 0 1 4.731490 2.487380 668.052795
668 0 1 4.728660 2.787770 667.161072
669 0 1 4.944610 3.052220 666.272400
670 0 1 5.118620 3.505390 665.386902
671 0 1 5.512970 3.656170 664.494080
672 0 1 5.982390 3.854010 663.722107
673 0 1 6.445390 3.989800 662.916626
674 0 1 6.860690 3.958940 662.052490
675 0 1 7.172260 3.704720 661.213989
676 0 1 7.586926 3.552240 660.368896
677 0 1 8.156084 3.568580 659.590698
678 0 1 8.771963 3.469710 658.872070
679 0 1 9.320130 3.356330 658.025879
680 0 1 9.733020 3.534670 657.197815
681 0 1 10.176870 3.579750 656.319702
682 0 1 10.267420 3.637290 655.373901
683 0 1 10.360020 3.490190 654.383728
684 0 1 10.389360 3.310880 653.417297
685 0 1 10.455300 3.560760 652.465820
686 0 1 10.647730 4.103320 651.714783
687 0 1 10.753680 4.350660 650.776672
688 0 1 10.446020 4.842150 650.015076
689 0 1 10.098351 5.300140 649.274719
690 0 1 10.002680 5.683200 648.428589
691 0 1 10.062600 6.015810 647.554321
692 0 1 9.938560 6.155610 646.555176
693 0 1 10.037370 6.450330 645.632202
694 0 1 10.070740 6.798730 644.753296
695 0 1 10.152690 7.059512 643.828918
696 0 1 10.313150 7.063510 642.846497
697 0 1 10.682320 7.127579 641.907410
698 0 1 11.071540 6.924820 641.032471
699 0 1 11.130500 6.651470 640.097717
700 0 1 11.400700 6.240690 639.211121
701 0 1 11.230140 5.960230 638.335815
702 0 1 11.236840 5.617010 637.355896
703 0 1 11.197741 5.479220 636.422180
704 0 1 10.881450 5.183660 635.534302
705 0 1 10.886600 4.896950 634.627563
706 0 1 10.589500 4.701460 633.754517
707 0 1 10.373180 4.353380 632.908203
708 0 1 10.352560 3.954950 632.001892
709 0 1 10.126660 3.768380 631.108704
710 0 1 10.096410 3.647830 630.180176
711 0 1 10.025860 3.355010 629.252563
712 0 1 9.655050 3.218530 628.358337
713 0 1 8.978954 3.186150 627.629944
714 0 1 8.328254 3.039630 626.973145
715 0 1 7.743351 3.107330 626.187927
716 0 1 7.249186 3.129600 625.312622
717 0 1 6.919530 3.429230 624.431030
718 0 1 6.740560 3.505820 623.512268
719 0 1 6.882210 3.691680 622.546509
720 0 1 6.937940 4.067210 621.592285
721 0 1 7.193283 4.462110 620.769897
722 0 1 7.625179 4.653520 619.918030
723 0 1 8.128925 4.757910 619.060303
724 0 1 8.615048 4.784750 618.178772
725 0 1 8.783715 4.597890 617.278687
726 0 1 9.012680 4.690070 616.328369
727 0 1 9.254780 5.095790 615.481323
728 0 1 9.426060 5.356670 614.593872
729 0 1 9.565550 5.622150 613.711609
730 0 1 9.639740 5.741720 612.742920
731 0 1 9.618010 5.702860 611.757202
732 0 1 9.575680 5.726080 610.752991
733 0 1 9.696520 6.095990 609.887085
734 0 1 9.830350 6.487940 609.012573
735 0 1 9.887900 6.979860 608.196594
736 0 1 9.802020 7.523420 607.422607
737 0 1 9.942200 8.051151 606.668884
738 0 1 10.150410 8.405519 605.754028
739 0 1 10.193050 8.682062 604.815002
740 0 1 10.227580 8.969176 603.882385
741 0 1 10.191860 9.192670 602.983582
742 0 1 10.312740 9.025680 602.021484
743 0 1 10.587180 8.469075 601.216919
744 0 1 10.755980 8.065682 600.398682
745 0 1 10.563110 7.546869 599.609985
746 0 1 10.054560 7.163187 598.963013
747 0 1 9.349800 7.128654 598.219116
748 0 1 8.840423 7.169904 597.375671
749 0 1 8.544556 7.154396 596.495972
750 0 1 8.447006 7.206581 595.546326
751 0 1 8.461730 7.611735 594.692993
752 0 1 8.265625 7.888220 593.816223
753 0 1 8.050727 8.413249 593.074097
754 0 1 7.707801 9.219750 592.692871
755 0 1 7.430948 9.878480 591.951111
756 0 1 6.919740 10.240150 591.202393
757 0 1 6.543140 10.299940 590.341309
758 0 1 6.327580 10.279690 589.415710
759 0 1 5.847750 10.201600 588.597107
760 0 1 5.525820 9.716370 587.776001
761 0 1 5.498780 9.482180 586.787903
762 0 1 5.610980 9.404470 585.859192
763 0 1 5.879620 9.333910 584.939026
764 0 1 6.229320 9.415710 584.057922
765 0 1 6.308830 9.509600 583.123474
766 0 1 6.520700 9.846889 582.222107
767 0 1 6.655910 10.218130 581.328796
768 0 1 6.947740 10.361160 580.397522
769 0 1 7.347380 10.638620 579.534668
770 0 1 7.321049 10.942980 578.586609
771 0 1 6.935540 11.324520 577.737000
772 0 1 6.666300 11.382330 576.777588
773 0 1 6.364080 11.245140 575.851196
774 0 1 6.172750 11.017281 574.924683
775 0 1 5.972930 10.911190 573.998718
776 0 1 6.048290 10.751300 573.042908
777 0 1 5.934280 10.442560 572.117615
778 0 1 5.936290 9.895590 571.345276
779 0 1 5.986020 9.409180 570.442627
780 0 1 5.830710 9.072290 569.587219
781 0 1 6.219660 8.985331 568.696106
782 0 1 6.718620 8.945767 567.791870
783 0 1 7.211164 8.956164 566.927673
784 0 1 7.896798 9.256260 566.343384
785 0 1 8.732682 9.362130 565.819519
786 0 1 9.594790 9.441820 565.439575
787 0 1 10.216140 9.655500 564.774475
788 0 1 10.810980 9.990310 564.023315
789 0 1 11.175440 10.463070 563.333130
790 0 1 11.650330 10.862900 562.560974
791 0 1 11.955820 11.330760 561.752319
792 0 1 11.776970 11.448490 560.807983