LAMMPS data file via MDAnalysis

        1000  atoms
        1000  bonds
        1000  angles
           0  dihedrals
           0  impropers

           1  atom types
           1  bond types
           1  angle types
           0  dihedral types
           0  improper types

0.000000 16.000000 xlo xhi
0.000000 16.000000 ylo yhi
0.000000 1257.000000 zlo zhi


Masses

1 1.000000

Atoms

1 0 1 9.852670 4.920850 460.632019
2 0 1 9.787860 5.287920 461.587006
3 0 1 10.031910 5.782670 462.384003
4 0 1 10.006371 6.172730 463.252014
5 0 1 10.245180 6.667930 464.002014
6 0 1 10.208660 7.034181 464.893005
7 0 1 10.175920 7.627826 465.645020
8 0 1 10.074390 8.199376 466.479004
9 0 1 9.947990 8.447650 467.375000
10 0 1 9.713000 8.874801 468.207001
11 0 1 9.245350 9.091040 469.029999
12 0 1 8.568632 9.266220 469.662994
13 0 1 8.000855 9.138690 470.539001
14 0 1 7.527388 9.104680 471.358002
15 0 1 7.043212 8.910748 472.149994
16 0 1 6.597220 8.830348 473.013000
17 0 1 6.415820 8.814379 473.992004
18 0 1 6.337540 8.876835 474.942017
19 0 1 6.128650 9.056170 475.877991
20 0 1 5.929180 9.047070 476.807983
21 0 1 5.593340 8.951947 477.734985
22 0 1 5.117860 8.868814 478.632996
23 0 1 4.789780 9.094320 479.515991
24 0 1 4.497860 9.277580 480.404999
25 0 1 4.199220 9.443490 481.287994
26 0 1 3.566060 9.416010 481.973999
27 0 1 2.988260 9.429240 482.781982
28 0 1 2.552280 9.679850 483.565979
29 0 1 2.112420 9.728559 484.494019
30 0 1 1.726440 9.836770 485.338013
31 0 1 1.478540 10.031919 486.300995
32 0 1 1.526440 9.820820 487.200012
33 0 1 1.489960 9.333840 488.082001
34 0 1 1.698570 8.992363 488.970001
35 0 1 1.826110 8.606715 489.822021
36 0 1 1.966710 8.027422 490.619995
37 0 1 2.040930 7.436988 491.364990
38 0 1 2.216900 6.657230 491.987000
39 0 1 2.407020 6.112930 492.747986
40 0 1 2.435160 5.457200 493.473999
41 0 1 2.680580 4.992510 494.304993
42 0 1 2.898780 4.600920 495.200012
43 0 1 2.926110 4.285460 496.169006
44 0 1 3.075130 4.438710 497.080994
45 0 1 3.582880 4.401360 497.895020
46 0 1 4.207740 4.361190 498.687012
47 0 1 4.624310 4.396020 499.559998
48 0 1 4.777460 4.379840 500.489014
49 0 1 4.655330 4.430730 501.446991
50 0 1 4.485420 4.397660 502.454010
51 0 1 4.049240 4.316970 503.376007
52 0 1 3.545960 4.623550 504.121002
53 0 1 3.126540 4.947350 504.914001
54 0 1 2.790500 5.528430 505.589996
55 0 1 2.268940 5.944620 506.304016
56 0 1 1.989200 6.513700 507.062012
57 0 1 1.769580 6.890230 507.987000
58 0 1 1.541820 7.440335 508.720001
59 0 1 1.594290 8.141876 509.386993
60 0 1 2.029910 8.831545 509.894989
61 0 1 2.626390 9.423380 510.416992
62 0 1 3.143280 10.070110 510.778992
63 0 1 3.704210 10.666270 511.296997
64 0 1 4.444840 10.944810 511.708008
65 0 1 5.012490 11.265300 512.377991
66 0 1 5.510330 11.503799 513.242981
67 0 1 5.776720 11.781210 514.181030
68 0 1 6.075190 11.953160 515.078979
69 0 1 6.886150 12.214920 515.609009
70 0 1 7.529758 12.171400 516.346985
71 0 1 8.048840 12.282499 517.137024
72 0 1 8.361238 12.514561 518.018005
73 0 1 8.686293 12.675290 518.942017
74 0 1 8.950414 13.028680 519.794006
75 0 1 9.206760 13.207621 520.736023
76 0 1 9.322840 13.125890 521.708984
77 0 1 9.328060 13.012711 522.645996
78 0 1 9.381960 13.141630 523.572998
79 0 1 9.128780 13.282579 524.476013
80 0 1 8.799160 13.042160 525.380005
81 0 1 8.746058 12.869680 526.341003
82 0 1 8.444259 12.629300 527.286011
83 0 1 7.821312 12.592800 528.062988
84 0 1 7.374303 12.492900 528.901978
85 0 1 6.936200 12.341330 529.708923
86 0 1 6.551840 12.236520 530.592773
87 0 1 6.351700 12.423580 531.502319
88 0 1 6.004920 12.725679 532.279480
89 0 1 5.508360 12.883360 533.080017
90 0 1 5.112940 12.700380 533.909485
91 0 1 4.821960 12.503850 534.868408
92 0 1 4.489440 12.320140 535.841003
93 0 1 4.401440 12.050030 536.702698
94 0 1 4.432420 11.808780 537.595703
95 0 1 4.211010 11.458720 538.502380
96 0 1 4.237200 11.300529 539.439087
97 0 1 4.105400 10.885430 540.320984
98 0 1 4.177680 10.457541 541.209717
99 0 1 3.942930 9.998790 542.064575
100 0 1 3.631500 9.858680 542.984314
101 0 1 3.521120 9.796190 543.933105
102 0 1 3.507160 9.823150 544.992676
103 0 1 3.603700 9.622610 545.934692
104 0 1 4.000230 9.462980 546.831909
105 0 1 4.384780 9.327980 547.700317
106 0 1 4.877460 9.503270 548.488403
107 0 1 5.157750 9.341380 549.366089
108 0 1 5.418470 8.945344 550.236572
109 0 1 5.841560 8.779080 551.112305
110 0 1 6.148660 8.636266 552.054321
111 0 1 6.498040 8.518399 552.926880
112 0 1 6.752920 8.429420 553.820923
113 0 1 7.269773 8.172368 554.663391
114 0 1 7.418597 7.793509 555.578491
115 0 1 7.872574 7.574018 556.356506
116 0 1 8.146995 7.297050 557.202515
117 0 1 8.380214 6.977470 558.077515
118 0 1 8.625479 6.599300 558.914307
119 0 1 8.998715 6.101430 559.682495
120 0 1 9.434650 5.424300 560.304077
121 0 1 9.852070 4.776120 560.961121
122 0 1 10.110120 4.312930 561.800720
123 0 1 10.191250 3.800760 562.676514
124 0 1 10.163361 3.531120 563.627075
125 0 1 10.400170 3.216560 564.544006
126 0 1 10.495160 3.026870 565.497681
127 0 1 10.754120 2.715270 566.358826
128 0 1 10.778530 2.588170 567.306580
129 0 1 11.010690 2.632300 568.245789
130 0 1 11.201930 2.709450 569.245911
131 0 1 11.267780 2.705650 570.202271
132 0 1 11.295180 2.867240 571.123779
133 0 1 11.140940 2.772070 572.023315
134 0 1 11.107030 2.787030 573.024292
135 0 1 11.006410 3.180530 573.846375
136 0 1 11.156440 3.545290 574.686890
137 0 1 11.628270 4.039090 575.374512
138 0 1 12.005830 4.523640 576.134827
139 0 1 11.974220 5.048710 576.916382
140 0 1 11.818300 5.710880 577.553284
141 0 1 11.895440 6.199690 578.451111
142 0 1 11.730470 6.630760 579.307190
143 0 1 11.454050 7.276098 579.903381
144 0 1 10.958220 7.837687 580.547180
145 0 1 10.586250 8.490605 581.096497
146 0 1 10.466090 9.148310 581.835815
147 0 1 10.179930 9.786520 582.606018
148 0 1 9.771790 10.284000 583.363220
149 0 1 9.288190 10.817070 584.061584
150 0 1 9.012770 11.404181 584.785217
151 0 1 8.563857 11.754780 585.576721
152 0 1 8.278003 11.966480 586.463989
153 0 1 7.975821 11.774230 587.379822
154 0 1 7.560119 11.818340 588.279785
155 0 1 7.441043 11.871950 589.306885
156 0 1 6.953620 11.739250 590.144592
157 0 1 6.633440 11.801310 591.046204
158 0 1 6.118660 11.761790 591.941223
159 0 1 5.626810 11.596080 592.675720
160 0 1 5.044490 11.789280 593.440125
161 0 1 4.456350 11.593980 594.138672
162 0 1 3.900810 11.316960 594.877686
163 0 1 3.660590 11.159679 595.805603
164 0 1 3.275840 10.928480 596.640015
165 0 1 3.190440 10.344049 597.417480
166 0 1 3.016150 10.076839 598.327026
167 0 1 2.946640 9.602060 599.193604
168 0 1 2.979450 9.071150 600.056274
169 0 1 3.035400 8.596521 600.904175
170 0 1 3.323470 8.407180 601.801392
171 0 1 3.665150 8.085108 602.671021
172 0 1 4.206740 7.750520 603.305908
173 0 1 4.662000 7.440334 604.099792
174 0 1 5.167490 7.433923 604.843079
175 0 1 5.579420 7.396745 605.729187
176 0 1 6.041490 7.242519 606.561523
177 0 1 6.606430 7.300336 607.297607
178 0 1 7.042788 7.203951 608.105896
179 0 1 7.456123 7.023306 609.010193
180 0 1 7.867324 7.208642 609.916321
181 0 1 7.988098 7.139779 610.842224
182 0 1 8.158485 7.085078 611.763428
183 0 1 7.909280 6.969620 612.704407
184 0 1 7.451739 6.652270 613.504395
185 0 1 7.145209 6.255610 614.333679
186 0 1 7.130316 6.077960 615.331726
187 0 1 7.292176 6.021950 616.313721
188 0 1 7.186492 6.138430 617.237183
189 0 1 7.292519 6.419360 618.190002
190 0 1 7.559767 6.791560 618.958679
191 0 1 7.645913 7.033633 619.927551
192 0 1 7.559326 7.255432 620.871216
193 0 1 7.371885 7.400276 621.787231
194 0 1 7.212912 7.410901 622.762146
195 0 1 6.988420 7.494113 623.676575
196 0 1 6.955800 7.613956 624.624268
197 0 1 7.154317 7.575784 625.561096
198 0 1 6.838430 7.622956 626.452026
199 0 1 6.811480 7.332696 627.401550
200 0 1 6.517260 7.392852 628.279297
201 0 1 6.153250 7.390758 629.173340
202 0 1 5.618180 7.479863 629.991333
203 0 1 5.232500 7.707321 630.950500
204 0 1 4.862510 7.962707 631.797119
205 0 1 4.405040 7.899765 632.603271
206 0 1 3.770340 8.003743 633.320374
207 0 1 3.397900 8.118734 634.215942
208 0 1 3.305030 7.899185 635.105469
209 0 1 2.985860 7.905198 636.081177
210 0 1 2.678700 8.129275 636.972229
211 0 1 2.286320 8.273503 637.798889
212 0 1 1.811480 8.348274 638.675720
213 0 1 1.750050 8.505588 639.622314
214 0 1 1.876340 8.522875 640.609192
215 0 1 2.214880 8.829775 641.452515
216 0 1 2.312830 9.101800 642.418884
217 0 1 2.206230 9.164800 643.462891
218 0 1 2.345150 8.841194 644.282227
219 0 1 2.698300 8.323319 645.030212
220 0 1 3.181050 8.064306 645.794800
221 0 1 3.651290 7.606763 646.467529
222 0 1 3.998940 7.294984 647.299072
223 0 1 4.331020 6.872450 648.100525
224 0 1 4.431280 6.454180 648.946411
225 0 1 4.714350 6.103700 649.904297
226 0 1 4.928460 6.056030 650.845581
227 0 1 5.136700 6.166290 651.834717
228 0 1 5.555060 6.546150 652.607727
229 0 1 6.132830 7.039998 653.269104
230 0 1 6.804200 7.394451 653.893677
231 0 1 7.399121 7.912605 654.501831
232 0 1 7.802482 8.232898 655.302429
233 0 1 8.216609 8.638866 656.064819
234 0 1 8.133077 9.054920 656.936707
235 0 1 7.892924 9.351200 657.783081
236 0 1 7.632593 9.659730 658.671692
237 0 1 7.545111 9.776850 659.590088
238 0 1 7.733790 10.161830 660.487793
239 0 1 7.723371 10.580720 661.372681
240 0 1 7.627435 10.887220 662.264893
241 0 1 7.232401 11.008710 663.196472
242 0 1 6.977690 11.188260 664.103394
243 0 1 6.810530 11.239930 665.026123
244 0 1 6.631600 11.282949 665.968201
245 0 1 6.570390 11.743660 666.836182
246 0 1 6.617660 12.290890 667.658508
247 0 1 6.750180 12.493940 668.594116
248 0 1 6.864440 12.511271 669.535583
249 0 1 7.031887 12.441259 670.545532
250 0 1 7.029520 12.505740 671.467529
251 0 1 6.929510 12.747540 672.436096
252 0 1 6.915200 13.036119 673.368774
253 0 1 6.753710 13.421150 674.253723
254 0 1 6.424620 13.663270 675.094116
255 0 1 5.726100 13.689011 675.738098
256 0 1 5.225900 13.471720 676.527893
257 0 1 5.339480 13.156740 677.461182
258 0 1 5.601280 12.960310 678.470703
259 0 1 5.857230 12.622920 679.286987
260 0 1 6.143360 12.283740 680.109985
261 0 1 6.471120 11.880500 680.922974
262 0 1 6.789980 11.302220 681.671875
263 0 1 7.101810 10.810420 682.491211
264 0 1 7.523823 10.258780 683.304688
265 0 1 7.705374 10.092421 684.240906
266 0 1 7.836185 9.833860 685.135315
267 0 1 8.055916 9.483500 685.998718
268 0 1 7.929908 9.118000 686.902283
269 0 1 7.834395 8.828328 687.841919
270 0 1 7.894431 8.747301 688.760620
271 0 1 8.196765 8.769878 689.650696
272 0 1 8.400182 8.519055 690.562805
273 0 1 8.598978 8.255969 691.436768
274 0 1 8.574025 8.098392 692.415588
275 0 1 8.392751 8.293086 693.318787
276 0 1 8.147619 8.449379 694.249207
277 0 1 8.276226 8.807507 695.114807
278 0 1 8.743176 9.103340 695.960571
279 0 1 9.219590 9.161580 696.828796
280 0 1 9.418090 8.923958 697.707397
281 0 1 9.625240 8.754624 698.635010
282 0 1 9.769330 8.486459 699.565308
283 0 1 10.009490 8.291407 700.437195
284 0 1 10.344490 8.010401 701.243591
285 0 1 10.592330 7.640017 702.109009
286 0 1 10.608410 7.524344 703.118591
287 0 1 10.604120 7.460086 704.094482
288 0 1 10.354490 7.609156 705.008789
289 0 1 10.192030 7.907229 705.936584
290 0 1 10.237250 8.311015 706.822815
291 0 1 10.226970 8.411659 707.767700
292 0 1 10.568060 8.757607 708.681091
293 0 1 10.948490 8.806573 709.588318
294 0 1 11.349480 8.714522 710.458923
295 0 1 11.716170 8.434646 711.302795
296 0 1 12.046600 8.433384 712.298096
297 0 1 12.022141 8.444527 713.343323
298 0 1 12.003620 8.021601 714.226013
299 0 1 11.764960 7.850615 715.179810
300 0 1 11.286040 7.717172 716.000305
301 0 1 10.912790 7.954728 716.862671
302 0 1 10.671860 7.920870 717.814575
303 0 1 10.524440 7.979232 718.801514
304 0 1 10.422270 8.426008 719.616699
305 0 1 10.449770 8.869455 720.544617
306 0 1 10.630090 9.426320 721.252380
307 0 1 10.567460 10.106310 721.993530
308 0 1 10.592060 10.532920 722.872620
309 0 1 10.573190 10.718430 723.832581
310 0 1 10.402650 10.621310 724.782227
311 0 1 10.183240 10.802299 725.699524
312 0 1 9.980530 11.085011 726.617310
313 0 1 9.843100 11.604150 727.426392
314 0 1 9.759100 12.144110 728.169067
315 0 1 9.380960 12.703421 728.906006
316 0 1 9.169760 13.195860 729.669006
317 0 1 8.988485 13.500460 730.583984
318 0 1 9.214600 13.745670 731.504028
319 0 1 9.420500 13.672359 732.518982
320 0 1 9.451740 13.633730 733.468994
321 0 1 9.650670 13.489450 734.414978
322 0 1 9.693860 13.409760 735.377991
323 0 1 9.784270 13.574760 736.275024
324 0 1 9.913100 13.581030 737.195984
325 0 1 9.940420 13.705140 738.166992
326 0 1 10.081240 13.975550 739.088989
327 0 1 10.288860 14.165850 739.986023
328 0 1 10.558530 14.368800 740.898987
329 0 1 10.684150 14.314240 741.882019
330 0 1 10.547180 14.058630 742.763977
331 0 1 10.111850 13.978530 743.594971
332 0 1 9.271020 14.023880 744.231995
333 0 1 8.477018 13.631830 744.640015
334 0 1 7.650499 13.412100 745.041016
335 0 1 6.880370 13.086650 745.568970
336 0 1 6.176050 12.635611 746.067017
337 0 1 5.622860 12.187290 746.723022
338 0 1 5.361160 11.722160 747.542969
339 0 1 5.051990 11.465670 748.344971
340 0 1 4.751240 11.377010 749.218018
341 0 1 4.589040 10.930250 750.091980
342 0 1 4.509480 10.299150 750.864990
343 0 1 4.414530 10.093660 751.799988
344 0 1 4.180670 9.879950 752.710999
345 0 1 3.788980 9.726670 753.521973
346 0 1 3.527300 9.662290 754.479980
347 0 1 3.377020 9.621980 755.466980
348 0 1 2.991360 9.623060 756.385986
349 0 1 2.620960 9.695570 757.266968
350 0 1 2.804380 9.511640 758.240967
351 0 1 2.657740 9.432630 759.179993
352 0 1 2.585160 9.328510 760.156982
353 0 1 2.593300 9.551090 761.067017
354 0 1 2.723000 9.943580 761.924011
355 0 1 2.912190 10.422359 762.749023
356 0 1 2.901480 10.958080 763.549011
357 0 1 3.134130 11.434570 764.379028
358 0 1 3.207320 11.703590 765.333984
359 0 1 3.009400 11.843719 766.304016
360 0 1 2.869420 11.667920 767.226013
361 0 1 2.850560 11.542320 768.213989
362 0 1 2.903310 11.589920 769.153992
363 0 1 3.294700 11.380710 770.062988
364 0 1 3.391500 11.043720 770.960022
365 0 1 3.687670 10.736691 771.806030
366 0 1 4.022440 10.155621 772.463989
367 0 1 4.249980 9.604300 773.235962
368 0 1 4.211970 8.907953 773.988037
369 0 1 3.819700 8.151445 774.505981
370 0 1 3.497180 7.426670 775.099976
371 0 1 3.331250 7.003374 775.921997
372 0 1 3.207630 6.792170 776.867981
373 0 1 3.500140 6.281130 777.693970
374 0 1 3.665930 6.066760 778.591980
375 0 1 3.781900 5.873750 779.523987
376 0 1 3.752680 5.967870 780.502991
377 0 1 3.786940 5.865420 781.442017
378 0 1 3.772830 5.648440 782.419983
379 0 1 3.652280 5.815360 783.348022
380 0 1 3.628040 5.931280 784.276978
381 0 1 3.555030 6.187560 785.153015
382 0 1 3.729080 6.481000 786.033020
383 0 1 3.748620 7.101233 786.837036
384 0 1 3.735820 7.834804 787.473022
385 0 1 3.898000 8.517087 788.070007
386 0 1 4.009630 9.247690 788.692993
387 0 1 4.075500 9.613490 789.554993
388 0 1 4.361450 9.801420 790.447021
389 0 1 4.822440 10.091400 791.226013
390 0 1 5.407740 10.273720 791.917969
391 0 1 5.931460 10.461820 792.627991
392 0 1 6.153620 10.954530 793.398010
393 0 1 6.432000 11.011130 794.307983
394 0 1 6.551710 10.818760 795.265991
395 0 1 6.568520 10.695100 796.242004
396 0 1 6.578380 10.318200 797.101013
397 0 1 6.775340 9.978790 797.971008
398 0 1 7.357157 9.707790 798.705017
399 0 1 7.990236 9.533930 799.474976
400 0 1 8.410259 9.205830 800.281006
401 0 1 8.892368 8.973799 801.124023
402 0 1 9.322470 8.714985 801.919983
403 0 1 9.801710 8.201268 802.677002
404 0 1 10.092930 7.503462 803.257996
405 0 1 10.278210 6.861820 803.901978
406 0 1 10.490910 6.534960 804.763000
407 0 1 10.561220 6.392410 805.742981
408 0 1 10.707850 6.365520 806.656006
409 0 1 11.109990 6.252620 807.502014
410 0 1 11.633790 6.454530 808.307983
411 0 1 11.958760 6.770010 809.188965
412 0 1 12.366620 6.918840 809.995972
413 0 1 12.845860 7.103458 810.838013
414 0 1 13.395260 7.387374 811.585022
415 0 1 13.744101 7.751208 812.422974
416 0 1 13.733610 7.893742 813.390991
417 0 1 13.645121 7.936211 814.377991
418 0 1 13.739719 8.113979 815.365967
419 0 1 13.428730 8.268619 816.287964
420 0 1 13.249331 8.471880 817.210022
421 0 1 12.976789 8.465006 818.139038
422 0 1 12.775050 8.384958 819.059998
423 0 1 12.505630 8.253392 820.015015
424 0 1 12.615601 8.578965 820.882019
425 0 1 12.570750 9.241130 821.609985
426 0 1 12.508659 9.675470 822.484009
427 0 1 12.438089 10.111330 823.327026
428 0 1 12.247910 10.187890 824.265015
429 0 1 11.792180 9.750450 824.960022
430 0 1 11.233720 9.363010 825.679016
431 0 1 10.852060 8.774333 826.351013
432 0 1 10.571590 8.376699 827.221008
433 0 1 10.387050 7.996806 828.075989
434 0 1 10.186790 7.596996 828.912964
435 0 1 10.017590 6.882930 829.612000
436 0 1 10.089510 6.216830 830.349976
437 0 1 10.120660 5.484660 830.966003
438 0 1 10.176950 4.752500 831.580017
439 0 1 10.061831 4.135120 832.281006
440 0 1 9.820440 3.647930 833.106995
441 0 1 9.772380 3.143000 833.911987
442 0 1 9.734500 2.613700 834.731995
443 0 1 9.460720 2.051370 835.463989
444 0 1 9.022670 1.976050 836.325989
445 0 1 8.877610 1.859100 837.278992
446 0 1 8.591728 1.651180 838.151978
447 0 1 7.975294 1.445190 838.867004
448 0 1 7.239861 1.908200 839.291992
449 0 1 6.706770 2.652290 839.544006
450 0 1 6.165790 3.426780 839.749023
451 0 1 5.429850 4.129800 839.432983
452 0 1 4.650730 4.523020 838.864014
453 0 1 3.908660 4.932940 838.453003
454 0 1 3.367700 5.191430 837.690979
455 0 1 2.883630 5.281240 836.789001
456 0 1 2.545590 5.324020 835.890015
457 0 1 2.631330 5.564230 834.927002
458 0 1 2.827120 5.752490 834.057983
459 0 1 3.199660 6.110040 833.158020
460 0 1 3.333270 6.452800 832.255981
461 0 1 3.180540 6.694820 831.369019
462 0 1 2.973450 7.059438 830.510010
463 0 1 2.896290 7.666620 829.823975
464 0 1 2.796990 8.482106 829.231018
465 0 1 2.870630 9.257560 828.653015
466 0 1 2.669580 9.892110 827.875000
467 0 1 2.523830 10.609650 827.270996
468 0 1 2.358920 11.222750 826.578979
469 0 1 2.491660 11.603740 825.749023
470 0 1 2.718280 12.046310 824.914978
471 0 1 3.145420 12.160410 824.065979
472 0 1 3.599910 12.307671 823.254028
473 0 1 4.240870 12.411110 822.445984
474 0 1 4.795970 12.595230 821.679016
475 0 1 5.287880 12.787540 820.931030
476 0 1 5.635040 12.909070 820.044983
477 0 1 6.029560 12.839090 819.132019
478 0 1 6.055760 12.796160 818.171021
479 0 1 6.216020 12.915710 817.219971
480 0 1 6.672500 12.932711 816.375000
481 0 1 7.119687 13.040440 815.554016
482 0 1 7.138131 13.125780 814.541016
483 0 1 7.096912 13.147830 813.552002
484 0 1 6.975270 13.371349 812.606995
485 0 1 7.039890 13.588460 811.636963
486 0 1 7.184612 13.956210 810.787964
487 0 1 7.064614 14.163260 809.851990
488 0 1 7.154964 14.464220 808.958008
489 0 1 7.211131 14.691771 808.010986
490 0 1 7.471643 14.677790 807.067017
491 0 1 7.846109 14.663270 806.223022
492 0 1 8.235544 14.723550 805.333008
493 0 1 8.466822 14.565030 804.384033
494 0 1 8.705083 14.306160 803.436035
495 0 1 8.890476 14.069880 802.505005
496 0 1 9.109640 13.517370 801.742004
497 0 1 9.235650 13.086580 800.901001
498 0 1 9.536040 12.893400 800.018005
499 0 1 9.394430 12.935500 799.080994
500 0 1 9.162130 13.155769 798.117004
501 0 1 8.886755 13.445800 797.195007
502 0 1 8.883899 13.470079 796.247009
503 0 1 8.726082 13.409420 795.330994
504 0 1 8.577586 13.428010 794.414001
505 0 1 8.685448 13.451740 793.458008
506 0 1 8.803079 13.659719 792.509033
507 0 1 8.896216 13.969450 791.591003
508 0 1 9.203020 14.360050 790.738037
509 0 1 9.178910 14.457590 789.719971
510 0 1 9.254420 14.248950 788.740967
511 0 1 9.057660 14.144440 787.796997
512 0 1 8.881442 13.843170 786.886963
513 0 1 8.718880 13.599560 785.992981
514 0 1 8.719731 13.135740 785.140991
515 0 1 8.799946 12.775670 784.231018
516 0 1 8.875594 12.651939 783.307007
517 0 1 9.000760 12.548660 782.307983
518 0 1 9.360070 12.077150 781.531006
519 0 1 9.301929 11.607570 780.632019
520 0 1 9.104370 11.656530 779.710999
521 0 1 9.041470 11.531090 778.728027
522 0 1 9.126490 11.501180 777.776001
523 0 1 9.021900 11.679880 776.802979
524 0 1 8.713172 11.556260 775.947021
525 0 1 8.435710 11.377310 775.005981
526 0 1 8.133130 11.379630 774.098022
527 0 1 8.012850 11.336451 773.082031
528 0 1 8.123883 11.322969 772.156006
529 0 1 8.109347 11.153521 771.202026
530 0 1 8.252700 10.997030 770.212036
531 0 1 8.533619 10.659940 769.370972
532 0 1 8.774617 10.166510 768.546997
533 0 1 8.914878 9.553450 767.815002
534 0 1 9.129200 8.812050 767.176025
535 0 1 9.212870 8.039661 766.632019
536 0 1 9.623910 7.282132 766.158020
537 0 1 10.044490 6.654550 765.515991
538 0 1 10.481040 5.853900 765.067017
539 0 1 11.005720 5.411930 764.403015
540 0 1 11.622110 4.930050 763.766968
541 0 1 12.104919 4.238520 763.242981
542 0 1 12.652520 3.976230 762.348999
543 0 1 13.187290 3.816710 761.523010
544 0 1 13.462400 3.942430 760.537964
545 0 1 13.727650 4.140060 759.520996
546 0 1 13.640409 4.325070 758.620972
547 0 1 13.500790 4.736330 757.721008
548 0 1 13.126181 4.982360 756.839966
549 0 1 12.815400 4.896660 755.922974
550 0 1 12.693530 4.699880 754.971985
551 0 1 12.492880 4.171710 754.078003
552 0 1 12.372620 4.073630 753.189026
553 0 1 12.074910 3.891960 752.315979
554 0 1 11.609770 3.816160 751.481995
555 0 1 11.415730 4.045760 750.539001
556 0 1 11.313690 4.269940 749.604004
557 0 1 11.295950 4.920430 748.854004
558 0 1 10.877090 5.457790 748.200989
559 0 1 10.579450 6.130030 747.554993
560 0 1 10.441570 6.917900 747.009033
561 0 1 10.590900 7.841400 746.781006
562 0 1 10.793130 8.642814 746.185974
563 0 1 10.726570 9.358420 745.538025
564 0 1 10.668190 10.108530 744.929993
565 0 1 10.617050 10.996510 744.544983
566 0 1 10.586840 11.893230 744.065002
567 0 1 10.534610 12.594910 743.359009
568 0 1 10.228260 12.768520 742.426025
569 0 1 9.919340 13.026159 741.547974
570 0 1 9.709660 12.943090 740.619019
571 0 1 9.527140 12.876730 739.646973
572 0 1 9.059120 12.856200 738.796021
573 0 1 8.842618 12.898220 737.846008
574 0 1 8.801532 12.593220 736.872009
575 0 1 8.627420 12.264970 736.026978
576 0 1 8.659329 11.893700 735.083984
577 0 1 8.586359 11.566170 734.148987
578 0 1 8.349770 11.167490 733.322021
579 0 1 8.216426 10.724150 732.479004
580 0 1 8.074906 10.137140 731.692017
581 0 1 7.946206 9.857170 730.786987
582 0 1 7.792737 9.792100 729.846008
583 0 1 7.763863 9.811470 728.859985
584 0 1 7.829804 9.748730 727.862305
585 0 1 7.695608 9.482740 726.974976
586 0 1 7.664622 9.359440 726.043274
587 0 1 7.355651 8.884163 725.204224
588 0 1 7.220228 8.367956 724.385498
589 0 1 7.122698 7.871983 723.550598
590 0 1 7.325106 7.517858 722.667725
591 0 1 7.412646 7.085489 721.793579
592 0 1 7.423730 6.562270 720.857666
593 0 1 7.221467 6.201100 719.949097
594 0 1 7.286556 5.890170 718.996521
595 0 1 7.160503 5.675550 718.045166
596 0 1 7.086690 5.401010 717.116577
597 0 1 6.960410 5.040710 716.196411
598 0 1 6.570270 5.102590 715.332703
599 0 1 6.321170 5.149730 714.460388
600 0 1 6.114810 5.385310 713.524109
601 0 1 5.616750 5.459480 712.634705
602 0 1 5.442270 5.640920 711.731995
603 0 1 5.225360 5.842420 710.774475
604 0 1 5.104770 5.985920 709.826111
605 0 1 5.051130 5.976850 708.888672
606 0 1 5.128320 5.900870 707.904785
607 0 1 5.228740 5.973770 706.982605
608 0 1 5.395260 5.930750 706.055603
609 0 1 5.512750 5.960410 705.123291
610 0 1 5.530270 5.993290 704.150024
611 0 1 5.529500 6.253550 703.240112
612 0 1 5.316580 6.514810 702.346985
613 0 1 5.197150 6.666300 701.419800
614 0 1 5.401720 6.573040 700.495789
615 0 1 5.640230 6.499860 699.585388
616 0 1 5.671600 6.535380 698.593079
617 0 1 5.549120 6.573130 697.664612
618 0 1 5.352950 6.672190 696.741394
619 0 1 5.575480 6.652880 695.824280
620 0 1 5.766620 6.866730 694.821411
621 0 1 5.893450 6.974160 693.883789
622 0 1 6.198240 6.970740 692.963684
623 0 1 6.324370 7.368590 692.069824
624 0 1 6.072020 7.448317 691.104919
625 0 1 5.969840 7.381222 690.129272
626 0 1 5.942380 7.491190 689.122681
627 0 1 6.019700 7.591192 688.157898
628 0 1 6.273240 7.622694 687.195312
629 0 1 6.894640 7.531115 686.448425
630 0 1 7.265798 7.423964 685.589111
631 0 1 7.647944 7.356747 684.693604
632 0 1 7.932485 7.291123 683.756104
633 0 1 8.187596 7.444371 682.762573
634 0 1 8.452568 7.220377 681.873413
635 0 1 8.664566 6.699780 681.126831
636 0 1 8.919690 6.310840 680.290894
637 0 1 9.081190 5.847890 679.429077
638 0 1 9.163980 5.620450 678.515991
639 0 1 9.414351 5.482020 677.597290
640 0 1 9.702650 5.318930 676.720398
641 0 1 10.028490 4.962760 675.890808
642 0 1 10.421780 4.521190 675.133728
643 0 1 10.996490 4.406930 674.370911
644 0 1 11.397060 4.303450 673.461792
645 0 1 11.809930 4.101730 672.668884
646 0 1 12.289360 3.940090 671.879395
647 0 1 12.481560 4.019570 670.920227
648 0 1 12.484350 4.020090 669.941284
649 0 1 12.408720 4.016560 668.990906
650 0 1 12.385930 4.192560 668.070007
651 0 1 12.582809 4.588260 667.126526
652 0 1 12.419900 4.750390 666.188599
653 0 1 11.961100 5.040890 665.348816
654 0 1 11.703700 5.542910 664.515320
655 0 1 11.338720 5.825380 663.708191
656 0 1 10.880540 6.175450 662.994202
657 0 1 10.283230 6.536590 662.321106
658 0 1 9.888500 6.832290 661.549500
659 0 1 9.172140 7.214859 660.966125
660 0 1 8.389468 7.525240 660.492371
661 0 1 7.701175 7.798500 659.874695
662 0 1 6.986140 8.119856 659.333801
663 0 1 6.340600 8.241556 658.588989
664 0 1 5.699630 8.358342 657.868286
665 0 1 5.160980 8.278644 657.074280
666 0 1 4.786210 8.304271 656.186401
667 0 1 4.864540 8.396607 655.191284
668 0 1 5.168710 8.469156 654.249329
669 0 1 5.142880 8.666172 653.321106
670 0 1 5.423280 9.045620 652.462891
671 0 1 5.922980 9.332130 651.719299
672 0 1 6.482400 9.820580 651.072876
673 0 1 6.981840 10.209270 650.328308
674 0 1 7.283562 10.602890 649.541504
675 0 1 7.753673 10.948339 648.749084
676 0 1 8.236911 11.141140 647.903381
677 0 1 8.536881 10.948820 646.966187
678 0 1 8.917057 10.743900 646.101929
679 0 1 9.126860 10.184800 645.292969
680 0 1 9.563080 9.736970 644.469788
681 0 1 9.963150 9.666410 643.618286
682 0 1 10.158120 9.354990 642.729309
683 0 1 10.245430 8.655669 642.022400
684 0 1 10.239810 7.950352 641.355103
685 0 1 10.302050 7.157045 640.870483
686 0 1 10.438780 6.309950 640.387024
687 0 1 10.579330 5.601230 639.771423
688 0 1 10.882760 5.148600 638.985229
689 0 1 11.175250 4.727430 638.159180
690 0 1 11.439210 4.783980 637.230408
691 0 1 11.440490 5.081510 636.263733
692 0 1 11.349410 5.124810 635.297607
693 0 1 11.424410 5.536380 634.382324
694 0 1 11.691450 6.166040 633.723755
695 0 1 11.976220 6.818310 633.085938
696 0 1 12.246170 7.458561 632.437927
697 0 1 12.395660 8.116505 631.702454
698 0 1 12.243430 8.523367 630.882568
699 0 1 11.843260 8.834480 630.107300
700 0 1 11.396800 9.263940 629.370667
701 0 1 10.957000 9.560330 628.562073
702 0 1 10.700430 10.091311 627.802490
703 0 1 10.064350 10.416130 627.148071
704 0 1 9.570890 10.727961 626.371216
705 0 1 9.190590 10.773251 625.433472
706 0 1 8.845167 11.010680 624.601440
707 0 1 8.588415 11.038250 623.684082
708 0 1 8.215055 11.320960 622.854675
709 0 1 7.864666 11.574750 622.043762
710 0 1 7.432243 11.841150 621.203125
711 0 1 7.117891 11.947980 620.317871
712 0 1 7.221019 11.927999 619.360535
713 0 1 7.383885 11.880280 618.406982
714 0 1 7.710333 11.994770 617.473083
715 0 1 8.012249 12.335939 616.596497
716 0 1 8.349381 12.663401 615.745422
717 0 1 8.582833 13.102320 614.927124
718 0 1 8.750251 13.641930 614.155273
719 0 1 9.299950 13.943991 613.386230
720 0 1 9.943940 14.252911 612.594788
721 0 1 10.298110 14.356510 611.706116
722 0 1 10.913870 14.234760 610.986023
723 0 1 11.185061 13.791800 610.218506
724 0 1 11.328620 13.469601 609.315613
725 0 1 11.427660 13.096870 608.375183
726 0 1 11.336890 12.883881 607.455994
727 0 1 11.368910 12.490990 606.553223
728 0 1 11.604880 12.023149 605.743530
729 0 1 12.010030 11.486310 605.001526
730 0 1 12.164280 10.943140 604.125977
731 0 1 12.599160 10.580520 603.346619
732 0 1 12.891600 10.546560 602.466431
733 0 1 12.755470 10.724820 601.531677
734 0 1 12.675381 10.799290 600.556030
735 0 1 12.761000 11.055680 599.655273
736 0 1 12.755130 11.109280 598.640869
737 0 1 12.482059 11.012690 597.656494
738 0 1 12.162100 10.819810 596.752686
739 0 1 11.882060 10.766060 595.809387
740 0 1 11.727710 10.915110 594.849304
741 0 1 11.509120 11.346860 593.980286
742 0 1 11.157579 11.862190 593.217896
743 0 1 10.909760 12.387510 592.486328
744 0 1 10.243000 12.920031 591.951294
745 0 1 9.584450 13.200420 591.298889
746 0 1 8.916382 13.084660 590.586914
747 0 1 8.322572 13.038420 589.848816
748 0 1 7.777608 13.255130 589.019775
749 0 1 7.354020 13.035280 588.175171
750 0 1 7.133393 12.530260 587.400818
751 0 1 6.978320 12.198580 586.505310
752 0 1 7.267542 12.191860 585.523499
753 0 1 7.445846 12.188070 584.596375
754 0 1 7.796030 11.977580 583.703613
755 0 1 7.781615 12.012180 582.758484
756 0 1 7.657010 12.069960 581.798706
757 0 1 7.416493 12.041220 580.806885
758 0 1 7.440452 12.270700 579.875427
759 0 1 7.464136 12.579559 578.981812
760 0 1 7.811587 12.780149 578.083130
761 0 1 8.233900 12.968130 577.266907
762 0 1 8.703553 13.102039 576.478577
763 0 1 9.354860 13.313840 575.849792
764 0 1 9.700200 13.198940 574.970215
765 0 1 9.852180 12.900391 574.059326
766 0 1 9.886950 12.578030 573.050720
767 0 1 9.747710 12.111210 572.178711
768 0 1 9.833530 11.833941 571.226501
769 0 1 10.067640 11.351200 570.469971
770 0 1 10.478370 11.004280 569.612000
771 0 1 10.937740 10.780140 568.837402
772 0 1 11.302180 10.672760 567.939209
773 0 1 11.586440 10.404900 567.038391
774 0 1 11.583760 9.972340 566.205322
775 0 1 11.728440 9.316120 565.449707
776 0 1 12.048650 8.947462 564.600830
777 0 1 12.132310 8.488473 563.659180
778 0 1 11.969720 8.246542 562.762695
779 0 1 11.928280 7.896550 561.873718
780 0 1 11.662320 7.906833 560.894775
781 0 1 11.390130 7.930846 559.976685
782 0 1 11.018550 8.133280 559.186707
783 0 1 10.861320 8.189143 558.217285
784 0 1 10.592620 8.200558 557.264099
785 0 1 10.296570 8.252948 556.341614
786 0 1 10.018870 8.635738 555.529175
787 0 1 9.968800 8.831320 554.594910
788 0 1 9.524910 9.198240 553.807922
789 0 1 9.065870 9.426560 553.004272