LAMMPS data file via MDAnalysis

        1000  atoms
        1000  bonds
        1000  angles
           0  dihedrals
           0  impropers

           1  atom types
           1  bond types
           1  angle types
           0  dihedral types
           0  improper types

0.000000 16.000000 xlo xhi
0.000000 16.000000 ylo yhi
0.000000 1257.000000 zlo zhi


Masses

1 1.000000

Atoms

1 0 1 7.911870 13.562840 448.246002
2 0 1 8.158663 13.229060 449.101990
3 0 1 8.249175 12.731400 449.886993
4 0 1 7.992402 12.400610 450.858002
5 0 1 8.139987 12.027430 451.755981
6 0 1 8.080383 11.706730 452.703979
7 0 1 8.043787 11.280670 453.552002
8 0 1 8.218589 10.954430 454.440979
9 0 1 8.245582 10.615760 455.416016
10 0 1 8.406426 10.527890 456.358002
11 0 1 8.796069 10.553230 457.221008
12 0 1 9.248660 10.430850 458.083008
13 0 1 9.553210 10.519130 458.970001
14 0 1 10.076650 10.764240 459.713013
15 0 1 10.564030 10.965321 460.492981
16 0 1 11.209790 11.333960 461.095001
17 0 1 11.659920 11.244450 462.005005
18 0 1 11.959160 10.800820 462.843018
19 0 1 12.129290 10.590509 463.791016
20 0 1 12.273940 10.497020 464.725006
21 0 1 12.150010 10.457870 465.653015
22 0 1 12.121420 10.659250 466.561005
23 0 1 11.960000 10.709949 467.596985
24 0 1 11.474520 10.952790 468.390015
25 0 1 11.075190 11.338250 469.184021
26 0 1 10.377380 11.571860 469.869019
27 0 1 9.772110 11.730021 470.621002
28 0 1 9.324500 12.108800 471.380981
29 0 1 9.038750 12.237780 472.272003
30 0 1 8.827344 12.082380 473.161987
31 0 1 8.633636 11.893470 474.108002
32 0 1 8.436557 11.629770 474.950012
33 0 1 8.188171 11.317141 475.854980
34 0 1 7.943937 11.273900 476.811005
35 0 1 7.687195 10.927200 477.695984
36 0 1 7.480098 10.720830 478.606995
37 0 1 7.379523 10.421540 479.510010
38 0 1 7.289267 10.433060 480.531982
39 0 1 7.020920 10.567350 481.463989
40 0 1 7.016017 10.846820 482.360992
41 0 1 6.996130 11.232180 483.270020
42 0 1 6.871440 11.334330 484.194000
43 0 1 6.942080 11.419360 485.132996
44 0 1 7.104180 11.494620 486.096985
45 0 1 7.383841 11.416389 487.023010
46 0 1 7.606393 11.430930 487.958984
47 0 1 7.606955 11.512680 488.938995
48 0 1 7.577606 11.836460 489.843018
49 0 1 7.614881 12.334340 490.606018
50 0 1 7.536841 12.468901 491.570984
51 0 1 7.765068 12.989070 492.304016
52 0 1 7.729582 13.480000 493.167999
53 0 1 7.827627 14.055651 493.968018
54 0 1 8.014418 14.456659 494.817993
55 0 1 8.070225 14.641450 495.783997
56 0 1 8.052532 14.715879 496.802979
57 0 1 8.051840 14.900050 497.794983
58 0 1 7.948536 14.674110 498.770996
59 0 1 8.225072 14.312490 499.669983
60 0 1 8.433068 14.065720 500.643005
61 0 1 8.615096 13.804680 501.541016
62 0 1 8.385791 13.738010 502.477997
63 0 1 7.818977 13.389009 503.186005
64 0 1 7.230238 13.240170 503.927002
65 0 1 6.705910 13.449320 504.730011
66 0 1 6.611650 13.758580 505.664001
67 0 1 6.700840 13.591010 506.605011
68 0 1 6.803640 13.316111 507.479004
69 0 1 6.868110 13.076370 508.403015
70 0 1 7.057816 12.760509 509.272003
71 0 1 7.442372 12.488350 510.079010
72 0 1 7.856303 12.017450 510.774994
73 0 1 8.285212 11.411260 511.429993
74 0 1 8.874300 10.693690 511.720001
75 0 1 9.262450 9.821190 511.923004
76 0 1 9.247810 8.859267 512.158020
77 0 1 9.478150 8.033314 512.521973
78 0 1 9.466249 7.353030 513.195984
79 0 1 9.463650 6.789470 513.947998
80 0 1 9.129380 6.197560 514.697021
81 0 1 8.548317 5.730230 515.419006
82 0 1 8.249278 5.864290 516.372009
83 0 1 7.908528 5.910540 517.262024
84 0 1 7.759341 5.930340 518.214966
85 0 1 7.779317 5.903250 519.169006
86 0 1 7.802870 6.055570 520.145996
87 0 1 7.685532 6.428350 521.086975
88 0 1 7.939624 6.745430 521.994995
89 0 1 8.041568 7.144080 522.851013
90 0 1 8.200674 7.420798 523.703003
91 0 1 8.341627 8.007600 524.544006
92 0 1 8.436035 8.705342 525.244019
93 0 1 8.443257 9.408890 525.945984
94 0 1 8.601506 9.969680 526.677979
95 0 1 8.920506 10.542430 527.396973
96 0 1 9.093690 11.097090 528.221008
97 0 1 9.298130 11.522050 529.052185
98 0 1 9.297180 11.719460 530.070312
99 0 1 9.170980 11.546030 531.051575
100 0 1 9.074900 11.287189 531.961487
101 0 1 8.895276 11.124371 532.940308
102 0 1 8.594992 11.202070 533.890198
103 0 1 8.318299 11.260900 534.867798
104 0 1 8.087200 11.183270 535.764282
105 0 1 7.612898 11.261470 536.671387
106 0 1 7.193739 11.265050 537.570679
107 0 1 6.732700 11.208020 538.443726
108 0 1 6.232490 11.303600 539.223389
109 0 1 5.574780 11.263590 540.033325
110 0 1 4.955940 11.313169 540.751526
111 0 1 4.100040 11.391180 541.276123
112 0 1 3.620430 11.212060 542.103088
113 0 1 3.143460 10.997890 542.980286
114 0 1 2.859230 10.590930 543.821594
115 0 1 2.543180 10.741510 544.667175
116 0 1 2.330230 11.011410 545.543701
117 0 1 2.261590 11.475100 546.368103
118 0 1 2.436420 11.693810 547.299011
119 0 1 2.582660 11.651640 548.244812
120 0 1 3.035850 11.805490 549.124634
121 0 1 3.452790 12.134090 549.909912
122 0 1 3.910860 12.393690 550.757324
123 0 1 4.415860 12.451910 551.583679
124 0 1 5.057350 12.736860 552.246094
125 0 1 5.665750 13.124630 552.930725
126 0 1 5.907290 13.134291 553.877808
127 0 1 5.969770 13.090110 554.803833
128 0 1 6.169270 13.238140 555.733887
129 0 1 6.637860 13.334110 556.627014
130 0 1 6.777810 13.250990 557.522522
131 0 1 6.557570 13.590691 558.392700
132 0 1 6.706420 13.744619 559.325500
133 0 1 6.824380 13.706420 560.312988
134 0 1 7.146619 13.711411 561.239075
135 0 1 7.525219 13.701810 562.164917
136 0 1 8.016388 13.768900 562.946899
137 0 1 8.631207 13.941589 563.700500
138 0 1 9.308160 13.941401 564.391296
139 0 1 10.089109 13.705860 564.930298
140 0 1 10.600090 13.600580 565.765320
141 0 1 11.198480 13.383450 566.529114
142 0 1 11.586490 13.367050 567.418701
143 0 1 11.990900 13.282050 568.326172
144 0 1 12.297131 13.144190 569.199707
145 0 1 12.607679 12.999110 570.141968
146 0 1 12.916460 12.764450 571.033203
147 0 1 13.078550 12.518690 571.935913
148 0 1 13.286020 12.236130 572.822876
149 0 1 13.326590 11.985060 573.767883
150 0 1 13.372971 11.790430 574.755981
151 0 1 13.519920 11.422150 575.628174
152 0 1 13.581580 11.016809 576.498718
153 0 1 13.865960 10.634550 577.407471
154 0 1 13.856239 10.156350 578.290894
155 0 1 14.085899 9.666840 579.036072
156 0 1 14.044041 9.220420 579.860229
157 0 1 13.914300 8.722053 580.697998
158 0 1 13.628810 8.327494 581.511597
159 0 1 13.132589 8.158640 582.361389
160 0 1 12.812490 8.079473 583.198486
161 0 1 12.316140 7.803474 583.941589
162 0 1 11.972270 7.804063 584.838806
163 0 1 11.736280 7.721650 585.786316
164 0 1 11.462470 7.632758 586.704773
165 0 1 11.089951 7.610452 587.632996
166 0 1 10.293740 7.870294 588.077698
167 0 1 9.590730 8.230352 588.580017
168 0 1 8.874940 8.409381 589.198120
169 0 1 8.541003 8.800064 590.081604
170 0 1 8.372173 8.877311 591.034302
171 0 1 8.315633 8.969488 592.015076
172 0 1 7.894058 9.012870 592.909668
173 0 1 7.941738 9.199810 593.863403
174 0 1 8.018599 9.527660 594.753174
175 0 1 8.284042 10.008110 595.592285
176 0 1 8.501316 10.416470 596.451599
177 0 1 8.877464 10.780600 597.207275
178 0 1 8.940886 11.309200 597.991699
179 0 1 9.019170 11.828250 598.786194
180 0 1 9.044900 12.389290 599.572388
181 0 1 8.766943 12.714100 600.469177
182 0 1 8.711659 13.134450 601.342102
183 0 1 8.576112 13.214581 602.328613
184 0 1 8.226188 13.243620 603.267578
185 0 1 7.941254 13.233231 604.190918
186 0 1 8.054209 13.102330 605.164917
187 0 1 8.294352 12.789610 606.072571
188 0 1 8.756642 12.637910 606.917114
189 0 1 9.184660 12.642770 607.752319
190 0 1 9.764820 12.318190 608.481873
191 0 1 10.283030 12.009200 609.261414
192 0 1 10.675010 11.184361 609.689697
193 0 1 10.968600 10.382570 610.179199
194 0 1 11.285450 9.628570 610.748291
195 0 1 11.910540 8.974344 611.095520
196 0 1 12.614590 8.469707 611.588623
197 0 1 13.329150 7.959822 612.102478
198 0 1 13.861310 7.348783 612.594788
199 0 1 14.271749 6.543640 613.073181
200 0 1 14.552060 5.892340 613.635681
201 0 1 14.492130 5.795280 614.626221
202 0 1 14.237289 5.558270 615.546997
203 0 1 13.880080 5.062080 616.261902
204 0 1 13.489270 4.410610 616.892578
205 0 1 13.329411 4.458030 617.842590
206 0 1 13.059919 4.568760 618.753662
207 0 1 12.639200 4.807340 619.596619
208 0 1 12.050540 4.825470 620.327393
209 0 1 11.542810 5.027810 621.171021
210 0 1 11.344891 5.248980 622.099854
211 0 1 11.175780 5.589690 622.956665
212 0 1 11.197890 5.819390 623.917664
213 0 1 11.428289 5.988340 624.807678
214 0 1 11.776910 5.902370 625.758240
215 0 1 11.728010 5.547560 626.691711
216 0 1 11.682660 5.468690 627.623840
217 0 1 11.648830 5.498990 628.574951
218 0 1 11.610710 5.582730 629.569580
219 0 1 11.507000 5.790440 630.469116
220 0 1 11.325100 5.734960 631.413879
221 0 1 11.060930 5.746480 632.340942
222 0 1 10.887590 5.973550 633.326660
223 0 1 10.927380 6.348620 634.195007
224 0 1 11.076020 6.782080 635.040405
225 0 1 11.264630 7.000337 635.974609
226 0 1 11.555540 7.109639 636.840881
227 0 1 11.761750 7.090295 637.750305
228 0 1 11.992550 7.426182 638.632324
229 0 1 12.205950 8.103441 639.266724
230 0 1 12.179370 8.671991 640.074890
231 0 1 12.182920 9.275740 640.791626
232 0 1 11.876420 9.798470 641.560120
233 0 1 11.392010 10.031800 642.351379
234 0 1 11.165461 10.567670 643.150024
235 0 1 10.593160 11.109650 643.714600
236 0 1 10.078950 11.301450 644.508972
237 0 1 9.551300 11.713020 645.252319
238 0 1 9.087980 12.098180 646.014404
239 0 1 8.612483 12.331739 646.874878
240 0 1 8.456307 12.368720 647.843628
241 0 1 8.431097 12.218280 648.783081
242 0 1 8.264307 12.060710 649.703796
243 0 1 7.936291 12.048910 650.582214
244 0 1 7.685031 11.886641 651.516113
245 0 1 7.552447 11.849830 652.464172
246 0 1 7.312382 11.655330 653.395386
247 0 1 6.996230 11.421160 654.258118
248 0 1 6.594440 11.213460 655.142578
249 0 1 6.292390 11.103270 656.086792
250 0 1 5.854830 10.995560 656.895691
251 0 1 5.394940 10.742661 657.711304
252 0 1 4.794540 10.251170 658.412231
253 0 1 4.116250 10.079090 659.121887
254 0 1 3.673200 9.607759 659.877502
255 0 1 3.148820 8.922381 660.275513
256 0 1 2.916530 8.389010 661.050903
257 0 1 3.140380 8.104599 661.950623
258 0 1 3.295940 8.016356 662.911987
259 0 1 3.503490 7.908051 663.812012
260 0 1 3.793960 7.674007 664.660095
261 0 1 3.993670 7.628797 665.673706
262 0 1 3.889470 7.525082 666.659912
263 0 1 3.858040 7.420396 667.643005
264 0 1 3.723920 7.363205 668.585022
265 0 1 3.663570 7.269452 669.520203
266 0 1 3.934000 7.114823 670.436523
267 0 1 4.213660 6.951840 671.283997
268 0 1 4.223230 6.586630 672.148682
269 0 1 4.314870 6.566050 673.145386
270 0 1 4.426830 6.670840 674.090027
271 0 1 4.503160 6.751020 675.045105
272 0 1 4.181200 7.021718 675.898499
273 0 1 3.950610 7.279578 676.770020
274 0 1 3.645960 7.648388 677.549988
275 0 1 3.571910 7.930543 678.463074
276 0 1 3.463870 8.194420 679.411621
277 0 1 3.002130 8.479644 680.284912
278 0 1 2.657220 8.509543 681.183228
279 0 1 2.872060 8.381113 682.080078
280 0 1 3.210250 8.018396 682.910278
281 0 1 3.589710 7.954222 683.826172
282 0 1 3.768020 7.910415 684.774475
283 0 1 4.122770 7.996754 685.711609
284 0 1 4.463020 7.863248 686.634399
285 0 1 4.881370 7.463451 687.430420
286 0 1 5.301750 7.192658 688.221619
287 0 1 5.688200 7.182860 689.120483
288 0 1 6.040590 6.913530 690.000427
289 0 1 6.293450 6.654490 690.948181
290 0 1 6.719720 6.584860 691.830505
291 0 1 7.066969 6.759630 692.720581
292 0 1 7.394180 6.868020 693.651001
293 0 1 7.711888 7.000329 694.565918
294 0 1 7.687180 6.941390 695.548523
295 0 1 7.412479 6.918080 696.482788
296 0 1 7.605710 6.496430 697.415588
297 0 1 7.853211 6.049590 698.187622
298 0 1 8.278958 5.888650 699.072388
299 0 1 8.483955 5.900630 700.032593
300 0 1 8.534602 5.972800 701.039673
301 0 1 8.685366 6.110780 701.993408
302 0 1 8.878146 6.078390 702.922119
303 0 1 9.293490 6.193510 703.837280
304 0 1 9.598180 6.244360 704.789795
305 0 1 9.723100 6.208280 705.723816
306 0 1 9.783240 6.264250 706.701477
307 0 1 9.970390 6.309210 707.669922
308 0 1 9.908410 6.650960 708.551392
309 0 1 9.888380 7.003068 709.439026
310 0 1 10.003280 7.461317 710.238708
311 0 1 10.324400 7.804792 711.031189
312 0 1 10.611959 8.368904 711.832825
313 0 1 10.840020 8.850536 712.624817
314 0 1 10.911890 9.336960 713.470093
315 0 1 11.034420 9.802700 714.247681
316 0 1 11.343180 10.141030 715.053589
317 0 1 11.496380 10.345190 716.088074
318 0 1 11.565310 10.372670 717.060974
319 0 1 11.510220 10.400240 717.998474
320 0 1 11.322500 10.276910 718.949524
321 0 1 11.146580 10.099280 719.908997
322 0 1 11.092100 10.046550 720.899475
323 0 1 11.308390 9.829150 721.781921
324 0 1 11.518380 9.342830 722.536316
325 0 1 11.460260 8.656050 723.220215
326 0 1 11.714890 7.905937 723.760925
327 0 1 11.832230 7.196986 724.383301
328 0 1 12.100150 6.722080 725.123413
329 0 1 12.217680 6.248650 725.954407
330 0 1 12.198780 5.864290 726.805115
331 0 1 12.219339 5.701970 727.785095
332 0 1 11.885900 5.220110 728.567017
333 0 1 11.874040 4.910600 729.434021
334 0 1 11.667340 4.727790 730.325012
335 0 1 11.723680 5.083760 731.226013
336 0 1 11.437160 5.195870 732.145020
337 0 1 11.126471 5.116530 733.049011
338 0 1 10.821780 5.172050 733.890991
339 0 1 10.524020 5.307340 734.788025
340 0 1 10.164220 5.314440 735.641968
341 0 1 9.583950 5.602110 736.528015
342 0 1 9.127950 5.641580 737.400024
343 0 1 8.635498 5.655650 738.185974
344 0 1 8.117222 5.488490 739.002014
345 0 1 7.712725 5.397900 739.937012
346 0 1 7.405219 5.412050 740.882019
347 0 1 6.850130 5.654400 741.666016
348 0 1 6.259730 5.563170 742.349976
349 0 1 5.834900 5.596450 743.219971
350 0 1 5.474890 5.834110 744.068970
351 0 1 5.238040 6.470880 744.799011
352 0 1 5.268980 7.076178 745.492981
353 0 1 5.519350 7.723421 746.208008
354 0 1 5.850410 8.230530 746.913025
355 0 1 6.347800 8.367746 747.778015
356 0 1 6.443510 8.386330 748.754028
357 0 1 6.381530 8.648232 749.695984
358 0 1 6.458960 8.855886 750.643982
359 0 1 6.576430 8.684453 751.593018
360 0 1 6.555130 8.650815 752.572021
361 0 1 6.301900 8.910568 753.471985
362 0 1 6.209930 9.424610 754.322021
363 0 1 6.001810 10.041150 755.067993
364 0 1 5.571440 10.331170 755.898010
365 0 1 5.045610 10.593320 756.747986
366 0 1 4.656180 10.552130 757.578979
367 0 1 4.654060 10.295110 758.460999
368 0 1 4.422050 9.981600 759.291016
369 0 1 4.305950 10.049960 760.218018
370 0 1 4.084820 10.108680 761.226013
371 0 1 4.009220 10.232440 762.174011
372 0 1 4.273070 10.207251 763.062012
373 0 1 4.490120 9.927150 763.968994
374 0 1 4.563120 9.827780 764.911987
375 0 1 4.821950 9.992990 765.854004
376 0 1 5.212950 10.444130 766.593994
377 0 1 5.350730 10.868900 767.416992
378 0 1 5.382740 11.224390 768.311035
379 0 1 5.247690 11.588740 769.190979
380 0 1 5.191530 11.987820 770.134033
381 0 1 5.085810 12.298260 771.063965
382 0 1 5.359890 12.462220 772.013000
383 0 1 5.785620 12.463490 772.912964
384 0 1 6.014460 12.159630 773.773987
385 0 1 5.823350 11.681910 774.580994
386 0 1 5.629480 10.966930 775.226990
387 0 1 5.691190 10.103090 775.738037
388 0 1 5.731740 9.309930 776.197021
389 0 1 5.650880 8.570769 776.695984
390 0 1 5.412920 7.757423 777.065002
391 0 1 5.055230 6.946960 777.385010
392 0 1 4.537380 6.309120 777.879028
393 0 1 4.044240 5.698110 778.525024
394 0 1 3.946260 5.666430 779.460999
395 0 1 4.150630 5.859220 780.370972
396 0 1 4.474380 6.035540 781.333984
397 0 1 4.844900 6.033620 782.213989
398 0 1 5.225410 6.057200 783.087036
399 0 1 5.447450 6.128450 783.997009
400 0 1 5.853490 6.372610 784.802002
401 0 1 6.472350 6.654770 785.515991
402 0 1 7.181804 6.844350 786.153015
403 0 1 7.784553 6.847870 786.934021
404 0 1 8.208493 7.102745 787.739990
405 0 1 8.647313 7.581075 788.414001
406 0 1 8.916789 8.177037 789.187988
407 0 1 8.966451 8.814997 789.921021
408 0 1 8.736174 9.379970 790.610962
409 0 1 8.345532 9.826560 791.353027
410 0 1 7.858560 10.212060 792.096008
411 0 1 7.243108 10.457720 792.825012
412 0 1 6.554310 10.680740 793.457031
413 0 1 5.655630 10.699730 794.000977
414 0 1 4.926580 10.700280 794.632996
415 0 1 4.327650 11.017560 795.476013
416 0 1 3.910980 11.486400 796.309998
417 0 1 3.386050 11.703510 797.145996
418 0 1 3.127780 11.896910 798.046021
419 0 1 3.083720 12.147150 798.966003
420 0 1 2.883080 12.254330 799.914978
421 0 1 2.886600 12.253690 800.869019
422 0 1 2.910810 12.184720 801.815979
423 0 1 2.960920 12.084550 802.761963
424 0 1 3.061700 11.985150 803.773987
425 0 1 3.427450 12.126690 804.604004
426 0 1 3.664590 11.904930 805.521973
427 0 1 4.149620 11.414120 806.273010
428 0 1 4.388850 11.035370 807.132996
429 0 1 4.703600 10.581790 807.934021
430 0 1 4.542340 10.149200 808.817993
431 0 1 4.385180 10.086930 809.742981
432 0 1 4.355060 9.855540 810.684021
433 0 1 4.351940 9.312300 811.541992
434 0 1 4.474170 9.033200 812.419983
435 0 1 4.373840 8.934929 813.365967
436 0 1 4.270570 8.781459 814.268005
437 0 1 4.277460 8.429441 815.213989
438 0 1 4.409570 8.395258 816.195007
439 0 1 4.620240 8.139464 817.072021
440 0 1 4.972980 8.141249 818.002991
441 0 1 5.297470 8.485724 818.875000
442 0 1 5.630250 8.581395 819.791016
443 0 1 5.937460 8.468754 820.703003
444 0 1 6.090590 8.554815 821.686035
445 0 1 5.854700 8.435893 822.587036
446 0 1 5.885400 8.211120 823.533020
447 0 1 5.819260 7.649306 824.369019
448 0 1 5.727500 7.163295 825.127014
449 0 1 5.505930 6.578920 825.917969
450 0 1 5.459700 6.172060 826.858032
451 0 1 5.575750 5.618610 827.687988
452 0 1 5.649220 5.065130 828.518005
453 0 1 6.034710 4.718890 829.322998
454 0 1 6.276510 4.866900 830.231018
455 0 1 6.467400 4.941630 831.260010
456 0 1 6.781500 5.099750 832.141968
457 0 1 7.236217 4.957130 832.962036
458 0 1 8.007182 4.743990 833.622009
459 0 1 8.884422 4.293000 833.947998
460 0 1 9.841090 4.297060 834.005005
461 0 1 10.711781 3.913370 834.059998
462 0 1 11.646120 3.653100 834.124023
463 0 1 12.479080 3.788820 833.530029
464 0 1 13.144990 4.007820 832.859985
465 0 1 13.718730 4.522870 832.304993
466 0 1 13.923930 5.249700 831.617004
467 0 1 14.027980 5.941690 830.984009
468 0 1 13.876300 6.536550 830.255005
469 0 1 13.442170 6.970890 829.492981
470 0 1 12.871420 7.517125 828.860962
471 0 1 12.224831 7.917959 828.291016
472 0 1 11.690020 8.705526 827.964966
473 0 1 11.171670 9.313950 827.463989
474 0 1 10.852540 9.882190 826.792969
475 0 1 10.580111 10.727350 826.356018
476 0 1 9.984890 11.510790 826.188965
477 0 1 9.384920 12.104800 825.674988
478 0 1 8.708953 12.629971 825.025024
479 0 1 8.398678 12.430861 824.181030
480 0 1 8.133585 12.161210 823.346008
481 0 1 7.768198 12.030680 822.505005
482 0 1 7.185071 11.987470 821.778015
483 0 1 6.724480 11.912849 820.895996
484 0 1 6.261920 11.995580 820.028992
485 0 1 5.905420 12.227980 819.177979
486 0 1 5.593270 12.599279 818.365967
487 0 1 5.278230 12.822229 817.455994
488 0 1 4.622210 12.938860 816.787964
489 0 1 4.061750 12.920610 816.005005
490 0 1 3.728070 12.737289 815.112000
491 0 1 3.503900 12.409510 814.242981
492 0 1 3.428200 11.826480 813.492981
493 0 1 3.453790 11.402900 812.619019
494 0 1 3.363230 10.892100 811.778992
495 0 1 3.030960 10.507680 810.979980
496 0 1 2.903960 9.884360 810.296997
497 0 1 2.482030 9.324100 809.610962
498 0 1 2.347550 9.204360 808.677979
499 0 1 2.375520 8.963685 807.765015
500 0 1 2.439650 8.804019 806.757996
501 0 1 2.690020 8.664890 805.830994
502 0 1 3.139090 8.769391 804.955017
503 0 1 3.653630 8.985393 804.250000
504 0 1 4.311750 9.340549 803.638000
505 0 1 4.959710 9.677230 803.057983
506 0 1 5.671470 10.074360 802.510986
507 0 1 6.145400 10.412310 801.804993
508 0 1 6.311470 10.732370 800.893005
509 0 1 6.641250 11.044900 800.002014
510 0 1 7.183868 11.441870 799.289978
511 0 1 7.515448 11.958920 798.485962
512 0 1 7.632197 12.321671 797.684021
513 0 1 7.514815 12.575120 796.828003
514 0 1 7.461253 13.027630 795.953003
515 0 1 7.323142 13.337490 795.044983
516 0 1 7.057804 13.718460 794.200012
517 0 1 6.911640 13.959140 793.266968
518 0 1 6.579260 14.020531 792.304016
519 0 1 6.075990 14.249650 791.520996
520 0 1 5.558300 14.295330 790.687012
521 0 1 5.376040 13.878010 789.744995
522 0 1 4.917960 13.379550 789.080994
523 0 1 4.406030 12.987610 788.330994
524 0 1 4.174680 12.520451 787.509033
525 0 1 4.149790 11.936990 786.645996
526 0 1 4.335610 11.623700 785.710022
527 0 1 4.421380 10.986040 784.968994
528 0 1 4.241940 10.313510 784.338989
529 0 1 3.956410 9.598220 783.697998
530 0 1 3.756580 8.797200 783.106018
531 0 1 3.835180 8.225809 782.312988
532 0 1 4.375810 7.803933 781.557007
533 0 1 5.005740 7.363475 780.979980
534 0 1 5.377000 6.917810 780.304993
535 0 1 5.617330 6.636560 779.424988
536 0 1 6.048460 6.329290 778.632019
537 0 1 6.231250 5.972310 777.766968
538 0 1 6.367620 5.931100 776.786987
539 0 1 6.777760 5.983260 775.846985
540 0 1 7.007587 6.050290 774.869019
541 0 1 7.125765 6.082730 773.927002
542 0 1 7.479674 6.233110 773.031982
543 0 1 7.683071 6.724840 772.233032
544 0 1 7.971383 7.217628 771.408020
545 0 1 8.524720 7.344315 770.601013
546 0 1 8.995469 7.494878 769.778015
547 0 1 9.210600 7.583380 768.859985
548 0 1 9.417530 7.430550 767.916016
549 0 1 9.863080 7.272519 767.088013
550 0 1 10.485610 7.040909 766.375977
551 0 1 10.975100 7.078039 765.533020
552 0 1 11.399400 6.888000 764.719971
553 0 1 11.499470 6.354280 763.888000
554 0 1 11.786580 5.893520 763.110962
555 0 1 12.209230 5.614630 762.271973
556 0 1 12.585410 5.392660 761.344971
557 0 1 12.859870 5.165660 760.448975
558 0 1 13.101920 5.095490 759.450012
559 0 1 13.174510 5.036250 758.484009
560 0 1 13.434760 4.852680 757.544983
561 0 1 13.555560 4.483010 756.640991
562 0 1 13.576389 4.280950 755.677002
563 0 1 13.789289 4.400380 754.690002
564 0 1 13.815639 4.765930 753.760986
565 0 1 13.655430 5.263650 752.957031
566 0 1 13.359039 5.806690 752.247986
567 0 1 12.838770 6.073080 751.419006
568 0 1 12.317921 5.918300 750.612000
569 0 1 11.880050 5.570470 749.768982
570 0 1 11.340420 5.224910 749.067993
571 0 1 10.811069 5.056820 748.278015
572 0 1 10.302820 4.754660 747.528992
573 0 1 9.807760 4.430750 746.838013
574 0 1 9.122320 4.235870 746.244019
575 0 1 8.472463 4.254620 745.520996
576 0 1 7.774612 4.250230 744.859009
577 0 1 7.246749 3.929480 744.093994
578 0 1 6.764770 3.738660 743.270996
579 0 1 6.440220 3.672230 742.398987
580 0 1 6.254900 3.751030 741.471008
581 0 1 6.210580 3.733160 740.481018
582 0 1 6.004920 3.681650 739.578979
583 0 1 5.651560 3.832630 738.674988
584 0 1 5.193030 3.628820 737.841003
585 0 1 4.716640 3.591920 736.976013
586 0 1 4.038130 3.621680 736.332031
587 0 1 3.635200 3.833510 735.490967
588 0 1 3.590260 4.203420 734.564026
589 0 1 3.778350 4.567640 733.687988
590 0 1 3.934530 4.882350 732.759033
591 0 1 3.998650 5.140430 731.765991
592 0 1 4.283050 5.372480 730.898987
593 0 1 4.363560 5.503930 729.981018
594 0 1 4.496650 5.443590 729.054016
595 0 1 4.782200 5.477230 728.065002
596 0 1 5.166380 5.528530 727.166504
597 0 1 5.660240 5.556720 726.306580
598 0 1 5.693120 5.669380 725.348389
599 0 1 5.750860 5.931570 724.451782
600 0 1 5.659030 6.389000 723.494507
601 0 1 5.463710 7.027325 722.725708
602 0 1 5.371210 7.575096 721.927185
603 0 1 5.227400 8.268044 721.317383
604 0 1 4.968300 8.883308 720.699585
605 0 1 4.926280 9.709690 720.206177
606 0 1 5.103990 10.468280 719.684814
607 0 1 5.265080 11.182480 718.949585
608 0 1 5.571280 11.728470 718.135925
609 0 1 5.933370 12.088120 717.298218
610 0 1 6.245880 12.289980 716.408020
611 0 1 6.261350 12.693090 715.461670
612 0 1 6.565730 12.817350 714.551514
613 0 1 6.832040 12.972620 713.659485
614 0 1 7.179998 13.058010 712.796387
615 0 1 7.485358 13.043290 711.879272
616 0 1 7.702310 12.961100 711.002502
617 0 1 8.100643 12.648729 710.124878
618 0 1 8.591741 12.369820 709.311096
619 0 1 9.156910 12.106541 708.515503
620 0 1 9.479230 11.741710 707.672424
621 0 1 9.708320 11.066680 706.943726
622 0 1 9.854000 10.176060 706.578369
623 0 1 9.749200 9.328940 706.153015
624 0 1 9.372340 8.466154 705.772400
625 0 1 8.903193 7.708467 705.322632
626 0 1 8.679336 6.876850 704.970825
627 0 1 8.145243 6.214610 704.600891
628 0 1 7.739792 5.791880 703.800476
629 0 1 7.429182 5.546440 702.901306
630 0 1 7.000566 4.982810 702.232666
631 0 1 6.797320 4.481620 701.433472
632 0 1 6.758040 3.866540 700.595886
633 0 1 6.411360 3.622090 699.683594
634 0 1 6.096150 3.480170 698.753784
635 0 1 6.030070 3.481090 697.769287
636 0 1 6.132790 3.419790 696.826294
637 0 1 6.351430 3.448910 695.874207
638 0 1 6.681360 3.436050 694.987976
639 0 1 7.086758 3.459930 694.129517
640 0 1 7.108239 3.340070 693.177917
641 0 1 7.286845 3.232380 692.210571
642 0 1 7.384556 3.055990 691.303284
643 0 1 7.740647 3.007480 690.367676
644 0 1 8.439004 3.152760 689.714478
645 0 1 9.106620 3.387250 689.059204
646 0 1 9.753740 3.438120 688.338623
647 0 1 10.255720 3.751080 687.616028
648 0 1 10.632180 3.943070 686.822693
649 0 1 10.780420 4.400800 685.933594
650 0 1 10.934980 4.876420 685.052124
651 0 1 11.214460 5.522120 684.328674
652 0 1 11.181601 5.864610 683.417725
653 0 1 11.000920 6.031910 682.484375
654 0 1 10.599950 6.395560 681.676208
655 0 1 10.434771 6.565620 680.721985
656 0 1 10.058500 6.708810 679.879272
657 0 1 9.573510 6.770530 678.989868
658 0 1 8.952386 6.922570 678.343201
659 0 1 8.456360 7.310961 677.571289
660 0 1 7.898764 7.705900 676.882996
661 0 1 7.407707 8.181900 676.244324
662 0 1 6.921320 8.786693 675.616821
663 0 1 6.554840 9.201690 674.793884
664 0 1 6.101730 9.606530 674.068481
665 0 1 6.158160 9.908650 673.138977
666 0 1 6.193790 10.009980 672.193909
667 0 1 6.154570 9.951720 671.229919
668 0 1 6.105500 9.735500 670.266907
669 0 1 6.035650 9.593010 669.315918
670 0 1 6.098070 9.259190 668.403687
671 0 1 6.220910 9.370370 667.433289
672 0 1 6.412620 9.404900 666.517212
673 0 1 6.696400 8.990069 665.635193
674 0 1 6.842950 8.404054 664.829224
675 0 1 6.882980 7.758969 663.956482
676 0 1 6.661420 7.249522 663.117432
677 0 1 6.420670 6.733620 662.360718
678 0 1 6.212890 6.279130 661.476624
679 0 1 6.131260 5.923670 660.613525
680 0 1 5.881430 5.614310 659.759399
681 0 1 5.745820 5.522100 658.813782
682 0 1 5.556180 5.157180 657.924316
683 0 1 5.556580 4.747040 657.053894
684 0 1 5.459010 4.220890 656.210999
685 0 1 5.621690 3.660000 655.423584
686 0 1 5.952160 3.061760 654.677795
687 0 1 6.460830 2.790230 653.865112
688 0 1 6.731040 2.477810 652.996399
689 0 1 6.977910 2.215390 652.091003
690 0 1 7.105849 1.905380 651.200073
691 0 1 7.335926 1.816520 650.275391
692 0 1 7.321910 1.747330 649.325989
693 0 1 7.403074 1.907800 648.393372
694 0 1 7.434392 1.982420 647.425903
695 0 1 7.546180 2.249930 646.454102
696 0 1 7.498507 2.457530 645.523682
697 0 1 7.314297 2.794600 644.633911
698 0 1 6.933330 3.052950 643.821289
699 0 1 6.561920 3.735410 643.145996
700 0 1 6.531790 4.363990 642.381897
701 0 1 6.305950 4.903090 641.581299
702 0 1 6.266290 5.611730 640.863708
703 0 1 6.325700 6.255150 640.159729
704 0 1 6.664080 6.906860 639.504211
705 0 1 7.154504 7.293547 638.692688
706 0 1 7.618531 7.624124 637.907776
707 0 1 7.845227 7.683257 637.029114
708 0 1 7.806130 7.972698 636.092651
709 0 1 8.035841 8.340392 635.222229
710 0 1 8.413085 8.730199 634.408264
711 0 1 8.676140 9.025530 633.504211
712 0 1 9.115220 9.298460 632.738525
713 0 1 9.507390 9.555490 631.902954
714 0 1 9.948120 9.770750 631.101318
715 0 1 9.956860 9.877980 630.141479
716 0 1 10.137840 9.812970 629.219177
717 0 1 10.316750 9.769210 628.219971
718 0 1 10.555880 9.884980 627.291626
719 0 1 10.564210 9.992730 626.364929
720 0 1 10.432040 10.396111 625.559998
721 0 1 10.224660 10.698800 624.665771
722 0 1 9.765630 11.078160 623.888855
723 0 1 9.357690 11.521930 623.141602
724 0 1 8.908484 11.707100 622.276489
725 0 1 8.709394 12.024759 621.298218
726 0 1 8.438288 11.899250 620.350708
727 0 1 8.498568 11.533300 619.447998
728 0 1 8.408315 11.075060 618.608398
729 0 1 8.120260 10.650420 617.772217
730 0 1 7.981135 10.400200 616.816772
731 0 1 7.795016 10.201710 615.885498
732 0 1 7.554980 9.957550 614.973328
733 0 1 7.241120 9.558580 614.173706
734 0 1 6.866380 9.184410 613.255005
735 0 1 6.673210 8.546346 612.576782
736 0 1 6.516620 7.910371 611.878906
737 0 1 6.338110 7.272187 611.184692
738 0 1 6.466990 6.718620 610.426270
739 0 1 6.618710 6.489950 609.518311
740 0 1 6.966070 6.085370 608.691528
741 0 1 7.400683 5.604270 607.951782
742 0 1 7.530319 5.269530 607.018921
743 0 1 7.483174 5.079040 606.003906
744 0 1 7.261301 5.262440 605.083801
745 0 1 7.013677 5.537420 604.185303
746 0 1 6.875120 5.816940 603.194092
747 0 1 6.779850 6.208230 602.291870
748 0 1 6.846100 6.774420 601.483276
749 0 1 6.882280 7.227668 600.629395
750 0 1 6.590610 7.547867 599.739502
751 0 1 6.163420 7.938251 598.945496
752 0 1 5.633430 8.068358 598.134583
753 0 1 5.309440 8.414370 597.275269
754 0 1 5.348490 8.738504 596.381592
755 0 1 5.273270 8.924604 595.465088
756 0 1 5.151870 9.157790 594.521484
757 0 1 5.266330 8.952201 593.642212
758 0 1 5.118660 8.802544 592.720703
759 0 1 5.010270 8.628665 591.768982
760 0 1 4.991840 8.884636 590.883423
761 0 1 4.904120 9.169950 589.957275
762 0 1 4.708620 9.367740 589.021912
763 0 1 4.676830 9.419160 588.070679
764 0 1 4.943070 9.332290 587.144897
765 0 1 4.865550 9.106510 586.190979
766 0 1 4.897500 9.257940 585.276672
767 0 1 4.911680 9.540100 584.401123
768 0 1 5.081670 9.597620 583.464783
769 0 1 5.164110 9.840520 582.537720
770 0 1 5.214060 9.887600 581.594788
771 0 1 5.536670 10.272920 580.797791
772 0 1 5.950780 10.597330 579.972473
773 0 1 6.299790 10.939180 579.220093
774 0 1 6.558160 11.285480 578.379578
775 0 1 7.120339 11.622590 577.732422
776 0 1 7.583722 11.805890 576.856812
777 0 1 7.855712 11.833350 575.918213
778 0 1 8.195822 11.969710 575.021484
779 0 1 8.558767 12.069960 574.079590
780 0 1 8.875268 12.136789 573.150024
781 0 1 9.054310 11.904660 572.269592
782 0 1 9.053280 11.757600 571.315308
783 0 1 9.062090 11.221700 570.435425
784 0 1 8.834000 10.716681 569.558594
785 0 1 8.707290 10.393840 568.599609
786 0 1 8.814723 10.003760 567.702820
787 0 1 8.690794 9.638490 566.804688
788 0 1 8.540972 9.223830 565.937988
789 0 1 8.378171 8.869105 565.041809
790 0 1 7.986039 8.479688 564.289978