LAMMPS data file via MDAnalysis

        1000  atoms
        1000  bonds
        1000  angles
           0  dihedrals
           0  impropers

           1  atom types
           1  bond types
           1  angle types
           0  dihedral types
           0  improper types

0.000000 16.000000 xlo xhi
0.000000 16.000000 ylo yhi
0.000000 1257.000000 zlo zhi


Masses

1 1.000000

Atoms

1 0 1 4.424890 8.430774 461.338989
2 0 1 4.146490 9.013280 462.070984
3 0 1 4.276190 9.522170 462.885010
4 0 1 4.707050 9.990030 463.602997
5 0 1 5.135260 10.323620 464.352997
6 0 1 5.467550 10.388610 465.276001
7 0 1 5.706830 10.661819 466.237000
8 0 1 5.916480 10.850640 467.203979
9 0 1 6.233680 11.169580 468.171021
10 0 1 6.313210 11.436930 469.108002
11 0 1 6.334310 11.638870 470.110992
12 0 1 6.645800 11.844930 471.015991
13 0 1 7.124414 12.099490 471.791016
14 0 1 7.623560 12.232611 472.622986
15 0 1 8.094472 12.299500 473.494019
16 0 1 8.620822 12.320419 474.389008
17 0 1 8.798076 11.885490 475.273010
18 0 1 9.052270 11.514240 476.083984
19 0 1 9.484760 11.262910 476.893982
20 0 1 9.794240 10.794360 477.635986
21 0 1 10.042370 10.507700 478.507019
22 0 1 10.538200 9.985980 479.281982
23 0 1 10.807190 9.568050 480.161987
24 0 1 11.216140 9.294680 480.960999
25 0 1 11.667191 9.280980 481.825989
26 0 1 11.756980 9.082080 482.839996
27 0 1 11.684910 9.126730 483.804993
28 0 1 11.607170 8.829585 484.757019
29 0 1 11.101400 8.653018 485.593018
30 0 1 10.598600 8.183748 486.250000
31 0 1 10.045630 7.595577 486.794983
32 0 1 9.482821 6.967100 487.225006
33 0 1 8.947963 6.432270 487.764008
34 0 1 8.369579 6.002820 488.388000
35 0 1 7.908059 5.726240 489.174988
36 0 1 7.741916 5.568420 490.056000
37 0 1 7.282627 5.273160 490.912994
38 0 1 6.850900 5.004690 491.708984
39 0 1 6.660550 4.874500 492.664001
40 0 1 6.575640 4.893320 493.598022
41 0 1 6.252860 4.933190 494.522003
42 0 1 6.053390 5.001530 495.498993
43 0 1 5.988830 4.846780 496.442993
44 0 1 5.868460 5.047620 497.397003
45 0 1 5.737220 5.256500 498.330017
46 0 1 5.375520 5.302110 499.250000
47 0 1 5.165650 5.956770 499.979980
48 0 1 5.014850 6.621400 500.639008
49 0 1 4.830080 7.157738 501.407990
50 0 1 4.507790 7.507772 502.287994
51 0 1 4.302050 7.586874 503.313995
52 0 1 4.266280 7.414267 504.229004
53 0 1 4.544290 7.045935 505.028992
54 0 1 4.979090 6.652720 505.796997
55 0 1 5.555120 6.526900 506.554016
56 0 1 6.121280 6.386340 507.291016
57 0 1 6.724660 6.103590 508.015991
58 0 1 7.121942 5.573630 508.735992
59 0 1 7.465914 4.809700 509.291016
60 0 1 7.835803 4.100850 509.839996
61 0 1 8.450019 3.626720 510.416992
62 0 1 8.904764 3.319250 511.125000
63 0 1 9.169270 3.140930 512.096985
64 0 1 9.215070 3.207000 513.059021
65 0 1 9.375530 3.394250 514.007996
66 0 1 9.686990 3.618880 514.898010
67 0 1 9.862880 4.105620 515.700989
68 0 1 9.734490 4.535590 516.518005
69 0 1 9.542170 5.088440 517.322021
70 0 1 9.308130 5.371490 518.234009
71 0 1 8.803302 5.767830 518.948975
72 0 1 8.393901 6.285600 519.676025
73 0 1 7.954050 6.967690 520.291992
74 0 1 7.391210 7.470062 520.841980
75 0 1 7.226756 8.106756 521.530029
76 0 1 6.940750 8.887079 522.156982
77 0 1 6.410700 9.399130 522.692993
78 0 1 6.346820 10.066310 523.356018
79 0 1 6.032840 10.618060 524.119995
80 0 1 5.747140 10.890980 524.984985
81 0 1 5.763560 11.164570 525.884033
82 0 1 5.845840 11.653860 526.744019
83 0 1 6.046310 11.758310 527.658997
84 0 1 6.015170 11.822950 528.603210
85 0 1 5.916400 11.682159 529.509705
86 0 1 5.803060 11.444250 530.418579
87 0 1 5.934140 11.129430 531.265076
88 0 1 5.603170 10.817010 532.132080
89 0 1 5.427210 10.564280 533.110413
90 0 1 5.272860 9.948660 533.856567
91 0 1 5.295830 9.395840 534.665100
92 0 1 5.248050 9.030080 535.677307
93 0 1 5.502080 8.670110 536.548584
94 0 1 5.766060 8.376006 537.330322
95 0 1 6.048050 8.106907 538.218994
96 0 1 6.572960 7.833001 539.026367
97 0 1 7.095560 7.411310 539.723633
98 0 1 7.780186 7.142990 540.379578
99 0 1 8.478255 7.128707 541.079834
100 0 1 8.992451 7.128878 541.849915
101 0 1 9.520810 6.928310 542.635620
102 0 1 9.788340 6.862260 543.546326
103 0 1 9.929110 6.781330 544.502197
104 0 1 10.186980 6.756100 545.489685
105 0 1 10.401730 6.626120 546.384216
106 0 1 10.616199 6.619800 547.417114
107 0 1 10.930570 6.706600 548.327820
108 0 1 10.841280 6.763510 549.300903
109 0 1 10.676730 7.067298 550.231995
110 0 1 10.736740 7.720389 551.013123
111 0 1 10.957330 8.330126 551.739685
112 0 1 11.090260 8.783485 552.707520
113 0 1 10.907000 9.005560 553.622314
114 0 1 10.494920 8.743775 554.452209
115 0 1 10.392910 8.435816 555.366577
116 0 1 10.393760 8.260914 556.332703
117 0 1 10.171440 8.023392 557.272278
118 0 1 9.813410 7.757800 558.178467
119 0 1 9.611490 7.636005 559.131470
120 0 1 9.527000 7.958824 560.086914
121 0 1 9.253700 7.925413 560.975708
122 0 1 9.075840 7.842584 561.915283
123 0 1 9.070030 8.003036 562.878174
124 0 1 9.047060 8.117251 563.823425
125 0 1 9.091770 8.144819 564.741211
126 0 1 8.905499 8.411811 565.602417
127 0 1 8.809756 8.814348 566.476624
128 0 1 8.837507 9.293410 567.327576
129 0 1 9.222610 9.889030 568.006226
130 0 1 9.141160 10.382401 568.819702
131 0 1 9.226040 10.735110 569.652405
132 0 1 9.264060 10.893800 570.633423
133 0 1 9.510250 10.786489 571.566101
134 0 1 9.499880 10.517210 572.471375
135 0 1 9.436470 10.495370 573.492310
136 0 1 9.358780 10.609300 574.431274
137 0 1 9.487740 10.874770 575.331421
138 0 1 9.994770 10.826580 576.171631
139 0 1 10.329330 10.564400 577.084290
140 0 1 10.603370 10.124060 577.877991
141 0 1 10.487410 9.741110 578.708923
142 0 1 10.338730 9.378230 579.621887
143 0 1 10.497931 9.112680 580.557495
144 0 1 10.882030 8.901071 581.419495
145 0 1 10.752620 8.807904 582.384827
146 0 1 10.801310 8.605555 583.381226
147 0 1 10.836510 8.292007 584.278503
148 0 1 10.914160 8.251903 585.255310
149 0 1 10.914800 8.251103 586.204285
150 0 1 10.915791 8.287250 587.117310
151 0 1 10.872810 8.520111 588.077515
152 0 1 10.721740 8.739373 589.009216
153 0 1 10.534760 9.113860 589.879211
154 0 1 10.477440 9.408840 590.766479
155 0 1 10.467390 9.460050 591.786621
156 0 1 10.485110 9.436930 592.742432
157 0 1 10.518560 9.176040 593.715210
158 0 1 10.456300 9.281780 594.719727
159 0 1 10.854500 9.408260 595.567322
160 0 1 10.965390 9.724100 596.475403
161 0 1 10.786110 10.153151 597.303589
162 0 1 10.536840 10.423550 598.205994
163 0 1 10.341920 10.573680 599.124695
164 0 1 10.250590 10.749470 600.080627
165 0 1 9.888371 10.910130 600.966187
166 0 1 9.508990 10.945499 601.889526
167 0 1 9.231370 10.911460 602.862183
168 0 1 8.883239 10.833350 603.767212
169 0 1 8.677871 10.775550 604.752991
170 0 1 8.218990 10.934340 605.569092
171 0 1 8.303536 11.218410 606.437927
172 0 1 8.173158 11.431610 607.362488
173 0 1 8.009792 11.690620 608.302490
174 0 1 7.431237 11.976650 609.064697
175 0 1 6.695950 11.940380 609.697693
176 0 1 6.039130 11.716760 610.307678
177 0 1 5.406490 11.711370 610.994080
178 0 1 4.745710 11.628139 611.674927
179 0 1 4.221650 11.250510 612.360229
180 0 1 3.752760 10.610991 612.976013
181 0 1 3.747430 9.837090 613.550598
182 0 1 3.718790 9.191410 614.214478
183 0 1 3.705300 8.487253 614.873413
184 0 1 3.849730 8.093663 615.731628
185 0 1 3.899260 7.847187 616.646179
186 0 1 3.609310 7.727041 617.593384
187 0 1 3.173570 7.735017 618.427917
188 0 1 2.705340 7.941947 619.246399
189 0 1 2.738800 8.119285 620.135071
190 0 1 2.749200 8.472203 621.061890
191 0 1 2.854530 8.517048 622.024170
192 0 1 3.000150 8.681643 622.932434
193 0 1 3.426200 8.682476 623.802612
194 0 1 3.635450 8.535962 624.711975
195 0 1 3.742470 9.045330 625.544312
196 0 1 3.996100 9.605350 626.278137
197 0 1 4.089360 10.258830 626.999451
198 0 1 4.276860 10.754420 627.784912
199 0 1 4.728150 10.911750 628.672791
200 0 1 5.223110 11.026990 629.495178
201 0 1 5.537640 11.349080 630.350037
202 0 1 6.170900 11.554430 631.070496
203 0 1 6.843150 11.662940 631.755920
204 0 1 7.384975 11.712290 632.477722
205 0 1 7.975742 11.730890 633.203613
206 0 1 8.578517 11.544810 633.910339
207 0 1 9.145960 11.621910 634.608398
208 0 1 9.665260 11.801580 635.418701
209 0 1 10.161730 12.070860 636.309753
210 0 1 10.590950 12.380751 637.076355
211 0 1 10.997140 12.695060 637.995300
212 0 1 11.281360 12.896020 638.917114
213 0 1 11.690590 12.999920 639.759888
214 0 1 11.935480 12.962970 640.690491
215 0 1 11.948880 12.714661 641.608093
216 0 1 11.870470 12.477950 642.609680
217 0 1 11.332400 12.034140 643.295471
218 0 1 10.866210 11.596050 644.017090
219 0 1 10.171240 11.339720 644.714111
220 0 1 9.468940 11.045470 645.271790
221 0 1 8.918815 10.356760 645.703979
222 0 1 8.490368 9.602700 646.125305
223 0 1 7.909659 8.814925 646.227600
224 0 1 7.237401 8.162660 646.247375
225 0 1 6.565410 7.549102 646.530090
226 0 1 5.967020 7.177811 647.126404
227 0 1 5.267420 6.854350 647.668823
228 0 1 4.596820 6.776030 648.463013
229 0 1 4.159840 7.012301 649.298096
230 0 1 3.939320 7.281865 650.247925
231 0 1 3.557770 7.454235 651.130005
232 0 1 3.007910 7.594990 651.914673
233 0 1 2.623220 7.649983 652.749817
234 0 1 2.422850 7.662370 653.637207
235 0 1 2.204890 7.799365 654.593811
236 0 1 2.139190 7.773251 655.572388
237 0 1 1.977050 7.851792 656.606628
238 0 1 1.919640 7.729824 657.581421
239 0 1 1.899690 7.742996 658.528625
240 0 1 1.648930 7.584565 659.408508
241 0 1 1.535930 7.134243 660.279114
242 0 1 1.867130 6.602710 660.985107
243 0 1 2.041570 6.089630 661.760132
244 0 1 2.009960 5.899900 662.684998
245 0 1 2.046340 5.643630 663.654297
246 0 1 2.188110 5.291370 664.545898
247 0 1 2.186190 5.054320 665.467773
248 0 1 2.178350 4.693720 666.320618
249 0 1 2.328700 4.512540 667.286011
250 0 1 2.734340 4.276840 668.060303
251 0 1 3.263430 4.187410 668.941528
252 0 1 3.519280 3.858420 669.809875
253 0 1 3.746290 3.886310 670.755188
254 0 1 3.985030 4.147800 671.672485
255 0 1 4.520860 4.438220 672.379089
256 0 1 4.968920 4.808270 673.207397
257 0 1 5.656340 5.204440 673.853516
258 0 1 6.269240 5.535880 674.446716
259 0 1 7.118655 5.987890 674.790283
260 0 1 7.877703 6.232080 675.263794
261 0 1 8.410526 6.447520 676.013184
262 0 1 8.870482 6.666590 676.892395
263 0 1 9.512010 6.665620 677.635498
264 0 1 10.152440 6.801040 678.358398
265 0 1 10.899130 7.101864 679.009216
266 0 1 11.448160 7.525719 679.625183
267 0 1 11.795250 7.769603 680.466614
268 0 1 12.063070 7.917140 681.381104
269 0 1 12.263630 8.175220 682.227417
270 0 1 12.280729 8.775592 683.048523
271 0 1 12.409890 9.255510 683.794983
272 0 1 12.408510 9.968400 684.523682
273 0 1 12.070320 10.626870 685.219727
274 0 1 11.656010 11.162120 686.006287
275 0 1 11.219640 11.582980 686.803589
276 0 1 10.606620 11.884109 687.503296
277 0 1 10.059950 12.300980 688.235779
278 0 1 9.648760 12.494680 689.036194
279 0 1 9.335030 12.682040 689.919800
280 0 1 9.159620 12.990641 690.872986
281 0 1 8.694396 12.955820 691.712891
282 0 1 8.518901 12.932890 692.683777
283 0 1 8.387895 12.983540 693.647888
284 0 1 8.142339 13.180590 694.523621
285 0 1 7.901953 13.334800 695.431274
286 0 1 7.671210 13.437679 696.364380
287 0 1 7.745783 13.467680 697.330566
288 0 1 7.675518 13.454540 698.317017
289 0 1 8.065462 13.472830 699.189331
290 0 1 8.414633 13.146320 700.079712
291 0 1 8.432813 12.762720 700.979004
292 0 1 8.576300 12.379681 701.831116
293 0 1 8.384622 11.893641 702.662476
294 0 1 8.171241 11.552810 703.511780
295 0 1 7.975521 11.393800 704.430176
296 0 1 7.785795 11.268909 705.307983
297 0 1 7.834897 11.035789 706.202209
298 0 1 7.994839 10.755939 707.166504
299 0 1 8.093335 10.626400 708.137878
300 0 1 8.126405 10.386410 709.080811
301 0 1 8.634992 10.162340 709.866882
302 0 1 9.078370 9.718240 710.587769
303 0 1 9.377530 9.444750 711.442322
304 0 1 9.362410 9.124610 712.332214
305 0 1 9.198840 9.065560 713.359802
306 0 1 9.294440 9.095140 714.318787
307 0 1 9.564700 8.780332 715.204224
308 0 1 9.879960 8.489677 716.038879
309 0 1 10.465540 8.400612 716.871399
310 0 1 10.970030 8.087450 717.674622
311 0 1 11.218390 7.737314 718.533203
312 0 1 11.413790 7.263295 719.280884
313 0 1 11.353230 6.930660 720.163696
314 0 1 11.412700 6.862430 721.098633
315 0 1 11.468821 6.501200 722.098083
316 0 1 11.406330 6.053540 722.985107
317 0 1 11.403990 5.683260 723.833374
318 0 1 11.520890 5.365240 724.798706
319 0 1 11.472370 5.113710 725.705017
320 0 1 11.429020 4.702940 726.570496
321 0 1 11.373710 4.930640 727.507324
322 0 1 11.377790 5.267480 728.440308
323 0 1 11.529850 5.717490 729.302002
324 0 1 11.913280 6.352710 730.000000
325 0 1 11.677540 7.104435 730.547974
326 0 1 11.545020 7.721399 731.260986
327 0 1 11.463570 8.390842 731.950989
328 0 1 11.262880 8.978797 732.646973
329 0 1 11.160820 9.380570 733.541992
330 0 1 11.107910 9.945890 734.361023
331 0 1 11.187550 10.624390 735.089966
332 0 1 11.398320 11.016950 735.927002
333 0 1 11.736840 11.465900 736.672974
334 0 1 12.054359 11.778020 737.500000
335 0 1 12.150000 11.761980 738.474976
336 0 1 12.311940 11.812429 739.443970
337 0 1 12.269800 11.890990 740.411011
338 0 1 12.084480 11.743999 741.336975
339 0 1 11.766840 11.694180 742.213013
340 0 1 11.409121 11.651180 743.083008
341 0 1 11.389441 11.502510 743.992004
342 0 1 11.293560 11.358720 744.986023
343 0 1 11.097691 11.517410 745.937988
344 0 1 11.051240 11.710000 746.815979
345 0 1 10.812740 11.862730 747.742981
346 0 1 10.611610 11.979140 748.695007
347 0 1 10.414400 11.920010 749.612000
348 0 1 10.183920 11.990440 750.578979
349 0 1 10.211060 12.305050 751.502991
350 0 1 10.293100 12.522320 752.466980
351 0 1 10.330160 12.791571 753.458008
352 0 1 10.214360 12.954170 754.479980
353 0 1 10.364170 13.191090 755.395996
354 0 1 10.614270 13.431150 756.317993
355 0 1 10.842730 13.836020 757.148987
356 0 1 11.197710 13.768930 758.049988
357 0 1 11.575720 13.562120 758.911987
358 0 1 11.678270 13.164380 759.801025
359 0 1 11.454910 13.152360 760.775024
360 0 1 11.433140 13.159070 761.853027
361 0 1 11.679540 13.063910 762.781006
362 0 1 11.907430 12.816190 763.662964
363 0 1 11.990570 12.480070 764.541992
364 0 1 11.953780 11.965120 765.343018
365 0 1 11.653600 11.362900 765.934021
366 0 1 11.436390 10.806260 766.677002
367 0 1 11.520411 10.229090 767.447021
368 0 1 11.730500 9.585860 768.166016
369 0 1 11.945601 9.406219 769.114014
370 0 1 12.121759 9.391600 770.065979
371 0 1 12.125040 9.671550 771.000977
372 0 1 12.188140 10.022409 771.872009
373 0 1 12.311510 10.448640 772.687988
374 0 1 12.199150 10.905330 773.615967
375 0 1 12.245541 11.116090 774.599976
376 0 1 12.308530 11.176720 775.547974
377 0 1 12.069170 11.188520 776.528992
378 0 1 11.591840 11.181980 777.348022
379 0 1 11.229800 11.189320 778.283020
380 0 1 11.003280 10.956841 779.156006
381 0 1 10.703671 10.795210 780.028992
382 0 1 10.352510 10.696740 780.889038
383 0 1 10.168330 10.581600 781.791992
384 0 1 9.928240 10.366190 782.733032
385 0 1 9.716770 9.878880 783.481018
386 0 1 9.319930 9.314750 784.166992
387 0 1 8.650121 8.874025 784.789978
388 0 1 7.757973 8.659254 785.057983
389 0 1 6.989940 8.547050 785.617981
390 0 1 6.165210 8.235526 785.889038
391 0 1 5.514550 7.786335 786.416016
392 0 1 4.794900 7.456373 786.968018
393 0 1 4.273740 7.034152 787.721985
394 0 1 4.157900 6.971580 788.653015
395 0 1 3.941360 6.834340 789.563965
396 0 1 3.720000 6.666910 790.500000
397 0 1 3.915310 6.627380 791.445007
398 0 1 4.067740 6.771580 792.391968
399 0 1 4.191240 6.868500 793.389038
400 0 1 4.477280 7.053652 794.322021
401 0 1 4.785760 6.868180 795.273010
402 0 1 5.007660 7.095249 796.140015
403 0 1 4.967190 7.506098 797.046997
404 0 1 4.939460 8.094355 797.837036
405 0 1 5.004950 8.444853 798.752991
406 0 1 4.937550 8.686926 799.679016
407 0 1 4.760710 8.763748 800.687012
408 0 1 4.819230 8.986921 801.580017
409 0 1 5.181200 9.061220 802.469971
410 0 1 5.160260 9.105710 803.426025
411 0 1 5.105870 9.107010 804.379028
412 0 1 5.291520 9.062540 805.327026
413 0 1 5.415530 8.710478 806.270020
414 0 1 4.981630 8.598778 807.124023
415 0 1 4.363070 8.538469 807.867004
416 0 1 3.826150 8.671606 808.625000
417 0 1 3.565410 8.808280 809.588013
418 0 1 3.203840 8.988485 810.457031
419 0 1 2.699560 9.241830 811.291992
420 0 1 2.221830 9.193600 812.177979
421 0 1 2.083500 8.890238 813.093994
422 0 1 1.972580 8.863951 814.057983
423 0 1 1.922580 8.727200 814.987000
424 0 1 2.009310 8.483981 815.880005
425 0 1 1.930320 7.974155 816.773987
426 0 1 1.891280 7.923027 817.747009
427 0 1 1.935170 7.754183 818.714966
428 0 1 1.973660 7.613824 819.669983
429 0 1 1.996570 7.397944 820.638000
430 0 1 2.193600 7.509985 821.570984
431 0 1 2.236490 7.496068 822.552002
432 0 1 2.537880 7.251983 823.514038
433 0 1 2.828180 7.028026 824.494019
434 0 1 3.139480 7.089575 825.450012
435 0 1 3.675300 7.075048 826.278015
436 0 1 3.831550 7.139583 827.207031
437 0 1 4.038210 6.903740 828.120972
438 0 1 4.558300 6.621570 828.837036
439 0 1 5.116220 6.255600 829.589966
440 0 1 5.792920 6.129850 830.252014
441 0 1 6.445350 6.047810 830.942993
442 0 1 7.102740 6.152650 831.708008
443 0 1 7.822535 6.552210 832.158020
444 0 1 8.545431 7.241215 832.411987
445 0 1 9.413220 7.762921 832.559021
446 0 1 10.227600 8.197549 832.297974
447 0 1 10.868510 8.742869 831.932983
448 0 1 11.555220 9.206530 831.385010
449 0 1 11.998301 9.692870 830.726990
450 0 1 12.107260 10.137290 829.934021
451 0 1 12.403070 10.410880 829.059021
452 0 1 12.887550 10.328450 828.187988
453 0 1 13.237300 10.465260 827.375977
454 0 1 13.544360 10.451990 826.490967
455 0 1 13.769060 10.270190 825.594971
456 0 1 13.533180 10.356110 824.613037
457 0 1 13.161409 10.536690 823.677979
458 0 1 12.713380 10.701850 822.921997
459 0 1 12.362200 10.946250 822.049988
460 0 1 12.017420 11.171550 821.216980
461 0 1 11.753920 11.414740 820.309021
462 0 1 11.568541 11.605280 819.354004
463 0 1 11.600620 11.937050 818.487000
464 0 1 11.381690 12.161890 817.580994
465 0 1 11.664930 12.315460 816.662964
466 0 1 12.102961 12.166560 815.799988
467 0 1 12.424240 12.267530 814.931030
468 0 1 12.875600 12.316740 814.089966
469 0 1 13.153060 12.371861 813.143005
470 0 1 13.316200 12.403410 812.229980
471 0 1 13.205420 12.259130 811.281006
472 0 1 12.859540 12.267361 810.318970
473 0 1 12.581060 12.246920 809.400024
474 0 1 12.159890 12.175400 808.561035
475 0 1 11.999210 11.963800 807.604004
476 0 1 12.114000 11.932720 806.596985
477 0 1 12.008130 11.811680 805.684998
478 0 1 12.095119 11.623560 804.778015
479 0 1 11.821820 11.511700 803.838013
480 0 1 11.909230 11.674200 802.914978
481 0 1 11.730230 11.838390 801.984009
482 0 1 11.658470 11.905540 801.023987
483 0 1 11.398970 11.940080 800.059998
484 0 1 11.237170 11.944740 799.049988
485 0 1 10.771950 11.806780 798.218994
486 0 1 10.236250 11.777340 797.455017
487 0 1 9.576710 11.607759 796.778992
488 0 1 8.735665 11.425920 796.312012
489 0 1 7.795032 11.494801 796.375977
490 0 1 6.886640 11.162710 796.087036
491 0 1 6.146910 10.594950 795.757019
492 0 1 5.907000 10.040791 794.978027
493 0 1 5.585380 9.533760 794.135986
494 0 1 5.109680 9.265850 793.401001
495 0 1 4.894940 8.752480 792.627014
496 0 1 4.853480 8.592526 791.606018
497 0 1 4.832580 8.382721 790.674011
498 0 1 5.348800 8.056152 789.962036
499 0 1 6.086010 7.697691 789.367981
500 0 1 6.852830 7.395964 788.926025
501 0 1 7.545822 7.079650 788.283997
502 0 1 8.225441 7.069143 787.547974
503 0 1 8.891199 7.123132 786.849976
504 0 1 9.728090 7.353428 786.312988
505 0 1 10.606820 7.563693 785.848999
506 0 1 11.366961 7.847348 785.367004
507 0 1 12.058300 7.922748 784.684021
508 0 1 12.722150 8.032887 784.002014
509 0 1 13.112190 7.855111 783.132019
510 0 1 13.382401 7.610328 782.268982
511 0 1 13.796570 7.117871 781.630005
512 0 1 13.976339 6.603180 780.835999
513 0 1 14.068670 5.762050 780.252014
514 0 1 13.622710 5.114160 779.662964
515 0 1 12.815510 4.753020 779.450989
516 0 1 11.883580 4.520440 779.117981
517 0 1 10.944740 4.440410 778.934021
518 0 1 10.097980 4.117130 778.669006
519 0 1 9.144270 4.097300 778.385986
520 0 1 8.409889 4.252070 777.760010
521 0 1 7.830983 4.410440 777.033997
522 0 1 7.249774 4.634580 776.278992
523 0 1 6.997700 4.960940 775.388000
524 0 1 6.792900 5.412450 774.549988
525 0 1 6.710310 5.692290 773.646973
526 0 1 6.841580 6.127470 772.841003
527 0 1 6.836020 6.343600 771.947998
528 0 1 6.777450 6.585130 771.016968
529 0 1 6.389190 6.959750 770.245972
530 0 1 6.128620 7.633596 769.457031
531 0 1 5.868960 8.471023 768.999023
532 0 1 5.702650 9.036670 768.307983
533 0 1 5.643970 9.667570 767.583984
534 0 1 5.684180 9.924380 766.636963
535 0 1 5.935490 10.275690 765.656006
536 0 1 6.120970 10.604020 764.796021
537 0 1 6.406760 10.890730 763.900024
538 0 1 6.918390 11.314060 763.177979
539 0 1 7.485640 11.380270 762.414001
540 0 1 7.972892 11.474770 761.609985
541 0 1 8.278033 11.774170 760.713013
542 0 1 8.406111 12.241730 759.890015
543 0 1 8.800683 12.437469 759.025024
544 0 1 9.523340 12.466370 758.339966
545 0 1 10.257860 12.220250 757.797974
546 0 1 10.646130 12.102580 756.992004
547 0 1 11.233690 11.948400 756.306030
548 0 1 11.706230 11.346320 755.700012
549 0 1 12.043930 10.972370 754.872009
550 0 1 12.242030 10.634600 753.943970
551 0 1 12.252340 10.137960 753.023010
552 0 1 12.453190 9.533740 752.318970
553 0 1 12.509680 8.938751 751.593994
554 0 1 12.463610 8.535511 750.745972
555 0 1 12.265360 8.141603 749.823975
556 0 1 12.067770 7.723049 748.999023
557 0 1 11.579290 7.169635 748.333008
558 0 1 11.258420 6.622250 747.653992
559 0 1 11.147900 6.049150 746.794983
560 0 1 11.008160 5.567250 746.000000
561 0 1 10.761740 5.373510 745.132996
562 0 1 10.346581 5.160670 744.273010
563 0 1 10.063790 5.023910 743.349976
564 0 1 9.811670 4.983230 742.447021
565 0 1 9.375731 4.827880 741.658020
566 0 1 8.932951 4.898180 740.752991
567 0 1 8.433083 5.015600 739.990967
568 0 1 7.767837 5.237300 739.388977
569 0 1 7.033384 5.315110 738.763977
570 0 1 6.390790 5.339590 738.039978
571 0 1 5.858230 4.853010 737.434021
572 0 1 5.400620 4.355440 736.807007
573 0 1 5.090490 3.735270 736.184021
574 0 1 5.136920 3.144410 735.408997
575 0 1 4.957530 2.641580 734.601990
576 0 1 5.211330 2.464580 733.677002
577 0 1 5.363030 2.445400 732.721985
578 0 1 5.780350 2.418660 731.926025
579 0 1 6.183520 2.300060 731.078979
580 0 1 6.733420 1.985260 730.333984
581 0 1 7.173170 1.945070 729.414001
582 0 1 7.658876 1.677690 728.604980
583 0 1 7.882585 1.458310 727.718811
584 0 1 7.733103 1.553380 726.743225
585 0 1 7.569605 1.875100 725.823303
586 0 1 7.217728 2.182430 724.997498
587 0 1 6.594280 2.590010 724.349121
588 0 1 6.023420 2.888480 723.634216
589 0 1 5.873040 3.372780 722.826599
590 0 1 5.675720 3.887190 722.054077
591 0 1 5.794460 4.094700 721.114990
592 0 1 5.791840 4.172240 720.109619
593 0 1 5.832460 4.090600 719.121094
594 0 1 6.081860 4.159040 718.207397
595 0 1 6.439700 4.037460 717.380798
596 0 1 6.952700 3.984930 716.567200
597 0 1 7.252814 4.102670 715.626526
598 0 1 7.734714 4.138150 714.820312
599 0 1 8.180102 4.399230 713.977478
600 0 1 8.702328 4.438170 713.163574
601 0 1 9.135210 4.380860 712.288513
602 0 1 9.436880 4.486610 711.362488
603 0 1 9.771930 4.440870 710.430786
604 0 1 9.964050 4.635260 709.562500
605 0 1 10.113270 4.961720 708.678406
606 0 1 10.261050 5.063530 707.698975
607 0 1 10.153640 5.390140 706.778076
608 0 1 10.004010 5.731530 705.869812
609 0 1 10.163490 5.815420 704.908813
610 0 1 10.036040 5.942070 703.970398
611 0 1 10.229270 5.836120 703.008423
612 0 1 10.311580 5.738990 702.038086
613 0 1 10.391541 5.492530 701.092285
614 0 1 10.365340 5.157270 700.170105
615 0 1 10.553480 4.951090 699.260193
616 0 1 10.615760 4.671710 698.276184
617 0 1 10.513920 4.391670 697.353882
618 0 1 10.443800 4.171200 696.452209
619 0 1 10.315980 4.105370 695.488586
620 0 1 10.151580 3.791540 694.617188
621 0 1 9.829780 3.587280 693.710815
622 0 1 9.515330 3.935240 692.891479
623 0 1 9.022920 4.427990 692.243408
624 0 1 8.421091 4.920680 691.653381
625 0 1 7.960943 5.399940 690.950195
626 0 1 7.314500 5.707200 690.318787
627 0 1 6.559890 6.012780 689.792175
628 0 1 5.776170 6.291120 689.210388
629 0 1 5.204090 6.349600 688.474182
630 0 1 4.684260 6.485030 687.681885
631 0 1 4.000010 6.324590 687.083313
632 0 1 3.740680 5.982350 686.250793
633 0 1 3.534910 5.478460 685.502991
634 0 1 3.709660 5.089730 684.634705
635 0 1 3.811450 4.794370 683.627991
636 0 1 3.964820 4.789950 682.658569
637 0 1 4.144730 5.196250 681.806580
638 0 1 4.336430 5.653640 681.000122
639 0 1 4.416350 6.028210 680.156494
640 0 1 4.507130 6.455810 679.292480
641 0 1 4.806240 6.828980 678.374390
642 0 1 5.332780 7.373228 677.859985
643 0 1 6.009260 7.691711 677.277222
644 0 1 6.837720 8.083207 676.931030
645 0 1 7.470937 8.506561 676.418579
646 0 1 8.117287 8.915447 675.860596
647 0 1 8.752171 9.299350 675.261292
648 0 1 9.221480 9.957940 674.721313
649 0 1 9.331700 10.450220 673.940491
650 0 1 9.331690 10.881380 673.038696
651 0 1 9.257700 11.186131 672.149414
652 0 1 9.341650 11.340640 671.181396
653 0 1 9.139390 11.489670 670.196228
654 0 1 8.608914 11.799690 669.393494
655 0 1 8.194161 12.156930 668.533813
656 0 1 7.695382 12.241261 667.645203
657 0 1 7.326452 12.589080 666.842590
658 0 1 6.803860 13.208290 666.226685
659 0 1 6.418620 13.403390 665.313477
660 0 1 6.234350 13.464410 664.364197
661 0 1 6.232490 13.704030 663.367126
662 0 1 6.363490 13.522730 662.413025
663 0 1 6.219380 13.159201 661.508911
664 0 1 6.314050 12.910851 660.562500
665 0 1 6.152410 12.811380 659.544983
666 0 1 6.183070 12.961370 658.555603
667 0 1 6.286350 12.840680 657.655273
668 0 1 6.120210 12.636129 656.727173
669 0 1 5.958940 12.448230 655.844116
670 0 1 6.002310 12.190650 654.876404
671 0 1 5.848910 12.134080 653.923706
672 0 1 5.674820 12.189150 652.936584
673 0 1 5.393840 12.244670 651.981628
674 0 1 5.264380 12.182220 651.027283
675 0 1 4.957250 11.914570 650.135376
676 0 1 4.678330 11.467990 649.325684
677 0 1 4.449560 10.820730 648.603516
678 0 1 4.183340 10.114260 647.987122
679 0 1 4.171830 9.570000 647.219299
680 0 1 4.190840 9.006920 646.449585
681 0 1 4.131570 8.462268 645.596313
682 0 1 4.170890 8.166075 644.664490
683 0 1 4.244100 8.263178 643.729980
684 0 1 4.389940 8.205154 642.805481
685 0 1 4.460660 8.203985 641.879089
686 0 1 4.904570 8.231244 641.004700
687 0 1 5.460240 8.155270 640.228699
688 0 1 6.146360 7.923221 639.520874
689 0 1 6.917060 7.748521 638.906799
690 0 1 7.576857 7.456008 638.243774
691 0 1 8.086045 7.364001 637.413696
692 0 1 8.492569 7.332039 636.535400
693 0 1 9.026140 7.255043 635.669128
694 0 1 9.471280 6.958870 634.915527
695 0 1 9.777280 6.546980 634.158325
696 0 1 10.092840 5.974340 633.369934
697 0 1 10.532340 5.823910 632.561707
698 0 1 10.971300 5.767230 631.661316
699 0 1 11.216780 5.434710 630.847961
700 0 1 11.598900 5.169160 630.044006
701 0 1 12.093590 5.099550 629.200562
702 0 1 12.826361 4.989320 628.625488
703 0 1 13.334800 4.996740 627.766663
704 0 1 13.732611 5.139940 626.848328
705 0 1 13.631210 5.219000 625.819824
706 0 1 13.680320 5.305630 624.875061
707 0 1 13.506390 4.971020 623.976440
708 0 1 13.191299 4.694600 623.073059
709 0 1 12.738470 4.515060 622.221741
710 0 1 12.357630 4.236710 621.374939
711 0 1 11.776840 4.227260 620.564087
712 0 1 11.336550 4.365580 619.723572
713 0 1 10.599550 4.484520 619.060242
714 0 1 9.677840 4.641220 618.720642
715 0 1 8.793023 4.855580 618.293823
716 0 1 8.036239 5.298600 617.989685
717 0 1 7.171775 5.432520 617.459290
718 0 1 6.481270 5.389370 616.806702
719 0 1 5.926210 5.400530 615.959106
720 0 1 5.455690 5.775990 615.190491
721 0 1 5.196650 6.250100 614.385315
722 0 1 4.898370 6.751160 613.523071
723 0 1 4.656280 7.043850 612.652222
724 0 1 4.339450 7.032525 611.713684
725 0 1 4.468330 6.997470 610.768311
726 0 1 4.704160 7.073378 609.852722
727 0 1 5.101620 7.091938 608.955322
728 0 1 5.456670 7.329714 608.058411
729 0 1 5.710430 7.709612 607.218079
730 0 1 5.760470 8.016884 606.244507
731 0 1 5.697990 8.301429 605.315002
732 0 1 5.621020 8.558203 604.335022
733 0 1 5.573390 9.185710 603.617981
734 0 1 5.532840 9.693170 602.838318
735 0 1 5.237160 10.105391 602.061523
736 0 1 4.980770 10.488380 601.195129
737 0 1 4.928800 11.263770 600.645020
738 0 1 4.944230 11.783190 599.836792
739 0 1 4.728110 12.181971 598.979004
740 0 1 4.477670 12.402840 598.037109
741 0 1 4.443790 12.601430 597.046509
742 0 1 4.618850 12.866000 596.129578
743 0 1 4.818840 12.910650 595.251282
744 0 1 5.137100 13.295470 594.473694
745 0 1 5.517480 13.664209 593.725220
746 0 1 5.592680 13.954050 592.783997
747 0 1 5.788630 13.825080 591.853027
748 0 1 5.966640 13.401320 591.061096
749 0 1 6.122780 13.228650 590.133484
750 0 1 6.275910 13.139170 589.075500
751 0 1 6.427040 12.560500 588.323486
752 0 1 6.500740 12.003730 587.574585
753 0 1 6.293150 11.443800 586.868774
754 0 1 6.400580 10.912970 586.039795
755 0 1 6.426820 10.307520 585.206787
756 0 1 6.268930 9.621260 584.577820
757 0 1 5.846340 8.928016 584.024170
758 0 1 5.324700 8.415997 583.387329
759 0 1 5.118460 7.751264 582.657471
760 0 1 4.925440 7.345526 581.771606
761 0 1 4.734440 7.047331 580.909180
762 0 1 4.492780 6.844350 580.010193
763 0 1 4.227290 6.620880 579.089478
764 0 1 3.847030 6.514620 578.157227
765 0 1 3.573270 6.232650 577.351929
766 0 1 3.266780 5.897940 576.455627
767 0 1 3.271720 5.524570 575.600708
768 0 1 3.451690 5.285860 574.710327
769 0 1 3.439960 5.129530 573.773010
770 0 1 3.586400 5.023250 572.743591
771 0 1 3.676340 5.456430 571.952209
772 0 1 3.427090 5.987230 571.143982
773 0 1 3.532950 6.389650 570.269409
774 0 1 3.446940 6.874790 569.318726
775 0 1 3.417840 7.053269 568.315125
776 0 1 3.452980 7.249630 567.412292
777 0 1 3.697140 7.393872 566.481628
778 0 1 3.775600 7.254215 565.544373
779 0 1 3.913380 7.006369 564.668701
780 0 1 3.845300 6.456640 563.874268
781 0 1 3.936440 5.890360 563.063599
782 0 1 4.106890 5.645060 562.124817
783 0 1 4.319530 5.364120 561.170532
784 0 1 4.523480 4.865950 560.390991
785 0 1 4.664560 4.488010 559.478271
786 0 1 4.863120 4.180710 558.598511
787 0 1 5.325330 4.078080 557.739868
788 0 1 5.663240 3.640040 556.943420