LAMMPS data file via MDAnalysis

        1000  atoms
        1000  bonds
        1000  angles
           0  dihedrals
           0  impropers

           1  atom types
           1  bond types
           1  angle types
           0  dihedral types
           0  improper types

0.000000 16.000000 xlo xhi
0.000000 16.000000 ylo yhi
0.000000 1257.000000 zlo zhi


Masses

1 1.000000

Atoms

1 0 1 9.883680 3.343140 448.548004
2 0 1 9.408180 2.968320 449.315002
3 0 1 9.273630 2.726450 450.263000
4 0 1 9.108330 2.912210 451.160004
5 0 1 9.132030 3.087690 452.114990
6 0 1 9.177730 3.506820 452.983002
7 0 1 9.178460 3.739040 453.917999
8 0 1 8.888562 3.801460 454.906006
9 0 1 8.457758 3.663650 455.729004
10 0 1 8.019086 3.898040 456.544983
11 0 1 7.716031 4.088180 457.429016
12 0 1 7.324411 4.198290 458.320984
13 0 1 6.752980 4.440740 459.054993
14 0 1 6.132890 4.595230 459.720001
15 0 1 5.748520 4.873770 460.583008
16 0 1 5.473760 5.197720 461.424988
17 0 1 4.980170 5.598990 462.186005
18 0 1 4.705250 5.746130 463.148010
19 0 1 4.573330 6.032560 464.096008
20 0 1 4.475250 6.644940 464.791992
21 0 1 4.349230 7.084918 465.640015
22 0 1 4.218430 7.361573 466.563995
23 0 1 4.239200 7.601327 467.529999
24 0 1 4.335700 7.638889 468.526978
25 0 1 4.312850 7.935981 469.466980
26 0 1 4.502850 7.976083 470.471985
27 0 1 4.773010 7.812063 471.369995
28 0 1 5.132910 7.780003 472.205017
29 0 1 5.648410 7.502186 473.042999
30 0 1 6.308720 7.369355 473.755005
31 0 1 6.815330 7.364943 474.565002
32 0 1 7.060076 7.495876 475.463013
33 0 1 7.238746 7.671475 476.363007
34 0 1 7.458911 7.956890 477.335022
35 0 1 7.421157 8.036768 478.348022
36 0 1 7.336474 7.947978 479.326996
37 0 1 7.426567 8.052990 480.272003
38 0 1 7.518183 7.966325 481.210022
39 0 1 7.079182 7.699020 481.970001
40 0 1 6.740820 7.318320 482.712006
41 0 1 6.752070 6.714630 483.541992
42 0 1 7.020043 6.066640 484.292999
43 0 1 7.484048 5.678180 485.009003
44 0 1 7.731266 5.548560 485.921021
45 0 1 7.980427 5.531140 486.825012
46 0 1 8.146195 5.555590 487.850006
47 0 1 7.885383 5.349860 488.768982
48 0 1 7.964058 4.879630 489.598999
49 0 1 7.816792 4.501860 490.460999
50 0 1 7.897737 4.107460 491.408997
51 0 1 7.776897 3.787650 492.239014
52 0 1 7.613402 3.689910 493.203003
53 0 1 7.246386 3.824010 494.101990
54 0 1 6.906620 4.328010 494.906982
55 0 1 7.023181 4.731000 495.792999
56 0 1 6.924550 5.197640 496.580994
57 0 1 6.616990 5.795390 497.294983
58 0 1 6.047330 6.193270 497.968994
59 0 1 5.326140 6.337640 498.596008
60 0 1 4.874380 6.936530 499.268005
61 0 1 4.680140 7.741707 499.768005
62 0 1 4.395930 8.435085 500.369019
63 0 1 4.306620 9.051430 501.132996
64 0 1 4.184280 9.390650 502.018005
65 0 1 4.087290 9.778290 502.884003
66 0 1 3.739310 9.800640 503.841003
67 0 1 3.567160 10.078750 504.843018
68 0 1 3.071080 10.137370 505.669006
69 0 1 2.857350 9.839420 506.550995
70 0 1 2.656130 9.374440 507.365997
71 0 1 2.627930 8.994585 508.221008
72 0 1 2.930340 8.546121 509.056000
73 0 1 3.278660 8.173938 509.919983
74 0 1 3.545660 7.838825 510.825012
75 0 1 3.864160 7.534236 511.671997
76 0 1 4.263490 7.843574 512.557983
77 0 1 4.651570 8.083452 513.403992
78 0 1 5.176620 8.305934 514.190979
79 0 1 5.610150 8.507042 515.013000
80 0 1 5.914660 8.427195 515.939026
81 0 1 6.378040 8.188739 516.747986
82 0 1 6.707680 7.695079 517.557983
83 0 1 7.214648 7.503661 518.312012
84 0 1 7.589175 7.361759 519.143982
85 0 1 7.720918 7.319414 520.068970
86 0 1 7.536722 6.946790 520.916016
87 0 1 7.203744 6.453130 521.612000
88 0 1 6.760160 5.928490 522.336975
89 0 1 6.282090 5.684930 523.112000
90 0 1 5.980510 5.777430 524.059998
91 0 1 5.473790 5.964820 524.875977
92 0 1 5.089570 6.007730 525.754028
93 0 1 4.662170 6.043840 526.645020
94 0 1 4.232360 5.962280 527.483032
95 0 1 3.665020 6.109840 528.307007
96 0 1 3.404240 6.093120 529.315918
97 0 1 3.154280 6.139650 530.245789
98 0 1 3.292910 6.317860 531.187988
99 0 1 3.121950 6.262900 532.150269
100 0 1 2.694840 6.449100 532.978088
101 0 1 2.432330 6.487410 533.855469
102 0 1 2.254690 6.891860 534.723022
103 0 1 2.006810 7.282797 535.546326
104 0 1 2.122090 7.613154 536.466003
105 0 1 2.090870 8.022390 537.301575
106 0 1 2.002070 8.395307 538.213867
107 0 1 1.947120 8.824936 539.082275
108 0 1 1.995650 9.193730 539.974976
109 0 1 2.423590 9.594340 540.794617
110 0 1 2.778010 10.177340 541.449707
111 0 1 3.221790 10.681499 542.043518
112 0 1 3.801850 10.981750 542.734985
113 0 1 4.335230 11.512510 543.407776
114 0 1 4.843890 11.833920 544.192383
115 0 1 5.330170 12.186279 544.958191
116 0 1 5.793120 12.386230 545.827576
117 0 1 6.150510 12.467690 546.743774
118 0 1 6.457510 12.280630 547.634399
119 0 1 6.460870 12.204360 548.588684
120 0 1 6.277600 12.294320 549.530579
121 0 1 6.285100 12.046450 550.503479
122 0 1 6.528230 11.595449 551.360596
123 0 1 6.914860 11.372090 552.200317
124 0 1 7.539212 10.984690 552.841431
125 0 1 8.011460 10.653100 553.661804
126 0 1 8.606711 10.665520 554.410095
127 0 1 8.878282 10.351419 555.271484
128 0 1 8.705593 9.960370 556.118591
129 0 1 8.659285 9.555280 556.984131
130 0 1 8.328042 9.532860 557.915283
131 0 1 8.273657 9.796680 558.838074
132 0 1 8.135619 10.063380 559.742676
133 0 1 7.816468 10.426050 560.575195
134 0 1 7.508397 10.556860 561.450195
135 0 1 7.340933 10.642860 562.416321
136 0 1 7.149437 10.730220 563.354004
137 0 1 7.021905 10.669640 564.343872
138 0 1 7.150891 10.396210 565.309021
139 0 1 6.955240 10.132010 566.270386
140 0 1 6.772310 10.001560 567.157410
141 0 1 6.750760 10.049500 568.114990
142 0 1 6.787270 10.002131 569.139526
143 0 1 6.983730 9.885320 570.054504
144 0 1 7.059995 9.496930 570.901001
145 0 1 7.110619 9.267090 571.822815
146 0 1 7.549351 9.067860 572.678772
147 0 1 8.069813 9.039850 573.440002
148 0 1 8.946427 8.928188 573.929382
149 0 1 9.726200 9.108070 574.551270
150 0 1 10.479580 8.957474 575.032593
151 0 1 11.260080 8.785720 575.541626
152 0 1 11.557060 8.869250 576.520630
153 0 1 11.739940 8.836397 577.460205
154 0 1 12.029580 8.878749 578.365601
155 0 1 12.453859 9.168520 579.149475
156 0 1 12.870890 9.450500 580.019104
157 0 1 13.156570 9.779740 580.886902
158 0 1 13.444139 9.480780 581.815430
159 0 1 13.565050 9.068670 582.673584
160 0 1 13.261209 8.756274 583.542908
161 0 1 12.747520 8.301807 584.322021
162 0 1 12.072969 8.203004 585.055298
163 0 1 11.516211 7.724376 585.772522
164 0 1 11.067940 7.542483 586.658325
165 0 1 10.640930 7.531260 587.532227
166 0 1 10.128880 7.426924 588.417114
167 0 1 9.684240 7.222755 589.279480
168 0 1 9.100110 6.885020 590.005615
169 0 1 8.559576 6.786990 590.780396
170 0 1 8.181594 6.459810 591.609192
171 0 1 7.979578 6.299030 592.492126
172 0 1 8.068356 6.261190 593.468201
173 0 1 7.968987 6.200980 594.421875
174 0 1 7.836018 6.211360 595.415222
175 0 1 7.904093 6.218440 596.396790
176 0 1 7.905859 5.815530 597.291992
177 0 1 7.765353 5.730080 598.223694
178 0 1 7.480390 5.700130 599.159729
179 0 1 7.361241 5.437020 600.140686
180 0 1 7.317501 5.433420 601.123779
181 0 1 7.152659 5.354930 602.036377
182 0 1 6.898420 5.204940 602.984131
183 0 1 6.805210 5.445920 603.957275
184 0 1 6.839830 5.724800 604.923401
185 0 1 6.754970 6.051600 605.841309
186 0 1 6.540940 6.629180 606.563416
187 0 1 6.247890 7.208580 607.303223
188 0 1 5.977350 7.913743 607.920471
189 0 1 5.727350 8.252086 608.768616
190 0 1 5.441320 8.254273 609.650879
191 0 1 5.120450 7.743369 610.432800
192 0 1 4.881680 7.165717 611.144531
193 0 1 4.625230 6.716930 611.889587
194 0 1 4.081520 6.259320 612.571228
195 0 1 3.805750 6.054190 613.455383
196 0 1 3.794480 6.094140 614.390869
197 0 1 3.659260 5.929700 615.364685
198 0 1 3.968260 5.950470 616.328674
199 0 1 4.073860 6.201180 617.286194
200 0 1 4.140710 6.317480 618.199890
201 0 1 4.606140 6.529260 619.034241
202 0 1 5.142240 6.829680 619.754883
203 0 1 5.761860 7.099713 620.416992
204 0 1 6.271270 7.214768 621.280762
205 0 1 6.683590 7.482718 622.087891
206 0 1 7.182445 7.592087 622.931335
207 0 1 7.614829 8.090484 623.643433
208 0 1 8.170235 8.522310 624.267029
209 0 1 8.761472 8.868252 624.938660
210 0 1 9.399090 9.399010 625.460205
211 0 1 9.995290 9.453870 626.164917
212 0 1 10.507999 9.179520 626.960693
213 0 1 10.990400 8.878739 627.683044
214 0 1 11.498760 8.809159 628.503052
215 0 1 12.156080 8.717399 629.189697
216 0 1 12.808790 8.980814 629.842163
217 0 1 13.299100 8.802092 630.665710
218 0 1 13.571590 8.652719 631.603699
219 0 1 13.928619 8.773234 632.513245
220 0 1 14.064631 8.910592 633.494080
221 0 1 14.037399 9.302600 634.374817
222 0 1 13.806610 9.648820 635.329102
223 0 1 13.432560 9.826660 636.165283
224 0 1 13.082590 9.550990 637.036804
225 0 1 13.063950 9.337090 637.927490
226 0 1 13.019489 9.212910 638.877380
227 0 1 12.985340 8.811600 639.694885
228 0 1 13.029070 8.435293 640.629272
229 0 1 13.310080 7.948345 641.401428
230 0 1 13.695320 7.543161 642.130371
231 0 1 13.914090 7.126283 643.042603
232 0 1 13.683570 6.703580 643.906189
233 0 1 13.483540 6.117800 644.635315
234 0 1 13.636650 5.451160 645.333313
235 0 1 13.648640 4.912030 646.172485
236 0 1 13.385710 4.596970 647.003113
237 0 1 13.041110 4.238310 647.845520
238 0 1 12.544870 4.076860 648.670288
239 0 1 11.911260 4.159850 649.473877
240 0 1 11.348289 4.326720 650.369690
241 0 1 10.953730 4.542270 651.192017
242 0 1 10.451139 4.746650 652.046387
243 0 1 9.969950 5.142980 652.857605
244 0 1 9.400840 5.573500 653.432190
245 0 1 8.831404 5.694960 654.130188
246 0 1 8.103152 5.639720 654.760681
247 0 1 7.477235 5.658030 655.470276
248 0 1 6.964730 5.737740 656.251404
249 0 1 6.755590 5.580670 657.168213
250 0 1 6.426840 5.715190 658.063904
251 0 1 6.375190 5.717010 659.049927
252 0 1 6.320270 5.918600 659.970398
253 0 1 6.257880 6.222760 660.893982
254 0 1 6.283630 6.391580 661.833984
255 0 1 6.213890 6.782970 662.743713
256 0 1 5.955840 6.761900 663.734375
257 0 1 5.795910 6.805670 664.658691
258 0 1 5.358240 6.545990 665.454407
259 0 1 4.912940 6.527660 666.276794
260 0 1 4.404630 6.185680 667.054199
261 0 1 4.108870 5.885050 667.935181
262 0 1 3.926650 5.637750 668.798523
263 0 1 3.514830 5.457170 669.652527
264 0 1 3.298700 5.318980 670.632812
265 0 1 3.156250 5.122260 671.584290
266 0 1 3.081730 5.202630 672.511719
267 0 1 3.009430 5.647060 673.424988
268 0 1 2.950740 6.053150 674.251282
269 0 1 3.105420 6.304880 675.145508
270 0 1 3.065710 6.486610 676.093689
271 0 1 2.886920 6.877990 676.992188
272 0 1 2.782400 7.290357 677.793579
273 0 1 3.213170 7.885421 678.371704
274 0 1 3.548060 8.464479 679.054077
275 0 1 3.870290 8.969465 679.794678
276 0 1 4.168010 9.552070 680.548706
277 0 1 4.298080 10.042440 681.437012
278 0 1 4.549840 10.543921 682.291870
279 0 1 4.622460 10.862480 683.231689
280 0 1 5.014370 11.083910 684.104797
281 0 1 5.157740 11.367910 684.996216
282 0 1 5.204500 11.566810 685.873901
283 0 1 5.250670 11.414110 686.814575
284 0 1 5.647880 11.387140 687.725891
285 0 1 6.078370 11.459490 688.588379
286 0 1 6.544770 11.346760 689.386597
287 0 1 7.205520 11.288490 690.173279
288 0 1 7.818177 11.197910 690.873901
289 0 1 8.485210 11.077320 691.478821
290 0 1 9.157520 10.814580 692.154602
291 0 1 9.757330 10.348260 692.753601
292 0 1 10.425760 10.065950 693.365173
293 0 1 10.865030 9.989700 694.205994
294 0 1 11.345470 9.795550 694.986572
295 0 1 11.543080 9.470890 695.859192
296 0 1 12.097090 9.253770 696.609802
297 0 1 12.432940 8.768270 697.496887
298 0 1 12.740561 8.406604 698.336914
299 0 1 13.009570 8.450632 699.229370
300 0 1 13.333700 8.602161 700.103271
301 0 1 13.071341 8.830329 701.025391
302 0 1 12.479700 8.828527 701.767822
303 0 1 11.909470 8.809819 702.588013
304 0 1 11.353500 8.661626 703.376709
305 0 1 10.744550 8.476912 704.050476
306 0 1 10.004110 8.531527 704.670532
307 0 1 9.495620 8.548737 705.491089
308 0 1 9.039160 8.866929 706.277283
309 0 1 8.629345 9.275280 707.014526
310 0 1 8.159769 9.487220 707.790710
311 0 1 7.751818 9.808370 708.624207
312 0 1 7.329953 10.269920 709.413513
313 0 1 6.708170 10.491010 710.051819
314 0 1 6.275820 10.712890 710.824890
315 0 1 6.082270 10.865040 711.734009
316 0 1 5.828950 10.823120 712.635315
317 0 1 5.857430 10.731510 713.583313
318 0 1 5.958710 10.969350 714.548889
319 0 1 6.098360 10.975060 715.608582
320 0 1 5.958220 11.060420 716.602173
321 0 1 5.948100 11.038330 717.531799
322 0 1 6.122010 11.275900 718.409424
323 0 1 6.113140 11.309330 719.360474
324 0 1 6.321470 11.623060 720.209778
325 0 1 6.634700 11.702070 721.174500
326 0 1 6.781870 11.319310 722.026978
327 0 1 6.807700 10.918090 722.921875
328 0 1 6.318530 10.782391 723.721619
329 0 1 5.929550 10.847620 724.579712
330 0 1 5.624740 11.014420 725.447632
331 0 1 5.659320 11.254060 726.369202
332 0 1 5.780820 11.423080 727.386597
333 0 1 6.024940 11.554370 728.254211
334 0 1 5.923340 11.495380 729.221985
335 0 1 6.047460 11.239270 730.117004
336 0 1 6.065240 10.900900 730.992004
337 0 1 6.099700 10.555000 731.987976
338 0 1 6.320570 10.378310 732.981995
339 0 1 6.562470 10.291650 733.859985
340 0 1 6.786680 10.144450 734.841003
341 0 1 6.841240 9.974760 735.792969
342 0 1 7.341450 9.866920 736.643982
343 0 1 7.611199 9.457060 737.494019
344 0 1 7.859392 8.909093 738.250977
345 0 1 7.924090 8.566408 739.129028
346 0 1 8.252541 8.155975 739.919983
347 0 1 8.755005 7.916825 740.690002
348 0 1 9.358950 7.752032 741.403992
349 0 1 9.932360 7.677887 742.163025
350 0 1 10.722970 7.612112 742.830017
351 0 1 11.285140 7.406277 743.575989
352 0 1 11.554640 7.247422 744.494995
353 0 1 11.835470 7.125693 745.419006
354 0 1 12.141930 7.220255 746.296997
355 0 1 12.637190 7.169766 747.160034
356 0 1 13.024660 7.277050 748.030029
357 0 1 13.244320 7.433579 749.020020
358 0 1 13.646231 7.645707 749.947021
359 0 1 13.908051 7.986196 750.841980
360 0 1 14.510981 8.104173 751.572021
361 0 1 14.763081 7.866808 752.455017
362 0 1 14.831750 7.909901 753.429016
363 0 1 14.566980 8.247593 754.278015
364 0 1 14.052580 8.422805 755.020996
365 0 1 13.360860 8.578312 755.693970
366 0 1 12.803520 8.526597 756.437988
367 0 1 12.226760 8.640821 757.296997
368 0 1 11.838850 8.645855 758.219971
369 0 1 11.579240 8.777614 759.166016
370 0 1 11.332730 8.702435 760.136963
371 0 1 10.938680 8.658978 761.049988
372 0 1 10.665720 9.342790 761.684998
373 0 1 10.603320 10.058210 762.330017
374 0 1 10.709390 10.624550 763.158020
375 0 1 10.654690 11.219090 763.877991
376 0 1 10.310810 11.356280 764.799011
377 0 1 10.001280 11.362980 765.719971
378 0 1 9.637609 11.151330 766.589966
379 0 1 9.315990 10.869280 767.434998
380 0 1 9.058969 10.954160 768.364014
381 0 1 8.808859 11.228610 769.286011
382 0 1 8.603218 11.294310 770.213989
383 0 1 8.160126 11.077209 771.065002
384 0 1 7.782039 10.929040 771.950989
385 0 1 7.714670 10.725550 772.937988
386 0 1 7.542395 10.198960 773.728027
387 0 1 7.091765 9.473400 774.252014
388 0 1 6.712050 8.765658 774.740967
389 0 1 6.470370 7.919986 775.153992
390 0 1 6.338200 7.138711 775.643982
391 0 1 6.152350 6.322990 776.093018
392 0 1 5.691160 5.805500 776.759033
393 0 1 5.503110 5.187300 777.401001
394 0 1 5.417960 4.656270 778.127014
395 0 1 5.375920 4.217720 778.969971
396 0 1 5.274160 3.772330 779.832031
397 0 1 4.835710 3.521860 780.677979
398 0 1 4.407900 3.386150 781.468018
399 0 1 4.016200 3.356060 782.343018
400 0 1 3.941860 3.283300 783.299011
401 0 1 3.976310 3.381500 784.343994
402 0 1 3.863440 3.750380 785.265015
403 0 1 3.775880 4.036720 786.151001
404 0 1 4.107310 4.099010 787.067017
405 0 1 4.494100 3.987340 787.942993
406 0 1 4.777100 3.779840 788.856018
407 0 1 4.923160 4.109210 789.690979
408 0 1 5.192380 4.450320 790.537964
409 0 1 5.526290 4.973170 791.307983
410 0 1 6.178410 5.236340 791.942017
411 0 1 6.846900 5.138960 792.695984
412 0 1 7.495730 4.937600 793.431030
413 0 1 7.778359 4.657790 794.363037
414 0 1 7.826883 4.465090 795.317993
415 0 1 7.977796 4.066730 796.221008
416 0 1 8.107470 3.655080 797.052002
417 0 1 8.036708 3.618330 797.979980
418 0 1 8.156197 3.515170 798.921997
419 0 1 8.197675 3.677020 799.858032
420 0 1 8.087309 3.951650 800.818970
421 0 1 7.787567 4.045150 801.705017
422 0 1 7.685333 4.100310 802.690002
423 0 1 7.460098 4.014130 803.570007
424 0 1 7.009492 3.805680 804.372009
425 0 1 6.743680 3.838310 805.250000
426 0 1 6.686640 3.996510 806.192993
427 0 1 6.621340 3.917500 807.150024
428 0 1 6.363500 3.757590 808.083008
429 0 1 6.013130 3.614500 808.947021
430 0 1 5.732080 3.670120 809.877014
431 0 1 5.661220 3.626560 810.867981
432 0 1 5.667570 3.476500 811.797974
433 0 1 5.615450 3.329790 812.799011
434 0 1 5.350050 3.138980 813.653992
435 0 1 5.079530 2.925910 814.544006
436 0 1 5.231600 2.834950 815.471985
437 0 1 5.639120 2.880990 816.297974
438 0 1 5.947770 2.799840 817.261963
439 0 1 6.095030 2.952210 818.177002
440 0 1 6.342140 2.906470 819.124023
441 0 1 6.321110 2.819910 820.085999
442 0 1 6.620940 2.877420 821.044006
443 0 1 6.843570 2.659380 821.958008
444 0 1 7.432896 2.490900 822.698975
445 0 1 8.015134 2.364330 823.429993
446 0 1 8.312763 2.499980 824.408997
447 0 1 8.519303 2.651220 825.375000
448 0 1 8.442466 2.570590 826.348022
449 0 1 8.604940 2.394360 827.238037
450 0 1 8.760788 2.270960 828.212036
451 0 1 8.670341 2.544590 829.134033
452 0 1 8.509770 2.647520 830.113037
453 0 1 8.412271 3.062140 830.989014
454 0 1 8.382055 3.580870 831.734985
455 0 1 8.182740 3.970410 832.580017
456 0 1 7.752829 4.074050 833.492004
457 0 1 7.216771 4.118590 834.266968
458 0 1 6.655080 4.347580 834.971008
459 0 1 6.211080 4.539540 835.764038
460 0 1 6.239860 5.152170 836.515015
461 0 1 6.113300 5.826810 837.117981
462 0 1 6.251640 6.540370 837.674988
463 0 1 6.369960 7.284004 838.213989
464 0 1 6.424860 8.129387 838.703003
465 0 1 6.424670 9.033560 839.101013
466 0 1 6.071920 9.869030 839.338013
467 0 1 6.005070 10.745340 839.708008
468 0 1 6.046200 11.679240 839.542969
469 0 1 6.261010 12.475320 838.971008
470 0 1 6.438860 13.161290 838.327026
471 0 1 6.649260 13.703180 837.552979
472 0 1 6.926980 14.027740 836.734985
473 0 1 7.127792 14.070760 835.806030
474 0 1 7.479185 14.217330 834.911011
475 0 1 7.843834 14.094980 833.924988
476 0 1 8.375803 13.970140 833.078003
477 0 1 9.046290 13.681470 832.500977
478 0 1 9.458400 13.193720 831.818970
479 0 1 9.877700 13.038790 831.004028
480 0 1 10.287930 12.997990 830.148987
481 0 1 10.276011 12.596930 829.252991
482 0 1 10.300290 12.055090 828.505005
483 0 1 10.453640 11.474440 827.651978
484 0 1 10.832750 11.085390 826.817017
485 0 1 10.835600 10.611100 825.979004
486 0 1 10.717900 10.165700 825.143982
487 0 1 10.235490 9.654160 824.452026
488 0 1 9.907910 9.145530 823.684021
489 0 1 9.501431 8.787281 822.854980
490 0 1 9.465180 8.496987 821.903015
491 0 1 9.544890 8.311124 820.973022
492 0 1 9.823071 8.042909 820.051025
493 0 1 10.060850 7.753955 819.164978
494 0 1 10.646290 7.407568 818.398010
495 0 1 10.953420 7.013594 817.544983
496 0 1 11.396851 6.697940 816.679993
497 0 1 11.960260 6.426330 815.919983
498 0 1 12.361589 6.178020 815.078003
499 0 1 12.514650 6.133870 814.179016
500 0 1 12.708630 6.106380 813.234985
501 0 1 12.635560 5.905540 812.325989
502 0 1 12.594370 5.578170 811.455994
503 0 1 12.383350 5.048530 810.676025
504 0 1 11.810260 4.629620 810.124023
505 0 1 11.165260 4.164300 809.478027
506 0 1 10.675140 4.148780 808.624023
507 0 1 10.183290 4.327540 807.688965
508 0 1 9.827500 4.669510 806.853027
509 0 1 9.174660 4.817970 806.140991
510 0 1 8.649465 5.178800 805.457031
511 0 1 8.059329 5.468770 804.773010
512 0 1 7.499144 5.686410 803.978027
513 0 1 7.038262 5.694400 803.088013
514 0 1 6.532150 5.750470 802.289978
515 0 1 5.969790 5.718140 801.556030
516 0 1 5.325980 5.650020 800.862000
517 0 1 4.733130 5.271660 800.200012
518 0 1 4.227640 4.953210 799.447998
519 0 1 3.955470 4.882920 798.510986
520 0 1 3.602790 4.912200 797.635986
521 0 1 3.586750 5.274350 796.761963
522 0 1 3.547350 5.639010 795.809021
523 0 1 4.086290 5.991220 794.966003
524 0 1 4.610030 6.530920 794.328003
525 0 1 5.174020 7.179799 793.799011
526 0 1 5.302360 7.786208 793.087036
527 0 1 5.503690 8.233006 792.268005
528 0 1 6.011020 8.596993 791.448975
529 0 1 6.508890 9.034130 790.752014
530 0 1 6.864750 9.355810 789.864014
531 0 1 7.123285 9.509480 788.971008
532 0 1 7.399847 9.688140 788.063965
533 0 1 7.519913 9.889350 787.122009
534 0 1 7.566395 10.088449 786.166992
535 0 1 7.768993 10.360510 785.257996
536 0 1 8.233554 10.668300 784.488037
537 0 1 8.444694 10.818560 783.497986
538 0 1 8.600623 10.778800 782.596008
539 0 1 8.730743 10.703890 781.598999
540 0 1 8.879866 10.531840 780.630981
541 0 1 8.835146 10.471720 779.630005
542 0 1 8.764081 10.271270 778.687988
543 0 1 8.999334 10.086840 777.770020
544 0 1 8.926811 10.061960 776.781982
545 0 1 8.720912 9.806100 775.900024
546 0 1 8.586835 9.714870 774.936035
547 0 1 8.555691 9.588880 773.953979
548 0 1 8.450975 9.409180 773.063965
549 0 1 7.996879 9.216910 772.257019
550 0 1 7.425596 9.246550 771.488037
551 0 1 6.943880 9.263740 770.697998
552 0 1 6.606440 9.222470 769.832031
553 0 1 6.201220 9.172910 768.979980
554 0 1 6.116130 9.237870 768.031006
555 0 1 6.014100 9.382930 767.072998
556 0 1 6.060670 9.570120 766.117981
557 0 1 6.347460 9.503620 765.145996
558 0 1 6.354380 9.607390 764.239014
559 0 1 6.642730 9.459949 763.354980
560 0 1 7.206974 9.329410 762.562012
561 0 1 7.731634 9.171880 761.760986
562 0 1 7.959404 9.197810 760.804993
563 0 1 8.056151 9.104680 759.880005
564 0 1 8.410863 9.133480 759.000000
565 0 1 8.435443 9.116950 758.075989
566 0 1 8.841323 9.054180 757.192017
567 0 1 9.394250 8.918929 756.461975
568 0 1 9.692120 8.527700 755.653015
569 0 1 10.052340 7.859931 754.971985
570 0 1 10.706680 7.356203 754.439026
571 0 1 11.111210 7.080166 753.653992
572 0 1 11.541719 6.837740 752.739990
573 0 1 11.994101 6.572240 751.997009
574 0 1 12.283100 6.214630 751.035034
575 0 1 12.377649 5.924400 750.075989
576 0 1 12.505330 5.735420 749.169006
577 0 1 12.631880 5.558100 748.187988
578 0 1 12.671471 5.398410 747.286011
579 0 1 12.682770 5.240670 746.242004
580 0 1 12.572770 5.054950 745.304016
581 0 1 12.618700 5.179850 744.393982
582 0 1 12.692850 5.407160 743.424011
583 0 1 12.564370 5.494250 742.452026
584 0 1 12.214130 5.614390 741.598022
585 0 1 11.745831 5.880430 740.729980
586 0 1 11.335130 6.329830 739.971985
587 0 1 11.131560 6.889490 739.244019
588 0 1 11.185180 7.182149 738.377014
589 0 1 11.225530 7.412557 737.442017
590 0 1 11.268539 7.673705 736.421021
591 0 1 11.396310 7.973966 735.531006
592 0 1 11.689939 8.089408 734.588013
593 0 1 11.924940 8.436533 733.646973
594 0 1 12.001600 8.550979 732.713989
595 0 1 11.719920 8.517671 731.833984
596 0 1 11.757510 8.650117 730.851990
597 0 1 11.744940 8.852464 729.953003
598 0 1 12.034760 9.011720 729.068970
599 0 1 12.288870 9.216880 728.107300
600 0 1 12.357309 9.442850 727.181396
601 0 1 12.181440 9.819690 726.326172
602 0 1 11.933559 9.995040 725.442688
603 0 1 11.572741 10.013309 724.528931
604 0 1 10.910049 10.006450 723.780701
605 0 1 10.149620 10.012730 723.210205
606 0 1 9.425130 9.967090 722.499634
607 0 1 9.048550 9.790880 721.686890
608 0 1 8.770839 9.689370 720.760498
609 0 1 8.443704 9.390680 719.892395
610 0 1 8.153738 9.095920 718.990417
611 0 1 8.035673 9.058910 717.999268
612 0 1 7.628145 8.893057 717.113586
613 0 1 7.377331 8.753011 716.199829
614 0 1 7.438981 8.688979 715.257812
615 0 1 7.456312 8.635265 714.242004
616 0 1 7.186034 8.663614 713.288574
617 0 1 6.973600 8.378537 712.429810
618 0 1 6.770900 8.091219 711.508118
619 0 1 6.468180 8.069077 710.570068
620 0 1 6.102110 8.272103 709.750366
621 0 1 5.812310 8.349373 708.835327
622 0 1 5.467100 8.287111 707.977173
623 0 1 5.079180 8.412638 707.088501
624 0 1 4.524200 8.671890 706.416504
625 0 1 4.198310 8.964137 705.600220
626 0 1 3.939340 9.099751 704.699097
627 0 1 4.218320 9.502260 703.849976
628 0 1 4.001980 9.732010 702.938416
629 0 1 3.970880 9.698320 701.977905
630 0 1 4.195340 9.745070 701.031921
631 0 1 4.512820 9.587049 700.033203
632 0 1 4.421400 9.692660 699.054504
633 0 1 4.355830 9.798480 698.109375
634 0 1 4.524030 9.634590 697.187805
635 0 1 4.843530 9.578300 696.266907
636 0 1 5.139010 9.448580 695.299927
637 0 1 5.429690 9.517330 694.348267
638 0 1 5.726970 9.264990 693.478027
639 0 1 6.262060 8.775136 692.834229
640 0 1 6.797660 8.358808 692.122681
641 0 1 7.364484 8.330686 691.365417
642 0 1 7.908974 8.268074 690.530212
643 0 1 8.091017 8.074419 689.627991
644 0 1 8.334416 7.832974 688.635803
645 0 1 8.449283 7.323935 687.854004
646 0 1 8.391746 6.953200 687.006409
647 0 1 7.946440 6.561690 686.242004
648 0 1 7.545312 6.634370 685.354980
649 0 1 7.039144 6.872010 684.588074
650 0 1 6.789830 6.952270 683.677368
651 0 1 6.469800 7.157213 682.744202
652 0 1 6.393560 7.332923 681.825684
653 0 1 6.272690 7.534550 680.950989
654 0 1 6.302120 7.898079 680.013672
655 0 1 6.231890 8.211481 679.099731
656 0 1 6.336900 8.133574 678.126892
657 0 1 6.118360 8.155120 677.165283
658 0 1 5.881420 8.589062 676.345825
659 0 1 5.441890 8.903906 675.540283
660 0 1 5.415610 9.216311 674.622620
661 0 1 5.290250 9.558661 673.733887
662 0 1 5.215850 9.846680 672.771973
663 0 1 5.291560 10.084080 671.710205
664 0 1 5.575710 10.473050 670.883179
665 0 1 5.834300 10.601950 669.965881
666 0 1 6.104680 10.614870 669.022888
667 0 1 6.424970 10.770110 668.124695
668 0 1 7.124218 11.101110 667.465881
669 0 1 7.932289 11.409850 667.007874
670 0 1 8.676334 11.491910 666.491394
671 0 1 9.339410 11.418600 665.816589
672 0 1 10.051520 11.170120 665.194702
673 0 1 10.380870 11.021410 664.236084
674 0 1 10.332310 10.972190 663.258179
675 0 1 10.270700 11.022610 662.268188
676 0 1 9.790330 10.797810 661.502319
677 0 1 9.385270 10.807671 660.611877
678 0 1 9.025360 10.500771 659.754272
679 0 1 8.817000 10.200871 658.876831
680 0 1 8.552486 9.995360 657.999023
681 0 1 8.333557 9.622610 657.139099
682 0 1 8.074480 9.260400 656.280701
683 0 1 7.914498 8.921704 655.377808
684 0 1 7.720837 8.743194 654.440918
685 0 1 7.642993 8.755482 653.505615
686 0 1 7.228541 8.737459 652.659973
687 0 1 6.774150 8.707667 651.790405
688 0 1 6.205670 8.669054 650.966431
689 0 1 5.558720 8.949578 650.157104
690 0 1 5.020980 9.183590 649.436279
691 0 1 4.638230 9.513590 648.640686
692 0 1 4.477410 10.173880 647.895020
693 0 1 4.514450 10.629090 647.043396
694 0 1 4.578550 10.920400 646.163879
695 0 1 4.519930 11.191510 645.240784
696 0 1 4.395280 11.531720 644.296326
697 0 1 4.326270 11.545860 643.313171
698 0 1 4.406390 11.569560 642.346008
699 0 1 4.598430 11.485450 641.427673
700 0 1 4.684690 11.230480 640.480591
701 0 1 4.497230 11.151540 639.528198
702 0 1 4.453020 10.618350 638.676025
703 0 1 4.426190 10.044730 637.919983
704 0 1 4.254850 9.465960 637.159546
705 0 1 4.251030 8.855140 636.327637
706 0 1 4.206280 8.390344 635.404785
707 0 1 4.072360 8.053836 634.536987
708 0 1 3.827110 7.864776 633.662231
709 0 1 3.576130 7.764162 632.700439
710 0 1 3.462910 7.591171 631.691345
711 0 1 3.458970 7.231662 630.812012
712 0 1 3.436400 7.296265 629.824768
713 0 1 3.509320 7.329951 628.841431
714 0 1 3.810030 7.487774 627.916443
715 0 1 4.384950 7.688695 627.152771
716 0 1 4.936380 8.063664 626.477783
717 0 1 5.577800 8.107129 625.749939
718 0 1 6.027770 8.324661 624.875549
719 0 1 6.467240 8.473524 624.015625
720 0 1 6.794000 8.937463 623.133423
721 0 1 7.240382 9.038230 622.308350
722 0 1 7.715089 9.225590 621.425110
723 0 1 8.117134 9.554350 620.610291
724 0 1 8.239337 9.951630 619.716248
725 0 1 8.519663 10.079340 618.801697
726 0 1 8.689163 10.343530 617.914185
727 0 1 8.475266 10.542910 616.993530
728 0 1 8.487188 10.535370 615.989990
729 0 1 8.481321 10.625800 615.008606
730 0 1 8.385197 10.884040 614.045776
731 0 1 8.436786 11.282210 613.152100
732 0 1 8.577537 11.927110 612.425598
733 0 1 8.891291 12.505751 611.616577
734 0 1 9.447420 12.831720 610.920410
735 0 1 10.127420 13.088800 610.316528
736 0 1 10.669930 13.145200 609.544128
737 0 1 10.923910 13.095850 608.612305
738 0 1 11.065240 12.959610 607.697571
739 0 1 11.311640 12.908400 606.702820
740 0 1 11.374350 12.835381 605.716431
741 0 1 11.395330 12.775459 604.761780
742 0 1 11.425710 12.785040 603.847595
743 0 1 11.023040 12.881100 602.956604
744 0 1 10.748220 12.918079 601.991272
745 0 1 10.655390 12.883160 601.043518
746 0 1 10.480680 12.669320 600.160278
747 0 1 10.428550 12.479219 599.222778
748 0 1 10.424561 12.261290 598.286194
749 0 1 10.392560 11.940680 597.427490
750 0 1 10.288651 12.026510 596.434998
751 0 1 10.018870 11.815020 595.476196
752 0 1 9.949870 11.905240 594.531311
753 0 1 9.594120 12.118760 593.650269
754 0 1 9.321120 12.234000 592.656982
755 0 1 9.207400 12.158800 591.647217
756 0 1 9.055090 11.913040 590.678406
757 0 1 8.849586 11.723930 589.757568
758 0 1 8.798642 11.897020 588.805603
759 0 1 8.779540 11.761020 587.838196
760 0 1 8.865225 11.539520 586.893494
761 0 1 8.677287 11.594851 585.919495
762 0 1 8.768700 11.555620 585.011597
763 0 1 9.027710 11.522260 584.103394
764 0 1 9.167570 11.674040 583.152222
765 0 1 9.559190 12.006701 582.332214
766 0 1 9.579030 12.344350 581.475403
767 0 1 9.352790 12.672239 580.608398
768 0 1 9.293050 13.239110 579.777405
769 0 1 9.366250 13.612350 578.915527
770 0 1 9.437570 13.680281 577.969177
771 0 1 9.478370 13.606510 576.992615
772 0 1 9.455110 13.220620 576.184326
773 0 1 9.408600 12.961700 575.259888
774 0 1 9.291490 12.902250 574.173523
775 0 1 9.203370 12.629510 573.248596
776 0 1 9.387010 12.284030 572.359192
777 0 1 9.552980 11.643579 571.693787
778 0 1 9.657520 11.129700 570.904297
779 0 1 9.489640 10.901770 569.992432
780 0 1 9.442200 10.775290 569.071716
781 0 1 9.527210 10.866020 568.124268
782 0 1 9.232290 10.856590 567.175781
783 0 1 9.272511 10.943310 566.197083
784 0 1 9.229910 10.996500 565.274292
785 0 1 9.195210 10.883440 564.309082
786 0 1 9.058130 10.590640 563.343811
787 0 1 9.051410 10.485800 562.342590
788 0 1 9.305720 10.419590 561.439880
789 0 1 9.821880 10.393930 560.565979
790 0 1 10.301050 10.656380 559.723206
791 0 1 10.554720 11.207060 558.939697
792 0 1 10.469140 11.614670 558.091675