LAMMPS data file via MDAnalysis

        1000  atoms
        1000  bonds
        1000  angles
           0  dihedrals
           0  impropers

           1  atom types
           1  bond types
           1  angle types
           0  dihedral types
           0  improper types

0.000000 16.000000 xlo xhi
0.000000 16.000000 ylo yhi
0.000000 1257.000000 zlo zhi


Masses

1 1.000000

Atoms

1 0 1 10.405510 3.749790 444.431000
2 0 1 10.466660 3.510890 445.343018
3 0 1 10.453170 3.294820 446.304016
4 0 1 10.565870 3.071850 447.247009
5 0 1 10.635620 3.152700 448.160004
6 0 1 10.320860 3.525860 448.983002
7 0 1 9.691150 4.031250 449.567017
8 0 1 9.109780 4.306760 450.216003
9 0 1 8.572238 4.597130 450.962006
10 0 1 8.130720 4.931030 451.755981
11 0 1 7.878916 5.115240 452.721008
12 0 1 7.622299 5.266910 453.643982
13 0 1 7.443505 5.563780 454.468994
14 0 1 7.120731 5.646590 455.341980
15 0 1 6.736080 5.919000 456.216003
16 0 1 6.608260 6.147170 457.167999
17 0 1 6.558560 6.390780 458.130981
18 0 1 6.651290 6.607070 459.067993
19 0 1 6.872870 6.717460 460.005981
20 0 1 6.913350 6.974560 460.981995
21 0 1 6.699900 7.522510 461.669006
22 0 1 6.551560 8.098573 462.421997
23 0 1 6.118770 8.517871 463.186005
24 0 1 5.824460 8.703923 464.023987
25 0 1 5.772120 8.874081 465.028015
26 0 1 5.807510 8.867677 465.985992
27 0 1 5.963180 8.736143 466.945007
28 0 1 6.027630 8.463482 467.882019
29 0 1 6.040090 8.112021 468.799988
30 0 1 5.989810 7.852283 469.692017
31 0 1 6.338350 7.393256 470.458008
32 0 1 6.667630 7.110240 471.354980
33 0 1 6.880890 7.162126 472.260986
34 0 1 7.237278 7.137482 473.147003
35 0 1 7.527228 7.363535 474.080017
36 0 1 7.937652 7.359112 474.971008
37 0 1 8.378522 7.564989 475.822021
38 0 1 8.513384 8.098401 476.619995
39 0 1 8.980207 8.456604 477.463013
40 0 1 9.402150 8.785314 478.286011
41 0 1 10.027900 9.197470 478.886993
42 0 1 10.675820 9.610929 479.470001
43 0 1 10.969220 9.930820 480.373993
44 0 1 11.155621 10.297220 481.253998
45 0 1 11.454320 10.298940 482.184998
46 0 1 11.823820 10.165070 483.039001
47 0 1 12.329451 10.261539 483.851990
48 0 1 12.628490 10.423759 484.714996
49 0 1 12.611420 10.579920 485.640991
50 0 1 12.211201 10.683180 486.498993
51 0 1 11.826760 10.747780 487.341980
52 0 1 11.604250 10.927070 488.292999
53 0 1 11.523130 11.424860 489.096985
54 0 1 11.441360 11.879890 490.023010
55 0 1 11.512711 12.233590 490.932983
56 0 1 11.734200 12.556650 491.779999
57 0 1 11.827280 12.751329 492.703979
58 0 1 11.748850 13.144100 493.580994
59 0 1 11.720310 13.299430 494.533020
60 0 1 11.816150 12.983339 495.445007
61 0 1 12.127769 12.690670 496.300995
62 0 1 12.608240 12.318080 497.065979
63 0 1 13.264790 11.782440 497.596985
64 0 1 13.818340 11.250050 498.255981
65 0 1 14.025880 10.607500 499.101013
66 0 1 14.179010 10.002370 499.781982
67 0 1 13.914209 9.293340 500.371002
68 0 1 13.625441 8.599506 500.967010
69 0 1 13.152170 8.148537 501.674988
70 0 1 12.883101 7.764635 502.535004
71 0 1 12.849950 7.424838 503.455017
72 0 1 12.782340 6.925930 504.252991
73 0 1 12.484011 6.678900 505.114990
74 0 1 12.391240 6.722610 506.040009
75 0 1 12.449039 7.132884 506.931000
76 0 1 12.651239 7.751610 507.682007
77 0 1 12.871050 8.157470 508.520996
78 0 1 13.030729 8.413916 509.411011
79 0 1 13.372430 8.645047 510.295990
80 0 1 13.781850 8.712326 511.175995
81 0 1 14.006229 8.894098 512.051025
82 0 1 14.379700 9.255170 512.961975
83 0 1 14.516900 9.777040 513.766968
84 0 1 14.350630 10.047210 514.690002
85 0 1 14.216820 10.180640 515.630005
86 0 1 13.916030 10.210830 516.484009
87 0 1 13.547680 10.507771 517.281006
88 0 1 13.211330 10.539230 518.273010
89 0 1 12.905809 10.552950 519.166016
90 0 1 12.662180 10.464710 520.067017
91 0 1 12.457630 10.596320 521.026978
92 0 1 12.416150 10.660500 522.013977
93 0 1 12.424430 10.716000 522.987976
94 0 1 12.350050 10.398940 523.955994
95 0 1 12.185210 10.257220 524.884033
96 0 1 11.769800 10.256969 525.747986
97 0 1 11.209030 10.386909 526.455017
98 0 1 10.400390 10.540560 526.948975
99 0 1 9.613190 10.778709 527.474976
100 0 1 8.939708 10.657130 528.143005
101 0 1 8.352415 10.105930 528.743530
102 0 1 7.796690 9.492040 529.255615
103 0 1 7.449121 8.682584 529.730408
104 0 1 7.200653 7.806833 530.088501
105 0 1 6.944170 6.967430 530.419434
106 0 1 7.015265 6.308230 531.138916
107 0 1 7.038720 5.563460 531.653198
108 0 1 7.190102 4.798280 532.206726
109 0 1 7.389675 4.194670 532.971985
110 0 1 7.412892 3.600190 533.730591
111 0 1 7.546371 2.926520 534.450195
112 0 1 7.682453 2.157800 535.110718
113 0 1 7.822270 1.879470 536.068176
114 0 1 8.010092 1.779690 537.002625
115 0 1 8.085105 1.810270 538.009583
116 0 1 8.250390 1.934030 538.964233
117 0 1 8.126553 2.370480 539.813110
118 0 1 7.922446 2.773680 540.692505
119 0 1 7.683236 3.326230 541.509033
120 0 1 7.431695 3.908950 542.238770
121 0 1 7.056264 4.543810 542.872070
122 0 1 6.811330 5.029820 543.630005
123 0 1 6.592120 5.568600 544.342896
124 0 1 6.417080 5.963670 545.190796
125 0 1 6.578470 5.797160 546.071777
126 0 1 7.001043 5.437390 546.868286
127 0 1 7.553827 5.136150 547.672302
128 0 1 8.044216 4.865640 548.493408
129 0 1 8.479359 4.533850 549.253296
130 0 1 8.800061 4.295020 550.134033
131 0 1 9.190269 3.877180 551.070007
132 0 1 9.374810 3.810510 552.012390
133 0 1 9.352730 3.962920 552.961914
134 0 1 9.360540 4.078900 554.016418
135 0 1 9.241350 4.254580 554.971985
136 0 1 9.231700 4.352950 555.931519
137 0 1 9.130480 4.455330 556.840576
138 0 1 8.917664 4.421160 557.765320
139 0 1 8.797638 4.038090 558.623413
140 0 1 8.448528 3.935990 559.569885
141 0 1 8.102445 3.822310 560.469482
142 0 1 7.674796 3.620410 561.271973
143 0 1 7.280307 3.293620 562.067871
144 0 1 7.040416 2.877840 562.893311
145 0 1 6.571030 2.898070 563.736206
146 0 1 6.447450 2.796210 564.698914
147 0 1 6.343520 2.603630 565.661499
148 0 1 6.233610 2.734080 566.566772
149 0 1 6.020490 3.121240 567.400574
150 0 1 6.026550 3.528260 568.291077
151 0 1 6.002740 3.618510 569.239014
152 0 1 6.058180 3.690360 570.235291
153 0 1 6.228120 4.032920 571.129883
154 0 1 6.540010 4.558640 571.861511
155 0 1 7.073853 5.136780 572.445312
156 0 1 7.745572 5.603550 573.055786
157 0 1 8.368864 5.981220 573.697815
158 0 1 8.828349 6.511410 574.342590
159 0 1 9.195220 7.290573 574.659790
160 0 1 9.444330 8.020835 575.203613
161 0 1 9.557510 8.661110 575.969727
162 0 1 9.598750 9.157510 576.766968
163 0 1 9.983920 9.528560 577.597168
164 0 1 10.262750 10.197960 578.276611
165 0 1 10.327160 10.923730 578.896301
166 0 1 10.017440 11.279460 579.816284
167 0 1 9.593150 11.564290 580.651306
168 0 1 9.092250 11.767900 581.384827
169 0 1 8.470425 12.016160 582.146973
170 0 1 7.918720 12.158540 582.942322
171 0 1 7.314027 12.167040 583.694214
172 0 1 6.908160 12.334800 584.592590
173 0 1 6.185570 12.446920 585.247375
174 0 1 5.936380 12.134760 586.113403
175 0 1 5.788790 11.984600 587.095703
176 0 1 5.952110 11.784160 588.083496
177 0 1 5.842900 11.414989 589.008118
178 0 1 5.681040 11.014290 589.927368
179 0 1 5.484910 11.064899 590.922729
180 0 1 5.154420 11.314140 591.780396
181 0 1 5.041960 11.399620 592.720093
182 0 1 4.953790 11.146590 593.644409
183 0 1 4.921480 10.916690 594.550903
184 0 1 4.689510 10.974780 595.497803
185 0 1 4.316360 10.797010 596.361694
186 0 1 4.040180 10.509020 597.224792
187 0 1 3.725290 10.238260 598.045776
188 0 1 3.557680 9.832590 598.966125
189 0 1 3.783330 9.551250 599.851807
190 0 1 3.894600 9.308040 600.754395
191 0 1 4.348610 9.112110 601.644226
192 0 1 4.944230 8.845030 602.493713
193 0 1 5.387280 8.897677 603.363220
194 0 1 5.795390 8.892586 604.258972
195 0 1 6.151600 8.818602 605.192200
196 0 1 6.461550 9.057080 606.068909
197 0 1 6.869690 9.433860 606.884399
198 0 1 7.313983 9.343019 607.781982
199 0 1 7.817700 9.563050 608.591919
200 0 1 8.290402 9.687880 609.396912
201 0 1 8.730970 9.865730 610.290588
202 0 1 8.931543 10.011180 611.232971
203 0 1 8.823424 10.006741 612.177795
204 0 1 8.581706 9.981260 613.099487
205 0 1 8.318120 9.632170 614.017395
206 0 1 8.044934 9.267090 614.879272
207 0 1 7.729040 9.140380 615.783691
208 0 1 7.629717 9.046250 616.721375
209 0 1 7.537670 8.813336 617.626587
210 0 1 7.669324 8.637983 618.569336
211 0 1 7.880986 8.410466 619.473389
212 0 1 8.217855 8.224748 620.436462
213 0 1 8.149723 8.240011 621.445251
214 0 1 8.142556 8.285156 622.408691
215 0 1 7.937587 8.665670 623.264282
216 0 1 7.685809 8.998540 624.153442
217 0 1 7.520815 9.444460 624.997437
218 0 1 7.621425 9.815190 625.868958
219 0 1 7.752055 10.062740 626.775818
220 0 1 7.633592 10.566000 627.645020
221 0 1 7.353434 10.980310 628.499695
222 0 1 7.127188 11.586309 629.217285
223 0 1 6.908890 11.858650 630.152405
224 0 1 6.887830 12.111219 631.099731
225 0 1 7.255684 11.919500 632.001282
226 0 1 7.470362 11.757800 632.941589
227 0 1 7.829640 11.701611 633.791504
228 0 1 7.966074 11.686520 634.759583
229 0 1 7.922572 11.802200 635.664001
230 0 1 7.762107 12.025070 636.553467
231 0 1 7.516889 12.120110 637.472290
232 0 1 7.046154 12.121420 638.374878
233 0 1 6.705770 11.890380 639.226990
234 0 1 6.224910 11.992300 640.104126
235 0 1 5.751550 12.460140 640.774475
236 0 1 5.214810 12.634729 641.611023
237 0 1 4.792340 12.481290 642.433472
238 0 1 4.552090 12.115630 643.302673
239 0 1 4.121220 11.981830 644.164795
240 0 1 3.850430 11.616850 645.055481
241 0 1 3.454780 11.267010 645.884705
242 0 1 3.015820 10.965740 646.627625
243 0 1 2.857420 10.428120 647.495178
244 0 1 2.722020 9.813650 648.228394
245 0 1 2.476610 9.169720 648.907593
246 0 1 2.300450 8.656437 649.729187
247 0 1 2.459960 7.990041 650.370728
248 0 1 2.657330 7.461985 651.142822
249 0 1 2.741040 6.963090 651.945374
250 0 1 2.948610 6.357540 652.728394
251 0 1 3.459380 5.837250 653.342407
252 0 1 3.917450 5.246890 653.975830
253 0 1 4.401650 4.799390 654.752625
254 0 1 4.804580 4.480500 655.557922
255 0 1 5.179170 4.565230 656.550415
256 0 1 5.429790 4.315750 657.404602
257 0 1 5.823330 3.901930 658.133301
258 0 1 6.223440 3.554470 658.931702
259 0 1 6.137520 3.333840 659.871826
260 0 1 6.279590 3.329630 660.789490
261 0 1 6.478830 3.318590 661.723083
262 0 1 6.721060 3.271030 662.650085
263 0 1 7.208970 3.192600 663.464172
264 0 1 7.715226 3.069790 664.273926
265 0 1 8.078880 2.926500 665.137573
266 0 1 8.701941 2.915240 665.866821
267 0 1 9.179070 3.338170 666.526672
268 0 1 9.729620 3.748760 667.206299
269 0 1 10.091410 4.363340 667.826599
270 0 1 10.454030 4.785450 668.604797
271 0 1 10.739870 5.342180 669.385315
272 0 1 11.002541 5.488740 670.263672
273 0 1 10.971410 5.703940 671.190186
274 0 1 11.028990 5.970140 672.143372
275 0 1 10.875320 6.397340 672.994690
276 0 1 10.845870 7.040468 673.764771
277 0 1 11.037400 7.673716 674.477783
278 0 1 10.988780 8.295584 675.185425
279 0 1 10.791810 8.981072 675.858826
280 0 1 10.769670 9.351930 676.726318
281 0 1 10.706020 9.830750 677.491211
282 0 1 10.728450 10.330190 678.273010
283 0 1 10.470680 10.870871 679.026672
284 0 1 10.231350 11.180350 679.898315
285 0 1 10.090950 11.631750 680.788208
286 0 1 9.989870 11.922910 681.687622
287 0 1 9.961000 12.316320 682.563721
288 0 1 9.735810 12.496630 683.461182
289 0 1 9.450780 12.687690 684.350708
290 0 1 9.245831 12.344810 685.270874
291 0 1 9.223989 12.244120 686.226685
292 0 1 9.124260 12.088110 687.125122
293 0 1 9.080470 11.895570 688.075378
294 0 1 8.839989 11.982821 688.978088
295 0 1 8.286180 12.308340 689.752625
296 0 1 7.557190 12.325490 690.399292
297 0 1 6.943350 12.514980 691.128296
298 0 1 6.347760 12.476990 691.870728
299 0 1 5.593950 12.258039 692.391968
300 0 1 4.975630 11.968880 693.133911
301 0 1 4.309670 11.700460 693.827515
302 0 1 3.917950 11.286420 694.717712
303 0 1 3.792250 11.232540 695.663513
304 0 1 3.858750 10.911390 696.535522
305 0 1 3.835050 10.413160 697.367126
306 0 1 3.852060 10.000629 698.256714
307 0 1 4.095440 9.817150 699.208191
308 0 1 4.035820 9.509501 700.111023
309 0 1 3.993710 9.336480 701.065125
310 0 1 3.928160 9.123300 702.038391
311 0 1 3.844260 9.048820 702.992615
312 0 1 4.124610 9.043370 703.907776
313 0 1 4.401960 8.879368 704.837708
314 0 1 4.559550 8.604291 705.721497
315 0 1 4.791570 8.442361 706.638184
316 0 1 4.943300 8.532689 707.661499
317 0 1 4.879700 8.599038 708.655273
318 0 1 5.020600 8.526322 709.645874
319 0 1 5.250260 8.798286 710.609192
320 0 1 5.192730 9.494699 711.311401
321 0 1 4.914830 9.785350 712.150208
322 0 1 4.745280 10.037580 713.086304
323 0 1 4.519000 10.292500 714.016724
324 0 1 4.605600 10.638510 714.934021
325 0 1 4.669400 11.031919 715.789978
326 0 1 4.959320 11.272720 716.619507
327 0 1 5.310580 11.347640 717.459412
328 0 1 5.792570 11.238740 718.329468
329 0 1 5.829160 11.068600 719.304199
330 0 1 6.084050 10.927720 720.277588
331 0 1 6.175980 10.653960 721.174316
332 0 1 6.268360 10.165260 722.033813
333 0 1 6.171260 9.755680 722.933472
334 0 1 6.200480 9.133080 723.644592
335 0 1 6.051090 8.476827 724.293213
336 0 1 6.011010 7.808084 725.044434
337 0 1 6.045950 7.316592 725.923279
338 0 1 6.179210 6.592050 726.586792
339 0 1 6.492620 5.921700 727.183228
340 0 1 6.867250 5.375000 727.937500
341 0 1 7.225833 4.943460 728.681030
342 0 1 7.327471 4.369630 729.434998
343 0 1 7.515190 4.220400 730.411011
344 0 1 7.604198 4.712550 731.265015
345 0 1 7.535852 5.098780 732.096008
346 0 1 7.542106 5.448840 732.943970
347 0 1 7.612746 5.681550 733.827026
348 0 1 7.891852 5.561340 734.791992
349 0 1 8.035152 5.790940 735.700012
350 0 1 8.096344 5.850820 736.685974
351 0 1 8.309408 5.935870 737.671021
352 0 1 8.846603 5.721480 738.364014
353 0 1 9.199150 5.538330 739.343018
354 0 1 9.227280 5.765000 740.255981
355 0 1 9.187210 5.620430 741.229004
356 0 1 8.881879 5.139960 742.114990
357 0 1 8.762909 5.158340 743.086975
358 0 1 8.455643 5.201710 744.015991
359 0 1 8.427446 5.162130 744.942017
360 0 1 8.329080 5.246740 745.973999
361 0 1 8.299629 5.265220 746.966980
362 0 1 8.148972 5.320500 747.937012
363 0 1 8.055866 5.277430 748.911011
364 0 1 7.944459 5.309680 749.906982
365 0 1 7.612431 5.260940 750.786011
366 0 1 7.452172 5.075960 751.718018
367 0 1 7.476042 5.032970 752.679993
368 0 1 7.613804 4.904650 753.635010
369 0 1 7.805262 4.631770 754.513977
370 0 1 8.141580 4.531840 755.393982
371 0 1 8.326789 4.399270 756.273987
372 0 1 8.331114 4.521500 757.190979
373 0 1 8.382448 4.548530 758.208984
374 0 1 8.583090 4.293510 759.120972
375 0 1 8.849259 4.112070 760.007019
376 0 1 8.948793 4.121320 761.011963
377 0 1 9.444070 4.322190 761.862000
378 0 1 9.792270 4.411630 762.752014
379 0 1 10.244050 4.462820 763.573975
380 0 1 10.841610 4.468000 764.401001
381 0 1 11.190650 4.301480 765.299011
382 0 1 11.411330 4.239560 766.235962
383 0 1 11.786540 4.177800 767.151001
384 0 1 11.890400 4.188180 768.216003
385 0 1 11.897470 4.614270 769.052002
386 0 1 12.065480 4.950200 770.007019
387 0 1 12.174630 5.086410 770.914001
388 0 1 12.477140 5.336500 771.739014
389 0 1 12.922211 5.494580 772.609009
390 0 1 13.104020 5.711610 773.497986
391 0 1 13.201050 5.881890 774.445007
392 0 1 13.190781 6.011440 775.398010
393 0 1 13.405970 6.329890 776.264038
394 0 1 13.474700 6.323460 777.218018
395 0 1 12.983440 6.409880 778.023987
396 0 1 12.623990 6.713680 778.867004
397 0 1 12.512011 7.342433 779.552002
398 0 1 12.671320 8.169167 780.099976
399 0 1 12.812120 8.861320 780.781006
400 0 1 13.104890 9.418910 781.516968
401 0 1 13.671450 9.988820 782.075989
402 0 1 13.906910 10.555010 782.841003
403 0 1 13.939930 10.864161 783.714966
404 0 1 13.660240 11.124720 784.608032
405 0 1 13.408720 11.089180 785.544006
406 0 1 13.275730 11.235310 786.447021
407 0 1 13.034470 11.243740 787.398010
408 0 1 12.906420 11.317841 788.367004
409 0 1 12.458020 11.630870 789.216980
410 0 1 11.901830 11.722330 789.985962
411 0 1 11.137960 11.484450 790.563965
412 0 1 10.565400 11.096590 791.403015
413 0 1 9.984910 10.877780 792.122009
414 0 1 9.363680 10.682920 792.841003
415 0 1 8.680477 10.408560 793.500977
416 0 1 7.980149 10.232759 794.171997
417 0 1 7.184491 10.164830 794.761963
418 0 1 6.383090 10.219290 795.362000
419 0 1 5.644940 10.326810 795.929993
420 0 1 5.011640 10.271441 796.580017
421 0 1 4.419390 10.045780 797.353027
422 0 1 3.878650 9.635690 798.015991
423 0 1 3.389110 8.995860 798.478027
424 0 1 3.038520 8.373163 799.143982
425 0 1 2.563830 7.727566 799.729980
426 0 1 2.329010 7.156409 800.447998
427 0 1 2.190740 6.900100 801.395996
428 0 1 2.023030 6.811930 802.372986
429 0 1 1.938690 6.497150 803.244019
430 0 1 1.749450 6.014240 804.039978
431 0 1 1.758690 5.760680 804.983032
432 0 1 1.958530 5.291540 805.822998
433 0 1 2.155730 5.147040 806.757019
434 0 1 2.512000 5.193780 807.636963
435 0 1 2.794930 5.440630 808.554993
436 0 1 3.047150 5.647950 809.450012
437 0 1 3.041650 5.746380 810.447021
438 0 1 3.041100 5.697830 811.432983
439 0 1 3.061530 5.726180 812.348999
440 0 1 3.428500 5.600700 813.235962
441 0 1 3.897880 5.584570 814.037964
442 0 1 4.450230 5.753630 814.789001
443 0 1 5.038540 5.799040 815.499023
444 0 1 5.596590 5.482420 816.286987
445 0 1 6.063600 4.989920 817.011963
446 0 1 6.378240 4.560680 817.739014
447 0 1 6.660440 4.429310 818.666016
448 0 1 6.784030 4.316450 819.608032
449 0 1 6.940130 4.492960 820.603027
450 0 1 7.233621 4.739680 821.479004
451 0 1 7.726955 4.764150 822.242004
452 0 1 8.369058 4.728500 823.044006
453 0 1 8.914241 4.743180 823.833984
454 0 1 9.682240 4.468540 824.398987
455 0 1 10.245920 4.178260 825.172974
456 0 1 10.774160 3.920670 825.953979
457 0 1 11.215070 4.041700 826.812988
458 0 1 11.734190 3.900790 827.641968
459 0 1 12.091030 3.942720 828.554993
460 0 1 12.293631 4.083430 829.497009
461 0 1 12.220420 3.942080 830.455017
462 0 1 12.036090 3.799520 831.468994
463 0 1 12.228360 3.755250 832.411011
464 0 1 12.376780 3.779710 833.338989
465 0 1 12.402290 4.117700 834.252014
466 0 1 12.530910 4.812940 834.943970
467 0 1 11.930400 5.534230 835.188965
468 0 1 11.288361 6.220700 835.372986
469 0 1 10.858810 7.022510 835.114014
470 0 1 10.270130 7.759241 834.898987
471 0 1 9.701350 8.369706 834.453979
472 0 1 8.980949 8.909405 834.087036
473 0 1 8.165795 9.191930 833.557983
474 0 1 7.553677 9.339970 832.781982
475 0 1 6.796680 9.560020 832.136963
476 0 1 6.118080 9.910930 831.549011
477 0 1 5.387720 10.033930 830.940002
478 0 1 4.763520 10.213590 830.270020
479 0 1 4.275860 10.428490 829.414001
480 0 1 3.709580 10.344210 828.606018
481 0 1 3.315960 10.156670 827.738037
482 0 1 3.458360 9.798360 826.869995
483 0 1 3.634320 9.308870 826.039978
484 0 1 3.896470 8.930095 825.143005
485 0 1 4.058840 8.606912 824.270996
486 0 1 4.212810 8.199576 823.478027
487 0 1 3.885180 7.919014 822.549011
488 0 1 3.648080 7.818165 821.695984
489 0 1 3.195660 7.816784 820.752014
490 0 1 2.812130 7.778152 819.832031
491 0 1 2.885650 7.974200 818.875977
492 0 1 3.065400 8.269262 818.023010
493 0 1 3.219180 8.465542 817.117981
494 0 1 3.593340 8.640871 816.259033
495 0 1 3.838400 9.051420 815.257996
496 0 1 3.939540 9.456610 814.372009
497 0 1 4.067630 9.630740 813.408997
498 0 1 4.022020 9.652380 812.432983
499 0 1 4.075740 10.209790 811.681030
500 0 1 3.696270 10.798310 810.931030
501 0 1 3.453300 11.185880 810.089966
502 0 1 3.351350 11.775100 809.273010
503 0 1 3.422480 12.297740 808.457031
504 0 1 3.748640 12.365410 807.557983
505 0 1 3.882390 12.350580 806.609985
506 0 1 4.279040 12.073580 805.708984
507 0 1 4.694720 11.671470 804.931030
508 0 1 4.974350 11.366420 804.085999
509 0 1 5.263640 11.090800 803.221008
510 0 1 5.802170 10.844960 802.419006
511 0 1 6.540850 10.763090 801.796997
512 0 1 7.250376 10.687190 801.132019
513 0 1 7.878165 10.657220 800.389038
514 0 1 8.333652 10.432680 799.567993
515 0 1 8.691458 10.297970 798.684021
516 0 1 9.081870 10.348391 797.752991
517 0 1 9.570640 10.321690 796.943970
518 0 1 9.754690 10.416870 795.968018
519 0 1 9.932800 10.242840 795.041992
520 0 1 10.247670 10.107540 794.114014
521 0 1 10.639940 9.932410 793.291016
522 0 1 10.574180 9.712100 792.344971
523 0 1 10.529500 9.263080 791.447998
524 0 1 10.510710 8.750038 790.599976
525 0 1 10.640700 8.430318 789.619995
526 0 1 11.100290 8.205382 788.792969
527 0 1 11.089040 8.081937 787.801025
528 0 1 11.002150 7.690441 786.916992
529 0 1 10.409380 7.124157 786.358032
530 0 1 9.935350 6.487350 785.817993
531 0 1 9.288490 6.231000 785.151978
532 0 1 8.771033 6.085800 784.338989
533 0 1 8.565217 6.211580 783.374023
534 0 1 8.297356 6.205300 782.487000
535 0 1 8.113526 6.435980 781.481995
536 0 1 8.036084 6.794850 780.598022
537 0 1 7.948045 7.324478 779.817017
538 0 1 7.991273 7.786933 778.898987
539 0 1 8.380039 8.177998 778.109985
540 0 1 8.767259 8.246193 777.203003
541 0 1 9.082740 8.578817 776.286011
542 0 1 9.223800 8.900154 775.434021
543 0 1 9.464180 9.185880 774.533997
544 0 1 9.822880 9.257300 773.599976
545 0 1 9.876750 8.999403 772.656006
546 0 1 9.734740 8.658893 771.728027
547 0 1 9.757630 8.432839 770.776001
548 0 1 9.387330 8.197147 769.924988
549 0 1 9.167960 8.241703 768.966980
550 0 1 8.836535 8.394437 768.082031
551 0 1 8.386689 8.191492 767.226013
552 0 1 7.796761 8.058508 766.411011
553 0 1 7.274135 8.117981 765.630981
554 0 1 6.795310 8.254142 764.815979
555 0 1 6.465790 8.309544 763.895996
556 0 1 6.121150 8.672857 763.109985
557 0 1 5.991440 9.290220 762.367981
558 0 1 5.849470 9.952830 761.634033
559 0 1 5.799650 10.439870 760.837036
560 0 1 5.747500 10.550489 759.838989
561 0 1 5.999700 10.637480 758.916992
562 0 1 6.082970 10.468180 757.955994
563 0 1 6.022920 10.552020 756.950012
564 0 1 5.982380 10.486350 755.984009
565 0 1 5.981820 10.072710 755.153992
566 0 1 5.682000 9.916050 754.234985
567 0 1 5.305100 9.879360 753.406006
568 0 1 4.669790 10.059910 752.667969
569 0 1 4.383050 10.449980 751.815979
570 0 1 4.048730 10.448000 750.875977
571 0 1 3.835700 10.353420 749.867981
572 0 1 3.812620 10.416180 748.906982
573 0 1 3.756700 10.447220 747.973999
574 0 1 3.799350 10.439930 746.986023
575 0 1 3.768330 10.468980 746.020020
576 0 1 4.050890 10.153570 745.145996
577 0 1 4.566600 9.805130 744.390991
578 0 1 5.004450 9.254110 743.721985
579 0 1 5.103910 8.743447 742.929993
580 0 1 5.525000 8.110895 742.304993
581 0 1 6.127290 7.590020 741.775024
582 0 1 6.588130 7.193034 741.094971
583 0 1 7.038850 6.719760 740.380981
584 0 1 7.210006 6.111920 739.671021
585 0 1 7.271639 5.340290 739.101990
586 0 1 7.675156 4.762220 738.432983
587 0 1 8.087232 4.362630 737.723022
588 0 1 8.610298 4.052160 736.934998
589 0 1 8.899665 4.181200 736.035034
590 0 1 9.323210 4.103250 735.161011
591 0 1 9.672890 4.026160 734.260010
592 0 1 9.944440 3.951770 733.356018
593 0 1 9.988890 4.094370 732.362976
594 0 1 9.798510 4.500510 731.453003
595 0 1 9.530450 4.993310 730.687012
596 0 1 9.603970 5.393320 729.781982
597 0 1 9.727310 5.642060 728.825012
598 0 1 9.524430 5.747180 727.863525
599 0 1 9.219160 6.147730 727.093384
600 0 1 9.256240 6.345410 726.168518
601 0 1 9.131250 6.384310 725.234985
602 0 1 8.764348 6.330920 724.341980
603 0 1 8.382495 6.365910 723.489868
604 0 1 7.856399 6.416370 722.701477
605 0 1 7.458734 6.768160 721.857300
606 0 1 6.899210 6.732700 721.011414
607 0 1 6.675060 6.694170 720.084595
608 0 1 6.750320 6.736600 719.118713
609 0 1 7.279237 6.757280 718.345581
610 0 1 7.700342 6.519740 717.524719
611 0 1 8.231027 6.477810 716.703186
612 0 1 8.757323 6.742370 715.972595
613 0 1 9.366410 6.897800 715.258118
614 0 1 10.034170 7.012656 714.538025
615 0 1 10.662310 7.102982 713.740601
616 0 1 11.046560 6.942450 712.891418
617 0 1 11.321430 6.717060 711.965393
618 0 1 11.644450 6.454960 711.095886
619 0 1 12.027240 6.306360 710.181580
620 0 1 11.901510 5.936540 709.305298
621 0 1 11.906260 5.701460 708.389526
622 0 1 11.914150 5.390240 707.472290
623 0 1 11.573720 4.836340 706.772278
624 0 1 11.030849 4.440540 706.051270
625 0 1 10.543970 3.861030 705.424927
626 0 1 10.095410 3.267110 704.802002
627 0 1 9.430650 2.966710 704.148193
628 0 1 9.037700 3.028090 703.284180
629 0 1 8.531137 3.408630 702.550598
630 0 1 8.229409 4.139250 701.943726
631 0 1 7.831629 4.775680 701.329895
632 0 1 7.374959 5.000690 700.496887
633 0 1 7.308617 5.388340 699.615479
634 0 1 7.237140 5.703940 698.752502
635 0 1 7.020293 5.440650 697.841614
636 0 1 6.522950 5.276510 697.027405
637 0 1 5.656080 5.359330 696.626892
638 0 1 4.745380 5.508800 696.451782
639 0 1 4.087690 6.023180 696.003174
640 0 1 3.619020 6.522590 695.336914
641 0 1 3.214280 7.024804 694.595703
642 0 1 2.997430 7.322404 693.684021
643 0 1 2.678340 7.844295 692.922424
644 0 1 2.270260 8.150385 692.094299
645 0 1 1.899060 8.582037 691.298889
646 0 1 1.750670 8.959835 690.404602
647 0 1 1.596870 9.197680 689.567322
648 0 1 1.677770 9.691760 688.691895
649 0 1 1.582270 10.164210 687.892883
650 0 1 1.563610 10.610710 687.076111
651 0 1 1.802090 11.123000 686.321472
652 0 1 2.330330 11.754900 685.786987
653 0 1 3.017190 12.114201 685.222107
654 0 1 3.802910 12.626080 684.902222
655 0 1 4.542720 13.021561 684.523926
656 0 1 5.300100 13.110760 683.828491
657 0 1 6.093670 13.145320 683.255676
658 0 1 6.703120 13.196140 682.530579
659 0 1 7.244992 13.280661 681.647827
660 0 1 7.685109 13.382580 680.796204
661 0 1 7.889976 13.134160 679.854492
662 0 1 7.981733 12.540290 679.099426
663 0 1 8.003857 12.106810 678.226013
664 0 1 7.874400 11.918350 677.307312
665 0 1 7.799149 11.886670 676.334473
666 0 1 7.584226 11.850650 675.424377
667 0 1 7.595492 11.902121 674.406128
668 0 1 7.678906 12.224939 673.522827
669 0 1 7.683803 12.328720 672.594421
670 0 1 8.083260 12.356290 671.753296
671 0 1 8.419556 12.415319 670.872009
672 0 1 8.508507 12.254530 669.949097
673 0 1 8.379099 11.960720 669.025879
674 0 1 8.005578 11.573610 668.246704
675 0 1 7.802887 11.342540 667.322388
676 0 1 7.810022 11.365120 666.344971
677 0 1 7.607243 11.370220 665.427979
678 0 1 7.684635 11.149890 664.451416
679 0 1 7.651099 10.973540 663.494202
680 0 1 7.769827 10.837030 662.582520
681 0 1 7.852301 10.317780 661.764221
682 0 1 7.975498 9.753010 661.047485
683 0 1 8.231131 8.991913 660.442322
684 0 1 8.526680 8.136404 659.916809
685 0 1 8.912315 7.486195 659.342712
686 0 1 9.209350 7.103853 658.547729
687 0 1 9.426570 6.913230 657.597107
688 0 1 9.745130 6.440090 656.812927
689 0 1 10.333651 5.849090 656.232483
690 0 1 10.753910 5.410690 655.480103
691 0 1 11.070770 4.939510 654.671509
692 0 1 11.575980 4.561550 653.971008
693 0 1 11.995440 4.192510 653.083679
694 0 1 12.239420 3.778700 652.277771
695 0 1 12.446980 3.640870 651.366272
696 0 1 12.804970 3.707720 650.512573
697 0 1 13.367060 3.923920 649.650391
698 0 1 13.714001 4.420680 648.883728
699 0 1 13.928940 4.786170 648.035095
700 0 1 13.946310 5.322930 647.251404
701 0 1 13.765560 5.722690 646.344788
702 0 1 13.775869 6.283130 645.504700
703 0 1 13.548300 6.700230 644.718994
704 0 1 13.337460 6.932300 643.796204
705 0 1 12.901350 7.251923 642.996521
706 0 1 12.708260 7.449157 642.103882
707 0 1 12.590720 7.685690 641.153076
708 0 1 12.082380 7.938681 640.440430
709 0 1 11.745370 8.069039 639.520020
710 0 1 11.191730 8.156014 638.777893
711 0 1 10.554990 8.459339 638.119568
712 0 1 10.063900 8.968924 637.508911
713 0 1 9.819710 9.015070 636.522400
714 0 1 9.726940 9.191800 635.558777
715 0 1 9.717430 9.586780 634.684570
716 0 1 9.818630 9.650630 633.755798
717 0 1 9.948870 10.013940 632.854675
718 0 1 10.193399 9.940420 631.914062
719 0 1 10.073750 9.754250 630.977356
720 0 1 10.234670 9.643620 630.042908
721 0 1 10.365520 9.618640 629.038269
722 0 1 10.695400 9.603940 628.119812
723 0 1 10.772130 9.721930 627.143494
724 0 1 10.914440 9.876310 626.255859
725 0 1 10.893670 10.014210 625.272827
726 0 1 10.907021 10.147700 624.358765
727 0 1 11.466320 10.205750 623.622009
728 0 1 11.967740 10.358419 622.748657
729 0 1 12.068319 10.358670 621.800232
730 0 1 11.795560 10.726340 620.961182
731 0 1 11.461670 11.409090 620.302551
732 0 1 11.232040 11.715090 619.486938
733 0 1 10.912010 11.892040 618.547302
734 0 1 10.893960 12.128750 617.601807
735 0 1 10.921910 12.151501 616.679199
736 0 1 11.377069 11.896310 615.846619
737 0 1 11.433331 11.381070 615.029419
738 0 1 11.385360 11.049610 614.116821
739 0 1 11.346540 10.711679 613.158020
740 0 1 11.118950 10.338810 612.227478
741 0 1 10.815680 10.140940 611.337585
742 0 1 10.827480 9.881570 610.441895
743 0 1 10.783490 9.964060 609.447876
744 0 1 10.660230 10.198510 608.523193
745 0 1 10.506250 10.866330 607.832703
746 0 1 10.280420 11.636869 607.343201
747 0 1 10.170710 12.470580 606.851379
748 0 1 10.023100 13.074090 606.161194
749 0 1 10.035070 13.409210 605.212402
750 0 1 9.919920 13.528640 604.248901
751 0 1 9.898430 13.554171 603.300598
752 0 1 10.059970 13.417690 602.404724
753 0 1 10.183450 13.497900 601.461304
754 0 1 10.346149 13.471220 600.437012
755 0 1 10.532351 13.309669 599.515503
756 0 1 10.663510 13.320240 598.534424
757 0 1 10.681520 12.876970 597.660583
758 0 1 10.791480 12.096760 597.051697
759 0 1 11.151450 11.507570 596.366028
760 0 1 11.276870 10.833549 595.744507
761 0 1 11.382811 10.136160 595.068420
762 0 1 11.436769 9.644270 594.256897
763 0 1 11.505270 9.269670 593.407776
764 0 1 11.865490 8.566806 592.850525
765 0 1 11.856930 7.702140 592.364502
766 0 1 11.824100 6.801500 591.952576
767 0 1 11.959290 6.083500 591.413879
768 0 1 12.197290 5.466620 590.721069
769 0 1 12.341460 4.975210 589.876099
770 0 1 12.346010 4.495310 589.024902
771 0 1 12.322800 4.389880 588.016113
772 0 1 12.043030 4.369620 587.146484
773 0 1 11.680360 4.392760 586.162415
774 0 1 11.453350 4.448170 585.209473
775 0 1 11.133590 4.636010 584.309021
776 0 1 11.106800 4.899480 583.392090
777 0 1 10.769130 5.221220 582.587402
778 0 1 10.489470 5.678370 581.803223
779 0 1 10.097820 5.873000 580.932983
780 0 1 9.760710 6.222620 580.118896
781 0 1 9.208120 6.616550 579.313477
782 0 1 8.578070 7.006653 578.710815
783 0 1 7.959511 7.455567 578.161682
784 0 1 7.317193 7.974993 577.530273
785 0 1 6.627520 8.217209 576.919312
786 0 1 6.208200 8.448417 576.059082
787 0 1 5.814880 8.628038 575.255127
788 0 1 5.391780 8.805451 574.361206
789 0 1 5.194240 9.016260 573.444214