LAMMPS data file via MDAnalysis

        1000  atoms
        1000  bonds
        1000  angles
           0  dihedrals
           0  impropers

           1  atom types
           1  bond types
           1  angle types
           0  dihedral types
           0  improper types

0.000000 16.000000 xlo xhi
0.000000 16.000000 ylo yhi
0.000000 1257.000000 zlo zhi


Masses

1 1.000000

Atoms

1 0 1 2.228490 8.455316 441.964996
2 0 1 2.052220 8.742153 442.858002
3 0 1 1.989810 9.163820 443.726013
4 0 1 2.098710 9.788570 444.398010
5 0 1 2.260670 10.172620 445.320007
6 0 1 2.699750 10.593440 446.078979
7 0 1 3.152770 11.219340 446.850006
8 0 1 3.404420 11.520570 447.699005
9 0 1 3.460090 11.878590 448.602997
10 0 1 3.356620 12.227600 449.580994
11 0 1 3.338290 12.293859 450.507996
12 0 1 3.655440 12.265280 451.457001
13 0 1 3.736770 12.078080 452.398010
14 0 1 4.024260 12.092751 453.315979
15 0 1 4.160570 12.081221 454.255981
16 0 1 3.858640 11.938070 455.088989
17 0 1 3.559600 11.790590 455.984985
18 0 1 3.231840 11.450930 456.786011
19 0 1 3.099950 10.978480 457.588989
20 0 1 3.380230 10.492001 458.330017
21 0 1 3.671070 9.977840 459.049988
22 0 1 3.915170 9.753170 459.945007
23 0 1 3.954790 9.736460 460.947021
24 0 1 3.803300 9.778180 461.940002
25 0 1 3.503440 9.741410 462.865997
26 0 1 3.345720 9.778481 463.839996
27 0 1 3.090260 9.800190 464.733002
28 0 1 3.042930 10.311740 465.565002
29 0 1 3.264180 10.748430 466.380981
30 0 1 3.610770 11.190940 467.203003
31 0 1 4.012790 11.524740 468.033020
32 0 1 4.544780 11.811250 468.802979
33 0 1 4.884070 11.855630 469.705994
34 0 1 5.157660 11.896290 470.619019
35 0 1 5.060090 11.847190 471.596008
36 0 1 4.957910 11.738230 472.556000
37 0 1 4.998700 11.650850 473.496002
38 0 1 4.792370 11.583530 474.412994
39 0 1 4.648390 11.412230 475.395020
40 0 1 4.677690 11.116340 476.312012
41 0 1 4.602050 10.643600 477.119019
42 0 1 4.404080 10.274090 477.983002
43 0 1 4.394910 9.834110 478.880005
44 0 1 4.473580 9.553350 479.789001
45 0 1 4.512030 9.354800 480.768005
46 0 1 4.740410 9.364760 481.727997
47 0 1 4.806430 9.085300 482.621002
48 0 1 4.790520 8.452256 483.436005
49 0 1 4.976130 8.039289 484.272003
50 0 1 5.066390 7.651688 485.205994
51 0 1 5.167860 7.442982 486.143005
52 0 1 5.140130 6.970800 486.977997
53 0 1 5.503620 6.385680 487.747009
54 0 1 5.970550 5.801660 488.416016
55 0 1 6.392660 5.339130 489.263000
56 0 1 6.738560 4.784420 489.992981
57 0 1 7.045314 4.355510 490.789978
58 0 1 7.583674 3.923030 491.477997
59 0 1 8.172960 3.833580 492.325989
60 0 1 8.624644 3.862190 493.184998
61 0 1 9.167070 3.869020 494.046021
62 0 1 9.376020 3.673890 494.940002
63 0 1 9.378400 3.871710 495.903015
64 0 1 9.354540 3.941370 496.934998
65 0 1 9.440730 3.913750 497.947021
66 0 1 9.504180 4.155470 498.908997
67 0 1 9.382610 4.199390 499.859009
68 0 1 9.314190 4.289180 500.790009
69 0 1 8.999122 4.308780 501.795990
70 0 1 8.500593 4.103860 502.583984
71 0 1 8.037385 4.480990 503.322998
72 0 1 7.815584 4.895690 504.226013
73 0 1 7.586838 5.409690 505.018005
74 0 1 7.039580 5.677120 505.734009
75 0 1 6.726950 6.316310 506.354004
76 0 1 6.316090 6.788960 507.070007
77 0 1 5.737930 7.302798 507.691010
78 0 1 5.480340 7.800094 508.477997
79 0 1 5.336910 8.168411 509.351990
80 0 1 4.971160 8.668015 510.143005
81 0 1 4.539530 9.220730 510.763000
82 0 1 4.156210 9.499570 511.588013
83 0 1 3.950240 9.587180 512.562012
84 0 1 3.762860 9.577460 513.476013
85 0 1 3.674640 9.818010 514.400024
86 0 1 3.542570 10.010990 515.406006
87 0 1 3.377130 10.169390 516.372986
88 0 1 3.234880 10.211140 517.323975
89 0 1 3.138660 10.135160 518.250977
90 0 1 3.320060 9.922950 519.161011
91 0 1 3.366010 10.029040 520.124023
92 0 1 3.606310 10.128680 521.189026
93 0 1 4.178590 9.975410 521.896973
94 0 1 4.552610 9.985630 522.810974
95 0 1 5.178530 10.046640 523.531006
96 0 1 5.833610 10.306190 524.160034
97 0 1 6.388080 10.282560 524.924988
98 0 1 7.109722 10.173770 525.541016
99 0 1 7.826734 10.017650 526.151978
100 0 1 8.563018 9.825230 526.750000
101 0 1 9.143470 9.634720 527.481018
102 0 1 9.398480 9.259210 528.369019
103 0 1 9.705370 8.941219 529.238708
104 0 1 9.966390 8.939356 530.184387
105 0 1 10.490430 8.836517 531.005127
106 0 1 10.912320 8.852975 531.863708
107 0 1 11.273780 9.031510 532.773010
108 0 1 11.543610 9.243370 533.656189
109 0 1 11.944320 9.253830 534.503296
110 0 1 12.231590 9.166290 535.486694
111 0 1 12.505500 8.903839 536.407104
112 0 1 12.749720 8.658824 537.311768
113 0 1 12.966499 8.460107 538.227417
114 0 1 12.810910 8.097427 539.121887
115 0 1 12.757160 7.631669 539.928589
116 0 1 12.742010 7.556475 540.853882
117 0 1 12.709021 7.590148 541.798889
118 0 1 12.749810 7.685462 542.806580
119 0 1 12.775180 7.544790 543.718384
120 0 1 12.934600 7.422323 544.647583
121 0 1 13.068029 7.274459 545.588318
122 0 1 12.909110 7.320224 546.510315
123 0 1 12.520950 7.482895 547.412476
124 0 1 12.152800 7.346247 548.302917
125 0 1 11.765490 7.148871 549.150879
126 0 1 11.324060 6.963050 550.013794
127 0 1 10.894180 7.065560 550.846680
128 0 1 10.508060 7.194185 551.744202
129 0 1 10.353110 7.405024 552.678223
130 0 1 10.138730 7.114360 553.628723
131 0 1 10.019220 6.913380 554.590332
132 0 1 10.172280 6.663280 555.506470
133 0 1 10.137500 6.627440 556.484131
134 0 1 9.985940 6.552580 557.458984
135 0 1 9.479460 6.465670 558.303406
136 0 1 8.948433 6.246790 559.009827
137 0 1 8.891410 6.196540 559.971191
138 0 1 9.011640 6.520060 560.846680
139 0 1 9.339870 6.723810 561.730225
140 0 1 9.499590 7.012072 562.659790
141 0 1 9.463470 7.120755 563.639709
142 0 1 9.541389 7.240553 564.595215
143 0 1 9.647920 7.511607 565.518677
144 0 1 9.671350 8.064498 566.380371
145 0 1 9.560800 8.334650 567.303223
146 0 1 9.851020 8.500492 568.164185
147 0 1 10.242820 8.357596 569.038574
148 0 1 10.642770 8.273978 569.900574
149 0 1 11.119850 8.360797 570.695618
150 0 1 11.695920 8.400855 571.445496
151 0 1 12.409081 8.864362 571.968872
152 0 1 12.851709 9.217330 572.712585
153 0 1 13.087669 9.243000 573.631226
154 0 1 13.151630 9.025470 574.563110
155 0 1 13.483280 8.727064 575.469788
156 0 1 13.874020 8.542598 576.381775
157 0 1 14.178020 8.408806 577.280518
158 0 1 14.201270 8.525354 578.252075
159 0 1 14.293890 8.622239 579.169006
160 0 1 14.079041 8.523405 580.145813
161 0 1 13.952010 8.641188 581.152893
162 0 1 13.833691 8.594676 582.106384
163 0 1 13.649879 8.391360 582.975891
164 0 1 13.547421 8.443468 583.960083
165 0 1 13.661720 8.460362 584.929016
166 0 1 13.910191 8.130063 585.777832
167 0 1 13.957590 7.668122 586.602722
168 0 1 14.001570 7.009545 587.243713
169 0 1 13.887870 6.351550 588.013306
170 0 1 13.635300 5.747300 588.661987
171 0 1 13.290660 5.019470 589.222168
172 0 1 13.020269 4.411680 589.882202
173 0 1 12.546640 3.877980 590.542969
174 0 1 12.186370 3.507870 591.382996
175 0 1 11.578130 3.320080 592.217102
176 0 1 10.971621 3.284220 592.961914
177 0 1 10.438460 3.522540 593.776672
178 0 1 9.775140 3.937510 594.281189
179 0 1 9.266430 4.203790 594.998108
180 0 1 8.606696 4.589700 595.587280
181 0 1 8.099760 5.207320 596.033081
182 0 1 7.862722 5.638520 596.901611
183 0 1 7.913019 6.077480 597.712891
184 0 1 8.108513 6.601140 598.538574
185 0 1 8.352775 7.183807 599.307312
186 0 1 8.795855 7.762469 599.948975
187 0 1 9.318940 8.476603 600.386414
188 0 1 9.837780 8.874598 601.076111
189 0 1 10.125480 9.435260 601.808777
190 0 1 10.037590 9.940310 602.562317
191 0 1 9.676410 10.128531 603.482605
192 0 1 9.221070 10.438990 604.226318
193 0 1 8.689937 10.802940 604.906982
194 0 1 8.005533 11.143710 605.541687
195 0 1 7.335463 11.315730 606.203125
196 0 1 6.624910 11.299290 606.858276
197 0 1 6.107740 11.595440 607.661621
198 0 1 5.711900 11.799000 608.536804
199 0 1 5.606260 11.791430 609.497375
200 0 1 5.809670 11.750680 610.463074
201 0 1 6.256830 11.903800 611.263916
202 0 1 6.597910 12.029720 612.213379
203 0 1 6.736250 12.162020 613.197510
204 0 1 6.755850 12.205350 614.173889
205 0 1 7.010788 12.310010 615.098816
206 0 1 7.380471 12.243130 615.999207
207 0 1 7.783201 12.003759 616.799927
208 0 1 8.004726 11.719521 617.618103
209 0 1 8.197548 11.230110 618.403931
210 0 1 8.269998 10.648479 619.226868
211 0 1 8.403101 9.897630 619.905640
212 0 1 8.254837 9.250110 620.597107
213 0 1 8.261902 8.612155 621.343750
214 0 1 8.539071 8.156978 622.160400
215 0 1 8.830409 7.799572 623.027832
216 0 1 8.852918 7.630580 623.994202
217 0 1 8.739288 7.506690 624.958618
218 0 1 8.726647 7.485631 625.912109
219 0 1 8.903278 7.417208 626.828003
220 0 1 8.923765 7.385244 627.813538
221 0 1 8.923484 7.531182 628.773071
222 0 1 8.874975 7.722787 629.705017
223 0 1 8.726181 8.043557 630.612549
224 0 1 8.717606 8.309622 631.536377
225 0 1 8.643580 8.486991 632.490356
226 0 1 8.468200 8.961375 633.361877
227 0 1 8.275926 9.447930 634.196167
228 0 1 8.194215 9.670890 635.114929
229 0 1 7.812409 9.773211 636.020386
230 0 1 7.444954 9.915440 636.883484
231 0 1 7.209793 10.132550 637.707703
232 0 1 6.880030 10.347820 638.634521
233 0 1 6.713120 10.736629 639.539795
234 0 1 6.400430 11.010720 640.363525
235 0 1 6.328640 11.437500 641.204712
236 0 1 6.219560 11.715930 642.064026
237 0 1 6.080540 11.758400 643.018799
238 0 1 5.980150 11.875250 643.996094
239 0 1 6.197350 12.087830 644.920227
240 0 1 6.483840 12.160030 645.853882
241 0 1 7.100902 12.240089 646.592712
242 0 1 7.772837 12.194950 647.279175
243 0 1 8.611041 12.226860 647.810913
244 0 1 9.276649 12.284340 648.480408
245 0 1 10.023581 12.192690 649.121216
246 0 1 10.633841 12.330680 649.860229
247 0 1 11.371960 12.000240 650.472229
248 0 1 12.053260 11.608340 650.990112
249 0 1 12.500170 11.212690 651.789001
250 0 1 12.803770 10.964470 652.674011
251 0 1 12.639980 10.752650 653.610474
252 0 1 12.210270 10.680201 654.496094
253 0 1 11.898610 10.762671 655.402283
254 0 1 11.578671 11.001400 656.258118
255 0 1 11.374800 11.352150 657.144287
256 0 1 11.360250 11.293050 658.096497
257 0 1 11.396650 11.414200 659.072510
258 0 1 11.250390 11.564260 659.991211
259 0 1 11.283730 11.445630 660.953369
260 0 1 11.106600 11.394020 661.934692
261 0 1 11.082370 11.670640 662.860107
262 0 1 10.879930 12.080299 663.660278
263 0 1 10.719630 12.415180 664.537231
264 0 1 10.388781 12.572041 665.425293
265 0 1 10.265380 12.657101 666.345276
266 0 1 10.258350 12.666639 667.314575
267 0 1 10.023870 12.861130 668.204407
268 0 1 9.898460 12.712450 669.183594
269 0 1 10.047050 12.606630 670.136292
270 0 1 10.142650 12.251170 671.029602
271 0 1 10.355980 12.100599 671.961792
272 0 1 10.904250 12.037430 672.737671
273 0 1 11.606910 11.963500 673.385132
274 0 1 12.038620 11.757240 674.223694
275 0 1 12.233670 11.451270 675.102112
276 0 1 12.051910 11.330111 676.031494
277 0 1 11.830780 11.039730 676.955505
278 0 1 11.803810 10.928340 677.940125
279 0 1 11.831960 10.667440 678.850586
280 0 1 11.652150 10.050350 679.596680
281 0 1 11.451700 9.431080 680.333679
282 0 1 11.350370 8.709714 680.961304
283 0 1 11.174330 7.890261 681.403015
284 0 1 11.116430 7.096657 681.955872
285 0 1 10.695390 6.266760 682.314331
286 0 1 10.379030 5.538630 682.979309
287 0 1 9.960040 4.825930 683.471375
288 0 1 9.286600 4.211620 683.934082
289 0 1 8.593705 3.797650 684.441589
290 0 1 7.969483 3.466500 685.141113
291 0 1 7.186839 3.415870 685.664978
292 0 1 6.709750 3.594620 686.469788
293 0 1 6.302280 3.548230 687.385010
294 0 1 5.909830 3.535090 688.269775
295 0 1 5.798600 3.349080 689.170105
296 0 1 5.585670 2.932480 690.025818
297 0 1 5.357580 2.578830 690.896790
298 0 1 5.284390 2.455060 691.807495
299 0 1 5.177440 2.629250 692.698120
300 0 1 5.084230 2.806190 693.687866
301 0 1 5.060030 2.755830 694.623718
302 0 1 5.145540 2.623820 695.545532
303 0 1 5.460560 2.631240 696.470276
304 0 1 5.948530 2.473770 697.338318
305 0 1 6.511990 2.575680 698.151917
306 0 1 7.138353 2.759540 698.822876
307 0 1 7.945553 2.916730 699.421631
308 0 1 8.753948 2.962770 699.994385
309 0 1 9.564490 3.143720 700.431030
310 0 1 10.373220 3.404060 700.914185
311 0 1 11.051620 3.810540 701.528503
312 0 1 11.569080 4.185470 702.369629
313 0 1 11.980040 4.618610 703.137817
314 0 1 12.371241 5.047460 703.905212
315 0 1 12.533660 5.318370 704.788574
316 0 1 12.435680 5.821950 705.587402
317 0 1 12.043680 6.237400 706.375488
318 0 1 11.661580 6.504880 707.273682
319 0 1 11.085230 6.626920 708.061890
320 0 1 10.670310 6.472490 708.905029
321 0 1 10.354180 6.145080 709.776123
322 0 1 10.081739 5.912450 710.661316
323 0 1 9.809880 5.530850 711.539978
324 0 1 9.476100 5.266420 712.353699
325 0 1 9.020240 5.156310 713.177612
326 0 1 8.621773 5.604700 713.912598
327 0 1 8.260223 6.057290 714.683594
328 0 1 8.059849 6.591780 715.466492
329 0 1 7.887928 7.074148 716.283081
330 0 1 7.763790 7.634279 717.236877
331 0 1 7.696217 8.415656 717.739014
332 0 1 7.632438 9.249240 718.263489
333 0 1 7.514937 9.980280 718.904419
334 0 1 7.483690 10.801860 719.531494
335 0 1 7.618500 11.402309 720.344482
336 0 1 7.773320 11.775220 721.203918
337 0 1 8.149977 12.071890 722.012207
338 0 1 8.444739 12.102400 722.871887
339 0 1 8.460615 12.492929 723.785767
340 0 1 8.453079 12.916161 724.678833
341 0 1 8.236633 12.865231 725.594727
342 0 1 7.987333 12.613250 726.541809
343 0 1 7.619114 12.290450 727.313477
344 0 1 7.398512 11.702830 728.047729
345 0 1 7.068756 11.189720 728.726990
346 0 1 6.807640 10.693490 729.437988
347 0 1 6.516030 10.166630 730.189026
348 0 1 6.346610 9.585960 730.921997
349 0 1 6.689770 9.082570 731.629028
350 0 1 6.917150 8.631072 732.492981
351 0 1 6.960320 8.608298 733.461975
352 0 1 7.071360 8.227331 734.361023
353 0 1 7.159414 7.738944 735.160034
354 0 1 7.528778 7.122019 735.809021
355 0 1 8.132188 6.845190 736.489990
356 0 1 8.684200 6.603040 737.231018
357 0 1 9.019120 6.066390 737.968018
358 0 1 9.226089 5.592660 738.794983
359 0 1 8.956970 5.063680 739.536987
360 0 1 8.593652 4.696640 740.328003
361 0 1 8.356132 4.313780 741.115967
362 0 1 8.398758 3.921040 742.080994
363 0 1 8.387888 3.468220 742.859009
364 0 1 8.586024 2.980940 743.671997
365 0 1 8.266241 2.773110 744.583008
366 0 1 7.974666 2.874240 745.523987
367 0 1 8.054281 3.207660 746.427979
368 0 1 7.870182 3.686910 747.164978
369 0 1 7.646743 4.348270 747.872009
370 0 1 7.303677 5.144060 748.382019
371 0 1 7.141989 5.980810 748.809998
372 0 1 7.198745 6.891400 749.119995
373 0 1 7.177224 7.829692 749.442993
374 0 1 6.683230 8.473586 749.935974
375 0 1 6.145940 8.848867 750.593018
376 0 1 5.749510 9.190090 751.416016
377 0 1 5.577740 9.358610 752.367981
378 0 1 5.551440 9.695620 753.231018
379 0 1 5.350010 9.942760 754.138000
380 0 1 5.311460 10.316750 755.015015
381 0 1 5.474730 10.392281 755.976013
382 0 1 5.650790 10.537160 757.073975
383 0 1 5.593530 10.388510 758.015015
384 0 1 5.675560 10.189970 758.964966
385 0 1 5.827240 10.181430 760.007019
386 0 1 5.819890 10.175360 761.078003
387 0 1 6.021200 10.049561 761.995972
388 0 1 6.160740 10.119820 762.896973
389 0 1 6.076140 10.370290 763.835022
390 0 1 5.782730 10.775090 764.666016
391 0 1 6.001520 11.230670 765.563965
392 0 1 6.189980 11.658751 766.386963
393 0 1 6.781070 11.954520 767.261963
394 0 1 7.332450 11.903780 768.026001
395 0 1 7.825164 11.758210 768.877014
396 0 1 8.121738 11.791019 769.757019
397 0 1 8.481439 11.820660 770.664978
398 0 1 8.721686 12.121070 771.609985
399 0 1 8.953324 12.365140 772.601990
400 0 1 9.328590 12.574500 773.440002
401 0 1 9.514740 12.830400 774.395020
402 0 1 9.663480 12.827480 775.312988
403 0 1 9.835100 12.821180 776.228027
404 0 1 9.574490 12.790930 777.135986
405 0 1 9.451270 12.845110 778.098022
406 0 1 9.180370 12.988270 779.101990
407 0 1 9.155680 13.063760 780.010010
408 0 1 9.444230 13.312440 780.919983
409 0 1 9.943490 13.420160 781.755005
410 0 1 10.378880 13.214240 782.577026
411 0 1 10.706330 12.866190 783.424988
412 0 1 10.938670 12.435340 784.278992
413 0 1 11.301410 11.881490 785.052979
414 0 1 11.475660 11.291121 785.773987
415 0 1 11.676020 10.828350 786.578979
416 0 1 11.943650 10.291260 787.426025
417 0 1 11.905490 9.796910 788.306030
418 0 1 11.749150 9.164370 789.062988
419 0 1 11.904420 8.648861 789.835999
420 0 1 11.909700 8.048660 790.630005
421 0 1 12.113470 7.831495 791.541992
422 0 1 12.133570 7.908838 792.567993
423 0 1 11.645781 7.999615 793.417969
424 0 1 11.446190 8.219217 794.337036
425 0 1 11.105450 8.253225 795.278015
426 0 1 10.745300 8.504903 796.114990
427 0 1 10.047180 8.732143 796.787964
428 0 1 9.499480 8.727285 797.505981
429 0 1 8.720565 8.860897 797.976013
430 0 1 8.037654 9.040780 798.661011
431 0 1 7.598858 9.168020 799.526001
432 0 1 7.113304 9.359700 800.416992
433 0 1 6.852350 9.699750 801.210022
434 0 1 6.402390 10.095591 802.010986
435 0 1 6.399360 10.212080 802.942017
436 0 1 6.306320 9.918260 803.792969
437 0 1 6.052800 9.747520 804.718018
438 0 1 5.884950 9.263040 805.515991
439 0 1 5.899060 8.677401 806.294983
440 0 1 5.916460 8.464762 807.273010
441 0 1 5.694290 7.880011 808.023987
442 0 1 5.502240 7.147420 808.608032
443 0 1 5.558280 6.459050 809.377014
444 0 1 5.419260 5.818180 810.068970
445 0 1 5.454920 5.117930 810.713013
446 0 1 5.646250 4.509850 811.469971
447 0 1 5.489550 4.100480 812.309998
448 0 1 5.284340 3.729340 813.171021
449 0 1 5.322560 3.240920 814.018982
450 0 1 5.576240 2.938340 814.895020
451 0 1 6.010710 2.607050 815.671997
452 0 1 6.329220 2.317590 816.515015
453 0 1 6.444550 2.201490 817.458008
454 0 1 6.375730 2.594050 818.330994
455 0 1 6.473170 2.843940 819.304016
456 0 1 6.147000 3.290060 820.067017
457 0 1 5.848910 3.778520 820.813965
458 0 1 5.555240 4.054410 821.674988
459 0 1 5.118610 4.064350 822.468018
460 0 1 4.650790 3.834100 823.214966
461 0 1 4.253550 3.707780 824.015015
462 0 1 3.683310 3.519700 824.809021
463 0 1 3.290660 3.452940 825.640015
464 0 1 2.984980 3.557590 826.528015
465 0 1 3.009410 3.536690 827.520996
466 0 1 3.009950 3.236060 828.460999
467 0 1 3.235700 3.006530 829.388000
468 0 1 3.482830 2.864070 830.281982
469 0 1 3.881300 2.881630 831.174011
470 0 1 4.195350 3.390060 831.934998
471 0 1 4.171980 4.107370 832.559998
472 0 1 4.248960 4.942200 833.052002
473 0 1 4.075970 5.856850 833.186035
474 0 1 3.795400 6.769070 833.287964
475 0 1 3.741680 7.761830 833.391968
476 0 1 3.698000 8.664186 832.992004
477 0 1 3.735390 9.385520 832.328003
478 0 1 3.554980 10.207680 831.844971
479 0 1 3.604320 10.902510 831.148010
480 0 1 3.801550 11.514550 830.442017
481 0 1 4.061480 11.935530 829.608032
482 0 1 4.238020 12.418170 828.838013
483 0 1 4.573290 12.675020 827.950989
484 0 1 4.957280 12.520940 827.061035
485 0 1 5.327010 12.390551 826.171997
486 0 1 5.925410 12.166740 825.447021
487 0 1 6.515390 11.844640 824.838989
488 0 1 7.094995 11.754420 823.966980
489 0 1 7.588961 11.639250 823.132019
490 0 1 7.870916 11.325270 822.273987
491 0 1 7.973511 11.020510 821.337036
492 0 1 7.883846 10.460040 820.504028
493 0 1 7.847280 9.780500 819.785034
494 0 1 7.867279 9.063860 819.216003
495 0 1 7.993625 8.505123 818.416992
496 0 1 7.777206 8.151684 817.484009
497 0 1 7.686787 7.769271 816.596985
498 0 1 7.697150 7.400597 815.724976
499 0 1 7.634495 6.851630 814.889038
500 0 1 7.567858 6.507820 813.940979
501 0 1 7.633738 6.194810 812.978027
502 0 1 7.830331 5.725320 812.127991
503 0 1 7.769298 5.256720 811.315979
504 0 1 7.924372 4.880380 810.509033
505 0 1 7.919440 4.481700 809.677002
506 0 1 7.945035 4.100030 808.765015
507 0 1 8.108775 3.652540 807.901001
508 0 1 8.242720 3.234950 807.068970
509 0 1 8.588463 2.956440 806.143982
510 0 1 9.051070 2.772240 805.231018
511 0 1 9.443410 2.628780 804.348022
512 0 1 9.799900 2.709620 803.458008
513 0 1 9.919460 2.885540 802.497986
514 0 1 9.884080 2.683220 801.554016
515 0 1 9.729910 2.553050 800.664001
516 0 1 9.670030 2.560600 799.679993
517 0 1 9.693000 2.668760 798.718018
518 0 1 9.674180 2.966370 797.856018
519 0 1 9.628390 3.206190 796.974976
520 0 1 9.595440 3.400710 796.002991
521 0 1 9.542920 3.471680 794.989014
522 0 1 9.080510 3.620490 794.174011
523 0 1 8.921501 4.033370 793.286011
524 0 1 8.624714 4.457580 792.384033
525 0 1 8.484299 4.681700 791.476013
526 0 1 8.371743 4.967820 790.556030
527 0 1 8.240697 5.129330 789.672974
528 0 1 7.934757 5.466400 788.815979
529 0 1 7.415974 5.874950 788.068970
530 0 1 7.068099 6.434720 787.356018
531 0 1 7.017225 6.949620 786.499023
532 0 1 6.842270 7.532465 785.712036
533 0 1 6.599100 8.205158 785.011963
534 0 1 6.342320 8.723103 784.271973
535 0 1 6.328110 9.417960 783.705017
536 0 1 6.234390 9.854690 782.833984
537 0 1 5.879760 10.220460 781.989990
538 0 1 5.729950 10.500280 781.030029
539 0 1 5.581760 10.688160 780.117981
540 0 1 5.634880 10.733590 779.151001
541 0 1 5.723360 10.580630 778.229004
542 0 1 5.642910 10.469900 777.221008
543 0 1 5.472980 10.605391 776.287964
544 0 1 5.585500 10.875031 775.372009
545 0 1 5.958450 11.068550 774.495972
546 0 1 6.608120 11.117470 773.776978
547 0 1 7.253772 10.905080 773.039978
548 0 1 7.922103 10.547410 772.377991
549 0 1 8.637059 10.294380 771.734985
550 0 1 9.110550 10.047640 770.914978
551 0 1 9.363250 10.008420 769.968994
552 0 1 9.612000 10.116350 769.075012
553 0 1 9.752340 10.404330 768.187988
554 0 1 9.652290 10.731319 767.271973
555 0 1 9.857520 11.136100 766.379028
556 0 1 10.062310 11.245220 765.445007
557 0 1 10.381020 11.248610 764.515015
558 0 1 10.898520 11.176210 763.658997
559 0 1 11.445030 11.028640 762.895996
560 0 1 12.117670 10.711840 762.245972
561 0 1 12.579700 10.595090 761.455017
562 0 1 12.705561 10.376500 760.539978
563 0 1 12.386780 9.820630 759.822998
564 0 1 12.370800 9.083160 759.190002
565 0 1 12.520870 8.371466 758.518005
566 0 1 12.264080 7.757668 757.853027
567 0 1 11.861110 7.052054 757.359009
568 0 1 11.761060 6.341620 756.742981
569 0 1 11.803940 5.746160 755.966980
570 0 1 11.934390 5.074030 755.265015
571 0 1 12.192150 4.492100 754.526001
572 0 1 12.284330 3.712280 753.924988
573 0 1 12.275101 3.127830 753.143005
574 0 1 12.059560 2.606910 752.388977
575 0 1 11.734550 2.539600 751.539978
576 0 1 11.226180 2.336760 750.604004
577 0 1 10.787880 2.053540 749.806030
578 0 1 10.383690 2.136060 748.940979
579 0 1 10.159410 2.292810 748.028992
580 0 1 10.123960 2.576340 747.096985
581 0 1 9.825130 2.973160 746.289001
582 0 1 9.746490 3.592280 745.591003
583 0 1 9.791610 4.142600 744.825989
584 0 1 9.604020 4.502020 743.893005
585 0 1 9.032010 4.825730 743.216003
586 0 1 8.257232 4.959330 742.609985
587 0 1 7.536820 4.732690 742.051025
588 0 1 6.796890 4.329900 741.513977
589 0 1 6.160030 4.130270 740.817017
590 0 1 5.470370 3.954420 740.134033
591 0 1 4.869040 4.023610 739.374023
592 0 1 4.650890 4.117340 738.406982
593 0 1 4.551230 4.325540 737.450012
594 0 1 4.527700 4.351970 736.431030
595 0 1 4.518750 4.350140 735.474976
596 0 1 4.815460 4.098740 734.601990
597 0 1 4.762810 4.006390 733.685974
598 0 1 4.806670 3.807300 732.687012
599 0 1 4.758220 3.452440 731.721985
600 0 1 4.857560 2.871820 730.893005
601 0 1 4.891000 2.763090 729.971985
602 0 1 5.042850 2.554590 728.990967
603 0 1 5.324160 2.465230 728.042908
604 0 1 5.749920 2.479420 727.178833
605 0 1 6.093660 2.467920 726.277283
606 0 1 6.214140 2.342060 725.315125
607 0 1 6.050480 2.190540 724.368103
608 0 1 5.694680 2.198570 723.455688
609 0 1 5.654710 2.290910 722.536926
610 0 1 5.775140 2.482460 721.604675
611 0 1 6.012270 2.871450 720.742798
612 0 1 6.455560 3.002560 719.924622
613 0 1 6.829290 3.107430 719.042114
614 0 1 7.064008 3.030180 718.127075
615 0 1 7.501508 3.231190 717.322388
616 0 1 8.200743 3.434990 716.591919
617 0 1 8.870189 3.742920 716.033020
618 0 1 9.633190 3.935390 715.435425
619 0 1 10.263710 4.189450 714.769104
620 0 1 10.990829 4.497480 714.249817
621 0 1 11.650270 4.975240 713.722778
622 0 1 12.163930 5.634510 713.289612
623 0 1 12.494390 6.324110 712.659302
624 0 1 12.855860 6.822430 711.921326
625 0 1 13.337990 7.315407 711.236816
626 0 1 13.422000 7.860845 710.436768
627 0 1 13.450100 8.355502 709.582886
628 0 1 13.562960 8.755523 708.687195
629 0 1 13.283751 9.299720 707.895996
630 0 1 13.051350 9.616320 706.973633
631 0 1 12.661720 9.881090 706.084412
632 0 1 12.204700 10.503571 705.390991
633 0 1 11.631480 10.992860 704.780823
634 0 1 11.167120 11.534770 704.106079
635 0 1 10.547860 11.861560 703.454102
636 0 1 9.981900 12.100650 702.718384
637 0 1 9.525890 12.251471 701.900085
638 0 1 8.934545 12.419661 701.145325
639 0 1 8.125287 12.361050 700.559326
640 0 1 7.379189 12.316050 699.957703
641 0 1 6.725260 12.137280 699.324097
642 0 1 6.266420 11.579210 698.606018
643 0 1 5.731190 11.012870 698.086304
644 0 1 5.407410 10.186350 697.632324
645 0 1 5.372260 9.274110 697.312988
646 0 1 5.167970 8.428746 696.980774
647 0 1 4.886760 7.562802 696.683411
648 0 1 5.033770 6.773190 696.130188
649 0 1 5.140410 6.357300 695.337585
650 0 1 5.228590 6.161590 694.421082
651 0 1 5.730010 6.022810 693.602295
652 0 1 6.428550 5.907710 693.020325
653 0 1 7.105434 5.772440 692.361816
654 0 1 7.917570 5.556960 691.945923
655 0 1 8.771410 5.263140 691.377380
656 0 1 9.444040 5.006130 690.773010
657 0 1 9.924970 4.633850 690.018188
658 0 1 10.331460 4.403240 689.186279
659 0 1 10.829411 4.369190 688.335510
660 0 1 11.073640 4.391460 687.417480
661 0 1 11.168850 4.182930 686.510681
662 0 1 11.255569 3.851040 685.610901
663 0 1 11.024760 3.367640 684.781677
664 0 1 10.708230 3.022170 683.957703
665 0 1 10.361170 2.740360 683.093994
666 0 1 9.739850 2.650370 682.337402
667 0 1 9.138320 2.444120 681.591919
668 0 1 9.063780 2.127680 680.734985
669 0 1 8.883927 1.841150 679.822632
670 0 1 8.718552 1.929210 678.929993
671 0 1 8.814462 2.070160 677.948914
672 0 1 8.891017 2.134230 676.921021
673 0 1 9.106120 2.197320 675.986328
674 0 1 9.244400 2.216360 674.955811
675 0 1 9.257040 2.009380 674.057190
676 0 1 9.234110 1.920960 673.081116
677 0 1 9.080170 1.962370 672.088074
678 0 1 9.022740 1.933660 671.112122
679 0 1 9.032420 1.814930 670.166870
680 0 1 9.338240 2.119880 669.322693
681 0 1 9.688140 2.608090 668.503113
682 0 1 9.908490 2.884650 667.639221
683 0 1 10.073750 3.351650 666.780518
684 0 1 10.232450 3.721090 665.916809
685 0 1 10.173600 4.001560 664.996582
686 0 1 10.279750 4.388710 664.159973
687 0 1 10.450610 4.635810 663.217712
688 0 1 10.605770 4.700140 662.294678
689 0 1 10.797080 4.665240 661.390198
690 0 1 10.956490 4.608800 660.438782
691 0 1 10.844320 4.810090 659.475098
692 0 1 10.781820 4.653080 658.457275
693 0 1 10.768560 4.614110 657.521729
694 0 1 10.628310 4.898060 656.590027
695 0 1 10.234961 4.875970 655.691101
696 0 1 10.011880 4.587580 654.785889
697 0 1 9.850920 4.402300 653.834229
698 0 1 9.727880 4.659710 652.835388
699 0 1 9.636200 4.943000 651.902893
700 0 1 9.308300 5.172490 651.068726
701 0 1 9.081850 5.137760 650.149109
702 0 1 8.901217 4.837570 649.212708
703 0 1 8.519786 4.827820 648.361572
704 0 1 8.248453 4.653620 647.421326
705 0 1 8.023864 4.592360 646.439087
706 0 1 7.895125 4.713010 645.527100
707 0 1 7.575960 5.126520 644.627380
708 0 1 7.390509 5.618940 643.848572
709 0 1 7.168466 6.023300 642.954285
710 0 1 6.906970 6.443260 642.177185
711 0 1 6.572660 6.443100 641.260925
712 0 1 6.117130 6.462240 640.374695
713 0 1 5.773060 6.558350 639.501709
714 0 1 5.544990 6.214690 638.619690
715 0 1 5.324400 5.941340 637.742004
716 0 1 5.054470 5.716890 636.878052
717 0 1 4.774230 5.485890 635.988586
718 0 1 4.515960 5.258740 635.065491
719 0 1 4.404950 5.167440 634.123413
720 0 1 4.372550 5.153000 633.114990
721 0 1 4.470710 5.019980 632.189026
722 0 1 4.623930 5.167740 631.240479
723 0 1 4.898140 5.500830 630.355957
724 0 1 4.894990 5.964680 629.562927
725 0 1 4.897340 6.376130 628.656128
726 0 1 4.775240 6.722030 627.734619
727 0 1 4.733280 7.009144 626.765320
728 0 1 4.562600 6.941380 625.793579
729 0 1 4.548970 6.884020 624.825562
730 0 1 4.284750 6.892640 623.880920
731 0 1 3.906420 7.025589 622.930969
732 0 1 3.603250 7.071865 622.020386
733 0 1 3.305690 7.145676 621.128174
734 0 1 3.122150 7.389679 620.164490
735 0 1 2.921990 7.334802 619.219116
736 0 1 2.874530 7.304467 618.240295
737 0 1 2.695000 7.398878 617.302185
738 0 1 2.759930 7.392491 616.288696
739 0 1 2.618650 7.212420 615.380798
740 0 1 2.473420 6.912350 614.453369
741 0 1 2.364120 6.437130 613.652283
742 0 1 2.429640 5.964020 612.802917
743 0 1 2.343350 5.582150 611.983398
744 0 1 2.199640 5.282140 611.077271
745 0 1 2.363830 5.360490 610.086792
746 0 1 2.598630 5.525310 609.144226
747 0 1 3.001860 5.679260 608.267822
748 0 1 3.526880 5.830400 607.521301
749 0 1 3.950670 6.011960 606.635620
750 0 1 4.387010 6.264250 605.827515
751 0 1 4.653100 6.283080 604.901123
752 0 1 5.085330 6.273140 604.034119
753 0 1 5.296650 6.289970 603.106018
754 0 1 5.435320 6.474980 602.190430
755 0 1 5.589090 6.874690 601.295227
756 0 1 5.510930 7.316418 600.432617
757 0 1 5.841730 7.730943 599.684387
758 0 1 6.089740 8.353186 598.987793
759 0 1 6.567270 8.812411 598.273499
760 0 1 7.251834 8.960221 597.572998
761 0 1 7.765813 9.258039 596.750183
762 0 1 8.102534 9.658990 595.971802
763 0 1 8.562400 10.157060 595.336609
764 0 1 8.771000 10.584150 594.522827
765 0 1 8.959005 10.969110 593.683472
766 0 1 9.094900 11.336840 592.802124
767 0 1 8.909206 11.796329 592.023621
768 0 1 8.826861 12.259680 591.198792
769 0 1 8.802251 12.829050 590.366211
770 0 1 9.052420 13.175680 589.477112
771 0 1 9.050300 13.309669 588.418518
772 0 1 8.736368 13.438869 587.484009
773 0 1 8.571221 13.044291 586.623291
774 0 1 8.551995 12.696150 585.712891
775 0 1 8.908709 12.709240 584.802368
776 0 1 9.099270 12.507160 583.877319
777 0 1 9.370630 11.912330 583.160706
778 0 1 9.267010 11.343610 582.385010
779 0 1 9.148020 10.741040 581.640198
780 0 1 9.225080 10.207240 580.865479
781 0 1 9.302780 9.454741 580.206604
782 0 1 9.346830 8.930309 579.393005
783 0 1 9.453070 8.414791 578.590088
784 0 1 9.289400 8.056027 577.758484
785 0 1 8.908632 7.795385 576.923828
786 0 1 8.591968 7.524634 576.041077
787 0 1 8.340343 7.126980 575.201782
788 0 1 8.131769 6.690500 574.407410
789 0 1 8.039580 6.384840 573.437927
790 0 1 8.192137 6.027740 572.554810
791 0 1 8.361596 5.560690 571.764282