LAMMPS data file via MDAnalysis

        1000  atoms
        1000  bonds
        1000  angles
           0  dihedrals
           0  impropers

           1  atom types
           1  bond types
           1  angle types
           0  dihedral types
           0  improper types

0.000000 16.000000 xlo xhi
0.000000 16.000000 ylo yhi
0.000000 1257.000000 zlo zhi


Masses

1 1.000000

Atoms

1 0 1 6.540820 13.534781 444.164978
2 0 1 6.299090 13.614090 445.075989
3 0 1 5.975560 13.652320 446.000000
4 0 1 5.959640 13.874269 446.964996
5 0 1 6.137230 14.014580 447.901001
6 0 1 6.406920 13.861540 448.789978
7 0 1 6.540320 13.538680 449.679016
8 0 1 6.503540 13.164909 450.559021
9 0 1 6.491540 12.771720 451.497009
10 0 1 6.775250 12.351350 452.335999
11 0 1 6.681590 11.956360 453.205017
12 0 1 6.675300 11.518190 453.983002
13 0 1 6.862510 11.213560 454.877991
14 0 1 6.948250 10.657220 455.669006
15 0 1 7.090580 10.192980 456.500000
16 0 1 7.339041 9.691170 457.201996
17 0 1 7.516850 9.257130 458.011993
18 0 1 7.502305 8.838724 458.875000
19 0 1 7.800513 8.699427 459.772003
20 0 1 8.113808 8.656369 460.699005
21 0 1 8.199238 8.926694 461.598999
22 0 1 8.280478 9.061780 462.529999
23 0 1 8.466792 9.123680 463.434021
24 0 1 8.598686 9.068730 464.348999
25 0 1 8.717010 8.955399 465.270020
26 0 1 8.790818 8.750912 466.225006
27 0 1 9.273010 8.429495 467.046021
28 0 1 9.834150 8.183895 467.770020
29 0 1 10.539021 7.877811 468.471985
30 0 1 11.330700 7.839022 469.112000
31 0 1 11.872290 7.732764 469.966980
32 0 1 12.239650 7.670616 470.835022
33 0 1 12.386100 7.557813 471.806000
34 0 1 12.657780 7.802256 472.738007
35 0 1 12.698050 8.316722 473.640015
36 0 1 12.562140 8.661580 474.598999
37 0 1 12.452761 8.998517 475.481018
38 0 1 12.415501 9.355450 476.429016
39 0 1 12.764460 9.597000 477.286011
40 0 1 12.914730 9.927830 478.197998
41 0 1 13.002890 10.301980 479.062988
42 0 1 12.936310 10.583570 479.992981
43 0 1 12.722760 10.829300 480.960022
44 0 1 12.439341 10.846880 481.929993
45 0 1 12.179840 10.821960 482.872986
46 0 1 11.881320 10.700300 483.812012
47 0 1 11.288900 10.499640 484.617981
48 0 1 10.781530 10.334180 485.421997
49 0 1 10.463570 10.077790 486.257019
50 0 1 10.371150 9.985060 487.173004
51 0 1 10.160580 9.725420 488.089996
52 0 1 10.019890 9.471189 489.028015
53 0 1 10.203790 9.084850 489.949005
54 0 1 10.199580 8.863418 490.903992
55 0 1 9.934950 8.629014 491.796021
56 0 1 9.708050 8.667275 492.701996
57 0 1 9.601320 8.848020 493.627014
58 0 1 9.343100 8.780783 494.528015
59 0 1 8.968801 8.711931 495.481018
60 0 1 8.713874 8.918207 496.437012
61 0 1 8.655678 9.074690 497.382996
62 0 1 8.362117 9.118070 498.283997
63 0 1 7.931892 8.946354 499.113007
64 0 1 7.472450 8.787621 499.901001
65 0 1 7.134173 8.691730 500.720001
66 0 1 6.835070 8.839281 501.627991
67 0 1 6.564860 8.967106 502.546997
68 0 1 6.379320 9.163200 503.466003
69 0 1 6.183980 9.325020 504.358002
70 0 1 6.105870 9.517480 505.279999
71 0 1 6.257290 9.837780 506.179016
72 0 1 6.555950 9.658570 507.050995
73 0 1 6.866900 9.235980 507.942993
74 0 1 6.987270 8.587592 508.580017
75 0 1 7.268763 8.067806 509.356018
76 0 1 7.133992 7.662399 510.252991
77 0 1 7.194804 7.086724 511.010010
78 0 1 7.140926 6.626910 511.865997
79 0 1 6.993930 5.970960 512.672974
80 0 1 6.960320 5.531190 513.536011
81 0 1 6.865020 5.115510 514.391968
82 0 1 6.632460 4.615340 515.192993
83 0 1 6.588060 4.100530 515.989014
84 0 1 6.391650 3.709450 516.833008
85 0 1 6.485090 3.171170 517.622986
86 0 1 6.796870 2.485520 518.247009
87 0 1 7.219211 2.057410 518.984985
88 0 1 7.692173 1.900390 519.851990
89 0 1 8.070037 1.659340 520.682007
90 0 1 8.589338 1.659040 521.513000
91 0 1 8.977045 1.894250 522.302979
92 0 1 9.402719 1.977980 523.179016
93 0 1 9.555330 2.240400 524.104004
94 0 1 9.507550 2.694110 525.018005
95 0 1 9.462130 3.064370 525.893005
96 0 1 9.201860 3.255580 526.814026
97 0 1 8.978245 3.481310 527.672974
98 0 1 8.927913 3.786940 528.569092
99 0 1 8.842130 4.150220 529.473389
100 0 1 9.215890 4.356270 530.292297
101 0 1 9.300060 4.882010 531.124817
102 0 1 9.184010 5.363940 531.928894
103 0 1 9.511530 5.582620 532.809875
104 0 1 9.598190 5.873480 533.719299
105 0 1 9.915660 5.949890 534.642700
106 0 1 10.378540 6.043490 535.474182
107 0 1 10.723100 6.224220 536.353394
108 0 1 10.949880 6.310580 537.312134
109 0 1 11.190229 6.373130 538.203674
110 0 1 11.451440 6.397210 539.130981
111 0 1 11.525820 6.491010 540.040894
112 0 1 11.756371 6.584560 541.002502
113 0 1 11.853160 6.664880 541.970276
114 0 1 12.255421 6.719400 542.888306
115 0 1 12.438620 6.933340 543.847595
116 0 1 12.601140 6.942760 544.741211
117 0 1 12.658060 7.172997 545.677307
118 0 1 12.675890 7.453283 546.601501
119 0 1 12.446580 7.777665 547.521973
120 0 1 11.900630 8.198553 548.219177
121 0 1 11.606950 8.603696 549.004395
122 0 1 11.408500 9.106160 549.770813
123 0 1 11.360130 9.480410 550.627075
124 0 1 11.189529 9.942950 551.442200
125 0 1 11.046619 10.564020 552.223267
126 0 1 10.949720 11.227591 552.941895
127 0 1 10.901140 11.701981 553.714722
128 0 1 10.797190 12.377700 554.425476
129 0 1 10.544130 13.019230 555.157288
130 0 1 10.230820 13.540060 555.985291
131 0 1 9.897010 13.866350 556.782898
132 0 1 9.819410 14.145730 557.694275
133 0 1 9.925240 14.179840 558.632507
134 0 1 10.079340 14.364571 559.586670
135 0 1 10.241790 14.437480 560.561401
136 0 1 10.448400 14.273710 561.441528
137 0 1 10.845440 14.037930 562.336914
138 0 1 10.897390 13.676770 563.203308
139 0 1 11.160130 13.468050 564.161804
140 0 1 11.136110 13.185551 565.125122
141 0 1 11.121410 12.868780 565.989624
142 0 1 10.939301 12.709590 566.940430
143 0 1 10.696470 12.515580 567.869812
144 0 1 10.424950 12.647470 568.773987
145 0 1 10.078840 12.847430 569.674316
146 0 1 9.597570 12.970039 570.604492
147 0 1 8.990437 13.206060 571.358093
148 0 1 8.250524 13.164560 571.948975
149 0 1 7.656591 12.990311 572.674927
150 0 1 7.085559 12.657600 573.379822
151 0 1 6.674490 12.386560 574.236206
152 0 1 6.304740 11.978170 575.015015
153 0 1 5.660110 11.708380 575.716309
154 0 1 5.089580 11.531660 576.523193
155 0 1 4.371160 11.453150 577.126099
156 0 1 3.666980 11.290620 577.724609
157 0 1 3.063430 10.666740 578.164795
158 0 1 2.529240 10.027840 578.641968
159 0 1 2.064650 9.444450 579.299377
160 0 1 1.703910 8.862474 579.991272
161 0 1 1.532520 8.358325 580.824707
162 0 1 1.446610 7.613684 581.383423
163 0 1 1.631520 6.987070 582.071289
164 0 1 2.037810 6.488340 582.721069
165 0 1 2.425480 6.255470 583.610413
166 0 1 2.718470 5.938160 584.468018
167 0 1 2.953050 5.553270 585.316284
168 0 1 3.242820 5.152140 586.122314
169 0 1 3.476740 4.710590 586.924622
170 0 1 3.679370 4.491800 587.915588
171 0 1 3.946300 4.084890 588.755615
172 0 1 4.201360 4.051540 589.666626
173 0 1 4.574280 3.948360 590.518311
174 0 1 4.955850 3.614860 591.296204
175 0 1 5.550640 3.097590 591.925171
176 0 1 5.998040 2.457290 592.505981
177 0 1 6.254600 1.876090 593.317078
178 0 1 6.315050 1.512100 594.293701
179 0 1 6.452320 1.382500 595.201782
180 0 1 6.641330 1.286040 596.163330
181 0 1 6.772810 1.352220 597.091125
182 0 1 6.654250 1.375600 598.022278
183 0 1 6.499560 1.557240 598.909607
184 0 1 6.546590 2.032130 599.708679
185 0 1 6.549880 2.742620 600.334106
186 0 1 6.239380 3.437750 600.982422
187 0 1 6.175190 3.998170 601.715515
188 0 1 6.069010 4.581400 602.477478
189 0 1 5.754900 4.960580 603.347107
190 0 1 5.405070 4.995060 604.268616
191 0 1 5.369900 4.896740 605.233398
192 0 1 5.786450 4.761140 606.131592
193 0 1 5.832320 4.887770 607.118286
194 0 1 5.880290 5.041160 608.114380
195 0 1 6.169250 5.622190 608.841797
196 0 1 6.521900 5.969510 609.603577
197 0 1 6.782400 6.299470 610.470093
198 0 1 6.678500 6.377380 611.461426
199 0 1 6.581250 6.651690 612.416321
200 0 1 6.494040 7.253489 613.324890
201 0 1 6.369270 7.963888 613.903015
202 0 1 6.168380 8.656867 614.558716
203 0 1 6.162270 9.365950 615.125427
204 0 1 6.425500 9.998680 615.812988
205 0 1 6.695170 10.336260 616.709290
206 0 1 7.130772 10.385201 617.560181
207 0 1 7.555741 10.540461 618.464905
208 0 1 7.927411 10.572470 619.314758
209 0 1 8.427110 10.710900 620.109497
210 0 1 8.737464 10.964590 620.945374
211 0 1 8.907755 11.316710 621.878052
212 0 1 8.943871 11.227110 622.874268
213 0 1 9.109380 10.953210 623.831421
214 0 1 9.290490 10.963350 624.773499
215 0 1 9.653320 11.251880 625.658875
216 0 1 9.945850 11.434610 626.568970
217 0 1 10.210450 11.947300 627.373840
218 0 1 10.539130 12.446350 628.145569
219 0 1 10.617760 13.115520 628.888611
220 0 1 10.547170 13.517750 629.735046
221 0 1 10.222460 13.971220 630.545959
222 0 1 9.783980 14.214010 631.448181
223 0 1 9.475410 14.499599 632.292908
224 0 1 9.190701 14.629721 633.184387
225 0 1 8.986708 14.619101 634.142822
226 0 1 8.751291 14.349350 634.989014
227 0 1 8.307367 13.972219 635.749939
228 0 1 8.138453 13.588050 636.604797
229 0 1 7.796850 13.280450 637.468933
230 0 1 7.212074 12.723340 638.109802
231 0 1 6.738350 12.288990 638.783508
232 0 1 6.268190 11.895530 639.507324
233 0 1 5.879800 11.477560 640.284912
234 0 1 5.582160 11.064810 641.106812
235 0 1 5.411760 10.994360 642.132996
236 0 1 5.410140 10.785200 643.156372
237 0 1 5.287260 10.680099 644.058594
238 0 1 5.450700 10.646530 645.045410
239 0 1 5.417670 10.552570 646.103027
240 0 1 5.468300 10.517990 647.065430
241 0 1 5.685290 10.502490 648.062683
242 0 1 5.962500 10.470221 648.938416
243 0 1 6.164450 10.616790 649.893921
244 0 1 6.328240 10.759450 650.848389
245 0 1 6.426510 11.045580 651.682312
246 0 1 6.467830 11.457930 652.539001
247 0 1 6.547590 11.917980 653.335571
248 0 1 6.725090 12.489019 654.102417
249 0 1 6.877010 12.890210 654.965088
250 0 1 7.263246 13.116840 655.862000
251 0 1 7.360285 13.243690 656.849609
252 0 1 7.659861 13.675870 657.662231
253 0 1 8.165848 13.661870 658.484009
254 0 1 8.617735 13.348750 659.301575
255 0 1 8.684528 13.000710 660.187073
256 0 1 8.790076 12.648760 661.117126
257 0 1 9.031590 12.641840 662.060974
258 0 1 9.125710 12.522530 663.003601
259 0 1 9.425020 12.216160 663.891602
260 0 1 9.713720 11.954720 664.721375
261 0 1 10.173920 11.631140 665.525574
262 0 1 10.715620 11.390700 666.214905
263 0 1 11.051320 11.021990 667.003906
264 0 1 11.215160 10.825490 668.010376
265 0 1 11.622580 10.823740 668.922729
266 0 1 11.859450 10.596240 669.804199
267 0 1 11.728240 10.519860 670.759583
268 0 1 11.597990 10.497790 671.778015
269 0 1 11.563550 10.496660 672.722168
270 0 1 11.647840 10.220300 673.677307
271 0 1 11.353720 10.093480 674.575928
272 0 1 10.866650 10.349051 675.429016
273 0 1 10.219920 10.385410 676.121521
274 0 1 9.868320 10.528800 676.969177
275 0 1 9.852290 10.248240 677.847717
276 0 1 9.676280 10.008471 678.720398
277 0 1 9.466760 9.929110 679.706299
278 0 1 9.438390 9.616740 680.623474
279 0 1 9.301260 9.397670 681.534668
280 0 1 9.322701 9.618290 682.511719
281 0 1 9.634410 9.825560 683.420105
282 0 1 9.997840 10.195420 684.219788
283 0 1 10.611680 10.501390 684.918518
284 0 1 10.988970 10.344910 685.769104
285 0 1 11.534140 10.380190 686.624573
286 0 1 11.767139 10.458780 687.558411
287 0 1 12.061729 10.383380 688.492920
288 0 1 12.142620 10.312290 689.466309
289 0 1 12.039380 10.102970 690.360474
290 0 1 11.814050 10.082180 691.281616
291 0 1 11.880130 10.205920 692.247192
292 0 1 11.722050 10.480070 693.164978
293 0 1 11.569420 10.654510 694.107178
294 0 1 11.286530 10.759109 695.039917
295 0 1 11.106570 11.117340 696.063416
296 0 1 10.825670 11.454460 696.885986
297 0 1 10.508010 11.802350 697.807007
298 0 1 10.138990 12.216320 698.549988
299 0 1 9.911720 12.558250 699.365173
300 0 1 9.455070 12.970870 700.148010
301 0 1 9.231270 13.551610 700.911621
302 0 1 9.146600 13.673710 701.907104
303 0 1 8.871387 13.513540 702.810181
304 0 1 8.450965 13.522840 703.664917
305 0 1 8.233408 13.423740 704.602783
306 0 1 7.799550 13.462999 705.510498
307 0 1 7.501795 13.628000 706.395203
308 0 1 7.242243 13.655291 707.387207
309 0 1 7.330422 13.488279 708.310486
310 0 1 7.205010 13.093269 709.148376
311 0 1 7.242035 12.489100 709.891724
312 0 1 7.273802 11.999710 710.693176
313 0 1 7.311788 11.420300 711.376831
314 0 1 7.388761 10.632570 712.031799
315 0 1 7.380916 9.893450 712.678711
316 0 1 7.367613 9.161670 713.318176
317 0 1 7.044321 8.606501 714.028809
318 0 1 6.607640 7.890993 714.494812
319 0 1 6.488340 7.648677 715.389221
320 0 1 6.491960 7.388378 716.315308
321 0 1 6.370330 7.293240 717.270386
322 0 1 6.174050 7.272626 718.210693
323 0 1 6.127530 7.118189 719.174622
324 0 1 6.045240 6.873270 720.076111
325 0 1 5.855620 6.556280 721.031006
326 0 1 5.767260 5.953170 721.818787
327 0 1 6.030410 5.571850 722.749023
328 0 1 6.417790 5.487680 723.679077
329 0 1 7.088854 5.318440 724.282227
330 0 1 7.854263 5.430730 724.855896
331 0 1 8.724326 5.555210 725.236328
332 0 1 9.639260 5.853530 725.618713
333 0 1 10.248450 6.480170 726.089783
334 0 1 10.673531 7.204597 726.622620
335 0 1 10.925591 8.098850 726.946777
336 0 1 11.166050 9.019610 727.202209
337 0 1 11.237010 9.871760 727.724304
338 0 1 11.181530 10.566130 728.382385
339 0 1 10.870250 11.198800 729.067017
340 0 1 10.373580 11.563360 729.726013
341 0 1 9.893080 12.007919 730.440979
342 0 1 9.394290 12.409510 731.189026
343 0 1 8.969734 12.844669 731.937012
344 0 1 8.576075 13.346920 732.627014
345 0 1 7.958817 13.594470 733.356018
346 0 1 7.413920 13.780750 734.130005
347 0 1 6.972290 14.100430 734.922974
348 0 1 6.522060 14.394680 735.726990
349 0 1 5.921100 14.380390 736.434021
350 0 1 5.341240 14.030490 737.197998
351 0 1 4.660070 13.742200 737.833984
352 0 1 4.099720 13.246460 738.353027
353 0 1 3.438390 12.502330 738.518982
354 0 1 3.147590 11.612220 738.809998
355 0 1 3.055510 10.932550 739.411987
356 0 1 3.050120 10.308030 740.073975
357 0 1 3.299040 9.666580 740.775024
358 0 1 3.704290 9.226680 741.518005
359 0 1 4.119640 8.884214 742.375000
360 0 1 4.383800 8.536446 743.273010
361 0 1 4.405690 8.273155 744.219971
362 0 1 4.525070 8.047225 745.164001
363 0 1 4.534200 8.268658 746.091003
364 0 1 4.757140 8.560421 746.992004
365 0 1 5.178160 8.719557 747.841980
366 0 1 5.374370 9.033010 748.783020
367 0 1 5.468890 9.593190 749.523010
368 0 1 5.604090 10.116690 750.322998
369 0 1 5.729300 10.235710 751.285034
370 0 1 6.026680 10.538260 752.190979
371 0 1 6.236400 10.803590 753.164978
372 0 1 6.413900 10.807980 754.015991
373 0 1 6.717670 10.853860 754.914978
374 0 1 7.140212 10.898200 755.773987
375 0 1 7.560493 11.143579 756.658020
376 0 1 8.200177 11.402060 757.380981
377 0 1 8.706102 11.843150 758.056030
378 0 1 9.116680 12.277020 758.843994
379 0 1 9.432380 12.033831 759.713989
380 0 1 9.404310 11.574940 760.515015
381 0 1 9.382320 10.936440 761.299988
382 0 1 9.139220 10.344151 762.015991
383 0 1 9.421350 9.906000 762.792969
384 0 1 9.978780 9.598920 763.528015
385 0 1 10.659310 9.376690 764.125000
386 0 1 11.282730 9.441790 764.869995
387 0 1 11.835440 9.388880 765.735962
388 0 1 12.322110 9.353200 766.533020
389 0 1 12.715919 9.304840 767.458008
390 0 1 12.731990 9.026930 768.372009
391 0 1 12.780729 8.991275 769.312012
392 0 1 13.026230 8.875244 770.281006
393 0 1 13.227341 9.113380 771.139038
394 0 1 13.178900 9.380360 772.049988
395 0 1 12.778931 9.323050 772.911011
396 0 1 12.126420 9.578320 773.598999
397 0 1 11.497850 9.664830 774.260010
398 0 1 11.064580 9.908300 775.052002
399 0 1 10.931290 10.063720 775.914001
400 0 1 10.925060 10.239650 776.870972
401 0 1 10.968300 10.455650 777.815002
402 0 1 10.765890 10.691210 778.771973
403 0 1 10.367661 10.658190 779.580994
404 0 1 9.835900 10.269850 780.278015
405 0 1 9.370120 10.146730 781.110962
406 0 1 8.934369 10.246099 782.018005
407 0 1 8.843243 10.299370 783.030029
408 0 1 8.791331 10.402380 783.950989
409 0 1 8.350621 10.414710 784.776978
410 0 1 7.944259 10.002740 785.570984
411 0 1 7.797544 9.527150 786.362000
412 0 1 7.566889 9.191560 787.296021
413 0 1 7.212257 8.792566 788.088013
414 0 1 6.941910 8.307283 788.880005
415 0 1 6.581090 7.786999 789.575989
416 0 1 6.334350 7.251064 790.442017
417 0 1 6.220340 6.625790 791.179993
418 0 1 6.333360 6.102660 791.919006
419 0 1 6.429770 5.817520 792.859985
420 0 1 6.820470 5.637980 793.749023
421 0 1 7.019194 5.420890 794.646973
422 0 1 6.761090 5.300100 795.541016
423 0 1 6.650140 5.435200 796.494019
424 0 1 6.549320 5.516810 797.462036
425 0 1 6.596850 5.394160 798.457031
426 0 1 6.552000 5.234880 799.398010
427 0 1 6.240470 5.147650 800.312012
428 0 1 6.179120 5.073470 801.247009
429 0 1 6.279400 5.147580 802.190979
430 0 1 6.480680 5.195510 803.110962
431 0 1 6.752830 5.243780 804.021973
432 0 1 6.647890 5.502780 805.005981
433 0 1 6.349230 5.595980 805.917969
434 0 1 6.507690 5.375530 806.820007
435 0 1 6.779710 5.089230 807.648987
436 0 1 7.059935 4.839950 808.510986
437 0 1 7.281759 4.539690 809.380005
438 0 1 7.643858 4.365870 810.280029
439 0 1 8.035749 4.325830 811.166016
440 0 1 8.497194 4.157910 812.005981
441 0 1 9.198330 4.113230 812.619995
442 0 1 9.839770 4.096480 813.359009
443 0 1 10.357420 3.950080 814.125000
444 0 1 10.542120 3.758540 815.122009
445 0 1 10.842051 3.401400 815.997986
446 0 1 11.109140 2.918090 816.750977
447 0 1 11.205510 2.602410 817.667969
448 0 1 11.146940 2.441850 818.636963
449 0 1 11.052530 2.464190 819.614014
450 0 1 10.826050 2.614560 820.513000
451 0 1 10.328150 2.773890 821.255005
452 0 1 9.701860 2.865200 822.070984
453 0 1 8.929550 2.938840 822.705017
454 0 1 8.257292 3.069330 823.343018
455 0 1 7.729367 3.374330 824.094971
456 0 1 7.139709 3.610740 824.729004
457 0 1 6.531020 3.832070 825.436035
458 0 1 6.253480 4.088140 826.322998
459 0 1 6.270690 4.637970 827.169983
460 0 1 6.329370 5.008590 828.051025
461 0 1 6.139430 5.474720 828.880981
462 0 1 6.053650 5.891800 829.726990
463 0 1 5.845440 6.283520 830.583984
464 0 1 5.604030 6.782140 831.367981
465 0 1 5.393860 7.331070 832.119995
466 0 1 4.973670 7.804094 832.869995
467 0 1 4.694050 8.598707 833.401001
468 0 1 4.577140 9.173410 834.233032
469 0 1 4.863300 9.840950 834.859985
470 0 1 5.603720 10.484940 834.932983
471 0 1 6.429070 10.827579 834.921997
472 0 1 7.347794 11.193800 834.947998
473 0 1 8.170849 11.469230 834.427979
474 0 1 8.866146 11.632771 833.781006
475 0 1 9.217770 11.440280 832.886963
476 0 1 9.549990 11.475640 831.927979
477 0 1 9.813300 11.285749 831.065979
478 0 1 9.857720 10.985380 830.169983
479 0 1 10.081480 10.514950 829.385986
480 0 1 10.548620 9.940660 828.697021
481 0 1 10.763500 9.320390 828.031006
482 0 1 10.659040 8.830443 827.257996
483 0 1 10.574369 8.630897 826.312988
484 0 1 10.141630 8.480575 825.410034
485 0 1 9.934669 8.269701 824.542969
486 0 1 9.547200 8.386129 823.674988
487 0 1 8.843302 8.642677 823.085999
488 0 1 7.903852 8.582126 822.872986
489 0 1 7.125535 8.633466 822.325012
490 0 1 6.408560 8.804000 821.770996
491 0 1 5.649360 8.966566 821.234009
492 0 1 4.817240 8.718348 820.624023
493 0 1 4.280330 8.711263 819.841980
494 0 1 3.790030 8.581450 818.969971
495 0 1 3.679410 8.490153 817.985962
496 0 1 3.931040 8.383603 817.054993
497 0 1 4.065110 8.070758 816.202026
498 0 1 4.198870 7.731992 815.317017
499 0 1 4.368230 7.350847 814.410034
500 0 1 4.386090 6.875060 813.596008
501 0 1 4.478940 6.515360 812.598022
502 0 1 4.720320 6.417130 811.710022
503 0 1 5.154580 6.408500 810.812012
504 0 1 5.173560 6.475620 809.828979
505 0 1 5.377520 6.552250 808.843018
506 0 1 5.375490 6.596210 807.864990
507 0 1 5.256820 6.759810 806.903015
508 0 1 5.074760 7.208595 806.036011
509 0 1 4.925310 7.808102 805.304993
510 0 1 4.859180 8.469345 804.526001
511 0 1 4.866740 9.097480 803.846008
512 0 1 5.048770 9.618630 803.047974
513 0 1 5.339990 10.136010 802.221985
514 0 1 5.466230 10.460920 801.286987
515 0 1 5.327210 10.915820 800.369019
516 0 1 5.033040 11.495580 799.697998
517 0 1 4.738460 11.988420 798.890991
518 0 1 4.552660 12.563931 798.166016
519 0 1 4.162270 12.954559 797.362000
520 0 1 3.902440 13.144461 796.408997
521 0 1 3.604510 13.187180 795.549988
522 0 1 3.548580 12.984261 794.591003
523 0 1 3.757270 12.609680 793.703003
524 0 1 3.937580 12.441930 792.773987
525 0 1 4.145740 12.435900 791.858032
526 0 1 4.748960 12.261909 791.155029
527 0 1 5.215390 12.151051 790.278015
528 0 1 5.723300 12.355320 789.533020
529 0 1 6.050200 12.579110 788.643982
530 0 1 6.343470 12.690320 787.747009
531 0 1 6.386560 12.428310 786.830017
532 0 1 6.547630 12.256800 785.843994
533 0 1 6.886640 12.591990 784.989014
534 0 1 7.204229 12.776260 784.099976
535 0 1 7.340057 13.124160 783.192017
536 0 1 7.555581 13.390039 782.337036
537 0 1 7.669869 13.590099 781.432983
538 0 1 7.665216 13.925760 780.572021
539 0 1 7.602338 14.000320 779.559021
540 0 1 7.682364 13.642389 778.718018
541 0 1 7.686537 13.205030 777.898987
542 0 1 7.487226 12.698310 777.160034
543 0 1 7.411349 12.282370 776.348022
544 0 1 6.956280 11.799680 775.688965
545 0 1 6.751930 11.252320 774.953003
546 0 1 6.841360 10.551020 774.315002
547 0 1 6.888630 9.753620 773.802979
548 0 1 6.972560 8.976591 773.275024
549 0 1 6.849350 8.249971 772.651978
550 0 1 6.528510 7.627462 772.036987
551 0 1 6.363880 7.060652 771.264038
552 0 1 6.067300 6.676720 770.419983
553 0 1 5.778460 6.367800 769.591980
554 0 1 5.678810 6.190270 768.661987
555 0 1 5.873760 5.708480 767.860962
556 0 1 6.112670 5.155450 767.134033
557 0 1 6.064620 4.648540 766.239990
558 0 1 5.943920 4.154060 765.306030
559 0 1 5.730400 3.654580 764.500977
560 0 1 5.617510 3.141300 763.742981
561 0 1 5.700140 2.949650 762.835999
562 0 1 6.105820 2.780410 762.039001
563 0 1 6.740090 2.776450 761.294006
564 0 1 7.308464 2.718790 760.479980
565 0 1 7.406712 2.872030 759.561035
566 0 1 7.290918 3.203610 758.688965
567 0 1 7.331197 3.590990 757.807983
568 0 1 7.590725 4.126280 756.962036
569 0 1 8.138918 4.669380 756.375977
570 0 1 8.679169 5.372790 755.942017
571 0 1 8.773046 6.139190 755.318970
572 0 1 8.570527 6.629100 754.502014
573 0 1 8.413253 7.032567 753.692017
574 0 1 8.329799 7.366674 752.755005
575 0 1 8.481718 7.579273 751.823975
576 0 1 8.683202 7.737881 750.903015
577 0 1 8.885236 7.688170 750.028015
578 0 1 8.974887 7.808376 749.004028
579 0 1 9.121469 7.784786 748.028015
580 0 1 9.118740 8.017910 747.077026
581 0 1 9.095420 8.476885 746.182007
582 0 1 9.437260 8.726386 745.393005
583 0 1 9.364950 8.549498 744.447998
584 0 1 9.366650 8.737575 743.513000
585 0 1 9.451380 8.833467 742.535034
586 0 1 9.498290 8.798562 741.544006
587 0 1 9.315400 8.822178 740.585999
588 0 1 8.947148 8.877627 739.718018
589 0 1 8.661707 8.785742 738.773010
590 0 1 8.558502 8.772655 737.807983
591 0 1 8.420571 9.152940 736.963013
592 0 1 8.393812 9.242500 735.984009
593 0 1 8.515558 9.080500 735.044006
594 0 1 8.861742 8.832440 734.181030
595 0 1 8.818055 8.597018 733.174011
596 0 1 8.579356 8.557021 732.260010
597 0 1 8.023424 8.586336 731.455017
598 0 1 7.618175 8.733136 730.614014
599 0 1 7.200540 8.583219 729.788025
600 0 1 6.809300 8.655790 728.945007
601 0 1 6.524190 8.877052 728.059204
602 0 1 6.408380 8.887583 727.146301
603 0 1 5.892040 8.859956 726.372314
604 0 1 5.553940 8.851176 725.477600
605 0 1 5.343780 8.770650 724.502014
606 0 1 5.090730 9.010520 723.541321
607 0 1 5.029550 9.376170 722.605408
608 0 1 4.983270 9.663160 721.663696
609 0 1 4.801580 9.520150 720.715576
610 0 1 4.857150 9.267450 719.779907
611 0 1 4.891660 8.903650 718.897400
612 0 1 4.551560 8.547366 718.036194
613 0 1 4.372880 8.443671 717.099182
614 0 1 4.100820 8.258044 716.201904
615 0 1 3.839760 8.353206 715.305786
616 0 1 3.461760 8.471173 714.405212
617 0 1 3.111860 8.693086 713.462585
618 0 1 3.042840 8.844765 712.494812
619 0 1 3.082380 9.096570 711.593872
620 0 1 3.100110 9.147460 710.652832
621 0 1 3.059490 9.182390 709.709106
622 0 1 3.064010 9.190610 708.742615
623 0 1 2.972130 9.349920 707.801697
624 0 1 2.362170 9.437330 706.973022
625 0 1 1.948150 9.613740 706.075684
626 0 1 1.779560 9.594210 705.030396
627 0 1 1.479610 9.695840 704.152283
628 0 1 1.358990 9.770490 703.159790
629 0 1 1.456680 9.727570 702.237000
630 0 1 2.040950 9.507080 701.457825
631 0 1 2.644580 9.114300 700.799927
632 0 1 3.227390 8.879999 700.047913
633 0 1 3.647310 8.731457 699.156921
634 0 1 3.820510 8.643924 698.243530
635 0 1 4.453220 8.630444 697.478882
636 0 1 4.882840 8.616706 696.615479
637 0 1 5.140730 8.449287 695.606567
638 0 1 5.328420 8.441174 694.618408
639 0 1 5.428670 8.273390 693.665710
640 0 1 5.485600 8.174200 692.660095
641 0 1 5.523940 8.219165 691.717285
642 0 1 5.951650 8.470397 690.858704
643 0 1 6.128810 8.443040 689.912720
644 0 1 6.377100 7.946207 689.162292
645 0 1 6.806230 7.441873 688.455383
646 0 1 7.256975 7.171361 687.579590
647 0 1 7.798558 6.981870 686.805176
648 0 1 8.117777 7.180248 685.887024
649 0 1 8.594361 7.326809 685.091187
650 0 1 8.957170 7.369008 684.229675
651 0 1 9.383000 7.514065 683.423401
652 0 1 9.869410 7.747835 682.660522
653 0 1 10.205610 7.937129 681.728882
654 0 1 10.591980 8.212014 680.851929
655 0 1 10.716579 8.186373 679.878113
656 0 1 10.920530 8.128591 678.981812
657 0 1 10.639650 7.922976 678.117981
658 0 1 10.460100 7.567961 677.252991
659 0 1 10.249480 7.285685 676.393005
660 0 1 9.823700 7.091855 675.566772
661 0 1 9.297770 7.073117 674.780884
662 0 1 8.454057 6.935110 674.331726
663 0 1 7.578583 6.512150 673.879883
664 0 1 6.874360 5.925750 673.401978
665 0 1 6.165810 5.761490 672.675903
666 0 1 5.426680 5.535680 672.047791
667 0 1 4.851120 5.590500 671.350830
668 0 1 4.280100 5.670320 670.519409
669 0 1 3.940760 5.739710 669.614624
670 0 1 3.609570 5.802970 668.749084
671 0 1 3.351030 5.798670 667.853821
672 0 1 3.088550 5.828440 666.905518
673 0 1 2.772060 5.725270 665.951111
674 0 1 2.562630 5.912150 665.079590
675 0 1 2.413350 6.305940 664.224915
676 0 1 2.270840 6.914460 663.493591
677 0 1 2.119940 7.357831 662.590332
678 0 1 2.166900 7.573689 661.589111
679 0 1 2.432050 7.989060 660.786621
680 0 1 2.498400 8.296483 659.825195
681 0 1 2.571480 8.111617 658.884583
682 0 1 2.589270 7.962482 657.962524
683 0 1 2.569900 7.678446 657.026978
684 0 1 2.594840 7.195980 656.249329
685 0 1 2.619190 6.547450 655.493286
686 0 1 2.765440 6.190360 654.568115
687 0 1 3.018010 5.667760 653.820679
688 0 1 3.067180 4.866240 653.205200
689 0 1 3.326470 4.030920 652.949890
690 0 1 3.768990 3.214410 652.523804
691 0 1 4.381270 2.619200 651.990417
692 0 1 4.809900 2.159700 651.226196
693 0 1 5.413590 2.160530 650.513489
694 0 1 6.024690 2.027880 649.725403
695 0 1 6.784280 2.182870 649.189209
696 0 1 7.498321 2.523100 648.591431
697 0 1 7.921465 2.948880 647.824707
698 0 1 8.385802 3.598110 647.342529
699 0 1 8.691486 4.278820 646.710327
700 0 1 8.827405 4.967500 646.062988
701 0 1 8.709270 5.559290 645.349182
702 0 1 8.762725 5.907670 644.452576
703 0 1 8.837995 6.341680 643.626404
704 0 1 8.500538 6.807550 642.854492
705 0 1 7.988081 7.156124 642.142822
706 0 1 7.609714 7.624062 641.329895
707 0 1 7.180970 7.976188 640.452881
708 0 1 6.943200 8.419324 639.622070
709 0 1 6.668770 8.656628 638.721985
710 0 1 6.472840 8.910833 637.789734
711 0 1 6.135390 9.357370 636.951965
712 0 1 5.659150 9.680050 636.139893
713 0 1 5.619800 9.991890 635.183167
714 0 1 5.778100 10.223070 634.318176
715 0 1 6.160590 10.214030 633.477417
716 0 1 6.641180 10.058840 632.590210
717 0 1 7.055593 9.938680 631.738159
718 0 1 7.425726 9.730580 630.811096
719 0 1 7.393208 9.558520 629.862366
720 0 1 7.365157 9.289600 628.987854
721 0 1 7.074501 8.893023 628.158813
722 0 1 7.107282 8.440396 627.297058
723 0 1 7.077437 8.140544 626.363159
724 0 1 6.981660 7.547347 625.606506
725 0 1 6.874750 6.963530 624.818909
726 0 1 7.023212 6.629370 623.914978
727 0 1 6.903380 6.001580 623.218262
728 0 1 6.853580 5.350760 622.553894
729 0 1 7.128859 4.767760 621.830261
730 0 1 7.809570 4.481660 621.225708
731 0 1 8.547918 4.294480 620.614380
732 0 1 9.128070 4.250620 619.843628
733 0 1 9.838230 4.272550 619.174133
734 0 1 10.086880 4.722640 618.330811
735 0 1 10.222040 5.252060 617.498779
736 0 1 10.434210 5.929900 616.867981
737 0 1 10.674360 6.488550 616.087219
738 0 1 10.965160 7.206723 615.468689
739 0 1 11.515890 7.722306 614.822571
740 0 1 11.928150 8.345871 614.196411
741 0 1 12.382811 8.881129 613.574890
742 0 1 13.038080 9.340100 612.966797
743 0 1 13.296740 9.477180 612.059692
744 0 1 13.461599 9.761150 611.148987
745 0 1 13.802790 10.050790 610.199829
746 0 1 13.760700 9.892250 609.244324
747 0 1 13.812510 9.806850 608.337708
748 0 1 13.824200 10.000880 607.356628
749 0 1 13.758699 10.415751 606.441772
750 0 1 13.855090 10.739970 605.565430
751 0 1 14.073760 10.999520 604.660583
752 0 1 14.256411 10.955890 603.736389
753 0 1 14.248650 10.753139 602.794617
754 0 1 14.447020 10.415990 601.894226
755 0 1 14.304770 10.185650 601.021790
756 0 1 14.064810 9.998580 600.169922
757 0 1 13.798639 10.003820 599.272522
758 0 1 13.291059 10.092930 598.519531
759 0 1 12.641310 10.106300 597.829529
760 0 1 11.857620 10.099220 597.265076
761 0 1 11.293450 10.151960 596.395508
762 0 1 10.951810 10.038050 595.493774
763 0 1 10.830830 9.920040 594.537598
764 0 1 10.613300 9.837540 593.531311
765 0 1 10.401450 9.705530 592.593872
766 0 1 10.435020 9.472640 591.638428
767 0 1 10.205379 9.116310 590.771606
768 0 1 9.945450 8.888088 589.848511
769 0 1 9.719140 9.035580 588.866211
770 0 1 9.934210 9.144620 587.948120
771 0 1 10.335430 9.457690 587.068481
772 0 1 10.744650 9.484140 586.202271
773 0 1 11.119470 9.408840 585.285095
774 0 1 11.479790 9.492940 584.377014
775 0 1 12.059380 9.503500 583.533508
776 0 1 12.570030 9.306740 582.655518
777 0 1 13.004749 8.888015 581.903992
778 0 1 13.316010 8.511303 581.061096
779 0 1 13.439060 8.013573 580.178101
780 0 1 13.458611 7.474958 579.338989
781 0 1 13.419610 7.081646 578.502014
782 0 1 13.419530 6.566200 577.657776
783 0 1 13.518650 6.065110 576.853699
784 0 1 13.564421 5.743270 575.960815
785 0 1 13.686700 5.583600 575.036987
786 0 1 13.554979 5.449200 574.075684
787 0 1 13.446640 5.318710 573.088928
788 0 1 13.421801 4.982290 572.194092
789 0 1 13.630091 4.926220 571.255127
790 0 1 13.830669 5.097110 570.240173