LAMMPS data file via MDAnalysis

        1000  atoms
        1000  bonds
        1000  angles
           0  dihedrals
           0  impropers

           1  atom types
           1  bond types
           1  angle types
           0  dihedral types
           0  improper types

0.000000 16.000000 xlo xhi
0.000000 16.000000 ylo yhi
0.000000 1257.000000 zlo zhi


Masses

1 1.000000

Atoms

1 0 1 5.888140 11.427200 446.947998
2 0 1 5.791820 11.578370 447.919983
3 0 1 5.788110 11.445520 448.884003
4 0 1 5.707560 11.224150 449.841003
5 0 1 5.834060 11.187450 450.819000
6 0 1 6.431480 11.311260 451.536987
7 0 1 7.264903 11.117780 452.130005
8 0 1 8.032415 10.777050 452.752014
9 0 1 8.657591 10.627630 453.578003
10 0 1 9.051660 10.554170 454.476013
11 0 1 9.734221 10.592740 455.210999
12 0 1 10.330640 10.941250 455.901001
13 0 1 10.784360 11.040310 456.716980
14 0 1 11.048370 11.075809 457.632019
15 0 1 10.939140 10.704140 458.601990
16 0 1 10.787010 10.405540 459.476990
17 0 1 10.757980 10.018370 460.414001
18 0 1 10.679420 9.517160 461.312988
19 0 1 10.545120 8.979672 462.177979
20 0 1 10.305710 8.648077 463.024994
21 0 1 10.134560 8.254232 463.908997
22 0 1 9.890910 7.890155 464.748993
23 0 1 9.469720 7.866393 465.664001
24 0 1 9.048870 7.799014 466.561005
25 0 1 8.794159 7.843935 467.468018
26 0 1 8.478127 7.844392 468.390991
27 0 1 8.149255 7.690180 469.307007
28 0 1 7.907784 7.837813 470.265015
29 0 1 7.689425 8.110310 471.187012
30 0 1 7.447826 8.608737 471.992004
31 0 1 7.190013 9.064220 472.802979
32 0 1 6.789430 9.506570 473.601990
33 0 1 6.533850 10.047380 474.378998
34 0 1 6.310750 10.482460 475.218018
35 0 1 6.285140 10.849530 476.221985
36 0 1 6.224050 11.031330 477.226990
37 0 1 6.023260 11.280980 478.171021
38 0 1 5.793620 11.457000 479.104004
39 0 1 5.622580 11.837111 480.065002
40 0 1 5.467220 12.207870 480.898987
41 0 1 5.434620 12.517750 481.856995
42 0 1 5.848590 13.022631 482.505005
43 0 1 6.162960 13.269091 483.397003
44 0 1 6.423980 13.587259 484.197021
45 0 1 7.045041 13.802280 484.963013
46 0 1 7.619450 14.116310 485.726013
47 0 1 8.168074 14.450171 486.419983
48 0 1 8.662938 14.550790 487.300995
49 0 1 8.816388 14.612640 488.208984
50 0 1 8.913947 14.270690 489.091980
51 0 1 9.221390 13.687370 489.748993
52 0 1 9.302190 12.878580 490.299988
53 0 1 9.420321 12.398120 491.179016
54 0 1 9.713970 11.767260 491.786987
55 0 1 9.703200 10.980061 492.312988
56 0 1 9.583320 10.336639 493.114014
57 0 1 9.204950 9.882360 493.872009
58 0 1 8.865153 9.393230 494.694000
59 0 1 8.903747 8.782704 495.343994
60 0 1 9.151990 8.127431 496.083008
61 0 1 9.571570 7.627016 496.815002
62 0 1 10.039090 7.254379 497.563995
63 0 1 10.331790 6.836020 498.429016
64 0 1 10.479919 6.536060 499.325989
65 0 1 10.697190 6.432430 500.292999
66 0 1 11.027390 6.389000 501.170990
67 0 1 11.314070 6.131400 502.089996
68 0 1 11.358970 6.133440 503.042999
69 0 1 11.107420 6.322730 503.966003
70 0 1 10.760630 6.372360 504.842010
71 0 1 10.294420 6.681960 505.648010
72 0 1 9.621850 7.152751 506.143005
73 0 1 8.995366 7.227729 506.863007
74 0 1 8.190808 7.363457 507.479004
75 0 1 7.510111 7.667160 508.085999
76 0 1 6.757420 7.650505 508.776001
77 0 1 6.202790 7.520238 509.507019
78 0 1 5.697970 7.475578 510.333008
79 0 1 5.313310 7.522299 511.139008
80 0 1 4.809180 7.669552 511.953003
81 0 1 4.467010 7.607400 512.853027
82 0 1 4.121850 7.266830 513.740967
83 0 1 3.920350 7.380284 514.736023
84 0 1 3.706250 7.617333 515.660034
85 0 1 3.767650 7.987297 516.520020
86 0 1 3.631510 8.351217 517.336975
87 0 1 3.391820 8.861989 518.065002
88 0 1 3.247070 9.427900 518.835022
89 0 1 3.334230 9.908200 519.646973
90 0 1 3.410410 10.633630 520.307983
91 0 1 3.675510 11.098650 521.164001
92 0 1 4.402510 11.289790 521.705017
93 0 1 5.062730 11.480950 522.369995
94 0 1 5.641320 11.640890 523.153015
95 0 1 6.155950 11.746770 523.992004
96 0 1 6.396770 11.618840 524.963989
97 0 1 6.560800 11.520090 525.885986
98 0 1 6.527890 11.126750 526.750977
99 0 1 6.420580 10.330040 527.270020
100 0 1 6.671500 9.489450 527.640991
101 0 1 6.746160 8.610491 527.989990
102 0 1 6.678480 7.930064 528.607788
103 0 1 6.443590 7.362616 529.376099
104 0 1 6.365760 6.967200 530.289001
105 0 1 6.508050 6.509160 531.249512
106 0 1 6.793110 6.127110 532.059387
107 0 1 7.300972 5.785070 532.781616
108 0 1 7.594275 5.317960 533.581299
109 0 1 7.990798 4.756610 534.238403
110 0 1 8.276905 4.272480 535.072632
111 0 1 8.588944 3.676290 535.823181
112 0 1 8.646228 2.935300 536.450012
113 0 1 8.366384 2.267060 537.080566
114 0 1 8.111453 1.810400 537.932373
115 0 1 7.856562 1.688960 538.915405
116 0 1 7.565082 1.836690 539.856812
117 0 1 7.201385 2.125900 540.659302
118 0 1 7.017034 2.437590 541.603821
119 0 1 7.152932 2.813880 542.555115
120 0 1 7.153684 2.832030 543.523621
121 0 1 7.174959 3.125800 544.452576
122 0 1 7.176555 3.556470 545.271301
123 0 1 7.000712 3.800810 546.213013
124 0 1 6.729470 3.838530 547.118896
125 0 1 6.382280 3.843620 548.027405
126 0 1 5.901880 3.880090 548.919617
127 0 1 5.672440 3.931690 549.872620
128 0 1 5.840340 4.448510 550.709595
129 0 1 6.082820 4.942610 551.501099
130 0 1 6.307970 5.405380 552.336487
131 0 1 6.439560 5.690550 553.212097
132 0 1 6.624770 6.128650 553.983215
133 0 1 6.947350 6.236800 554.833191
134 0 1 7.264781 6.302420 555.716614
135 0 1 7.822776 6.389150 556.521973
136 0 1 8.444592 6.385850 557.265503
137 0 1 9.053880 6.116480 557.851990
138 0 1 9.599490 5.518870 558.345398
139 0 1 10.114100 4.902580 558.851685
140 0 1 10.667290 4.277590 559.385620
141 0 1 11.035940 3.797520 560.114807
142 0 1 11.318880 3.389230 560.911316
143 0 1 11.308350 2.996520 561.769897
144 0 1 11.369900 2.805780 562.750000
145 0 1 11.505990 2.798200 563.667480
146 0 1 11.874710 2.867360 564.587097
147 0 1 12.271650 2.654320 565.444397
148 0 1 12.478220 2.779900 566.368286
149 0 1 12.278749 2.936370 567.260803
150 0 1 11.994390 3.344850 568.100891
151 0 1 11.660400 3.604400 568.983276
152 0 1 11.351789 3.889880 569.859619
153 0 1 11.164500 4.200000 570.735779
154 0 1 10.763870 4.564180 571.524170
155 0 1 10.303960 5.004520 572.345886
156 0 1 9.830390 5.332440 573.127380
157 0 1 9.733420 5.433020 574.097473
158 0 1 9.487790 5.583800 575.058105
159 0 1 9.391171 5.568090 575.975220
160 0 1 9.405860 5.648400 576.956482
161 0 1 9.564720 5.770040 577.899780
162 0 1 9.565130 5.541420 578.833008
163 0 1 9.896700 5.011920 579.636719
164 0 1 10.450980 4.608140 580.317810
165 0 1 11.098520 4.165360 580.872803
166 0 1 11.737750 3.907970 581.585693
167 0 1 12.289560 4.051990 582.381470
168 0 1 12.466949 4.189830 583.249878
169 0 1 12.799320 4.456190 584.091614
170 0 1 12.860790 4.553000 585.051086
171 0 1 12.934420 4.680340 586.037109
172 0 1 13.105780 4.847930 586.964478
173 0 1 13.141310 4.839000 587.930176
174 0 1 13.456860 4.737460 588.782410
175 0 1 13.352020 4.395370 589.659973
176 0 1 13.204070 4.216260 590.585693
177 0 1 12.924470 3.901860 591.457703
178 0 1 12.658020 3.620380 592.386475
179 0 1 12.693530 3.441590 593.323120
180 0 1 12.432020 3.559040 594.234802
181 0 1 12.390320 3.829000 595.165710
182 0 1 12.282200 4.014670 596.100586
183 0 1 11.983810 4.313680 596.955994
184 0 1 11.706430 4.478820 597.836121
185 0 1 11.278440 4.746010 598.636475
186 0 1 10.857070 4.976490 599.554321
187 0 1 10.740690 4.683640 600.496399
188 0 1 10.829650 4.444030 601.473511
189 0 1 10.818630 4.251750 602.421875
190 0 1 11.035110 4.334190 603.364380
191 0 1 10.812970 4.494710 604.262573
192 0 1 11.026110 4.452610 605.195801
193 0 1 11.463530 4.411340 606.056274
194 0 1 11.595360 4.548010 606.975281
195 0 1 11.752040 4.588990 607.922729
196 0 1 12.235149 4.659860 608.866577
197 0 1 12.833780 4.683690 609.599915
198 0 1 13.068930 4.594030 610.512390
199 0 1 13.235220 4.328220 611.415100
200 0 1 13.594100 4.195740 612.310669
201 0 1 13.401279 4.278870 613.248596
202 0 1 13.247140 4.330330 614.161621
203 0 1 12.973180 4.262700 615.119507
204 0 1 12.666260 4.342470 616.026978
205 0 1 12.310699 4.479100 616.968994
206 0 1 12.025480 4.680670 617.810425
207 0 1 11.786810 4.689750 618.692383
208 0 1 11.358700 4.980990 619.532166
209 0 1 11.180080 5.054500 620.479431
210 0 1 11.272130 5.314190 621.419861
211 0 1 10.942950 5.407400 622.296814
212 0 1 10.318670 5.492170 623.038879
213 0 1 9.749410 5.485080 623.832703
214 0 1 9.127260 5.636520 624.581421
215 0 1 8.583718 6.038140 625.306519
216 0 1 8.027645 6.408970 625.985352
217 0 1 7.336327 6.847550 626.608337
218 0 1 6.616770 7.160187 627.131714
219 0 1 5.995980 7.344666 627.792480
220 0 1 5.452950 7.595030 628.542969
221 0 1 4.903440 7.899910 629.232666
222 0 1 4.599970 8.345496 630.060547
223 0 1 4.139190 8.280768 630.933105
224 0 1 4.000670 8.383333 631.839050
225 0 1 3.980140 8.442244 632.821899
226 0 1 3.691230 8.336344 633.721313
227 0 1 3.395640 8.599992 634.561646
228 0 1 3.442560 8.908195 635.456055
229 0 1 3.447680 9.268180 636.338257
230 0 1 3.629650 9.373280 637.304565
231 0 1 3.786730 9.436000 638.197571
232 0 1 3.901060 9.365050 639.160706
233 0 1 4.146590 9.363990 640.102478
234 0 1 4.577100 9.310120 640.966614
235 0 1 5.000630 8.980879 641.726318
236 0 1 5.533760 8.909089 642.564209
237 0 1 6.168140 8.759049 643.291504
238 0 1 6.535150 8.848708 644.124512
239 0 1 7.029151 8.994191 645.008423
240 0 1 7.229002 9.507240 645.847290
241 0 1 7.209612 10.062740 646.585815
242 0 1 7.400903 10.468810 647.364380
243 0 1 7.771527 10.908100 648.187073
244 0 1 8.241620 10.933229 649.070129
245 0 1 8.596583 11.466190 649.748901
246 0 1 8.668686 11.914030 650.584290
247 0 1 8.738940 12.273000 651.448425
248 0 1 8.638363 12.510250 652.337585
249 0 1 8.492169 12.681950 653.257019
250 0 1 8.151598 12.747690 654.180481
251 0 1 7.819877 13.086760 654.976807
252 0 1 7.737174 13.332610 655.879578
253 0 1 7.996968 13.549520 656.782471
254 0 1 8.217939 13.863350 657.680786
255 0 1 8.309740 13.885460 658.674500
256 0 1 8.410795 13.953120 659.598022
257 0 1 8.512414 14.066100 660.599182
258 0 1 8.349061 14.381750 661.565002
259 0 1 8.386283 14.557190 662.513123
260 0 1 8.271006 14.405130 663.483704
261 0 1 8.107981 14.407200 664.389526
262 0 1 7.998590 14.121500 665.357788
263 0 1 8.092007 13.808620 666.256104
264 0 1 8.251058 13.483870 667.108521
265 0 1 8.456741 13.275700 667.953369
266 0 1 8.481707 13.111270 668.908997
267 0 1 8.380603 12.912490 669.861572
268 0 1 8.320963 12.605249 670.845520
269 0 1 8.408788 12.344370 671.766785
270 0 1 8.334443 12.216600 672.688232
271 0 1 8.323499 11.896190 673.556885
272 0 1 8.464133 11.820230 674.535400
273 0 1 8.367894 11.432830 675.462769
274 0 1 8.258490 11.152320 676.385010
275 0 1 8.224763 10.778950 677.211304
276 0 1 8.172504 10.596460 678.135986
277 0 1 7.836177 10.191980 678.966309
278 0 1 7.639596 9.784360 679.876099
279 0 1 7.603881 9.094700 680.617432
280 0 1 7.532103 8.462323 681.295410
281 0 1 7.567784 7.804209 682.079895
282 0 1 7.893868 7.456434 682.952820
283 0 1 8.339439 7.102612 683.744324
284 0 1 8.842265 6.940700 684.586914
285 0 1 9.104120 6.590450 685.437683
286 0 1 9.024950 6.088230 686.321411
287 0 1 9.009050 5.673460 687.159912
288 0 1 8.882824 5.403670 688.056213
289 0 1 8.830057 4.891310 688.860291
290 0 1 8.987383 4.660740 689.806519
291 0 1 8.719161 4.559320 690.682129
292 0 1 8.687822 4.303740 691.635620
293 0 1 8.787130 4.217270 692.560120
294 0 1 8.828890 4.089770 693.573792
295 0 1 8.809010 3.568960 694.424011
296 0 1 8.735553 3.443600 695.368896
297 0 1 8.633663 3.485750 696.310181
298 0 1 8.325235 3.250040 697.212097
299 0 1 8.378097 3.013380 698.191528
300 0 1 8.589370 2.632740 699.077576
301 0 1 8.721903 2.451090 700.025879
302 0 1 8.844716 2.245310 700.960815
303 0 1 8.864929 2.309800 701.865173
304 0 1 8.850824 2.597360 702.826721
305 0 1 8.930533 3.020490 703.798279
306 0 1 9.223310 3.482790 704.623901
307 0 1 9.424690 3.921690 705.467773
308 0 1 9.397010 4.206360 706.395630
309 0 1 9.115400 4.430420 707.253723
310 0 1 8.632680 4.563650 708.028503
311 0 1 8.281229 4.778410 708.928101
312 0 1 8.230413 5.091200 709.848694
313 0 1 8.158335 5.411740 710.778076
314 0 1 8.394979 5.797100 711.638000
315 0 1 8.394010 6.194770 712.519592
316 0 1 8.094156 6.882750 713.221069
317 0 1 7.686965 7.319014 713.947693
318 0 1 7.231942 7.637723 714.700989
319 0 1 6.749740 7.960711 715.502625
320 0 1 6.373280 8.226198 716.314209
321 0 1 6.019650 8.448435 717.145020
322 0 1 5.779910 8.644174 718.057129
323 0 1 5.804780 8.914287 718.922974
324 0 1 5.778190 8.927585 719.920532
325 0 1 5.917200 8.853920 720.852722
326 0 1 6.043300 8.969218 721.821106
327 0 1 6.024250 8.972181 722.799927
328 0 1 6.478990 8.908760 723.604004
329 0 1 6.690490 8.458233 724.396179
330 0 1 7.025707 8.054996 725.256897
331 0 1 7.416792 7.669421 726.044434
332 0 1 7.626486 7.498307 726.939575
333 0 1 8.187976 7.483720 727.749512
334 0 1 8.675054 7.431494 728.614014
335 0 1 9.096120 7.303191 729.490967
336 0 1 9.193250 7.706613 730.372009
337 0 1 9.216340 7.965558 731.268982
338 0 1 9.119010 8.124098 732.198975
339 0 1 8.869354 8.131895 733.122009
340 0 1 8.156386 8.027911 733.773010
341 0 1 7.604278 7.915754 734.536011
342 0 1 7.061707 7.558918 735.237976
343 0 1 6.371010 7.328200 735.958984
344 0 1 5.633790 6.898730 736.388977
345 0 1 4.913290 6.524960 736.895996
346 0 1 4.266190 6.210270 737.487976
347 0 1 3.708260 5.726820 738.065979
348 0 1 3.519800 5.439040 738.929993
349 0 1 3.172290 5.424570 739.887024
350 0 1 2.852900 5.548250 740.695007
351 0 1 2.703630 5.557350 741.653992
352 0 1 2.567010 5.757690 742.629028
353 0 1 2.249230 5.895610 743.575012
354 0 1 2.181320 5.903960 744.575012
355 0 1 2.474280 6.000000 745.464966
356 0 1 2.765830 5.988930 746.377991
357 0 1 3.014780 6.193420 747.259033
358 0 1 3.421490 6.124310 748.125000
359 0 1 4.006510 5.818140 748.789001
360 0 1 4.539560 5.873490 749.567993
361 0 1 4.879130 5.739430 750.439026
362 0 1 5.169850 5.472570 751.330017
363 0 1 5.495370 5.198370 752.169983
364 0 1 5.939740 4.841870 752.921021
365 0 1 6.573260 4.334190 753.497986
366 0 1 7.094289 3.828040 754.109985
367 0 1 7.678460 3.580430 754.836975
368 0 1 8.026368 3.168490 755.684021
369 0 1 8.271483 2.617380 756.466003
370 0 1 8.594430 2.152880 757.213989
371 0 1 9.116210 2.072820 758.037964
372 0 1 9.432470 2.156220 758.932983
373 0 1 9.621480 2.460080 759.820984
374 0 1 9.996270 2.836950 760.656982
375 0 1 10.555810 2.944930 761.419006
376 0 1 11.174129 3.182900 762.179016
377 0 1 11.980570 3.414610 762.606995
378 0 1 12.362720 3.847210 763.401001
379 0 1 12.651820 4.230750 764.221985
380 0 1 12.634790 4.347800 765.138000
381 0 1 12.320280 4.355070 766.046997
382 0 1 11.799840 4.432960 766.835999
383 0 1 11.493550 4.505210 767.752991
384 0 1 11.138470 4.450820 768.653015
385 0 1 10.725970 4.418890 769.541992
386 0 1 10.420390 4.660190 770.375977
387 0 1 10.205379 4.791620 771.307983
388 0 1 10.255040 5.125610 772.197998
389 0 1 10.342560 5.501690 773.106018
390 0 1 10.760790 5.845260 773.867981
391 0 1 11.383430 5.775080 774.653992
392 0 1 12.175510 5.670350 775.307983
393 0 1 12.806780 5.881230 775.992981
394 0 1 13.151700 6.120150 776.791016
395 0 1 13.422689 6.463670 777.634033
396 0 1 13.493970 6.879560 778.523987
397 0 1 13.740960 7.394752 779.411011
398 0 1 14.052660 7.918426 780.245972
399 0 1 14.458410 8.300898 781.122986
400 0 1 14.737061 8.653632 781.943970
401 0 1 14.658990 8.799433 782.888000
402 0 1 14.096300 9.133790 783.598999
403 0 1 13.551280 9.349790 784.351013
404 0 1 13.163919 9.648750 785.207031
405 0 1 12.519740 10.065639 785.859009
406 0 1 11.789750 10.395480 786.346985
407 0 1 11.030251 10.592260 786.877991
408 0 1 10.323330 10.912160 787.492004
409 0 1 9.657930 10.937469 788.192993
410 0 1 9.423860 11.074650 789.150024
411 0 1 9.517640 11.166759 790.150024
412 0 1 9.436990 11.324500 791.085022
413 0 1 9.154800 11.790780 791.872986
414 0 1 9.086590 12.132090 792.823975
415 0 1 8.842025 12.383770 793.679993
416 0 1 8.378218 12.509581 794.563965
417 0 1 7.997344 12.488640 795.466003
418 0 1 7.716834 12.626431 796.322998
419 0 1 7.403269 12.774940 797.218994
420 0 1 7.312423 12.611570 798.156982
421 0 1 7.380388 12.574680 799.127014
422 0 1 7.616220 12.467670 800.062012
423 0 1 7.949224 12.694830 800.921021
424 0 1 8.048956 12.963320 801.856018
425 0 1 7.795830 12.891439 802.776001
426 0 1 7.542858 12.672960 803.695007
427 0 1 7.228896 12.766029 804.562988
428 0 1 7.009657 12.741859 805.499023
429 0 1 6.782320 12.584750 806.384033
430 0 1 6.565940 12.416830 807.337036
431 0 1 6.331960 12.364850 808.307007
432 0 1 6.356570 12.282070 809.285034
433 0 1 6.710840 12.308650 810.164978
434 0 1 6.909460 12.448580 811.117981
435 0 1 7.125219 12.492340 812.075012
436 0 1 7.323762 12.465910 813.046021
437 0 1 7.172431 12.532180 813.973999
438 0 1 7.051361 12.531031 814.953979
439 0 1 6.870070 12.610109 815.890015
440 0 1 6.608790 12.719540 816.830994
441 0 1 6.122390 12.878019 817.742981
442 0 1 5.509610 12.820140 818.427002
443 0 1 5.069040 12.499790 819.280029
444 0 1 4.561240 12.021060 819.984009
445 0 1 4.490280 11.331150 820.598022
446 0 1 4.271950 10.735320 821.335022
447 0 1 4.051380 10.288810 822.177002
448 0 1 3.794220 9.983360 823.020996
449 0 1 3.395620 9.477430 823.739990
450 0 1 2.923990 8.840645 824.286011
451 0 1 2.998940 8.120612 825.007996
452 0 1 2.701340 7.512421 825.690002
453 0 1 2.509680 7.086129 826.481018
454 0 1 2.422040 6.718000 827.360962
455 0 1 2.449000 6.345410 828.239014
456 0 1 2.491740 5.921390 829.177979
457 0 1 2.488730 5.626590 830.190979
458 0 1 2.443860 5.477760 831.117004
459 0 1 2.729270 5.491380 832.036987
460 0 1 3.109410 5.639760 832.862000
461 0 1 3.781100 5.768990 833.541992
462 0 1 4.661940 5.658070 834.093018
463 0 1 5.507570 5.497370 834.481018
464 0 1 6.382950 5.555150 834.794983
465 0 1 7.324261 5.358660 834.794006
466 0 1 8.110362 5.282360 834.322998
467 0 1 9.019720 5.085150 834.072021
468 0 1 9.706560 5.045460 833.474976
469 0 1 10.237000 4.809170 832.713013
470 0 1 10.570790 4.516580 831.778015
471 0 1 10.835051 4.357210 830.801025
472 0 1 11.222830 4.126230 829.958008
473 0 1 11.349300 3.960810 829.013000
474 0 1 11.119910 3.951750 828.083008
475 0 1 11.147540 3.847060 827.146973
476 0 1 10.999760 3.617480 826.210999
477 0 1 10.721170 3.866810 825.385010
478 0 1 10.771360 3.986570 824.422974
479 0 1 10.755440 4.095940 823.495972
480 0 1 10.542010 4.100770 822.593994
481 0 1 10.202539 3.822940 821.735962
482 0 1 9.773400 3.532290 820.890015
483 0 1 9.228040 3.570010 820.054993
484 0 1 8.788617 3.433820 819.198975
485 0 1 8.574100 3.816220 818.302002
486 0 1 8.359023 4.025150 817.367004
487 0 1 8.318107 4.491510 816.588013
488 0 1 8.096493 4.898680 815.791016
489 0 1 7.997430 4.979900 814.815979
490 0 1 7.833752 4.933880 813.885010
491 0 1 7.592334 4.783590 812.999023
492 0 1 7.413638 4.537540 812.082031
493 0 1 7.260933 4.469970 811.077026
494 0 1 7.325117 4.839130 810.172974
495 0 1 7.408115 5.011170 809.218018
496 0 1 7.529595 4.821990 808.283020
497 0 1 7.758798 4.577520 807.382996
498 0 1 8.068949 4.597170 806.414978
499 0 1 8.322018 4.623920 805.492981
500 0 1 8.667507 5.037040 804.625000
501 0 1 8.765310 5.420620 803.651978
502 0 1 8.891464 5.492420 802.721985
503 0 1 8.940888 5.487210 801.723999
504 0 1 8.748613 5.482690 800.802979
505 0 1 8.471049 5.412350 799.875977
506 0 1 8.414453 5.858140 799.028992
507 0 1 8.183465 6.261360 798.212036
508 0 1 8.027652 6.604620 797.384033
509 0 1 8.001005 7.295203 796.669006
510 0 1 7.911082 8.014111 796.068970
511 0 1 7.599466 8.695048 795.500000
512 0 1 7.361514 9.256860 794.770020
513 0 1 7.407306 9.767780 793.854980
514 0 1 7.401822 10.096690 792.947998
515 0 1 7.434979 10.565220 792.148010
516 0 1 7.263948 11.228390 791.406982
517 0 1 7.329196 11.665280 790.511963
518 0 1 7.435590 12.007470 789.651978
519 0 1 7.223806 12.220369 788.761963
520 0 1 7.102547 12.575640 787.884033
521 0 1 7.317622 12.777821 786.947998
522 0 1 7.573176 12.920700 786.046021
523 0 1 7.769347 12.984730 785.039001
524 0 1 7.754372 12.803471 784.093994
525 0 1 7.776083 12.998110 783.130005
526 0 1 7.483727 13.095380 782.212036
527 0 1 7.287227 13.306681 781.285034
528 0 1 6.771220 13.416620 780.455994
529 0 1 6.293910 13.392429 779.609985
530 0 1 5.789250 13.453560 778.792969
531 0 1 5.458830 13.396040 777.919006
532 0 1 5.217900 13.406710 776.962036
533 0 1 5.352090 13.713120 776.070984
534 0 1 5.610190 13.789860 775.122986
535 0 1 5.733070 13.746389 774.176025
536 0 1 6.055140 13.535089 773.375000
537 0 1 6.488200 13.062670 772.710999
538 0 1 6.870720 12.384050 772.013000
539 0 1 7.218446 11.913130 771.286987
540 0 1 7.529036 11.604910 770.422974
541 0 1 7.790421 11.138741 769.609985
542 0 1 8.507536 10.834840 769.015991
543 0 1 8.794924 10.732750 768.160034
544 0 1 8.984856 10.961320 767.226990
545 0 1 8.662659 11.192200 766.337036
546 0 1 8.155441 11.678160 765.744019
547 0 1 7.688944 12.157619 765.061035
548 0 1 7.391223 12.460239 764.216003
549 0 1 7.569263 12.629539 763.292969
550 0 1 7.605366 12.911400 762.365967
551 0 1 7.643683 13.248980 761.525024
552 0 1 7.844804 13.367250 760.575989
553 0 1 8.038210 13.286990 759.653992
554 0 1 8.376387 13.254869 758.778992
555 0 1 8.983002 12.974791 758.091003
556 0 1 9.207390 12.243919 757.510986
557 0 1 9.506060 11.436790 757.037964
558 0 1 9.564700 10.619030 756.539978
559 0 1 9.614070 9.820350 755.916016
560 0 1 9.752120 8.932811 755.557007
561 0 1 9.912620 8.337606 754.806030
562 0 1 10.163810 7.795896 754.112976
563 0 1 10.176070 7.037213 753.502991
564 0 1 10.309150 6.824050 752.570984
565 0 1 10.374929 6.644350 751.531006
566 0 1 10.727370 6.416200 750.692017
567 0 1 10.993120 6.056050 749.825012
568 0 1 10.849360 5.705820 748.861023
569 0 1 10.831090 5.738900 747.914978
570 0 1 10.828260 5.400220 746.984985
571 0 1 10.658570 5.263190 746.086975
572 0 1 10.519320 5.289000 745.158997
573 0 1 10.214550 5.470730 744.252014
574 0 1 9.890830 5.350570 743.385986
575 0 1 9.610870 5.401840 742.510010
576 0 1 9.239360 5.525290 741.624023
577 0 1 9.030810 5.917460 740.789001
578 0 1 8.930666 6.454440 740.007019
579 0 1 8.601020 7.139331 739.343018
580 0 1 8.615002 7.574999 738.481018
581 0 1 8.755571 8.021750 737.603027
582 0 1 8.984176 8.334501 736.713989
583 0 1 9.061750 8.827860 735.856995
584 0 1 9.404670 9.146740 735.010986
585 0 1 9.824100 9.422330 734.247009
586 0 1 10.104361 9.665100 733.362976
587 0 1 10.178510 9.549770 732.403992
588 0 1 9.638200 9.368790 731.526978
589 0 1 9.465080 9.429990 730.611023
590 0 1 8.930661 9.372480 729.846985
591 0 1 8.269681 9.091510 729.117981
592 0 1 7.530965 8.777837 728.526001
593 0 1 6.860930 8.340920 727.982300
594 0 1 6.148740 7.855053 727.618530
595 0 1 5.320390 7.530563 727.224609
596 0 1 4.479630 7.329884 726.831299
597 0 1 3.813620 6.811630 726.274109
598 0 1 2.961760 6.406580 725.946411
599 0 1 2.491740 5.801940 725.312378
600 0 1 2.373110 5.588790 724.359924
601 0 1 2.413630 5.214750 723.442017
602 0 1 2.473680 5.128200 722.434692
603 0 1 2.758500 5.135310 721.463623
604 0 1 2.925480 5.407730 720.592590
605 0 1 3.063650 5.200100 719.654724
606 0 1 3.301280 4.866120 718.830994
607 0 1 3.805500 4.391230 718.184082
608 0 1 4.334510 4.004650 717.459900
609 0 1 5.102120 3.947390 716.924988
610 0 1 5.690400 3.787080 716.191528
611 0 1 6.340140 3.651000 715.437012
612 0 1 7.140209 3.737580 714.896790
613 0 1 7.782970 3.897890 714.164673
614 0 1 8.255564 3.903870 713.260925
615 0 1 8.801016 3.848990 712.408813
616 0 1 9.261010 3.685790 711.609131
617 0 1 9.678870 3.591230 710.759705
618 0 1 10.039840 3.490100 709.873901
619 0 1 10.262300 3.296120 708.988220
620 0 1 10.637630 3.172690 708.064819
621 0 1 10.686250 3.125410 707.088074
622 0 1 10.804320 3.219950 706.110596
623 0 1 10.780200 3.167930 705.133606
624 0 1 10.384660 2.927870 704.247803
625 0 1 10.349220 2.991170 703.208374
626 0 1 10.281160 3.402980 702.275879
627 0 1 10.243090 3.617550 701.346619
628 0 1 10.081380 3.809580 700.458679
629 0 1 9.918750 4.351910 699.726196
630 0 1 9.678410 4.531580 698.854614
631 0 1 9.434660 4.622790 697.951904
632 0 1 9.304600 4.832070 697.043884
633 0 1 9.299970 5.124220 696.143921
634 0 1 9.176929 5.557030 695.229187
635 0 1 8.964083 5.849670 694.333984
636 0 1 9.062820 5.925010 693.343628
637 0 1 9.550380 6.031530 692.532898
638 0 1 9.687730 6.374860 691.668396
639 0 1 9.875100 6.597190 690.739502
640 0 1 9.980610 6.872640 689.771912
641 0 1 10.231560 7.299687 688.954285
642 0 1 10.812920 7.657266 688.280518
643 0 1 11.032000 7.978703 687.451782
644 0 1 11.127000 8.505922 686.651428
645 0 1 11.215970 9.021490 685.899597
646 0 1 11.011250 9.819180 685.341919
647 0 1 10.834780 10.662870 684.849915
648 0 1 10.760740 11.398320 684.170410
649 0 1 10.755930 11.854120 683.338989
650 0 1 10.548180 12.031460 682.363098
651 0 1 10.446730 12.046000 681.365112
652 0 1 10.363560 12.205441 680.420715
653 0 1 10.204370 12.599939 679.547729
654 0 1 10.174570 12.755950 678.464783
655 0 1 10.335170 12.121540 677.684509
656 0 1 10.284340 11.478430 676.974426
657 0 1 10.375120 11.039860 676.177307
658 0 1 10.717190 10.415970 675.466492
659 0 1 10.994080 9.819980 674.777283
660 0 1 10.917590 9.208879 674.089783
661 0 1 10.693960 8.581114 673.376282
662 0 1 10.183030 8.169013 672.613892
663 0 1 9.886920 7.682486 671.889221
664 0 1 9.913960 6.908300 671.355896
665 0 1 9.868000 6.189570 670.777588
666 0 1 9.512170 5.749480 670.057190
667 0 1 9.338980 5.158330 669.270203
668 0 1 8.974608 4.708830 668.532593
669 0 1 8.753979 4.270010 667.685791
670 0 1 8.561581 3.840820 666.882019
671 0 1 8.403597 3.142400 666.255981
672 0 1 8.180986 2.567980 665.557678
673 0 1 7.852439 1.953190 664.823486
674 0 1 7.732596 1.702570 663.915894
675 0 1 7.595243 1.714850 662.987000
676 0 1 7.408345 1.807190 661.999512
677 0 1 7.249500 1.931340 661.012512
678 0 1 7.223235 2.133270 660.028625
679 0 1 6.851710 2.275950 659.197998
680 0 1 6.436730 2.547330 658.323303
681 0 1 6.265390 2.888510 657.427490
682 0 1 6.158040 3.337190 656.600525
683 0 1 5.991560 3.946470 655.840271
684 0 1 5.944920 4.432150 655.026184
685 0 1 5.950820 4.591210 654.058594
686 0 1 6.138980 4.717780 653.120422
687 0 1 6.530250 4.892790 652.273376
688 0 1 7.153747 5.144760 651.617126
689 0 1 7.600472 5.385550 650.784424
690 0 1 8.253547 5.495970 650.145996
691 0 1 8.967707 5.672980 649.479309
692 0 1 9.802130 5.550590 649.062683
693 0 1 10.481190 5.714120 648.406677
694 0 1 11.136980 5.844790 647.672485
695 0 1 11.821440 5.929540 646.970703
696 0 1 12.432370 5.951980 646.260071
697 0 1 12.826130 5.765200 645.448730
698 0 1 13.044160 5.404690 644.585510
699 0 1 12.982450 5.379140 643.626404
700 0 1 13.019110 5.724510 642.712524
701 0 1 13.007680 5.929970 641.738770
702 0 1 13.234570 5.730770 640.761292
703 0 1 13.548650 5.872400 639.842590
704 0 1 13.630690 5.956490 638.912170
705 0 1 13.487970 6.380260 638.084290
706 0 1 13.251690 6.831180 637.338684
707 0 1 12.562000 7.310921 636.829773
708 0 1 11.899870 7.884822 636.442871
709 0 1 11.306129 8.368001 635.801331
710 0 1 10.758090 8.699854 635.130371
711 0 1 9.982670 8.654501 634.542969
712 0 1 9.312320 8.268723 634.014587
713 0 1 8.645551 8.035274 633.370361
714 0 1 7.974784 7.489408 632.978210
715 0 1 7.384789 7.222348 632.238892
716 0 1 6.961340 6.919610 631.464600
717 0 1 6.550680 6.647050 630.563538
718 0 1 6.125710 6.611320 629.718750
719 0 1 5.497680 6.517860 628.970154
720 0 1 4.923160 6.547720 628.238403
721 0 1 4.417240 6.451130 627.378540
722 0 1 4.116330 6.142510 626.500427
723 0 1 3.860480 5.626950 625.753113
724 0 1 3.748530 5.141730 624.890259
725 0 1 3.608790 4.632690 624.057800
726 0 1 3.536480 4.376930 623.166687
727 0 1 3.613790 4.074240 622.313782
728 0 1 3.754780 3.906520 621.345886
729 0 1 3.830390 3.932220 620.408203
730 0 1 4.130680 4.103920 619.535645
731 0 1 4.431050 4.381240 618.648315
732 0 1 4.546990 4.625690 617.733276
733 0 1 4.503150 4.851030 616.796082
734 0 1 4.550870 5.084260 615.891113
735 0 1 4.664580 5.142070 614.942200
736 0 1 4.950540 5.138970 614.055481
737 0 1 5.331020 5.064540 613.159790
738 0 1 5.533420 4.802730 612.252808
739 0 1 5.790690 4.687030 611.310913
740 0 1 5.984710 4.570240 610.319092
741 0 1 6.245190 4.489580 609.360474
742 0 1 6.581670 4.433130 608.516418
743 0 1 6.576040 4.494700 607.480591
744 0 1 6.523050 4.529940 606.486084
745 0 1 6.588230 4.768220 605.558777
746 0 1 6.929330 5.155710 604.788818
747 0 1 7.309612 5.707790 604.055481
748 0 1 7.822489 6.168600 603.389893
749 0 1 8.405265 6.303200 602.667419
750 0 1 8.862463 6.486630 601.861877
751 0 1 9.170210 6.582840 600.911499
752 0 1 9.455740 6.705710 600.019592
753 0 1 9.701170 6.644960 599.111816
754 0 1 9.627501 6.418130 598.238281
755 0 1 9.464330 6.223120 597.293884
756 0 1 9.505610 6.261210 596.312012
757 0 1 9.509350 6.258790 595.310608
758 0 1 9.578040 6.444310 594.315979
759 0 1 9.683220 6.711580 593.429016
760 0 1 10.065969 7.187404 592.575806
761 0 1 10.435990 7.716195 591.895813
762 0 1 10.611020 8.252347 591.049988
763 0 1 10.527610 8.869759 590.296387
764 0 1 10.278481 9.672320 589.795593
765 0 1 9.907880 10.389160 589.259705
766 0 1 9.844880 10.990260 588.530212
767 0 1 9.856270 11.308599 587.617004
768 0 1 9.685690 11.441390 586.659485
769 0 1 9.402070 11.832220 585.862427
770 0 1 8.975375 12.155760 585.099121
771 0 1 8.486311 12.786130 584.605469
772 0 1 7.773763 13.125790 584.057922
773 0 1 6.919300 13.387330 583.683899
774 0 1 6.111720 13.323120 583.131592
775 0 1 5.384000 13.309219 582.486206
776 0 1 4.671180 13.249420 581.921082
777 0 1 4.127350 13.184420 581.174377
778 0 1 3.674350 13.068850 580.298889
779 0 1 3.415710 12.761080 579.373291
780 0 1 3.211340 12.637370 578.445190
781 0 1 3.016620 12.608490 577.528381
782 0 1 3.034320 12.437850 576.561584
783 0 1 2.768340 12.224800 575.631775
784 0 1 2.636640 11.979300 574.688477
785 0 1 2.650050 11.980710 573.739075
786 0 1 2.389100 11.690730 572.774902
787 0 1 2.374770 11.321790 571.900574
788 0 1 2.645260 10.842800 571.072998
789 0 1 2.630770 10.086750 570.418884
790 0 1 2.788070 9.417459 569.781189
791 0 1 3.118590 8.610999 569.349915