LAMMPS data file via MDAnalysis

        1000  atoms
        1000  bonds
        1000  angles
           0  dihedrals
           0  impropers

           1  atom types
           1  bond types
           1  angle types
           0  dihedral types
           0  improper types

0.000000 16.000000 xlo xhi
0.000000 16.000000 ylo yhi
0.000000 1257.000000 zlo zhi


Masses

1 1.000000

Atoms

1 0 1 5.446310 10.888990 445.156982
2 0 1 5.524980 10.321510 446.049011
3 0 1 5.700660 9.946480 446.936005
4 0 1 5.720900 9.230400 447.557983
5 0 1 5.622270 8.695233 448.385010
6 0 1 5.708730 8.145000 449.203979
7 0 1 5.976440 7.739161 449.994019
8 0 1 6.401200 7.534803 450.796021
9 0 1 6.673070 7.578377 451.733002
10 0 1 6.603600 7.943600 452.671997
11 0 1 6.561520 8.282863 453.565979
12 0 1 6.165490 8.428088 454.458984
13 0 1 5.861420 8.420192 455.423004
14 0 1 5.586190 8.489150 456.328003
15 0 1 5.192890 8.643851 457.161987
16 0 1 4.931170 8.421259 458.011993
17 0 1 4.747210 8.034077 458.860992
18 0 1 4.716810 7.800548 459.833008
19 0 1 4.862470 7.913529 460.864014
20 0 1 4.627790 7.857989 461.773010
21 0 1 4.797950 7.694720 462.757996
22 0 1 4.888100 7.759687 463.713989
23 0 1 4.893670 7.780761 464.661987
24 0 1 4.700690 7.959222 465.608002
25 0 1 4.540600 8.019953 466.583984
26 0 1 4.302980 8.094970 467.460999
27 0 1 4.204340 8.368353 468.382996
28 0 1 4.249900 8.547852 469.351013
29 0 1 4.302930 8.758285 470.304993
30 0 1 4.363440 8.888692 471.291992
31 0 1 4.419520 9.163670 472.214996
32 0 1 4.343170 9.405410 473.151978
33 0 1 4.638330 9.594100 474.115997
34 0 1 5.003630 9.639810 474.987000
35 0 1 5.458590 9.629430 475.819000
36 0 1 5.577980 9.890760 476.755005
37 0 1 5.992420 10.344300 477.536987
38 0 1 6.484060 10.598130 478.312988
39 0 1 6.736230 10.894939 479.218994
40 0 1 7.199627 11.143370 480.059021
41 0 1 7.525758 11.395110 480.942017
42 0 1 8.034392 11.136350 481.710022
43 0 1 8.048944 10.398760 482.372009
44 0 1 8.083529 9.905270 483.208008
45 0 1 8.249444 9.405800 484.046021
46 0 1 8.541855 8.937105 484.938995
47 0 1 8.832414 8.486794 485.742004
48 0 1 9.003150 8.190210 486.643982
49 0 1 9.166940 7.975817 487.546997
50 0 1 9.083110 7.820206 488.497009
51 0 1 8.866485 7.605377 489.376007
52 0 1 8.541362 7.492133 490.287994
53 0 1 8.047062 7.450341 491.154999
54 0 1 7.718190 7.486789 492.093994
55 0 1 7.156809 7.488359 492.932983
56 0 1 6.756780 7.776142 493.786987
57 0 1 6.472480 8.093651 494.658020
58 0 1 6.270760 8.400158 495.487000
59 0 1 5.897980 8.208021 496.382019
60 0 1 5.738450 8.093473 497.276001
61 0 1 5.488870 8.372987 498.201996
62 0 1 5.239910 8.851106 498.944000
63 0 1 5.063090 9.345190 499.757019
64 0 1 5.099540 9.988050 500.463013
65 0 1 5.074170 10.707170 501.119019
66 0 1 4.782250 11.108940 502.003998
67 0 1 4.516210 11.534460 502.843018
68 0 1 4.269340 11.736890 503.765015
69 0 1 4.174980 12.012970 504.652008
70 0 1 4.116980 12.258380 505.638000
71 0 1 4.184000 12.163900 506.617004
72 0 1 4.555790 11.929210 507.501007
73 0 1 4.822900 11.771690 508.403992
74 0 1 5.161860 11.902230 509.296997
75 0 1 5.527270 12.060220 510.181000
76 0 1 5.806800 12.305470 511.122986
77 0 1 6.047890 12.602779 511.967010
78 0 1 5.979890 12.626200 512.942993
79 0 1 5.859680 12.774810 513.874023
80 0 1 6.025190 12.822110 514.835022
81 0 1 6.129120 12.546180 515.759033
82 0 1 6.163190 12.243890 516.714966
83 0 1 6.401450 11.788180 517.458008
84 0 1 6.504410 11.390820 518.302979
85 0 1 6.603100 11.053860 519.205994
86 0 1 6.763440 10.684800 520.070984
87 0 1 6.953270 10.355300 520.901978
88 0 1 7.089014 9.862950 521.765015
89 0 1 6.888280 9.558250 522.721985
90 0 1 6.948170 9.653190 523.757019
91 0 1 6.897290 9.838730 524.716980
92 0 1 6.900880 9.822500 525.718018
93 0 1 7.239733 9.786880 526.617981
94 0 1 7.505534 9.790450 527.538025
95 0 1 7.842389 9.559640 528.362000
96 0 1 7.997423 9.242640 529.201721
97 0 1 8.307549 8.971540 530.060181
98 0 1 8.827164 9.049230 530.861694
99 0 1 9.175120 8.898599 531.824524
100 0 1 9.647430 8.918103 532.629211
101 0 1 9.874550 8.506660 533.451172
102 0 1 9.981340 8.031660 534.323730
103 0 1 9.932899 7.826817 535.247620
104 0 1 9.596660 7.650644 536.150208
105 0 1 9.401610 7.216897 536.992432
106 0 1 9.346900 6.752950 537.818298
107 0 1 9.756780 6.315450 538.626282
108 0 1 10.244990 6.127150 539.417908
109 0 1 10.844020 6.152170 540.206482
110 0 1 11.424380 5.987750 540.963684
111 0 1 12.047530 5.635560 541.667725
112 0 1 12.430700 5.118910 542.479919
113 0 1 12.816959 5.265380 543.406372
114 0 1 13.150960 5.687610 544.251282
115 0 1 13.396620 6.190940 545.008606
116 0 1 13.312480 6.847350 545.791626
117 0 1 12.986650 7.395485 546.477600
118 0 1 12.860540 8.085947 547.125122
119 0 1 12.365860 8.630949 547.801270
120 0 1 11.781500 9.110090 548.505493
121 0 1 11.301750 9.707980 549.178467
122 0 1 10.890760 10.447820 549.833130
123 0 1 10.266911 10.966351 550.360291
124 0 1 9.629630 11.305059 551.036621
125 0 1 9.148590 11.797980 551.688721
126 0 1 8.652220 12.063030 552.521912
127 0 1 8.250967 12.145720 553.338684
128 0 1 7.674396 12.115840 554.163391
129 0 1 7.085783 12.055309 554.900696
130 0 1 6.750010 11.898070 555.810303
131 0 1 6.104290 11.829930 556.547729
132 0 1 5.428920 11.780010 557.289673
133 0 1 4.900270 11.872310 558.028015
134 0 1 4.317290 12.047541 558.820068
135 0 1 4.307590 12.393021 559.730408
136 0 1 4.326890 12.657970 560.605469
137 0 1 4.380000 12.585060 561.530029
138 0 1 4.401530 12.652100 562.582214
139 0 1 4.352190 12.721420 563.556580
140 0 1 4.178430 12.614830 564.473206
141 0 1 3.857100 12.429240 565.305176
142 0 1 3.426560 12.229270 566.128174
143 0 1 2.907300 11.942710 566.945312
144 0 1 2.553120 11.824600 567.839905
145 0 1 2.308160 11.836610 568.739014
146 0 1 2.592170 12.059780 569.627930
147 0 1 2.620150 12.156860 570.633728
148 0 1 2.732830 11.950809 571.573914
149 0 1 2.628410 11.580700 572.527588
150 0 1 2.324900 11.256720 573.395020
151 0 1 2.244400 11.051530 574.364990
152 0 1 2.323220 11.078820 575.369812
153 0 1 2.457520 11.164850 576.304077
154 0 1 2.564680 11.502940 577.189819
155 0 1 2.655800 11.664900 578.176575
156 0 1 2.758950 11.511700 579.181091
157 0 1 2.849880 11.489720 580.094788
158 0 1 2.927000 11.621550 580.973511
159 0 1 3.105470 11.596130 581.949585
160 0 1 3.372540 11.305290 582.908386
161 0 1 3.393630 11.156460 583.862610
162 0 1 3.394450 10.777880 584.746216
163 0 1 3.315530 10.229560 585.533203
164 0 1 3.196800 9.870960 586.509888
165 0 1 3.183360 9.674530 587.416687
166 0 1 3.411710 9.385270 588.287292
167 0 1 3.699070 9.314620 589.215088
168 0 1 3.827420 9.369400 590.200195
169 0 1 3.883440 9.163620 591.118225
170 0 1 3.819920 9.221000 592.102600
171 0 1 3.904490 9.465060 593.071106
172 0 1 4.000100 9.922350 593.889587
173 0 1 4.181640 10.406140 594.707581
174 0 1 4.472040 10.872510 595.582275
175 0 1 4.759220 11.047050 596.483093
176 0 1 5.030710 11.232410 597.442810
177 0 1 5.165430 11.159250 598.399902
178 0 1 5.004900 11.142080 599.354004
179 0 1 4.949280 11.158250 600.338074
180 0 1 4.909430 11.261930 601.243225
181 0 1 4.710610 11.459390 602.181396
182 0 1 4.607700 11.350710 603.142395
183 0 1 4.512760 11.068280 604.000000
184 0 1 4.434160 10.730670 604.873596
185 0 1 4.552390 10.490960 605.814575
186 0 1 4.720320 9.941170 606.569580
187 0 1 4.895820 9.185930 607.061890
188 0 1 5.107180 8.436353 607.623108
189 0 1 5.168920 7.570540 608.091675
190 0 1 5.074440 6.723710 608.641602
191 0 1 4.879150 5.875190 609.130981
192 0 1 4.552210 4.951370 609.385986
193 0 1 4.567670 4.041110 609.707397
194 0 1 4.588920 3.364110 610.414917
195 0 1 4.436510 2.903170 611.231812
196 0 1 3.929840 3.045790 612.055420
197 0 1 3.577710 3.181350 612.914978
198 0 1 3.357730 3.342300 613.940125
199 0 1 3.471780 3.674450 614.837097
200 0 1 4.004820 4.086470 615.521423
201 0 1 4.458410 4.304820 616.413513
202 0 1 4.880970 4.508190 617.269226
203 0 1 5.460650 4.628310 618.092224
204 0 1 5.904310 4.787450 618.940796
205 0 1 5.984710 4.820920 619.951233
206 0 1 5.936070 4.757950 620.942200
207 0 1 5.877250 4.534920 621.863953
208 0 1 6.191250 4.311520 622.714355
209 0 1 6.430820 4.440600 623.586487
210 0 1 6.776900 4.530930 624.504639
211 0 1 7.117563 4.806800 625.419128
212 0 1 7.341269 4.943700 626.347351
213 0 1 7.343850 5.280220 627.219177
214 0 1 7.008543 5.710640 628.043457
215 0 1 6.740420 6.231100 628.908020
216 0 1 6.645480 6.591320 629.837097
217 0 1 6.519240 6.750830 630.797241
218 0 1 6.739050 6.661210 631.705688
219 0 1 6.940750 6.723780 632.683044
220 0 1 6.995430 6.742610 633.624817
221 0 1 7.226487 6.839350 634.546936
222 0 1 7.326202 7.136447 635.474915
223 0 1 7.430629 7.432759 636.389832
224 0 1 7.342153 7.838172 637.333252
225 0 1 7.116456 8.236744 638.249390
226 0 1 6.817020 8.580444 639.132874
227 0 1 6.441540 8.696923 640.058716
228 0 1 6.271410 8.739519 640.990173
229 0 1 6.041550 8.684420 641.869019
230 0 1 5.991030 8.573349 642.819092
231 0 1 5.839550 8.581243 643.818481
232 0 1 5.497110 8.578625 644.729492
233 0 1 5.251450 8.956764 645.575073
234 0 1 5.189120 9.228800 646.492615
235 0 1 5.318940 9.413340 647.406189
236 0 1 5.634420 9.650570 648.307495
237 0 1 6.033510 9.886630 649.115295
238 0 1 6.537830 10.122320 649.965576
239 0 1 7.000837 10.431860 650.693176
240 0 1 7.410213 10.837300 651.464783
241 0 1 7.650089 11.158930 652.326294
242 0 1 7.702273 11.263910 653.295471
243 0 1 7.861124 11.318840 654.237183
244 0 1 8.232013 11.315599 655.133179
245 0 1 8.421476 10.930540 656.042603
246 0 1 8.605693 10.624740 656.920898
247 0 1 8.617880 10.156190 657.746704
248 0 1 8.489908 9.872450 658.658997
249 0 1 8.193154 9.854630 659.585815
250 0 1 7.624979 9.987260 660.438599
251 0 1 7.360502 10.166590 661.414978
252 0 1 7.590112 10.491020 662.291809
253 0 1 7.647660 10.648140 663.278992
254 0 1 7.886642 10.984130 664.148926
255 0 1 7.827074 11.446490 665.001282
256 0 1 7.618487 11.849250 665.837219
257 0 1 7.181018 12.299880 666.566895
258 0 1 7.145395 12.715981 667.379395
259 0 1 7.199160 12.985780 668.370789
260 0 1 7.132414 12.955111 669.343018
261 0 1 7.382302 12.919371 670.284790
262 0 1 7.788657 13.128469 671.113098
263 0 1 8.006312 12.965640 672.000793
264 0 1 8.280458 12.841690 672.899902
265 0 1 8.448958 12.612700 673.792908
266 0 1 8.399267 12.335250 674.692505
267 0 1 8.316086 12.087891 675.682922
268 0 1 8.027506 11.649730 676.492126
269 0 1 7.817779 11.254460 677.334717
270 0 1 7.642450 10.789680 678.145020
271 0 1 7.598860 10.411950 678.989319
272 0 1 7.713597 9.972490 679.863770
273 0 1 7.799135 9.692620 680.760498
274 0 1 7.684994 9.715240 681.687683
275 0 1 7.895383 9.833270 682.566772
276 0 1 8.295667 10.202971 683.417297
277 0 1 8.510992 10.761960 684.239014
278 0 1 8.695564 11.193541 685.044922
279 0 1 8.774559 11.401979 685.985779
280 0 1 8.819815 11.497720 686.940430
281 0 1 8.683574 11.395480 687.907410
282 0 1 8.450510 11.461470 688.935181
283 0 1 8.146098 11.467340 689.854492
284 0 1 7.580565 11.713890 690.606506
285 0 1 7.102175 12.003990 691.377197
286 0 1 6.867450 12.211990 692.312012
287 0 1 6.969600 12.462900 693.317688
288 0 1 7.445389 12.800100 694.138489
289 0 1 7.939817 13.093700 694.886719
290 0 1 8.019461 13.252399 695.832214
291 0 1 8.198934 13.358950 696.722900
292 0 1 8.544573 13.346100 697.686401
293 0 1 9.190690 13.258141 698.466309
294 0 1 9.681550 13.215570 699.314087
295 0 1 10.213610 12.834869 700.053406
296 0 1 10.385310 12.613689 701.040100
297 0 1 10.708400 12.256310 701.877991
298 0 1 10.966300 11.913170 702.777405
299 0 1 11.116620 11.779440 703.694397
300 0 1 11.611330 11.534510 704.442993
301 0 1 11.961810 11.150010 705.232422
302 0 1 12.208190 10.628440 705.973877
303 0 1 12.170910 10.045640 706.829102
304 0 1 12.229460 9.454730 707.587524
305 0 1 12.020520 8.741708 708.190002
306 0 1 11.640160 8.036958 708.651306
307 0 1 11.462860 7.387250 709.340515
308 0 1 11.348510 6.707200 710.044983
309 0 1 11.039530 6.251630 710.926392
310 0 1 10.342370 6.110850 711.584106
311 0 1 9.958680 5.648400 712.453796
312 0 1 9.601470 5.149820 713.223022
313 0 1 9.375040 4.970060 714.171082
314 0 1 9.046700 4.695950 715.038208
315 0 1 8.506536 4.752350 715.839294
316 0 1 8.130729 4.963970 716.711304
317 0 1 7.760021 5.027650 717.557190
318 0 1 7.537744 4.685860 718.427612
319 0 1 7.373214 4.250690 719.266296
320 0 1 7.581961 4.227990 720.211304
321 0 1 7.929010 3.893960 721.038696
322 0 1 8.274545 3.830120 721.937317
323 0 1 8.556981 3.959540 722.846985
324 0 1 8.686074 4.084580 723.791199
325 0 1 8.683318 4.184440 724.829102
326 0 1 8.659034 4.136030 725.786133
327 0 1 8.849947 4.131590 726.781677
328 0 1 8.900495 3.932290 727.699402
329 0 1 8.761049 4.066380 728.658997
330 0 1 8.767378 3.997690 729.539001
331 0 1 9.170700 3.974690 730.388000
332 0 1 9.534110 4.021170 731.294983
333 0 1 9.827620 3.891480 732.182983
334 0 1 9.868920 3.880750 733.164978
335 0 1 10.183850 3.800430 734.062012
336 0 1 10.218930 3.562910 734.999023
337 0 1 10.046240 3.304020 735.932007
338 0 1 9.762630 3.321890 736.841980
339 0 1 9.521250 3.496190 737.723999
340 0 1 9.245840 3.858580 738.661011
341 0 1 9.056940 4.151710 739.559998
342 0 1 8.914586 4.355500 740.468994
343 0 1 8.769064 4.700500 741.390991
344 0 1 9.015790 4.856060 742.333984
345 0 1 9.084610 5.025320 743.260986
346 0 1 9.391680 5.315900 744.067017
347 0 1 9.827250 5.669030 744.830017
348 0 1 10.252240 6.075830 745.656982
349 0 1 10.477680 6.490840 746.450989
350 0 1 10.796140 6.762230 747.276978
351 0 1 10.694450 7.206790 748.197998
352 0 1 10.450240 7.244273 749.094971
353 0 1 10.002620 7.015736 749.945007
354 0 1 9.519080 6.702990 750.749023
355 0 1 9.304790 6.121190 751.520020
356 0 1 9.043370 5.973430 752.417969
357 0 1 8.870352 5.817860 753.327026
358 0 1 8.461227 5.625650 754.174011
359 0 1 8.231842 5.538600 755.088989
360 0 1 7.968653 5.391060 755.979980
361 0 1 7.969487 5.186310 756.917969
362 0 1 8.070211 5.238720 757.864014
363 0 1 8.063204 5.363540 758.841003
364 0 1 8.289133 5.577420 759.693970
365 0 1 8.689854 5.643760 760.552002
366 0 1 8.754548 5.543130 761.488037
367 0 1 8.803216 5.365350 762.471985
368 0 1 8.899783 5.263420 763.374023
369 0 1 9.064780 5.161360 764.325989
370 0 1 9.146260 5.347890 765.229004
371 0 1 9.050830 5.806620 766.136963
372 0 1 9.072010 6.145100 767.061035
373 0 1 8.890688 6.599560 767.911987
374 0 1 8.845654 7.271710 768.554016
375 0 1 9.104500 7.885022 769.259033
376 0 1 9.343081 8.292486 770.138000
377 0 1 9.579140 8.505965 771.110962
378 0 1 9.844310 8.830479 772.011963
379 0 1 10.042490 9.355100 772.893982
380 0 1 10.356840 9.592150 773.812012
381 0 1 10.833370 9.863620 774.578003
382 0 1 11.010201 10.098930 775.490967
383 0 1 11.194650 10.160130 776.401001
384 0 1 11.455760 10.343460 777.317017
385 0 1 11.665870 10.338570 778.257019
386 0 1 11.907490 10.102580 779.145020
387 0 1 11.721300 9.880040 780.039001
388 0 1 11.753700 9.615590 781.026978
389 0 1 11.767930 9.520730 782.004028
390 0 1 11.622000 9.263150 782.908020
391 0 1 11.354520 9.438280 783.860962
392 0 1 11.304480 9.409530 784.869995
393 0 1 11.448111 9.407630 785.825012
394 0 1 11.593451 9.777110 786.755005
395 0 1 11.682110 10.309790 787.490967
396 0 1 11.721621 10.797350 788.296021
397 0 1 11.456010 11.048750 789.195007
398 0 1 11.482870 11.179831 790.239014
399 0 1 11.669621 11.269250 791.176025
400 0 1 11.798070 11.263350 792.124023
401 0 1 11.969630 11.478740 793.036011
402 0 1 12.183710 11.700930 793.994019
403 0 1 12.557720 11.501380 794.858032
404 0 1 12.851789 11.063200 795.672974
405 0 1 13.042440 10.953420 796.664001
406 0 1 13.547820 10.692680 797.416016
407 0 1 13.990370 10.056320 798.073975
408 0 1 14.257589 9.388500 798.609985
409 0 1 14.381269 8.548259 799.083984
410 0 1 14.007700 7.842853 799.697998
411 0 1 13.387620 7.271360 800.143982
412 0 1 12.839300 6.930100 800.858032
413 0 1 12.203830 6.560660 801.453003
414 0 1 11.652980 6.170960 802.192017
415 0 1 11.145100 5.955940 802.983032
416 0 1 10.812460 5.621410 803.781982
417 0 1 10.429570 5.140260 804.510986
418 0 1 9.997740 4.496190 805.132996
419 0 1 9.504080 3.754360 805.526978
420 0 1 9.195280 2.963770 806.124023
421 0 1 8.921372 2.420580 806.837036
422 0 1 8.482415 2.173530 807.714966
423 0 1 8.277774 2.101640 808.630981
424 0 1 8.333099 2.087220 809.591003
425 0 1 8.447945 2.157820 810.488037
426 0 1 8.462102 2.521090 811.398987
427 0 1 8.542343 2.737750 812.354980
428 0 1 8.404737 2.983840 813.270020
429 0 1 8.587837 3.473170 814.078003
430 0 1 8.686526 3.592440 815.094971
431 0 1 8.336241 4.119350 815.901001
432 0 1 8.396614 4.623390 816.705017
433 0 1 8.460042 4.964050 817.580017
434 0 1 8.644322 5.225860 818.510010
435 0 1 8.885411 5.454840 819.416992
436 0 1 9.237420 5.337010 820.280029
437 0 1 9.603850 5.238690 821.162964
438 0 1 9.888910 5.360280 822.054016
439 0 1 10.195800 5.647270 823.000977
440 0 1 10.482800 5.812600 823.880005
441 0 1 10.682760 5.994190 824.802002
442 0 1 10.956390 5.832400 825.719971
443 0 1 10.948860 5.901970 826.755981
444 0 1 10.964760 5.762760 827.693970
445 0 1 10.854210 5.672970 828.625000
446 0 1 10.898590 5.467760 829.563965
447 0 1 10.994180 5.349420 830.521973
448 0 1 10.889500 5.463290 831.500977
449 0 1 10.753531 5.730110 832.447021
450 0 1 10.499320 6.067440 833.257996
451 0 1 10.373330 6.409250 834.091003
452 0 1 10.131210 7.139587 834.776001
453 0 1 9.909880 7.564454 835.656006
454 0 1 9.709641 7.799715 836.556030
455 0 1 9.475630 7.886032 837.537964
456 0 1 9.188950 8.161995 838.398987
457 0 1 8.896362 8.502635 839.208008
458 0 1 8.404735 8.803072 839.950012
459 0 1 7.549477 9.039360 840.337036
460 0 1 6.547530 9.011850 840.328979
461 0 1 5.591060 9.171880 840.664978
462 0 1 4.622960 9.151950 840.817993
463 0 1 3.671130 9.129260 840.718994
464 0 1 2.867100 9.220360 840.265991
465 0 1 2.425160 8.962691 839.484009
466 0 1 2.079360 8.652640 838.703979
467 0 1 1.783950 8.700856 837.749023
468 0 1 1.551060 8.828193 836.766968
469 0 1 1.655310 8.894305 835.835999
470 0 1 2.166470 8.890770 835.020020
471 0 1 2.404940 8.575000 834.124023
472 0 1 2.473870 8.518923 833.174988
473 0 1 2.240530 8.431855 832.229004
474 0 1 2.196180 8.657982 831.260986
475 0 1 2.182370 9.090570 830.398010
476 0 1 2.465990 9.158080 829.516968
477 0 1 2.923400 9.305490 828.707031
478 0 1 3.385680 9.550920 827.880981
479 0 1 3.712020 9.754330 826.981018
480 0 1 4.018550 9.969710 826.018005
481 0 1 3.949770 9.999670 825.046021
482 0 1 3.911580 10.382660 824.172974
483 0 1 3.843850 10.915550 823.421021
484 0 1 4.062210 11.246140 822.533020
485 0 1 4.529410 11.564370 821.713013
486 0 1 4.816360 12.087521 820.964966
487 0 1 5.195930 12.039869 820.155029
488 0 1 5.725200 11.836850 819.286987
489 0 1 6.041400 11.616290 818.364014
490 0 1 6.436740 11.097310 817.677979
491 0 1 7.120837 10.729250 817.025024
492 0 1 7.607246 10.229810 816.367981
493 0 1 7.878626 9.704320 815.572998
494 0 1 8.082177 9.008810 814.962036
495 0 1 8.173427 8.265559 814.348022
496 0 1 7.895902 7.366081 813.789978
497 0 1 7.600123 6.619300 813.276978
498 0 1 7.184781 5.872890 812.848022
499 0 1 6.485870 5.265230 812.528992
500 0 1 5.862730 4.941670 811.877014
501 0 1 5.277470 4.562500 811.184021
502 0 1 4.910950 3.937040 810.552002
503 0 1 4.769100 3.333990 809.830994
504 0 1 4.910160 2.916240 808.969971
505 0 1 4.935320 2.463250 808.089966
506 0 1 5.043240 2.225550 807.187012
507 0 1 5.032060 2.053840 806.205994
508 0 1 5.326650 1.996050 805.266968
509 0 1 5.794290 2.301570 804.481995
510 0 1 6.045200 2.698790 803.632996
511 0 1 6.552620 3.273010 802.958008
512 0 1 7.126227 3.831310 802.432007
513 0 1 7.717184 4.168090 801.765991
514 0 1 8.420131 4.241440 801.018982
515 0 1 9.206730 4.506780 800.518005
516 0 1 9.857600 4.629310 799.789001
517 0 1 10.265480 4.858830 798.960022
518 0 1 10.215040 5.223580 798.061035
519 0 1 9.992140 5.450840 797.145996
520 0 1 9.627680 5.379000 796.210022
521 0 1 9.357950 5.295530 795.297974
522 0 1 9.210910 5.311250 794.364014
523 0 1 9.211800 5.142470 793.405029
524 0 1 9.062120 4.752540 792.549011
525 0 1 8.661299 4.299470 791.796021
526 0 1 8.386185 3.654040 791.093018
527 0 1 8.056045 3.327190 790.234985
528 0 1 7.577001 3.028090 789.489990
529 0 1 7.189988 2.683790 788.684998
530 0 1 6.843810 2.539150 787.763000
531 0 1 6.402830 2.438920 786.919983
532 0 1 6.033460 2.446900 785.968994
533 0 1 5.752260 2.405680 785.096985
534 0 1 5.984190 2.296390 784.167969
535 0 1 6.320500 2.490560 783.286011
536 0 1 6.505120 2.812160 782.338989
537 0 1 6.952610 2.917810 781.380005
538 0 1 7.500012 3.230840 780.484985
539 0 1 7.991769 3.608680 779.797974
540 0 1 8.335393 3.791480 778.955994
541 0 1 8.692388 4.053340 778.078979
542 0 1 9.208300 4.186750 777.317017
543 0 1 9.522750 4.262660 776.445984
544 0 1 9.922110 4.353680 775.627991
545 0 1 10.092790 4.444910 774.639038
546 0 1 10.214030 4.753750 773.740967
547 0 1 10.446899 5.088650 772.865967
548 0 1 10.163380 5.350900 771.971008
549 0 1 9.706450 5.776290 771.125977
550 0 1 8.981359 5.718190 770.419983
551 0 1 8.634914 5.623620 769.507996
552 0 1 8.236234 5.177840 768.770996
553 0 1 7.906179 4.798120 768.015015
554 0 1 7.340212 4.689120 767.224976
555 0 1 6.876410 4.724300 766.390991
556 0 1 6.382220 5.045390 765.695007
557 0 1 5.862710 5.280910 764.971008
558 0 1 5.745650 5.344610 764.042969
559 0 1 5.562210 5.149400 763.044983
560 0 1 5.587860 5.151690 762.108032
561 0 1 5.908070 5.358980 761.244019
562 0 1 5.921780 5.786340 760.325012
563 0 1 6.000720 6.287360 759.494995
564 0 1 5.986010 6.729780 758.661011
565 0 1 6.176130 7.284666 757.885010
566 0 1 6.445160 7.761127 757.091980
567 0 1 6.473240 8.347570 756.338989
568 0 1 6.419220 8.491898 755.400024
569 0 1 6.168210 8.807430 754.500977
570 0 1 5.849740 9.096810 753.640991
571 0 1 5.821310 9.532340 752.723999
572 0 1 5.715740 9.947900 751.851013
573 0 1 5.378440 9.981950 750.913025
574 0 1 5.086150 10.364759 750.112000
575 0 1 4.806160 10.893430 749.351013
576 0 1 4.639570 11.148670 748.460022
577 0 1 4.538210 11.149250 747.406006
578 0 1 4.621150 11.080470 746.455994
579 0 1 4.750570 11.308940 745.531982
580 0 1 4.675390 11.573130 744.617981
581 0 1 4.404760 11.702150 743.669006
582 0 1 4.188880 11.544320 742.690002
583 0 1 4.242710 11.423450 741.711975
584 0 1 4.375300 11.400720 740.744019
585 0 1 4.218570 11.101650 739.802979
586 0 1 4.095660 10.785810 738.844971
587 0 1 4.343800 10.733500 737.931030
588 0 1 4.817230 10.244350 737.228027
589 0 1 5.195610 10.134190 736.358032
590 0 1 5.416310 10.214410 735.458008
591 0 1 5.633190 10.145050 734.551025
592 0 1 6.212030 10.086040 733.716980
593 0 1 6.613830 10.040510 732.861023
594 0 1 6.706700 10.190150 731.921021
595 0 1 6.676440 10.221720 730.937988
596 0 1 6.452770 10.159090 729.935974
597 0 1 6.258670 10.037630 729.039001
598 0 1 6.001220 9.844640 728.152710
599 0 1 5.838990 9.745610 727.202576
600 0 1 5.908210 9.682810 726.294678
601 0 1 6.005020 9.980940 725.369873
602 0 1 6.280900 9.832870 724.444885
603 0 1 6.963030 9.260470 723.925781
604 0 1 7.387885 8.774751 723.186096
605 0 1 7.637711 8.179450 722.566406
606 0 1 7.857684 7.747937 721.776123
607 0 1 7.935068 7.354421 720.912415
608 0 1 7.697507 7.178888 720.038513
609 0 1 7.351517 7.301261 719.085999
610 0 1 6.725430 7.343294 718.360107
611 0 1 6.408820 7.521204 717.455994
612 0 1 6.124260 7.835232 716.579407
613 0 1 6.222280 8.199127 715.730469
614 0 1 5.899880 8.492613 714.878723
615 0 1 5.411820 8.328274 714.056030
616 0 1 5.354220 8.471655 713.113098
617 0 1 5.560360 8.485709 712.187988
618 0 1 6.009780 8.387168 711.300476
619 0 1 6.584390 8.452203 710.576477
620 0 1 7.156581 8.454332 709.764282
621 0 1 7.885254 8.428602 709.054382
622 0 1 8.733218 8.376049 708.692688
623 0 1 9.502710 8.267453 708.176819
624 0 1 10.250380 8.532531 707.656494
625 0 1 11.087540 8.512804 707.201111
626 0 1 11.831250 8.141594 706.733521
627 0 1 12.389330 7.538572 706.280518
628 0 1 12.806320 6.953530 705.526123
629 0 1 13.189030 6.640560 704.663696
630 0 1 13.420050 6.423900 703.750610
631 0 1 12.993600 6.282670 702.854980
632 0 1 12.905830 6.252300 701.899109
633 0 1 12.881810 6.461810 700.947205
634 0 1 13.115311 6.618110 700.073486
635 0 1 13.080100 6.733850 699.118713
636 0 1 13.327710 7.123740 698.309326
637 0 1 13.383739 7.255419 697.303467
638 0 1 13.601350 7.373458 696.373413
639 0 1 13.659870 7.580510 695.398682
640 0 1 13.897280 7.892758 694.524292
641 0 1 13.628349 8.345924 693.770691
642 0 1 13.266870 8.704525 692.970398
643 0 1 12.651381 8.961266 692.234497
644 0 1 12.396400 9.192250 691.333801
645 0 1 12.116840 9.176580 690.397827
646 0 1 12.008690 9.027910 689.456726
647 0 1 12.069400 8.966599 688.531677
648 0 1 12.337860 8.698861 687.626587
649 0 1 12.431410 8.452817 686.678101
650 0 1 12.497700 8.097394 685.768982
651 0 1 12.504601 7.783995 684.807312
652 0 1 12.618050 7.608767 683.843811
653 0 1 12.613410 7.488515 682.903809
654 0 1 12.508690 7.062180 681.985413
655 0 1 12.224279 6.692670 681.116211
656 0 1 11.963270 6.121660 680.327271
657 0 1 11.670170 5.836370 679.485901
658 0 1 11.204960 5.715540 678.643127
659 0 1 11.034121 5.570150 677.682617
660 0 1 10.663780 5.405700 676.760620
661 0 1 10.496429 5.292470 675.815979
662 0 1 10.404950 5.273110 674.841980
663 0 1 10.286020 4.986850 673.930481
664 0 1 10.265270 4.663940 672.933899
665 0 1 10.096280 4.430440 671.982422
666 0 1 9.875760 4.132380 671.091675
667 0 1 9.708500 3.743470 670.148926
668 0 1 9.350750 3.569210 669.281006
669 0 1 8.744803 3.352970 668.389526
670 0 1 8.510842 3.342280 667.484619
671 0 1 8.393778 3.084530 666.505371
672 0 1 8.127125 2.754170 665.696289
673 0 1 7.747251 2.645120 664.804199
674 0 1 7.284481 2.566650 663.908325
675 0 1 6.955620 2.426360 662.977295
676 0 1 6.581890 2.186210 662.151123
677 0 1 6.242370 2.037070 661.236084
678 0 1 5.970470 2.126020 660.273682
679 0 1 5.989930 2.185060 659.321899
680 0 1 6.256830 2.102550 658.326111
681 0 1 6.522670 1.952060 657.437378
682 0 1 6.894020 1.709510 656.578796
683 0 1 7.314891 1.687600 655.664978
684 0 1 7.564873 1.449750 654.797424
685 0 1 7.727244 1.192240 653.835693
686 0 1 7.680986 1.130580 652.910095
687 0 1 7.614689 1.204190 651.870972
688 0 1 7.403260 1.201240 650.948730
689 0 1 7.276478 1.462790 649.975220
690 0 1 7.221203 1.877420 649.082275
691 0 1 7.011692 2.252250 648.229370
692 0 1 6.827770 2.628590 647.353210
693 0 1 6.523300 3.253520 646.609802
694 0 1 6.365880 3.763350 645.668274
695 0 1 5.803000 3.968620 644.930786
696 0 1 5.550570 4.583860 644.302673
697 0 1 5.293800 5.276920 643.637329
698 0 1 5.311440 5.963880 643.008484
699 0 1 5.449410 6.551460 642.271973
700 0 1 5.368310 6.944520 641.359314
701 0 1 5.323160 7.016703 640.387329
702 0 1 5.256420 6.909060 639.437195
703 0 1 4.841960 6.851350 638.596802
704 0 1 4.485180 6.882630 637.618164
705 0 1 4.249910 6.938930 636.711121
706 0 1 4.069640 6.962630 635.768982
707 0 1 3.695540 7.246700 634.922241
708 0 1 3.365330 7.703108 634.100037
709 0 1 3.173270 8.173063 633.252502
710 0 1 3.009090 8.349144 632.333069
711 0 1 3.065740 8.248043 631.337952
712 0 1 3.026270 8.249940 630.395508
713 0 1 3.090550 8.283768 629.444031
714 0 1 3.059500 8.307720 628.466309
715 0 1 2.936530 8.106328 627.536011
716 0 1 2.964870 7.882745 626.577332
717 0 1 2.925040 7.689591 625.609741
718 0 1 2.716570 7.476563 624.747437
719 0 1 2.580130 7.281312 623.806030
720 0 1 2.622360 7.095746 622.893921
721 0 1 2.621650 6.823450 621.970215
722 0 1 2.448610 6.605090 621.059082
723 0 1 2.674120 6.439710 620.201965
724 0 1 3.055090 6.733500 619.341309
725 0 1 3.589340 6.939560 618.629089
726 0 1 3.933640 7.097517 617.796326
727 0 1 4.517950 7.447053 617.096924
728 0 1 5.057680 7.635201 616.365417
729 0 1 5.509350 7.999545 615.646179
730 0 1 5.983970 8.576293 615.017212
731 0 1 6.050990 9.170110 614.308472
732 0 1 6.140920 9.675920 613.512085
733 0 1 6.380450 10.005770 612.601379
734 0 1 6.607260 10.323950 611.705322
735 0 1 6.880220 10.698140 610.820496
736 0 1 6.949400 10.850130 609.909180
737 0 1 6.990740 10.992830 608.936890
738 0 1 7.135886 10.634230 608.038208
739 0 1 7.198061 10.281900 607.181091
740 0 1 7.307744 10.346910 606.261902
741 0 1 7.648464 10.744290 605.536621
742 0 1 8.042460 11.226880 604.713806
743 0 1 8.276161 11.601580 603.934204
744 0 1 8.203105 11.831210 602.975281
745 0 1 8.006658 11.969440 602.072998
746 0 1 8.151661 11.932440 601.101624
747 0 1 8.286333 11.963120 600.099976
748 0 1 8.296905 12.313510 599.190186
749 0 1 8.083329 12.649370 598.242493
750 0 1 8.234565 12.868670 597.328918
751 0 1 8.337161 12.737700 596.416016
752 0 1 8.461896 12.353420 595.533997
753 0 1 8.743168 12.245880 594.618103
754 0 1 8.982863 12.194790 593.743408
755 0 1 8.906818 12.062571 592.754517
756 0 1 8.691560 11.874140 591.790771
757 0 1 8.418122 11.733050 590.878723
758 0 1 8.537029 11.541200 589.883484
759 0 1 8.884606 11.447940 588.973572
760 0 1 8.939000 11.291360 587.981628
761 0 1 8.962696 11.068171 586.999695
762 0 1 8.735126 11.135480 585.969482
763 0 1 8.442774 10.707840 585.139709
764 0 1 8.141807 10.199570 584.470398
765 0 1 8.064103 9.981650 583.471924
766 0 1 8.008199 9.690050 582.565613
767 0 1 8.187447 9.574380 581.644897
768 0 1 8.551685 9.622850 580.794128
769 0 1 8.820982 9.599130 579.819275
770 0 1 9.027860 9.611830 578.889282
771 0 1 9.022280 9.940170 577.980286
772 0 1 8.865688 10.210400 577.013123
773 0 1 8.734666 10.250740 576.080322
774 0 1 8.419484 10.266190 575.149597
775 0 1 8.089541 10.368580 574.229492
776 0 1 8.151126 10.297800 573.226807
777 0 1 7.969215 10.131940 572.287903
778 0 1 7.700759 9.836790 571.441895
779 0 1 7.335528 9.910860 570.561890
780 0 1 6.887950 9.827310 569.703003
781 0 1 6.612310 9.755890 568.803101
782 0 1 6.363340 9.847610 567.918396
783 0 1 6.141370 9.779030 566.904175
784 0 1 6.262670 9.684690 565.883179
785 0 1 6.422410 9.596020 564.901428
786 0 1 6.504220 9.120320 563.968506
787 0 1 6.352170 8.762167 563.060669
788 0 1 6.457210 8.458090 562.190002
789 0 1 6.616820 8.184582 561.287781
790 0 1 6.638060 7.688781 560.487793
791 0 1 6.445240 7.251545 559.698303
792 0 1 6.143840 7.001255 558.814697