LAMMPS data file via MDAnalysis

        1000  atoms
        1000  bonds
        1000  angles
           0  dihedrals
           0  impropers

           1  atom types
           1  bond types
           1  angle types
           0  dihedral types
           0  improper types

0.000000 16.000000 xlo xhi
0.000000 16.000000 ylo yhi
0.000000 1257.000000 zlo zhi


Masses

1 1.000000

Atoms

1 0 1 6.439570 7.977518 456.237000
2 0 1 5.958740 8.186009 457.044006
3 0 1 5.433630 8.377892 457.951996
4 0 1 5.390270 8.861155 458.748993
5 0 1 5.152970 9.306580 459.640991
6 0 1 4.859830 9.529170 460.507019
7 0 1 4.501080 9.634560 461.377991
8 0 1 4.141500 9.741780 462.216980
9 0 1 4.112170 9.296000 463.065979
10 0 1 4.480020 9.029860 463.885986
11 0 1 4.618910 8.719347 464.786011
12 0 1 4.973170 8.661141 465.653992
13 0 1 5.476660 8.894160 466.458008
14 0 1 5.775280 8.896377 467.356018
15 0 1 6.201880 9.018000 468.174988
16 0 1 6.586850 9.278540 468.968018
17 0 1 7.166384 9.426460 469.765991
18 0 1 7.726040 9.630970 470.554016
19 0 1 8.572033 9.679910 471.158997
20 0 1 9.154960 9.751570 471.958984
21 0 1 9.261480 10.075220 472.934998
22 0 1 9.319260 10.013790 473.966003
23 0 1 9.297150 9.996270 474.945984
24 0 1 9.272250 9.811160 475.914978
25 0 1 9.176560 9.621161 476.825012
26 0 1 9.240000 9.376850 477.799988
27 0 1 9.365610 9.190870 478.692017
28 0 1 9.370580 8.933686 479.606018
29 0 1 9.281370 8.569941 480.477997
30 0 1 9.320800 8.321034 481.442017
31 0 1 9.606410 7.933363 482.291992
32 0 1 9.708930 7.533564 483.197998
33 0 1 9.636900 7.055920 484.085022
34 0 1 9.684430 6.511540 484.812988
35 0 1 9.700490 6.159580 485.751007
36 0 1 9.654760 5.566160 486.455017
37 0 1 9.669000 5.150580 487.359985
38 0 1 9.746370 4.415720 487.987000
39 0 1 9.882290 4.044200 488.877014
40 0 1 9.940960 3.685500 489.755981
41 0 1 9.991770 3.451720 490.677979
42 0 1 9.901590 3.274210 491.658020
43 0 1 10.029160 2.963300 492.567993
44 0 1 9.913910 2.792020 493.492004
45 0 1 9.731730 3.008060 494.398010
46 0 1 9.640000 3.226110 495.371002
47 0 1 10.007190 3.472110 496.221985
48 0 1 10.303431 3.729560 497.138000
49 0 1 10.294490 4.176910 497.932983
50 0 1 10.403130 4.803720 498.606995
51 0 1 10.815060 5.320340 499.312988
52 0 1 11.160930 5.831300 500.061005
53 0 1 11.503980 6.404600 500.830994
54 0 1 11.622050 7.029191 501.580994
55 0 1 11.510450 7.599172 502.321991
56 0 1 11.550250 8.411311 502.817017
57 0 1 11.584440 9.007060 503.520996
58 0 1 11.752330 9.427790 504.335999
59 0 1 11.620871 9.762100 505.234985
60 0 1 11.623859 10.077240 506.114014
61 0 1 11.601340 10.334930 507.100006
62 0 1 11.927650 10.568320 508.022003
63 0 1 12.287291 10.297650 508.877991
64 0 1 12.169080 10.093270 509.820984
65 0 1 12.023570 9.881730 510.779999
66 0 1 11.604830 9.751920 511.630981
67 0 1 11.398211 9.504080 512.547974
68 0 1 11.027349 9.112280 513.327026
69 0 1 10.645900 8.944796 514.146973
70 0 1 10.280340 8.774881 515.028015
71 0 1 9.751470 8.676450 515.809998
72 0 1 9.161010 8.835108 516.533020
73 0 1 8.642812 8.894199 517.411011
74 0 1 8.442795 8.811269 518.335999
75 0 1 8.096529 8.697756 519.271973
76 0 1 7.705928 8.543528 520.172974
77 0 1 7.448993 8.536349 521.047974
78 0 1 7.150869 8.571607 521.947021
79 0 1 6.960390 8.824383 522.825989
80 0 1 6.858360 8.772832 523.796021
81 0 1 6.800690 8.606537 524.801025
82 0 1 6.574600 8.448468 525.677002
83 0 1 6.299810 8.258930 526.570984
84 0 1 5.820660 8.140112 527.372009
85 0 1 5.532910 8.357574 528.260010
86 0 1 5.330650 8.372992 529.268799
87 0 1 5.656850 8.434660 530.127014
88 0 1 6.029950 8.259531 531.105469
89 0 1 6.619640 7.984087 531.810791
90 0 1 7.188072 8.091505 532.561768
91 0 1 7.824184 8.111335 533.312317
92 0 1 8.071230 7.960290 534.221191
93 0 1 8.297793 7.911717 535.153381
94 0 1 8.647865 7.871334 536.079834
95 0 1 9.126190 8.075850 536.929504
96 0 1 9.692850 8.460324 537.658691
97 0 1 10.339000 8.957341 538.162598
98 0 1 10.659730 9.386920 538.951782
99 0 1 11.016320 9.855080 539.753174
100 0 1 11.231080 10.149910 540.682617
101 0 1 11.215720 10.215340 541.647278
102 0 1 10.806330 10.580670 542.463501
103 0 1 10.525140 10.681900 543.409180
104 0 1 10.556010 10.889190 544.353821
105 0 1 10.337330 11.124260 545.279724
106 0 1 10.313630 11.215281 546.253113
107 0 1 10.253260 11.076440 547.263672
108 0 1 10.082700 10.839340 548.118286
109 0 1 9.860260 10.691910 549.001404
110 0 1 9.621970 10.151720 549.714417
111 0 1 9.286230 9.506590 550.316895
112 0 1 9.048940 9.191140 551.236511
113 0 1 9.317780 9.038690 552.145630
114 0 1 9.446570 8.991932 553.059570
115 0 1 9.543859 8.981339 554.071167
116 0 1 9.715150 8.869745 554.965881
117 0 1 9.995950 8.813357 555.919922
118 0 1 10.175261 9.004080 556.818176
119 0 1 10.168510 9.381380 557.762207
120 0 1 9.961060 9.925730 558.579224
121 0 1 9.700020 10.419610 559.356567
122 0 1 9.304920 10.754000 560.138794
123 0 1 8.880131 11.279449 560.839417
124 0 1 8.308961 11.873800 561.373169
125 0 1 7.572361 12.281760 561.903381
126 0 1 6.978350 12.281340 562.638611
127 0 1 6.438450 12.066481 563.374268
128 0 1 5.830500 11.729330 564.099426
129 0 1 5.551310 11.968240 564.956482
130 0 1 5.506280 11.965680 565.865112
131 0 1 5.634810 12.084169 566.796204
132 0 1 5.503790 12.247971 567.682312
133 0 1 5.395520 12.646350 568.585510
134 0 1 5.586590 12.897290 569.489380
135 0 1 5.725740 13.074540 570.427185
136 0 1 5.801080 12.945120 571.289307
137 0 1 5.698270 12.834570 572.237000
138 0 1 5.361390 12.435200 573.130310
139 0 1 5.091400 12.278160 574.079285
140 0 1 4.940440 12.359240 575.042725
141 0 1 5.025670 12.520309 575.941589
142 0 1 4.883980 12.297791 576.867676
143 0 1 4.520210 11.824590 577.651001
144 0 1 4.008970 11.250800 578.235413
145 0 1 3.499270 10.694550 578.849915
146 0 1 2.978920 10.181880 579.458496
147 0 1 2.687590 9.602010 580.181030
148 0 1 2.448510 8.951431 580.828369
149 0 1 2.389780 8.480157 581.681702
150 0 1 2.576790 8.093820 582.495605
151 0 1 2.975220 7.404732 583.191589
152 0 1 3.474730 6.810470 583.815125
153 0 1 4.081170 6.330870 584.363098
154 0 1 4.561640 6.009240 585.135803
155 0 1 4.994820 5.711650 585.919617
156 0 1 5.220100 5.480710 586.776917
157 0 1 5.141610 5.333290 587.691895
158 0 1 4.988640 5.149480 588.604187
159 0 1 5.310530 5.038730 589.556396
160 0 1 5.482300 4.705220 590.447815
161 0 1 5.495220 4.394750 591.325684
162 0 1 5.361140 4.044310 592.211426
163 0 1 5.175970 3.773840 593.127380
164 0 1 5.176460 3.624920 594.095215
165 0 1 5.236790 3.463680 595.047913
166 0 1 5.350950 3.055260 596.014526
167 0 1 5.416580 2.933950 596.947205
168 0 1 5.546330 2.955190 597.881592
169 0 1 5.712220 2.848120 598.822327
170 0 1 5.830240 2.590740 599.697083
171 0 1 6.236160 2.381120 600.576416
172 0 1 6.328250 2.508610 601.580017
173 0 1 6.654640 2.769710 602.452576
174 0 1 6.874960 2.738520 603.366211
175 0 1 7.070030 2.847540 604.255127
176 0 1 7.282527 2.947000 605.207397
177 0 1 7.460498 2.863540 606.204407
178 0 1 7.757705 2.918000 607.126221
179 0 1 7.983665 2.865600 608.019287
180 0 1 8.266976 2.876920 608.901428
181 0 1 8.677980 3.065770 609.709900
182 0 1 8.801855 3.228420 610.627625
183 0 1 8.943355 3.140920 611.619019
184 0 1 9.220500 3.287900 612.615601
185 0 1 9.362500 3.568310 613.564514
186 0 1 9.653540 3.903590 614.444397
187 0 1 9.745470 4.264690 615.399414
188 0 1 9.606830 4.609560 616.439392
189 0 1 9.649010 4.846620 617.416809
190 0 1 9.332270 4.896960 618.387573
191 0 1 9.011940 4.562070 619.315063
192 0 1 8.777858 4.178450 620.174927
193 0 1 8.879322 3.749250 621.033386
194 0 1 9.189930 3.601960 621.919739
195 0 1 9.526800 3.045290 622.608154
196 0 1 9.732530 2.574560 623.394775
197 0 1 9.731330 2.283890 624.203674
198 0 1 9.885330 2.281570 625.220398
199 0 1 10.199320 2.404030 626.149658
200 0 1 10.546070 2.569450 627.064575
201 0 1 10.644760 2.811110 628.009033
202 0 1 10.583970 3.050140 628.937805
203 0 1 10.400800 3.233020 629.859558
204 0 1 10.064510 3.357880 630.739258
205 0 1 9.576900 3.741250 631.467590
206 0 1 9.059361 3.927490 632.206482
207 0 1 8.540931 3.968760 633.023987
208 0 1 7.925625 4.057440 633.779297
209 0 1 7.374051 3.915790 634.550476
210 0 1 7.044342 3.676750 635.392944
211 0 1 6.912760 3.200360 636.287354
212 0 1 6.705000 2.797890 637.163757
213 0 1 6.342480 2.849500 638.035339
214 0 1 5.824190 2.639160 638.885803
215 0 1 5.596970 2.602590 639.890503
216 0 1 5.212190 2.832750 640.718079
217 0 1 4.853440 2.726440 641.626099
218 0 1 4.502260 2.695850 642.540771
219 0 1 4.408720 2.705090 643.581970
220 0 1 4.421450 2.941470 644.501404
221 0 1 4.125020 3.350370 645.378601
222 0 1 3.761030 3.852660 646.083801
223 0 1 3.442260 4.383310 646.780823
224 0 1 3.470650 4.812630 647.648010
225 0 1 3.516780 4.938420 648.626099
226 0 1 3.437640 4.908940 649.613525
227 0 1 3.351080 5.064530 650.598328
228 0 1 3.215260 5.318820 651.507202
229 0 1 2.858780 5.542050 652.394897
230 0 1 2.508580 5.910300 653.190979
231 0 1 2.424460 6.317170 654.063477
232 0 1 2.315500 6.803000 654.884277
233 0 1 2.419260 7.428671 655.654724
234 0 1 2.651380 7.845091 656.438416
235 0 1 2.711250 8.173175 657.347900
236 0 1 2.721350 8.470506 658.286316
237 0 1 3.011870 8.467324 659.235779
238 0 1 3.349310 8.712025 660.116516
239 0 1 3.701380 9.223670 660.824829
240 0 1 3.911940 9.456760 661.762085
241 0 1 4.094270 9.751730 662.646973
242 0 1 4.437210 10.459510 663.164612
243 0 1 4.859480 11.210850 663.715393
244 0 1 5.318340 12.024930 664.067993
245 0 1 5.894330 12.747800 664.469177
246 0 1 6.619610 13.358800 664.732178
247 0 1 7.299035 13.939370 664.992432
248 0 1 8.075891 14.187590 665.456604
249 0 1 8.701901 14.166560 666.167725
250 0 1 9.294600 13.907310 666.864685
251 0 1 9.933120 13.688730 667.533997
252 0 1 10.612570 13.384291 668.046204
253 0 1 11.239990 12.855550 668.567322
254 0 1 11.587670 12.012939 668.817017
255 0 1 11.920480 11.155240 668.977905
256 0 1 12.452370 10.291750 669.046814
257 0 1 12.887400 9.415790 669.302673
258 0 1 13.074870 8.510752 669.611816
259 0 1 13.275230 7.910662 670.328979
260 0 1 13.332610 7.178616 670.984985
261 0 1 13.106260 6.605360 671.704773
262 0 1 12.702770 5.945850 672.352478
263 0 1 12.210690 5.193640 672.949890
264 0 1 11.974160 4.343590 673.356079
265 0 1 11.749430 3.358270 673.621887
266 0 1 11.398840 2.719980 674.329285
267 0 1 11.079530 2.325960 675.115723
268 0 1 10.965000 2.152320 676.007202
269 0 1 10.971210 2.107020 677.010132
270 0 1 10.925620 2.159410 677.992004
271 0 1 10.769609 2.037250 678.994324
272 0 1 10.597080 2.190970 679.909912
273 0 1 10.337000 2.257190 680.861328
274 0 1 10.120180 2.337490 681.819519
275 0 1 9.916300 2.747380 682.728271
276 0 1 9.612530 3.496060 683.216309
277 0 1 9.318390 4.415410 683.361206
278 0 1 9.140150 5.282100 683.641174
279 0 1 9.111470 6.219310 683.975830
280 0 1 9.241590 6.962590 684.517822
281 0 1 9.224640 7.724607 685.077881
282 0 1 9.154190 8.464515 685.728271
283 0 1 9.008290 9.364240 686.192810
284 0 1 8.916768 10.239270 686.726379
285 0 1 8.897154 11.066280 687.237000
286 0 1 8.479590 11.581170 687.941406
287 0 1 7.977414 11.716070 688.779175
288 0 1 7.561787 11.746650 689.677368
289 0 1 7.140733 11.952380 690.586304
290 0 1 6.542400 12.178870 691.330872
291 0 1 6.221130 12.350520 692.267395
292 0 1 5.951890 12.361540 693.178894
293 0 1 6.015000 12.463690 694.226379
294 0 1 5.956900 12.444710 695.195618
295 0 1 5.989120 12.441441 696.160278
296 0 1 6.061820 12.403320 697.072205
297 0 1 6.434230 12.484840 697.975220
298 0 1 7.076631 12.803790 698.686279
299 0 1 7.478471 12.835970 699.573425
300 0 1 7.757457 12.951520 700.492310
301 0 1 7.997826 13.200940 701.409790
302 0 1 8.169573 13.323380 702.365967
303 0 1 8.277218 12.826160 703.204590
304 0 1 8.446572 12.536779 704.071594
305 0 1 8.596253 12.504340 704.994812
306 0 1 8.432912 12.335740 705.954407
307 0 1 8.302499 12.120440 706.934387
308 0 1 8.083337 11.794490 707.854370
309 0 1 8.354980 11.368780 708.666199
310 0 1 8.469461 11.113520 709.589905
311 0 1 8.561789 10.945850 710.499634
312 0 1 8.699866 10.647600 711.413330
313 0 1 8.797052 10.156410 712.191528
314 0 1 8.785364 9.649520 713.068420
315 0 1 8.705218 9.249050 713.932312
316 0 1 8.523514 8.766300 714.721497
317 0 1 8.332598 8.438697 715.590820
318 0 1 8.059083 8.238766 716.475586
319 0 1 7.605284 7.875371 717.211792
320 0 1 7.482868 7.643967 718.096069
321 0 1 7.169139 7.555682 719.003418
322 0 1 6.757810 7.716420 719.860779
323 0 1 6.572180 8.017234 720.722900
324 0 1 6.117960 8.492766 721.379578
325 0 1 5.761880 8.938108 722.134827
326 0 1 5.672870 9.083010 723.078918
327 0 1 5.693990 9.258570 724.070374
328 0 1 5.785240 9.593630 724.995178
329 0 1 6.292410 10.049650 725.688293
330 0 1 6.723840 10.158421 726.534485
331 0 1 7.418773 10.476250 727.228821
332 0 1 7.997045 10.410030 727.966492
333 0 1 8.444043 10.579280 728.804016
334 0 1 9.290600 10.631720 729.312988
335 0 1 10.165250 10.387740 729.619019
336 0 1 11.132299 10.226240 729.713989
337 0 1 11.932540 9.905480 730.119019
338 0 1 12.694700 9.792760 730.677979
339 0 1 13.337420 9.425470 731.306030
340 0 1 13.756950 9.145500 732.130981
341 0 1 13.872720 9.027810 733.096008
342 0 1 14.121920 9.018830 734.036011
343 0 1 14.114100 8.954724 734.983032
344 0 1 14.103270 8.742319 736.007996
345 0 1 14.199860 8.565979 736.958984
346 0 1 14.215660 8.315465 737.898987
347 0 1 13.952480 8.303632 738.859009
348 0 1 13.857531 8.478217 739.759033
349 0 1 13.759350 8.766990 740.687012
350 0 1 13.362440 9.056950 741.499023
351 0 1 12.932440 9.155500 742.327026
352 0 1 12.826620 9.202971 743.254028
353 0 1 12.490681 9.349330 744.135010
354 0 1 12.070990 9.340540 745.005981
355 0 1 11.711320 9.636600 745.895996
356 0 1 11.638590 10.091200 746.757019
357 0 1 11.618390 10.671989 747.530029
358 0 1 11.435250 11.094940 748.380981
359 0 1 11.439780 11.397440 749.273010
360 0 1 11.718910 11.698720 750.145996
361 0 1 11.981860 11.802610 751.038025
362 0 1 12.308720 12.054710 751.877014
363 0 1 12.354170 12.088079 752.836975
364 0 1 12.441450 12.077900 753.742981
365 0 1 12.304090 11.918630 754.658020
366 0 1 12.104839 11.538980 755.479980
367 0 1 12.034670 10.996480 756.304993
368 0 1 11.884030 10.535680 757.109009
369 0 1 11.612040 10.080230 757.903015
370 0 1 11.169220 9.763340 758.695007
371 0 1 10.861120 9.584620 759.547974
372 0 1 10.640120 9.235350 760.401978
373 0 1 10.581710 9.010280 761.320984
374 0 1 10.573270 8.801297 762.244995
375 0 1 10.577300 8.793999 763.181030
376 0 1 10.675810 8.608951 764.106995
377 0 1 10.887569 8.601310 765.010986
378 0 1 11.218360 8.869744 765.837036
379 0 1 11.413720 9.243350 766.661011
380 0 1 11.532970 9.511410 767.554016
381 0 1 11.803970 9.625140 768.462036
382 0 1 12.039590 9.868560 769.374023
383 0 1 12.004820 10.354530 770.221985
384 0 1 12.110080 10.865990 771.018005
385 0 1 11.757750 11.286240 771.844971
386 0 1 11.388530 11.691640 772.700989
387 0 1 11.043600 12.132090 773.505005
388 0 1 10.590930 12.059731 774.328003
389 0 1 10.285049 11.997100 775.311035
390 0 1 9.879000 11.747540 776.101013
391 0 1 9.529350 11.601110 777.028992
392 0 1 9.440540 11.695770 778.026978
393 0 1 9.278390 12.016650 778.931030
394 0 1 9.142500 12.527960 779.734009
395 0 1 8.858931 12.724230 780.624023
396 0 1 8.614898 12.930571 781.507019
397 0 1 8.435734 13.120810 782.398010
398 0 1 8.188455 13.334960 783.344971
399 0 1 7.851107 13.407750 784.250977
400 0 1 7.387686 13.510460 785.082031
401 0 1 6.987640 13.287870 785.895020
402 0 1 6.855980 13.083810 786.906982
403 0 1 6.912410 12.816320 787.802002
404 0 1 7.322599 12.601250 788.658020
405 0 1 7.762812 12.473110 789.539978
406 0 1 7.993167 12.558849 790.487000
407 0 1 8.107782 12.504770 791.411011
408 0 1 8.114809 12.609159 792.375977
409 0 1 8.011316 12.739460 793.335022
410 0 1 8.101685 12.717590 794.311035
411 0 1 8.425736 12.765989 795.221985
412 0 1 8.363490 13.059420 796.160034
413 0 1 8.166026 13.341660 797.031006
414 0 1 8.108289 13.535320 797.994995
415 0 1 7.815875 13.586250 798.914978
416 0 1 7.668282 13.617760 799.911011
417 0 1 7.448991 13.769600 800.869019
418 0 1 7.639742 13.917971 801.752014
419 0 1 7.757647 13.766720 802.705994
420 0 1 7.867667 13.427710 803.622009
421 0 1 7.919111 13.548930 804.617981
422 0 1 8.098213 13.598370 805.559998
423 0 1 8.165536 13.528049 806.549011
424 0 1 8.463319 13.547110 807.445984
425 0 1 8.664343 13.175880 808.294006
426 0 1 8.777860 12.872681 809.195007
427 0 1 8.910095 12.536800 810.108032
428 0 1 8.762040 11.877020 810.839966
429 0 1 8.464750 11.105240 811.302002
430 0 1 8.387681 10.376630 811.973022
431 0 1 8.318776 9.756390 812.695007
432 0 1 8.096085 9.201240 813.463989
433 0 1 7.907240 9.002320 814.403015
434 0 1 7.777830 8.868577 815.410034
435 0 1 7.814851 8.761143 816.377014
436 0 1 7.880084 8.838647 817.332031
437 0 1 7.837221 8.846528 818.260010
438 0 1 7.998340 9.013740 819.289978
439 0 1 8.379382 9.388910 820.171021
440 0 1 8.881945 9.968760 820.718994
441 0 1 9.343530 10.555210 821.317017
442 0 1 9.747330 11.142130 821.976990
443 0 1 10.398680 11.510180 822.619995
444 0 1 10.980289 11.771530 823.296021
445 0 1 11.659480 11.694950 823.922974
446 0 1 12.160231 11.628410 824.700989
447 0 1 12.494930 11.579380 825.598022
448 0 1 12.688120 11.580950 826.557007
449 0 1 12.529930 11.436990 827.487000
450 0 1 12.651529 11.377501 828.457031
451 0 1 12.356190 11.139441 829.330017
452 0 1 12.293489 10.825200 830.255005
453 0 1 12.150780 10.548460 831.156982
454 0 1 11.957951 10.262540 832.110962
455 0 1 11.924030 10.145020 833.117004
456 0 1 12.340090 10.196920 833.999023
457 0 1 12.736820 9.997410 834.827026
458 0 1 13.085239 9.690860 835.688965
459 0 1 13.511990 9.306200 836.442993
460 0 1 13.860340 8.793445 837.210999
461 0 1 14.057489 8.153602 837.838989
462 0 1 14.230579 7.368872 838.417969
463 0 1 14.244390 6.418000 838.624023
464 0 1 14.188910 5.395650 838.635010
465 0 1 13.798510 4.556850 838.330994
466 0 1 13.213750 3.847500 838.192017
467 0 1 12.447660 3.368190 837.835022
468 0 1 11.676559 2.931620 837.700012
469 0 1 10.769590 2.527690 837.516968
470 0 1 9.753770 2.389950 837.229980
471 0 1 9.001860 2.278070 836.629028
472 0 1 8.634768 2.507470 835.714966
473 0 1 8.384260 2.765310 834.843018
474 0 1 8.139731 2.969710 833.945984
475 0 1 7.803839 3.114120 833.073975
476 0 1 7.812100 3.017250 832.070007
477 0 1 7.786429 3.045680 831.151001
478 0 1 7.744916 2.821740 830.265015
479 0 1 7.972559 2.905000 829.296021
480 0 1 8.513764 3.017990 828.419983
481 0 1 8.991674 3.484220 827.669983
482 0 1 9.418040 4.089060 827.075012
483 0 1 9.775630 4.881490 826.537964
484 0 1 10.295400 5.548730 826.106995
485 0 1 10.606710 6.311970 825.577026
486 0 1 10.503890 6.916770 824.778015
487 0 1 10.478661 7.396891 824.002014
488 0 1 10.172930 7.647654 823.089966
489 0 1 9.955270 7.819237 822.138000
490 0 1 9.609740 7.953089 821.259033
491 0 1 9.420080 8.147012 820.364990
492 0 1 9.383670 8.497480 819.510010
493 0 1 9.269520 8.674796 818.632996
494 0 1 9.326960 8.698938 817.661011
495 0 1 9.284090 8.661324 816.682007
496 0 1 9.449080 8.609116 815.718994
497 0 1 9.900990 8.709128 814.884033
498 0 1 10.337820 8.766248 813.994019
499 0 1 10.583810 8.677402 813.070007
500 0 1 10.712749 8.507865 812.125977
501 0 1 10.961309 8.200435 811.261963
502 0 1 11.116489 7.946871 810.384033
503 0 1 11.331950 7.647345 809.440002
504 0 1 11.541810 7.409833 808.570007
505 0 1 11.902781 7.055446 807.745972
506 0 1 12.059710 6.691590 806.844971
507 0 1 12.469840 6.349930 806.009033
508 0 1 12.455500 6.168000 805.104004
509 0 1 12.533890 6.082630 804.135986
510 0 1 12.498370 6.076280 803.195984
511 0 1 12.509460 5.799320 802.197998
512 0 1 12.433670 5.746880 801.260986
513 0 1 12.464020 5.749120 800.255981
514 0 1 12.287170 5.516200 799.370972
515 0 1 12.200890 5.432750 798.424011
516 0 1 12.349970 5.320600 797.400024
517 0 1 12.470020 5.513960 796.468018
518 0 1 12.373620 5.894840 795.547974
519 0 1 12.370581 6.133590 794.619019
520 0 1 12.483430 5.902700 793.695007
521 0 1 12.531460 5.655610 792.796021
522 0 1 12.140050 5.526290 791.875977
523 0 1 11.834700 5.307670 790.966003
524 0 1 11.789840 5.392550 789.870972
525 0 1 11.748510 5.552150 788.929016
526 0 1 11.220079 5.786520 788.181030
527 0 1 11.057850 6.303870 787.432983
528 0 1 10.949720 6.647010 786.437988
529 0 1 10.965460 6.757890 785.478027
530 0 1 11.041770 6.791950 784.500000
531 0 1 11.174860 7.270082 783.651001
532 0 1 11.557430 7.336446 782.726013
533 0 1 11.944550 7.455529 781.851013
534 0 1 12.094830 7.321673 780.848022
535 0 1 12.315630 7.725479 779.988037
536 0 1 12.555110 8.029842 779.054993
537 0 1 12.753370 8.242372 778.099976
538 0 1 12.872410 8.095979 777.190002
539 0 1 13.175020 7.686122 776.369019
540 0 1 13.506340 7.434765 775.458008
541 0 1 13.815710 7.275081 774.514038
542 0 1 14.261490 7.293066 773.731018
543 0 1 14.623850 7.425241 772.889038
544 0 1 14.765280 7.612454 771.968018
545 0 1 14.821569 7.718053 771.026001
546 0 1 14.697980 7.557091 770.056030
547 0 1 14.693951 7.526130 769.082031
548 0 1 14.497210 7.778591 768.169006
549 0 1 14.423719 8.203578 767.299011
550 0 1 14.128440 8.372072 766.375977
551 0 1 13.963779 8.265906 765.391968
552 0 1 13.871960 8.030746 764.453979
553 0 1 13.693060 8.083437 763.500000
554 0 1 13.648970 7.759484 762.643982
555 0 1 13.573200 7.520956 761.667969
556 0 1 13.175810 7.487933 760.804016
557 0 1 12.648540 7.264253 760.062988
558 0 1 12.142059 7.290842 759.257996
559 0 1 11.623590 7.339234 758.438965
560 0 1 11.114170 7.258829 757.660034
561 0 1 10.742690 7.348429 756.747009
562 0 1 10.630030 7.456665 755.789978
563 0 1 10.535490 7.488623 754.817993
564 0 1 10.306010 7.508708 753.835022
565 0 1 9.987590 7.481707 752.963989
566 0 1 9.412889 7.586889 752.229004
567 0 1 9.059150 7.748160 751.365967
568 0 1 8.954308 7.820599 750.474976
569 0 1 9.113510 7.698404 749.552002
570 0 1 9.255830 7.870364 748.617004
571 0 1 9.183050 8.064193 747.714966
572 0 1 9.214620 8.347406 746.766968
573 0 1 9.389800 8.161349 745.799988
574 0 1 9.427580 8.149139 744.839966
575 0 1 9.141800 8.392739 743.950012
576 0 1 8.765860 8.604919 743.044006
577 0 1 8.350877 8.732019 742.179993
578 0 1 7.980322 8.745410 741.318970
579 0 1 7.643642 8.569310 740.431030
580 0 1 7.240139 8.027962 739.667969
581 0 1 6.890770 7.577852 738.858032
582 0 1 6.893730 7.242893 737.937012
583 0 1 6.807290 7.352344 737.005005
584 0 1 6.818630 7.397702 736.070007
585 0 1 6.734870 7.521097 735.117004
586 0 1 6.445050 7.305213 734.210022
587 0 1 6.000080 7.224924 733.320984
588 0 1 5.855320 7.185978 732.332031
589 0 1 5.705510 7.200910 731.362000
590 0 1 5.762520 7.247721 730.359009
591 0 1 5.944000 6.986050 729.437012
592 0 1 5.829070 6.446530 728.689026
593 0 1 5.516720 6.007360 727.899902
594 0 1 5.378260 5.439580 727.081421
595 0 1 5.591560 5.028480 726.229980
596 0 1 6.054080 4.703920 725.453003
597 0 1 6.390860 4.357540 724.619019
598 0 1 6.917400 4.113730 723.825195
599 0 1 7.118440 3.985050 722.859314
600 0 1 7.147662 3.836460 721.917175
601 0 1 7.223468 3.731690 720.824524
602 0 1 7.218309 3.856460 719.831604
603 0 1 7.008881 4.151170 718.931274
604 0 1 6.958360 4.629190 718.126709
605 0 1 7.043121 5.298510 717.447693
606 0 1 7.106898 5.784840 716.593384
607 0 1 7.367730 5.823830 715.618530
608 0 1 7.577191 5.708860 714.688721
609 0 1 7.941453 5.815600 713.847717
610 0 1 7.873444 5.516190 712.885681
611 0 1 7.933891 5.094410 712.022827
612 0 1 7.921673 4.908940 711.047974
613 0 1 7.899740 4.594110 710.064575
614 0 1 7.814023 4.237460 709.144531
615 0 1 8.034669 3.932690 708.302979
616 0 1 8.204755 3.624230 707.392334
617 0 1 8.406260 3.358380 706.512207
618 0 1 8.446384 3.260890 705.576904
619 0 1 8.192355 3.387010 704.681396
620 0 1 8.145780 3.541070 703.697815
621 0 1 8.253188 3.667060 702.810425
622 0 1 8.163448 3.947490 701.925720
623 0 1 8.251424 4.067420 701.007568
624 0 1 8.229238 4.283740 700.064514
625 0 1 7.960617 4.562100 699.188416
626 0 1 7.942719 4.845830 698.299927
627 0 1 8.185062 5.021650 697.393433
628 0 1 8.574052 4.991490 696.494812
629 0 1 9.176010 5.201380 695.739502
630 0 1 9.499630 5.167650 694.795410
631 0 1 9.877290 5.084510 693.966125
632 0 1 10.216110 5.186280 693.097290
633 0 1 10.390420 5.071160 692.141907
634 0 1 10.561450 5.180580 691.175415
635 0 1 10.820210 5.201110 690.200500
636 0 1 10.947260 5.495290 689.309387
637 0 1 10.912149 6.174370 688.672607
638 0 1 10.675240 6.544430 687.809082
639 0 1 10.523951 6.760820 686.929077
640 0 1 10.525570 7.221621 685.997925
641 0 1 10.496080 7.771688 685.154602
642 0 1 10.423700 7.857799 684.210510
643 0 1 10.194080 8.099584 683.234131
644 0 1 9.954780 8.346075 682.333984
645 0 1 9.620010 8.383442 681.476807
646 0 1 9.286430 8.358615 680.483521
647 0 1 9.030490 8.336469 679.558777
648 0 1 8.871084 8.152695 678.619812
649 0 1 8.743252 8.071654 677.656677
650 0 1 8.829602 8.212899 676.682312
651 0 1 8.795388 8.310516 675.721191
652 0 1 8.975950 8.256587 674.813477
653 0 1 9.161820 7.968779 673.909302
654 0 1 9.105430 7.471915 673.078186
655 0 1 9.080420 7.201413 672.189392
656 0 1 9.293000 6.835240 671.280518
657 0 1 9.570940 6.624390 670.361694
658 0 1 10.045540 6.537430 669.529419
659 0 1 10.422850 6.588950 668.621826
660 0 1 10.871950 6.655230 667.777405
661 0 1 11.152460 6.482040 666.766479
662 0 1 11.423460 6.289170 665.919373
663 0 1 11.829560 6.223900 665.068787
664 0 1 12.267860 6.063210 664.221802
665 0 1 12.547840 5.875070 663.318787
666 0 1 13.149010 5.928560 662.609192
667 0 1 13.629080 5.867190 661.810120
668 0 1 13.996670 5.882990 660.903809
669 0 1 14.166620 6.000060 660.002991
670 0 1 14.109150 6.254780 659.066223
671 0 1 13.980520 6.320030 658.086609
672 0 1 13.661039 6.534450 657.175293
673 0 1 13.342350 6.339540 656.296326
674 0 1 12.905880 5.965750 655.434204
675 0 1 12.501910 5.735430 654.632507
676 0 1 11.961160 5.577840 653.816589
677 0 1 11.663890 5.237370 653.004272
678 0 1 11.333750 5.009330 652.104126
679 0 1 10.975710 4.934600 651.157104
680 0 1 10.720490 4.837960 650.251892
681 0 1 10.563840 4.686520 649.353210
682 0 1 10.657820 4.484250 648.387085
683 0 1 10.260120 4.528310 647.473389
684 0 1 10.118590 4.677480 646.482788
685 0 1 10.114491 5.055040 645.564087
686 0 1 9.967330 5.644080 644.837708
687 0 1 9.841920 5.997330 643.872375
688 0 1 9.699760 6.187130 642.961426
689 0 1 9.354310 6.357200 641.962280
690 0 1 9.197350 6.633330 641.013977
691 0 1 9.130490 6.707320 640.067383
692 0 1 8.840811 6.610300 639.110718
693 0 1 8.591192 6.583680 638.195740
694 0 1 8.498999 6.425490 637.233093
695 0 1 8.652380 6.255020 636.267151
696 0 1 8.959651 6.080710 635.345886
697 0 1 9.192890 5.933360 634.404846
698 0 1 9.540359 5.543670 633.550537
699 0 1 9.486240 5.471070 632.570435
700 0 1 9.469840 5.502290 631.593140
701 0 1 9.277700 5.348070 630.646484
702 0 1 9.115820 5.440000 629.733887
703 0 1 8.840589 5.728630 628.878357
704 0 1 8.475310 5.845850 627.973816
705 0 1 8.499370 6.042630 627.030823
706 0 1 8.580338 6.413650 626.121460
707 0 1 8.714445 6.613140 625.221497
708 0 1 9.128560 6.791550 624.387268
709 0 1 9.203680 7.127485 623.489624
710 0 1 9.217580 7.554251 622.643005
711 0 1 9.573410 7.827361 621.710449
712 0 1 10.056280 8.303207 621.011292
713 0 1 10.658370 8.664371 620.358704
714 0 1 10.959720 8.817625 619.427490
715 0 1 11.160379 8.978825 618.567078
716 0 1 11.170860 8.866484 617.629272
717 0 1 11.142580 8.975776 616.669617
718 0 1 10.863320 8.456899 615.898315
719 0 1 10.576839 8.136283 615.073914
720 0 1 10.386190 7.697109 614.188721
721 0 1 10.023270 7.270038 613.409302
722 0 1 9.819850 6.888970 612.569580
723 0 1 9.710260 6.199170 611.962891
724 0 1 9.662330 5.467090 611.414185
725 0 1 9.435920 5.070110 610.630005
726 0 1 9.443670 4.650730 609.716797
727 0 1 9.548660 4.395200 608.794983
728 0 1 9.597730 4.240240 607.839905
729 0 1 9.809940 4.000650 607.011475
730 0 1 9.837570 3.833140 606.082214
731 0 1 9.646460 3.887220 605.168823
732 0 1 9.222030 3.982790 604.207031
733 0 1 8.969661 4.177740 603.313599
734 0 1 8.337434 4.293370 602.581909
735 0 1 7.728154 4.170110 601.815308
736 0 1 7.148972 4.055110 600.996216
737 0 1 6.685970 4.201730 600.131897
738 0 1 6.168440 4.671580 599.468079
739 0 1 5.819450 5.027640 598.558716
740 0 1 5.797200 5.452880 597.737427
741 0 1 5.860130 6.039570 597.016479
742 0 1 5.862560 6.522220 596.168884
743 0 1 5.717140 6.567120 595.237000
744 0 1 5.531300 6.333180 594.297180
745 0 1 5.508920 6.183320 593.347290
746 0 1 5.682090 6.054880 592.396790
747 0 1 5.966530 5.536340 591.618225
748 0 1 6.348080 5.440630 590.804016
749 0 1 6.654070 5.433550 589.874573
750 0 1 7.016461 5.419870 588.977722
751 0 1 7.619885 5.525540 588.181580
752 0 1 8.020947 5.318340 587.293579
753 0 1 8.516013 5.235540 586.492798
754 0 1 8.826289 5.171430 585.508301
755 0 1 8.993499 5.046940 584.643311
756 0 1 9.126431 5.198520 583.712219
757 0 1 9.731130 5.349520 583.013000
758 0 1 10.491230 5.520000 582.388123
759 0 1 11.099950 5.778650 581.634277
760 0 1 11.524910 5.851650 580.763611
761 0 1 11.847010 5.833370 579.786804
762 0 1 12.312981 5.869060 578.929077
763 0 1 12.580270 5.652120 578.061707
764 0 1 12.917749 5.388060 577.233398
765 0 1 13.186590 5.104700 576.333313
766 0 1 13.323940 4.702970 575.455078
767 0 1 12.889299 4.460230 574.559509
768 0 1 12.349930 4.306870 573.799683
769 0 1 11.691600 4.523610 573.096802
770 0 1 10.922760 4.336010 572.510193
771 0 1 10.205610 3.997470 571.982422
772 0 1 9.415020 3.787300 571.492188
773 0 1 8.767300 3.545870 570.877014
774 0 1 8.264967 3.411020 570.060669
775 0 1 7.776616 3.603970 569.312195
776 0 1 7.138335 3.762330 568.482117
777 0 1 6.715700 3.787210 567.603516
778 0 1 6.782850 3.826030 566.607178
779 0 1 6.958140 3.968380 565.649475
780 0 1 7.130378 4.122070 564.689392
781 0 1 7.450021 4.156200 563.758789
782 0 1 7.665634 4.353920 562.813904
783 0 1 7.988066 4.584070 561.915527
784 0 1 8.368071 4.671050 561.081604
785 0 1 8.863576 4.894910 560.301208
786 0 1 9.410290 5.095430 559.538818
787 0 1 9.784940 5.271080 558.703003
788 0 1 10.118160 5.425360 557.794312
789 0 1 10.654610 5.614800 557.017090
790 0 1 11.092860 5.542410 556.166321