LAMMPS data file via MDAnalysis

        1000  atoms
        1000  bonds
        1000  angles
           0  dihedrals
           0  impropers

           1  atom types
           1  bond types
           1  angle types
           0  dihedral types
           0  improper types

0.000000 16.000000 xlo xhi
0.000000 16.000000 ylo yhi
0.000000 1257.000000 zlo zhi


Masses

1 1.000000

Atoms

1 0 1 7.766550 4.456250 446.020996
2 0 1 7.590529 4.744560 447.002014
3 0 1 7.945245 5.265980 447.738007
4 0 1 8.394761 5.681430 448.432983
5 0 1 8.671332 6.095860 449.208008
6 0 1 9.043520 6.010450 450.106018
7 0 1 9.309170 5.738020 450.976013
8 0 1 9.698110 5.418030 451.799011
9 0 1 10.123190 4.918820 452.513000
10 0 1 10.169640 4.276910 453.181000
11 0 1 10.040990 3.823530 454.015991
12 0 1 9.720970 3.578390 454.963013
13 0 1 9.079110 3.490680 455.641998
14 0 1 8.563007 3.437620 456.466980
15 0 1 8.175316 3.392780 457.356995
16 0 1 7.963676 3.222500 458.356018
17 0 1 7.691175 2.890400 459.177002
18 0 1 7.686370 2.644080 460.098022
19 0 1 7.929917 2.504260 461.054993
20 0 1 8.458297 2.440490 461.854980
21 0 1 8.866123 2.519520 462.726013
22 0 1 9.252280 2.483480 463.567993
23 0 1 9.722720 2.809300 464.372986
24 0 1 10.143340 2.945700 465.190979
25 0 1 10.201790 2.921690 466.140991
26 0 1 10.233710 2.988930 467.177002
27 0 1 10.077579 3.187040 468.147003
28 0 1 9.902750 3.168110 469.167999
29 0 1 9.791600 3.315000 470.147003
30 0 1 9.553040 3.258690 471.102997
31 0 1 9.456450 3.108520 472.022003
32 0 1 9.090950 2.923070 472.950012
33 0 1 8.847841 2.683630 473.867004
34 0 1 8.792457 2.372010 474.757996
35 0 1 8.760309 2.367450 475.748993
36 0 1 8.582923 2.389060 476.710022
37 0 1 8.505651 2.347640 477.666016
38 0 1 8.700198 2.407340 478.641998
39 0 1 8.794488 2.796210 479.533020
40 0 1 8.924149 3.385320 480.240997
41 0 1 9.054800 4.020320 480.950012
42 0 1 9.245490 4.670310 481.653015
43 0 1 9.332850 5.302280 482.373993
44 0 1 9.219481 5.692860 483.225006
45 0 1 9.340420 5.904900 484.161987
46 0 1 9.413680 6.345440 485.023987
47 0 1 9.341140 6.460480 485.963989
48 0 1 9.101040 7.021565 486.742004
49 0 1 9.046740 7.209789 487.632019
50 0 1 9.180340 7.259345 488.716003
51 0 1 9.289980 7.110679 489.669983
52 0 1 9.421540 7.057141 490.643005
53 0 1 9.846510 7.146794 491.513000
54 0 1 10.136230 7.361484 492.414978
55 0 1 10.663880 7.255291 493.190979
56 0 1 10.947430 6.840130 493.992981
57 0 1 11.392340 6.928410 494.856018
58 0 1 12.038080 7.159172 495.523010
59 0 1 12.722401 7.428901 496.164001
60 0 1 13.214510 7.238194 497.054993
61 0 1 13.611150 7.315368 497.917999
62 0 1 13.876440 7.340092 498.838013
63 0 1 14.286070 7.062192 499.700012
64 0 1 14.359119 7.330712 500.640015
65 0 1 14.539310 7.690072 501.556000
66 0 1 14.113440 8.084327 502.489990
67 0 1 13.506081 8.536980 503.075989
68 0 1 12.933070 8.892903 503.759003
69 0 1 12.588100 9.391900 504.558990
70 0 1 12.156390 9.938600 505.276001
71 0 1 11.966850 10.444839 506.088013
72 0 1 11.702470 10.976030 506.816010
73 0 1 11.287160 11.465020 507.544983
74 0 1 10.912760 11.818330 508.325989
75 0 1 10.412380 12.195950 509.143005
76 0 1 9.966830 12.647141 509.812988
77 0 1 9.254190 12.793660 510.483002
78 0 1 8.808348 13.107670 511.239990
79 0 1 8.435712 13.369120 512.141968
80 0 1 8.190297 13.285610 513.057007
81 0 1 7.584753 13.265810 513.794983
82 0 1 7.213491 13.382180 514.663025
83 0 1 6.651190 13.379240 515.395020
84 0 1 5.947240 13.403430 516.129028
85 0 1 5.206500 13.461559 516.862000
86 0 1 4.587930 13.228720 517.646973
87 0 1 4.218820 12.728920 518.434998
88 0 1 4.180920 12.045130 519.140015
89 0 1 4.019270 11.489531 519.893005
90 0 1 4.011300 11.038860 520.786987
91 0 1 3.935870 10.562020 521.655029
92 0 1 3.814840 9.952250 522.328003
93 0 1 3.566340 9.178660 522.888000
94 0 1 3.471640 8.712538 523.690002
95 0 1 3.623470 8.175007 524.434998
96 0 1 3.565370 7.790776 525.344971
97 0 1 3.444880 7.575148 526.255981
98 0 1 3.409060 7.352881 527.166016
99 0 1 3.426310 7.308205 528.140991
100 0 1 3.594100 7.293451 529.086914
101 0 1 4.063780 7.230728 529.951721
102 0 1 4.575680 7.224900 530.786194
103 0 1 4.915880 7.300351 531.669800
104 0 1 5.145530 7.248164 532.621094
105 0 1 5.429730 6.817390 533.473267
106 0 1 5.733160 6.317400 534.289978
107 0 1 6.252490 5.800820 534.912598
108 0 1 6.624500 5.366590 535.649414
109 0 1 6.934800 4.709000 536.303101
110 0 1 6.730230 4.357980 537.234985
111 0 1 7.009777 4.160390 538.092590
112 0 1 7.327226 3.826430 538.963013
113 0 1 7.431004 3.473380 539.876892
114 0 1 7.345403 3.357370 540.860107
115 0 1 7.338061 3.498260 541.764709
116 0 1 7.421829 3.682950 542.693298
117 0 1 7.588755 3.812060 543.667725
118 0 1 7.607589 3.633720 544.605286
119 0 1 7.418272 3.482110 545.609375
120 0 1 7.272253 3.266210 546.544189
121 0 1 7.295017 3.232080 547.513123
122 0 1 7.258264 3.055450 548.435974
123 0 1 7.231877 3.088750 549.388123
124 0 1 6.911120 2.942490 550.339783
125 0 1 6.731170 3.005760 551.282227
126 0 1 6.413570 2.904080 552.261475
127 0 1 6.576640 2.906200 553.223267
128 0 1 6.538030 2.994000 554.158813
129 0 1 6.609030 3.005240 555.113525
130 0 1 6.676110 3.002220 556.121582
131 0 1 6.421610 2.923620 557.007202
132 0 1 6.266940 2.854070 557.939392
133 0 1 6.574120 2.908040 558.846375
134 0 1 6.927490 3.214630 559.710205
135 0 1 7.045818 3.497810 560.617798
136 0 1 7.166192 3.701750 561.608398
137 0 1 7.373102 3.768060 562.603577
138 0 1 7.364375 3.934900 563.588501
139 0 1 7.237250 3.931440 564.547180
140 0 1 6.765120 4.329430 565.289307
141 0 1 6.445050 4.546280 566.206787
142 0 1 6.340050 5.262440 566.857300
143 0 1 6.342610 5.983120 567.469971
144 0 1 6.376290 6.646750 568.192627
145 0 1 6.180060 7.017291 569.090820
146 0 1 6.079720 7.373319 569.996277
147 0 1 6.029050 7.575256 570.939514
148 0 1 6.063770 7.316475 571.876831
149 0 1 6.257780 7.131355 572.826721
150 0 1 6.222560 7.150964 573.756592
151 0 1 6.671060 6.911530 574.582520
152 0 1 7.149316 6.615810 575.391724
153 0 1 7.565472 6.464660 576.257568
154 0 1 8.029007 6.493960 577.127991
155 0 1 8.455722 6.469210 577.997070
156 0 1 8.786206 6.368820 578.882385
157 0 1 9.041059 6.070160 579.772705
158 0 1 9.244280 5.973030 580.718506
159 0 1 9.630370 6.105040 581.547607
160 0 1 9.954110 5.997540 582.556030
161 0 1 9.991540 6.027550 583.562012
162 0 1 10.207130 6.131570 584.499878
163 0 1 10.340350 6.138240 585.499023
164 0 1 10.100170 6.466540 586.437317
165 0 1 10.011250 7.110226 587.266113
166 0 1 9.738990 7.430382 588.148926
167 0 1 9.387270 7.462218 589.075317
168 0 1 9.057050 7.682147 589.983887
169 0 1 8.581469 7.553082 590.829285
170 0 1 8.259906 7.417578 591.733032
171 0 1 8.151740 7.100148 592.625183
172 0 1 8.136205 6.761020 593.490112
173 0 1 7.986037 6.689010 594.419128
174 0 1 7.944112 6.473700 595.399414
175 0 1 8.092610 6.370130 596.331909
176 0 1 7.967721 6.336860 597.319580
177 0 1 7.764378 6.198220 598.182312
178 0 1 7.691178 6.368840 599.145874
179 0 1 7.724255 6.478990 600.110413
180 0 1 7.749958 6.570800 601.034973
181 0 1 8.050915 6.576730 601.973389
182 0 1 8.063798 6.922010 602.866089
183 0 1 7.791838 7.230451 603.774902
184 0 1 7.461635 7.584014 604.608093
185 0 1 7.190885 7.890886 605.441589
186 0 1 6.640930 8.147446 606.193481
187 0 1 6.058290 8.064406 606.859314
188 0 1 5.211670 7.783039 607.340210
189 0 1 4.648490 7.402563 608.034424
190 0 1 4.157900 6.993260 608.830078
191 0 1 3.446510 6.700140 609.459717
192 0 1 2.882850 6.353980 610.186890
193 0 1 2.587000 6.385230 611.140381
194 0 1 2.347880 6.543660 612.049683
195 0 1 2.181960 6.766740 612.965271
196 0 1 2.230770 6.945020 613.973389
197 0 1 2.295970 6.656750 614.901428
198 0 1 2.476660 6.559140 615.843384
199 0 1 2.508930 6.217670 616.747803
200 0 1 2.448930 6.333810 617.673828
201 0 1 2.482730 6.705850 618.603455
202 0 1 2.652600 7.249129 619.431030
203 0 1 2.677880 7.348241 620.356934
204 0 1 2.486750 7.655171 621.240906
205 0 1 2.197970 8.080308 622.048401
206 0 1 2.081290 8.496990 622.929871
207 0 1 2.196140 9.033350 623.652832
208 0 1 2.052090 9.661150 624.376038
209 0 1 2.106790 10.263411 625.151245
210 0 1 2.160500 10.878330 625.847595
211 0 1 2.316510 11.319990 626.735413
212 0 1 2.691780 11.703250 627.570984
213 0 1 3.033630 11.921370 628.430237
214 0 1 3.441290 12.253349 629.215881
215 0 1 3.700260 12.562099 630.058350
216 0 1 4.026640 12.891370 630.895996
217 0 1 4.047140 13.336161 631.733582
218 0 1 4.002080 13.458300 632.790771
219 0 1 3.889750 13.496790 633.816589
220 0 1 4.033530 13.674240 634.699890
221 0 1 4.361060 13.889220 635.638855
222 0 1 4.810620 14.015010 636.435974
223 0 1 5.326930 14.148640 637.226257
224 0 1 5.721130 14.104270 638.124756
225 0 1 6.021970 14.180560 639.036377
226 0 1 6.123330 14.058451 639.938904
227 0 1 6.303040 13.890261 640.824280
228 0 1 6.513280 13.847179 641.731384
229 0 1 6.861220 13.638229 642.639221
230 0 1 7.094894 13.249680 643.510803
231 0 1 7.303326 12.627760 644.160217
232 0 1 7.437529 11.811160 644.656677
233 0 1 7.387944 11.036960 645.212280
234 0 1 7.361452 10.109170 645.466125
235 0 1 7.453851 9.225280 645.866089
236 0 1 7.464824 8.412031 646.396729
237 0 1 7.436491 7.619998 646.999329
238 0 1 7.049604 6.919330 647.578918
239 0 1 6.905660 6.159830 648.197876
240 0 1 6.752520 5.414700 648.805420
241 0 1 6.658260 4.775430 649.462708
242 0 1 6.573690 4.049630 650.076294
243 0 1 6.182820 3.372840 650.672729
244 0 1 5.901620 2.850720 651.495483
245 0 1 5.830660 2.516740 652.374817
246 0 1 5.621630 2.401190 653.281982
247 0 1 5.339780 2.465250 654.128784
248 0 1 5.384420 2.386730 655.087891
249 0 1 5.149770 2.453570 655.981812
250 0 1 4.473410 2.581540 656.650574
251 0 1 3.869560 2.601600 657.461304
252 0 1 3.463930 3.098440 658.272217
253 0 1 3.482370 3.519560 659.197388
254 0 1 3.774090 3.835580 660.105591
255 0 1 4.051230 4.251960 660.948730
256 0 1 4.377350 4.639580 661.753479
257 0 1 4.637530 5.053520 662.574524
258 0 1 4.840420 5.437610 663.453674
259 0 1 4.898890 5.884340 664.337524
260 0 1 5.152250 6.305420 665.149597
261 0 1 5.091420 6.563630 666.015381
262 0 1 5.141430 6.857610 666.920715
263 0 1 5.060420 7.292675 667.855469
264 0 1 5.181400 7.571932 668.802795
265 0 1 5.478870 7.731075 669.665710
266 0 1 5.406800 7.537366 670.637207
267 0 1 5.305670 7.491136 671.572083
268 0 1 5.444790 7.448459 672.564087
269 0 1 5.699280 7.318725 673.487305
270 0 1 6.159600 6.700760 674.167603
271 0 1 6.787340 6.228060 674.715881
272 0 1 7.072216 5.556180 675.249207
273 0 1 6.903970 4.846060 675.902100
274 0 1 6.663130 4.235850 676.539307
275 0 1 6.279720 3.781380 677.290222
276 0 1 6.028550 3.532080 678.224915
277 0 1 6.073670 3.283580 679.121216
278 0 1 6.263270 2.903830 679.955017
279 0 1 6.561490 2.817360 680.858826
280 0 1 6.539170 3.061210 681.775574
281 0 1 6.750960 3.292950 682.714417
282 0 1 6.948260 3.436830 683.603516
283 0 1 6.966620 3.557900 684.533325
284 0 1 6.939650 3.941780 685.407776
285 0 1 6.940190 4.137240 686.370178
286 0 1 6.743640 4.255630 687.289917
287 0 1 6.356300 4.305810 688.155518
288 0 1 6.027080 4.601800 689.056580
289 0 1 5.551570 4.794530 689.849976
290 0 1 5.263750 4.699550 690.746582
291 0 1 5.391420 4.893680 691.715210
292 0 1 5.745240 5.305190 692.541077
293 0 1 5.724820 5.645030 693.472168
294 0 1 5.467550 5.770590 694.364685
295 0 1 5.269010 5.824570 695.276794
296 0 1 4.992770 6.386800 695.974182
297 0 1 4.662000 6.762380 696.802368
298 0 1 4.297030 7.123268 697.655518
299 0 1 4.007550 7.452907 698.526489
300 0 1 3.728970 7.815760 699.310181
301 0 1 3.550180 8.231751 700.177490
302 0 1 3.290420 8.271999 701.187500
303 0 1 3.273310 8.277601 702.144775
304 0 1 3.287020 8.241029 703.118591
305 0 1 3.419790 8.201317 704.081177
306 0 1 3.649510 7.946821 705.020996
307 0 1 3.820450 7.455261 705.869629
308 0 1 4.091800 7.119934 706.743713
309 0 1 4.323090 6.748990 707.606995
310 0 1 4.513200 6.226410 708.395630
311 0 1 4.681310 5.715480 709.231689
312 0 1 4.735870 5.260850 710.047180
313 0 1 4.934580 5.112270 711.001587
314 0 1 4.992800 5.275720 711.958679
315 0 1 5.213290 5.258000 712.892883
316 0 1 5.094890 5.475420 713.773010
317 0 1 5.147200 5.669660 714.649902
318 0 1 5.288200 5.641730 715.614624
319 0 1 5.504370 5.588180 716.517395
320 0 1 5.680010 5.642170 717.484375
321 0 1 5.732890 5.695680 718.443970
322 0 1 5.672870 5.537860 719.394226
323 0 1 5.548480 5.713530 720.356018
324 0 1 5.456930 5.915270 721.287109
325 0 1 5.449990 6.138880 722.178833
326 0 1 5.350020 6.222470 723.132202
327 0 1 5.173840 6.261910 724.082520
328 0 1 5.193580 6.320240 725.061523
329 0 1 5.094510 6.471640 725.990417
330 0 1 5.045390 6.543140 726.964783
331 0 1 5.166180 6.313180 727.917419
332 0 1 5.132250 5.803960 728.770020
333 0 1 4.985180 5.313710 729.648987
334 0 1 4.851690 5.049560 730.619019
335 0 1 4.715700 4.538570 731.439026
336 0 1 4.542030 3.986860 732.247009
337 0 1 4.329550 3.685540 733.145996
338 0 1 3.986130 3.652980 734.119995
339 0 1 3.794160 3.796160 735.088989
340 0 1 3.988990 4.004250 735.992004
341 0 1 4.177620 4.162300 736.922974
342 0 1 4.210000 4.025390 737.809998
343 0 1 4.512410 3.790350 738.669006
344 0 1 4.703810 3.706250 739.622986
345 0 1 4.851200 3.585000 740.567017
346 0 1 4.815420 3.360640 741.538025
347 0 1 5.060080 2.910300 742.403015
348 0 1 5.338980 2.832780 743.333008
349 0 1 5.432790 2.529780 744.226990
350 0 1 5.836700 2.391220 745.082031
351 0 1 5.902870 2.419930 746.031006
352 0 1 5.974950 2.538050 747.007996
353 0 1 6.134870 2.409850 747.957031
354 0 1 6.582480 2.411080 748.836975
355 0 1 6.907300 2.595200 749.718018
356 0 1 7.375569 2.812110 750.539001
357 0 1 7.688641 3.146240 751.354980
358 0 1 7.936866 3.776210 752.035034
359 0 1 8.256719 4.417850 752.768005
360 0 1 8.403792 4.793020 753.638977
361 0 1 8.365679 5.321250 754.382019
362 0 1 8.132485 5.765950 755.218018
363 0 1 7.841284 6.241560 756.021973
364 0 1 7.383772 6.316580 756.872986
365 0 1 7.011530 6.281310 757.721985
366 0 1 6.799510 5.916030 758.561035
367 0 1 6.414490 5.689470 759.427979
368 0 1 5.806580 5.439870 760.025024
369 0 1 5.294000 5.298360 760.809998
370 0 1 4.701770 5.275390 761.492981
371 0 1 4.207590 5.123730 762.247986
372 0 1 3.876760 4.864460 763.098999
373 0 1 3.652400 4.866760 764.039978
374 0 1 3.568300 4.705530 764.966980
375 0 1 3.628710 4.810530 765.953003
376 0 1 3.919300 4.775000 766.832031
377 0 1 4.264230 4.431360 767.702026
378 0 1 4.709780 4.439400 768.632019
379 0 1 5.085340 4.349840 769.552979
380 0 1 5.382930 4.558700 770.356995
381 0 1 5.680650 4.814010 771.181030
382 0 1 6.172180 5.010570 771.994019
383 0 1 6.488220 5.388610 772.759033
384 0 1 6.952730 5.504050 773.598999
385 0 1 7.490655 5.653600 774.416016
386 0 1 7.927074 5.878520 775.231018
387 0 1 8.342799 6.066180 776.049988
388 0 1 8.662558 6.721910 776.617981
389 0 1 8.770284 7.491962 777.299988
390 0 1 8.793487 8.092724 778.070984
391 0 1 8.464481 8.716992 778.641968
392 0 1 7.856128 9.362430 779.049988
393 0 1 7.345388 9.825600 779.716980
394 0 1 6.825270 10.436320 780.294006
395 0 1 6.412660 10.910089 781.041992
396 0 1 6.226230 11.260241 782.010010
397 0 1 6.313270 11.899260 782.710999
398 0 1 6.694600 12.412371 783.434998
399 0 1 7.223876 12.664320 784.221008
400 0 1 7.645876 12.769660 785.047974
401 0 1 8.101635 12.595270 785.890991
402 0 1 8.583400 12.328030 786.672974
403 0 1 8.755569 12.075520 787.585022
404 0 1 8.785519 11.542290 788.377014
405 0 1 8.981010 11.032500 789.239990
406 0 1 9.454870 10.502690 789.969971
407 0 1 10.009510 10.433150 790.775024
408 0 1 10.429140 10.077180 791.533997
409 0 1 10.727250 9.751760 792.437988
410 0 1 10.489460 9.428020 793.320984
411 0 1 10.259050 9.074660 794.179016
412 0 1 9.984580 8.593125 795.018982
413 0 1 9.874350 8.060773 795.806030
414 0 1 9.722970 7.577489 796.674988
415 0 1 9.477180 7.218176 797.599976
416 0 1 9.252750 6.867090 798.500977
417 0 1 9.484770 6.713040 799.481018
418 0 1 9.937920 6.779820 800.304016
419 0 1 10.477730 7.002304 801.140015
420 0 1 10.924620 6.917080 801.947021
421 0 1 11.236020 6.636340 802.835999
422 0 1 11.203270 6.252200 803.773987
423 0 1 10.847530 5.929100 804.661987
424 0 1 10.432529 5.550510 805.377014
425 0 1 10.062760 5.532600 806.226990
426 0 1 10.030220 5.564530 807.164001
427 0 1 10.085760 5.814620 808.089966
428 0 1 10.148690 5.929210 809.039978
429 0 1 10.195690 6.049470 810.000977
430 0 1 10.691150 6.090620 810.839966
431 0 1 11.040670 6.037310 811.768005
432 0 1 11.202271 6.281770 812.755981
433 0 1 11.685320 6.249170 813.557983
434 0 1 12.288980 6.136360 814.367004
435 0 1 12.680360 5.995860 815.223022
436 0 1 13.082750 5.876390 816.080017
437 0 1 13.391780 6.155730 817.031982
438 0 1 13.611441 6.364550 817.945984
439 0 1 14.103270 6.814710 818.627991
440 0 1 14.253710 7.140100 819.572998
441 0 1 14.182240 7.239522 820.563965
442 0 1 14.035690 7.133972 821.494995
443 0 1 14.095140 6.973600 822.488037
444 0 1 13.887770 6.425870 823.302002
445 0 1 13.430340 6.024800 824.110962
446 0 1 13.033210 5.782030 824.877014
447 0 1 12.439690 5.467760 825.518005
448 0 1 11.786990 5.458810 826.337036
449 0 1 10.927290 5.328220 826.875977
450 0 1 10.055980 5.046120 827.405029
451 0 1 9.424270 4.814270 827.994995
452 0 1 8.888976 4.365750 828.666016
453 0 1 8.346651 4.047920 829.406982
454 0 1 7.782349 3.804490 830.153015
455 0 1 7.109719 3.561460 830.835022
456 0 1 6.613520 3.364160 831.557007
457 0 1 5.899670 3.211280 832.145996
458 0 1 5.065810 3.417270 832.562988
459 0 1 4.496100 3.978940 833.101990
460 0 1 3.956710 4.578230 833.625977
461 0 1 3.242710 5.019980 834.190002
462 0 1 2.960890 5.820090 834.583984
463 0 1 3.094110 6.739620 834.827026
464 0 1 3.032220 7.691390 834.963013
465 0 1 3.190720 8.613943 834.737000
466 0 1 3.493130 9.513590 834.440002
467 0 1 3.733250 10.391520 834.056030
468 0 1 3.805480 11.225420 833.541992
469 0 1 4.000380 11.737289 832.750000
470 0 1 4.357070 12.217210 832.049988
471 0 1 4.905080 12.876989 831.478027
472 0 1 5.544950 13.524870 831.067017
473 0 1 6.150050 13.952610 830.494995
474 0 1 6.702030 14.221880 829.664978
475 0 1 6.895860 14.467840 828.688965
476 0 1 7.034395 14.564180 827.778015
477 0 1 6.844880 14.669530 826.839966
478 0 1 6.689960 14.557470 825.924011
479 0 1 6.629340 14.450560 824.942993
480 0 1 6.503400 14.145660 824.046021
481 0 1 6.602500 14.079229 823.125000
482 0 1 6.684010 14.122400 822.174988
483 0 1 6.883250 14.007460 821.216980
484 0 1 6.954220 13.915939 820.260010
485 0 1 7.114257 13.879530 819.289001
486 0 1 7.358985 13.647290 818.354004
487 0 1 7.775212 13.352489 817.535034
488 0 1 8.181357 13.083241 816.635010
489 0 1 8.517895 13.134350 815.739990
490 0 1 8.886035 13.033010 814.869995
491 0 1 9.160940 12.693010 814.057983
492 0 1 9.629780 12.271060 813.309998
493 0 1 9.830760 11.820900 812.403992
494 0 1 10.275249 11.365150 811.619995
495 0 1 10.536390 10.917470 810.846985
496 0 1 11.031310 10.749060 810.041016
497 0 1 11.361940 10.546510 809.176025
498 0 1 11.627140 10.520350 808.250000
499 0 1 11.933270 10.515890 807.325989
500 0 1 12.213860 10.917380 806.487000
501 0 1 12.489389 11.269730 805.580017
502 0 1 12.806709 11.855761 804.811035
503 0 1 12.943350 12.105120 803.934021
504 0 1 12.958780 12.282000 802.963013
505 0 1 12.856030 12.348850 802.023010
506 0 1 12.771310 12.570351 801.134033
507 0 1 12.439240 12.606569 800.234009
508 0 1 11.889920 12.391630 799.531006
509 0 1 11.044250 12.318319 798.997986
510 0 1 10.448999 12.160630 798.244019
511 0 1 9.946540 12.110790 797.437012
512 0 1 9.443390 11.778540 796.582031
513 0 1 8.938792 11.764669 795.669983
514 0 1 8.591986 11.439270 794.822998
515 0 1 7.813716 11.315810 794.171021
516 0 1 7.217119 11.442380 793.395996
517 0 1 6.805130 11.452160 792.520020
518 0 1 6.443770 11.183910 791.636963
519 0 1 5.922660 10.983390 790.869019
520 0 1 5.439180 11.180650 790.015991
521 0 1 5.243110 11.181880 789.015015
522 0 1 5.134250 10.795620 788.130981
523 0 1 5.080460 10.565220 787.139038
524 0 1 4.887750 10.086679 786.348022
525 0 1 4.594650 9.901990 785.421021
526 0 1 4.658020 9.808930 784.468994
527 0 1 4.597140 9.876960 783.494995
528 0 1 4.722720 9.878330 782.518005
529 0 1 4.929630 9.794430 781.536987
530 0 1 4.938050 9.989790 780.570984
531 0 1 4.767760 10.139450 779.630981
532 0 1 4.688010 10.035410 778.666992
533 0 1 4.732590 9.745150 777.744995
534 0 1 4.531680 9.608920 776.822998
535 0 1 4.364730 9.527230 775.820984
536 0 1 4.236130 9.641600 774.864014
537 0 1 4.369460 10.125999 774.010010
538 0 1 4.774940 10.603970 773.280029
539 0 1 5.087690 11.069260 772.518005
540 0 1 5.377110 11.717230 771.739014
541 0 1 5.687290 11.821740 770.801025
542 0 1 5.993670 11.900810 769.934021
543 0 1 6.235100 11.775280 768.984985
544 0 1 6.452490 11.524620 768.059021
545 0 1 7.064857 11.439280 767.375000
546 0 1 7.346075 11.041170 766.481995
547 0 1 7.719893 10.643450 765.674011
548 0 1 8.082865 10.334209 764.807007
549 0 1 8.559017 10.274000 763.976990
550 0 1 8.913323 10.146950 763.036011
551 0 1 8.814616 10.338440 762.145020
552 0 1 8.801694 10.368850 761.197021
553 0 1 8.818125 10.007930 760.343018
554 0 1 8.837916 9.551991 759.492981
555 0 1 8.769823 9.029630 758.627014
556 0 1 8.909626 8.820981 757.713013
557 0 1 8.600117 8.715355 756.835022
558 0 1 8.084025 8.775311 755.958984
559 0 1 7.874732 9.099751 755.119995
560 0 1 7.769352 9.305940 754.198975
561 0 1 7.987870 9.404960 753.291016
562 0 1 8.286922 9.633590 752.437012
563 0 1 8.464449 9.705379 751.439026
564 0 1 8.860498 9.728830 750.520996
565 0 1 9.403580 9.749920 749.702026
566 0 1 9.922000 9.856730 748.872986
567 0 1 10.396300 9.719481 748.031006
568 0 1 10.911910 9.397890 747.270996
569 0 1 11.372760 9.042080 746.460022
570 0 1 11.681601 8.408564 745.773010
571 0 1 12.089830 8.210740 744.955017
572 0 1 12.464840 8.102201 744.049988
573 0 1 12.619150 7.906211 743.163025
574 0 1 12.804860 7.872960 742.223022
575 0 1 12.524530 7.558669 741.302979
576 0 1 12.463890 7.057901 740.512024
577 0 1 12.077499 6.647500 739.598999
578 0 1 11.740220 6.313580 738.690979
579 0 1 11.417620 6.066920 737.827026
580 0 1 11.053840 5.940790 736.952026
581 0 1 10.687230 5.951480 736.089966
582 0 1 10.247820 5.868410 735.289978
583 0 1 9.445190 6.039160 734.714966
584 0 1 8.672676 6.473020 734.210022
585 0 1 8.188551 6.890160 733.502014
586 0 1 7.983139 7.290086 732.619019
587 0 1 7.517886 7.783275 731.884033
588 0 1 7.063818 7.862723 730.973999
589 0 1 6.826780 7.812368 730.059021
590 0 1 6.711180 7.771318 729.122986
591 0 1 6.769330 7.795046 728.175293
592 0 1 6.980550 7.697973 727.286377
593 0 1 6.998220 7.551979 726.267883
594 0 1 7.285885 7.317120 725.396118
595 0 1 7.506731 6.961280 724.521729
596 0 1 7.917850 7.083546 723.650391
597 0 1 8.335915 7.181179 722.809326
598 0 1 8.837658 7.359027 721.935974
599 0 1 9.494030 7.440790 721.235107
600 0 1 10.130790 7.405183 720.447815
601 0 1 10.856600 7.268433 719.851807
602 0 1 11.679970 7.123531 719.251282
603 0 1 12.386590 7.118252 718.604919
604 0 1 12.833250 6.821500 717.829285
605 0 1 13.267750 6.455480 717.053467
606 0 1 13.571480 6.100780 716.161194
607 0 1 14.018860 6.150090 715.280518
608 0 1 14.208310 6.595080 714.467407
609 0 1 13.981560 6.938590 713.647583
610 0 1 13.551070 7.223051 712.848083
611 0 1 13.328421 7.183188 711.894226
612 0 1 13.027170 7.208617 711.010132
613 0 1 12.857450 7.422432 710.048279
614 0 1 12.690400 7.949582 709.253784
615 0 1 12.430941 8.259463 708.366211
616 0 1 12.272710 8.356031 707.427185
617 0 1 12.342400 8.376755 706.491882
618 0 1 12.556271 8.501022 705.505493
619 0 1 12.618450 8.601351 704.529419
620 0 1 12.978710 8.280879 703.662476
621 0 1 13.391550 7.846201 702.926697
622 0 1 13.871640 7.517206 702.184814
623 0 1 13.882160 7.450029 701.190002
624 0 1 13.466530 7.591963 700.245789
625 0 1 13.150560 7.865335 699.393494
626 0 1 12.709761 7.999047 698.515076
627 0 1 12.365260 8.168454 697.642700
628 0 1 12.292490 8.160856 696.654785
629 0 1 12.496850 8.129340 695.703369
630 0 1 12.604160 8.193761 694.731384
631 0 1 12.630990 8.384603 693.772827
632 0 1 12.830891 8.661591 692.865967
633 0 1 13.250010 8.812895 691.993225
634 0 1 13.597031 8.607575 691.084900
635 0 1 14.034250 8.490579 690.161499
636 0 1 14.347401 8.751407 689.289185
637 0 1 14.387091 8.854348 688.312073
638 0 1 14.253550 9.276011 687.463989
639 0 1 14.056170 9.517560 686.499817
640 0 1 14.004360 9.634470 685.502930
641 0 1 13.638770 9.656040 684.658203
642 0 1 12.934420 9.763410 684.024780
643 0 1 12.445860 10.099280 683.277222
644 0 1 11.794770 10.016240 682.598206
645 0 1 11.155581 9.878410 681.950623
646 0 1 10.348280 9.780020 681.464783
647 0 1 9.654181 9.511080 680.747803
648 0 1 8.920706 9.102740 680.197021
649 0 1 8.201291 8.714674 679.723328
650 0 1 7.590046 8.213008 679.168213
651 0 1 7.092730 7.690195 678.497681
652 0 1 6.610650 7.179808 677.825317
653 0 1 6.062160 6.633660 677.266907
654 0 1 5.688880 6.113140 676.570190
655 0 1 5.206600 5.531620 675.918274
656 0 1 4.663470 5.095950 675.331726
657 0 1 4.428420 4.506930 674.572388
658 0 1 4.070790 4.088220 673.784790
659 0 1 4.018590 3.865930 672.841797
660 0 1 4.042680 3.970100 671.846802
661 0 1 4.074790 3.796060 670.876892
662 0 1 4.062650 3.952320 669.936279
663 0 1 4.128130 4.208080 669.004272
664 0 1 4.605190 4.619020 668.294312
665 0 1 4.968220 5.112570 667.531189
666 0 1 5.514910 5.519640 666.800415
667 0 1 5.889660 5.889440 665.997009
668 0 1 6.420800 6.095400 665.148926
669 0 1 7.063876 6.122570 664.464478
670 0 1 7.559812 6.368760 663.672791
671 0 1 8.213029 6.502300 662.944092
672 0 1 9.048710 6.199910 662.466125
673 0 1 9.972050 6.003390 662.039795
674 0 1 10.781680 5.784450 661.601624
675 0 1 11.166670 5.253520 660.822998
676 0 1 11.585130 4.926870 659.998169
677 0 1 12.113550 4.822360 659.200989
678 0 1 12.336440 4.937440 658.248169
679 0 1 12.271540 5.059260 657.279724
680 0 1 12.062460 5.286240 656.355591
681 0 1 11.892210 5.539410 655.489075
682 0 1 11.611470 5.871200 654.598877
683 0 1 11.216530 6.295660 653.783020
684 0 1 10.817480 7.060042 653.329590
685 0 1 10.534540 7.752542 652.722412
686 0 1 10.283751 8.323761 652.025574
687 0 1 9.956570 8.947838 651.284790
688 0 1 9.657260 9.549870 650.505493
689 0 1 9.582550 10.204140 649.711426
690 0 1 9.685400 10.714930 648.861572
691 0 1 9.724410 11.254250 648.104980
692 0 1 9.901630 11.827370 647.346008
693 0 1 9.928130 12.535851 646.563599
694 0 1 10.305840 12.949190 645.761597
695 0 1 10.633420 13.075090 644.897888
696 0 1 11.198709 13.015699 644.037415
697 0 1 11.392380 12.870190 643.129700
698 0 1 11.522100 12.857750 642.141418
699 0 1 11.330270 12.698720 641.187317
700 0 1 11.147280 12.350170 640.347595
701 0 1 10.832970 11.745180 639.686401
702 0 1 10.983370 11.070390 639.058716
703 0 1 11.193620 10.326190 638.558105
704 0 1 11.323480 9.513720 638.030334
705 0 1 11.330400 8.616452 637.712952
706 0 1 11.438900 7.929417 637.104004
707 0 1 11.461750 7.449023 636.303528
708 0 1 11.248000 7.193440 635.403381
709 0 1 11.224430 6.830240 634.532043
710 0 1 10.797880 6.776340 633.687134
711 0 1 10.131890 6.871100 632.938477
712 0 1 9.342960 7.286358 632.452332
713 0 1 8.477440 7.457572 631.896729
714 0 1 7.618598 7.358197 631.283997
715 0 1 6.821040 7.319252 630.754272
716 0 1 5.945110 7.006056 630.408203
717 0 1 5.395540 6.719190 629.657166
718 0 1 4.773930 6.647610 628.874695
719 0 1 4.233750 6.344990 628.099060
720 0 1 3.817280 6.175140 627.332336
721 0 1 3.453450 6.374990 626.503357
722 0 1 3.032620 6.310540 625.602966
723 0 1 3.127110 6.302620 624.664185
724 0 1 3.421960 6.600300 623.802856
725 0 1 3.715340 6.752860 622.906372
726 0 1 4.191810 6.856750 621.965454
727 0 1 4.477280 6.824350 621.052612
728 0 1 4.923520 6.796340 620.243958
729 0 1 5.252500 6.308180 619.465759
730 0 1 5.240840 6.162450 618.468079
731 0 1 5.006680 6.066570 617.476990
732 0 1 4.755530 6.160060 616.598572
733 0 1 4.121600 6.178340 615.847717
734 0 1 3.981590 6.187620 614.885010
735 0 1 4.147890 6.114370 613.991394
736 0 1 4.323570 6.025280 613.067688
737 0 1 4.593250 5.735540 612.206116
738 0 1 4.751850 5.554740 611.301514
739 0 1 4.816980 5.170820 610.404724
740 0 1 4.836160 4.902920 609.464417
741 0 1 5.015440 4.927750 608.555115
742 0 1 4.850800 5.082820 607.618774
743 0 1 4.597620 5.301610 606.769409
744 0 1 4.219650 5.316020 605.893188
745 0 1 3.795550 5.369890 605.025391
746 0 1 3.267570 5.361590 604.191284
747 0 1 3.204790 5.229720 603.260498
748 0 1 3.199510 4.859900 602.430786
749 0 1 3.494320 4.333260 601.630615
750 0 1 3.825450 4.115760 600.802490
751 0 1 4.297850 3.995480 599.901428
752 0 1 4.535870 3.776550 598.987122
753 0 1 4.749700 3.606990 598.030090
754 0 1 4.817210 3.169630 597.203918
755 0 1 4.513220 2.726410 596.351990
756 0 1 4.382400 2.362080 595.520081
757 0 1 4.248960 2.217950 594.543884
758 0 1 4.490750 2.238790 593.628723
759 0 1 4.640770 2.429590 592.713013
760 0 1 4.729150 2.563990 591.764893
761 0 1 4.538260 2.618210 590.788696
762 0 1 4.279550 2.652920 589.844788
763 0 1 3.966420 2.934210 588.867310
764 0 1 3.816580 3.403670 588.028381
765 0 1 3.555230 3.471970 587.114014
766 0 1 3.213590 3.762430 586.228210
767 0 1 2.997210 4.231420 585.337402
768 0 1 3.045670 4.524820 584.497070
769 0 1 3.268420 4.838040 583.650269
770 0 1 3.744980 5.091360 582.838989
771 0 1 4.169800 5.092410 582.004028
772 0 1 4.542080 5.395100 581.194885
773 0 1 4.953860 5.663830 580.379089
774 0 1 5.336080 6.118700 579.591675
775 0 1 5.674570 6.873310 579.066528
776 0 1 6.378150 7.529405 578.903687
777 0 1 7.056051 8.195177 578.623169
778 0 1 7.596638 8.691904 578.056702
779 0 1 8.222719 9.139410 577.498474
780 0 1 8.808535 9.504140 576.731628
781 0 1 9.426360 9.812660 576.055115
782 0 1 9.879940 10.085711 575.285522
783 0 1 9.864150 10.517770 574.424194
784 0 1 9.956170 10.825109 573.506226
785 0 1 9.840080 11.470680 572.895813
786 0 1 9.362250 12.051090 572.310913
787 0 1 8.644669 12.533160 571.958679
788 0 1 7.964121 12.637110 571.250305
789 0 1 7.229180 12.579929 570.546997
790 0 1 6.734350 12.715640 569.712280
791 0 1 6.219160 12.776470 568.855103
792 0 1 6.276210 12.693860 567.890198
793 0 1 6.216190 12.650030 566.923218