LAMMPS data file via MDAnalysis

        1000  atoms
        1000  bonds
        1000  angles
           0  dihedrals
           0  impropers

           1  atom types
           1  bond types
           1  angle types
           0  dihedral types
           0  improper types

0.000000 16.000000 xlo xhi
0.000000 16.000000 ylo yhi
0.000000 1257.000000 zlo zhi


Masses

1 1.000000

Atoms

1 0 1 12.084920 3.662810 457.177979
2 0 1 12.732690 3.775310 457.828003
3 0 1 12.991210 3.686020 458.739014
4 0 1 12.921850 3.925450 459.677979
5 0 1 12.434210 4.243680 460.395996
6 0 1 12.140261 4.370080 461.234985
7 0 1 11.819950 4.274160 462.106018
8 0 1 11.317610 4.127560 462.983002
9 0 1 11.030590 3.904380 463.876007
10 0 1 10.638030 3.660670 464.707001
11 0 1 10.261810 3.415220 465.598999
12 0 1 10.056970 3.202130 466.516998
13 0 1 10.205830 2.746560 467.332001
14 0 1 10.183371 2.422340 468.265991
15 0 1 10.043040 2.046240 469.149994
16 0 1 10.040670 1.930490 470.122009
17 0 1 9.770950 2.153710 471.083008
18 0 1 9.267490 2.220370 471.903015
19 0 1 8.934884 2.204450 472.752991
20 0 1 8.925882 2.119790 473.679993
21 0 1 8.651435 2.370790 474.541016
22 0 1 8.367579 2.840010 475.364990
23 0 1 8.015291 3.390040 476.138000
24 0 1 7.691802 3.721100 477.029999
25 0 1 7.493544 3.892880 478.003998
26 0 1 7.503706 4.238020 478.960999
27 0 1 7.438904 4.660370 479.755981
28 0 1 7.358438 5.151550 480.565002
29 0 1 7.555119 5.866740 481.242004
30 0 1 7.877425 6.556580 481.833984
31 0 1 8.207116 7.082728 482.572021
32 0 1 7.880026 7.470360 483.356995
33 0 1 7.628841 7.809042 484.205017
34 0 1 7.817274 7.765154 485.161987
35 0 1 8.244919 7.817454 486.013000
36 0 1 8.392114 7.612810 486.932007
37 0 1 8.726070 7.365768 487.774994
38 0 1 8.747049 7.444931 488.708984
39 0 1 8.799387 7.365218 489.653992
40 0 1 8.670937 7.276272 490.692017
41 0 1 8.394649 7.605832 491.528992
42 0 1 8.056455 7.992141 492.315979
43 0 1 7.589550 8.135204 493.186005
44 0 1 7.063870 7.944436 494.062012
45 0 1 6.661200 7.804186 494.937988
46 0 1 6.251100 7.633682 495.815979
47 0 1 5.920960 7.646833 496.731018
48 0 1 5.658710 7.605199 497.627991
49 0 1 5.570430 7.430124 498.585022
50 0 1 5.411550 7.300655 499.511993
51 0 1 5.266100 7.143157 500.398987
52 0 1 5.124860 6.868940 501.355011
53 0 1 5.175310 6.508120 502.277008
54 0 1 5.245010 6.639500 503.169983
55 0 1 5.536560 6.681670 504.109985
56 0 1 5.645850 6.922430 505.028992
57 0 1 5.862690 7.263400 505.937988
58 0 1 5.954250 7.412951 506.880981
59 0 1 6.319360 7.242509 507.721008
60 0 1 6.906820 7.303245 508.479004
61 0 1 7.290184 7.464029 509.354004
62 0 1 7.722626 7.643647 510.221008
63 0 1 7.966621 7.679699 511.098999
64 0 1 8.247270 7.690873 512.114014
65 0 1 8.434697 7.576307 513.049011
66 0 1 8.801264 7.399267 513.929993
67 0 1 9.083050 7.502439 514.854980
68 0 1 9.496130 7.453697 515.760010
69 0 1 9.731890 7.728686 516.651001
70 0 1 10.003070 7.840497 517.552002
71 0 1 10.108990 8.262464 518.384033
72 0 1 10.485559 8.351212 519.260986
73 0 1 10.943010 8.127840 520.085999
74 0 1 11.479170 7.831265 520.825989
75 0 1 11.861629 7.460836 521.643982
76 0 1 12.085051 7.040066 522.466980
77 0 1 12.495480 6.637110 523.189026
78 0 1 12.923620 6.384050 524.007019
79 0 1 13.074680 5.856070 524.789978
80 0 1 13.340080 5.359940 525.564026
81 0 1 13.586980 4.939350 526.421997
82 0 1 13.691750 4.974020 527.416992
83 0 1 13.983030 4.875600 528.416016
84 0 1 13.914460 5.114540 529.444702
85 0 1 13.601940 5.501680 530.271423
86 0 1 13.105721 6.041820 530.901733
87 0 1 13.029409 6.647640 531.613220
88 0 1 13.018100 7.352682 532.276489
89 0 1 12.810420 8.026337 532.882874
90 0 1 12.717730 8.754590 533.445007
91 0 1 13.038870 9.424840 534.032410
92 0 1 13.380610 9.894830 534.836426
93 0 1 13.633739 10.442610 535.638672
94 0 1 13.278280 10.927950 536.462219
95 0 1 12.787540 11.257780 537.220398
96 0 1 12.359819 11.410100 538.056274
97 0 1 11.918330 11.354070 538.903076
98 0 1 11.574480 11.108580 539.804504
99 0 1 11.288340 10.845600 540.675171
100 0 1 11.022200 10.625210 541.573303
101 0 1 10.651810 10.238020 542.361877
102 0 1 10.170410 9.660220 542.919189
103 0 1 9.437170 9.232520 543.299622
104 0 1 8.665825 8.819538 543.739502
105 0 1 8.172071 8.841750 544.531128
106 0 1 8.023072 8.938785 545.428589
107 0 1 7.928157 8.902634 546.422974
108 0 1 8.058815 9.082870 547.327698
109 0 1 8.338772 9.280430 548.213318
110 0 1 8.437551 9.382070 549.177979
111 0 1 8.104351 9.419290 550.084717
112 0 1 7.652058 9.305600 550.943420
113 0 1 7.195048 9.361790 551.811890
114 0 1 6.983480 9.484490 552.822205
115 0 1 6.777820 9.395400 553.790710
116 0 1 6.755240 9.412251 554.788879
117 0 1 6.638160 9.228370 555.695984
118 0 1 6.615150 8.939377 556.640015
119 0 1 6.653690 8.675687 557.545105
120 0 1 6.608890 8.335255 558.427124
121 0 1 6.743880 8.159410 559.336304
122 0 1 6.882170 7.916549 560.263428
123 0 1 6.965950 7.552322 561.108521
124 0 1 7.138457 7.576049 562.083496
125 0 1 7.343746 7.564165 563.032471
126 0 1 7.297174 7.860705 563.979797
127 0 1 7.145163 8.250590 564.842896
128 0 1 7.130670 9.003320 565.474182
129 0 1 7.290314 9.509800 566.284912
130 0 1 7.494862 10.071810 567.047119
131 0 1 7.687990 10.889830 567.564697
132 0 1 8.109880 11.411750 568.296082
133 0 1 8.587871 11.704020 569.045227
134 0 1 9.272390 12.095261 569.716431
135 0 1 9.764980 12.488359 570.494507
136 0 1 10.476840 12.569780 571.171326
137 0 1 10.996490 12.274429 571.902222
138 0 1 11.527821 11.771080 572.541870
139 0 1 11.797490 11.228610 573.292175
140 0 1 12.145639 10.726460 574.000305
141 0 1 12.578011 9.944750 574.517822
142 0 1 12.577700 9.285380 575.172913
143 0 1 12.801680 8.699601 575.880188
144 0 1 12.846581 8.002644 576.635681
145 0 1 12.788370 7.520256 577.461304
146 0 1 12.662450 7.122714 578.350830
147 0 1 12.307640 6.879760 579.210876
148 0 1 11.925870 6.553990 580.043823
149 0 1 11.240880 6.697250 580.711426
150 0 1 10.667110 6.652340 581.447327
151 0 1 10.154640 6.649580 582.330505
152 0 1 9.698590 6.729320 583.227112
153 0 1 9.177710 6.683900 584.034912
154 0 1 8.764136 6.702000 584.958313
155 0 1 8.454618 6.760350 585.891113
156 0 1 8.409422 6.708820 586.928284
157 0 1 8.141433 6.486040 587.793823
158 0 1 7.936138 5.946890 588.483826
159 0 1 7.760902 5.451060 589.312012
160 0 1 7.330089 5.085760 590.070374
161 0 1 6.863380 4.789530 590.871399
162 0 1 6.288580 4.476780 591.631226
163 0 1 5.898260 4.650430 592.494629
164 0 1 5.571410 4.919900 593.339294
165 0 1 5.552890 5.316580 594.266907
166 0 1 6.033950 5.653750 595.012390
167 0 1 6.483680 5.905150 595.783081
168 0 1 6.880870 6.253150 596.611816
169 0 1 7.301018 6.551480 597.449707
170 0 1 7.585798 6.524260 598.345703
171 0 1 7.769849 6.603300 599.260925
172 0 1 7.958591 6.578960 600.189026
173 0 1 8.124784 6.423440 601.103516
174 0 1 8.505203 6.424210 602.045898
175 0 1 8.619022 6.305090 602.932312
176 0 1 8.803447 6.199430 603.895386
177 0 1 8.885571 6.108770 604.882996
178 0 1 9.042510 5.964770 605.814514
179 0 1 8.918005 5.850150 606.752686
180 0 1 8.965463 5.629900 607.703491
181 0 1 8.720784 5.245720 608.573303
182 0 1 8.714748 5.197350 609.558899
183 0 1 8.876424 5.070690 610.564331
184 0 1 9.064640 4.993780 611.553711
185 0 1 9.347660 4.728350 612.431824
186 0 1 9.490250 4.620360 613.341309
187 0 1 9.823960 4.561340 614.271729
188 0 1 10.105940 4.509630 615.201782
189 0 1 10.370720 4.590690 616.179016
190 0 1 10.332620 4.574160 617.190430
191 0 1 10.609670 4.441110 618.101074
192 0 1 11.201420 4.544420 618.921631
193 0 1 11.634439 4.716880 619.737366
194 0 1 11.983089 4.791700 620.640808
195 0 1 12.104710 4.981650 621.598877
196 0 1 12.217860 5.093100 622.498901
197 0 1 12.203421 5.517750 623.363647
198 0 1 12.484970 5.852390 624.236145
199 0 1 12.388480 5.978160 625.210022
200 0 1 12.319469 5.846750 626.138611
201 0 1 12.251680 5.850150 627.134338
202 0 1 12.304010 5.990710 628.065674
203 0 1 12.193649 6.331390 628.938599
204 0 1 11.966610 6.642710 629.875977
205 0 1 11.941290 6.798360 630.805237
206 0 1 11.865650 6.940590 631.809998
207 0 1 11.673590 6.848520 632.714050
208 0 1 11.150380 6.598740 633.557068
209 0 1 10.826260 6.510480 634.459290
210 0 1 10.656950 6.273790 635.428955
211 0 1 10.771470 5.822210 636.292297
212 0 1 11.268220 5.382370 637.055908
213 0 1 11.463150 5.040380 637.998230
214 0 1 11.376290 4.784420 638.889771
215 0 1 11.217700 5.039920 639.842285
216 0 1 11.101151 5.373380 640.705505
217 0 1 10.831970 5.539000 641.640076
218 0 1 10.582550 5.780520 642.535889
219 0 1 10.338950 5.964960 643.467224
220 0 1 10.039780 6.243750 644.442627
221 0 1 9.914630 6.252630 645.405701
222 0 1 10.074950 6.481440 646.345886
223 0 1 10.103580 6.922090 647.215698
224 0 1 10.301120 7.244653 648.097717
225 0 1 10.338420 7.489625 649.023926
226 0 1 10.339420 7.965547 649.797791
227 0 1 10.313290 8.444557 650.665283
228 0 1 10.395890 9.110600 651.332703
229 0 1 10.713470 9.623310 652.104919
230 0 1 11.332770 9.899750 652.794312
231 0 1 11.750600 10.136600 653.622681
232 0 1 12.300050 10.217649 654.436401
233 0 1 12.678590 9.909840 655.295105
234 0 1 12.942801 9.457030 656.191101
235 0 1 12.914780 8.992495 657.040283
236 0 1 13.206050 8.612335 657.952087
237 0 1 13.354760 8.394177 658.870422
238 0 1 13.482330 8.227999 659.848572
239 0 1 13.585100 8.006395 660.790283
240 0 1 13.614780 7.791600 661.705322
241 0 1 13.640881 7.394579 662.622192
242 0 1 13.380140 6.979150 663.428711
243 0 1 12.938180 6.803630 664.266968
244 0 1 12.603790 6.367480 665.049377
245 0 1 12.253281 6.049770 665.883911
246 0 1 11.761780 5.683140 666.634399
247 0 1 11.308460 5.586240 667.534912
248 0 1 11.090170 5.670350 668.420288
249 0 1 10.914840 6.055400 669.283997
250 0 1 10.935990 6.220990 670.242432
251 0 1 10.888560 6.451120 671.143494
252 0 1 10.730830 6.503930 672.097595
253 0 1 10.719060 6.469120 673.075012
254 0 1 10.601530 6.779780 673.974426
255 0 1 10.551661 7.015747 674.927307
256 0 1 10.544680 7.510280 675.776306
257 0 1 10.520300 8.028457 676.644409
258 0 1 10.323009 8.457424 677.496521
259 0 1 10.116730 8.387693 678.363892
260 0 1 10.026040 8.239015 679.307007
261 0 1 9.945710 8.118089 680.256592
262 0 1 9.763980 8.052588 681.170776
263 0 1 9.606570 8.210622 682.097107
264 0 1 9.356950 8.513065 682.974182
265 0 1 9.350820 9.007570 683.728821
266 0 1 9.044970 9.382370 684.588013
267 0 1 8.694722 9.645170 685.465576
268 0 1 8.271590 9.815360 686.281128
269 0 1 8.167551 9.877540 687.208496
270 0 1 7.910112 9.737750 688.146301
271 0 1 8.044280 9.530330 689.133179
272 0 1 8.190162 9.346740 690.095215
273 0 1 8.295818 9.549540 691.035828
274 0 1 8.173107 9.815780 691.902405
275 0 1 8.007291 9.958450 692.793091
276 0 1 7.996242 10.362320 693.691711
277 0 1 8.025876 10.789090 694.641479
278 0 1 8.339807 11.054040 695.541321
279 0 1 8.619941 11.232130 696.487915
280 0 1 8.417656 11.484800 697.372925
281 0 1 8.155492 11.916710 698.167603
282 0 1 7.938524 12.247820 699.048279
283 0 1 7.968094 12.367620 699.950928
284 0 1 7.952418 12.501870 700.928711
285 0 1 8.009321 12.416920 701.880371
286 0 1 8.378011 12.489790 702.775391
287 0 1 8.813906 12.652491 703.666382
288 0 1 9.147449 12.834169 704.572876
289 0 1 9.735750 12.776159 705.278503
290 0 1 10.293210 12.437429 706.021301
291 0 1 10.746571 12.296590 706.957092
292 0 1 11.144840 12.330070 707.873596
293 0 1 11.497810 12.599421 708.762573
294 0 1 12.135250 12.487870 709.562195
295 0 1 12.259581 12.349390 710.484619
296 0 1 12.702499 11.882030 711.283691
297 0 1 12.848391 11.564430 712.140503
298 0 1 12.686160 11.435720 713.037781
299 0 1 12.411880 11.291240 713.946289
300 0 1 12.097300 11.148690 714.798828
301 0 1 11.856900 10.973150 715.721069
302 0 1 11.816600 10.784451 716.692688
303 0 1 11.569490 10.474940 717.591675
304 0 1 11.049410 10.142990 718.300293
305 0 1 10.332560 9.936690 718.961426
306 0 1 9.938700 9.439631 719.735229
307 0 1 9.490200 9.036790 720.481201
308 0 1 8.994179 8.674030 721.122192
309 0 1 8.439907 8.692135 721.885986
310 0 1 8.000708 8.242206 722.715820
311 0 1 7.719058 8.010945 723.619873
312 0 1 7.429151 8.023402 724.550903
313 0 1 7.065669 8.347354 725.387329
314 0 1 7.012514 8.872055 726.193115
315 0 1 7.125119 9.282560 727.067200
316 0 1 7.486207 9.401330 728.012207
317 0 1 7.891869 9.566860 728.919983
318 0 1 8.554802 9.651680 729.645996
319 0 1 9.014920 9.935640 730.398987
320 0 1 9.359610 9.924550 731.286011
321 0 1 9.831280 10.288980 732.018982
322 0 1 10.453800 10.447800 732.744995
323 0 1 11.070480 10.364610 733.464966
324 0 1 11.346380 10.435329 734.374023
325 0 1 11.667160 10.242599 735.260010
326 0 1 11.633870 10.135790 736.250977
327 0 1 11.368650 10.023590 737.197021
328 0 1 11.112410 10.253250 738.115967
329 0 1 10.664351 10.152590 738.950012
330 0 1 10.136220 10.309130 739.752014
331 0 1 9.740400 10.202230 740.612000
332 0 1 9.381220 9.981810 741.411987
333 0 1 8.794133 9.969570 742.244019
334 0 1 8.420425 10.182010 743.088013
335 0 1 8.190463 10.392820 744.070984
336 0 1 7.761366 10.483419 744.856995
337 0 1 7.664170 10.626070 745.799988
338 0 1 7.444576 10.633960 746.703979
339 0 1 7.335749 10.451100 747.614014
340 0 1 7.206064 10.351780 748.591980
341 0 1 7.231964 10.208250 749.530029
342 0 1 7.215593 9.823130 750.421021
343 0 1 7.183915 9.489260 751.286987
344 0 1 6.907340 9.758050 752.167969
345 0 1 6.754590 9.894710 753.094971
346 0 1 6.477980 9.957940 754.088989
347 0 1 6.103040 10.046700 754.931030
348 0 1 5.677860 9.979940 755.859009
349 0 1 5.247980 9.944400 756.708008
350 0 1 4.998760 9.679040 757.601990
351 0 1 4.878850 9.393040 758.565979
352 0 1 4.912210 9.035740 759.455994
353 0 1 5.012530 8.517297 760.260986
354 0 1 5.078450 8.019784 761.044983
355 0 1 5.104420 7.495357 761.780029
356 0 1 5.160610 7.010889 762.601990
357 0 1 5.469120 6.663750 763.483032
358 0 1 5.706790 6.486760 764.408997
359 0 1 5.845820 6.646830 765.412964
360 0 1 5.852320 7.046998 766.369019
361 0 1 5.825530 7.282173 767.330017
362 0 1 5.578660 7.332745 768.187988
363 0 1 5.108980 7.675264 768.958008
364 0 1 4.795800 7.965993 769.830994
365 0 1 4.431550 8.141014 770.733032
366 0 1 4.079780 8.276233 771.625977
367 0 1 3.544790 8.317246 772.500000
368 0 1 2.912570 8.023700 773.141968
369 0 1 2.458780 7.595103 773.851990
370 0 1 2.225170 7.168271 774.604004
371 0 1 2.411360 6.802320 775.455994
372 0 1 2.760200 6.574390 776.309998
373 0 1 3.074410 6.394790 777.265991
374 0 1 3.625470 6.021590 777.937988
375 0 1 4.226670 5.816860 778.656982
376 0 1 4.805600 5.776680 779.440002
377 0 1 5.474120 5.797040 780.125000
378 0 1 6.091680 5.981970 780.802979
379 0 1 6.677050 6.205860 781.578979
380 0 1 7.499367 6.648190 781.927979
381 0 1 8.444693 6.827520 782.162964
382 0 1 9.224860 6.965520 782.749023
383 0 1 9.861740 7.161483 783.447998
384 0 1 10.333790 6.992860 784.315002
385 0 1 10.738060 6.983450 785.210999
386 0 1 10.881830 7.110297 786.195007
387 0 1 11.335670 7.478148 786.971008
388 0 1 11.585890 7.961066 787.749023
389 0 1 11.942060 8.507335 788.463989
390 0 1 12.333490 8.838375 789.294983
391 0 1 12.645390 8.930430 790.208984
392 0 1 12.729330 9.266640 791.073975
393 0 1 12.671180 9.556460 792.028992
394 0 1 12.596280 9.715230 792.976013
395 0 1 12.474689 10.153830 793.807983
396 0 1 12.403620 10.400800 794.776001
397 0 1 12.570450 10.463779 795.731995
398 0 1 12.829420 10.489350 796.688965
399 0 1 12.909890 10.354310 797.666992
400 0 1 13.009310 10.291040 798.630981
401 0 1 13.049510 10.078680 799.562988
402 0 1 12.861290 9.746799 800.476990
403 0 1 12.544320 9.239100 801.212036
404 0 1 12.291880 8.883683 802.068970
405 0 1 12.051010 8.670047 802.989014
406 0 1 11.823030 8.432581 803.880981
407 0 1 11.424800 8.199170 804.747986
408 0 1 10.731300 8.029284 805.384033
409 0 1 10.156850 7.917288 806.171021
410 0 1 9.690020 7.784667 807.014038
411 0 1 9.390500 7.830776 807.898010
412 0 1 9.313880 7.823584 808.891968
413 0 1 9.341660 8.018737 809.760986
414 0 1 9.597000 8.098461 810.747009
415 0 1 10.084080 8.140450 811.591003
416 0 1 10.468760 7.900434 812.429016
417 0 1 10.838530 7.630152 813.263000
418 0 1 10.958810 7.260194 814.106018
419 0 1 11.161470 6.947470 814.973999
420 0 1 11.561680 6.541010 815.804993
421 0 1 11.781549 5.900240 816.476013
422 0 1 11.845370 5.384420 817.306030
423 0 1 11.303090 4.962700 818.026001
424 0 1 11.071609 4.379020 818.752014
425 0 1 10.929340 4.050380 819.632996
426 0 1 11.057080 3.741350 820.593994
427 0 1 11.334340 3.441020 821.440979
428 0 1 11.607430 3.131160 822.375000
429 0 1 11.633560 2.698600 823.304993
430 0 1 11.626030 2.453500 824.218018
431 0 1 11.746720 2.297250 825.104980
432 0 1 11.788790 2.332140 826.011963
433 0 1 11.881630 2.533150 826.962036
434 0 1 11.634970 2.725150 827.912964
435 0 1 11.725060 2.989600 828.875977
436 0 1 11.736270 3.529050 829.789978
437 0 1 11.755320 4.313170 830.403015
438 0 1 11.919120 4.817260 831.210999
439 0 1 12.493890 4.865660 832.061035
440 0 1 12.823640 4.929040 832.979004
441 0 1 13.347290 5.090680 833.789978
442 0 1 13.734030 5.300290 834.677002
443 0 1 13.907050 5.909690 835.479980
444 0 1 13.776569 6.523670 836.249023
445 0 1 13.503830 6.916980 837.067017
446 0 1 13.338310 7.339135 837.937012
447 0 1 12.797900 7.858173 838.583984
448 0 1 12.130870 8.536832 838.799988
449 0 1 11.595770 9.345480 838.708008
450 0 1 11.075769 10.050240 838.385010
451 0 1 10.411810 10.762640 838.208008
452 0 1 9.627100 11.293400 838.169983
453 0 1 8.711082 11.677880 837.947021
454 0 1 7.840757 11.705379 837.617004
455 0 1 7.061675 11.872330 837.145020
456 0 1 6.227320 11.797700 836.559021
457 0 1 5.615890 12.050360 835.804016
458 0 1 5.333990 12.065220 834.880005
459 0 1 5.085700 11.946840 833.976990
460 0 1 4.892490 11.880910 833.021973
461 0 1 4.601350 11.847510 832.083984
462 0 1 4.076880 11.582100 831.351990
463 0 1 3.655610 11.407880 830.462036
464 0 1 3.444230 11.089670 829.606018
465 0 1 3.331340 10.805799 828.692993
466 0 1 3.215860 10.391280 827.848999
467 0 1 3.048500 9.988450 826.997986
468 0 1 2.770380 10.012280 826.047974
469 0 1 2.633230 9.963410 825.119019
470 0 1 2.627570 10.069780 824.205017
471 0 1 2.790080 10.246520 823.271973
472 0 1 3.174380 10.081270 822.386963
473 0 1 3.338050 9.821310 821.504028
474 0 1 3.402110 9.513110 820.562988
475 0 1 3.509770 9.333580 819.585999
476 0 1 2.978500 9.175300 818.802002
477 0 1 2.668140 8.932604 817.973999
478 0 1 2.393850 8.736229 817.026978
479 0 1 2.044210 8.450664 816.136963
480 0 1 2.156490 8.308689 815.161987
481 0 1 2.482930 7.835554 814.385986
482 0 1 2.689200 7.411559 813.549988
483 0 1 2.786750 7.402180 812.645020
484 0 1 2.648680 7.309214 811.697021
485 0 1 2.569360 7.207551 810.754028
486 0 1 2.471790 7.055783 809.773010
487 0 1 2.435250 7.108624 808.880981
488 0 1 2.365200 7.384425 807.942017
489 0 1 2.432780 7.498807 807.033997
490 0 1 2.686190 7.753705 806.216980
491 0 1 3.368970 8.133370 805.533020
492 0 1 3.908650 8.548739 804.794983
493 0 1 4.571810 8.755647 804.174988
494 0 1 5.096040 9.252200 803.617981
495 0 1 5.680040 9.835649 803.143982
496 0 1 6.291300 10.449540 802.846985
497 0 1 6.985720 11.008210 802.388000
498 0 1 7.613088 11.584370 802.062988
499 0 1 8.267397 12.183390 801.596985
500 0 1 8.788658 12.649580 800.957031
501 0 1 9.156530 12.959780 800.056030
502 0 1 9.171360 13.324200 799.146973
503 0 1 8.956331 13.548360 798.235962
504 0 1 8.558509 13.518351 797.372986
505 0 1 8.039178 13.581329 796.455994
506 0 1 7.881331 13.585820 795.490967
507 0 1 7.950074 13.453020 794.476990
508 0 1 8.080286 13.222890 793.557007
509 0 1 8.211329 13.139950 792.567017
510 0 1 8.358485 12.849190 791.643005
511 0 1 8.740841 12.537550 790.796021
512 0 1 8.771814 12.600830 789.843994
513 0 1 8.503295 12.495911 788.917969
514 0 1 7.995824 12.374500 788.028992
515 0 1 7.663945 12.138260 787.101990
516 0 1 7.256175 11.694340 786.325989
517 0 1 7.037681 10.972060 785.609009
518 0 1 6.733410 10.653130 784.718994
519 0 1 6.592360 10.355540 783.825989
520 0 1 6.532370 10.187440 782.844971
521 0 1 6.627580 10.021530 781.874023
522 0 1 6.538530 10.380840 781.023010
523 0 1 6.315410 10.789690 780.223999
524 0 1 6.135140 11.158550 779.354004
525 0 1 5.896550 11.513420 778.502991
526 0 1 5.931980 11.838060 777.591980
527 0 1 5.969040 11.852060 776.617004
528 0 1 5.930020 11.920650 775.718018
529 0 1 5.801820 11.797510 774.783020
530 0 1 5.858310 11.331700 773.969971
531 0 1 5.951890 10.961980 773.080994
532 0 1 6.104730 10.454679 772.250977
533 0 1 6.171700 9.935470 771.471985
534 0 1 6.550170 9.415320 770.789978
535 0 1 6.841970 8.674487 770.289978
536 0 1 7.464345 8.054829 769.950012
537 0 1 8.089478 7.562459 769.393005
538 0 1 8.842292 7.285140 768.825012
539 0 1 9.430620 6.831470 768.223022
540 0 1 9.772930 6.533760 767.356018
541 0 1 10.213610 6.194030 766.516968
542 0 1 10.418790 5.907680 765.591980
543 0 1 10.582211 5.979710 764.662964
544 0 1 10.683880 6.118840 763.679016
545 0 1 10.925880 6.316670 762.737000
546 0 1 11.337690 6.576170 761.890015
547 0 1 11.731470 6.869420 761.005005
548 0 1 12.056950 7.214137 760.179016
549 0 1 12.319019 7.275532 759.291992
550 0 1 12.541610 7.105467 758.353027
551 0 1 12.815250 6.986480 757.333984
552 0 1 13.019890 6.924300 756.406982
553 0 1 13.144650 6.890960 755.416016
554 0 1 13.536020 6.878530 754.544983
555 0 1 13.885500 6.944750 753.667969
556 0 1 14.227409 7.118725 752.747009
557 0 1 14.400440 7.422566 751.867004
558 0 1 14.594030 7.559985 750.948975
559 0 1 14.505040 7.667493 749.958008
560 0 1 14.421740 7.851562 749.020020
561 0 1 13.995000 8.132361 748.099976
562 0 1 13.524570 8.296043 747.216003
563 0 1 13.240459 8.218765 746.275024
564 0 1 12.907550 8.153708 745.372009
565 0 1 12.737070 8.218428 744.419006
566 0 1 12.587860 8.417334 743.442993
567 0 1 12.643641 8.420896 742.523987
568 0 1 12.534510 8.271172 741.559998
569 0 1 12.213470 8.159149 740.645996
570 0 1 11.751520 8.053089 739.791992
571 0 1 11.423940 8.414413 738.966003
572 0 1 11.063850 8.848952 738.224976
573 0 1 10.946350 8.900893 737.254028
574 0 1 10.872880 8.883047 736.318970
575 0 1 10.658500 8.698591 735.374023
576 0 1 10.322820 8.194042 734.651978
577 0 1 9.961750 7.598773 733.971008
578 0 1 9.700410 7.173354 733.103027
579 0 1 9.415620 6.706800 732.385010
580 0 1 9.222219 6.240480 731.547974
581 0 1 8.911856 6.009970 730.656006
582 0 1 8.648056 5.551290 729.835022
583 0 1 8.310144 5.230610 729.026001
584 0 1 7.773296 4.818870 728.315002
585 0 1 7.546355 4.518050 727.416870
586 0 1 7.205019 4.379050 726.492126
587 0 1 6.948930 4.071130 725.590332
588 0 1 6.809020 3.951440 724.619019
589 0 1 7.001254 4.126830 723.721985
590 0 1 7.253679 4.366640 722.812012
591 0 1 7.564517 4.887030 722.083008
592 0 1 7.813242 5.152960 721.178406
593 0 1 8.238357 5.157270 720.304932
594 0 1 8.476838 5.055560 719.451477
595 0 1 8.542299 4.946000 718.444885
596 0 1 8.385018 4.501640 717.606934
597 0 1 8.100369 3.977870 716.822205
598 0 1 7.958461 3.489860 716.030273
599 0 1 7.482842 2.838550 715.547485
600 0 1 6.759940 2.441330 714.974121
601 0 1 6.283470 2.130700 714.210205
602 0 1 5.770750 2.006630 713.400024
603 0 1 5.516620 1.815050 712.473816
604 0 1 5.576450 1.753790 711.536926
605 0 1 5.713800 1.891120 710.598389
606 0 1 6.071250 2.028480 709.657776
607 0 1 6.291880 2.074190 708.707214
608 0 1 6.730090 2.324900 707.843323
609 0 1 6.566000 2.608590 706.927917
610 0 1 6.691960 2.860890 705.980225
611 0 1 6.637540 3.357640 705.092590
612 0 1 6.330860 3.617540 704.216797
613 0 1 6.163680 3.874080 703.352478
614 0 1 6.057600 4.165300 702.434998
615 0 1 5.833850 4.754530 701.711914
616 0 1 5.718510 4.960890 700.824280
617 0 1 5.566720 4.943230 699.904602
618 0 1 5.258430 5.108700 698.991211
619 0 1 4.857980 5.479660 698.215332
620 0 1 4.325680 5.989470 697.497620
621 0 1 4.137740 6.467330 696.643799
622 0 1 3.727550 6.504860 695.805786
623 0 1 3.310750 6.799910 694.927673
624 0 1 3.069280 6.996080 694.028931
625 0 1 3.155480 7.247211 693.094116
626 0 1 3.426150 7.469589 692.135925
627 0 1 3.754660 7.790861 691.281677
628 0 1 4.301870 8.129039 690.632507
629 0 1 4.765300 8.338852 689.781006
630 0 1 5.061440 8.622024 688.898071
631 0 1 5.002920 8.814824 687.925293
632 0 1 5.140970 8.852033 686.936768
633 0 1 4.805760 8.459348 686.183105
634 0 1 4.257090 8.351573 685.340332
635 0 1 3.859760 8.204081 684.434875
636 0 1 3.575050 8.363476 683.562073
637 0 1 3.548030 8.145133 682.618286
638 0 1 3.445460 7.713531 681.758484
639 0 1 3.543760 7.353376 680.832397
640 0 1 3.643490 7.033314 679.896484
641 0 1 3.612480 6.793980 678.942627
642 0 1 3.452580 6.591650 678.007080
643 0 1 3.271100 6.642770 677.085876
644 0 1 3.225960 6.800500 676.181702
645 0 1 3.466280 6.835580 675.174500
646 0 1 3.587390 6.806630 674.255981
647 0 1 3.798980 7.061137 673.301819
648 0 1 3.885650 7.542390 672.523499
649 0 1 3.711780 7.881352 671.661316
650 0 1 3.304340 7.947892 670.806519
651 0 1 3.488420 7.975365 669.784302
652 0 1 3.824950 7.841228 668.888672
653 0 1 4.245040 8.033231 668.062012
654 0 1 4.654760 7.953305 667.221619
655 0 1 4.924320 7.683892 666.363098
656 0 1 5.428420 7.646621 665.608093
657 0 1 5.898990 7.465102 664.800415
658 0 1 6.152490 7.422281 663.853210
659 0 1 6.505970 7.688963 662.937988
660 0 1 6.770460 8.233251 662.121399
661 0 1 6.971980 8.835890 661.389771
662 0 1 7.322660 9.431230 660.747009
663 0 1 7.641461 9.837590 659.911621
664 0 1 7.939148 9.995440 658.960876
665 0 1 8.179488 10.130970 657.974426
666 0 1 8.302464 10.089260 656.996582
667 0 1 8.190879 10.197300 656.000916
668 0 1 8.049593 10.224130 655.094177
669 0 1 8.096155 10.125470 654.067871
670 0 1 8.229974 10.054530 653.118530
671 0 1 8.569059 9.833770 652.274109
672 0 1 8.771876 9.871360 651.338379
673 0 1 8.870854 9.394650 650.421509
674 0 1 8.721952 8.896273 649.459229
675 0 1 8.527207 8.219909 648.787903
676 0 1 8.175484 7.673768 648.029724
677 0 1 7.739904 7.269969 647.290283
678 0 1 7.108446 6.972000 646.622192
679 0 1 6.340700 6.891860 646.041626
680 0 1 5.703410 6.555030 645.400269
681 0 1 5.172780 6.079270 644.762329
682 0 1 5.015440 5.706280 643.831177
683 0 1 4.792370 5.351670 642.964111
684 0 1 4.441950 5.187660 642.072510
685 0 1 4.055730 5.219860 641.137512
686 0 1 3.740210 5.038650 640.223999
687 0 1 3.317550 4.748720 639.379822
688 0 1 3.153840 4.650340 638.376709
689 0 1 3.117080 4.818820 637.384521
690 0 1 2.745330 4.918390 636.498352
691 0 1 2.235070 5.068530 635.677002
692 0 1 2.029850 5.410360 634.776123
693 0 1 1.872860 5.890300 633.962708
694 0 1 1.829020 6.140170 633.068359
695 0 1 1.992870 6.305170 632.044739
696 0 1 2.439650 6.501960 631.133728
697 0 1 3.044350 6.597670 630.408508
698 0 1 3.634310 6.618080 629.605042
699 0 1 4.407330 6.762290 629.084778
700 0 1 5.174240 7.272381 628.801208
701 0 1 5.817720 7.638845 628.157898
702 0 1 6.478090 8.010515 627.455688
703 0 1 6.975800 8.206893 626.709717
704 0 1 7.311707 8.129076 625.793091
705 0 1 7.812635 7.990823 624.981140
706 0 1 8.240866 7.795345 624.170532
707 0 1 8.918455 7.908522 623.492065
708 0 1 9.681720 7.995336 622.885315
709 0 1 10.347700 8.111451 622.203186
710 0 1 10.844160 8.236184 621.438232
711 0 1 11.355500 8.571440 620.659851
712 0 1 11.749420 8.801573 619.824463
713 0 1 12.266090 8.871674 619.012329
714 0 1 12.681320 9.050760 618.197510
715 0 1 12.981541 9.274130 617.307190
716 0 1 13.004610 9.353980 616.352417
717 0 1 13.098070 9.331110 615.432190
718 0 1 13.494989 9.393590 614.574585
719 0 1 13.758280 9.335330 613.631287
720 0 1 13.881130 9.221380 612.747314
721 0 1 13.810340 8.843647 611.890991
722 0 1 13.424630 8.482936 610.993591
723 0 1 13.141390 7.960308 610.191589
724 0 1 12.867200 7.432818 609.449585
725 0 1 12.827641 6.998430 608.559204
726 0 1 13.055930 6.650810 607.719299
727 0 1 13.348530 6.424910 606.865906
728 0 1 13.763420 6.528490 605.999023
729 0 1 13.945419 6.468490 605.017883
730 0 1 14.212550 6.684670 604.123596
731 0 1 14.508600 6.839780 603.207275
732 0 1 14.601561 7.048259 602.241272
733 0 1 14.465530 7.265712 601.319580
734 0 1 14.254120 7.352796 600.415894
735 0 1 14.046200 7.988500 599.662903
736 0 1 14.127689 8.555942 598.803528
737 0 1 14.213860 8.800023 597.896912
738 0 1 13.949329 8.950357 596.919373
739 0 1 13.653610 9.220200 596.074829
740 0 1 13.251600 9.496680 595.234924
741 0 1 12.905160 9.813790 594.341614
742 0 1 12.374630 10.015480 593.567505
743 0 1 11.809990 9.989450 592.789673
744 0 1 11.178150 9.769580 592.164795
745 0 1 10.404790 9.766950 591.561401
746 0 1 9.588000 9.829270 590.841125
747 0 1 8.977818 9.942801 590.119629
748 0 1 8.783505 9.904980 589.173889
749 0 1 8.564324 9.873330 588.206421
750 0 1 8.276333 9.746980 587.311218
751 0 1 7.945606 9.752230 586.454712
752 0 1 7.259030 9.840380 585.798401
753 0 1 6.695930 9.884350 585.029297
754 0 1 6.185970 9.819070 584.212585
755 0 1 5.655160 9.799270 583.439209
756 0 1 5.233190 9.421260 582.659424
757 0 1 4.808270 8.695862 582.147278
758 0 1 4.553890 7.962625 581.632568
759 0 1 4.492650 7.209464 581.053772
760 0 1 4.382130 6.248990 580.631775
761 0 1 4.242210 5.518110 580.100830
762 0 1 4.144890 4.882500 579.304810
763 0 1 3.855460 4.255330 578.632996
764 0 1 4.020340 3.827690 577.758972
765 0 1 4.160110 3.374560 576.982422
766 0 1 4.111300 3.076050 576.066406
767 0 1 4.174560 2.862550 575.140625
768 0 1 4.363110 2.689870 574.182190
769 0 1 4.938350 2.530520 573.383423
770 0 1 5.403640 2.450320 572.546997
771 0 1 5.902840 2.274570 571.787903
772 0 1 6.583650 2.136400 571.124390
773 0 1 6.971300 2.242570 570.262390
774 0 1 7.322360 2.268880 569.360474
775 0 1 7.448203 2.406510 568.485718
776 0 1 7.705259 2.573200 567.588501
777 0 1 8.049244 2.738890 566.601990
778 0 1 8.266691 2.823920 565.670593
779 0 1 8.411961 2.929410 564.732788
780 0 1 8.436793 2.838640 563.785278
781 0 1 8.296517 3.089910 562.833923
782 0 1 8.074540 3.389610 561.894897
783 0 1 7.727290 3.578820 560.966309
784 0 1 7.323363 3.565230 560.131897
785 0 1 7.090982 3.762620 559.195374
786 0 1 6.896490 3.803850 558.257874
787 0 1 6.413470 4.014690 557.429321
788 0 1 6.152030 3.954520 556.567383
789 0 1 6.124660 3.681260 555.606079
790 0 1 6.213980 3.750420 554.613403
791 0 1 6.478040 4.140950 553.771484