LAMMPS data file via MDAnalysis

        1000  atoms
        1000  bonds
        1000  angles
           0  dihedrals
           0  impropers

           1  atom types
           1  bond types
           1  angle types
           0  dihedral types
           0  improper types

0.000000 16.000000 xlo xhi
0.000000 16.000000 ylo yhi
0.000000 1257.000000 zlo zhi


Masses

1 1.000000

Atoms

1 0 1 7.596443 4.310390 454.640991
2 0 1 8.209283 4.487330 455.403992
3 0 1 8.873110 4.581980 456.093994
4 0 1 9.532440 4.570960 456.819000
5 0 1 10.004680 4.209330 457.572021
6 0 1 10.195550 4.090300 458.531982
7 0 1 10.217830 3.839190 459.544983
8 0 1 9.669520 3.620470 460.377991
9 0 1 9.045830 3.608980 461.218018
10 0 1 8.544077 3.965620 461.987000
11 0 1 7.920851 4.052570 462.687012
12 0 1 7.530389 4.351270 463.442993
13 0 1 7.206081 4.583760 464.341980
14 0 1 6.821170 4.818680 465.167999
15 0 1 6.568930 4.868180 466.085022
16 0 1 6.451400 4.654240 467.005005
17 0 1 6.372610 4.428250 467.911987
18 0 1 6.244310 4.241180 468.873993
19 0 1 6.249860 4.304710 469.858002
20 0 1 6.256630 4.361350 470.787994
21 0 1 6.467470 4.591250 471.674988
22 0 1 6.756650 5.023620 472.502014
23 0 1 7.070355 5.590050 473.348022
24 0 1 7.257944 6.135400 474.114014
25 0 1 7.063819 6.550300 474.886993
26 0 1 6.889420 7.008790 475.697998
27 0 1 6.788230 6.770030 476.635010
28 0 1 6.687030 6.648620 477.598022
29 0 1 6.774340 6.524670 478.557983
30 0 1 6.865990 6.525130 479.554016
31 0 1 6.755420 6.206480 480.432983
32 0 1 6.691950 6.303660 481.395020
33 0 1 6.575740 6.174510 482.358002
34 0 1 6.729860 6.053660 483.291016
35 0 1 6.857390 5.987410 484.154999
36 0 1 7.137419 5.742240 485.024994
37 0 1 7.098263 5.292390 485.932007
38 0 1 7.255205 5.186260 486.880981
39 0 1 7.110232 5.114490 487.843994
40 0 1 7.012794 5.058840 488.776978
41 0 1 6.903120 5.377660 489.669983
42 0 1 6.974380 5.493110 490.647003
43 0 1 6.946690 5.932350 491.475006
44 0 1 6.753270 6.444950 492.356995
45 0 1 6.719620 7.147711 493.075012
46 0 1 6.623910 7.861549 493.747009
47 0 1 6.640080 8.507604 494.432007
48 0 1 6.679990 9.115590 495.148987
49 0 1 6.716870 9.934700 495.752014
50 0 1 6.567300 10.685580 496.339996
51 0 1 6.394310 11.488660 496.912994
52 0 1 6.489670 12.179310 497.569000
53 0 1 6.892470 12.587450 498.328003
54 0 1 7.440765 13.049740 499.098999
55 0 1 7.812239 13.238450 500.015991
56 0 1 8.188167 13.257320 500.856995
57 0 1 8.516676 13.102770 501.713013
58 0 1 8.773034 12.909990 502.554993
59 0 1 8.881383 12.561240 503.460999
60 0 1 9.159310 12.589130 504.390991
61 0 1 9.348640 12.930190 505.312012
62 0 1 9.827230 13.069310 506.208984
63 0 1 10.150770 13.099430 507.128998
64 0 1 10.211570 13.043750 508.088989
65 0 1 10.137360 12.748880 509.005005
66 0 1 10.164930 12.652060 509.964996
67 0 1 9.906040 12.580999 510.941010
68 0 1 9.718220 12.638161 511.872986
69 0 1 9.687550 12.601330 512.887024
70 0 1 9.666950 12.286261 513.752014
71 0 1 9.789890 11.831540 514.575012
72 0 1 9.603951 11.433580 515.417969
73 0 1 9.263260 11.079130 516.249023
74 0 1 9.266750 10.538660 516.997986
75 0 1 9.166990 9.988360 517.788025
76 0 1 8.874045 9.172920 518.247009
77 0 1 8.861523 8.421059 518.807007
78 0 1 8.648607 7.772771 519.515015
79 0 1 8.397699 7.121820 520.286987
80 0 1 8.333713 6.761780 521.280029
81 0 1 7.992728 6.555010 522.174011
82 0 1 7.546899 6.426080 523.018005
83 0 1 7.243991 6.043690 523.848999
84 0 1 6.872920 5.759560 524.617981
85 0 1 6.743940 5.352580 525.533997
86 0 1 6.487350 5.267480 526.473999
87 0 1 5.727220 5.097700 527.073975
88 0 1 5.058990 5.078150 527.744019
89 0 1 4.657380 4.840070 528.571106
90 0 1 4.194550 4.757370 529.374878
91 0 1 3.793280 4.802970 530.291199
92 0 1 3.368480 4.832320 531.202576
93 0 1 2.980160 5.117400 532.030701
94 0 1 2.746810 5.232270 532.972534
95 0 1 2.723040 5.218420 533.941406
96 0 1 2.394750 5.401040 534.791809
97 0 1 2.299740 5.768850 535.660278
98 0 1 2.427850 6.102130 536.507385
99 0 1 2.845030 6.284580 537.348022
100 0 1 3.258880 6.464780 538.200317
101 0 1 3.598530 6.758570 539.088806
102 0 1 4.083020 6.855640 539.884583
103 0 1 4.363760 6.820230 540.888000
104 0 1 4.767330 6.725620 541.767700
105 0 1 4.682890 6.854880 542.774902
106 0 1 4.540880 6.852470 543.722168
107 0 1 4.534990 6.871100 544.640686
108 0 1 4.771010 6.788540 545.535522
109 0 1 4.837750 6.694810 546.434875
110 0 1 4.861080 6.474630 547.391174
111 0 1 4.847110 6.280050 548.362000
112 0 1 4.705380 6.177570 549.327515
113 0 1 4.756560 5.902300 550.277100
114 0 1 4.921950 5.791550 551.214600
115 0 1 5.102190 5.850230 552.176025
116 0 1 5.464820 6.171640 553.026794
117 0 1 5.753310 6.558780 553.852722
118 0 1 5.852230 6.998880 554.752502
119 0 1 5.675730 7.200826 555.737000
120 0 1 5.829060 7.415107 556.675903
121 0 1 5.585910 7.795211 557.560669
122 0 1 5.465810 8.166593 558.472900
123 0 1 5.553650 8.544316 559.371399
124 0 1 5.888050 9.007610 560.106384
125 0 1 6.403770 9.313840 560.913391
126 0 1 7.126130 9.368060 561.623169
127 0 1 7.916587 9.551750 562.110779
128 0 1 8.537402 9.728040 562.832214
129 0 1 9.079640 9.987600 563.581787
130 0 1 9.388470 10.278680 564.419006
131 0 1 9.639500 10.597380 565.341675
132 0 1 9.791510 10.894300 566.277283
133 0 1 9.666880 10.911551 567.230225
134 0 1 9.443120 10.708900 568.178711
135 0 1 9.013610 10.413820 568.941528
136 0 1 8.886850 9.976020 569.784424
137 0 1 9.183230 9.631660 570.613281
138 0 1 9.481620 9.286551 571.443298
139 0 1 9.602921 8.579051 572.140991
140 0 1 9.752640 8.001493 572.951721
141 0 1 9.833320 7.645922 573.853882
142 0 1 9.917030 7.284336 574.765076
143 0 1 9.615320 7.155943 575.693481
144 0 1 9.360020 6.970200 576.609680
145 0 1 9.171220 6.657790 577.549316
146 0 1 8.681130 6.494930 578.356079
147 0 1 8.089234 6.365110 579.088623
148 0 1 7.707750 6.837990 579.852783
149 0 1 7.624400 7.211510 580.727905
150 0 1 7.485636 7.588565 581.608582
151 0 1 7.484608 7.863515 582.554504
152 0 1 7.564680 7.827748 583.618225
153 0 1 7.631818 7.829018 584.606018
154 0 1 7.550738 7.463306 585.518127
155 0 1 7.201057 6.990850 586.281311
156 0 1 7.339249 6.535050 587.158386
157 0 1 7.704075 6.323940 588.053711
158 0 1 7.758691 6.237850 589.026611
159 0 1 7.652786 6.264200 589.943787
160 0 1 7.631757 6.154830 590.931824
161 0 1 7.666310 6.196220 591.885132
162 0 1 7.619035 6.168630 592.882080
163 0 1 7.246394 6.168980 593.830688
164 0 1 6.808280 6.357890 594.742615
165 0 1 6.772360 6.379780 595.682312
166 0 1 6.774650 6.188900 596.601685
167 0 1 6.926740 6.046000 597.538818
168 0 1 7.044143 5.851930 598.471008
169 0 1 6.998270 5.723390 599.398376
170 0 1 7.189734 5.860170 600.285400
171 0 1 7.398768 6.339430 601.120789
172 0 1 7.862280 6.837110 601.858398
173 0 1 8.052879 6.952480 602.785706
174 0 1 8.102382 6.896120 603.768921
175 0 1 8.156310 6.731220 604.750183
176 0 1 8.505717 6.608700 605.682922
177 0 1 8.790321 6.376780 606.536377
178 0 1 8.716366 6.199390 607.522705
179 0 1 8.642824 6.316130 608.462708
180 0 1 8.577278 6.371730 609.396118
181 0 1 8.637094 6.478070 610.349976
182 0 1 8.570417 6.796580 611.248413
183 0 1 8.342195 7.126035 612.126709
184 0 1 8.439410 7.250792 613.089417
185 0 1 8.509515 7.436002 614.049988
186 0 1 8.759838 7.416430 614.991089
187 0 1 8.906382 7.539678 615.931091
188 0 1 8.916547 7.680046 616.936584
189 0 1 8.720049 7.711489 617.840820
190 0 1 8.275631 7.679633 618.751038
191 0 1 7.850821 7.833411 619.572266
192 0 1 7.436575 7.972887 620.447571
193 0 1 7.011665 7.975480 621.285400
194 0 1 6.658670 8.028281 622.176453
195 0 1 5.904050 8.263678 622.702881
196 0 1 5.433220 8.302318 623.533813
197 0 1 5.193100 8.292403 624.432495
198 0 1 5.119460 8.350352 625.413513
199 0 1 4.791070 8.179824 626.300232
200 0 1 4.557740 8.105305 627.267090
201 0 1 4.476230 7.799323 628.200195
202 0 1 4.520970 7.354653 629.095337
203 0 1 4.472180 7.089594 630.084839
204 0 1 4.239320 6.626610 630.919434
205 0 1 4.106300 6.399360 631.829041
206 0 1 3.951230 6.323510 632.779602
207 0 1 3.874670 6.589430 633.716187
208 0 1 4.050990 6.985560 634.550537
209 0 1 4.153980 7.693958 635.204163
210 0 1 4.608040 8.439207 635.689514
211 0 1 4.937620 9.171310 636.244751
212 0 1 5.527560 9.589070 636.894531
213 0 1 6.068690 10.101789 637.465576
214 0 1 6.360020 10.616910 638.216431
215 0 1 6.508340 10.813790 639.176697
216 0 1 6.500050 11.115590 640.163391
217 0 1 6.588840 11.326680 641.102905
218 0 1 6.692590 11.672920 642.000793
219 0 1 6.665400 12.105150 642.835876
220 0 1 6.475110 12.405750 643.714722
221 0 1 6.752540 12.763870 644.578979
222 0 1 7.006124 12.634150 645.518921
223 0 1 7.421684 12.617090 646.384399
224 0 1 7.847248 12.544930 647.258728
225 0 1 8.116589 12.566140 648.166077
226 0 1 8.404848 12.807910 649.083374
227 0 1 8.678485 12.720510 650.014587
228 0 1 8.780410 12.611460 650.968018
229 0 1 9.146780 12.517200 651.872498
230 0 1 9.027310 12.386200 652.808899
231 0 1 8.765414 12.333970 653.692688
232 0 1 8.441551 11.982480 654.556702
233 0 1 8.061504 11.653800 655.403992
234 0 1 7.629286 11.341430 656.217529
235 0 1 7.179405 11.164120 657.062500
236 0 1 6.618580 11.045040 657.828918
237 0 1 5.976380 10.885870 658.604492
238 0 1 5.396320 10.697940 659.417114
239 0 1 5.278570 10.731770 660.341492
240 0 1 5.531070 10.680030 661.269714
241 0 1 5.591670 10.944740 662.236511
242 0 1 5.696140 11.100130 663.156982
243 0 1 5.646800 11.105420 664.127075
244 0 1 5.522680 10.783160 665.006409
245 0 1 5.511310 10.577690 665.908081
246 0 1 5.378020 10.327500 666.789612
247 0 1 5.039610 10.168770 667.633911
248 0 1 4.674560 9.725020 668.386597
249 0 1 4.384730 9.333340 669.234009
250 0 1 4.413340 9.104590 670.255920
251 0 1 4.265620 8.974984 671.173096
252 0 1 4.151170 8.994360 672.074402
253 0 1 4.378810 8.977643 673.064697
254 0 1 4.568440 9.094740 673.983032
255 0 1 4.710250 9.159120 674.960999
256 0 1 4.841500 9.236200 675.941711
257 0 1 4.793660 9.455330 676.893799
258 0 1 4.969690 9.637780 677.869385
259 0 1 5.146230 9.480970 678.803711
260 0 1 5.702770 9.518400 679.636108
261 0 1 6.567000 9.477830 680.096313
262 0 1 7.237955 9.541400 680.756409
263 0 1 8.084958 9.579050 681.436096
264 0 1 8.648026 9.782100 682.151978
265 0 1 9.290740 9.920760 682.819214
266 0 1 10.065701 9.858790 683.463074
267 0 1 10.661510 10.029470 684.187683
268 0 1 11.243150 10.383260 684.860107
269 0 1 11.690269 10.837130 685.602295
270 0 1 12.113070 11.146200 686.459229
271 0 1 12.119471 11.509600 687.380920
272 0 1 11.824240 11.796050 688.250122
273 0 1 11.431300 12.099880 689.066406
274 0 1 11.304230 12.408470 689.960815
275 0 1 10.927290 12.704030 690.762085
276 0 1 10.453671 13.131041 691.486877
277 0 1 9.900720 13.200830 692.331177
278 0 1 9.532060 13.185440 693.214966
279 0 1 9.054210 13.319090 694.058105
280 0 1 8.659634 13.435830 694.886780
281 0 1 8.448026 13.668930 695.784912
282 0 1 8.324018 13.747100 696.718079
283 0 1 8.155872 13.822100 697.643799
284 0 1 7.879665 13.478940 698.560791
285 0 1 7.624554 12.903830 699.312500
286 0 1 7.207017 12.369280 700.025269
287 0 1 7.120706 12.028960 701.019409
288 0 1 7.147793 11.655040 701.953003
289 0 1 7.340486 11.372050 702.779724
290 0 1 7.469365 11.072780 703.633667
291 0 1 7.775467 10.928010 704.617310
292 0 1 8.086768 10.737850 705.501831
293 0 1 8.429941 10.537240 706.422913
294 0 1 8.444472 10.246250 707.333679
295 0 1 8.495791 10.223750 708.310486
296 0 1 8.600313 10.294000 709.286682
297 0 1 8.668674 10.463220 710.246826
298 0 1 8.363623 10.154830 711.106689
299 0 1 8.385868 9.888200 712.050476
300 0 1 8.597708 9.790960 712.992310
301 0 1 8.455136 9.861960 713.901489
302 0 1 8.034542 9.983320 714.778992
303 0 1 8.030603 10.160140 715.733521
304 0 1 8.097032 10.272890 716.664673
305 0 1 7.962247 10.300660 717.643982
306 0 1 8.087304 10.305861 718.609314
307 0 1 7.934619 10.372271 719.555786
308 0 1 7.885047 10.204180 720.470276
309 0 1 7.677452 9.894030 721.353210
310 0 1 7.497118 9.796400 722.289978
311 0 1 7.113458 9.725900 723.118225
312 0 1 6.533430 9.511100 723.925171
313 0 1 5.947940 9.198440 724.621582
314 0 1 5.296290 9.202090 725.377319
315 0 1 4.900380 9.071050 726.205933
316 0 1 4.869980 9.055600 727.177307
317 0 1 4.866910 9.490940 727.994507
318 0 1 5.002210 9.823600 728.856018
319 0 1 4.970290 10.218560 729.747986
320 0 1 4.992420 10.300050 730.690002
321 0 1 4.857450 10.322001 731.698975
322 0 1 4.685920 10.229380 732.643982
323 0 1 4.697840 10.041560 733.606018
324 0 1 4.639640 10.251860 734.667969
325 0 1 4.698720 10.524200 735.608032
326 0 1 4.663420 10.776430 736.531006
327 0 1 4.516560 11.118020 737.440979
328 0 1 4.473820 11.408190 738.320984
329 0 1 4.546570 11.431450 739.327026
330 0 1 4.216620 11.312099 740.218994
331 0 1 4.439890 11.029360 741.104004
332 0 1 4.724500 10.683001 741.927002
333 0 1 4.889300 10.599880 742.924988
334 0 1 5.025050 10.263920 743.799988
335 0 1 5.294850 9.760430 744.528992
336 0 1 5.564470 9.241490 745.341980
337 0 1 5.867170 8.945045 746.271973
338 0 1 6.114720 8.729080 747.158997
339 0 1 6.371340 8.747502 748.098999
340 0 1 6.848000 8.878478 748.984985
341 0 1 7.265234 8.952468 749.874023
342 0 1 7.457284 8.788691 750.789978
343 0 1 7.459359 8.905785 751.710999
344 0 1 7.595417 9.043750 752.749023
345 0 1 7.905728 8.921354 753.660034
346 0 1 7.946524 8.782473 754.645996
347 0 1 7.915571 8.568607 755.643005
348 0 1 7.674190 8.029722 756.403992
349 0 1 7.854094 7.384556 757.051025
350 0 1 8.450346 6.704420 757.497986
351 0 1 8.853471 6.136070 758.169006
352 0 1 9.015590 5.668500 759.063965
353 0 1 9.301170 5.305430 759.958008
354 0 1 9.059990 4.991510 760.843018
355 0 1 9.026630 4.318790 761.507996
356 0 1 9.232840 3.906020 762.309021
357 0 1 9.576930 3.591040 763.186035
358 0 1 9.809150 3.430710 764.096985
359 0 1 9.876630 3.339790 765.062012
360 0 1 9.847170 3.527090 766.023987
361 0 1 9.523800 3.756310 766.934998
362 0 1 9.256480 3.801890 767.905029
363 0 1 8.996332 3.832580 768.815002
364 0 1 8.757697 4.041770 769.695007
365 0 1 8.919694 4.563670 770.476013
366 0 1 9.025000 4.565040 771.468994
367 0 1 8.735419 4.923320 772.307983
368 0 1 8.647831 5.435950 773.096008
369 0 1 8.833410 6.113590 773.789001
370 0 1 8.836885 6.642440 774.525024
371 0 1 9.159700 7.092994 775.346985
372 0 1 9.304560 7.729988 776.014038
373 0 1 9.340050 8.481153 776.679016
374 0 1 9.126550 9.173190 777.265991
375 0 1 8.719735 9.968440 777.641968
376 0 1 8.389726 10.731040 778.125977
377 0 1 8.147905 11.538130 778.572021
378 0 1 7.747773 12.145679 779.205994
379 0 1 7.221692 12.785860 779.671021
380 0 1 6.538660 13.013390 780.346008
381 0 1 6.053860 13.367250 781.124023
382 0 1 5.670940 13.560220 781.989990
383 0 1 5.457910 13.405860 782.901978
384 0 1 5.335450 13.372140 783.848999
385 0 1 5.344540 13.417960 784.796021
386 0 1 5.550210 13.417630 785.708984
387 0 1 5.379810 13.225790 786.585022
388 0 1 5.215290 12.909599 787.549011
389 0 1 5.304450 12.678640 788.531982
390 0 1 5.188870 12.749770 789.466003
391 0 1 5.079320 12.950729 790.424011
392 0 1 5.046780 13.248610 791.301025
393 0 1 5.016920 13.740030 792.145020
394 0 1 5.435700 14.036100 792.971985
395 0 1 5.776840 14.203470 793.818970
396 0 1 6.066410 14.136129 794.781982
397 0 1 6.558460 14.088890 795.648987
398 0 1 6.922050 13.912920 796.514038
399 0 1 6.955710 13.533051 797.390015
400 0 1 7.205729 13.071370 798.166992
401 0 1 7.255710 12.835979 799.075012
402 0 1 7.398553 12.411290 799.903992
403 0 1 7.566711 11.935040 800.813965
404 0 1 7.657237 11.741830 801.802979
405 0 1 7.722364 11.378520 802.679993
406 0 1 7.891969 11.227440 803.599976
407 0 1 7.678846 11.050180 804.536987
408 0 1 7.482917 10.916830 805.481995
409 0 1 7.235316 10.804440 806.509033
410 0 1 7.058946 10.527560 807.429016
411 0 1 7.044255 10.277210 808.354004
412 0 1 7.292852 10.062230 809.291992
413 0 1 7.714459 9.976960 810.216003
414 0 1 7.828457 9.933510 811.171021
415 0 1 7.998713 9.871760 812.135986
416 0 1 8.259384 9.801400 813.061035
417 0 1 8.541864 9.912370 813.964966
418 0 1 8.640779 9.763860 814.971008
419 0 1 8.764016 9.596990 815.872986
420 0 1 8.943039 9.382770 816.812988
421 0 1 9.194060 9.329200 817.697998
422 0 1 9.149470 9.156060 818.687012
423 0 1 8.930904 9.280670 819.565979
424 0 1 8.646250 9.324150 820.536987
425 0 1 8.263316 9.434970 821.424988
426 0 1 7.920181 9.719290 822.318970
427 0 1 7.450402 10.035419 823.132996
428 0 1 6.911190 10.409679 823.880981
429 0 1 6.318970 10.774000 824.577026
430 0 1 5.795990 11.076150 825.318970
431 0 1 5.240650 11.110260 826.063965
432 0 1 4.628570 11.084249 826.830994
433 0 1 3.993840 10.880890 827.578003
434 0 1 3.307430 10.541300 828.150024
435 0 1 2.821210 10.053370 828.864014
436 0 1 2.619210 9.562490 829.640015
437 0 1 2.628080 8.951991 830.432983
438 0 1 2.529060 8.414743 831.287964
439 0 1 2.433990 7.968853 832.091003
440 0 1 2.331250 7.535806 832.942017
441 0 1 2.512800 7.110297 833.723999
442 0 1 2.795990 6.552890 834.438965
443 0 1 3.238110 6.120000 835.192017
444 0 1 3.517150 5.778590 836.021973
445 0 1 4.079070 5.438560 836.763000
446 0 1 4.567820 5.129020 837.531982
447 0 1 5.336230 4.916010 838.110962
448 0 1 6.194330 4.518000 838.466980
449 0 1 7.097345 4.206660 838.755981
450 0 1 7.988771 3.761100 838.591003
451 0 1 8.777795 3.584360 838.145020
452 0 1 9.345360 3.460410 837.346985
453 0 1 9.956090 3.564670 836.630005
454 0 1 10.556970 3.896590 835.801025
455 0 1 11.143120 4.085660 835.068970
456 0 1 11.585250 4.212020 834.202026
457 0 1 12.117559 4.226220 833.377991
458 0 1 12.555360 4.183500 832.518005
459 0 1 12.907230 4.445020 831.705017
460 0 1 13.060270 4.675440 830.780029
461 0 1 13.191530 4.664870 829.851990
462 0 1 13.103870 4.795350 828.910034
463 0 1 12.842609 5.057030 828.000000
464 0 1 12.478460 5.283920 827.114014
465 0 1 12.195971 5.454070 826.164001
466 0 1 11.700490 5.605000 825.348022
467 0 1 11.358210 5.655810 824.393982
468 0 1 11.235700 5.836920 823.395020
469 0 1 11.365730 6.090170 822.478027
470 0 1 11.106940 6.695010 821.679993
471 0 1 10.850260 7.103688 820.737000
472 0 1 11.009420 7.469171 819.841980
473 0 1 11.215530 7.977790 819.002991
474 0 1 11.199620 8.545773 818.205017
475 0 1 11.009470 9.067070 817.458008
476 0 1 10.634360 9.555610 816.620972
477 0 1 10.299180 9.744440 815.744995
478 0 1 10.169920 9.890980 814.812012
479 0 1 9.910710 10.205060 813.968018
480 0 1 9.635380 10.402930 813.018005
481 0 1 9.373640 10.829050 812.218018
482 0 1 9.039840 11.039750 811.299011
483 0 1 8.891557 10.954550 810.380005
484 0 1 9.027020 10.871240 809.460022
485 0 1 8.839437 10.812110 808.536011
486 0 1 8.612536 10.668670 807.661011
487 0 1 8.370467 10.488240 806.801025
488 0 1 8.663702 10.189650 805.893005
489 0 1 8.851518 10.302740 804.934998
490 0 1 8.865935 10.289490 803.964966
491 0 1 9.076220 10.018990 803.077026
492 0 1 9.329741 9.442750 802.315979
493 0 1 9.296790 8.633050 801.848999
494 0 1 8.983050 7.915855 801.273010
495 0 1 8.376863 7.663799 800.489014
496 0 1 7.747931 7.505582 799.716003
497 0 1 7.335927 7.033465 798.988037
498 0 1 7.009959 6.940350 798.085022
499 0 1 6.275920 6.907420 797.450989
500 0 1 5.625320 6.643330 796.817017
501 0 1 5.300170 6.140520 796.091003
502 0 1 5.065630 5.736150 795.260986
503 0 1 4.783480 5.741880 794.359009
504 0 1 4.887540 5.872750 793.401001
505 0 1 4.803370 5.862700 792.521973
506 0 1 4.598720 5.759630 791.601013
507 0 1 4.649630 5.615580 790.648010
508 0 1 4.502330 5.658420 789.656982
509 0 1 4.275430 6.038860 788.781982
510 0 1 4.145430 6.589430 787.968994
511 0 1 4.304840 7.037065 787.099976
512 0 1 4.257070 7.148822 786.119995
513 0 1 4.125240 7.299696 785.182983
514 0 1 3.685800 7.744933 784.484009
515 0 1 3.472850 8.253487 783.729004
516 0 1 3.496310 8.870047 782.963013
517 0 1 3.500490 9.716190 782.520996
518 0 1 3.668240 10.414780 781.958008
519 0 1 3.802580 11.105120 781.325012
520 0 1 4.034940 11.778080 780.664001
521 0 1 4.059980 12.480320 780.052979
522 0 1 4.098970 12.945960 779.182983
523 0 1 4.292570 13.198490 778.281982
524 0 1 4.797800 13.440910 777.523010
525 0 1 5.149300 13.577200 776.634033
526 0 1 5.037030 13.560900 775.702026
527 0 1 4.811500 13.469640 774.791992
528 0 1 4.455110 13.151640 773.912964
529 0 1 4.308650 12.546410 773.167969
530 0 1 4.200140 12.125780 772.330017
531 0 1 4.431470 11.732960 771.484009
532 0 1 4.727590 11.500050 770.575989
533 0 1 5.017870 11.243810 769.723022
534 0 1 5.218710 10.982700 768.823975
535 0 1 5.177980 10.516300 767.932983
536 0 1 4.959880 9.967250 767.140015
537 0 1 4.867510 9.831240 766.158997
538 0 1 4.658500 9.742330 765.186035
539 0 1 4.772480 9.458700 764.276001
540 0 1 4.969230 9.246890 763.351990
541 0 1 4.894640 9.005020 762.380981
542 0 1 4.824680 8.966415 761.426025
543 0 1 4.730870 8.940902 760.478027
544 0 1 4.942640 9.052390 759.523010
545 0 1 5.432090 9.215620 758.690979
546 0 1 5.556080 9.586400 757.731018
547 0 1 5.491890 9.600620 756.755981
548 0 1 5.357990 9.771770 755.789001
549 0 1 5.479260 10.030180 754.903015
550 0 1 5.668090 10.353189 754.015991
551 0 1 5.819630 10.665570 753.086975
552 0 1 6.201870 10.496190 752.240967
553 0 1 6.746260 10.301110 751.476013
554 0 1 7.315095 9.936200 750.843018
555 0 1 7.889321 9.704380 750.059998
556 0 1 8.635026 9.488070 749.411987
557 0 1 9.096140 9.133940 748.666016
558 0 1 9.648720 8.761617 747.890015
559 0 1 10.218710 8.557043 747.190002
560 0 1 10.507150 8.570195 746.280029
561 0 1 11.084070 8.560815 745.403992
562 0 1 11.444760 8.394647 744.516968
563 0 1 11.636869 8.335211 743.598022
564 0 1 11.630060 8.442348 742.599976
565 0 1 11.887210 8.410021 741.653015
566 0 1 11.827520 8.401664 740.685974
567 0 1 11.596380 8.631248 739.822021
568 0 1 11.432730 8.908904 738.953979
569 0 1 11.386140 9.398780 738.039001
570 0 1 11.135170 9.750669 737.221985
571 0 1 11.173070 10.107540 736.348022
572 0 1 11.569270 10.263741 735.385986
573 0 1 11.908470 10.479530 734.520996
574 0 1 12.226320 10.750299 733.645020
575 0 1 12.181900 10.771720 732.731995
576 0 1 12.210979 10.651230 731.765015
577 0 1 12.221160 10.395790 730.815002
578 0 1 12.192970 9.863450 730.021973
579 0 1 11.878310 9.305820 729.296021
580 0 1 11.664270 8.620948 728.664978
581 0 1 11.276320 8.042459 728.023987
582 0 1 10.701970 7.605495 727.313232
583 0 1 10.437830 7.185714 726.522705
584 0 1 10.131060 6.713130 725.776123
585 0 1 9.747060 6.312510 724.978516
586 0 1 9.376640 6.187400 724.045288
587 0 1 9.217560 5.864040 723.136475
588 0 1 9.016340 5.340930 722.398376
589 0 1 8.997206 4.864360 721.568298
590 0 1 9.198771 4.541930 720.695618
591 0 1 9.397770 4.550080 719.802368
592 0 1 9.930110 4.403320 718.973083
593 0 1 10.534451 3.997150 718.334290
594 0 1 11.017920 3.758490 717.593079
595 0 1 11.347370 3.559200 716.713318
596 0 1 11.349950 3.264120 715.861511
597 0 1 11.457809 3.179970 714.964966
598 0 1 11.483191 3.169720 714.010986
599 0 1 11.816660 3.490370 713.127014
600 0 1 12.123800 3.982780 712.335815
601 0 1 12.087570 4.625760 711.564575
602 0 1 11.809250 4.879290 710.681580
603 0 1 11.626200 5.117810 709.790527
604 0 1 11.629980 5.089130 708.808594
605 0 1 11.665150 4.937010 707.898621
606 0 1 11.532420 4.804770 706.960327
607 0 1 11.456920 4.786800 705.984924
608 0 1 11.197580 4.852180 705.017578
609 0 1 10.896910 4.922700 704.078186
610 0 1 10.836520 5.146880 703.135681
611 0 1 10.983150 5.421410 702.236816
612 0 1 10.902150 5.674390 701.323608
613 0 1 11.208950 5.804450 700.473816
614 0 1 11.473090 5.713970 699.505005
615 0 1 11.616920 5.676120 698.535278
616 0 1 11.907740 5.686970 697.637085
617 0 1 12.126020 5.808440 696.693420
618 0 1 12.247129 5.882970 695.725220
619 0 1 12.453130 5.867510 694.738403
620 0 1 12.932280 5.930600 693.932007
621 0 1 13.607320 6.083510 693.195923
622 0 1 14.097760 6.007750 692.404907
623 0 1 14.447800 6.209390 691.525269
624 0 1 14.498020 6.395210 690.582092
625 0 1 14.417350 6.446690 689.643616
626 0 1 14.275101 6.634350 688.714111
627 0 1 14.189930 6.964840 687.819092
628 0 1 14.019770 7.231202 686.924377
629 0 1 13.874030 7.593130 685.939209
630 0 1 13.781691 7.877980 684.940979
631 0 1 13.820459 8.098091 683.980774
632 0 1 13.755489 8.310904 683.092712
633 0 1 13.231990 8.179777 682.367188
634 0 1 12.699780 8.259242 681.578308
635 0 1 12.197420 8.242310 680.788330
636 0 1 11.611480 8.271106 680.030884
637 0 1 11.081260 8.369480 679.225220
638 0 1 10.670460 8.504250 678.382385
639 0 1 10.224780 9.028510 677.627808
640 0 1 9.779680 9.635590 676.983826
641 0 1 9.255260 9.848120 676.198730
642 0 1 8.825922 10.216640 675.437073
643 0 1 8.431525 10.737010 674.708801
644 0 1 8.377593 11.188670 673.814819
645 0 1 8.448476 11.726610 672.948608
646 0 1 8.427324 12.089530 672.089600
647 0 1 8.720312 12.207850 671.185791
648 0 1 8.898283 12.428080 670.265991
649 0 1 9.005790 12.541580 669.259094
650 0 1 8.920582 12.898701 668.299683
651 0 1 8.708814 13.301180 667.479919
652 0 1 8.690861 13.870070 666.665894
653 0 1 8.932349 14.251440 665.746887
654 0 1 9.089900 14.368620 664.755798
655 0 1 9.305830 14.348160 663.793579
656 0 1 9.541690 14.268909 662.791382
657 0 1 9.170090 14.267910 661.887817
658 0 1 8.590677 14.182240 661.160889
659 0 1 8.203440 14.052520 660.311829
660 0 1 7.975076 13.969900 659.342773
661 0 1 7.495105 14.159060 658.469482
662 0 1 7.004748 14.187019 657.658203
663 0 1 6.533770 14.024490 656.859497
664 0 1 5.947060 13.812651 656.144531
665 0 1 5.270080 13.626520 655.496216
666 0 1 4.764230 13.866819 654.764221
667 0 1 4.681120 13.915051 653.802002
668 0 1 4.668690 13.634080 652.873413
669 0 1 4.571900 13.300250 651.991394
670 0 1 4.459650 13.112120 651.013977
671 0 1 4.757480 13.156130 650.104370
672 0 1 4.857700 13.192770 649.187927
673 0 1 5.152320 13.307180 648.246277
674 0 1 5.358500 13.514690 647.348694
675 0 1 5.788030 13.818100 646.621887
676 0 1 6.057960 13.749710 645.685303
677 0 1 6.438910 13.935300 644.821228
678 0 1 6.515380 14.048000 643.903931
679 0 1 6.603240 14.292620 642.961121
680 0 1 6.955700 14.346500 642.054871
681 0 1 7.316254 14.376710 641.189575
682 0 1 7.853103 14.556630 640.386414
683 0 1 8.060651 14.492060 639.413086
684 0 1 8.314489 14.505910 638.466370
685 0 1 8.802935 14.341280 637.690918
686 0 1 9.593460 14.205959 637.111572
687 0 1 10.117229 13.873220 636.404724
688 0 1 10.581680 13.483820 635.653259
689 0 1 11.248500 13.148060 635.060913
690 0 1 11.885670 12.981120 634.380432
691 0 1 11.995871 12.692750 633.490723
692 0 1 12.136061 12.420910 632.548828
693 0 1 12.197010 12.063740 631.627075
694 0 1 12.418671 11.799800 630.740479
695 0 1 12.648590 11.002840 630.209290
696 0 1 12.769230 10.126590 629.972778
697 0 1 12.974350 9.205730 629.816223
698 0 1 13.396790 8.311726 629.588440
699 0 1 13.580430 7.600724 628.996826
700 0 1 13.467210 6.922710 628.322571
701 0 1 13.379049 6.063810 627.804016
702 0 1 13.338270 5.397400 627.088928
703 0 1 13.127200 4.961450 626.231445
704 0 1 12.749640 4.682310 625.404419
705 0 1 12.414040 4.426050 624.519836
706 0 1 11.911350 4.213740 623.749756
707 0 1 11.460381 3.936910 622.951904
708 0 1 10.870680 3.700230 622.218567
709 0 1 10.240020 3.491200 621.538269
710 0 1 9.759800 3.247460 620.799622
711 0 1 9.148840 3.244190 620.069763
712 0 1 8.648527 3.363220 619.258240
713 0 1 7.994667 3.181190 618.661743
714 0 1 7.375191 2.999660 617.923401
715 0 1 6.597780 3.113010 617.429382
716 0 1 5.892130 3.114900 616.771118
717 0 1 5.503590 2.960030 615.882690
718 0 1 5.104430 2.807230 615.031372
719 0 1 4.922800 2.999230 614.046387
720 0 1 5.182950 3.160350 613.110596
721 0 1 5.320540 3.256870 612.203918
722 0 1 5.534500 3.651380 611.315186
723 0 1 5.671000 4.174730 610.478394
724 0 1 6.211900 4.404800 609.735901
725 0 1 6.678200 4.425400 608.846802
726 0 1 6.869510 4.410260 607.929199
727 0 1 6.901940 3.980230 607.064697
728 0 1 7.243754 3.726200 606.203186
729 0 1 7.695739 3.796010 605.308228
730 0 1 7.683966 3.702200 604.382874
731 0 1 8.049436 3.700700 603.461426
732 0 1 8.032189 4.004770 602.504700
733 0 1 8.462540 4.073860 601.574097
734 0 1 8.479242 3.887010 600.593506
735 0 1 8.581475 3.983770 599.667603
736 0 1 8.672971 4.100990 598.741272
737 0 1 8.848033 4.428540 597.792969
738 0 1 9.226650 4.634990 596.908386
739 0 1 9.364190 5.139690 596.122803
740 0 1 9.273410 5.848810 595.513916
741 0 1 9.505930 6.558070 594.907104
742 0 1 9.688810 7.373790 594.477295
743 0 1 9.520540 8.317833 594.108826
744 0 1 9.249790 9.077100 593.612000
745 0 1 8.867489 9.461700 592.786987
746 0 1 8.390326 9.794200 592.008179
747 0 1 7.874700 9.912030 591.178284
748 0 1 7.301721 9.892430 590.431091
749 0 1 6.697660 9.900710 589.755005
750 0 1 6.358610 10.006080 588.902283
751 0 1 5.741440 10.370720 588.281311
752 0 1 4.910650 10.676701 587.817810
753 0 1 4.098010 10.784090 587.270874
754 0 1 3.643740 11.093850 586.451477
755 0 1 3.439820 11.418390 585.596313
756 0 1 3.518420 11.664630 584.703796
757 0 1 3.596620 12.028080 583.815125
758 0 1 3.733620 12.527110 582.979614
759 0 1 3.995170 12.694520 582.036926
760 0 1 4.326660 12.876300 581.193481
761 0 1 5.179190 13.012791 580.657288
762 0 1 5.890490 12.962151 580.034180
763 0 1 6.652940 12.985970 579.397278
764 0 1 7.525876 12.960600 578.950806
765 0 1 8.357186 12.911350 578.497803
766 0 1 9.218500 12.866350 578.052002
767 0 1 9.970119 12.783670 577.453796
768 0 1 10.688260 12.955959 576.868408
769 0 1 11.353670 13.281460 576.280029
770 0 1 11.864460 13.287069 575.505981
771 0 1 12.457060 12.999640 574.809875
772 0 1 13.070370 12.579580 574.235596
773 0 1 13.461840 12.173830 573.491577
774 0 1 13.784700 11.773820 572.678711
775 0 1 13.875310 11.511470 571.788025
776 0 1 13.616270 11.060600 570.960022
777 0 1 13.318310 10.671110 570.103577
778 0 1 13.075930 10.208220 569.267578
779 0 1 12.956141 9.941050 568.351196
780 0 1 12.634050 9.453140 567.519531
781 0 1 12.350030 8.969887 566.801514
782 0 1 11.792459 8.830695 566.031677
783 0 1 11.384800 8.505185 565.260193
784 0 1 11.225520 8.488249 564.321167
785 0 1 11.036819 8.325114 563.361206
786 0 1 11.039430 8.166915 562.445618
787 0 1 11.108660 8.004635 561.479919
788 0 1 11.358900 7.768536 560.572693
789 0 1 11.406350 7.483389 559.608826
790 0 1 11.482150 7.186309 558.697510