LAMMPS data file via MDAnalysis

        1000  atoms
        1000  bonds
        1000  angles
           0  dihedrals
           0  impropers

           1  atom types
           1  bond types
           1  angle types
           0  dihedral types
           0  improper types

0.000000 16.000000 xlo xhi
0.000000 16.000000 ylo yhi
0.000000 1257.000000 zlo zhi


Masses

1 1.000000

Atoms

1 0 1 5.936670 9.275270 445.958984
2 0 1 6.123970 8.663479 446.617004
3 0 1 6.307360 8.192150 447.364014
4 0 1 6.841560 7.828519 448.049988
5 0 1 7.189586 7.497034 448.856018
6 0 1 7.377849 7.082425 449.703003
7 0 1 7.562133 6.395220 450.421997
8 0 1 7.699058 5.809970 451.136993
9 0 1 7.847547 5.112420 451.760010
10 0 1 7.895625 4.579060 452.552979
11 0 1 8.236273 4.106900 453.325012
12 0 1 8.308967 3.467840 454.194000
13 0 1 8.733904 3.249760 455.069000
14 0 1 9.204170 3.207490 455.911987
15 0 1 9.739520 2.839790 456.671997
16 0 1 10.044730 2.534220 457.559998
17 0 1 10.434790 2.361070 458.483002
18 0 1 10.640471 2.333690 459.432007
19 0 1 10.935790 2.351740 460.343994
20 0 1 11.306270 2.529060 461.300995
21 0 1 11.694220 2.748290 462.160004
22 0 1 11.852300 3.372040 462.872009
23 0 1 11.932420 4.047980 463.549988
24 0 1 11.891750 4.883120 464.010010
25 0 1 11.761100 5.754600 464.429993
26 0 1 11.611670 6.576450 464.904999
27 0 1 11.749320 7.211769 465.557983
28 0 1 11.519860 7.480791 466.431000
29 0 1 11.522980 7.830480 467.325012
30 0 1 11.711060 8.310137 468.210999
31 0 1 12.313940 8.643120 468.977997
32 0 1 12.398650 8.932167 469.859009
33 0 1 12.527790 9.342190 470.752014
34 0 1 12.317949 9.865630 471.528992
35 0 1 12.056610 10.419400 472.200012
36 0 1 11.586650 10.750510 473.031006
37 0 1 11.321350 11.178910 473.798004
38 0 1 10.892390 11.342230 474.636993
39 0 1 10.649179 11.385040 475.572021
40 0 1 10.181459 11.163760 476.404999
41 0 1 9.656900 11.060730 477.197998
42 0 1 9.123300 10.541790 477.830994
43 0 1 8.754572 10.097330 478.640991
44 0 1 8.390830 9.957420 479.497009
45 0 1 7.794074 9.855220 480.226990
46 0 1 7.189166 9.672740 481.024994
47 0 1 6.861000 9.617970 481.968018
48 0 1 6.571520 9.633760 482.828003
49 0 1 6.193910 9.498060 483.697998
50 0 1 5.833370 9.393170 484.602997
51 0 1 5.588820 9.271350 485.488007
52 0 1 5.485160 9.240990 486.481995
53 0 1 5.161250 9.155290 487.360992
54 0 1 5.002100 8.923290 488.362000
55 0 1 5.260880 8.693352 489.276001
56 0 1 5.535260 8.433476 490.220001
57 0 1 5.908280 8.669619 491.072998
58 0 1 6.251540 9.033810 491.960022
59 0 1 6.525010 9.311020 492.820984
60 0 1 6.714790 9.637680 493.713013
61 0 1 6.582390 10.213680 494.496002
62 0 1 6.805960 10.825580 495.250000
63 0 1 6.801580 11.537200 495.988007
64 0 1 6.925440 12.200510 496.649994
65 0 1 7.266281 12.787670 497.348999
66 0 1 7.520670 12.617290 498.289978
67 0 1 7.358747 12.208429 499.139008
68 0 1 7.194830 11.811190 500.005005
69 0 1 6.922130 11.392450 500.839996
70 0 1 6.515320 10.553590 501.208008
71 0 1 6.106100 9.796530 501.752991
72 0 1 5.796010 9.399990 502.554993
73 0 1 5.560130 9.110330 503.437012
74 0 1 5.041180 8.893482 504.268982
75 0 1 4.657930 8.883830 505.141998
76 0 1 4.394710 9.026830 506.076996
77 0 1 4.160190 9.125010 507.048004
78 0 1 3.853200 9.403620 507.955017
79 0 1 3.556730 9.725310 508.819000
80 0 1 3.431740 10.103940 509.647003
81 0 1 3.249630 10.186260 510.544983
82 0 1 3.213080 10.693760 511.416016
83 0 1 3.287150 10.961740 512.403992
84 0 1 3.540650 11.205800 513.302002
85 0 1 3.924490 11.187099 514.177002
86 0 1 4.222890 10.878390 514.981018
87 0 1 4.342600 10.633200 515.818970
88 0 1 4.703660 10.074750 516.583984
89 0 1 4.998930 9.445000 517.245972
90 0 1 5.076830 8.915622 518.030029
91 0 1 5.070040 8.152518 518.700012
92 0 1 5.033980 7.487600 519.414978
93 0 1 5.053350 7.144852 520.244995
94 0 1 5.123630 6.726140 521.122009
95 0 1 5.327780 6.248700 521.885986
96 0 1 5.557790 5.931340 522.710999
97 0 1 5.733730 5.450400 523.580017
98 0 1 5.698330 5.180660 524.536011
99 0 1 5.794510 4.702330 525.367004
100 0 1 5.817280 4.332420 526.281006
101 0 1 5.821750 3.917660 527.127991
102 0 1 5.707110 3.866370 528.072021
103 0 1 5.817740 4.011700 529.050293
104 0 1 6.108440 4.081000 529.992004
105 0 1 6.487850 4.307720 530.837402
106 0 1 6.465330 4.791940 531.678223
107 0 1 6.363630 5.013040 532.589233
108 0 1 6.067580 4.971580 533.464722
109 0 1 5.624650 5.060770 534.287598
110 0 1 5.252170 5.065460 535.222717
111 0 1 5.170860 4.986240 536.225586
112 0 1 4.784910 5.090680 537.101318
113 0 1 4.239620 5.539440 537.672302
114 0 1 3.708930 6.110850 538.236206
115 0 1 3.404020 6.545820 539.063110
116 0 1 3.088910 7.057103 539.883789
117 0 1 3.006210 7.287487 540.795715
118 0 1 3.068370 7.656596 541.738281
119 0 1 3.130950 7.820373 542.646118
120 0 1 2.993030 8.113497 543.563416
121 0 1 2.656520 8.337804 544.472290
122 0 1 2.278280 8.343196 545.376709
123 0 1 2.186890 8.534625 546.315979
124 0 1 2.259370 8.858126 547.190186
125 0 1 2.367130 8.843594 548.130615
126 0 1 2.413400 9.055350 549.026611
127 0 1 2.442900 9.068900 549.970886
128 0 1 2.431000 8.984184 550.896729
129 0 1 2.194410 9.021990 551.822998
130 0 1 2.150770 8.983547 552.749023
131 0 1 2.323860 8.902403 553.717285
132 0 1 2.272030 8.983434 554.673401
133 0 1 2.335950 8.735257 555.621399
134 0 1 2.567430 8.284581 556.452026
135 0 1 2.770870 7.706362 557.235107
136 0 1 2.763740 7.194513 558.072388
137 0 1 3.096030 6.960460 558.898682
138 0 1 3.567990 6.927540 559.745300
139 0 1 3.820640 6.999780 560.644287
140 0 1 3.997850 7.464441 561.455994
141 0 1 4.398250 7.948978 562.231506
142 0 1 4.694260 8.263639 563.109497
143 0 1 4.985780 8.749087 563.974304
144 0 1 5.300570 9.204780 564.748718
145 0 1 6.074800 9.421721 565.282471
146 0 1 6.828120 9.534810 565.806091
147 0 1 7.489313 9.696080 566.515076
148 0 1 8.262016 9.637280 567.087524
149 0 1 8.687557 9.922120 567.902405
150 0 1 9.114920 10.158091 568.742981
151 0 1 9.110110 10.415000 569.706421
152 0 1 8.917826 10.684690 570.578186
153 0 1 8.641296 11.199570 571.324524
154 0 1 8.286911 11.701900 572.034424
155 0 1 7.939204 12.028760 572.933777
156 0 1 8.007980 12.510770 573.748169
157 0 1 8.076015 12.657850 574.692383
158 0 1 8.144542 12.715910 575.591797
159 0 1 8.082139 12.859819 576.564697
160 0 1 8.358658 13.137560 577.408386
161 0 1 8.850136 13.227890 578.210510
162 0 1 9.261430 12.870230 579.039612
163 0 1 9.580220 12.641300 579.956787
164 0 1 10.055040 12.447050 580.779114
165 0 1 10.225160 12.081890 581.776611
166 0 1 10.217080 11.658820 582.604797
167 0 1 10.114590 11.358931 583.558411
168 0 1 9.953880 11.344510 584.512878
169 0 1 9.676840 11.362910 585.397217
170 0 1 9.325480 11.039570 586.303528
171 0 1 9.096900 10.747070 587.218811
172 0 1 8.894324 10.458030 588.096008
173 0 1 8.648762 10.322050 589.035583
174 0 1 8.306125 9.938500 589.846497
175 0 1 7.863654 9.900380 590.750793
176 0 1 7.595585 9.918320 591.655090
177 0 1 7.497798 9.898750 592.676575
178 0 1 7.246800 9.645930 593.658508
179 0 1 7.130703 9.284120 594.495422
180 0 1 7.027239 8.927417 595.385376
181 0 1 6.824110 8.715767 596.266174
182 0 1 6.612220 8.267966 597.105591
183 0 1 6.314470 8.064878 598.072388
184 0 1 6.097180 7.976729 599.028076
185 0 1 5.915160 7.784429 599.986023
186 0 1 5.741800 7.491281 600.912598
187 0 1 5.617470 7.586664 601.897278
188 0 1 5.695300 7.769905 602.862976
189 0 1 5.746740 7.718010 603.901306
190 0 1 5.605890 7.554188 604.793823
191 0 1 5.271000 7.279791 605.655579
192 0 1 4.913570 6.755280 606.367493
193 0 1 4.250210 6.400080 606.942505
194 0 1 3.659240 5.929350 607.597412
195 0 1 3.274900 5.420470 608.338196
196 0 1 3.325590 5.247300 609.261597
197 0 1 3.576100 4.801720 610.089111
198 0 1 3.796410 4.288080 610.863220
199 0 1 4.180570 4.085490 611.753296
200 0 1 4.549820 4.168090 612.646423
201 0 1 4.549340 4.309650 613.606628
202 0 1 4.227180 4.394670 614.518799
203 0 1 4.084450 4.150770 615.473022
204 0 1 4.043230 3.685720 616.333374
205 0 1 4.235910 3.157820 617.205017
206 0 1 4.315330 2.953950 618.155212
207 0 1 4.602980 3.093730 619.040039
208 0 1 4.855430 3.605000 619.843567
209 0 1 5.248830 3.917040 620.656006
210 0 1 5.609680 4.018900 621.543152
211 0 1 5.728450 4.211360 622.442139
212 0 1 5.971450 4.622250 623.320007
213 0 1 6.051060 5.076000 624.154053
214 0 1 6.398510 5.084340 625.008301
215 0 1 6.517170 5.174190 626.007324
216 0 1 6.644180 5.614510 626.903687
217 0 1 6.396250 6.057420 627.670532
218 0 1 6.097460 6.597700 628.473633
219 0 1 5.549580 6.760020 629.189636
220 0 1 5.002460 6.741470 629.899292
221 0 1 4.498460 6.851820 630.668457
222 0 1 3.934910 6.876060 631.421143
223 0 1 3.417280 6.969360 632.252441
224 0 1 3.045610 6.897950 633.147339
225 0 1 2.811080 6.807980 634.011292
226 0 1 2.470580 6.657900 634.905396
227 0 1 2.312350 6.483380 635.877441
228 0 1 2.390180 6.213900 636.781128
229 0 1 2.346000 5.866680 637.684326
230 0 1 1.994300 5.633020 638.579529
231 0 1 1.905570 5.225620 639.519104
232 0 1 2.148450 5.068380 640.453003
233 0 1 2.565710 4.949400 641.321106
234 0 1 3.165210 4.955060 642.081116
235 0 1 3.755000 4.960970 642.859314
236 0 1 4.310360 4.870760 643.634277
237 0 1 4.751000 4.819420 644.495972
238 0 1 4.884060 4.702770 645.402710
239 0 1 5.311990 4.778110 646.286804
240 0 1 5.671330 4.493600 647.115417
241 0 1 6.090350 4.220800 647.967529
242 0 1 6.615300 3.979730 648.777222
243 0 1 7.313172 3.999710 649.423096
244 0 1 8.051105 3.952400 650.064819
245 0 1 8.683666 3.830780 650.811096
246 0 1 9.243920 3.692360 651.579529
247 0 1 9.622780 3.576680 652.451111
248 0 1 10.068550 3.516750 653.275208
249 0 1 10.464290 3.831830 654.061707
250 0 1 10.395770 4.121600 654.949829
251 0 1 10.286560 4.580800 655.832520
252 0 1 10.437930 5.158280 656.566711
253 0 1 10.868930 5.663000 657.259277
254 0 1 11.473340 6.024310 657.996826
255 0 1 11.903100 6.028360 658.811707
256 0 1 12.085170 5.894960 659.756409
257 0 1 12.069220 5.729500 660.772400
258 0 1 12.289490 5.533090 661.732422
259 0 1 12.549290 5.489990 662.683105
260 0 1 12.902620 5.144580 663.528015
261 0 1 13.175409 5.109320 664.444397
262 0 1 13.374060 5.204780 665.436096
263 0 1 13.445089 5.334470 666.382019
264 0 1 13.630070 5.544370 667.326111
265 0 1 13.662849 5.372720 668.296509
266 0 1 13.613110 5.355650 669.298584
267 0 1 13.224160 5.392510 670.231506
268 0 1 12.889080 5.030370 671.090393
269 0 1 12.659830 4.773840 671.966187
270 0 1 12.759000 4.560270 672.929016
271 0 1 12.820120 4.468090 673.922119
272 0 1 12.888599 4.386630 674.934814
273 0 1 12.888330 4.323950 675.922607
274 0 1 12.881670 4.092950 676.921875
275 0 1 12.598000 3.760580 677.834229
276 0 1 12.309720 3.650800 678.758728
277 0 1 11.961250 3.396390 679.614380
278 0 1 11.708941 3.503900 680.530396
279 0 1 11.770781 4.020820 681.397827
280 0 1 11.789770 4.205780 682.278503
281 0 1 11.649260 4.767440 683.049072
282 0 1 11.734680 5.250160 683.887573
283 0 1 11.813960 5.616030 684.723694
284 0 1 11.573610 5.832100 685.580017
285 0 1 11.386460 6.341120 686.376892
286 0 1 10.943780 6.752230 687.152893
287 0 1 10.560659 7.129687 688.007996
288 0 1 10.036620 7.636482 688.679688
289 0 1 9.718440 8.051362 689.483887
290 0 1 9.506740 8.470784 690.391602
291 0 1 9.238710 8.649545 691.304993
292 0 1 8.915653 8.810339 692.202820
293 0 1 8.734736 8.975422 693.131104
294 0 1 8.545444 8.406382 693.812012
295 0 1 8.261191 7.854196 694.520996
296 0 1 7.582643 7.528292 695.033386
297 0 1 6.995580 7.140261 695.712097
298 0 1 6.352070 6.801830 696.388611
299 0 1 5.911860 6.870350 697.240173
300 0 1 5.526750 7.283019 698.081421
301 0 1 5.210940 7.709546 698.887024
302 0 1 5.259770 7.994089 699.826782
303 0 1 5.403370 8.305453 700.668518
304 0 1 5.511430 8.788608 701.526001
305 0 1 5.403610 9.289150 702.387329
306 0 1 5.439470 10.058530 703.001831
307 0 1 5.509430 10.537420 703.811096
308 0 1 5.863100 11.076230 704.501587
309 0 1 6.328040 11.716040 705.114502
310 0 1 6.888670 12.019890 705.813232
311 0 1 7.287197 12.559500 706.504700
312 0 1 7.626188 12.777800 707.371277
313 0 1 8.030638 12.433371 708.171875
314 0 1 8.486947 12.041110 708.907776
315 0 1 8.744283 11.869270 709.813416
316 0 1 8.868332 11.994620 710.745117
317 0 1 9.197030 12.211620 711.643921
318 0 1 9.239980 12.055660 712.583374
319 0 1 9.327480 11.880290 713.490601
320 0 1 9.380050 11.900510 714.474976
321 0 1 9.136580 12.061171 715.455505
322 0 1 9.500170 12.320200 716.393005
323 0 1 9.623910 12.588961 717.301208
324 0 1 9.381590 12.521749 718.303101
325 0 1 9.220220 12.332581 719.224487
326 0 1 9.220520 12.209230 720.150208
327 0 1 9.129230 12.051291 721.129822
328 0 1 9.260060 11.713551 722.054382
329 0 1 9.108860 11.122980 722.902588
330 0 1 8.832607 10.710700 723.671814
331 0 1 8.475321 10.195570 724.398010
332 0 1 8.011206 9.771220 725.124268
333 0 1 7.574757 9.274300 725.807678
334 0 1 7.193950 8.914505 726.612671
335 0 1 6.888630 8.619974 727.494507
336 0 1 6.393600 8.374030 728.331299
337 0 1 6.069040 8.217349 729.182983
338 0 1 5.881180 8.398913 730.091003
339 0 1 5.518500 8.841689 730.851013
340 0 1 5.069220 8.980411 731.637024
341 0 1 4.599970 8.961914 732.565979
342 0 1 4.412460 8.932887 733.494995
343 0 1 4.348620 8.939991 734.494995
344 0 1 4.331120 8.706079 735.492004
345 0 1 4.366930 8.425055 736.390015
346 0 1 4.333090 8.255713 737.322998
347 0 1 4.234630 8.013145 738.265991
348 0 1 4.161280 7.556614 739.138977
349 0 1 4.106160 6.812700 739.898987
350 0 1 4.192330 6.457550 740.718018
351 0 1 4.320640 6.089020 741.582031
352 0 1 4.601360 5.897940 742.461975
353 0 1 4.763040 5.890880 743.437012
354 0 1 5.054130 5.650480 744.323975
355 0 1 5.087440 5.544420 745.273987
356 0 1 5.227790 5.600590 746.218994
357 0 1 5.476730 5.740180 747.096008
358 0 1 5.847440 5.912060 747.979980
359 0 1 6.034330 5.925080 748.895020
360 0 1 6.208250 5.966080 749.877991
361 0 1 6.357870 5.967340 750.763000
362 0 1 6.262690 6.028570 751.786011
363 0 1 6.502510 5.827990 752.710999
364 0 1 6.705290 5.721970 753.619995
365 0 1 6.969470 5.535480 754.573975
366 0 1 7.274502 5.248380 755.492981
367 0 1 7.441793 5.114680 756.468994
368 0 1 7.603612 4.828410 757.353027
369 0 1 7.659735 4.448880 758.313965
370 0 1 7.711995 4.046130 759.176025
371 0 1 7.752022 3.574520 759.981995
372 0 1 7.754179 3.208660 760.898010
373 0 1 7.905832 2.954990 761.896973
374 0 1 8.036991 3.031040 762.851990
375 0 1 8.000023 3.314050 763.791016
376 0 1 7.936092 3.583690 764.734985
377 0 1 7.973288 3.718240 765.716980
378 0 1 7.975589 3.768880 766.687012
379 0 1 8.104312 3.670950 767.646973
380 0 1 8.174516 3.754400 768.630981
381 0 1 8.185817 3.733620 769.544006
382 0 1 8.344788 3.654210 770.460999
383 0 1 8.604017 3.441990 771.379028
384 0 1 8.739553 3.407260 772.395020
385 0 1 8.883105 3.579980 773.346008
386 0 1 9.236080 3.793620 774.200012
387 0 1 9.733430 3.913530 775.114014
388 0 1 9.973750 4.225950 776.010986
389 0 1 9.990940 4.803030 776.796021
390 0 1 9.815040 5.488420 777.462036
391 0 1 9.719820 6.231650 778.088013
392 0 1 9.687500 6.944040 778.750000
393 0 1 9.895160 7.277354 779.645020
394 0 1 10.213700 7.572491 780.624023
395 0 1 10.518270 7.814633 781.523010
396 0 1 10.963570 8.036813 782.344971
397 0 1 11.266340 8.761879 782.877991
398 0 1 11.267170 9.637280 783.335022
399 0 1 11.363440 10.421450 783.988037
400 0 1 11.205370 11.050560 784.682983
401 0 1 10.729380 11.600100 785.338013
402 0 1 10.165570 11.978410 786.000977
403 0 1 9.761200 12.525160 786.708008
404 0 1 9.304520 12.915510 787.476013
405 0 1 8.805064 13.040440 788.299988
406 0 1 8.794553 13.226690 789.257019
407 0 1 8.859718 13.439410 790.156006
408 0 1 9.022430 13.354330 791.059021
409 0 1 9.478840 13.123090 791.854980
410 0 1 9.945520 12.704030 792.632019
411 0 1 10.700120 12.488960 793.257019
412 0 1 11.438360 12.241130 793.937012
413 0 1 12.090590 12.065730 794.643982
414 0 1 12.369690 11.795770 795.578979
415 0 1 12.515690 11.672700 796.510986
416 0 1 12.636590 11.822680 797.487000
417 0 1 12.865650 11.742730 798.434021
418 0 1 12.907270 11.642310 799.453979
419 0 1 12.604460 11.553890 800.377014
420 0 1 12.526640 11.622900 801.337036
421 0 1 12.484760 11.987750 802.192993
422 0 1 12.312520 12.266930 803.080017
423 0 1 12.078051 12.659719 803.947021
424 0 1 11.965080 12.690189 804.922974
425 0 1 11.978320 12.589729 805.828003
426 0 1 11.773730 12.300900 806.734985
427 0 1 11.783000 12.188880 807.750977
428 0 1 11.681240 12.226980 808.716003
429 0 1 11.284990 12.110960 809.549011
430 0 1 10.771190 11.888200 810.333984
431 0 1 10.234600 12.041610 811.125977
432 0 1 9.692020 11.941820 811.895020
433 0 1 9.294530 11.762020 812.768005
434 0 1 8.900843 11.774970 813.674988
435 0 1 8.601052 11.850240 814.614014
436 0 1 8.689238 11.775120 815.591980
437 0 1 9.003920 11.412870 816.452026
438 0 1 9.381070 11.260250 817.414001
439 0 1 9.598980 11.075880 818.325012
440 0 1 9.820270 10.506770 819.109985
441 0 1 9.865290 9.797980 819.843018
442 0 1 10.032030 9.115070 820.462036
443 0 1 10.072550 8.384589 821.098999
444 0 1 9.846500 7.890870 821.968994
445 0 1 9.817470 7.404268 822.749023
446 0 1 9.927510 6.755030 823.412964
447 0 1 10.218930 6.036190 823.969971
448 0 1 10.219810 5.511700 824.792969
449 0 1 10.187650 4.985430 825.563965
450 0 1 10.038750 4.507810 826.460999
451 0 1 9.804930 4.001980 827.226990
452 0 1 9.691860 3.480700 827.964966
453 0 1 9.702740 3.193700 828.817993
454 0 1 10.081500 2.973820 829.713989
455 0 1 10.365060 2.909080 830.646973
456 0 1 10.433770 2.971300 831.587036
457 0 1 10.609470 3.212280 832.489014
458 0 1 10.978519 2.988210 833.412964
459 0 1 11.371161 3.333040 834.287964
460 0 1 11.689110 3.407760 835.130005
461 0 1 11.749240 3.537790 836.059998
462 0 1 11.521690 3.522670 836.994019
463 0 1 11.157830 3.866640 837.864990
464 0 1 10.764990 4.468480 838.437988
465 0 1 10.374090 5.040990 839.077026
466 0 1 10.228880 5.882360 839.570984
467 0 1 9.904310 6.832170 839.695007
468 0 1 9.552580 7.681561 839.565979
469 0 1 9.191090 8.479051 839.067993
470 0 1 8.719700 9.317760 838.729004
471 0 1 8.109941 9.963511 838.427979
472 0 1 7.494642 10.313390 837.773010
473 0 1 7.153015 10.318670 836.864990
474 0 1 6.839840 10.284349 835.929993
475 0 1 6.893110 10.302110 835.000977
476 0 1 7.074178 10.017450 834.018005
477 0 1 7.271628 9.653440 833.143005
478 0 1 7.505466 9.287140 832.312988
479 0 1 7.853108 8.785379 831.544983
480 0 1 8.284709 8.452075 830.716980
481 0 1 8.817259 8.075450 830.011963
482 0 1 9.354970 7.928999 829.216980
483 0 1 9.967910 7.441812 828.549988
484 0 1 10.650700 7.191945 827.957031
485 0 1 11.216220 6.749760 827.346008
486 0 1 11.814860 6.340800 826.721985
487 0 1 12.261120 6.144300 825.919006
488 0 1 12.585480 6.041200 824.981995
489 0 1 12.670450 6.073220 824.020996
490 0 1 12.853460 6.102830 823.067993
491 0 1 13.271600 6.066250 822.197998
492 0 1 13.676291 6.041940 821.270020
493 0 1 13.943630 6.388130 820.369995
494 0 1 13.787200 6.369730 819.426025
495 0 1 13.611410 6.169210 818.422974
496 0 1 13.341450 5.883290 817.561035
497 0 1 13.128410 5.677330 816.632996
498 0 1 12.955830 5.592080 815.617981
499 0 1 12.716140 5.686350 814.692993
500 0 1 12.107970 5.891900 813.945984
501 0 1 11.573830 6.139580 813.249023
502 0 1 10.978149 6.519180 812.549988
503 0 1 10.423690 6.796570 811.786987
504 0 1 10.266510 7.308578 810.963989
505 0 1 10.042590 7.729708 810.125977
506 0 1 9.697540 8.021310 809.266968
507 0 1 9.343910 8.334126 808.398987
508 0 1 8.994390 8.498662 807.466980
509 0 1 8.458267 8.712112 806.726013
510 0 1 7.887309 8.864860 805.922974
511 0 1 7.355272 8.613604 805.212036
512 0 1 6.850930 8.324168 804.489990
513 0 1 6.495990 8.227239 803.662964
514 0 1 6.362370 7.928226 802.731995
515 0 1 6.163090 7.648288 801.781982
516 0 1 6.001730 7.367717 800.804993
517 0 1 5.759040 7.014866 799.957031
518 0 1 5.877480 6.841510 799.002991
519 0 1 5.688270 6.665040 798.085022
520 0 1 5.636410 6.712770 797.106995
521 0 1 5.675050 6.893820 796.174011
522 0 1 5.806130 6.850930 795.259033
523 0 1 5.796860 6.751970 794.286011
524 0 1 5.739460 6.825690 793.320007
525 0 1 5.815070 7.057362 792.369995
526 0 1 5.741880 7.403921 791.505005
527 0 1 5.464580 7.711246 790.634033
528 0 1 5.427140 8.053914 789.776978
529 0 1 5.645500 8.291350 788.744019
530 0 1 5.778020 8.116296 787.718994
531 0 1 5.680780 7.936017 786.796997
532 0 1 5.469020 7.979017 785.890991
533 0 1 4.998390 8.189092 785.070007
534 0 1 4.657740 8.517203 784.200012
535 0 1 4.473600 8.620790 783.268005
536 0 1 4.630160 8.804330 782.389038
537 0 1 4.448420 8.668828 781.455017
538 0 1 4.458100 8.836952 780.466980
539 0 1 4.275300 8.732744 779.502014
540 0 1 4.353200 8.774683 778.554993
541 0 1 4.500620 8.829197 777.561035
542 0 1 4.467450 8.807038 776.601013
543 0 1 4.442810 8.941316 775.661011
544 0 1 4.248900 9.082310 774.742981
545 0 1 4.051240 9.125910 773.809998
546 0 1 4.111640 9.382410 772.869019
547 0 1 4.459630 9.605180 771.994995
548 0 1 4.555770 9.771300 771.065979
549 0 1 4.675390 9.880270 770.106995
550 0 1 5.091670 9.693920 769.304016
551 0 1 5.774040 9.608260 768.658997
552 0 1 6.402700 9.476230 767.950012
553 0 1 7.313134 9.505900 767.541992
554 0 1 8.152611 9.469670 767.091980
555 0 1 8.829331 9.662410 766.375977
556 0 1 9.152030 9.927361 765.510010
557 0 1 9.243460 10.124420 764.559998
558 0 1 9.306510 10.278740 763.587036
559 0 1 9.416730 10.238600 762.658997
560 0 1 9.407100 10.040240 761.664001
561 0 1 9.672690 10.219481 760.759033
562 0 1 9.971680 10.208281 759.884033
563 0 1 10.584890 10.364040 759.171997
564 0 1 11.103000 10.346000 758.333984
565 0 1 11.528300 10.166650 757.468994
566 0 1 11.807150 9.620120 756.666016
567 0 1 11.903400 9.091400 755.898010
568 0 1 11.943320 8.607160 755.106018
569 0 1 11.655460 8.044492 754.338013
570 0 1 11.204770 7.773621 753.520996
571 0 1 11.028330 7.595488 752.520020
572 0 1 11.047580 7.399429 751.582031
573 0 1 10.777300 7.184448 750.603027
574 0 1 10.592020 7.273804 749.625977
575 0 1 10.327770 7.256317 748.693970
576 0 1 9.709660 7.082572 747.862000
577 0 1 9.048890 6.619100 747.302002
578 0 1 8.336174 6.587970 746.627991
579 0 1 7.710836 6.770280 745.913025
580 0 1 7.166996 7.043140 745.207031
581 0 1 6.784060 7.085894 744.382019
582 0 1 6.347600 7.393294 743.638977
583 0 1 5.801600 7.697534 742.911987
584 0 1 5.460190 8.019648 742.101013
585 0 1 5.032840 8.317351 741.336975
586 0 1 4.612870 8.753375 740.552002
587 0 1 4.242580 9.086680 739.792969
588 0 1 3.859520 9.406730 738.955994
589 0 1 3.349530 9.317220 738.177002
590 0 1 2.993560 9.144200 737.320007
591 0 1 2.706650 8.883162 736.443970
592 0 1 2.443740 8.607861 735.583984
593 0 1 2.271900 8.384883 734.612976
594 0 1 2.283070 8.359974 733.609009
595 0 1 2.287290 8.256085 732.629028
596 0 1 2.573090 7.843475 731.747009
597 0 1 2.683620 7.662213 730.796021
598 0 1 3.115360 7.386018 729.950012
599 0 1 3.568160 7.186799 729.190979
600 0 1 3.893290 6.879940 728.347534
601 0 1 4.241090 6.574580 727.520874
602 0 1 4.486110 6.469370 726.675476
603 0 1 4.940340 6.379860 725.814514
604 0 1 5.405380 6.610020 725.037598
605 0 1 5.601460 6.784630 724.137024
606 0 1 5.527950 7.218692 723.231384
607 0 1 5.287470 7.528594 722.330811
608 0 1 5.420940 7.706466 721.388916
609 0 1 5.173910 7.935117 720.511108
610 0 1 4.855840 8.000787 719.677917
611 0 1 4.793860 8.136028 718.720520
612 0 1 4.827850 8.043968 717.742310
613 0 1 4.942990 7.980790 716.794678
614 0 1 5.214620 8.090425 715.824524
615 0 1 5.533850 8.283261 714.861511
616 0 1 5.782730 8.103006 713.953125
617 0 1 6.173020 7.825510 713.107483
618 0 1 6.493750 7.373790 712.398499
619 0 1 6.504590 6.986360 711.468018
620 0 1 6.480080 6.415970 710.661621
621 0 1 6.319350 5.955700 709.795898
622 0 1 6.571260 5.464770 709.069397
623 0 1 6.837080 4.980940 708.310181
624 0 1 7.235959 4.203300 707.943420
625 0 1 7.497026 3.705450 707.187317
626 0 1 7.801763 3.264880 706.406128
627 0 1 7.959570 2.934680 705.569397
628 0 1 8.015462 2.608590 704.636108
629 0 1 8.085333 2.188560 703.808289
630 0 1 8.509297 1.823860 702.973267
631 0 1 8.885161 1.658750 702.150208
632 0 1 9.270600 1.571240 701.158386
633 0 1 9.843460 1.677010 700.406006
634 0 1 10.278379 1.945770 699.525024
635 0 1 10.517800 2.363080 698.737671
636 0 1 10.496840 2.899500 697.954590
637 0 1 10.266640 3.344730 697.117920
638 0 1 10.101510 3.828440 696.305298
639 0 1 10.209681 4.221750 695.378784
640 0 1 10.294130 4.568710 694.459778
641 0 1 10.505180 5.050490 693.672180
642 0 1 10.867929 5.312970 692.830383
643 0 1 11.303930 5.666210 692.023010
644 0 1 11.774320 6.029690 691.282227
645 0 1 12.109830 6.203910 690.420410
646 0 1 12.402990 6.665660 689.542908
647 0 1 12.706560 7.257593 688.804504
648 0 1 12.730080 7.911368 688.157715
649 0 1 12.646820 8.818263 687.836975
650 0 1 12.190280 9.494670 687.446411
651 0 1 11.718770 10.095690 686.873596
652 0 1 11.123150 10.667561 686.378479
653 0 1 10.587510 11.058001 685.673401
654 0 1 10.025800 11.299030 684.857178
655 0 1 9.460200 11.398080 684.111389
656 0 1 8.721199 11.587481 683.566101
657 0 1 7.903965 11.387820 683.151917
658 0 1 7.462199 11.224300 682.342773
659 0 1 6.994910 10.975990 681.503174
660 0 1 6.821580 10.995850 680.598511
661 0 1 6.422710 11.197730 679.739075
662 0 1 6.139190 11.489140 678.896423
663 0 1 5.694390 11.687760 678.135010
664 0 1 5.177400 11.649520 677.248779
665 0 1 4.741560 11.598790 676.455078
666 0 1 4.124310 11.297300 675.750122
667 0 1 3.640490 10.953250 674.993896
668 0 1 3.704830 10.499980 674.173828
669 0 1 3.925620 10.161520 673.296509
670 0 1 4.143140 9.578140 672.458130
671 0 1 4.241560 9.299450 671.519897
672 0 1 4.228240 9.052330 670.619202
673 0 1 4.316190 8.874508 669.702698
674 0 1 4.687780 9.099460 668.778198
675 0 1 4.889460 9.426360 667.908325
676 0 1 5.160490 9.967990 667.029297
677 0 1 5.145010 10.271240 666.092224
678 0 1 5.238150 10.492520 665.155273
679 0 1 4.902290 10.800140 664.314331
680 0 1 4.911270 10.807060 663.288025
681 0 1 5.406330 10.817200 662.443420
682 0 1 5.717990 10.993250 661.527527
683 0 1 5.655280 11.164900 660.595703
684 0 1 5.525050 11.257640 659.637329
685 0 1 5.273970 11.357780 658.656616
686 0 1 5.281410 11.712230 657.804077
687 0 1 5.065280 12.110910 656.911011
688 0 1 5.142050 12.097799 655.981995
689 0 1 5.191700 11.786800 655.042480
690 0 1 5.048920 11.483140 654.171875
691 0 1 5.035940 11.116261 653.218323
692 0 1 5.363940 10.624030 652.442322
693 0 1 5.445990 10.129271 651.589783
694 0 1 5.679630 9.891410 650.650391
695 0 1 5.768810 9.695800 649.674316
696 0 1 6.028130 9.526250 648.762878
697 0 1 6.333360 9.779310 647.904297
698 0 1 6.633930 9.716470 646.971008
699 0 1 6.998200 9.388970 646.014404
700 0 1 7.280057 9.299490 645.149292
701 0 1 7.785588 9.217360 644.344910
702 0 1 8.455191 9.265560 643.571594
703 0 1 9.062720 9.144750 642.824402
704 0 1 9.792270 8.920669 642.228027
705 0 1 10.320930 8.746449 641.505188
706 0 1 10.885860 8.724663 640.653076
707 0 1 11.361530 8.305857 639.885925
708 0 1 12.090770 7.979434 639.200806
709 0 1 12.684669 7.843735 638.455994
710 0 1 13.033239 7.927763 637.599121
711 0 1 13.294430 7.909419 636.687500
712 0 1 13.523661 7.929583 635.667114
713 0 1 13.895720 8.311771 634.835693
714 0 1 14.050500 8.529525 633.902710
715 0 1 14.114890 8.457433 632.932678
716 0 1 14.236460 8.654742 631.953369
717 0 1 14.335120 8.969874 630.959167
718 0 1 14.330130 9.068430 630.006409
719 0 1 14.430750 8.837868 629.086853
720 0 1 14.303170 8.528116 628.104004
721 0 1 13.908150 8.147099 627.339966
722 0 1 13.364550 7.642145 626.734680
723 0 1 12.774480 7.070972 626.257324
724 0 1 12.288910 6.737150 625.499146
725 0 1 11.747110 6.333400 624.750000
726 0 1 11.470480 6.080250 623.866150
727 0 1 10.909900 5.712000 623.101929
728 0 1 10.404449 5.558720 622.350281
729 0 1 9.703270 5.506680 621.595398
730 0 1 9.089310 5.487900 620.897766
731 0 1 8.688415 5.260770 620.023682
732 0 1 8.429173 5.009120 619.130188
733 0 1 7.931894 4.685460 618.331970
734 0 1 7.461172 4.586570 617.538513
735 0 1 7.156479 4.541200 616.600586
736 0 1 6.925600 4.505420 615.626587
737 0 1 6.628550 4.392230 614.752991
738 0 1 6.536650 3.995860 613.914612
739 0 1 6.553370 3.770900 612.990173
740 0 1 6.634910 3.623180 612.032410
741 0 1 6.869690 3.552100 611.101685
742 0 1 7.110771 3.769040 610.137817
743 0 1 7.441307 4.085190 609.176880
744 0 1 7.695370 4.233390 608.233093
745 0 1 7.978289 4.482480 607.439209
746 0 1 8.265001 4.545100 606.558105
747 0 1 8.590730 4.449030 605.643616
748 0 1 9.082060 4.207350 604.845581
749 0 1 9.747140 3.979550 604.074280
750 0 1 10.087510 3.645160 603.255981
751 0 1 10.487061 3.541890 602.352417
752 0 1 11.003380 3.419600 601.508911
753 0 1 11.522030 3.421820 600.743286
754 0 1 12.065950 3.525020 599.897522
755 0 1 12.566160 3.661890 599.075073
756 0 1 12.798040 3.856530 598.133118
757 0 1 12.639580 3.623070 597.200073
758 0 1 12.758511 3.435440 596.224304
759 0 1 12.806180 3.511850 595.273804
760 0 1 12.746000 3.855150 594.302368
761 0 1 12.575350 3.754430 593.383606
762 0 1 12.562270 3.832830 592.414490
763 0 1 12.391510 4.154370 591.519531
764 0 1 12.088250 4.799700 590.900208
765 0 1 11.777530 5.380660 590.142212
766 0 1 11.417960 5.833080 589.411011
767 0 1 11.109591 6.123360 588.552673
768 0 1 10.619420 6.212180 587.729309
769 0 1 9.903000 6.475430 587.180176
770 0 1 9.185590 6.693840 586.601501
771 0 1 8.627111 7.092474 585.973816
772 0 1 8.413367 7.092868 585.097473
773 0 1 8.415625 7.258867 584.118896
774 0 1 8.641310 7.285579 583.239868
775 0 1 8.840609 7.710031 582.384399
776 0 1 9.028111 7.721884 581.434021
777 0 1 9.062000 7.782403 580.533325
778 0 1 9.174910 8.032558 579.636292
779 0 1 8.838497 8.639669 579.008911
780 0 1 8.376097 8.855296 578.182312
781 0 1 7.763035 8.991867 577.319214
782 0 1 7.160934 9.250340 576.578186
783 0 1 6.503010 9.304570 575.837402
784 0 1 6.228360 9.277380 574.953491
785 0 1 5.982370 9.462811 574.019531
786 0 1 5.896850 9.416590 572.993408
787 0 1 5.752550 9.409500 571.956482
788 0 1 5.630450 9.435690 570.935913
789 0 1 5.933250 9.372970 570.043396
790 0 1 6.131090 9.098210 569.145508
791 0 1 6.308850 8.646323 568.265503
792 0 1 6.416460 8.289261 567.336426