LAMMPS data file via MDAnalysis

        1000  atoms
        1000  bonds
        1000  angles
           0  dihedrals
           0  impropers

           1  atom types
           1  bond types
           1  angle types
           0  dihedral types
           0  improper types

0.000000 16.000000 xlo xhi
0.000000 16.000000 ylo yhi
0.000000 1257.000000 zlo zhi


Masses

1 1.000000

Atoms

1 0 1 7.016960 7.219631 478.911011
2 0 1 7.322380 7.331775 479.791016
3 0 1 7.665102 7.472006 480.695984
4 0 1 7.942723 7.601495 481.627014
5 0 1 8.141292 7.617249 482.583008
6 0 1 8.396252 7.610693 483.523010
7 0 1 8.394275 7.773942 484.507019
8 0 1 7.970423 8.175918 485.302002
9 0 1 7.479412 8.489413 486.028992
10 0 1 6.950340 9.000940 486.669006
11 0 1 6.330420 9.309960 487.302002
12 0 1 5.668960 9.476660 488.075012
13 0 1 4.937520 9.680820 488.635010
14 0 1 4.365330 9.948220 489.359985
15 0 1 3.720790 10.137640 489.990997
16 0 1 3.215460 10.430340 490.765015
17 0 1 2.584060 10.729170 491.414978
18 0 1 2.409390 10.914080 492.343018
19 0 1 2.057100 10.792320 493.229980
20 0 1 2.157060 10.488920 494.161987
21 0 1 2.349660 10.310810 495.093994
22 0 1 2.299290 9.855590 495.921997
23 0 1 2.496820 9.371660 496.765991
24 0 1 2.711560 9.098880 497.666016
25 0 1 3.284760 8.902803 498.447998
26 0 1 3.732620 8.393750 499.130981
27 0 1 4.042360 7.691861 499.747009
28 0 1 4.454020 7.097737 500.360992
29 0 1 5.052530 6.508890 500.817017
30 0 1 5.579350 5.749020 501.140015
31 0 1 6.179690 5.179360 501.580017
32 0 1 6.972670 4.932280 502.122986
33 0 1 7.587716 4.520490 502.763000
34 0 1 8.220216 3.973430 503.260986
35 0 1 8.465626 3.557210 504.175995
36 0 1 8.615917 3.467230 505.126007
37 0 1 9.066240 3.406580 505.932007
38 0 1 9.234460 3.191540 506.858002
39 0 1 9.435120 3.240570 507.763000
40 0 1 9.818060 3.285290 508.640015
41 0 1 10.121740 3.395510 509.519989
42 0 1 10.738770 3.739860 510.252014
43 0 1 11.246240 4.236060 510.908997
44 0 1 11.610540 4.742590 511.692993
45 0 1 11.828680 5.163820 512.557007
46 0 1 11.788330 5.464900 513.495972
47 0 1 11.719090 5.410520 514.424988
48 0 1 11.463680 5.435810 515.367004
49 0 1 11.105190 5.201850 516.205017
50 0 1 10.496571 4.962570 516.880981
51 0 1 9.931690 4.899600 517.684998
52 0 1 9.469880 4.705650 518.489990
53 0 1 8.977087 4.505720 519.291992
54 0 1 8.505304 4.598220 520.130005
55 0 1 8.265986 4.851640 521.049011
56 0 1 8.277374 5.072340 521.961975
57 0 1 8.109275 5.644760 522.697021
58 0 1 7.885009 5.968250 523.641968
59 0 1 7.522593 6.389670 524.379028
60 0 1 7.285934 6.929540 525.151001
61 0 1 7.001136 7.506030 525.905029
62 0 1 6.734460 7.873919 526.809021
63 0 1 6.699660 8.149606 527.749023
64 0 1 6.401240 8.474340 528.595398
65 0 1 6.421330 8.729081 529.505798
66 0 1 6.435490 9.152750 530.313110
67 0 1 6.837960 9.684320 531.011597
68 0 1 7.111432 10.315420 531.772583
69 0 1 7.142725 10.869970 532.628906
70 0 1 7.304956 11.221060 533.501221
71 0 1 7.298913 11.334600 534.458984
72 0 1 7.334495 11.456560 535.398926
73 0 1 7.562113 11.693110 536.340820
74 0 1 8.104244 11.948310 537.117126
75 0 1 8.523803 12.300100 537.901978
76 0 1 8.952219 12.415590 538.765991
77 0 1 9.242750 12.250830 539.652283
78 0 1 9.660419 11.948490 540.504578
79 0 1 9.997440 11.578381 541.349792
80 0 1 10.626780 11.330220 542.051270
81 0 1 11.251230 10.881180 542.623291
82 0 1 11.822480 10.596680 543.319580
83 0 1 12.085490 10.560940 544.270508
84 0 1 12.165300 10.632290 545.219604
85 0 1 12.116520 10.717890 546.147095
86 0 1 11.844710 10.829710 547.083984
87 0 1 11.429399 11.000660 547.955017
88 0 1 11.229520 11.210950 548.941223
89 0 1 10.942050 11.364491 549.864075
90 0 1 10.636980 11.480220 550.782410
91 0 1 10.413919 11.711740 551.638794
92 0 1 10.192290 11.734280 552.666504
93 0 1 10.165700 11.680690 553.671997
94 0 1 10.312070 11.784530 554.627380
95 0 1 10.600690 11.870080 555.561279
96 0 1 10.956600 12.003730 556.423889
97 0 1 10.996400 12.298580 557.304993
98 0 1 10.950880 12.446480 558.234192
99 0 1 10.627050 12.441549 559.213074
100 0 1 10.164370 12.545731 560.050476
101 0 1 9.631330 12.406330 560.832031
102 0 1 9.409190 12.119920 561.746216
103 0 1 8.960782 11.859550 562.516479
104 0 1 8.269256 11.277220 562.793091
105 0 1 7.592494 10.607790 563.005798
106 0 1 7.169512 9.808530 563.196594
107 0 1 6.748960 9.045650 563.527710
108 0 1 6.263300 8.302033 563.975586
109 0 1 5.991900 7.855730 564.754883
110 0 1 5.789150 7.246518 565.521301
111 0 1 5.583770 6.898680 566.414612
112 0 1 5.377950 6.690750 567.343018
113 0 1 5.120160 6.755650 568.292603
114 0 1 5.046500 6.869780 569.269531
115 0 1 4.927850 6.907310 570.269104
116 0 1 4.865840 7.088671 571.182312
117 0 1 4.917000 7.091983 572.164185
118 0 1 4.778490 7.384279 573.076599
119 0 1 5.010320 7.801673 573.896729
120 0 1 5.358620 8.234631 574.606384
121 0 1 5.558780 8.887813 575.277100
122 0 1 5.680020 9.453671 576.048279
123 0 1 5.993460 10.006460 576.749084
124 0 1 6.201670 10.610690 577.452820
125 0 1 6.245470 11.097450 578.286926
126 0 1 6.118960 11.577030 579.124817
127 0 1 6.231370 11.903890 580.000122
128 0 1 6.311850 12.219610 580.943726
129 0 1 6.058450 12.580840 581.775269
130 0 1 5.754950 12.655820 582.738708
131 0 1 5.723710 12.958920 583.761902
132 0 1 5.552020 13.181140 584.723816
133 0 1 5.603060 13.246000 585.651794
134 0 1 5.574800 13.471760 586.545776
135 0 1 5.527070 13.631310 587.508179
136 0 1 5.475340 13.864981 588.469177
137 0 1 5.433390 13.948020 589.413208
138 0 1 5.370930 13.818430 590.414001
139 0 1 5.662690 13.695110 591.309570
140 0 1 5.906980 13.804330 592.308716
141 0 1 6.268150 13.641430 593.186279
142 0 1 6.885540 13.673520 593.905579
143 0 1 7.470077 13.497419 594.702576
144 0 1 8.024671 13.388599 595.425903
145 0 1 8.580608 13.463820 596.225830
146 0 1 9.075120 13.498020 597.046509
147 0 1 9.671710 13.530490 597.794800
148 0 1 10.181740 13.312660 598.668518
149 0 1 10.457050 13.141550 599.627808
150 0 1 10.680010 13.138760 600.534485
151 0 1 11.058010 13.538010 601.424194
152 0 1 11.044980 13.653700 602.377808
153 0 1 10.966420 14.050520 603.257996
154 0 1 10.880530 14.034170 604.152710
155 0 1 10.976380 14.133360 605.082031
156 0 1 10.898660 14.199409 606.054504
157 0 1 11.173940 13.799650 606.896423
158 0 1 11.252490 13.332331 607.748169
159 0 1 11.329390 12.980330 608.665283
160 0 1 11.240670 12.614941 609.583130
161 0 1 11.261900 12.165569 610.486206
162 0 1 11.409440 11.816270 611.381226
163 0 1 11.471291 11.488320 612.222473
164 0 1 11.447680 11.058470 613.079773
165 0 1 11.600910 10.353480 613.652710
166 0 1 11.750800 9.731340 614.355103
167 0 1 12.066750 9.267970 615.222900
168 0 1 12.253520 8.763052 616.023193
169 0 1 12.317260 8.265883 616.762390
170 0 1 12.622200 7.891522 617.558228
171 0 1 12.830390 7.570434 618.425293
172 0 1 12.896200 7.469255 619.394531
173 0 1 12.687651 7.335060 620.338196
174 0 1 12.815360 7.302328 621.356567
175 0 1 13.228380 7.652014 622.191895
176 0 1 13.395890 8.127728 623.041687
177 0 1 13.399710 8.423763 623.918945
178 0 1 12.934520 8.607069 624.711060
179 0 1 12.520200 9.112780 625.414856
180 0 1 11.793921 9.440180 625.991821
181 0 1 11.235480 9.684930 626.714783
182 0 1 10.653770 9.904181 627.412720
183 0 1 10.039150 10.205610 628.165283
184 0 1 9.381120 10.250420 628.885437
185 0 1 8.722539 10.304160 629.643494
186 0 1 8.051741 10.515940 630.256226
187 0 1 7.556137 10.759970 631.040955
188 0 1 6.883060 10.930420 631.735901
189 0 1 6.320310 10.888910 632.579895
190 0 1 5.876450 10.627920 633.409546
191 0 1 5.454990 10.120520 634.145508
192 0 1 5.006550 9.529090 634.819641
193 0 1 4.833910 8.834309 635.451172
194 0 1 4.803540 8.187560 636.178650
195 0 1 4.500410 7.545790 636.948914
196 0 1 4.402710 7.100140 637.825256
197 0 1 4.371780 6.754230 638.727173
198 0 1 4.547950 6.476680 639.591492
199 0 1 4.912090 6.275430 640.515320
200 0 1 5.048610 6.231610 641.450623
201 0 1 5.365830 6.060460 642.404602
202 0 1 5.604030 5.979430 643.311279
203 0 1 6.027630 5.737890 644.096680
204 0 1 6.318180 5.541200 644.983704
205 0 1 6.303890 5.568270 645.957520
206 0 1 6.353720 5.082120 646.854370
207 0 1 6.413100 4.645030 647.702576
208 0 1 6.532240 4.544930 648.611572
209 0 1 6.846560 4.362570 649.520691
210 0 1 7.178685 4.144230 650.373901
211 0 1 7.723324 4.052140 651.212280
212 0 1 8.149584 3.947210 652.111877
213 0 1 8.776204 3.940040 652.864624
214 0 1 9.240670 4.035910 653.686584
215 0 1 9.742900 4.063720 654.619629
216 0 1 10.047620 4.223930 655.627502
217 0 1 10.429420 4.216760 656.483521
218 0 1 10.503930 4.660590 657.366699
219 0 1 10.521709 4.882600 658.305298
220 0 1 10.111130 5.192750 659.116882
221 0 1 9.786850 5.197980 660.044495
222 0 1 9.518950 5.195940 660.943726
223 0 1 9.145460 5.448210 661.842407
224 0 1 8.646724 5.836250 662.575317
225 0 1 8.194575 6.105310 663.364990
226 0 1 7.737328 6.219770 664.191895
227 0 1 7.000497 6.481450 664.867615
228 0 1 6.642600 6.885210 665.667603
229 0 1 6.338400 7.010247 666.554382
230 0 1 6.062860 7.286370 667.439026
231 0 1 5.741670 7.811240 668.226379
232 0 1 5.629000 8.401947 668.934692
233 0 1 5.485180 8.827694 669.782227
234 0 1 5.288370 8.938087 670.697815
235 0 1 4.980260 8.997963 671.577209
236 0 1 4.796540 8.891036 672.505493
237 0 1 4.821600 8.724460 673.460510
238 0 1 4.474470 8.502056 674.354675
239 0 1 4.099420 8.199303 675.172729
240 0 1 3.568760 7.911940 675.935120
241 0 1 3.288420 7.819917 676.830017
242 0 1 3.080130 7.691396 677.729004
243 0 1 2.649750 7.731336 678.633301
244 0 1 2.765730 7.893294 679.565430
245 0 1 3.137110 8.150901 680.450928
246 0 1 3.668380 8.116929 681.254089
247 0 1 4.350460 7.919519 681.861572
248 0 1 4.916600 7.749471 682.599121
249 0 1 5.664170 7.679384 683.187012
250 0 1 6.234190 7.907517 683.881897
251 0 1 6.558120 8.046304 684.758789
252 0 1 6.873740 8.158282 685.700500
253 0 1 7.327031 8.314361 686.551270
254 0 1 7.731978 8.280761 687.369080
255 0 1 8.194191 8.017700 688.213013
256 0 1 8.714363 7.786868 689.028931
257 0 1 9.057640 7.463740 689.955688
258 0 1 9.571510 7.364595 690.840393
259 0 1 9.998090 7.209955 691.653320
260 0 1 10.443390 7.130424 692.525269
261 0 1 10.821070 6.910040 693.386108
262 0 1 11.185890 6.779690 694.251526
263 0 1 11.316090 6.914250 695.192871
264 0 1 11.277290 6.971540 696.153687
265 0 1 11.073910 7.424169 696.953369
266 0 1 11.066850 7.430628 697.915710
267 0 1 10.772210 7.526492 698.790588
268 0 1 10.428540 7.487109 699.640869
269 0 1 10.352600 6.857370 700.414917
270 0 1 10.104650 6.491240 701.357117
271 0 1 10.023951 5.957100 702.207581
272 0 1 10.130020 5.656740 703.089905
273 0 1 10.069700 5.473310 704.043396
274 0 1 10.068140 5.084030 704.908081
275 0 1 9.973770 4.889970 705.886475
276 0 1 9.939150 4.564700 706.765625
277 0 1 10.085930 4.274570 707.635620
278 0 1 9.861850 4.265500 708.628601
279 0 1 9.438820 4.139650 709.522888
280 0 1 8.937494 3.867970 710.322632
281 0 1 8.653617 3.590290 711.166382
282 0 1 8.335940 3.386720 712.087402
283 0 1 8.207011 3.456430 713.019714
284 0 1 7.831849 3.724720 713.954834
285 0 1 7.639391 3.645780 714.950684
286 0 1 7.581600 3.417330 715.964478
287 0 1 7.630084 3.299030 716.988525
288 0 1 7.558580 3.603170 717.838379
289 0 1 7.387454 3.567640 718.745300
290 0 1 7.055097 3.323940 719.630371
291 0 1 6.620370 3.153110 720.516724
292 0 1 6.374310 3.170440 721.419312
293 0 1 6.394540 2.891120 722.388977
294 0 1 6.488540 2.613130 723.377930
295 0 1 6.807040 2.396360 724.268188
296 0 1 7.177470 2.484100 725.150085
297 0 1 7.575211 2.947610 725.896912
298 0 1 8.121807 3.142330 726.601074
299 0 1 8.889095 3.449220 727.081726
300 0 1 9.607010 3.824600 727.572998
301 0 1 10.261160 4.160880 728.203796
302 0 1 10.637830 4.648800 728.979980
303 0 1 11.105840 5.117850 729.695984
304 0 1 11.436450 5.664950 730.502991
305 0 1 11.714430 6.220190 731.211975
306 0 1 11.819950 6.768190 731.960999
307 0 1 11.951010 7.209942 732.820007
308 0 1 12.003981 7.738191 733.634033
309 0 1 12.165160 8.409589 734.356018
310 0 1 12.284070 8.965912 735.297974
311 0 1 12.081181 9.393110 736.166992
312 0 1 11.971790 9.546590 737.200012
313 0 1 11.980680 9.726280 738.192017
314 0 1 12.266000 9.444150 739.072998
315 0 1 12.608070 9.029650 739.934998
316 0 1 12.778709 8.862664 740.865967
317 0 1 13.015540 9.216280 741.796997
318 0 1 13.452890 9.415330 742.687988
319 0 1 13.801470 9.951910 743.398010
320 0 1 13.697070 10.459681 744.229980
321 0 1 13.212310 10.860130 744.994019
322 0 1 12.579800 11.423010 745.585999
323 0 1 12.171710 11.975150 746.218994
324 0 1 11.612110 12.330980 746.827026
325 0 1 11.150730 12.668700 747.776001
326 0 1 10.873410 12.960740 748.598999
327 0 1 10.341600 13.229691 749.419006
328 0 1 9.761720 13.360519 750.219971
329 0 1 9.131250 13.509610 750.939026
330 0 1 8.368971 13.442480 751.510010
331 0 1 7.867977 13.356990 752.322998
332 0 1 7.384025 13.131081 753.134033
333 0 1 6.800640 12.785820 753.856018
334 0 1 6.333880 12.594030 754.674011
335 0 1 6.105460 12.154400 755.486023
336 0 1 6.008690 12.058050 756.463989
337 0 1 5.813960 12.034930 757.412964
338 0 1 5.560150 12.068340 758.317993
339 0 1 5.263540 11.577440 759.214966
340 0 1 5.089270 10.873529 759.960022
341 0 1 4.802110 10.101720 760.500000
342 0 1 4.671060 9.353320 761.049988
343 0 1 4.314860 8.739682 761.640991
344 0 1 4.222130 8.370381 762.479980
345 0 1 4.431660 8.206856 763.406982
346 0 1 4.767950 7.981936 764.266968
347 0 1 4.932630 7.967873 765.195984
348 0 1 5.110160 7.911596 766.139038
349 0 1 5.478900 7.785547 767.002991
350 0 1 5.835630 7.592209 767.898010
351 0 1 5.742300 7.217018 768.839966
352 0 1 5.784680 6.609770 769.604004
353 0 1 5.889600 5.940490 770.351013
354 0 1 5.871390 5.237880 771.176025
355 0 1 5.709780 4.621620 771.875000
356 0 1 5.456260 4.076690 772.619019
357 0 1 5.341390 3.636260 773.445984
358 0 1 5.193760 3.222370 774.333008
359 0 1 5.289510 2.757880 775.205994
360 0 1 5.327580 2.530970 776.114990
361 0 1 5.331480 2.480800 777.091980
362 0 1 5.287960 2.738360 778.023010
363 0 1 5.234150 3.059040 778.924011
364 0 1 5.375160 3.467180 779.799011
365 0 1 5.509940 3.817310 780.698975
366 0 1 5.515370 4.388070 781.565002
367 0 1 5.472660 4.796740 782.416992
368 0 1 5.772810 5.419430 783.110962
369 0 1 6.197660 5.776010 783.943970
370 0 1 6.639370 6.033680 784.666992
371 0 1 7.189119 6.204140 785.483032
372 0 1 7.613578 6.313480 786.330994
373 0 1 8.037584 6.256310 787.207031
374 0 1 8.352239 6.183430 788.109009
375 0 1 8.645979 6.150920 789.023987
376 0 1 8.976013 6.501520 789.893005
377 0 1 9.419280 6.971420 790.653992
378 0 1 10.011340 7.292327 791.377014
379 0 1 10.646640 7.527938 792.091003
380 0 1 11.123610 7.697861 792.911987
381 0 1 11.496300 8.014897 793.766968
382 0 1 11.542110 7.867027 794.684021
383 0 1 11.787350 7.754587 795.570984
384 0 1 12.128349 7.361863 796.380981
385 0 1 12.413040 7.263813 797.299988
386 0 1 12.406260 7.419592 798.257996
387 0 1 12.045720 7.432513 799.171997
388 0 1 11.524190 7.276283 799.987000
389 0 1 11.020580 6.906620 800.820984
390 0 1 10.471940 6.621150 801.489014
391 0 1 10.042070 6.537430 802.460999
392 0 1 9.811540 6.704040 803.429993
393 0 1 9.675370 6.801270 804.362000
394 0 1 9.442190 6.790380 805.281982
395 0 1 9.525150 6.710400 806.237000
396 0 1 9.184280 6.955650 807.104004
397 0 1 8.560851 7.029073 807.833008
398 0 1 8.056383 7.046517 808.583008
399 0 1 7.284259 6.937160 809.083984
400 0 1 6.532620 6.967510 809.630981
401 0 1 5.751040 7.241607 810.109009
402 0 1 4.967530 7.420449 810.617004
403 0 1 4.182020 7.871159 811.077026
404 0 1 3.433100 8.190503 811.692993
405 0 1 2.906020 8.085396 812.481018
406 0 1 2.428670 8.096375 813.297974
407 0 1 2.043960 7.966228 814.276001
408 0 1 1.764180 8.007442 815.151978
409 0 1 1.667120 8.314744 816.046021
410 0 1 1.880860 8.207211 816.968018
411 0 1 2.226950 8.095989 817.890015
412 0 1 2.367330 8.089785 818.863037
413 0 1 2.567190 8.328675 819.775024
414 0 1 2.917120 8.619762 820.601990
415 0 1 3.263920 8.837896 821.510010
416 0 1 3.659510 8.870350 822.458008
417 0 1 4.013400 8.989757 823.281006
418 0 1 4.134570 9.138790 824.270996
419 0 1 4.317800 9.163860 825.229980
420 0 1 4.337080 8.959526 826.210022
421 0 1 4.505320 8.908953 827.115967
422 0 1 4.619620 8.807705 828.065979
423 0 1 5.014490 8.852002 828.929993
424 0 1 4.931460 8.857287 829.877991
425 0 1 5.033780 8.826246 830.832031
426 0 1 5.309060 8.830651 831.698975
427 0 1 5.262230 8.860718 832.671997
428 0 1 5.391630 9.081079 833.619995
429 0 1 5.595030 9.443340 834.434998
430 0 1 5.863910 9.739370 835.367981
431 0 1 6.057210 9.921490 836.226013
432 0 1 6.179000 10.209260 837.151978
433 0 1 6.635020 10.584220 837.958008
434 0 1 7.495458 10.570590 838.484009
435 0 1 8.275396 10.614730 839.047974
436 0 1 9.159460 10.866890 839.405029
437 0 1 10.115450 10.976990 839.250977
438 0 1 10.918440 10.886460 838.729980
439 0 1 11.578020 10.940120 838.002014
440 0 1 12.191200 10.603690 837.370972
441 0 1 12.654540 10.338130 836.585022
442 0 1 12.924150 10.121370 835.695007
443 0 1 12.891220 10.255010 834.752014
444 0 1 13.071280 10.358270 833.796021
445 0 1 13.219540 10.672450 832.927979
446 0 1 13.622550 10.635020 832.070007
447 0 1 13.983030 10.535550 831.179993
448 0 1 13.964991 10.344340 830.240967
449 0 1 13.610960 10.231820 829.323975
450 0 1 13.122271 10.383730 828.479004
451 0 1 12.428431 10.420361 827.825012
452 0 1 11.704620 10.336670 827.213989
453 0 1 10.984750 10.320271 826.650024
454 0 1 10.274810 10.466180 826.010010
455 0 1 9.492920 10.567530 825.483032
456 0 1 8.950238 10.783600 824.641968
457 0 1 8.539936 10.860300 823.799011
458 0 1 7.979455 10.899970 823.023987
459 0 1 7.423769 11.039010 822.320984
460 0 1 6.863010 11.201310 821.471008
461 0 1 6.514850 11.226760 820.572021
462 0 1 6.284820 11.112800 819.648010
463 0 1 6.120080 11.061920 818.660034
464 0 1 6.180710 10.673820 817.843018
465 0 1 6.017280 10.253730 816.990967
466 0 1 6.094390 9.898460 816.072998
467 0 1 6.137420 9.481600 815.192017
468 0 1 6.080510 9.439380 814.219971
469 0 1 5.949930 9.520830 813.299011
470 0 1 5.801200 9.588660 812.338013
471 0 1 5.928850 9.744820 811.434021
472 0 1 6.035170 9.937190 810.502991
473 0 1 6.387120 10.408210 809.766968
474 0 1 6.588710 10.779860 808.893005
475 0 1 6.738480 10.994620 807.901001
476 0 1 6.667690 11.181640 806.974976
477 0 1 6.812670 11.283390 806.078979
478 0 1 6.890210 11.391700 805.146973
479 0 1 7.113378 11.264800 804.195007
480 0 1 7.130433 11.279150 803.226990
481 0 1 7.245276 11.151711 802.213989
482 0 1 7.157009 11.045540 801.228027
483 0 1 7.355454 10.903730 800.299011
484 0 1 7.726818 10.504280 799.481018
485 0 1 7.960859 10.018570 798.648010
486 0 1 8.624298 9.710630 797.983032
487 0 1 9.365550 9.405581 797.436035
488 0 1 9.903500 9.208800 796.721985
489 0 1 10.392941 9.072950 795.880981
490 0 1 10.684390 9.025380 794.968018
491 0 1 11.104410 9.102921 794.070984
492 0 1 11.395990 9.381190 793.218994
493 0 1 11.572960 9.622480 792.263000
494 0 1 11.791900 9.722450 791.323975
495 0 1 12.087570 10.031840 790.490967
496 0 1 12.261021 10.298730 789.591003
497 0 1 12.403820 10.199020 788.627014
498 0 1 12.562830 9.791640 787.761963
499 0 1 12.810090 9.414200 786.841003
500 0 1 12.854179 9.156930 785.952026
501 0 1 13.248199 8.969639 785.067993
502 0 1 13.531031 8.989166 784.148010
503 0 1 13.890360 8.921889 783.240967
504 0 1 14.177780 9.063090 782.338989
505 0 1 14.430300 9.215730 781.358032
506 0 1 14.428511 9.415751 780.385010
507 0 1 14.332930 9.520090 779.474976
508 0 1 14.128860 9.276530 778.487000
509 0 1 13.893080 8.977544 777.598999
510 0 1 13.497880 8.726893 776.723999
511 0 1 12.862050 8.382716 776.070984
512 0 1 12.567841 7.748092 775.385010
513 0 1 12.069400 7.102867 774.853027
514 0 1 11.468821 6.969130 774.146973
515 0 1 10.980580 6.855910 773.367981
516 0 1 10.691080 6.978120 772.460022
517 0 1 10.543980 7.290357 771.497009
518 0 1 10.366640 7.556414 770.568970
519 0 1 10.341120 7.633222 769.589966
520 0 1 10.395580 7.586049 768.536987
521 0 1 10.718090 7.575855 767.625000
522 0 1 11.042430 7.616493 766.716003
523 0 1 11.122110 7.304052 765.815979
524 0 1 11.141020 6.834880 764.943970
525 0 1 11.456600 6.666740 764.061035
526 0 1 11.728200 6.691730 763.151978
527 0 1 11.765550 6.509620 762.181030
528 0 1 11.741920 6.018180 761.346985
529 0 1 11.835260 5.593020 760.490967
530 0 1 11.802210 5.282290 759.661987
531 0 1 11.877420 4.995310 758.745972
532 0 1 11.836530 4.821710 757.841003
533 0 1 12.031720 4.592450 756.911011
534 0 1 12.449380 4.524370 756.049011
535 0 1 12.606230 4.684580 755.025024
536 0 1 12.689680 4.765680 754.098999
537 0 1 12.664860 5.149140 753.195984
538 0 1 12.319469 5.508030 752.362000
539 0 1 11.926680 5.912310 751.608032
540 0 1 11.488950 6.240350 750.817993
541 0 1 11.049750 6.010780 749.935974
542 0 1 10.525630 5.662430 749.166016
543 0 1 10.123390 5.361970 748.299011
544 0 1 9.994480 5.054800 747.432007
545 0 1 10.045321 4.763310 746.520020
546 0 1 10.027280 4.646570 745.585999
547 0 1 9.748180 4.233210 744.684021
548 0 1 9.728040 3.726480 743.919006
549 0 1 9.737820 3.080000 743.119995
550 0 1 9.628380 2.827180 742.153015
551 0 1 9.311270 2.689440 741.317017
552 0 1 8.933341 2.659770 740.410034
553 0 1 8.648820 2.660540 739.497009
554 0 1 8.382939 2.542990 738.591980
555 0 1 8.186805 2.553600 737.619995
556 0 1 7.958020 2.544660 736.669983
557 0 1 7.752281 2.617320 735.778992
558 0 1 7.161897 2.987540 735.078979
559 0 1 6.631430 3.426420 734.361023
560 0 1 6.254730 3.879530 733.536011
561 0 1 6.143400 4.290550 732.632019
562 0 1 6.032490 4.896700 731.839966
563 0 1 6.216190 5.530450 731.044006
564 0 1 6.346090 6.213100 730.369995
565 0 1 6.508340 6.898560 729.632019
566 0 1 6.413970 7.311042 728.776001
567 0 1 6.120610 7.891403 728.050598
568 0 1 5.946550 8.269737 727.146179
569 0 1 5.756460 8.714403 726.279480
570 0 1 5.847480 8.892553 725.251221
571 0 1 5.883420 8.935010 724.282593
572 0 1 6.020880 9.130150 723.358521
573 0 1 6.486480 9.240850 722.507385
574 0 1 7.088546 9.313380 721.740173
575 0 1 7.471807 9.566390 720.822632
576 0 1 7.889868 9.776410 719.946411
577 0 1 8.162905 9.974820 718.985779
578 0 1 8.487091 10.240680 718.169495
579 0 1 8.721012 10.678960 717.364685
580 0 1 8.910366 11.177270 716.622375
581 0 1 9.107050 11.383190 715.730103
582 0 1 9.541840 11.768660 714.962219
583 0 1 9.869780 12.086420 714.081726
584 0 1 9.919210 12.169870 713.140808
585 0 1 9.796490 12.469410 712.201477
586 0 1 9.943720 12.632970 711.281921
587 0 1 10.331260 12.829250 710.440918
588 0 1 10.662350 12.512650 709.595215
589 0 1 11.067670 12.129169 708.753418
590 0 1 11.353310 11.942420 707.816101
591 0 1 11.334850 11.646339 706.892822
592 0 1 11.206970 11.340970 706.021301
593 0 1 10.989740 11.266270 705.095886
594 0 1 10.534930 11.089690 704.284424
595 0 1 9.940001 10.835510 703.452209
596 0 1 9.309060 10.669230 702.750610
597 0 1 8.725640 10.469970 701.930725
598 0 1 8.143287 10.352690 701.061523
599 0 1 7.556702 10.232920 700.360596
600 0 1 6.908650 10.183580 699.608887
601 0 1 6.284210 10.341280 698.895813
602 0 1 5.813860 10.427110 697.986206
603 0 1 5.797360 10.235590 697.087891
604 0 1 5.863430 10.271520 696.151611
605 0 1 5.906850 10.365520 695.197388
606 0 1 5.702590 10.692440 694.254272
607 0 1 5.438260 10.797170 693.372803
608 0 1 5.347950 10.522240 692.426819
609 0 1 5.356930 10.090219 691.606812
610 0 1 5.492910 9.997530 690.610779
611 0 1 5.302290 10.189160 689.636902
612 0 1 5.155700 10.494061 688.692383
613 0 1 4.898470 10.665490 687.787903
614 0 1 4.477910 10.967240 686.964783
615 0 1 4.173050 10.995520 686.039795
616 0 1 3.951040 10.923750 685.103516
617 0 1 3.794820 10.899260 684.094299
618 0 1 3.606670 10.980300 683.146973
619 0 1 3.417150 11.105920 682.154175
620 0 1 3.475400 11.280960 681.174927
621 0 1 3.510520 11.359340 680.237305
622 0 1 3.930630 11.476151 679.338074
623 0 1 4.331990 11.818640 678.522705
624 0 1 4.948270 12.068100 677.767578
625 0 1 5.430050 12.188049 676.979492
626 0 1 5.754460 11.954050 676.177795
627 0 1 6.217370 11.928130 675.283569
628 0 1 6.532580 12.084960 674.419495
629 0 1 6.949860 12.222031 673.553101
630 0 1 7.446760 12.375210 672.760681
631 0 1 7.761377 12.682090 671.946472
632 0 1 8.255973 12.872210 671.067017
633 0 1 8.784440 12.836510 670.264771
634 0 1 9.186530 12.791400 669.410828
635 0 1 9.258810 13.040190 668.416626
636 0 1 9.399850 12.887159 667.484314
637 0 1 9.658770 12.791790 666.563232
638 0 1 9.943450 12.501520 665.665588
639 0 1 10.183210 12.440220 664.652222
640 0 1 9.949000 12.653370 663.677795
641 0 1 9.948950 12.618629 662.705688
642 0 1 10.287700 12.869940 661.858887
643 0 1 10.434860 12.983480 660.928223
644 0 1 10.756150 13.089251 660.074097
645 0 1 10.850770 13.136570 659.051208
646 0 1 11.050300 13.138650 658.119507
647 0 1 11.280220 13.048840 657.178223
648 0 1 11.560801 12.802840 656.248596
649 0 1 11.838860 12.232260 655.464111
650 0 1 12.083830 11.877340 654.616699
651 0 1 12.049191 11.550140 653.768005
652 0 1 12.212140 11.386010 652.806519
653 0 1 12.315599 11.224870 651.782776
654 0 1 12.382219 10.955630 650.868225
655 0 1 12.488791 10.470050 650.020508
656 0 1 12.380950 9.843930 649.319092
657 0 1 12.337629 8.973626 648.924194
658 0 1 12.121670 8.257097 648.405518
659 0 1 11.604390 7.683744 647.782288
660 0 1 10.967170 7.173715 647.331787
661 0 1 10.329240 6.937160 646.673279
662 0 1 9.734180 6.692300 645.944580
663 0 1 9.430190 6.738570 644.997986
664 0 1 9.116920 6.846400 644.107178
665 0 1 9.264310 6.974900 643.143372
666 0 1 9.471690 7.197910 642.229797
667 0 1 9.779650 7.411286 641.308594
668 0 1 10.044820 7.904629 640.546875
669 0 1 10.525730 8.199866 639.744995
670 0 1 11.089430 8.463056 639.048096
671 0 1 11.441310 8.606365 638.052979
672 0 1 11.795230 9.016180 637.222656
673 0 1 12.048410 9.424570 636.439453
674 0 1 11.940990 10.112329 635.827454
675 0 1 11.766581 10.893330 635.195068
676 0 1 11.687070 11.730600 634.786743
677 0 1 11.617620 12.572900 634.208740
678 0 1 11.309410 13.255671 633.602234
679 0 1 10.800090 13.766291 633.032715
680 0 1 10.243150 14.181820 632.328796
681 0 1 10.074980 14.235490 631.383728
682 0 1 9.879810 14.293540 630.450256
683 0 1 9.777530 14.139620 629.516418
684 0 1 9.471620 13.964870 628.633484
685 0 1 9.289620 13.348169 627.927612
686 0 1 9.506880 12.866430 627.162476
687 0 1 9.668900 12.356831 626.372803
688 0 1 9.934750 11.956409 625.517395
689 0 1 10.144440 11.436980 624.731018
690 0 1 10.332000 11.117900 623.876892
691 0 1 10.514420 11.155690 622.946655
692 0 1 10.942130 11.062000 622.032654
693 0 1 11.622860 10.782460 621.341187
694 0 1 12.186260 10.568090 620.499573
695 0 1 12.589439 10.398510 619.633728
696 0 1 12.635380 10.284781 618.634766
697 0 1 12.700160 10.034280 617.686096
698 0 1 12.945180 9.781680 616.748718
699 0 1 13.016600 9.429990 615.808411
700 0 1 13.223380 9.354810 614.873779
701 0 1 13.640270 9.494260 613.932983
702 0 1 14.006100 9.667570 613.138794
703 0 1 14.226760 9.890770 612.188599
704 0 1 14.230000 10.075120 611.263794
705 0 1 14.180840 10.433140 610.345215
706 0 1 14.087370 10.421780 609.382019
707 0 1 13.914420 10.570030 608.456177
708 0 1 13.983210 10.561230 607.459106
709 0 1 14.071381 10.637300 606.481812
710 0 1 13.921650 10.439920 605.548401
711 0 1 13.770840 10.195820 604.572205
712 0 1 13.746230 10.038560 603.671204
713 0 1 13.706699 9.694480 602.747925
714 0 1 13.519899 9.430570 601.844727
715 0 1 13.070150 9.232600 601.069275
716 0 1 12.813089 9.057540 600.184204
717 0 1 12.516590 8.924390 599.272827
718 0 1 12.395309 8.431105 598.408386
719 0 1 12.193640 7.894290 597.641296
720 0 1 11.946239 7.260366 596.945618
721 0 1 11.615499 6.505190 596.366516
722 0 1 11.043080 6.016020 595.807678
723 0 1 10.603400 5.527390 595.039978
724 0 1 10.114180 5.098510 594.179993
725 0 1 9.931120 5.079980 593.239685
726 0 1 9.887920 4.872010 592.280273
727 0 1 9.658610 4.915730 591.375977
728 0 1 9.715960 5.072820 590.450195
729 0 1 9.647340 5.058730 589.477905
730 0 1 9.746920 5.266370 588.564392
731 0 1 9.747410 5.267390 587.636292
732 0 1 9.884780 5.314740 586.680420
733 0 1 10.099240 5.236910 585.762329
734 0 1 10.475800 5.596810 584.979309
735 0 1 11.037420 6.003600 584.359009
736 0 1 11.497829 6.589390 583.676880
737 0 1 11.551889 7.071615 582.871399
738 0 1 11.627069 7.589230 582.057190
739 0 1 11.590179 8.126217 581.149109
740 0 1 11.697290 8.624977 580.399780
741 0 1 11.529660 9.230870 579.647522
742 0 1 11.279770 9.820230 578.963013
743 0 1 11.282760 10.213181 578.067383
744 0 1 10.956650 10.367980 577.173828
745 0 1 10.477310 10.395480 576.383423
746 0 1 10.195641 10.289761 575.462769
747 0 1 10.229080 10.308929 574.581116
748 0 1 10.072930 10.216820 573.514709
749 0 1 9.988290 9.921450 572.619995
750 0 1 10.159270 9.824880 571.697815
751 0 1 10.434790 9.502370 570.813599
752 0 1 10.639690 8.927057 570.061768
753 0 1 10.475030 8.585998 569.158203
754 0 1 10.086290 8.306597 568.312378
755 0 1 9.843520 7.733050 567.485718
756 0 1 9.546570 7.197363 566.698608
757 0 1 9.123650 6.597050 566.073914
758 0 1 8.805549 5.819070 565.553284
759 0 1 8.641462 5.142250 564.912415
760 0 1 8.343216 4.327450 564.386414
761 0 1 8.418070 3.900510 563.565125
762 0 1 8.448087 3.713620 562.647522
763 0 1 8.563570 3.779190 561.631714
764 0 1 8.671446 3.946570 560.684509
765 0 1 9.078190 4.159490 559.776978
766 0 1 9.242560 4.248310 558.850403
767 0 1 9.307350 4.562660 557.899719
768 0 1 9.129100 4.348860 556.958679
769 0 1 9.083040 4.276210 555.982788
770 0 1 8.537427 4.385710 555.143494
771 0 1 8.218462 4.787370 554.294922
772 0 1 7.797230 5.353860 553.530212
773 0 1 7.549267 5.975260 552.663696
774 0 1 7.496837 6.344950 551.737976
775 0 1 7.205210 6.934990 550.901917
776 0 1 6.687170 7.360436 550.220703
777 0 1 6.468950 7.907838 549.481201
778 0 1 6.231820 8.457985 548.659790
779 0 1 5.920370 8.994449 547.884399
780 0 1 5.819500 9.069850 546.924805
781 0 1 5.752330 8.861411 545.932190
782 0 1 5.770880 8.899956 544.955017
783 0 1 5.706960 8.908570 543.989685
784 0 1 5.326810 8.931991 543.029297
785 0 1 4.901330 8.871418 542.104370
786 0 1 4.644630 8.840675 541.083374
787 0 1 4.271630 9.007110 540.236816