LAMMPS data file via MDAnalysis

        1000  atoms
        1000  bonds
        1000  angles
           0  dihedrals
           0  impropers

           1  atom types
           1  bond types
           1  angle types
           0  dihedral types
           0  improper types

0.000000 16.000000 xlo xhi
0.000000 16.000000 ylo yhi
0.000000 1257.000000 zlo zhi


Masses

1 1.000000

Atoms

1 0 1 5.231940 10.274270 441.984009
2 0 1 5.492650 9.499060 442.546997
3 0 1 6.008280 8.762713 442.908997
4 0 1 6.461570 8.061066 443.326996
5 0 1 6.850310 7.464870 443.984009
6 0 1 7.420266 6.785460 444.377991
7 0 1 7.655183 6.036000 445.020996
8 0 1 7.826917 5.615160 445.914001
9 0 1 7.991400 5.448600 446.872009
10 0 1 7.935035 5.269850 447.815002
11 0 1 7.603232 5.229450 448.690979
12 0 1 7.286715 5.275780 449.567993
13 0 1 6.931400 5.301830 450.434021
14 0 1 6.426310 5.596360 451.252991
15 0 1 5.940810 6.022300 451.970001
16 0 1 5.669250 6.368160 452.885010
17 0 1 5.416470 6.532950 453.778015
18 0 1 5.264830 6.592230 454.746002
19 0 1 5.109530 6.462430 455.658020
20 0 1 4.947210 6.111250 456.557983
21 0 1 5.155810 5.698350 457.437012
22 0 1 5.364750 5.198770 458.291992
23 0 1 5.455490 4.769690 459.145996
24 0 1 5.405690 4.345230 460.002991
25 0 1 5.239380 4.095840 460.950012
26 0 1 5.223740 3.863990 461.895020
27 0 1 4.943980 3.636330 462.804993
28 0 1 4.884610 3.363430 463.664978
29 0 1 4.724690 3.086950 464.505981
30 0 1 4.470950 2.917280 465.445007
31 0 1 4.125560 2.850700 466.364990
32 0 1 3.929950 2.688240 467.296997
33 0 1 3.841430 2.804270 468.328979
34 0 1 3.782060 3.124400 469.273010
35 0 1 3.938680 3.461140 470.167999
36 0 1 4.386240 3.966530 470.817993
37 0 1 4.822330 4.123020 471.692017
38 0 1 5.090330 4.276080 472.626007
39 0 1 5.321370 4.567140 473.524994
40 0 1 5.658610 4.864050 474.450012
41 0 1 5.906790 5.047800 475.351013
42 0 1 5.886690 4.877310 476.302002
43 0 1 6.027190 4.753810 477.234009
44 0 1 6.185780 4.431410 478.190979
45 0 1 6.477150 3.993100 479.016998
46 0 1 6.811830 3.828470 479.901978
47 0 1 7.069558 3.918000 480.863007
48 0 1 7.233216 4.252400 481.755981
49 0 1 7.429365 4.649600 482.585999
50 0 1 7.338194 5.029890 483.468994
51 0 1 7.120735 5.055190 484.427979
52 0 1 7.252346 5.212780 485.359009
53 0 1 7.494470 5.314820 486.346008
54 0 1 7.875604 5.488070 487.182983
55 0 1 8.304912 5.501770 487.950989
56 0 1 8.966933 5.851990 488.497986
57 0 1 9.750660 6.194020 488.953003
58 0 1 10.386120 6.456640 489.598022
59 0 1 10.968660 6.732670 490.359009
60 0 1 11.471510 7.099728 491.151978
61 0 1 11.745800 7.584571 491.955994
62 0 1 11.963980 8.114980 492.753998
63 0 1 11.985850 8.578395 493.632996
64 0 1 12.254089 9.113080 494.416016
65 0 1 12.419550 9.572530 495.278992
66 0 1 12.502541 10.180750 496.023010
67 0 1 12.260520 10.443950 496.923004
68 0 1 12.174009 10.378901 497.885010
69 0 1 12.057840 10.251240 498.802002
70 0 1 11.598960 9.990660 499.639008
71 0 1 11.431350 9.700970 500.576996
72 0 1 10.905750 9.348110 501.338989
73 0 1 10.609591 9.191720 502.178009
74 0 1 10.559401 9.184390 503.104004
75 0 1 10.535340 9.035260 504.119995
76 0 1 10.241489 9.002650 505.041016
77 0 1 9.928240 9.083870 505.959991
78 0 1 9.798640 9.166840 506.898010
79 0 1 10.113300 9.150530 507.778992
80 0 1 10.202880 8.994517 508.739014
81 0 1 9.884920 8.697927 509.578003
82 0 1 9.408620 8.325382 510.372009
83 0 1 9.021190 8.362483 511.208984
84 0 1 8.693210 8.336688 512.145996
85 0 1 8.239486 8.284073 513.030029
86 0 1 7.845127 8.209659 513.885986
87 0 1 7.327090 8.207991 514.685974
88 0 1 6.988350 8.373736 515.572021
89 0 1 6.470260 8.826528 516.250000
90 0 1 5.996420 9.271520 517.007996
91 0 1 6.086480 9.726240 517.825989
92 0 1 6.066120 10.333470 518.637024
93 0 1 6.118680 10.894250 519.341003
94 0 1 6.231960 11.561930 520.046021
95 0 1 6.378270 12.174630 520.757996
96 0 1 6.604100 12.742910 521.468018
97 0 1 6.647110 13.146310 522.370972
98 0 1 6.855160 13.350269 523.245972
99 0 1 7.181084 13.621320 524.119995
100 0 1 7.582632 13.702630 525.057007
101 0 1 7.862027 13.593290 525.983032
102 0 1 7.886634 13.551120 526.968018
103 0 1 8.034071 13.796780 527.877014
104 0 1 8.160624 13.843920 528.822083
105 0 1 8.652171 13.922800 529.675781
106 0 1 9.100370 14.003740 530.561523
107 0 1 9.826490 13.941530 531.307800
108 0 1 10.365499 13.910720 532.057922
109 0 1 10.374140 14.032021 533.073181
110 0 1 10.289330 13.970170 534.068970
111 0 1 10.420350 14.172100 535.002625
112 0 1 10.177440 14.320780 535.922791
113 0 1 10.184230 14.154560 536.841980
114 0 1 10.158020 13.718250 537.665222
115 0 1 10.034200 13.079790 538.402283
116 0 1 10.040791 12.738440 539.319397
117 0 1 10.020470 12.332410 540.202515
118 0 1 10.261800 11.868510 541.060974
119 0 1 10.488091 11.521100 541.932983
120 0 1 10.697390 10.957010 542.680725
121 0 1 10.741510 10.612520 543.529297
122 0 1 10.635270 10.221070 544.402100
123 0 1 10.412710 9.985330 545.304504
124 0 1 10.241000 10.028360 546.236511
125 0 1 9.870180 9.963530 547.120117
126 0 1 9.596200 9.884900 548.022888
127 0 1 9.343130 9.829530 548.981079
128 0 1 8.951975 9.894250 549.921387
129 0 1 8.522899 9.552570 550.745300
130 0 1 8.338059 9.142740 551.515686
131 0 1 8.120600 8.525058 552.241211
132 0 1 8.035406 7.794236 552.967102
133 0 1 8.137987 7.116397 553.659302
134 0 1 8.371119 6.465320 554.348816
135 0 1 8.452698 5.842850 555.068909
136 0 1 8.553218 5.198650 555.857605
137 0 1 8.517996 5.137470 556.868225
138 0 1 8.546680 4.918950 557.882385
139 0 1 8.559717 4.573510 558.805420
140 0 1 8.725946 4.532290 559.819824
141 0 1 8.902374 4.387960 560.761414
142 0 1 9.009930 4.313840 561.814209
143 0 1 9.082860 4.154650 562.745300
144 0 1 9.154000 3.932900 563.678223
145 0 1 9.093781 3.839690 564.557678
146 0 1 9.012820 3.599790 565.528320
147 0 1 9.065570 3.112990 566.363770
148 0 1 9.318730 2.713670 567.262207
149 0 1 9.702040 2.429730 568.057922
150 0 1 9.934940 2.240240 569.018799
151 0 1 9.896270 2.330750 569.917297
152 0 1 9.748520 2.472480 570.837769
153 0 1 9.257130 2.665000 571.669983
154 0 1 8.635736 2.950120 572.431274
155 0 1 8.293624 3.513150 573.111511
156 0 1 8.026592 4.174940 573.794983
157 0 1 7.709633 4.817730 574.494629
158 0 1 7.396968 5.385620 575.190796
159 0 1 6.858150 5.888300 575.726074
160 0 1 6.394380 6.257150 576.488403
161 0 1 5.987070 6.883310 577.113281
162 0 1 5.844370 7.505322 577.833130
163 0 1 5.921170 7.869288 578.708008
164 0 1 6.155640 8.472940 579.483276
165 0 1 6.338430 9.188120 580.087524
166 0 1 6.298720 10.003410 580.745483
167 0 1 6.559400 10.565090 581.456299
168 0 1 6.660760 11.192610 582.179688
169 0 1 6.732950 11.575460 583.085022
170 0 1 6.813380 11.614750 584.012817
171 0 1 7.165374 11.468800 584.891296
172 0 1 7.273483 11.313169 585.808777
173 0 1 7.464871 11.260410 586.753784
174 0 1 7.272531 11.166740 587.727112
175 0 1 7.213826 10.966920 588.713684
176 0 1 6.997250 10.994870 589.640686
177 0 1 6.812330 10.794740 590.540283
178 0 1 6.448720 10.293990 591.300110
179 0 1 6.414530 9.800710 592.102417
180 0 1 6.405380 9.164721 592.847168
181 0 1 6.146840 8.538097 593.569214
182 0 1 5.985200 8.381913 594.490173
183 0 1 5.893900 8.192535 595.453003
184 0 1 6.038520 7.756106 596.299683
185 0 1 5.971160 7.368915 597.189514
186 0 1 6.096860 6.812360 597.978516
187 0 1 6.124500 6.367720 598.840576
188 0 1 6.272590 5.900180 599.730103
189 0 1 6.620430 5.493410 600.588318
190 0 1 7.018718 5.203430 601.399414
191 0 1 7.447070 5.242550 602.312500
192 0 1 7.452073 5.269840 603.229126
193 0 1 7.676905 5.611260 604.072083
194 0 1 7.828443 6.017290 604.927979
195 0 1 7.830684 6.414360 605.826172
196 0 1 7.801786 6.699840 606.701416
197 0 1 7.775378 6.783960 607.609924
198 0 1 7.823734 7.179790 608.457886
199 0 1 7.996055 7.702316 609.273804
200 0 1 8.105177 7.888757 610.273804
201 0 1 8.239001 7.870319 611.200989
202 0 1 8.216489 7.790608 612.170227
203 0 1 8.081553 7.665716 613.091309
204 0 1 8.221962 7.510587 614.065674
205 0 1 8.506403 7.300992 615.005798
206 0 1 8.425612 7.115807 615.978821
207 0 1 8.491838 7.374088 616.871216
208 0 1 8.360417 7.455051 617.838806
209 0 1 8.266566 7.538377 618.783508
210 0 1 8.161189 7.323677 619.741638
211 0 1 8.357257 7.176987 620.641113
212 0 1 8.188054 6.915550 621.620300
213 0 1 7.790431 6.595890 622.473511
214 0 1 7.505355 6.327480 623.310120
215 0 1 7.480955 6.238890 624.276184
216 0 1 7.670780 6.365040 625.190918
217 0 1 7.750961 6.654860 626.170288
218 0 1 8.013414 7.003430 627.002319
219 0 1 8.064908 7.356073 627.937927
220 0 1 8.121542 7.683703 628.883484
221 0 1 8.223220 7.933342 629.822449
222 0 1 8.457424 8.037394 630.728821
223 0 1 8.321692 7.644108 631.613708
224 0 1 8.522171 7.025549 632.360840
225 0 1 8.776640 6.595110 633.223022
226 0 1 9.117210 6.514920 634.177917
227 0 1 9.615910 6.528510 635.030762
228 0 1 10.431290 6.404930 635.546143
229 0 1 11.005500 6.008640 636.160034
230 0 1 11.570920 5.541500 636.788330
231 0 1 12.010000 5.541170 637.648804
232 0 1 12.332180 5.687360 638.594482
233 0 1 12.575160 6.021900 639.479370
234 0 1 12.806700 6.194210 640.409302
235 0 1 13.132490 6.289460 641.362427
236 0 1 13.394500 6.314000 642.293579
237 0 1 13.467060 6.435410 643.221924
238 0 1 13.614270 6.688020 644.130798
239 0 1 13.508520 6.697510 645.113586
240 0 1 13.296320 6.578640 646.017822
241 0 1 13.229640 6.755170 647.010010
242 0 1 13.322950 7.169240 647.966675
243 0 1 13.349501 7.412584 648.953308
244 0 1 13.426430 7.558045 649.964905
245 0 1 13.557770 7.651931 650.959412
246 0 1 13.753600 7.863301 651.906372
247 0 1 13.837650 7.859093 652.834290
248 0 1 14.011930 8.308582 653.704712
249 0 1 13.949720 8.633056 654.585022
250 0 1 13.914030 9.004470 655.406006
251 0 1 13.737690 9.680930 656.054626
252 0 1 13.650101 10.471140 656.561829
253 0 1 13.431330 11.172540 657.250122
254 0 1 13.616940 11.704900 657.998108
255 0 1 13.613260 12.019590 658.912720
256 0 1 13.264629 12.251431 659.715820
257 0 1 13.128690 12.401131 660.614624
258 0 1 12.884630 12.084990 661.469604
259 0 1 12.574810 11.625480 662.285889
260 0 1 12.481020 11.095090 663.139587
261 0 1 12.697880 10.432899 663.895325
262 0 1 13.006960 9.817801 664.542908
263 0 1 13.337191 9.282550 665.257202
264 0 1 13.169189 8.760027 665.993103
265 0 1 12.697840 8.592836 666.872314
266 0 1 12.497660 8.542098 667.824707
267 0 1 12.005610 8.652618 668.683411
268 0 1 11.229750 8.806896 669.247803
269 0 1 10.569110 8.715136 669.912109
270 0 1 10.037849 8.578346 670.697632
271 0 1 9.681780 8.403466 671.627686
272 0 1 9.476990 8.091047 672.481384
273 0 1 8.909855 7.607189 673.166626
274 0 1 8.532634 7.021108 673.851013
275 0 1 8.251632 6.518480 674.577820
276 0 1 7.895546 6.001540 675.282104
277 0 1 7.684778 5.600930 676.139099
278 0 1 7.639523 5.270620 677.018799
279 0 1 7.719105 5.073090 677.960876
280 0 1 7.788119 4.692220 678.798889
281 0 1 7.848015 4.491570 679.766724
282 0 1 7.578000 4.365730 680.701782
283 0 1 7.209835 4.179120 681.596497
284 0 1 6.726510 4.320120 682.398682
285 0 1 6.376560 4.260240 683.285889
286 0 1 6.039300 4.006960 684.083130
287 0 1 5.996160 3.637320 685.050110
288 0 1 5.978080 3.686100 686.061096
289 0 1 6.079860 3.861320 686.984131
290 0 1 5.990840 3.838260 687.957581
291 0 1 5.973990 4.020980 688.845825
292 0 1 5.930770 3.873280 689.733582
293 0 1 5.735460 3.734000 690.628906
294 0 1 5.458600 3.980000 691.507385
295 0 1 5.218010 4.305340 692.361877
296 0 1 5.138440 4.800270 693.179626
297 0 1 5.090830 5.223760 694.004578
298 0 1 5.017510 5.868410 694.754395
299 0 1 5.044240 6.554840 695.505005
300 0 1 5.267230 7.109953 696.268433
301 0 1 5.328530 7.752970 696.966980
302 0 1 5.576690 8.263039 697.788818
303 0 1 5.793000 8.716629 698.619995
304 0 1 6.128380 9.262800 699.434204
305 0 1 6.450630 9.696590 700.268188
306 0 1 6.628630 10.473150 700.962097
307 0 1 6.680260 10.956881 701.825012
308 0 1 6.810680 11.522770 702.626221
309 0 1 7.006914 12.029900 703.453308
310 0 1 7.098195 12.418990 704.348206
311 0 1 7.096162 13.027660 705.093872
312 0 1 6.607800 13.465240 705.854797
313 0 1 6.363440 13.808760 706.721680
314 0 1 6.015230 13.979580 707.656128
315 0 1 5.940810 14.118299 708.611511
316 0 1 6.063570 14.174770 709.550781
317 0 1 6.184180 14.004430 710.447388
318 0 1 6.251710 13.409050 711.178711
319 0 1 5.935800 12.690570 711.828674
320 0 1 5.643650 12.153220 712.597900
321 0 1 5.689120 11.542650 713.323303
322 0 1 5.998400 10.843840 713.844788
323 0 1 6.048780 10.032681 714.346008
324 0 1 5.902090 9.122040 714.610901
325 0 1 5.763210 8.301515 715.078308
326 0 1 5.849800 7.405084 715.392395
327 0 1 5.831320 6.472600 715.694275
328 0 1 5.788990 5.496830 715.882385
329 0 1 5.858000 4.733350 716.465393
330 0 1 5.762310 4.062790 717.221191
331 0 1 5.512600 3.593170 718.052612
332 0 1 5.194760 3.077190 718.786682
333 0 1 5.051030 3.032600 719.724121
334 0 1 5.092990 3.148450 720.664124
335 0 1 5.352830 3.114670 721.612976
336 0 1 5.560980 2.926640 722.516418
337 0 1 5.589500 3.020590 723.515198
338 0 1 5.842500 3.181240 724.487305
339 0 1 6.160960 3.457840 725.349487
340 0 1 6.093630 3.769130 726.243774
341 0 1 6.090430 4.257600 727.094727
342 0 1 6.091050 4.714730 727.998169
343 0 1 5.976110 5.066950 728.919006
344 0 1 6.308810 5.705270 729.562012
345 0 1 6.856330 6.321800 730.078003
346 0 1 7.542611 6.919960 730.427979
347 0 1 8.095982 7.138055 731.127014
348 0 1 8.556163 7.381129 731.927002
349 0 1 8.773415 7.571459 732.885010
350 0 1 8.788456 7.628459 733.890015
351 0 1 8.971005 7.719592 734.891968
352 0 1 9.058430 7.787592 735.861023
353 0 1 8.893063 7.748672 736.828003
354 0 1 8.616024 7.512882 737.749023
355 0 1 8.393412 6.906920 738.492981
356 0 1 8.200350 6.442020 739.307983
357 0 1 8.214438 6.068050 740.218018
358 0 1 7.765967 5.773760 741.000000
359 0 1 7.194237 5.603610 741.789978
360 0 1 6.885330 5.714290 742.703003
361 0 1 6.699510 5.649220 743.585022
362 0 1 6.660790 5.645980 744.542969
363 0 1 6.491690 5.699560 745.468018
364 0 1 6.296720 5.446360 746.384033
365 0 1 6.052720 5.082710 747.263977
366 0 1 5.562560 4.899280 748.002014
367 0 1 5.393240 4.897430 748.979980
368 0 1 5.007280 4.787770 749.911987
369 0 1 4.631980 4.895680 750.812012
370 0 1 4.145890 4.900040 751.658997
371 0 1 3.784100 5.057940 752.565002
372 0 1 3.646480 5.213220 753.450012
373 0 1 3.459910 5.355560 754.377014
374 0 1 3.119400 5.519050 755.262024
375 0 1 2.922180 5.913680 756.156982
376 0 1 3.007720 6.271540 757.020020
377 0 1 3.077940 6.611040 757.997986
378 0 1 2.968240 6.851170 758.942017
379 0 1 3.143520 6.801290 759.903015
380 0 1 3.820040 6.764540 760.568970
381 0 1 4.392610 7.019481 761.285034
382 0 1 5.114960 7.110570 761.960022
383 0 1 5.679810 7.290138 762.688965
384 0 1 6.084630 7.415276 763.585999
385 0 1 6.339760 7.413570 764.526978
386 0 1 6.424030 7.787533 765.424011
387 0 1 6.477010 8.090786 766.396973
388 0 1 6.753580 8.390191 767.278992
389 0 1 7.046662 8.921236 768.117981
390 0 1 7.455531 9.095320 768.973999
391 0 1 7.943279 9.299470 769.817017
392 0 1 8.478798 9.211170 770.630005
393 0 1 9.139930 9.028140 771.476013
394 0 1 9.474751 8.547070 772.252014
395 0 1 9.841130 7.843578 772.783997
396 0 1 10.469580 7.229889 773.264038
397 0 1 10.927240 6.700970 773.968018
398 0 1 11.522090 6.461880 774.656982
399 0 1 12.190030 6.478600 775.377014
400 0 1 12.725969 6.124410 776.151001
401 0 1 13.357380 5.885950 776.833008
402 0 1 13.861870 5.951060 777.638000
403 0 1 14.207340 6.221260 778.533020
404 0 1 14.478310 6.633460 779.377991
405 0 1 14.468330 6.831750 780.390015
406 0 1 14.321560 6.876690 781.356995
407 0 1 14.274450 6.904580 782.358032
408 0 1 14.232710 6.946900 783.315979
409 0 1 14.008130 7.011070 784.306030
410 0 1 13.563260 7.056946 785.122986
411 0 1 13.043320 7.093485 786.000000
412 0 1 12.649799 7.030170 786.963013
413 0 1 12.586580 6.767860 787.875977
414 0 1 12.610550 6.674050 788.787964
415 0 1 12.545520 6.598050 789.764038
416 0 1 12.503389 6.632410 790.752014
417 0 1 12.495290 6.485550 791.726013
418 0 1 12.381081 6.473860 792.737000
419 0 1 12.539600 6.524370 793.710022
420 0 1 12.547911 6.763490 794.645020
421 0 1 12.849520 6.893500 795.535034
422 0 1 12.855841 6.589120 796.450989
423 0 1 13.023020 6.129580 797.289001
424 0 1 13.024310 5.718860 798.200989
425 0 1 13.034460 5.309140 799.125000
426 0 1 12.833580 5.167940 800.062012
427 0 1 12.640540 4.895270 800.955017
428 0 1 12.319880 4.781610 801.864990
429 0 1 11.975180 4.608600 802.708984
430 0 1 11.480570 4.719990 803.542969
431 0 1 11.299960 4.839630 804.484009
432 0 1 10.826760 4.830910 805.285034
433 0 1 10.256580 4.994380 806.018982
434 0 1 9.569700 5.060720 806.721008
435 0 1 9.095290 5.449450 807.476013
436 0 1 8.581883 5.765220 808.238037
437 0 1 7.929820 5.999190 808.931030
438 0 1 7.345732 6.577960 809.299988
439 0 1 6.629090 6.605680 809.900024
440 0 1 6.133380 6.731670 810.781006
441 0 1 5.673550 6.776370 811.617004
442 0 1 5.222970 7.259332 812.247986
443 0 1 4.720920 7.840522 812.934021
444 0 1 4.264120 8.232846 813.682983
445 0 1 3.678880 8.677023 814.327026
446 0 1 3.035220 9.151080 814.960999
447 0 1 2.568280 9.605920 815.632996
448 0 1 2.174960 9.981570 816.458008
449 0 1 2.075410 10.218260 817.405029
450 0 1 2.177250 10.186501 818.343018
451 0 1 2.180450 10.140020 819.312012
452 0 1 2.319350 9.897830 820.208008
453 0 1 2.641750 9.895210 821.161987
454 0 1 3.041000 10.061171 822.046021
455 0 1 3.311930 10.293410 822.879028
456 0 1 3.668830 10.428690 823.837036
457 0 1 3.895080 10.782391 824.653992
458 0 1 4.320530 10.884610 825.478027
459 0 1 4.648470 11.089170 826.405029
460 0 1 5.109810 11.527840 827.036011
461 0 1 5.558800 11.715660 827.877991
462 0 1 5.630650 11.911640 828.846985
463 0 1 5.652220 12.057550 829.773987
464 0 1 5.641330 12.141541 830.740967
465 0 1 5.568530 12.317410 831.641968
466 0 1 5.388580 12.325171 832.591980
467 0 1 5.572460 12.312810 833.588013
468 0 1 6.284110 12.287540 834.333984
469 0 1 6.981870 12.177540 835.010986
470 0 1 7.560984 11.736361 835.742981
471 0 1 7.963574 11.048690 836.309998
472 0 1 8.014530 10.084351 836.348022
473 0 1 7.917371 9.129660 836.354004
474 0 1 8.135687 8.207241 836.546021
475 0 1 8.426001 7.296482 836.556030
476 0 1 8.540213 6.359950 836.408997
477 0 1 8.724503 5.408260 836.120972
478 0 1 8.920275 4.662040 835.455017
479 0 1 9.079190 3.948800 834.903992
480 0 1 9.190900 3.255280 834.247009
481 0 1 9.429240 2.703390 833.494995
482 0 1 9.872020 2.534510 832.660034
483 0 1 10.038100 2.392930 831.671021
484 0 1 9.760590 2.472030 830.739990
485 0 1 9.666320 2.751120 829.802002
486 0 1 9.501150 3.066360 828.804993
487 0 1 9.321870 3.313800 827.926025
488 0 1 9.283550 3.281550 826.882996
489 0 1 9.123110 3.032900 825.958984
490 0 1 9.055380 3.025280 824.938965
491 0 1 8.708419 2.997360 824.036011
492 0 1 8.500154 2.850270 823.099976
493 0 1 8.460713 3.117200 822.117981
494 0 1 8.541880 3.129320 821.195984
495 0 1 8.698219 3.166260 820.200989
496 0 1 8.864747 3.379050 819.281006
497 0 1 9.242850 3.508450 818.419006
498 0 1 9.665280 3.776980 817.587036
499 0 1 10.045910 3.809830 816.690979
500 0 1 10.616030 3.800400 815.879028
501 0 1 10.936700 3.806840 814.947998
502 0 1 10.921520 3.990990 814.033997
503 0 1 10.977961 4.128190 813.096985
504 0 1 10.567270 4.342990 812.223022
505 0 1 10.170361 4.628140 811.354980
506 0 1 9.666350 4.675140 810.537964
507 0 1 9.018380 4.799560 809.780029
508 0 1 8.203814 4.952790 809.281006
509 0 1 7.372837 5.034470 808.802002
510 0 1 6.546920 5.005070 808.307007
511 0 1 5.790650 5.167120 807.771973
512 0 1 5.128560 5.070230 807.054016
513 0 1 4.657870 4.957270 806.179993
514 0 1 4.273000 4.950590 805.309021
515 0 1 4.242140 5.025690 804.395020
516 0 1 4.133540 5.344770 803.468994
517 0 1 3.905460 5.645700 802.596985
518 0 1 3.757730 6.089670 801.739990
519 0 1 3.432600 6.557730 800.963013
520 0 1 3.076310 6.828720 800.098022
521 0 1 2.674150 7.108567 799.257996
522 0 1 2.575800 7.243930 798.341980
523 0 1 2.376490 6.965750 797.389038
524 0 1 2.244310 7.051140 796.460999
525 0 1 2.204710 7.241181 795.507996
526 0 1 2.199750 7.500242 794.504028
527 0 1 2.064850 7.960679 793.635986
528 0 1 2.007430 8.600103 792.879028
529 0 1 1.983790 9.111400 792.046997
530 0 1 2.032050 9.619820 791.263000
531 0 1 2.158680 10.057529 790.396973
532 0 1 2.434840 10.264760 789.497986
533 0 1 2.789520 10.719130 788.744995
534 0 1 3.326120 10.748290 787.953003
535 0 1 3.941220 10.476630 787.242004
536 0 1 4.584380 10.282230 786.583008
537 0 1 4.910390 10.349280 785.676025
538 0 1 5.034070 10.541950 784.776001
539 0 1 5.402160 10.718250 783.914001
540 0 1 5.650270 11.096060 783.094971
541 0 1 5.874590 11.389970 782.208984
542 0 1 6.332120 11.656640 781.364014
543 0 1 6.698480 11.872760 780.489990
544 0 1 7.242325 12.264060 779.729980
545 0 1 7.559633 12.355920 778.807983
546 0 1 7.898168 12.303370 777.846985
547 0 1 8.153516 12.348270 776.927979
548 0 1 8.314306 12.167240 775.989990
549 0 1 8.408588 11.992060 775.062012
550 0 1 8.631552 11.840230 774.132996
551 0 1 8.860391 11.492970 773.228027
552 0 1 9.309870 11.376560 772.353027
553 0 1 9.409480 10.865829 771.453003
554 0 1 9.497540 10.356700 770.622986
555 0 1 9.376160 9.697270 769.962036
556 0 1 9.035670 9.168580 769.234985
557 0 1 8.879744 8.781656 768.294006
558 0 1 9.049230 8.066352 767.606995
559 0 1 9.093320 7.289143 767.132019
560 0 1 9.339530 6.900980 766.286011
561 0 1 9.187900 6.976490 765.315979
562 0 1 9.202930 7.010068 764.363037
563 0 1 9.152790 7.012545 763.440002
564 0 1 8.825506 6.911170 762.559998
565 0 1 8.571571 7.047304 761.636963
566 0 1 8.124619 7.362449 760.830017
567 0 1 7.962421 7.855006 760.023987
568 0 1 7.591608 8.210038 759.242004
569 0 1 7.398637 8.677529 758.450989
570 0 1 7.204495 9.086230 757.625000
571 0 1 7.031819 9.553500 756.765015
572 0 1 6.830210 10.339130 756.244019
573 0 1 7.087215 10.877260 755.455994
574 0 1 7.448335 11.298740 754.718994
575 0 1 7.986233 11.588390 753.932983
576 0 1 8.376279 11.670370 753.056030
577 0 1 8.690111 11.404700 752.127991
578 0 1 8.812570 11.376940 751.205017
579 0 1 8.820125 11.389040 750.289978
580 0 1 9.190800 11.221260 749.406982
581 0 1 9.520180 10.881880 748.575989
582 0 1 9.786810 10.361660 747.789001
583 0 1 10.028790 9.936660 746.929016
584 0 1 10.296380 9.387620 746.205017
585 0 1 10.461470 8.906217 745.369995
586 0 1 10.692580 8.553545 744.510986
587 0 1 10.756190 7.870860 743.799988
588 0 1 10.913750 7.522745 742.922974
589 0 1 11.122280 7.225983 741.992981
590 0 1 11.374490 7.025233 741.106995
591 0 1 11.477961 7.042157 740.161011
592 0 1 11.750210 6.826590 739.291016
593 0 1 12.391991 6.645760 738.632996
594 0 1 13.101940 6.310150 738.035034
595 0 1 13.518780 5.791930 737.372986
596 0 1 13.982840 5.697830 736.447021
597 0 1 14.315100 5.611410 735.398987
598 0 1 14.384581 5.564530 734.440979
599 0 1 14.281900 5.491100 733.440002
600 0 1 14.165000 5.250430 732.416016
601 0 1 13.945510 5.299550 731.473999
602 0 1 13.603630 5.136810 730.544983
603 0 1 13.204940 5.188880 729.630981
604 0 1 12.759600 5.433240 728.841980
605 0 1 12.519780 5.413280 727.826782
606 0 1 12.148140 5.360940 726.898376
607 0 1 11.701020 4.987390 726.108704
608 0 1 11.070820 4.971760 725.310974
609 0 1 10.470020 5.140480 724.555420
610 0 1 9.932110 5.127820 723.792419
611 0 1 9.507230 5.278130 722.963196
612 0 1 9.113430 5.327680 722.140686
613 0 1 8.582072 5.129290 721.388184
614 0 1 8.095725 4.923830 720.557007
615 0 1 7.718738 4.866830 719.654419
616 0 1 7.487698 4.801290 718.726685
617 0 1 7.290183 4.607260 717.818176
618 0 1 7.499606 4.411620 716.895813
619 0 1 7.735264 4.252790 716.008606
620 0 1 8.136879 4.073230 715.156372
621 0 1 8.326442 3.798230 714.304199
622 0 1 8.393096 3.627490 713.346497
623 0 1 8.358347 3.821970 712.439697
624 0 1 8.258620 3.922240 711.495789
625 0 1 8.204681 4.069950 710.624634
626 0 1 8.023219 4.102710 709.621826
627 0 1 7.834027 4.440340 708.656189
628 0 1 7.382809 4.710540 707.856934
629 0 1 7.172350 4.636200 706.847717
630 0 1 6.973330 4.921920 705.914307
631 0 1 6.972810 5.360030 705.012695
632 0 1 6.777200 5.771600 704.135620
633 0 1 7.113807 6.029860 703.276733
634 0 1 7.130046 6.439690 702.461487
635 0 1 7.321784 6.844190 701.602295
636 0 1 7.492306 7.069232 700.679504
637 0 1 7.593257 7.348579 699.724487
638 0 1 7.833002 7.856282 698.845215
639 0 1 8.024394 8.125292 697.936584
640 0 1 8.195659 8.272183 697.057617
641 0 1 8.379451 8.387296 696.050476
642 0 1 8.254817 8.395759 695.056824
643 0 1 8.547275 8.466502 694.083191
644 0 1 8.847986 8.685055 693.194824
645 0 1 9.192360 8.946411 692.296631
646 0 1 9.478490 9.072150 691.372803
647 0 1 9.783510 9.436300 690.470215
648 0 1 10.010820 9.675600 689.532410
649 0 1 10.333440 9.816730 688.635803
650 0 1 10.616130 9.978790 687.731873
651 0 1 11.082320 10.349270 686.924011
652 0 1 11.572170 10.535860 686.091309
653 0 1 12.003370 10.500740 685.208374
654 0 1 12.149080 10.541059 684.280212
655 0 1 11.961760 10.582670 683.310425
656 0 1 11.948500 10.451180 682.379395
657 0 1 11.770190 10.183490 681.501282
658 0 1 11.704050 9.784380 680.581604
659 0 1 11.635070 9.166121 679.851379
660 0 1 11.539790 8.438377 679.226318
661 0 1 11.266430 7.868330 678.515869
662 0 1 11.048400 7.300214 677.781616
663 0 1 10.597760 6.688520 677.201416
664 0 1 10.568520 6.137770 676.424011
665 0 1 10.367720 5.654970 675.628113
666 0 1 9.783430 5.200920 674.946716
667 0 1 9.109490 4.920740 674.262390
668 0 1 8.634534 4.803450 673.450500
669 0 1 8.088205 4.601590 672.623108
670 0 1 7.938408 4.517760 671.676514
671 0 1 7.448417 4.629890 670.817200
672 0 1 7.275521 4.766180 669.861511
673 0 1 7.489581 4.928930 668.921631
674 0 1 7.946489 5.194020 668.113770
675 0 1 8.367841 5.127200 667.239624
676 0 1 8.884307 5.251950 666.430786
677 0 1 9.282860 5.585330 665.617493
678 0 1 9.576000 6.017270 664.785095
679 0 1 9.357420 6.574050 663.961121
680 0 1 9.315760 7.092841 663.173096
681 0 1 9.503640 7.462609 662.335999
682 0 1 9.574520 7.716777 661.411194
683 0 1 9.590240 7.832773 660.430786
684 0 1 9.725140 8.107983 659.555908
685 0 1 9.710460 8.422397 658.615295
686 0 1 9.729810 8.779229 657.729004
687 0 1 9.640040 9.094220 656.805603
688 0 1 9.406310 9.735360 656.120972
689 0 1 8.994145 10.370740 655.517090
690 0 1 8.499673 10.897240 654.896484
691 0 1 8.253889 11.417789 654.166992
692 0 1 7.767685 11.896310 653.555298
693 0 1 7.182208 12.212490 652.757019
694 0 1 6.734280 12.214331 651.976074
695 0 1 6.577840 12.238560 651.069702
696 0 1 6.411640 12.236340 650.058228
697 0 1 6.600860 12.120461 649.170105
698 0 1 6.707180 12.023520 648.245483
699 0 1 6.909220 11.848960 647.292969
700 0 1 6.838690 11.444310 646.437927
701 0 1 7.083538 11.184130 645.528503
702 0 1 7.167110 10.712390 644.662231
703 0 1 7.626218 10.270950 643.866699
704 0 1 8.006751 9.914790 643.041199
705 0 1 8.416469 9.662640 642.178528
706 0 1 8.772274 9.514230 641.345093
707 0 1 9.260120 9.105300 640.631226
708 0 1 9.525320 8.813223 639.688904
709 0 1 9.735110 8.567822 638.823792
710 0 1 9.549900 8.660655 637.896179
711 0 1 9.288430 8.490898 636.996521
712 0 1 8.819292 8.300645 636.156494
713 0 1 8.160908 8.559412 635.525024
714 0 1 7.830149 8.541385 634.520447
715 0 1 7.728383 8.585594 633.563171
716 0 1 7.582005 8.599251 632.609009
717 0 1 7.498501 8.609346 631.675476
718 0 1 7.455083 8.380802 630.786560
719 0 1 7.167544 8.081893 629.925537
720 0 1 6.738330 7.626214 629.197144
721 0 1 6.234340 7.159695 628.519897
722 0 1 5.869950 7.000794 627.638428
723 0 1 5.386870 7.070379 626.779419
724 0 1 5.164080 7.295424 625.842041
725 0 1 5.006100 7.510333 624.941345
726 0 1 4.926530 7.979789 624.042053
727 0 1 4.505600 8.657769 623.413269
728 0 1 4.352690 9.431420 622.833130
729 0 1 4.196980 9.895310 621.983032
730 0 1 4.172840 10.052090 621.041077
731 0 1 4.354610 10.036830 620.087280
732 0 1 4.870300 10.153090 619.319153
733 0 1 5.320670 10.408100 618.478027
734 0 1 5.882520 10.458050 617.621887
735 0 1 6.487550 10.152500 616.989197
736 0 1 7.073062 10.102810 616.251770
737 0 1 7.492225 10.044000 615.428772
738 0 1 7.585416 10.023520 614.512207
739 0 1 7.812148 10.126080 613.562378
740 0 1 7.994317 10.290110 612.575500
741 0 1 7.972264 10.343880 611.581482
742 0 1 7.879894 10.196140 610.638000
743 0 1 7.456828 10.046100 609.778687
744 0 1 7.102950 9.825890 608.932678
745 0 1 6.771520 9.800520 608.022278
746 0 1 6.576020 9.633900 607.023621
747 0 1 6.429480 9.593040 606.090088
748 0 1 6.230220 9.809440 605.154724
749 0 1 6.247840 9.915090 604.200012
750 0 1 6.392330 9.810160 603.262512
751 0 1 6.770170 9.750260 602.336121
752 0 1 7.186345 9.554090 601.455994
753 0 1 7.452966 9.571140 600.568420
754 0 1 7.804509 9.673700 599.597900
755 0 1 8.268206 9.769570 598.710815
756 0 1 8.441113 9.981930 597.763123
757 0 1 8.683426 10.123190 596.892273
758 0 1 8.967902 10.079100 595.912720
759 0 1 8.977725 10.095010 594.936768
760 0 1 8.952164 10.318060 594.033386
761 0 1 8.972841 10.513920 593.026611
762 0 1 9.136860 10.892720 592.180298
763 0 1 9.263800 11.126110 591.287720
764 0 1 9.699080 11.440620 590.421875
765 0 1 9.962080 11.581010 589.562683
766 0 1 10.232719 11.717870 588.610413
767 0 1 10.355850 11.415490 587.692322
768 0 1 10.273450 11.179140 586.741699
769 0 1 10.370330 10.941339 585.748413
770 0 1 10.340740 10.807631 584.796387
771 0 1 10.319611 10.648960 583.870911
772 0 1 10.456480 10.257760 582.901489
773 0 1 10.680360 9.804910 582.104370
774 0 1 11.067720 9.299850 581.388306
775 0 1 11.317350 8.928581 580.532410
776 0 1 11.347630 8.520454 579.665588
777 0 1 11.065530 8.416384 578.644592
778 0 1 10.706760 8.362510 577.803528
779 0 1 10.554970 8.026079 576.946594
780 0 1 10.314899 7.665764 576.112671
781 0 1 9.962690 7.470599 575.243225
782 0 1 9.753050 7.349765 574.341675
783 0 1 9.507600 7.207050 573.441711
784 0 1 9.046340 7.024086 572.584412
785 0 1 8.569347 6.982300 571.805481
786 0 1 8.112830 6.790060 570.965698
787 0 1 7.719896 6.930320 570.117920
788 0 1 7.148177 6.757620 569.354675
789 0 1 6.486420 6.319550 568.789185
790 0 1 6.061880 5.853020 568.053772
791 0 1 5.466270 5.219820 567.514404
792 0 1 4.973880 4.918950 566.751587
793 0 1 4.596460 4.440080 566.006104