LAMMPS data file via MDAnalysis

        1000  atoms
        1000  bonds
        1000  angles
           0  dihedrals
           0  impropers

           1  atom types
           1  bond types
           1  angle types
           0  dihedral types
           0  improper types

0.000000 16.000000 xlo xhi
0.000000 16.000000 ylo yhi
0.000000 1257.000000 zlo zhi


Masses

1 1.000000

Atoms

1 0 1 8.267278 2.522840 455.018005
2 0 1 7.614829 2.272300 455.718018
3 0 1 7.162320 2.403780 456.585999
4 0 1 6.751080 2.395600 457.442993
5 0 1 6.432330 2.285630 458.315002
6 0 1 6.240700 2.426430 459.307007
7 0 1 6.223870 2.565630 460.226990
8 0 1 6.398410 2.913930 461.101990
9 0 1 6.419300 3.235960 461.968018
10 0 1 6.585030 3.689000 462.812012
11 0 1 6.670940 4.225600 463.608002
12 0 1 6.831270 4.592730 464.490997
13 0 1 7.081048 4.749490 465.411987
14 0 1 7.465439 5.219220 466.171997
15 0 1 7.538496 5.535900 467.110992
16 0 1 7.545346 5.895100 468.023010
17 0 1 7.716424 6.288590 468.843994
18 0 1 7.765204 6.805070 469.675995
19 0 1 7.573563 7.163525 470.575012
20 0 1 7.520269 7.398989 471.565002
21 0 1 7.605775 7.789303 472.437988
22 0 1 7.779691 7.983456 473.359009
23 0 1 8.077229 8.375950 474.205994
24 0 1 8.358097 8.620966 475.070007
25 0 1 8.671470 8.713789 475.897003
26 0 1 9.175790 8.675489 476.742004
27 0 1 9.470770 8.842992 477.614990
28 0 1 9.803400 8.964450 478.505981
29 0 1 10.280710 9.044800 479.326996
30 0 1 10.481791 9.112340 480.248993
31 0 1 10.487030 9.176360 481.221985
32 0 1 10.459490 9.189680 482.161011
33 0 1 10.767340 9.222860 483.054016
34 0 1 11.082150 9.278090 483.984009
35 0 1 11.442290 8.921954 484.822998
36 0 1 11.765050 8.665742 485.742981
37 0 1 11.984410 8.635205 486.677979
38 0 1 12.355070 8.230351 487.477997
39 0 1 12.712521 7.939215 488.311005
40 0 1 12.848090 7.794685 489.261993
41 0 1 12.933400 7.964786 490.255005
42 0 1 13.099970 7.902978 491.231018
43 0 1 13.398951 7.871562 492.148010
44 0 1 13.856239 8.010724 492.966980
45 0 1 14.088200 8.256258 493.854004
46 0 1 14.362801 8.705682 494.661011
47 0 1 14.488160 9.118361 495.557007
48 0 1 14.334560 9.545040 496.447998
49 0 1 14.287809 9.948080 497.376007
50 0 1 13.906530 10.100300 498.234009
51 0 1 13.755470 10.213409 499.203003
52 0 1 13.301889 10.168290 500.026001
53 0 1 12.990601 10.076650 500.945984
54 0 1 12.659969 10.139940 501.815002
55 0 1 12.190610 10.518500 502.601990
56 0 1 11.646780 10.763990 503.291016
57 0 1 11.150380 10.890030 504.075012
58 0 1 10.779819 10.966700 504.963989
59 0 1 10.631190 11.128170 505.959991
60 0 1 10.452430 11.508180 506.770996
61 0 1 10.295520 11.824690 507.641998
62 0 1 10.063940 12.213900 508.488007
63 0 1 9.924480 12.289841 509.414001
64 0 1 9.590030 12.384410 510.304993
65 0 1 9.274660 12.505550 511.246002
66 0 1 9.015090 12.551950 512.177002
67 0 1 8.953507 12.704950 513.141968
68 0 1 9.134340 12.562270 514.073975
69 0 1 9.024320 12.321910 515.015991
70 0 1 8.831652 12.155600 515.986023
71 0 1 8.830315 11.934240 516.901001
72 0 1 8.589227 11.514690 517.677002
73 0 1 8.344900 11.207940 518.504028
74 0 1 8.066657 10.887740 519.398987
75 0 1 7.484499 10.582490 520.080994
76 0 1 6.854760 10.227261 520.799011
77 0 1 6.367890 9.695700 521.453979
78 0 1 6.032040 8.966493 521.989014
79 0 1 5.816110 8.542328 522.830017
80 0 1 5.657310 8.118151 523.666016
81 0 1 5.530380 7.580579 524.460022
82 0 1 5.766440 7.015847 525.214966
83 0 1 6.153060 6.587470 526.026001
84 0 1 6.602950 6.125520 526.778992
85 0 1 7.063047 5.722380 527.476990
86 0 1 7.622882 5.318780 528.151001
87 0 1 7.916745 4.726230 528.868408
88 0 1 8.207421 4.256940 529.689697
89 0 1 8.372621 3.976990 530.611023
90 0 1 8.541197 3.807380 531.536133
91 0 1 8.641749 3.602710 532.485596
92 0 1 8.716751 3.227050 533.394409
93 0 1 8.801450 2.889640 534.257874
94 0 1 8.999611 2.509340 535.171326
95 0 1 9.088060 2.175390 536.018066
96 0 1 9.099820 2.104550 536.953369
97 0 1 9.184010 2.002100 537.871887
98 0 1 9.047029 1.963710 538.818420
99 0 1 9.108829 1.831630 539.756409
100 0 1 9.073940 1.666510 540.681885
101 0 1 8.811439 1.412040 541.513123
102 0 1 8.795106 1.266260 542.494690
103 0 1 8.483051 1.434450 543.383484
104 0 1 8.218853 1.759550 544.240601
105 0 1 8.117895 2.009830 545.175110
106 0 1 8.056748 2.310260 546.075317
107 0 1 7.873221 2.627570 546.975708
108 0 1 8.033347 2.648260 547.917480
109 0 1 8.242901 2.730720 548.876099
110 0 1 8.214445 2.937300 549.873718
111 0 1 8.353503 3.307700 550.730591
112 0 1 8.243679 3.835970 551.506287
113 0 1 8.303638 4.618320 552.125610
114 0 1 8.276935 5.207220 552.936890
115 0 1 8.327861 5.853610 553.585815
116 0 1 8.476615 6.459260 554.335327
117 0 1 8.435925 6.852890 555.188782
118 0 1 8.291933 7.028616 556.080322
119 0 1 8.199052 7.173496 556.977600
120 0 1 8.091308 7.410550 557.865967
121 0 1 7.708006 7.272155 558.728394
122 0 1 7.563936 7.030248 559.608704
123 0 1 7.390517 6.775890 560.510925
124 0 1 7.188944 6.481740 561.462097
125 0 1 6.764840 6.013230 562.167603
126 0 1 6.377670 5.365730 562.737305
127 0 1 5.800460 4.779460 563.098633
128 0 1 5.043530 4.640100 563.670410
129 0 1 4.327040 4.816110 564.352783
130 0 1 3.896020 4.894690 565.242432
131 0 1 3.454600 5.063030 566.156006
132 0 1 3.203280 5.084780 567.072327
133 0 1 3.107840 5.238580 568.003723
134 0 1 3.088080 5.607170 568.929199
135 0 1 3.140540 5.872220 569.919983
136 0 1 3.067490 6.091300 570.804382
137 0 1 2.835090 6.180230 571.705017
138 0 1 2.711440 6.457750 572.590698
139 0 1 2.621150 6.716300 573.479614
140 0 1 2.795000 7.269657 574.249390
141 0 1 2.901070 7.924799 574.914978
142 0 1 2.939990 8.179453 575.862183
143 0 1 3.372020 8.386675 576.713318
144 0 1 3.523380 8.571850 577.624023
145 0 1 3.492400 8.485274 578.518188
146 0 1 3.584740 8.495053 579.506592
147 0 1 3.732830 8.217678 580.441284
148 0 1 3.953930 8.031670 581.387695
149 0 1 4.023770 8.056775 582.374390
150 0 1 4.050750 8.250396 583.308411
151 0 1 3.957590 8.315186 584.298096
152 0 1 3.910680 8.242165 585.270813
153 0 1 3.807060 8.306729 586.193298
154 0 1 3.674810 8.430321 587.192322
155 0 1 3.520020 8.377674 588.116516
156 0 1 3.377800 8.330351 589.063232
157 0 1 3.635870 8.260588 590.032898
158 0 1 4.254250 8.240877 590.750916
159 0 1 4.711310 8.067913 591.581299
160 0 1 5.310010 7.781903 592.277283
161 0 1 5.949410 7.545214 593.009399
162 0 1 6.354190 7.195690 593.775879
163 0 1 6.417470 6.883960 594.708374
164 0 1 6.427550 6.743850 595.676270
165 0 1 6.507740 6.659050 596.653503
166 0 1 6.468410 6.670370 597.651123
167 0 1 6.442040 6.710610 598.580627
168 0 1 6.216910 6.900290 599.460083
169 0 1 6.032030 7.192507 600.333984
170 0 1 5.943120 7.329654 601.223083
171 0 1 5.943200 7.433315 602.146179
172 0 1 6.150110 7.322052 603.072510
173 0 1 6.157810 7.003166 604.031494
174 0 1 6.432900 6.535070 604.766479
175 0 1 6.858250 6.036860 605.487671
176 0 1 7.174295 5.767570 606.370300
177 0 1 7.862688 5.667570 607.135803
178 0 1 8.341555 5.592280 607.963623
179 0 1 8.717092 5.357130 608.813171
180 0 1 9.012970 5.288130 609.735901
181 0 1 9.607750 5.216600 610.494385
182 0 1 10.314110 5.347530 611.122498
183 0 1 10.842540 5.590720 611.873718
184 0 1 11.181231 5.507890 612.754883
185 0 1 11.633950 5.481320 613.651611
186 0 1 11.741261 5.522280 614.614319
187 0 1 12.028151 5.508400 615.536194
188 0 1 12.202560 5.645860 616.492188
189 0 1 12.596530 5.729180 617.396179
190 0 1 13.216590 5.949990 618.180298
191 0 1 13.252180 6.185320 619.162537
192 0 1 13.139310 6.758420 619.920715
193 0 1 12.904270 7.186906 620.727661
194 0 1 12.595070 7.634075 621.516541
195 0 1 12.683310 8.268502 622.263062
196 0 1 12.691401 9.011480 622.973450
197 0 1 12.568010 9.459890 623.826660
198 0 1 12.202021 9.971540 624.505920
199 0 1 11.872890 10.413110 625.311462
200 0 1 11.441771 10.762569 626.069763
201 0 1 11.071190 10.803540 626.894836
202 0 1 10.686570 11.025050 627.787048
203 0 1 10.473110 11.223351 628.721741
204 0 1 10.333700 11.532380 629.661743
205 0 1 10.067950 12.059680 630.470581
206 0 1 9.634439 12.657440 630.988037
207 0 1 9.212130 13.102970 631.752686
208 0 1 8.962626 13.516130 632.603577
209 0 1 9.081070 13.684330 633.521790
210 0 1 9.356080 13.796420 634.459412
211 0 1 9.496220 13.696350 635.390442
212 0 1 9.778270 13.644260 636.323120
213 0 1 9.811890 13.740080 637.253479
214 0 1 9.592980 13.987130 638.184021
215 0 1 9.408850 13.978340 639.132874
216 0 1 9.306680 14.130440 640.063416
217 0 1 9.064631 14.078150 640.992676
218 0 1 8.846218 14.282710 641.891724
219 0 1 8.712835 14.267020 642.851929
220 0 1 8.541486 14.140471 643.765625
221 0 1 8.357641 14.027140 644.701416
222 0 1 8.109340 13.613131 645.528076
223 0 1 8.161105 13.110109 646.343018
224 0 1 8.214642 12.562580 647.173584
225 0 1 8.175706 12.311390 648.082092
226 0 1 8.537415 11.990180 649.007385
227 0 1 8.974027 11.656170 649.781128
228 0 1 9.409520 11.573510 650.635071
229 0 1 9.664950 11.526150 651.546021
230 0 1 10.129960 11.459720 652.397400
231 0 1 10.520550 11.313510 653.272095
232 0 1 10.813390 11.333900 654.207581
233 0 1 10.897870 10.974860 655.141479
234 0 1 10.874720 10.449409 655.971619
235 0 1 10.825740 9.739030 656.637207
236 0 1 10.809060 9.041350 657.362671
237 0 1 10.537570 8.481199 658.124573
238 0 1 10.393530 8.011325 659.038879
239 0 1 10.247060 7.518211 659.869873
240 0 1 9.827880 7.239637 660.675720
241 0 1 9.322250 7.221753 661.539673
242 0 1 8.673371 7.238203 662.214722
243 0 1 8.074607 7.462039 662.883301
244 0 1 7.372076 7.799647 663.423584
245 0 1 6.889270 8.044552 664.200684
246 0 1 6.493470 8.388300 665.018188
247 0 1 6.364500 8.848381 665.845093
248 0 1 5.938910 9.195850 666.587524
249 0 1 5.471860 9.498590 667.395020
250 0 1 4.990870 9.635500 668.340210
251 0 1 4.560500 9.713040 669.217529
252 0 1 4.308710 9.821970 670.153198
253 0 1 4.082710 9.889290 671.126587
254 0 1 4.134440 9.842890 672.084290
255 0 1 4.197610 9.629820 673.052612
256 0 1 4.336900 9.302380 673.970520
257 0 1 4.809040 9.122931 674.811768
258 0 1 5.214910 9.386250 675.568726
259 0 1 5.815100 9.627940 676.290710
260 0 1 6.315340 9.665130 677.118103
261 0 1 6.488020 10.102859 677.964111
262 0 1 6.646050 10.670380 678.703186
263 0 1 6.896080 11.314430 679.411011
264 0 1 7.172395 11.466570 680.301514
265 0 1 7.369433 11.450620 681.192200
266 0 1 7.761880 11.517839 682.047607
267 0 1 8.269397 11.674200 682.851685
268 0 1 8.783115 11.577340 683.647522
269 0 1 8.775433 11.575680 684.660522
270 0 1 8.929724 11.753469 685.601318
271 0 1 8.779386 11.959230 686.548523
272 0 1 8.443178 12.183781 687.470093
273 0 1 8.334609 12.475400 688.433594
274 0 1 8.343691 12.780960 689.413696
275 0 1 8.426979 12.989810 690.415527
276 0 1 8.947901 13.112260 691.212524
277 0 1 9.467900 13.038321 691.975586
278 0 1 9.814850 12.954510 692.893677
279 0 1 10.332530 12.852850 693.750977
280 0 1 10.848280 12.921270 694.606201
281 0 1 11.417191 12.877190 695.408813
282 0 1 12.001720 12.643180 696.090881
283 0 1 12.459780 12.603849 696.892334
284 0 1 12.665390 12.326450 697.790405
285 0 1 12.793859 11.596350 698.500366
286 0 1 12.881090 10.809570 699.116394
287 0 1 12.623711 10.160200 699.739807
288 0 1 12.429720 9.479700 700.380310
289 0 1 12.529280 8.798662 701.057617
290 0 1 12.643320 8.313937 701.885681
291 0 1 12.777760 8.079877 702.876587
292 0 1 12.914860 8.024651 703.842896
293 0 1 12.778419 8.207796 704.751892
294 0 1 12.617430 8.389925 705.711304
295 0 1 12.743720 8.599169 706.682007
296 0 1 12.587749 8.426492 707.588867
297 0 1 12.260530 8.521078 708.536926
298 0 1 11.752270 8.607737 709.379211
299 0 1 11.157470 8.900139 710.085999
300 0 1 10.697269 9.245390 710.864502
301 0 1 10.452110 9.662310 711.739380
302 0 1 10.166460 10.113520 712.578979
303 0 1 9.734820 10.392080 713.434326
304 0 1 9.168100 10.624450 714.173279
305 0 1 9.050090 11.156760 714.952087
306 0 1 8.656056 11.571530 715.688416
307 0 1 8.788018 11.947020 716.615417
308 0 1 9.027590 12.171471 717.516785
309 0 1 9.386090 12.272350 718.426819
310 0 1 9.606690 12.434490 719.350830
311 0 1 9.612640 12.323589 720.278931
312 0 1 9.574300 12.210730 721.255005
313 0 1 9.793840 12.307090 722.233826
314 0 1 10.157910 12.338039 723.154175
315 0 1 10.500830 12.195950 724.011230
316 0 1 10.850890 12.182590 724.893616
317 0 1 11.048790 11.952020 725.790100
318 0 1 11.368890 11.465930 726.560303
319 0 1 11.339350 10.825920 727.342773
320 0 1 11.389510 10.275209 728.179504
321 0 1 11.334170 9.840250 729.039001
322 0 1 11.309970 9.365710 729.934021
323 0 1 11.465700 8.862419 730.716003
324 0 1 11.526011 8.255283 731.401978
325 0 1 11.697070 7.706691 732.211975
326 0 1 11.907630 7.185735 732.997986
327 0 1 12.113950 6.990720 733.979004
328 0 1 12.041810 7.098312 734.919983
329 0 1 12.057400 7.180571 735.903992
330 0 1 11.993420 7.050171 736.879028
331 0 1 11.856340 6.792920 737.830994
332 0 1 11.237989 6.362610 738.374023
333 0 1 10.840820 6.180390 739.184021
334 0 1 10.560220 5.924780 740.036987
335 0 1 10.515060 5.681330 740.945007
336 0 1 10.509680 5.480190 741.890991
337 0 1 10.373270 5.314170 742.836975
338 0 1 10.364460 5.593870 743.763977
339 0 1 10.409640 6.213820 744.515015
340 0 1 10.687990 6.895150 745.153992
341 0 1 10.851000 7.685219 745.661011
342 0 1 11.038520 8.274267 746.359009
343 0 1 10.983080 9.003901 747.085022
344 0 1 10.634330 9.625940 747.755005
345 0 1 10.104520 10.031810 748.437012
346 0 1 9.660990 10.359460 749.252991
347 0 1 9.192940 10.611050 750.051025
348 0 1 8.774658 10.820930 750.955994
349 0 1 8.931075 11.154150 751.843994
350 0 1 9.023080 11.275740 752.791016
351 0 1 9.212820 11.747210 753.669983
352 0 1 9.071960 11.877090 754.585999
353 0 1 9.118299 12.015190 755.494995
354 0 1 9.033090 12.240530 756.403015
355 0 1 9.189960 12.559720 757.320984
356 0 1 9.042510 12.848130 758.257996
357 0 1 9.040150 13.081030 759.179016
358 0 1 8.820930 13.257980 760.141968
359 0 1 8.506437 13.055890 761.082031
360 0 1 8.299060 12.949790 762.011963
361 0 1 8.200309 12.954100 762.984985
362 0 1 7.736766 12.742730 763.744019
363 0 1 7.214328 12.726940 764.559021
364 0 1 6.851290 12.797990 765.434021
365 0 1 6.799030 12.908640 766.400024
366 0 1 6.604380 13.035570 767.325989
367 0 1 6.394140 13.150129 768.287964
368 0 1 6.215710 12.846800 769.216980
369 0 1 6.087600 12.305450 770.051025
370 0 1 6.166190 11.726800 770.786011
371 0 1 6.142250 10.965560 771.447021
372 0 1 6.216020 10.229720 772.082031
373 0 1 6.282420 9.533990 772.757996
374 0 1 6.273110 9.135170 773.625000
375 0 1 6.586190 8.710926 774.513000
376 0 1 6.796650 8.071513 775.276978
377 0 1 7.075360 7.476354 776.070007
378 0 1 7.295376 7.330026 777.000000
379 0 1 7.570316 7.094985 777.919983
380 0 1 7.652804 6.989730 778.957031
381 0 1 7.359350 7.230451 779.820984
382 0 1 7.215958 7.772524 780.669006
383 0 1 7.036092 8.248992 781.525024
384 0 1 6.856050 8.385774 782.505981
385 0 1 6.360360 8.507014 783.360962
386 0 1 5.620440 8.584465 783.945007
387 0 1 5.103720 8.466381 784.776001
388 0 1 4.561050 8.096457 785.471008
389 0 1 3.940060 7.763987 786.203979
390 0 1 3.609060 7.491317 787.049011
391 0 1 3.237010 7.056875 787.812988
392 0 1 3.002450 6.726750 788.658997
393 0 1 2.846070 6.531400 789.601013
394 0 1 3.063400 6.436760 790.523987
395 0 1 3.163100 6.693440 791.447998
396 0 1 3.336490 7.096711 792.276978
397 0 1 3.369190 7.369137 793.273987
398 0 1 3.574160 7.586761 794.212036
399 0 1 3.599360 7.784178 795.177002
400 0 1 3.328370 8.192797 796.009033
401 0 1 3.442010 8.806684 796.804016
402 0 1 3.329410 9.380120 797.604004
403 0 1 3.346730 9.816300 798.427979
404 0 1 3.158990 10.013020 799.364014
405 0 1 2.709650 10.125200 800.190979
406 0 1 2.387680 9.802900 801.014038
407 0 1 2.038220 9.593860 801.823975
408 0 1 2.119760 9.401670 802.792969
409 0 1 2.295830 9.304720 803.781006
410 0 1 2.194440 9.038830 804.684998
411 0 1 2.367640 8.483335 805.432983
412 0 1 2.525260 7.933403 806.255005
413 0 1 3.029020 7.623325 807.044006
414 0 1 3.479360 7.082916 807.838013
415 0 1 3.806410 6.704210 808.690979
416 0 1 4.182040 6.349410 809.502991
417 0 1 4.609440 5.961810 810.348022
418 0 1 4.971210 5.331020 810.963989
419 0 1 5.443750 4.658720 811.403015
420 0 1 5.894220 3.939310 811.872986
421 0 1 6.249240 3.423550 812.598999
422 0 1 6.377940 2.669430 813.218994
423 0 1 6.330760 2.121400 814.011963
424 0 1 6.360670 1.648120 814.844971
425 0 1 6.609940 1.556900 815.750977
426 0 1 7.180458 1.427960 816.513000
427 0 1 7.421897 1.445810 817.427979
428 0 1 7.378175 1.694260 818.349976
429 0 1 7.365192 2.344790 819.075012
430 0 1 7.666009 2.792220 819.924011
431 0 1 7.792824 3.367230 820.692993
432 0 1 7.985949 3.976640 821.427002
433 0 1 8.191462 4.575700 822.171997
434 0 1 8.209348 5.108300 822.934021
435 0 1 8.475846 5.927980 823.421997
436 0 1 8.826756 6.498660 824.130981
437 0 1 9.448910 6.997490 824.573975
438 0 1 9.974490 7.410349 825.247986
439 0 1 10.619050 7.617710 825.952026
440 0 1 11.077770 7.726346 826.780029
441 0 1 11.571810 7.811384 827.577026
442 0 1 12.214849 7.979277 828.304993
443 0 1 12.868130 8.387256 829.046997
444 0 1 13.301229 8.640083 829.940979
445 0 1 13.427000 8.820842 830.859009
446 0 1 13.439720 9.364900 831.666992
447 0 1 13.143420 9.541260 832.598999
448 0 1 12.543180 9.767430 833.354980
449 0 1 12.129220 10.091681 834.255005
450 0 1 11.678690 10.299330 835.062988
451 0 1 11.425640 10.587690 835.891968
452 0 1 10.981359 10.693710 836.697998
453 0 1 10.296920 10.565920 837.389038
454 0 1 9.383440 10.475900 837.505005
455 0 1 8.520800 10.110770 837.546997
456 0 1 7.727511 9.782860 837.129028
457 0 1 6.838250 9.526770 836.906982
458 0 1 6.191920 8.920596 836.515991
459 0 1 5.516720 8.549926 835.854004
460 0 1 5.101020 8.194025 835.028015
461 0 1 4.711870 8.359028 834.059998
462 0 1 4.354940 8.527115 833.203003
463 0 1 4.042330 8.511546 832.285034
464 0 1 3.805950 8.381140 831.398010
465 0 1 3.890200 8.148439 830.434998
466 0 1 4.060260 7.639114 829.662964
467 0 1 4.114170 7.261451 828.817993
468 0 1 4.461800 6.791320 828.089966
469 0 1 4.661660 6.341350 827.330994
470 0 1 4.986020 6.051710 826.497009
471 0 1 5.249550 5.847000 825.552979
472 0 1 5.835360 5.548810 824.817017
473 0 1 6.135750 5.488350 823.848022
474 0 1 6.608440 5.661660 823.002014
475 0 1 7.202394 5.802040 822.259033
476 0 1 7.344493 5.630330 821.309998
477 0 1 7.258854 5.708530 820.388000
478 0 1 7.320541 5.798950 819.358032
479 0 1 7.602598 5.896590 818.375000
480 0 1 7.968009 6.368590 817.648010
481 0 1 8.319488 6.646380 816.755981
482 0 1 8.775479 6.571110 815.895996
483 0 1 8.962012 6.715910 814.971008
484 0 1 8.975311 6.496230 814.042969
485 0 1 9.310110 6.261680 813.122986
486 0 1 9.792950 6.238790 812.322998
487 0 1 10.400840 6.261980 811.582031
488 0 1 10.896190 6.484000 810.809998
489 0 1 11.306310 6.667160 809.958008
490 0 1 11.579860 6.923140 809.083008
491 0 1 11.821840 7.305749 808.299011
492 0 1 11.501220 7.768376 807.492004
493 0 1 11.151430 8.274830 806.742981
494 0 1 11.046780 8.845282 806.004028
495 0 1 11.072300 9.355580 805.203979
496 0 1 10.922440 9.527470 804.212036
497 0 1 10.793340 9.568700 803.276001
498 0 1 10.720779 9.697790 802.306030
499 0 1 10.456540 9.941730 801.391968
500 0 1 10.321711 10.006020 800.437988
501 0 1 10.092090 10.148010 799.514038
502 0 1 9.692330 10.177010 798.627991
503 0 1 9.375140 10.027451 797.724976
504 0 1 9.120630 10.455400 796.912964
505 0 1 9.206130 10.840360 795.976990
506 0 1 9.426350 11.449780 795.221008
507 0 1 9.795290 11.986660 794.502991
508 0 1 10.327311 12.058430 793.718018
509 0 1 10.741840 12.121349 792.832031
510 0 1 11.350910 11.820210 792.161011
511 0 1 11.616270 11.504440 791.337036
512 0 1 11.774900 10.978140 790.500000
513 0 1 11.991190 10.461910 789.688965
514 0 1 12.424960 9.989990 788.988037
515 0 1 12.923460 9.681710 788.260010
516 0 1 13.508320 9.745230 787.565979
517 0 1 13.973721 9.611170 786.625977
518 0 1 14.362200 9.174870 785.890991
519 0 1 14.698919 8.857575 785.070984
520 0 1 14.556990 8.550921 784.101990
521 0 1 14.576660 8.266911 783.151978
522 0 1 14.447710 7.863816 782.257996
523 0 1 14.127310 7.627957 781.337036
524 0 1 13.582680 7.222459 780.599976
525 0 1 13.006910 6.680690 780.041016
526 0 1 12.333420 6.236500 779.531982
527 0 1 11.688869 5.937140 778.846008
528 0 1 11.263340 5.796530 777.973999
529 0 1 10.777580 5.845060 777.212036
530 0 1 10.230010 5.894480 776.401001
531 0 1 9.738910 5.731510 775.565002
532 0 1 9.388620 5.339720 774.744995
533 0 1 9.095310 5.035620 773.898010
534 0 1 8.618965 5.049690 773.089966
535 0 1 8.075015 4.953050 772.245972
536 0 1 7.483206 4.823430 771.483032
537 0 1 6.897360 4.719460 770.718994
538 0 1 6.810390 4.638950 769.754028
539 0 1 6.562670 4.710210 768.896973
540 0 1 6.147560 4.641040 768.015991
541 0 1 6.119300 4.685260 767.063965
542 0 1 6.253290 4.767610 765.989990
543 0 1 6.547970 4.603140 765.026001
544 0 1 6.986940 4.362420 764.223022
545 0 1 7.405883 4.092700 763.414978
546 0 1 7.823104 3.886200 762.572021
547 0 1 8.543787 3.523170 761.981995
548 0 1 9.213620 3.237670 761.325012
549 0 1 9.385700 3.295150 760.364990
550 0 1 9.280040 3.426090 759.440979
551 0 1 9.143690 3.307360 758.520020
552 0 1 8.973427 3.547200 757.622986
553 0 1 8.825062 3.824140 756.738037
554 0 1 8.625343 3.867910 755.786987
555 0 1 8.689517 3.744380 754.812012
556 0 1 8.673166 3.774180 753.804993
557 0 1 8.617812 3.702570 752.807007
558 0 1 8.548065 3.667490 751.838013
559 0 1 8.728143 3.455500 750.898987
560 0 1 8.962409 3.347520 749.934998
561 0 1 9.310640 3.111050 749.070007
562 0 1 9.586290 2.912530 748.187012
563 0 1 9.792990 2.741540 747.228027
564 0 1 10.081440 2.670250 746.338013
565 0 1 10.272710 2.658190 745.421021
566 0 1 10.420900 2.560210 744.489014
567 0 1 10.226200 2.359590 743.544006
568 0 1 10.085870 2.306440 742.541016
569 0 1 9.852510 2.443300 741.596985
570 0 1 9.486500 2.568940 740.752991
571 0 1 9.416250 2.713280 739.786987
572 0 1 9.463000 3.032730 738.905029
573 0 1 9.464300 3.708640 738.231018
574 0 1 9.324740 4.451450 737.518005
575 0 1 8.954984 5.126690 736.934998
576 0 1 8.425256 5.793660 736.448975
577 0 1 7.969462 6.429820 735.835999
578 0 1 7.548694 6.778520 735.028992
579 0 1 7.108307 7.082339 734.231995
580 0 1 6.829870 7.456443 733.322021
581 0 1 6.352800 7.849831 732.559998
582 0 1 5.785860 8.287094 731.879028
583 0 1 5.574650 8.636964 730.976990
584 0 1 5.375750 9.025670 730.114990
585 0 1 5.173290 9.292570 729.254028
586 0 1 5.114870 9.619810 728.329590
587 0 1 5.248560 10.070670 727.452209
588 0 1 5.420300 10.608320 726.686218
589 0 1 5.866680 11.000440 725.940613
590 0 1 6.413010 11.449050 725.298584
591 0 1 6.788680 11.544750 724.438416
592 0 1 7.145998 11.450100 723.535034
593 0 1 7.457348 11.061640 722.637390
594 0 1 7.605280 10.467530 721.874390
595 0 1 7.740635 9.793360 721.122192
596 0 1 7.748087 9.203609 720.423279
597 0 1 7.826950 8.645720 719.655884
598 0 1 7.623412 8.371649 718.762817
599 0 1 7.601507 8.092964 717.807800
600 0 1 7.715743 7.765343 716.870483
601 0 1 7.866238 7.430146 716.002319
602 0 1 8.238644 6.964890 715.244080
603 0 1 8.669362 6.535520 714.462280
604 0 1 8.888887 6.139260 713.540771
605 0 1 8.900485 5.845440 712.609375
606 0 1 8.821192 5.458680 711.667603
607 0 1 8.631464 5.154570 710.736328
608 0 1 8.816965 4.755290 709.826416
609 0 1 9.255580 4.658660 709.010132
610 0 1 9.541180 4.520960 708.088196
611 0 1 9.870220 4.564810 707.164795
612 0 1 10.197599 4.427680 706.276733
613 0 1 10.319650 4.090410 705.294067
614 0 1 10.028190 4.072250 704.309204
615 0 1 9.700770 4.148090 703.362488
616 0 1 9.535780 4.418570 702.438477
617 0 1 9.207120 4.926260 701.654419
618 0 1 8.908602 5.606140 701.020996
619 0 1 8.651040 6.195560 700.299622
620 0 1 8.550597 6.391660 699.372925
621 0 1 8.613464 6.741430 698.458984
622 0 1 8.709627 6.994220 697.493591
623 0 1 8.507358 6.962420 696.559814
624 0 1 8.279153 7.036745 695.623291
625 0 1 8.227601 7.258802 694.678894
626 0 1 8.108880 7.641374 693.820374
627 0 1 7.932522 7.948091 692.949890
628 0 1 7.603850 8.046011 692.040710
629 0 1 7.140333 8.287095 691.202515
630 0 1 6.635280 8.108563 690.348328
631 0 1 6.216010 8.043183 689.387817
632 0 1 5.687850 8.202321 688.630981
633 0 1 5.293330 8.459446 687.778625
634 0 1 4.878410 8.474964 686.908875
635 0 1 4.831040 8.808363 686.033386
636 0 1 4.833890 9.159990 685.214111
637 0 1 5.156650 9.509670 684.359314
638 0 1 5.740710 9.901830 683.697876
639 0 1 6.457480 10.278200 683.052612
640 0 1 6.961150 10.296300 682.259888
641 0 1 7.589331 10.360850 681.530090
642 0 1 8.066490 10.439790 680.668091
643 0 1 8.187811 10.473920 679.725403
644 0 1 8.445674 10.464330 678.808289
645 0 1 8.803804 10.496469 677.783020
646 0 1 9.334610 10.420440 676.986206
647 0 1 9.752920 10.226500 676.137512
648 0 1 10.159860 10.207080 675.231201
649 0 1 10.608459 9.832590 674.418274
650 0 1 10.808170 9.441820 673.580688
651 0 1 11.356150 8.991907 672.821289
652 0 1 11.652679 8.319001 672.182800
653 0 1 11.933160 7.622898 671.575317
654 0 1 12.160521 6.913080 670.828186
655 0 1 12.029440 6.546690 669.922119
656 0 1 11.836451 6.341860 669.055786
657 0 1 11.822350 6.235740 668.034973
658 0 1 11.729110 6.329240 667.066528
659 0 1 11.761670 6.442200 666.073914
660 0 1 11.986390 6.556760 665.107178
661 0 1 12.275930 6.609520 664.189575
662 0 1 12.720310 6.923270 663.400818
663 0 1 13.040260 7.272561 662.574097
664 0 1 13.338720 7.400641 661.726013
665 0 1 13.406640 7.282260 660.775085
666 0 1 13.511180 7.426632 659.810120
667 0 1 13.336510 7.546703 658.898987
668 0 1 12.919640 7.708629 658.055908
669 0 1 12.344290 7.719606 657.268677
670 0 1 11.959670 7.501059 656.435669
671 0 1 11.610991 7.160186 655.620300
672 0 1 11.421150 6.969770 654.643677
673 0 1 10.994490 6.634520 653.802673
674 0 1 10.754230 6.302410 652.943481
675 0 1 10.390770 6.060230 652.119080
676 0 1 10.084770 5.954650 651.191528
677 0 1 9.795950 5.736120 650.372375
678 0 1 9.649240 5.327690 649.496216
679 0 1 9.614290 4.930080 648.605713
680 0 1 9.654080 4.603740 647.697998
681 0 1 9.525330 4.060380 646.866394
682 0 1 9.510400 3.618310 646.008972
683 0 1 9.617310 3.164260 645.191223
684 0 1 9.495790 2.756180 644.321716
685 0 1 9.121460 2.530970 643.566528
686 0 1 8.572361 2.367120 642.759583
687 0 1 8.245325 2.403220 641.886414
688 0 1 7.768926 2.564210 641.056213
689 0 1 7.261356 2.862610 640.294617
690 0 1 6.891220 2.996060 639.428589
691 0 1 6.515720 2.864170 638.529175
692 0 1 6.308740 2.846810 637.583130
693 0 1 6.232670 3.120060 636.692749
694 0 1 6.167940 3.480870 635.827393
695 0 1 5.873950 3.607580 634.953918
696 0 1 5.550350 3.628080 634.087402
697 0 1 5.115930 3.864460 633.303406
698 0 1 5.027820 4.260800 632.418823
699 0 1 4.773930 4.811660 631.640442
700 0 1 4.556590 4.978270 630.707520
701 0 1 4.307500 5.154530 629.874756
702 0 1 4.044350 5.330480 628.936218
703 0 1 3.783520 5.637440 628.105225
704 0 1 3.392200 5.861400 627.228577
705 0 1 3.235000 5.778260 626.203308
706 0 1 3.201070 5.520170 625.299072
707 0 1 3.029390 5.204320 624.440186
708 0 1 3.064150 4.731280 623.602173
709 0 1 3.308620 4.504310 622.636230
710 0 1 3.516030 4.123760 621.781799
711 0 1 3.902560 3.850330 620.950134
712 0 1 4.264400 3.737460 619.984802
713 0 1 4.859200 3.962740 619.252380
714 0 1 5.517490 4.303830 618.649963
715 0 1 6.069420 4.864380 618.145081
716 0 1 6.610470 5.415860 617.426880
717 0 1 6.939040 6.160750 616.907715
718 0 1 7.170758 6.918260 616.445496
719 0 1 7.455177 7.561585 615.747803
720 0 1 7.394101 8.196092 615.007080
721 0 1 7.503558 8.625716 614.124207
722 0 1 7.511677 9.144120 613.290100
723 0 1 7.446971 9.659220 612.530273
724 0 1 7.610019 10.179260 611.726013
725 0 1 7.837033 10.642600 610.882507
726 0 1 7.704353 11.088890 610.033508
727 0 1 7.553338 11.354310 609.048584
728 0 1 7.392259 11.397000 608.060608
729 0 1 7.358924 11.368170 607.117798
730 0 1 7.374736 11.403530 606.160828
731 0 1 6.972150 11.183450 605.365417
732 0 1 6.899890 10.965470 604.408325
733 0 1 7.003818 10.686340 603.516907
734 0 1 6.921050 10.585440 602.526917
735 0 1 7.031419 10.317510 601.700500
736 0 1 7.388175 9.875990 600.999084
737 0 1 7.800232 9.315090 600.355103
738 0 1 8.099458 8.870818 599.562500
739 0 1 8.475304 8.448892 598.764404
740 0 1 8.552577 7.942932 597.988586
741 0 1 8.795560 7.520213 597.199097
742 0 1 8.966479 7.089074 596.307312
743 0 1 8.865963 7.140251 595.333008
744 0 1 8.524072 6.799100 594.477295
745 0 1 8.102774 6.539850 593.567627
746 0 1 7.921082 6.362290 592.685669
747 0 1 7.764080 6.278680 591.690125
748 0 1 7.640515 6.208040 590.740601
749 0 1 7.772651 6.484970 589.788696
750 0 1 7.876220 6.737350 588.880676
751 0 1 8.461422 6.739400 588.040588
752 0 1 8.898513 6.718140 587.190186
753 0 1 9.001890 6.926730 586.204590
754 0 1 8.724893 7.147156 585.334717
755 0 1 8.536803 7.352295 584.424805
756 0 1 8.314444 7.350332 583.539307
757 0 1 7.958128 7.068918 582.702881
758 0 1 7.588902 6.994320 581.739990
759 0 1 7.094528 6.908030 580.956299
760 0 1 6.379460 6.612080 580.336609
761 0 1 5.784760 6.235370 579.721069
762 0 1 5.243300 5.907090 578.828125
763 0 1 4.758740 5.660320 577.982483
764 0 1 4.389070 5.749820 577.084717
765 0 1 4.146830 5.878680 576.191284
766 0 1 4.065760 5.913660 575.147583
767 0 1 4.204810 6.073180 574.204285
768 0 1 4.250490 6.126300 573.237183
769 0 1 4.198730 6.019850 572.323975
770 0 1 4.363610 6.152600 571.423279
771 0 1 4.529920 6.290040 570.443115
772 0 1 4.669080 6.367840 569.467590
773 0 1 4.620440 6.328800 568.536316
774 0 1 4.703720 6.296100 567.582886
775 0 1 4.612090 6.372610 566.622986
776 0 1 4.509570 6.511190 565.716919
777 0 1 4.097260 6.722540 564.898193
778 0 1 3.922410 6.949620 564.030823
779 0 1 3.787500 7.227852 563.137878
780 0 1 3.697870 7.355017 562.126587
781 0 1 4.031960 7.495121 561.164490
782 0 1 4.401360 7.427034 560.311768
783 0 1 4.827530 7.458167 559.493896
784 0 1 5.379100 7.647531 558.726379
785 0 1 5.891770 7.654545 557.879211
786 0 1 6.403380 7.717697 557.029602
787 0 1 6.726700 7.776598 556.112427
788 0 1 6.986690 7.925250 555.249023
789 0 1 7.250434 7.904856 554.307983
790 0 1 7.471629 7.728407 553.370911
791 0 1 7.744609 7.530440 552.484924
792 0 1 7.913662 7.635533 551.544067