LAMMPS data file via MDAnalysis

        1000  atoms
        1000  bonds
        1000  angles
           0  dihedrals
           0  impropers

           1  atom types
           1  bond types
           1  angle types
           0  dihedral types
           0  improper types

0.000000 16.000000 xlo xhi
0.000000 16.000000 ylo yhi
0.000000 1257.000000 zlo zhi


Masses

1 1.000000

Atoms

1 0 1 6.280540 10.801250 452.264008
2 0 1 6.383630 10.538321 453.148010
3 0 1 6.694400 10.659410 454.082001
4 0 1 7.189656 10.915150 454.841003
5 0 1 7.934333 10.972090 455.427002
6 0 1 8.464141 11.065041 456.239990
7 0 1 8.750564 10.932660 457.174988
8 0 1 9.123150 10.997890 458.023987
9 0 1 9.221620 11.223550 459.018005
10 0 1 9.036020 11.446050 459.906006
11 0 1 8.912882 11.538700 460.869995
12 0 1 8.713598 11.464290 461.830994
13 0 1 8.504912 11.008590 462.712006
14 0 1 8.262409 10.600920 463.572021
15 0 1 7.961298 10.279990 464.429016
16 0 1 7.552772 9.932370 465.266998
17 0 1 7.144223 9.744320 466.085999
18 0 1 6.919830 9.536240 467.036011
19 0 1 6.849140 9.319470 467.953003
20 0 1 6.796890 9.079660 468.882996
21 0 1 6.754260 9.145620 469.822021
22 0 1 6.884230 9.128420 470.789978
23 0 1 6.799250 8.797574 471.671021
24 0 1 6.409090 8.465536 472.501007
25 0 1 6.175660 8.080004 473.406982
26 0 1 6.292760 7.733558 474.352997
27 0 1 6.270350 7.581137 475.352997
28 0 1 6.147980 7.500289 476.294983
29 0 1 6.265040 7.476803 477.279999
30 0 1 6.424790 7.220700 478.216980
31 0 1 6.845980 7.182298 479.078979
32 0 1 7.260319 6.699480 479.864014
33 0 1 7.387628 6.295750 480.674011
34 0 1 7.495629 5.893660 481.537994
35 0 1 7.961677 5.649750 482.335999
36 0 1 8.286716 5.314720 483.169006
37 0 1 8.697008 5.209750 484.011993
38 0 1 9.017090 5.352410 484.848022
39 0 1 9.399140 5.334080 485.734009
40 0 1 9.782510 5.341390 486.713989
41 0 1 10.316710 5.287010 487.536987
42 0 1 10.775340 5.427570 488.377014
43 0 1 11.093960 5.302710 489.260986
44 0 1 11.417010 5.066350 490.221008
45 0 1 11.042870 4.815370 491.059021
46 0 1 10.757401 4.655340 491.976990
47 0 1 10.322190 4.500860 492.819000
48 0 1 9.756620 4.399900 493.550995
49 0 1 9.375170 4.640840 494.444000
50 0 1 9.373260 4.995260 495.345001
51 0 1 9.354560 5.086360 496.338989
52 0 1 9.350500 5.247140 497.270020
53 0 1 9.346160 5.727870 498.156982
54 0 1 9.541580 6.194590 499.029999
55 0 1 10.168840 6.397790 499.851990
56 0 1 10.678699 6.964570 500.442993
57 0 1 11.361250 7.245173 501.074005
58 0 1 12.142070 7.295269 501.723999
59 0 1 12.696660 7.474021 502.457001
60 0 1 13.180380 7.721713 503.332001
61 0 1 13.602631 8.154760 504.096985
62 0 1 13.941370 8.250607 505.035004
63 0 1 13.971410 8.287178 506.007019
64 0 1 13.591410 8.331822 506.932007
65 0 1 13.088739 7.974697 507.630981
66 0 1 12.558310 7.395796 508.186005
67 0 1 12.035680 6.970750 508.848999
68 0 1 11.382360 6.635460 509.498993
69 0 1 10.926880 6.471390 510.312012
70 0 1 10.489130 6.289480 511.132996
71 0 1 10.084220 6.332900 511.992981
72 0 1 10.002530 6.522080 512.903992
73 0 1 10.062469 6.927770 513.848999
74 0 1 10.010760 7.292260 514.702026
75 0 1 9.847240 7.685418 515.596008
76 0 1 9.888100 8.113091 516.479980
77 0 1 9.841720 8.574413 517.395020
78 0 1 9.881890 8.949854 518.309998
79 0 1 9.834880 9.457660 519.096008
80 0 1 9.676870 9.814569 519.950989
81 0 1 9.663110 10.007410 520.960999
82 0 1 9.664940 10.473960 521.916016
83 0 1 9.540400 10.609750 522.867981
84 0 1 9.422430 10.755460 523.828979
85 0 1 9.369510 10.955481 524.836975
86 0 1 9.358180 11.128670 525.830017
87 0 1 9.219950 11.163800 526.838013
88 0 1 8.963720 11.451640 527.718994
89 0 1 8.908666 11.539000 528.676025
90 0 1 8.890339 11.522670 529.635132
91 0 1 8.695115 11.439290 530.565002
92 0 1 8.760854 11.177259 531.450806
93 0 1 8.846794 10.890500 532.392334
94 0 1 8.718750 10.767300 533.339783
95 0 1 8.597786 10.612850 534.324097
96 0 1 8.465115 10.265420 535.232910
97 0 1 8.222171 10.057870 536.211670
98 0 1 7.983831 9.827670 537.078308
99 0 1 7.811976 9.476970 537.993591
100 0 1 7.436303 9.322620 538.858032
101 0 1 7.316946 8.935188 539.712097
102 0 1 7.294403 8.725705 540.687500
103 0 1 7.156434 8.633471 541.694397
104 0 1 7.066914 8.703919 542.631409
105 0 1 7.015947 9.007540 543.604126
106 0 1 6.972050 9.290910 544.505676
107 0 1 7.186449 9.404010 545.434326
108 0 1 7.594619 9.641020 546.345215
109 0 1 7.881039 9.815750 547.208130
110 0 1 8.176807 10.109600 548.104980
111 0 1 8.387422 10.584750 548.923584
112 0 1 8.426698 10.863270 549.835815
113 0 1 8.560869 11.149179 550.810486
114 0 1 8.934099 11.515220 551.661194
115 0 1 9.253010 11.622280 552.593994
116 0 1 9.533290 11.584690 553.476501
117 0 1 9.933990 11.865330 554.250488
118 0 1 10.470560 11.939760 555.016296
119 0 1 10.836100 12.473169 555.849426
120 0 1 10.712310 12.664980 556.800415
121 0 1 10.666770 12.655610 557.768494
122 0 1 10.724670 12.401870 558.728210
123 0 1 10.682690 11.986420 559.682495
124 0 1 10.539750 11.972010 560.680481
125 0 1 10.332030 12.214040 561.578613
126 0 1 9.968360 12.675950 562.357422
127 0 1 9.739130 13.253050 563.173096
128 0 1 9.445340 13.649759 564.032410
129 0 1 9.193310 13.921940 564.897888
130 0 1 9.158070 14.008780 565.849731
131 0 1 9.186730 13.839470 566.862610
132 0 1 9.008510 13.468770 567.787903
133 0 1 8.678018 12.949390 568.659790
134 0 1 8.390484 12.380159 569.371826
135 0 1 7.894331 12.105721 570.136902
136 0 1 7.370991 11.753000 570.890381
137 0 1 7.095960 11.694130 571.766113
138 0 1 6.804620 11.593100 572.743896
139 0 1 6.553720 11.126920 573.556213
140 0 1 6.443510 11.021940 574.524475
141 0 1 6.066470 10.940470 575.419006
142 0 1 5.743090 10.757530 576.309204
143 0 1 5.646450 10.303910 577.132874
144 0 1 5.527540 9.653870 577.930176
145 0 1 5.676250 9.343660 578.858582
146 0 1 5.884430 9.485420 579.798218
147 0 1 5.980880 9.719710 580.764587
148 0 1 6.077640 10.104080 581.649719
149 0 1 6.125830 10.453430 582.549316
150 0 1 6.050210 10.436260 583.494385
151 0 1 6.138640 10.460680 584.436707
152 0 1 6.238480 10.431450 585.375488
153 0 1 6.780880 10.405830 586.199280
154 0 1 7.449380 10.516460 586.947327
155 0 1 7.823362 10.497129 587.833923
156 0 1 8.023000 10.612150 588.834778
157 0 1 8.303198 10.327950 589.703491
158 0 1 8.723612 10.283510 590.575195
159 0 1 9.145710 10.375470 591.458923
160 0 1 9.148590 10.208710 592.434509
161 0 1 9.194350 9.979360 593.371399
162 0 1 9.137120 9.857050 594.292480
163 0 1 9.238460 9.638100 595.221313
164 0 1 9.459770 9.529830 596.175415
165 0 1 9.411100 9.495880 597.106873
166 0 1 9.061020 9.576060 598.034973
167 0 1 8.501660 9.636740 598.795410
168 0 1 8.048047 9.851789 599.567078
169 0 1 7.364718 10.063960 600.168884
170 0 1 6.934430 10.184850 601.048523
171 0 1 6.509700 9.850440 601.901917
172 0 1 6.127030 9.692900 602.764282
173 0 1 5.930740 9.628280 603.687012
174 0 1 5.403020 9.929970 604.481018
175 0 1 5.118560 10.004180 605.356201
176 0 1 4.754480 10.163219 606.199585
177 0 1 4.555470 9.779030 607.021484
178 0 1 4.314510 9.271020 607.777771
179 0 1 4.310410 8.743166 608.568970
180 0 1 4.706100 8.249750 609.360718
181 0 1 5.178130 7.798034 610.067688
182 0 1 5.513660 7.369695 610.926819
183 0 1 5.841390 7.008675 611.782898
184 0 1 6.237910 6.587720 612.540894
185 0 1 6.755630 6.377780 613.327881
186 0 1 6.970640 5.851680 614.088989
187 0 1 7.175369 5.567390 614.981384
188 0 1 7.534836 5.385980 615.861328
189 0 1 7.619533 4.941450 616.705811
190 0 1 7.468821 4.463110 617.612915
191 0 1 7.355568 3.792780 618.302979
192 0 1 7.392142 3.201580 619.137634
193 0 1 7.274267 2.839540 619.950684
194 0 1 7.179525 2.400830 620.743347
195 0 1 7.452164 2.212660 621.683838
196 0 1 7.656893 2.254660 622.613098
197 0 1 7.978765 2.514210 623.512695
198 0 1 8.242582 2.973940 624.278809
199 0 1 8.515801 3.304010 625.146545
200 0 1 8.438655 3.757050 625.955811
201 0 1 8.502422 4.260790 626.815186
202 0 1 8.706573 4.746850 627.613403
203 0 1 9.141340 5.257530 628.281128
204 0 1 9.429040 5.807070 628.993652
205 0 1 9.794140 6.477670 629.588806
206 0 1 10.058960 7.097999 630.342773
207 0 1 9.978590 7.374705 631.268616
208 0 1 10.028780 7.651013 632.204224
209 0 1 10.015690 7.898248 633.095215
210 0 1 10.432590 7.966391 633.942627
211 0 1 10.791590 8.227850 634.805725
212 0 1 11.165820 8.321968 635.710449
213 0 1 11.491840 8.153233 636.564209
214 0 1 11.698071 7.937747 637.495422
215 0 1 11.781470 7.919587 638.455200
216 0 1 11.503030 7.683793 639.376709
217 0 1 11.122050 7.531536 640.209473
218 0 1 10.783319 7.486347 641.145508
219 0 1 10.421410 7.361233 641.992493
220 0 1 10.177031 7.175793 642.927979
221 0 1 10.091760 7.029376 643.899902
222 0 1 10.375720 6.578070 644.803284
223 0 1 10.352990 6.050970 645.661316
224 0 1 10.567220 5.807780 646.567871
225 0 1 10.521680 5.719270 647.511597
226 0 1 10.753410 5.494630 648.405090
227 0 1 11.127460 5.192340 649.291321
228 0 1 11.594400 4.898930 650.069275
229 0 1 11.801640 4.631960 650.952026
230 0 1 11.998190 4.626760 651.878296
231 0 1 11.673759 4.630030 652.762878
232 0 1 11.250940 4.571720 653.627197
233 0 1 10.948170 4.601120 654.525208
234 0 1 10.476200 4.801210 655.346069
235 0 1 9.865880 4.901970 656.150696
236 0 1 9.394710 5.384410 656.849731
237 0 1 8.750475 5.756730 657.423279
238 0 1 8.443484 6.196810 658.248718
239 0 1 7.940859 6.851970 658.829285
240 0 1 7.599834 7.482939 659.448608
241 0 1 7.441148 7.994997 660.257080
242 0 1 7.192992 8.621707 660.956116
243 0 1 7.247322 9.361310 661.642822
244 0 1 7.168415 9.938110 662.383728
245 0 1 7.233599 10.372640 663.342896
246 0 1 7.165783 10.616280 664.266296
247 0 1 7.131161 10.814850 665.252319
248 0 1 7.190131 11.130170 666.139404
249 0 1 7.233511 10.976350 667.062012
250 0 1 7.094888 10.799800 667.993713
251 0 1 6.862100 10.471330 668.904297
252 0 1 7.011645 10.255360 669.847290
253 0 1 6.941890 9.897410 670.763489
254 0 1 6.982330 9.743220 671.677368
255 0 1 6.908970 9.554710 672.641907
256 0 1 6.818420 9.465330 673.627502
257 0 1 6.893450 9.668130 674.557678
258 0 1 7.029156 9.598640 675.499512
259 0 1 7.254915 9.693320 676.560974
260 0 1 6.977980 9.698640 677.484131
261 0 1 6.494100 9.466070 678.296875
262 0 1 6.080800 9.321710 679.125305
263 0 1 5.706360 9.047150 679.965576
264 0 1 5.464320 8.719582 680.835815
265 0 1 5.287420 8.203278 681.628479
266 0 1 5.336430 7.784416 682.500610
267 0 1 5.671510 7.642203 683.401184
268 0 1 6.075520 7.428094 684.262329
269 0 1 6.393210 7.703065 685.110779
270 0 1 6.894630 7.752875 685.979980
271 0 1 7.454147 8.139825 686.716980
272 0 1 8.201916 8.484994 687.241272
273 0 1 8.887712 9.016750 687.674927
274 0 1 9.552270 9.587730 687.924622
275 0 1 10.085510 10.103310 688.523010
276 0 1 10.594740 10.411119 689.283508
277 0 1 10.807390 10.743680 690.160400
278 0 1 11.209820 10.680799 691.047485
279 0 1 11.127610 10.581960 692.024597
280 0 1 10.861710 10.342930 692.884583
281 0 1 10.780700 10.118480 693.849121
282 0 1 10.737860 9.805820 694.739502
283 0 1 10.855900 9.473900 695.637817
284 0 1 10.727890 9.042720 696.457031
285 0 1 10.485960 8.369055 697.180725
286 0 1 10.111110 7.871853 697.875366
287 0 1 10.075890 7.520758 698.757568
288 0 1 10.114830 7.776237 699.628296
289 0 1 10.255510 8.078402 700.552124
290 0 1 10.241030 8.453473 701.403687
291 0 1 10.196030 8.614079 702.364990
292 0 1 10.008090 8.636214 703.289490
293 0 1 9.858240 8.852061 704.197021
294 0 1 9.815960 9.087740 705.165283
295 0 1 9.801960 9.532340 706.018921
296 0 1 9.677030 9.972960 706.853027
297 0 1 9.257350 10.233590 707.660767
298 0 1 8.765191 10.230740 708.487671
299 0 1 8.118485 10.236310 709.217102
300 0 1 7.673895 10.122810 710.080322
301 0 1 7.308546 10.156460 710.945679
302 0 1 6.742590 10.271500 711.738403
303 0 1 6.453000 10.191330 712.745483
304 0 1 6.513840 10.312730 713.690674
305 0 1 6.761230 10.348060 714.669983
306 0 1 7.080271 10.324340 715.570496
307 0 1 7.402802 10.370770 716.517090
308 0 1 7.885589 10.729780 717.248108
309 0 1 8.263185 11.362040 717.879028
310 0 1 8.633499 11.962570 718.548401
311 0 1 8.776569 12.493830 719.320190
312 0 1 8.977899 12.915660 720.184692
313 0 1 9.160380 12.894300 721.154175
314 0 1 9.426650 13.137540 722.039673
315 0 1 9.878610 13.262510 722.876221
316 0 1 10.219100 13.334480 723.833313
317 0 1 10.447430 13.436530 724.701294
318 0 1 10.360590 13.832270 725.533569
319 0 1 10.131730 14.359850 726.328369
320 0 1 9.947230 14.596740 727.228271
321 0 1 9.648690 14.610960 728.209717
322 0 1 9.639500 14.508050 729.218994
323 0 1 9.758090 14.068880 730.098022
324 0 1 9.676060 13.495860 730.984985
325 0 1 9.852330 12.769569 731.562988
326 0 1 9.810280 12.011750 732.205994
327 0 1 9.893990 11.224080 732.739014
328 0 1 9.797600 10.619710 733.492981
329 0 1 9.708750 10.097020 734.356995
330 0 1 9.718950 9.703680 735.177002
331 0 1 9.522020 9.339260 736.035034
332 0 1 9.219060 9.295650 736.945007
333 0 1 9.171440 9.101780 737.947998
334 0 1 9.098150 8.767851 738.838013
335 0 1 9.273180 8.457094 739.707031
336 0 1 9.454350 8.277509 740.708984
337 0 1 9.293330 8.013613 741.681030
338 0 1 9.214410 7.674881 742.599976
339 0 1 9.435740 7.445536 743.586975
340 0 1 9.832310 7.267198 744.427002
341 0 1 10.069930 7.455541 745.348022
342 0 1 10.342510 7.662655 746.325989
343 0 1 10.411440 7.799177 747.240967
344 0 1 10.429110 7.944183 748.255005
345 0 1 10.577490 7.954276 749.292969
346 0 1 10.884340 8.113834 750.270020
347 0 1 10.963890 8.469836 751.214966
348 0 1 11.166520 8.846101 752.112000
349 0 1 11.352560 9.181710 752.976990
350 0 1 11.340100 9.352180 753.984009
351 0 1 11.473520 9.704120 754.807983
352 0 1 11.725340 10.225960 755.632996
353 0 1 11.638070 10.655660 756.484009
354 0 1 11.334570 10.938050 757.369019
355 0 1 10.953600 11.204420 758.223022
356 0 1 10.527550 11.302180 759.033997
357 0 1 10.024509 11.314130 759.828003
358 0 1 9.650770 11.235530 760.761963
359 0 1 8.939984 11.174940 761.442017
360 0 1 8.285163 10.907880 762.080994
361 0 1 7.757540 10.861650 762.880005
362 0 1 7.254202 11.083160 763.666016
363 0 1 6.996870 11.190639 764.619019
364 0 1 6.802460 11.530470 765.469971
365 0 1 6.752010 11.883620 766.307983
366 0 1 6.708800 11.875440 767.252014
367 0 1 6.735890 11.799140 768.214966
368 0 1 6.843720 11.722010 769.171997
369 0 1 6.833630 11.511980 770.132019
370 0 1 6.501890 11.147710 770.978027
371 0 1 6.516050 10.990750 771.940979
372 0 1 6.404230 10.915340 772.898987
373 0 1 6.478770 10.593950 773.794006
374 0 1 6.441690 10.326890 774.783997
375 0 1 6.524470 10.068830 775.713989
376 0 1 6.749890 9.877730 776.624023
377 0 1 7.150070 10.028740 777.473022
378 0 1 7.232037 10.025510 778.416992
379 0 1 7.221211 10.348949 779.401001
380 0 1 7.306394 10.816510 780.181030
381 0 1 7.285161 11.212990 781.082031
382 0 1 7.245800 11.356020 782.036011
383 0 1 6.939410 11.073220 782.948975
384 0 1 6.694790 10.847640 783.886963
385 0 1 6.376740 10.620630 784.744019
386 0 1 6.272940 10.185020 785.622009
387 0 1 6.243710 10.381940 786.596008
388 0 1 6.349460 10.413260 787.552979
389 0 1 6.544550 10.305020 788.489990
390 0 1 6.583490 10.057880 789.398987
391 0 1 6.589320 10.224340 790.315979
392 0 1 6.792900 10.179501 791.231995
393 0 1 6.970910 9.821990 792.145996
394 0 1 6.898450 9.539370 793.179993
395 0 1 6.996020 9.281250 794.056030
396 0 1 7.134390 8.861343 794.924011
397 0 1 7.412660 8.419618 795.697021
398 0 1 7.745466 8.338437 796.624023
399 0 1 7.939839 8.302917 797.521973
400 0 1 8.467297 8.573330 798.296997
401 0 1 8.743589 8.964403 799.072021
402 0 1 8.619714 9.540430 799.854004
403 0 1 8.324776 10.191870 800.516968
404 0 1 8.262811 10.661290 801.315979
405 0 1 8.286411 11.100640 802.207031
406 0 1 8.517729 11.099000 803.179993
407 0 1 8.660678 10.926559 804.106018
408 0 1 8.861320 10.803480 805.125000
409 0 1 8.789765 10.514720 806.059021
410 0 1 8.500444 10.102760 806.865967
411 0 1 8.174361 9.796860 807.754028
412 0 1 7.929956 9.646360 808.671021
413 0 1 7.417332 9.376120 809.507996
414 0 1 7.037920 9.344030 810.348022
415 0 1 6.848250 9.716960 811.270020
416 0 1 7.110063 9.873569 812.244995
417 0 1 7.395805 10.074550 813.109985
418 0 1 7.498064 10.348280 814.021973
419 0 1 7.392684 10.550360 814.960999
420 0 1 7.242868 10.925261 815.804993
421 0 1 7.044569 11.066090 816.739014
422 0 1 6.950880 10.980910 817.757996
423 0 1 6.971500 10.987620 818.738037
424 0 1 6.959050 10.831390 819.703979
425 0 1 6.753320 10.741450 820.688965
426 0 1 6.418210 10.676170 821.596985
427 0 1 6.269250 10.745940 822.511963
428 0 1 5.961570 10.827720 823.484009
429 0 1 5.230800 10.953780 824.174988
430 0 1 4.910450 11.136560 825.018005
431 0 1 4.577820 11.244801 825.889038
432 0 1 4.431970 11.721100 826.684021
433 0 1 4.221480 12.368890 827.338989
434 0 1 4.108530 13.005720 827.987000
435 0 1 4.323560 13.600520 828.682983
436 0 1 4.480460 13.794149 829.622986
437 0 1 4.713140 13.989890 830.469971
438 0 1 4.895380 14.145940 831.400024
439 0 1 5.445240 14.129670 832.145020
440 0 1 6.151150 13.848780 832.710022
441 0 1 6.914130 13.428670 833.135986
442 0 1 7.768863 13.042070 833.299011
443 0 1 8.613092 12.910980 833.742004
444 0 1 9.422930 12.616050 834.112000
445 0 1 10.314301 12.311769 834.434998
446 0 1 11.033160 11.682810 834.516968
447 0 1 11.740870 11.034510 834.393005
448 0 1 12.430580 10.392770 834.078979
449 0 1 12.730801 9.762550 833.403015
450 0 1 13.157270 9.082050 832.747986
451 0 1 13.101460 8.580356 831.917969
452 0 1 12.953529 8.309735 830.989014
453 0 1 12.836010 8.030688 830.101990
454 0 1 12.357840 8.113403 829.231018
455 0 1 12.115980 8.115492 828.328003
456 0 1 11.981970 8.319442 827.432007
457 0 1 11.911290 8.397461 826.453979
458 0 1 11.827869 8.254907 825.504028
459 0 1 11.836430 8.058284 824.559998
460 0 1 11.736240 7.913146 823.606995
461 0 1 11.714530 7.680714 822.679993
462 0 1 11.734550 7.337636 821.811035
463 0 1 12.066610 6.890780 821.046021
464 0 1 11.865540 6.534600 820.125977
465 0 1 11.737360 5.953510 819.395020
466 0 1 11.740410 5.436220 818.598022
467 0 1 11.623199 4.956920 817.760010
468 0 1 11.570160 4.604750 816.903992
469 0 1 11.595980 4.302670 816.010986
470 0 1 11.648530 4.115540 815.057983
471 0 1 11.484550 4.122010 814.176025
472 0 1 11.337151 4.023090 813.233032
473 0 1 11.118270 3.918500 812.291016
474 0 1 10.842430 3.731690 811.382019
475 0 1 10.327960 3.721440 810.531982
476 0 1 9.826540 3.756380 809.661987
477 0 1 9.313570 3.859640 808.825989
478 0 1 8.779975 3.962460 808.007996
479 0 1 8.276883 4.270210 807.237000
480 0 1 7.973710 4.451850 806.322998
481 0 1 7.721641 4.554290 805.351990
482 0 1 7.512854 4.554630 804.417969
483 0 1 7.594012 4.657100 803.442017
484 0 1 7.640467 4.781160 802.462036
485 0 1 7.668479 5.206860 801.622009
486 0 1 7.668000 5.705010 800.797974
487 0 1 7.674931 6.295300 800.030029
488 0 1 7.394096 7.144256 799.692017
489 0 1 6.958040 7.978219 799.304993
490 0 1 6.469540 8.746859 798.906982
491 0 1 6.115780 9.369480 798.343018
492 0 1 5.850940 10.083310 797.752014
493 0 1 5.637660 10.719130 797.046021
494 0 1 5.485650 11.280170 796.231018
495 0 1 5.391840 12.003420 795.635010
496 0 1 5.313020 12.609380 794.903015
497 0 1 5.143030 12.999411 794.042969
498 0 1 5.340640 13.710400 793.379028
499 0 1 5.892890 14.166941 792.786011
500 0 1 6.449840 14.371620 792.015991
501 0 1 6.774640 14.575940 791.115967
502 0 1 7.207066 14.561800 790.239014
503 0 1 7.597322 14.524240 789.341003
504 0 1 7.716345 14.361870 788.369019
505 0 1 8.027925 14.060890 787.525024
506 0 1 8.325616 13.750660 786.655029
507 0 1 8.789729 13.712790 785.783020
508 0 1 9.164289 13.522670 784.880981
509 0 1 9.658990 13.574790 784.041016
510 0 1 9.992260 13.495200 783.158997
511 0 1 10.210490 13.438820 782.231995
512 0 1 10.434959 13.166121 781.320007
513 0 1 10.831841 12.837660 780.463013
514 0 1 11.300220 12.800770 779.656982
515 0 1 11.667870 12.449340 778.792969
516 0 1 12.266500 12.192160 778.088013
517 0 1 12.596519 11.517850 777.424988
518 0 1 13.133659 11.131430 776.703979
519 0 1 13.638960 10.603930 776.127991
520 0 1 14.211269 9.992810 775.578979
521 0 1 14.561150 9.329520 774.931030
522 0 1 14.816840 8.802013 774.216003
523 0 1 14.894600 8.333388 773.411987
524 0 1 14.894300 7.981424 772.481995
525 0 1 14.942500 7.781414 771.528015
526 0 1 14.689590 7.756560 770.580994
527 0 1 14.376221 7.886428 769.672974
528 0 1 13.917390 7.878068 768.867004
529 0 1 13.465611 8.106103 768.013000
530 0 1 12.717330 8.201467 767.431030
531 0 1 11.945820 8.158999 766.775024
532 0 1 11.216800 8.376205 766.127014
533 0 1 10.733850 8.428744 765.294983
534 0 1 10.448620 8.493845 764.406006
535 0 1 10.175230 8.566579 763.434021
536 0 1 9.587111 8.600871 762.669006
537 0 1 8.922771 8.803901 761.953003
538 0 1 8.383265 8.879351 761.223022
539 0 1 7.816405 9.417459 760.640015
540 0 1 7.078940 9.743750 760.094971
541 0 1 6.260300 10.278130 759.733032
542 0 1 5.583320 10.686840 759.119019
543 0 1 4.857700 11.072130 758.520020
544 0 1 4.430200 11.422370 757.737000
545 0 1 4.243160 11.725019 756.867981
546 0 1 4.052500 12.191820 755.966003
547 0 1 3.876630 12.490170 755.065979
548 0 1 4.025880 12.517450 754.148010
549 0 1 4.015140 12.430250 753.179016
550 0 1 4.111530 12.033630 752.309021
551 0 1 4.106280 11.547890 751.507019
552 0 1 4.036800 11.063720 750.619019
553 0 1 4.106780 10.667419 749.778992
554 0 1 4.128710 10.066330 749.047974
555 0 1 3.916510 9.722020 748.132019
556 0 1 3.998180 9.482110 747.174988
557 0 1 4.023000 9.162650 746.233032
558 0 1 3.931580 8.769927 745.323975
559 0 1 4.157500 8.194678 744.525024
560 0 1 4.482180 7.724988 743.744995
561 0 1 4.826500 7.198701 743.035034
562 0 1 5.257120 6.787640 742.254028
563 0 1 5.805350 6.357310 741.624023
564 0 1 6.079400 6.257440 740.687012
565 0 1 6.471920 6.058420 739.867004
566 0 1 6.909850 6.077350 738.950012
567 0 1 7.330051 6.207360 738.083008
568 0 1 7.821338 6.015030 737.200012
569 0 1 8.043031 6.081180 736.291016
570 0 1 7.785943 6.292690 735.393005
571 0 1 7.432602 6.175600 734.476990
572 0 1 7.207608 5.997940 733.583984
573 0 1 7.138756 5.770820 732.641968
574 0 1 7.074301 5.728150 731.716980
575 0 1 7.151933 5.843590 730.721008
576 0 1 7.251726 5.703540 729.773987
577 0 1 7.550404 5.875380 728.901978
578 0 1 7.883603 5.952620 728.007385
579 0 1 8.341462 5.997820 727.131104
580 0 1 8.730074 5.957040 726.187805
581 0 1 9.022230 5.707760 725.291504
582 0 1 9.065060 5.310680 724.392578
583 0 1 9.161680 5.038520 723.448792
584 0 1 9.195250 4.836790 722.538391
585 0 1 9.273550 4.805300 721.603821
586 0 1 9.325400 4.998340 720.666199
587 0 1 9.005800 4.936810 719.800476
588 0 1 8.503943 5.153450 719.064575
589 0 1 7.881253 4.968500 718.292114
590 0 1 7.214020 5.085240 717.623718
591 0 1 6.710500 5.230830 716.793274
592 0 1 6.059340 5.222030 716.070312
593 0 1 5.666650 5.079710 715.143921
594 0 1 5.258530 4.833630 714.333374
595 0 1 4.812500 4.725980 713.447815
596 0 1 4.498480 4.483700 712.604492
597 0 1 4.407480 4.417990 711.592896
598 0 1 4.275930 4.653680 710.658997
599 0 1 3.958780 4.996710 709.713074
600 0 1 3.953800 5.558660 708.858276
601 0 1 3.876930 6.072630 708.018494
602 0 1 4.046500 6.721190 707.330078
603 0 1 3.978380 7.427227 706.643982
604 0 1 3.901030 8.096556 706.003113
605 0 1 3.717460 8.606707 705.184509
606 0 1 3.538800 8.986299 704.388000
607 0 1 3.618940 9.493380 703.549377
608 0 1 3.775570 9.755820 702.663025
609 0 1 3.625400 9.971040 701.704102
610 0 1 3.167650 10.149010 700.920105
611 0 1 2.845380 10.391180 700.046326
612 0 1 2.502720 10.392970 699.097412
613 0 1 1.979390 10.112090 698.372803
614 0 1 1.638900 9.659940 697.560120
615 0 1 1.226460 9.071980 696.887817
616 0 1 1.235720 8.244040 696.395508
617 0 1 1.520370 7.537978 695.818909
618 0 1 1.903830 6.793960 695.268982
619 0 1 2.316040 6.293950 694.561707
620 0 1 2.991900 6.046210 693.899414
621 0 1 3.678190 5.520780 693.416199
622 0 1 4.402730 4.956600 693.170776
623 0 1 5.007740 4.406660 692.663696
624 0 1 5.608250 3.953290 692.153931
625 0 1 6.242560 3.611200 691.564697
626 0 1 7.008844 3.449120 690.993103
627 0 1 7.718496 3.716780 690.331482
628 0 1 8.586920 4.116270 690.047180
629 0 1 9.478700 4.298170 689.624084
630 0 1 10.162849 4.969950 689.464783
631 0 1 10.921550 5.543350 689.475281
632 0 1 11.542330 6.172170 689.152832
633 0 1 12.131519 6.782880 688.630493
634 0 1 12.319630 7.540191 688.011108
635 0 1 12.410390 8.216907 687.309387
636 0 1 12.275110 8.876170 686.598328
637 0 1 11.842900 9.515630 686.025574
638 0 1 11.379840 9.699330 685.189026
639 0 1 10.766850 9.825600 684.512085
640 0 1 10.076830 9.860150 683.866211
641 0 1 9.706260 9.427970 683.100525
642 0 1 9.639830 8.798270 682.356323
643 0 1 9.705580 8.111020 681.709229
644 0 1 9.630130 7.476577 680.977173
645 0 1 9.358750 6.735970 680.296997
646 0 1 9.465750 6.302470 679.404785
647 0 1 9.571230 6.016010 678.491272
648 0 1 9.396300 5.679290 677.646729
649 0 1 9.306800 5.427410 676.735291
650 0 1 9.270041 5.293550 675.784973
651 0 1 9.271910 5.084840 674.839783
652 0 1 9.071810 4.707650 674.035828
653 0 1 9.054730 4.479470 673.100220
654 0 1 9.208941 4.585340 672.093811
655 0 1 9.295830 4.817450 671.147095
656 0 1 9.167480 5.243290 670.270630
657 0 1 9.326580 5.661770 669.392517
658 0 1 9.573290 5.964060 668.497803
659 0 1 9.610100 6.005280 667.554321
660 0 1 10.015100 5.942320 666.613281
661 0 1 10.461930 5.928080 665.782104
662 0 1 10.750071 5.915480 664.846924
663 0 1 11.184380 6.013330 664.054504
664 0 1 11.621970 6.164980 663.210327
665 0 1 12.286551 6.609130 662.706909
666 0 1 12.890289 7.056241 662.039612
667 0 1 13.089420 7.548481 661.211914
668 0 1 13.042430 8.130236 660.427185
669 0 1 12.893089 8.965328 659.852112
670 0 1 12.576010 9.650850 659.221497
671 0 1 12.197390 10.392450 658.736084
672 0 1 11.547980 10.858010 658.227722
673 0 1 11.050810 11.503170 657.708313
674 0 1 10.452920 12.003460 657.188416
675 0 1 10.091351 12.255569 656.278015
676 0 1 9.486030 12.217421 655.423889
677 0 1 8.793998 12.518829 654.812012
678 0 1 8.149422 12.649820 654.143799
679 0 1 7.574395 12.811390 653.423889
680 0 1 7.173999 13.183650 652.551392
681 0 1 6.554250 13.355590 651.845215
682 0 1 6.076450 13.467700 651.004089
683 0 1 5.498650 13.900590 650.307129
684 0 1 5.182610 14.152639 649.454285
685 0 1 4.976170 14.232880 648.517883
686 0 1 4.942800 14.129520 647.591614
687 0 1 5.011720 13.870570 646.654175
688 0 1 4.994810 13.589790 645.706909
689 0 1 4.723820 13.236350 644.846375
690 0 1 4.815480 12.884530 643.939209
691 0 1 4.972640 12.568800 643.046814
692 0 1 5.014330 12.192070 642.138672
693 0 1 4.850190 11.910290 641.246216
694 0 1 5.023780 11.911930 640.257812
695 0 1 4.926570 12.002029 639.300415
696 0 1 4.756990 12.167510 638.353760
697 0 1 4.987860 12.537630 637.481995
698 0 1 5.456640 12.586180 636.674316
699 0 1 5.707840 12.483940 635.694153
700 0 1 6.083360 12.524240 634.780029
701 0 1 6.447220 12.497030 633.911865
702 0 1 6.500950 12.285800 632.982849
703 0 1 6.814730 12.100639 631.999329
704 0 1 7.359582 11.908990 631.225220
705 0 1 7.708151 11.452180 630.399109
706 0 1 7.951721 10.924260 629.605713
707 0 1 8.105843 10.586950 628.646973
708 0 1 8.195443 10.486200 627.698303
709 0 1 8.567274 10.682480 626.843750
710 0 1 8.631803 10.869110 625.806152
711 0 1 8.450600 11.024620 624.820557
712 0 1 8.017993 10.919350 624.002747
713 0 1 7.396287 10.808331 623.255676
714 0 1 6.966250 11.037240 622.355530
715 0 1 6.618860 11.206739 621.438843
716 0 1 6.479290 11.635880 620.581238
717 0 1 6.368610 12.210820 619.791748
718 0 1 6.251670 12.456730 618.897644
719 0 1 6.020350 12.607750 617.902710
720 0 1 5.786180 12.458549 616.988098
721 0 1 6.013590 12.152580 616.136902
722 0 1 6.433730 12.118811 615.264099
723 0 1 6.719110 12.176840 614.294128
724 0 1 6.861250 12.005950 613.342896
725 0 1 7.037351 11.684240 612.475403
726 0 1 7.019629 11.451839 611.543701
727 0 1 7.308698 11.112880 610.673218
728 0 1 7.547312 10.956630 609.803223
729 0 1 8.041591 10.619050 608.997192
730 0 1 8.582102 10.094710 608.396301
731 0 1 9.194020 9.959300 607.719727
732 0 1 9.887200 9.770930 607.124390
733 0 1 10.465680 9.781450 606.403503
734 0 1 11.174459 9.670300 605.804993
735 0 1 11.613960 9.259420 604.981995
736 0 1 11.944150 8.998514 604.136719
737 0 1 12.136761 9.076910 603.213318
738 0 1 12.126420 8.869839 602.273499
739 0 1 11.899310 8.843091 601.283875
740 0 1 11.838380 8.469930 600.429688
741 0 1 11.853210 8.105863 599.543884
742 0 1 11.987100 7.724153 598.662903
743 0 1 12.152740 7.606474 597.742310
744 0 1 12.314330 7.415673 596.839600
745 0 1 12.608870 7.161876 596.008179
746 0 1 12.793341 6.961340 595.127502
747 0 1 13.046721 6.455560 594.299927
748 0 1 13.066160 6.236400 593.359314
749 0 1 12.786760 6.282360 592.429932
750 0 1 12.650761 6.300240 591.501892
751 0 1 12.630020 6.331070 590.516785
752 0 1 12.624300 6.388340 589.559692
753 0 1 12.834169 6.306000 588.672913
754 0 1 12.839809 6.021660 587.741272
755 0 1 12.819890 6.100280 586.747375
756 0 1 12.948851 6.247540 585.763916
757 0 1 13.066441 6.363630 584.798523
758 0 1 12.608430 6.458680 583.938721
759 0 1 12.025770 6.578630 583.140076
760 0 1 11.332160 6.944100 582.592285
761 0 1 10.481600 7.132877 582.143799
762 0 1 9.656690 7.544758 581.665283
763 0 1 8.827461 7.512296 581.131287
764 0 1 8.005819 7.248077 580.628784
765 0 1 7.274945 7.004874 580.086792
766 0 1 6.445800 6.721160 579.627014
767 0 1 5.893290 6.622250 578.895081
768 0 1 5.664890 6.378700 577.906128
769 0 1 5.294300 6.555520 577.057678
770 0 1 4.992050 6.776360 576.161316
771 0 1 4.689710 6.866260 575.213379
772 0 1 4.420420 6.911300 574.325928
773 0 1 4.163020 6.728360 573.376526
774 0 1 4.010380 6.379150 572.461182
775 0 1 4.079630 6.159700 571.476013
776 0 1 4.206540 5.838520 570.585693
777 0 1 4.383410 5.698760 569.664124
778 0 1 4.324860 5.403900 568.748291
779 0 1 4.613530 5.108610 567.826477
780 0 1 4.857880 5.158600 566.884583
781 0 1 5.191740 5.099760 565.958313
782 0 1 5.890210 5.096720 565.275391
783 0 1 6.622360 5.331010 564.577698
784 0 1 7.364258 5.598660 564.085999
785 0 1 8.123161 5.921850 563.583008
786 0 1 8.680504 6.436800 563.092285
787 0 1 9.185330 7.022449 562.412720
788 0 1 9.763890 7.239991 561.682129