LAMMPS data file via MDAnalysis

        1000  atoms
        1000  bonds
        1000  angles
           0  dihedrals
           0  impropers

           1  atom types
           1  bond types
           1  angle types
           0  dihedral types
           0  improper types

0.000000 16.000000 xlo xhi
0.000000 16.000000 ylo yhi
0.000000 1257.000000 zlo zhi


Masses

1 1.000000

Atoms

1 0 1 8.326957 9.090190 454.425995
2 0 1 8.146496 9.011650 455.382019
3 0 1 7.767884 9.136860 456.216980
4 0 1 7.399463 9.355010 457.095001
5 0 1 7.023908 9.560410 457.987000
6 0 1 6.585860 9.628720 458.864990
7 0 1 5.918490 9.610991 459.539001
8 0 1 5.164740 9.560260 460.122009
9 0 1 4.621720 9.449960 460.919983
10 0 1 4.445760 9.194120 461.833984
11 0 1 4.484270 8.851211 462.716980
12 0 1 4.429020 8.368702 463.574005
13 0 1 4.335680 8.191110 464.574005
14 0 1 4.551700 8.330785 465.481995
15 0 1 4.726760 8.711923 466.398987
16 0 1 4.943130 8.814436 467.285004
17 0 1 5.422820 8.759368 468.194000
18 0 1 5.754760 8.670874 469.059998
19 0 1 6.056950 8.515200 469.994995
20 0 1 6.119580 8.207989 470.885010
21 0 1 6.279030 7.981076 471.783997
22 0 1 6.240670 7.794783 472.731995
23 0 1 6.273440 7.254976 473.510010
24 0 1 6.225360 6.760650 474.335022
25 0 1 6.183420 6.490580 475.281982
26 0 1 6.548550 6.215810 476.127991
27 0 1 6.781380 6.087760 477.041016
28 0 1 6.647850 6.031870 477.994995
29 0 1 6.587420 6.221840 478.925995
30 0 1 6.337020 5.846810 479.846008
31 0 1 6.237940 5.464280 480.674011
32 0 1 6.217460 5.156260 481.552979
33 0 1 6.705380 4.613270 482.300995
34 0 1 7.125975 3.992950 482.924988
35 0 1 7.369292 3.487950 483.708984
36 0 1 7.667546 3.102070 484.528992
37 0 1 7.881834 2.947310 485.502014
38 0 1 7.794339 2.835400 486.471985
39 0 1 7.395887 3.096890 487.391998
40 0 1 7.462840 3.336670 488.315002
41 0 1 7.395994 3.892420 489.119019
42 0 1 7.121946 4.365540 489.875000
43 0 1 7.246618 4.574260 490.817993
44 0 1 7.453632 4.629090 491.804016
45 0 1 7.779940 4.863550 492.662994
46 0 1 7.859646 5.348160 493.457001
47 0 1 7.671220 5.944370 494.220001
48 0 1 7.659568 6.696850 494.794983
49 0 1 7.518720 7.377813 495.438995
50 0 1 7.471057 8.042326 496.164001
51 0 1 7.460642 8.642352 496.914978
52 0 1 7.692403 9.194930 497.713013
53 0 1 7.672932 9.818790 498.390991
54 0 1 7.695141 10.231020 499.268982
55 0 1 8.036918 10.507380 500.112000
56 0 1 8.321218 10.904449 500.981018
57 0 1 8.531369 10.987690 501.929016
58 0 1 8.860861 10.945550 502.830017
59 0 1 8.949604 11.380480 503.708984
60 0 1 8.976372 11.886750 504.507996
61 0 1 8.815276 12.496180 505.252991
62 0 1 8.840801 12.901091 506.070007
63 0 1 8.750365 13.137970 506.980011
64 0 1 8.696341 13.270870 507.898987
65 0 1 8.469541 13.392611 508.835999
66 0 1 8.032341 13.267970 509.665009
67 0 1 7.817331 12.893829 510.513000
68 0 1 7.827649 12.494690 511.438995
69 0 1 7.855898 12.112560 512.315979
70 0 1 8.021859 11.785290 513.223999
71 0 1 8.416720 11.447060 513.999023
72 0 1 8.875195 11.287390 514.809998
73 0 1 9.109640 11.000680 515.669983
74 0 1 9.296940 10.590110 516.531982
75 0 1 9.478290 10.343430 517.406006
76 0 1 9.296560 10.076910 518.339966
77 0 1 9.043840 9.770190 519.276978
78 0 1 9.034860 9.649190 520.187012
79 0 1 9.135210 9.813740 521.112976
80 0 1 9.605780 9.838620 522.007019
81 0 1 10.280000 10.032681 522.591980
82 0 1 11.041540 10.081210 523.185974
83 0 1 11.608400 9.983850 523.901978
84 0 1 12.114941 9.908550 524.726990
85 0 1 12.611691 9.729210 525.559998
86 0 1 12.966440 9.371560 526.401978
87 0 1 13.120359 8.938954 527.207031
88 0 1 13.127970 8.441000 528.023987
89 0 1 13.135670 7.824630 528.954224
90 0 1 13.003469 7.194688 529.712524
91 0 1 12.971621 6.719500 530.592407
92 0 1 13.310150 6.710510 531.521179
93 0 1 13.611850 6.699180 532.444214
94 0 1 13.878310 6.522560 533.333191
95 0 1 13.917419 6.299440 534.197327
96 0 1 14.060610 5.905540 535.095398
97 0 1 13.923941 5.734050 536.023804
98 0 1 13.734190 5.628090 536.980408
99 0 1 13.856319 5.766060 537.901367
100 0 1 13.684700 5.595810 538.772705
101 0 1 13.623590 5.478610 539.821167
102 0 1 13.655690 5.557030 540.785095
103 0 1 13.657200 5.721440 541.704834
104 0 1 13.200480 5.677810 542.585815
105 0 1 12.882350 5.860750 543.451782
106 0 1 12.311970 5.697120 544.210083
107 0 1 11.817660 5.627640 544.982605
108 0 1 11.253980 5.479040 545.732300
109 0 1 10.883750 5.293600 546.613281
110 0 1 10.794559 5.211490 547.526489
111 0 1 10.652550 5.217310 548.450500
112 0 1 10.163270 5.232790 549.290771
113 0 1 9.509020 5.023630 550.057007
114 0 1 9.098110 4.705320 550.839600
115 0 1 8.958928 4.306380 551.726196
116 0 1 8.425187 3.916850 552.489319
117 0 1 7.871772 3.852450 553.278687
118 0 1 7.549543 3.543320 554.183594
119 0 1 7.274388 3.361690 555.118408
120 0 1 6.980450 3.064640 555.942383
121 0 1 6.868340 2.920320 556.886475
122 0 1 6.408340 2.726640 557.731567
123 0 1 6.105590 2.685340 558.665405
124 0 1 5.804810 2.544440 559.544189
125 0 1 5.877160 2.321600 560.500977
126 0 1 6.098330 2.253940 561.420105
127 0 1 6.240350 2.327530 562.375488
128 0 1 6.305530 2.249030 563.320007
129 0 1 6.344870 1.820580 564.192322
130 0 1 6.399200 1.828120 565.172180
131 0 1 6.557350 1.952870 566.178406
132 0 1 6.910430 1.946860 567.111389
133 0 1 7.113575 2.106050 568.037292
134 0 1 7.084184 2.195400 569.035278
135 0 1 6.818500 2.398430 569.913391
136 0 1 6.626410 2.793890 570.801880
137 0 1 6.713300 3.009170 571.696411
138 0 1 6.883930 3.167620 572.565125
139 0 1 7.264961 3.539230 573.388794
140 0 1 7.478224 3.937860 574.245178
141 0 1 7.502741 4.296530 575.107605
142 0 1 7.989561 4.763250 575.832703
143 0 1 8.277920 4.953730 576.767700
144 0 1 8.704213 5.126440 577.614868
145 0 1 8.784103 5.130690 578.629395
146 0 1 8.929095 5.203170 579.596802
147 0 1 9.080900 5.337890 580.529419
148 0 1 8.832722 5.201460 581.461182
149 0 1 8.666893 5.173090 582.399597
150 0 1 8.591666 5.192110 583.337097
151 0 1 8.202913 5.177360 584.181519
152 0 1 7.701527 5.494040 585.044189
153 0 1 7.104443 5.728650 585.760925
154 0 1 6.778880 6.159910 586.546326
155 0 1 6.520670 6.599630 587.330322
156 0 1 6.461010 6.814400 588.280212
157 0 1 6.494910 7.338553 589.138916
158 0 1 6.764290 7.957429 589.841492
159 0 1 7.067041 8.555910 590.558105
160 0 1 7.351853 9.341200 591.055298
161 0 1 7.552141 9.867400 591.777893
162 0 1 7.915159 10.426320 592.410217
163 0 1 8.342834 11.051550 593.043396
164 0 1 8.759501 11.402530 593.875183
165 0 1 9.275240 11.763680 594.714294
166 0 1 9.883380 12.042931 595.401184
167 0 1 10.032910 12.349770 596.306702
168 0 1 10.025630 12.489130 597.206116
169 0 1 9.918170 12.521180 598.163879
170 0 1 9.811131 12.286860 599.069580
171 0 1 9.780120 12.119170 600.036316
172 0 1 9.817680 11.644080 600.817993
173 0 1 9.885370 11.005250 601.588989
174 0 1 9.933230 10.588910 602.536926
175 0 1 9.854110 10.188820 603.395996
176 0 1 9.780960 9.540600 604.026306
177 0 1 9.627570 9.098250 604.885010
178 0 1 9.034500 8.606020 605.486023
179 0 1 8.342578 8.475064 606.155212
180 0 1 7.778465 8.228683 606.858704
181 0 1 7.245114 8.014555 607.565308
182 0 1 6.745090 7.765806 608.308289
183 0 1 5.998910 7.500998 608.956482
184 0 1 5.248920 7.039814 609.260925
185 0 1 4.653680 7.008752 610.013000
186 0 1 4.187100 7.323949 610.767517
187 0 1 3.787180 7.786498 611.525085
188 0 1 3.660080 8.274528 612.388611
189 0 1 3.341760 8.955554 613.069397
190 0 1 2.934570 9.670110 613.514404
191 0 1 2.355290 10.189460 614.210571
192 0 1 1.959800 10.513950 615.021729
193 0 1 2.058130 10.649850 616.019226
194 0 1 2.266730 11.037120 616.933105
195 0 1 2.691190 11.147190 617.764771
196 0 1 3.033170 11.062480 618.677185
197 0 1 3.505000 10.999599 619.535278
198 0 1 3.859010 10.994680 620.395325
199 0 1 4.399160 10.686060 621.113037
200 0 1 5.053320 10.420130 621.841248
201 0 1 5.817540 10.056790 622.275696
202 0 1 6.693080 9.888830 622.622681
203 0 1 7.516247 9.891210 623.090881
204 0 1 8.209645 9.962470 623.748779
205 0 1 8.759214 9.862730 624.610229
206 0 1 9.323860 9.886040 625.372620
207 0 1 9.874610 9.751100 626.188232
208 0 1 10.121020 9.509480 627.099365
209 0 1 10.334200 9.663250 628.072571
210 0 1 10.354390 9.801720 629.025269
211 0 1 10.643050 10.024230 629.956848
212 0 1 10.695240 10.199770 630.929443
213 0 1 11.125590 10.293730 631.829407
214 0 1 11.471460 10.014680 632.688354
215 0 1 11.530870 9.586340 633.567993
216 0 1 11.572720 9.347219 634.509033
217 0 1 11.666470 8.977208 635.377502
218 0 1 11.609180 8.761526 636.305847
219 0 1 11.263530 8.404718 637.155273
220 0 1 11.174310 7.905539 638.026001
221 0 1 10.928830 7.471770 638.872192
222 0 1 10.863131 6.951280 639.745789
223 0 1 10.765039 6.229580 640.342285
224 0 1 11.060080 5.568660 640.898010
225 0 1 11.163190 4.860080 641.602112
226 0 1 11.401490 4.325400 642.306519
227 0 1 11.742780 3.977310 643.084717
228 0 1 11.869070 3.689920 643.986816
229 0 1 12.222990 3.178780 644.776794
230 0 1 12.316540 2.843720 645.647095
231 0 1 12.181789 2.834090 646.681702
232 0 1 12.117940 2.910490 647.654480
233 0 1 11.617370 3.282670 648.411072
234 0 1 11.322980 3.846420 649.201294
235 0 1 11.074180 4.357850 649.946777
236 0 1 10.780720 5.127820 650.555725
237 0 1 10.703410 5.929780 651.103882
238 0 1 10.665200 6.450870 651.907471
239 0 1 10.552600 7.059441 652.656494
240 0 1 10.285930 7.713673 653.265381
241 0 1 10.235910 8.439563 653.875183
242 0 1 10.034360 8.889313 654.799500
243 0 1 10.037840 9.651280 655.376404
244 0 1 10.340730 10.230970 656.069702
245 0 1 10.821210 10.452330 656.885803
246 0 1 11.201330 10.624520 657.715210
247 0 1 11.364500 10.605710 658.701294
248 0 1 11.232540 10.611310 659.626709
249 0 1 10.845310 10.673410 660.529175
250 0 1 10.416380 10.719610 661.393188
251 0 1 10.132640 10.315910 662.220093
252 0 1 9.853630 9.978510 663.059998
253 0 1 9.491090 9.733850 663.897095
254 0 1 9.226690 9.235380 664.662598
255 0 1 9.070950 9.019780 665.653076
256 0 1 9.025940 8.964139 666.640686
257 0 1 8.996537 9.076880 667.646484
258 0 1 9.093019 9.146490 668.595581
259 0 1 8.830913 9.259660 669.539917
260 0 1 8.214554 9.347550 670.319214
261 0 1 7.903500 9.473670 671.223389
262 0 1 7.586273 9.391710 672.118774
263 0 1 7.473088 9.104410 673.086304
264 0 1 7.438971 9.064120 674.038391
265 0 1 7.341942 9.041410 674.960999
266 0 1 7.352516 8.862226 675.972412
267 0 1 7.687187 8.873514 676.949280
268 0 1 7.827433 8.566808 677.860291
269 0 1 7.890326 8.297144 678.798828
270 0 1 8.151126 8.096772 679.707214
271 0 1 8.516358 8.008103 680.621399
272 0 1 9.241890 8.075990 681.217773
273 0 1 9.907650 8.491555 681.738220
274 0 1 10.629480 8.933371 682.255981
275 0 1 11.191570 8.997868 683.015015
276 0 1 11.552980 8.943601 683.902832
277 0 1 12.060511 9.076020 684.781677
278 0 1 12.412661 9.343640 685.679810
279 0 1 12.690130 9.385050 686.565430
280 0 1 12.945610 9.334311 687.465881
281 0 1 13.102020 9.461430 688.374023
282 0 1 12.942860 9.529060 689.346313
283 0 1 12.992109 9.381130 690.341309
284 0 1 13.036409 8.826909 691.245483
285 0 1 13.275520 8.509693 692.122803
286 0 1 13.435920 8.127012 692.995117
287 0 1 13.231660 7.822146 693.838501
288 0 1 13.195010 7.461657 694.822632
289 0 1 13.080550 7.078097 695.698975
290 0 1 12.996360 6.750770 696.575928
291 0 1 12.694691 6.726700 697.491089
292 0 1 12.427620 6.447570 698.330017
293 0 1 12.023439 6.407110 699.259827
294 0 1 11.525630 6.355250 700.054688
295 0 1 10.890500 6.494830 700.719299
296 0 1 10.383520 6.441320 701.504822
297 0 1 9.813220 6.384240 702.352600
298 0 1 9.208520 6.250340 703.069580
299 0 1 8.848153 6.317160 703.899414
300 0 1 8.684672 6.206910 704.857483
301 0 1 8.475457 5.900780 705.732910
302 0 1 8.293492 5.555480 706.578186
303 0 1 8.316487 4.941490 707.396729
304 0 1 8.419435 4.397970 708.207031
305 0 1 8.579448 4.099550 709.087402
306 0 1 8.864704 4.003460 709.949707
307 0 1 9.058640 3.834560 710.928101
308 0 1 9.318260 3.689550 711.824402
309 0 1 9.541630 3.437820 712.710388
310 0 1 9.747530 3.134980 713.606079
311 0 1 9.774310 3.110000 714.573730
312 0 1 9.927130 3.196550 715.472778
313 0 1 10.203470 3.490750 716.354797
314 0 1 10.486470 3.858580 717.237671
315 0 1 10.475880 4.474270 718.035767
316 0 1 10.376070 4.750600 719.037720
317 0 1 10.426970 5.198210 719.836914
318 0 1 10.548670 5.500870 720.750977
319 0 1 10.386530 6.131190 721.435303
320 0 1 10.113860 6.628470 722.206116
321 0 1 9.859390 7.052305 723.057495
322 0 1 9.252040 7.478154 723.749023
323 0 1 8.647274 7.698672 724.416687
324 0 1 7.983283 7.846315 725.099426
325 0 1 7.430091 7.734958 725.906006
326 0 1 6.823090 7.557349 726.659790
327 0 1 6.125950 7.339656 727.337769
328 0 1 5.745200 7.116373 728.212708
329 0 1 5.485860 6.681940 729.031982
330 0 1 5.437560 6.466440 729.976990
331 0 1 5.585970 6.451650 730.888000
332 0 1 5.703490 6.284910 731.861023
333 0 1 5.519350 6.000490 732.723022
334 0 1 5.172600 5.633300 733.560974
335 0 1 4.792490 5.197880 734.265015
336 0 1 4.503850 4.805800 735.046997
337 0 1 4.273800 4.584390 735.984009
338 0 1 4.039270 4.489300 736.992981
339 0 1 3.848470 4.329270 737.935974
340 0 1 3.684610 4.387260 738.887024
341 0 1 3.517120 4.304480 739.820007
342 0 1 3.204430 4.467190 740.736023
343 0 1 2.997750 4.689330 741.656982
344 0 1 2.680740 4.976380 742.604004
345 0 1 2.574360 5.047260 743.564026
346 0 1 2.364320 5.196170 744.450989
347 0 1 2.221410 5.432810 745.393982
348 0 1 2.256800 5.937670 746.156982
349 0 1 2.404780 6.559380 746.898010
350 0 1 2.685230 7.202344 747.589966
351 0 1 2.981070 7.761399 748.408997
352 0 1 3.286080 8.397530 749.086975
353 0 1 3.749430 9.078930 749.552979
354 0 1 4.118550 9.834630 750.130981
355 0 1 4.246980 10.790370 750.396973
356 0 1 4.268230 11.745831 750.575012
357 0 1 4.461420 12.457650 751.098022
358 0 1 4.950830 12.650169 751.859985
359 0 1 5.610170 12.474340 752.554016
360 0 1 6.120330 12.549630 753.382019
361 0 1 6.686370 12.505360 754.195984
362 0 1 7.053820 12.486780 755.077026
363 0 1 7.266002 12.705140 755.971985
364 0 1 7.663444 12.532200 756.856018
365 0 1 8.305556 12.417570 757.614990
366 0 1 8.874503 12.266680 758.375000
367 0 1 9.103630 12.262609 759.304016
368 0 1 8.999045 12.327650 760.265015
369 0 1 8.745087 12.406799 761.187988
370 0 1 8.603826 12.418990 762.124023
371 0 1 8.420683 12.638110 763.072998
372 0 1 8.523487 12.692369 764.037964
373 0 1 8.828260 12.416510 764.945007
374 0 1 8.709599 11.867680 765.726990
375 0 1 8.457134 11.335800 766.495972
376 0 1 8.404158 10.955540 767.393005
377 0 1 8.507661 10.440720 768.260986
378 0 1 8.732971 10.309040 769.238037
379 0 1 9.104550 10.188920 770.174988
380 0 1 9.305210 9.864010 771.059998
381 0 1 9.125480 9.598370 772.009033
382 0 1 9.003920 9.222610 772.839966
383 0 1 8.785175 8.790018 773.684998
384 0 1 8.586040 8.713250 774.596985
385 0 1 8.269252 8.397202 775.450012
386 0 1 8.217608 8.149230 776.356018
387 0 1 8.065139 7.931835 777.265015
388 0 1 7.682802 7.770114 778.184021
389 0 1 7.294688 7.612771 779.117981
390 0 1 6.832200 7.623532 779.981995
391 0 1 6.445800 7.378009 780.806030
392 0 1 6.178250 7.131583 781.667969
393 0 1 5.699490 7.049276 782.539001
394 0 1 5.236380 7.044067 783.351013
395 0 1 4.776930 7.242464 784.195007
396 0 1 4.436770 7.334347 785.072998
397 0 1 3.998530 7.258439 785.934998
398 0 1 3.682780 6.980610 786.863037
399 0 1 3.519670 6.780970 787.789001
400 0 1 3.376720 6.724320 788.679993
401 0 1 3.454970 6.845320 789.645020
402 0 1 3.668300 6.838710 790.596008
403 0 1 3.586110 6.748520 791.593994
404 0 1 3.295230 6.551410 792.537964
405 0 1 3.200370 6.538950 793.507996
406 0 1 3.159940 6.675760 794.509033
407 0 1 2.936880 7.051894 795.351013
408 0 1 2.662430 7.126577 796.287964
409 0 1 2.402050 7.167307 797.234009
410 0 1 2.296560 7.072859 798.125977
411 0 1 2.336710 6.939070 799.098022
412 0 1 2.681710 7.082308 799.983032
413 0 1 2.934740 7.177098 800.922974
414 0 1 3.081130 7.120497 801.859009
415 0 1 3.289270 7.236693 802.757996
416 0 1 3.504840 7.307372 803.728027
417 0 1 3.712480 7.232845 804.742981
418 0 1 3.958980 7.074489 805.648010
419 0 1 3.879190 6.943480 806.714966
420 0 1 4.007170 6.861610 807.666992
421 0 1 4.077930 6.914030 808.619995
422 0 1 4.147840 7.099203 809.630981
423 0 1 4.450970 7.366753 810.492981
424 0 1 4.517020 7.506429 811.458008
425 0 1 4.865610 7.233507 812.328979
426 0 1 5.643360 6.960560 812.859985
427 0 1 6.159080 6.767750 813.615967
428 0 1 6.710840 6.642140 814.452026
429 0 1 6.977270 6.388030 815.341003
430 0 1 7.179206 6.078610 816.240967
431 0 1 7.750307 5.853770 817.016968
432 0 1 8.397514 5.632340 817.695007
433 0 1 8.743047 5.536680 818.572021
434 0 1 8.557292 5.492570 819.544006
435 0 1 8.395898 5.404820 820.497009
436 0 1 8.268712 5.127070 821.434021
437 0 1 8.171430 4.937770 822.417969
438 0 1 8.175627 4.516750 823.273987
439 0 1 7.858221 3.965560 823.978027
440 0 1 7.712079 3.348320 824.650024
441 0 1 7.563757 2.848980 825.494019
442 0 1 7.636272 2.348970 826.337036
443 0 1 7.909857 2.039900 827.186035
444 0 1 8.010467 1.875780 828.166992
445 0 1 8.264799 1.893140 829.098022
446 0 1 8.547223 2.105220 830.002014
447 0 1 8.714525 2.141610 830.990967
448 0 1 8.402635 2.098890 831.895020
449 0 1 7.848558 2.030890 832.682983
450 0 1 7.127995 2.205560 833.333984
451 0 1 6.526610 2.410290 834.031982
452 0 1 5.764090 2.589920 834.582031
453 0 1 4.892360 2.922330 834.851013
454 0 1 4.128700 3.445490 835.197998
455 0 1 3.384330 3.947000 835.505005
456 0 1 2.767640 4.641850 835.582031
457 0 1 2.175160 5.360440 835.485962
458 0 1 1.690270 6.126100 835.281006
459 0 1 1.339760 6.997790 835.106018
460 0 1 1.153430 7.889686 834.789978
461 0 1 1.138900 8.702115 834.153992
462 0 1 1.415650 9.419950 833.648010
463 0 1 1.877280 10.223670 833.156006
464 0 1 2.523030 10.821580 832.747009
465 0 1 2.818720 11.620910 832.323975
466 0 1 3.129230 12.340799 831.796021
467 0 1 3.470810 12.914180 831.046021
468 0 1 4.057780 13.286221 830.307007
469 0 1 4.490260 13.552179 829.521973
470 0 1 5.017400 13.615550 828.688965
471 0 1 5.238800 13.550859 827.744995
472 0 1 5.530350 13.230790 826.776001
473 0 1 5.778870 12.775270 826.016968
474 0 1 6.049050 12.296970 825.283020
475 0 1 6.402580 11.952160 824.468018
476 0 1 6.827480 11.627380 823.671997
477 0 1 7.101946 11.523870 822.747986
478 0 1 7.175033 11.589951 821.828979
479 0 1 7.400957 11.675250 820.833984
480 0 1 7.543884 11.988580 819.994995
481 0 1 7.661917 12.073650 819.031006
482 0 1 7.881907 11.923531 818.124023
483 0 1 8.144009 11.623920 817.283997
484 0 1 8.620967 11.342630 816.483032
485 0 1 8.971813 11.066180 815.588989
486 0 1 9.643500 10.963030 814.877991
487 0 1 10.177401 10.776979 814.031006
488 0 1 10.514590 10.580130 813.156982
489 0 1 10.697969 10.425060 812.141968
490 0 1 10.730550 10.297140 811.099976
491 0 1 10.681231 10.344490 810.182983
492 0 1 10.201920 10.628690 809.351990
493 0 1 9.798210 10.869360 808.500977
494 0 1 9.549620 11.009390 807.638000
495 0 1 9.383940 11.214109 806.755005
496 0 1 9.287130 11.423260 805.734985
497 0 1 9.345119 11.759960 804.778015
498 0 1 9.454310 12.149920 803.910034
499 0 1 9.723430 12.534491 803.063965
500 0 1 10.248710 12.611120 802.233032
501 0 1 10.282460 12.850491 801.287964
502 0 1 10.271049 12.962920 800.322998
503 0 1 10.278990 13.213420 799.401001
504 0 1 10.293340 13.421780 798.422974
505 0 1 10.031560 13.349410 797.447021
506 0 1 9.955950 13.444540 796.452026
507 0 1 9.854920 13.687700 795.495972
508 0 1 9.747931 14.001471 794.568970
509 0 1 9.388490 14.104490 793.742004
510 0 1 9.099730 14.390659 792.846985
511 0 1 8.467780 14.283680 792.156006
512 0 1 7.978052 14.248130 791.318970
513 0 1 7.570435 14.210260 790.450989
514 0 1 7.489725 14.296500 789.481995
515 0 1 7.711470 14.198120 788.511963
516 0 1 8.121685 14.165200 787.661987
517 0 1 8.398867 14.013440 786.757996
518 0 1 8.751958 13.750760 785.906006
519 0 1 8.893720 13.214001 785.114014
520 0 1 9.309900 12.883900 784.311035
521 0 1 9.833600 12.239730 783.890015
522 0 1 10.453680 11.816380 783.333984
523 0 1 10.834120 11.307261 782.641968
524 0 1 11.236840 10.737080 782.039978
525 0 1 11.938280 10.228510 781.518005
526 0 1 12.625660 9.857290 781.035034
527 0 1 12.991360 9.682240 780.181030
528 0 1 13.340900 9.386230 779.337036
529 0 1 13.623199 8.866016 778.608032
530 0 1 13.696760 8.298260 777.848999
531 0 1 13.627410 8.043404 776.893982
532 0 1 13.438210 7.979471 775.914001
533 0 1 13.330231 7.853567 774.953979
534 0 1 12.674129 7.722163 774.252014
535 0 1 12.082180 7.471302 773.518005
536 0 1 11.470830 7.095385 772.932007
537 0 1 10.789810 6.528580 772.580994
538 0 1 10.242460 6.154350 771.911011
539 0 1 9.655310 5.665340 771.280029
540 0 1 8.932531 5.364270 770.744995
541 0 1 8.443522 5.017540 770.005981
542 0 1 8.017759 4.649540 769.169006
543 0 1 7.819964 4.390250 768.239014
544 0 1 7.753471 4.149940 767.337036
545 0 1 7.943952 4.095080 766.389038
546 0 1 8.358991 4.137820 765.573975
547 0 1 8.468487 3.975390 764.580994
548 0 1 8.985900 3.791300 763.786011
549 0 1 9.368450 3.599700 762.960022
550 0 1 9.752540 3.272590 762.151001
551 0 1 9.969060 3.208330 761.143982
552 0 1 10.255410 3.070960 760.237000
553 0 1 10.529730 3.111150 759.317017
554 0 1 10.727240 3.238230 758.386963
555 0 1 10.937390 3.516760 757.471008
556 0 1 10.982570 3.855000 756.535034
557 0 1 11.244640 3.981440 755.617981
558 0 1 11.540370 4.366480 754.729004
559 0 1 11.865660 4.755080 753.929016
560 0 1 12.472450 5.129460 753.224976
561 0 1 13.068700 5.372690 752.513000
562 0 1 13.266260 5.498420 751.539001
563 0 1 13.340799 5.580350 750.526978
564 0 1 13.659040 5.625930 749.598022
565 0 1 13.788630 5.845240 748.693970
566 0 1 13.990789 5.990350 747.742004
567 0 1 14.031590 6.175830 746.820007
568 0 1 14.013821 6.222080 745.843018
569 0 1 13.926830 6.320160 744.884033
570 0 1 13.618060 6.567490 743.976990
571 0 1 13.070710 6.561400 743.130981
572 0 1 12.340210 6.496970 742.528992
573 0 1 11.610150 6.606430 741.929016
574 0 1 11.037530 6.605750 741.156982
575 0 1 10.307000 6.813190 740.619995
576 0 1 9.545630 7.089612 740.190002
577 0 1 8.743886 7.160222 739.739990
578 0 1 8.086259 7.112206 739.064026
579 0 1 7.293548 7.148144 738.570007
580 0 1 6.517660 7.169024 738.135010
581 0 1 5.736430 7.171206 737.536011
582 0 1 4.987500 6.885740 736.958984
583 0 1 4.632520 6.493100 736.219971
584 0 1 4.089180 6.327800 735.455017
585 0 1 3.696660 6.293260 734.551025
586 0 1 3.201880 6.316510 733.714966
587 0 1 2.662960 6.117960 732.890991
588 0 1 2.221180 6.002030 732.072021
589 0 1 2.074830 6.209810 731.153992
590 0 1 2.156560 6.694380 730.351013
591 0 1 2.411660 7.166946 729.518005
592 0 1 2.518990 7.387134 728.622986
593 0 1 2.720590 7.522974 727.679626
594 0 1 2.879280 7.319929 726.780518
595 0 1 3.215980 7.042168 725.912720
596 0 1 3.530190 6.738990 725.044067
597 0 1 4.053350 6.623650 724.250366
598 0 1 4.583180 6.967620 723.512695
599 0 1 4.847360 7.403454 722.657715
600 0 1 5.087410 7.864665 721.851929
601 0 1 4.953790 8.422010 721.092712
602 0 1 5.191570 8.768341 720.242920
603 0 1 5.436710 9.094520 719.414673
604 0 1 5.604810 9.495880 718.573975
605 0 1 5.950200 9.374360 717.669067
606 0 1 6.417630 9.357950 716.806519
607 0 1 6.961520 9.254740 716.039185
608 0 1 7.385107 9.314670 715.174500
609 0 1 7.709221 9.512380 714.251526
610 0 1 8.010151 9.822200 713.379883
611 0 1 8.466354 10.092381 712.599487
612 0 1 9.387840 10.434620 712.264282
613 0 1 10.204041 10.430861 711.826721
614 0 1 10.833490 10.270440 711.064331
615 0 1 11.406440 10.159320 710.259888
616 0 1 12.107510 9.779860 709.612122
617 0 1 12.273900 9.776850 708.690491
618 0 1 12.440630 9.820140 707.739014
619 0 1 12.793039 9.494840 706.870789
620 0 1 12.929440 9.307580 705.900391
621 0 1 13.000780 9.131560 704.967102
622 0 1 12.834260 8.863147 704.043213
623 0 1 12.964350 8.491847 703.173828
624 0 1 13.075240 8.025885 702.369690
625 0 1 13.355700 7.668281 701.559692
626 0 1 13.500320 7.416171 700.617798
627 0 1 13.554260 7.265087 699.710876
628 0 1 13.120180 7.393405 698.826294
629 0 1 12.641800 7.707244 698.008667
630 0 1 12.333750 7.842251 697.055725
631 0 1 12.006491 8.191567 696.223083
632 0 1 11.504800 8.663568 695.545166
633 0 1 11.016550 9.014080 694.837219
634 0 1 10.364380 9.246540 694.187134
635 0 1 9.565570 9.547980 693.743530
636 0 1 8.688847 9.810580 693.408569
637 0 1 7.800141 9.833430 693.130981
638 0 1 7.014455 9.992490 692.573303
639 0 1 6.416810 10.284430 691.858704
640 0 1 5.650560 10.352010 691.301025
641 0 1 4.939150 10.246090 690.624390
642 0 1 4.438730 10.001610 689.802368
643 0 1 3.974800 9.654710 689.049622
644 0 1 3.780290 9.648180 688.093872
645 0 1 3.661840 9.357610 687.157410
646 0 1 3.980320 9.390560 686.240112
647 0 1 4.317530 9.347240 685.405029
648 0 1 4.486310 9.260930 684.474426
649 0 1 4.869450 9.067940 683.553528
650 0 1 5.017730 8.875943 682.585510
651 0 1 5.125800 8.547423 681.719116
652 0 1 5.349700 8.591658 680.800781
653 0 1 5.413980 8.432642 679.875000
654 0 1 5.452170 8.135507 678.952393
655 0 1 5.462040 7.984992 677.963623
656 0 1 5.471070 8.059426 676.956482
657 0 1 5.435310 7.806859 675.969604
658 0 1 5.453980 7.624292 675.079895
659 0 1 5.304600 7.648862 674.130798
660 0 1 5.410380 7.549416 673.070679
661 0 1 5.374510 7.514742 672.151489
662 0 1 5.265750 7.252094 671.234192
663 0 1 5.473740 7.295807 670.258911
664 0 1 5.594630 7.299803 669.269226
665 0 1 5.717710 7.342143 668.325500
666 0 1 5.883120 7.210004 667.354797
667 0 1 5.852030 7.093059 666.386108
668 0 1 5.757260 6.880910 665.366821
669 0 1 5.256720 6.688400 664.593018
670 0 1 4.947810 6.515460 663.744690
671 0 1 4.582440 6.286580 662.907471
672 0 1 4.296030 5.805400 662.072632
673 0 1 4.238340 5.468540 661.194580
674 0 1 3.993010 5.026580 660.379395
675 0 1 4.135390 4.568860 659.525269
676 0 1 4.268620 4.032970 658.738770
677 0 1 4.500990 3.665620 657.865295
678 0 1 4.654750 3.644460 656.926392
679 0 1 5.017520 3.665600 656.014526
680 0 1 5.242050 3.629500 655.063171
681 0 1 5.515730 3.535780 654.104126
682 0 1 5.519840 3.209820 653.235718
683 0 1 5.779140 2.946910 652.386108
684 0 1 6.355550 2.561910 651.742004
685 0 1 6.835130 2.199260 650.966309
686 0 1 7.446414 1.886050 650.291382
687 0 1 7.981084 1.789170 649.483704
688 0 1 8.360156 1.910700 648.563416
689 0 1 8.664282 1.802960 647.624878
690 0 1 8.749596 1.711660 646.682678
691 0 1 8.861497 1.637660 645.672180
692 0 1 8.698849 1.668390 644.706909
693 0 1 8.821326 1.751570 643.784424
694 0 1 8.903300 2.280530 642.963623
695 0 1 8.785149 2.926630 642.198975
696 0 1 8.694208 3.540700 641.432373
697 0 1 8.824143 3.919200 640.566406
698 0 1 8.876428 4.255820 639.623291
699 0 1 9.145400 4.621000 638.832825
700 0 1 9.538380 4.875310 637.947754
701 0 1 9.999890 4.738350 637.132080
702 0 1 10.189180 4.484540 636.223816
703 0 1 10.353040 4.058190 635.330261
704 0 1 10.607210 3.717380 634.459717
705 0 1 10.453630 3.675130 633.503723
706 0 1 10.039440 3.292560 632.725891
707 0 1 9.711060 3.190360 631.847839
708 0 1 9.070640 3.154210 631.113342
709 0 1 8.532232 2.996720 630.310547
710 0 1 8.113476 3.007700 629.398071
711 0 1 8.186555 2.905440 628.373230
712 0 1 7.996951 3.062050 627.449158
713 0 1 7.998813 2.779700 626.585754
714 0 1 8.404832 2.339140 625.757874
715 0 1 8.821263 2.436610 624.976196
716 0 1 9.318970 2.870760 624.216736
717 0 1 9.719050 3.435280 623.568970
718 0 1 10.065450 3.652740 622.710388
719 0 1 10.341240 3.642830 621.789307
720 0 1 10.820990 3.570560 620.912964
721 0 1 10.962330 3.275310 619.944763
722 0 1 11.064640 3.357750 618.932434
723 0 1 11.184731 3.429290 618.007507
724 0 1 11.278570 3.611790 617.041382
725 0 1 11.395340 3.779430 616.137817
726 0 1 11.749730 3.994290 615.286621
727 0 1 12.057400 4.431780 614.444275
728 0 1 12.235189 4.811710 613.575195
729 0 1 12.413150 5.073700 612.666077
730 0 1 12.437759 5.127650 611.721619
731 0 1 12.581640 5.074580 610.689392
732 0 1 12.370560 5.465370 609.822876
733 0 1 12.073660 5.739500 608.949585
734 0 1 11.906420 5.890250 608.004028
735 0 1 11.837420 5.910030 607.112671
736 0 1 12.180670 6.160260 606.185486
737 0 1 12.320539 6.416290 605.254089
738 0 1 12.515480 6.480130 604.344727
739 0 1 12.732941 6.442020 603.477417
740 0 1 12.995979 6.518050 602.533325
741 0 1 13.139180 6.610460 601.552979
742 0 1 13.088380 6.447110 600.578674
743 0 1 12.759840 6.465420 599.669495
744 0 1 12.260640 6.638290 598.857910
745 0 1 11.601110 6.871570 598.193726
746 0 1 11.057159 7.097132 597.480469
747 0 1 10.749929 7.431774 596.638977
748 0 1 10.693800 7.589329 595.700317
749 0 1 10.401790 7.935771 594.802307
750 0 1 10.358840 8.172259 593.827087
751 0 1 10.336250 8.592573 592.974426
752 0 1 10.388741 8.871614 591.996399
753 0 1 10.425030 9.155730 591.090332
754 0 1 10.418110 9.244290 590.142700
755 0 1 10.529520 9.402411 589.185608
756 0 1 10.366880 9.457440 588.214417
757 0 1 10.132280 9.448990 587.172302
758 0 1 10.087680 9.453190 586.247620
759 0 1 10.103170 9.646150 585.245789
760 0 1 10.044430 9.764060 584.307617
761 0 1 9.945910 9.813050 583.377625
762 0 1 9.885190 9.917230 582.427917
763 0 1 10.240580 10.227630 581.539001
764 0 1 10.535530 10.586390 580.716309
765 0 1 10.785540 10.808950 579.836182
766 0 1 11.098610 10.711120 578.957886
767 0 1 11.364420 10.605530 578.043091
768 0 1 11.323071 10.408200 577.098022
769 0 1 11.219290 9.938370 576.237488
770 0 1 11.193010 9.265810 575.442688
771 0 1 10.923990 8.684095 574.624573
772 0 1 10.615620 8.178275 573.859497
773 0 1 10.414050 7.768151 573.013672
774 0 1 10.299050 7.488699 572.085083
775 0 1 10.221380 7.052673 571.261414
776 0 1 9.926730 6.388150 570.565308
777 0 1 9.521040 6.061130 569.737793
778 0 1 9.432090 5.542560 568.887207
779 0 1 9.426680 4.894220 568.184692
780 0 1 9.458230 4.445200 567.257507
781 0 1 9.810240 3.986410 566.513916
782 0 1 9.822701 3.403120 565.681396
783 0 1 9.873600 2.929690 564.847412
784 0 1 10.031160 2.734370 563.885620
785 0 1 10.107400 2.510810 562.981506
786 0 1 10.064350 2.502070 561.955322
787 0 1 10.019020 2.926360 561.052185
788 0 1 9.844419 3.268780 560.198425
789 0 1 9.827180 3.490660 559.213196
790 0 1 9.699870 3.735570 558.286133
791 0 1 9.577460 3.656820 557.323792
792 0 1 9.531820 3.564770 556.332581