LAMMPS data file via MDAnalysis

        1000  atoms
        1000  bonds
        1000  angles
           0  dihedrals
           0  impropers

           1  atom types
           1  bond types
           1  angle types
           0  dihedral types
           0  improper types

0.000000 16.000000 xlo xhi
0.000000 16.000000 ylo yhi
0.000000 1257.000000 zlo zhi


Masses

1 1.000000

Atoms

1 0 1 6.787600 10.703910 455.511993
2 0 1 7.027902 10.853820 456.505981
3 0 1 6.897330 10.563900 457.403015
4 0 1 6.782260 10.260050 458.291016
5 0 1 6.648310 10.333139 459.261993
6 0 1 6.483010 10.076410 460.132019
7 0 1 6.133210 9.827400 461.029999
8 0 1 5.799670 9.840190 461.921021
9 0 1 5.384130 9.426620 462.712006
10 0 1 5.205780 8.856500 463.438995
11 0 1 4.987380 8.273393 464.242981
12 0 1 4.957750 7.938613 465.195984
13 0 1 4.982700 7.665951 466.128998
14 0 1 4.943360 7.583171 467.101013
15 0 1 5.309220 7.393181 467.908020
16 0 1 5.670900 7.129202 468.799988
17 0 1 6.313590 6.745870 469.393982
18 0 1 7.000387 6.385800 470.110992
19 0 1 7.564633 6.208630 470.886993
20 0 1 7.860394 5.852090 471.764008
21 0 1 8.236342 5.509550 472.601990
22 0 1 8.333539 5.150260 473.449005
23 0 1 8.432193 4.751620 474.302002
24 0 1 8.666568 4.372110 475.122009
25 0 1 8.779822 4.479720 476.059021
26 0 1 8.458520 4.720810 476.975006
27 0 1 8.158582 4.931370 477.897003
28 0 1 7.713815 5.179990 478.677979
29 0 1 7.283250 5.521150 479.484009
30 0 1 6.964710 5.527010 480.373993
31 0 1 6.777150 5.619480 481.299011
32 0 1 6.400370 5.570050 482.244019
33 0 1 6.070340 5.687660 483.149994
34 0 1 5.899390 6.039410 484.126007
35 0 1 5.738160 6.198140 485.065979
36 0 1 5.598410 6.397820 486.014008
37 0 1 5.129990 6.535350 486.848999
38 0 1 4.847830 6.811560 487.681000
39 0 1 4.789940 7.119991 488.638000
40 0 1 4.373700 7.424747 489.427979
41 0 1 3.740310 7.551002 490.127991
42 0 1 3.373000 7.692018 490.984009
43 0 1 3.355930 7.639223 491.942993
44 0 1 3.317850 7.893085 492.872009
45 0 1 3.539810 8.133212 493.763000
46 0 1 3.463570 7.784174 494.697998
47 0 1 3.497960 7.352921 495.546997
48 0 1 3.523590 6.882690 496.369019
49 0 1 3.693750 6.457840 497.223022
50 0 1 3.494100 5.986110 498.036987
51 0 1 3.797650 5.865850 498.936005
52 0 1 4.258190 5.840940 499.820007
53 0 1 4.561460 5.823740 500.692017
54 0 1 4.640080 5.907470 501.694000
55 0 1 4.547640 6.262680 502.598999
56 0 1 4.439420 6.516160 503.528992
57 0 1 4.412280 6.641830 504.480011
58 0 1 4.284260 6.560680 505.455994
59 0 1 4.309330 6.665310 506.402008
60 0 1 4.365470 6.792550 507.420990
61 0 1 4.370220 6.521030 508.338013
62 0 1 4.713950 6.476070 509.265991
63 0 1 4.918350 6.469930 510.268005
64 0 1 5.137790 6.439440 511.200989
65 0 1 5.472590 6.313680 512.143982
66 0 1 5.762370 5.999310 513.057007
67 0 1 5.688940 5.786270 513.968994
68 0 1 5.606860 5.826280 514.968994
69 0 1 5.741910 5.925330 516.012024
70 0 1 5.867330 6.057210 516.958008
71 0 1 6.071570 5.953760 517.864990
72 0 1 6.089460 5.923810 518.851013
73 0 1 6.505650 5.955750 519.733032
74 0 1 7.119234 5.910920 520.572998
75 0 1 7.447795 5.962400 521.435974
76 0 1 7.749878 6.207680 522.292969
77 0 1 8.032551 6.475540 523.151978
78 0 1 8.454794 6.996900 523.846008
79 0 1 9.038840 7.103682 524.638000
80 0 1 9.647050 7.469984 525.314026
81 0 1 10.262450 7.667583 525.976990
82 0 1 10.952169 7.676127 526.575012
83 0 1 11.524970 7.666266 527.336975
84 0 1 12.092520 7.540991 528.187988
85 0 1 12.792770 7.364128 528.828308
86 0 1 12.964661 6.956610 529.691711
87 0 1 13.231430 6.735520 530.601501
88 0 1 13.328600 6.546930 531.645203
89 0 1 13.484119 6.305630 532.596008
90 0 1 13.412769 5.952340 533.506897
91 0 1 13.539869 5.671700 534.351685
92 0 1 13.639310 5.541520 535.332031
93 0 1 13.641640 5.172610 536.241699
94 0 1 13.482370 4.903600 537.148682
95 0 1 13.584600 4.536720 538.041199
96 0 1 13.464211 4.239830 538.936523
97 0 1 13.193020 4.118950 539.880981
98 0 1 13.023370 4.128550 540.827820
99 0 1 13.050859 4.270320 541.697388
100 0 1 12.872260 4.598130 542.633667
101 0 1 12.579269 4.963840 543.513306
102 0 1 12.230610 5.413100 544.280579
103 0 1 11.716450 5.883940 545.030823
104 0 1 11.053329 6.194500 545.672607
105 0 1 10.409140 6.624640 546.213318
106 0 1 10.055310 7.108086 546.990601
107 0 1 9.570890 7.382178 547.761292
108 0 1 8.871003 7.714839 548.501404
109 0 1 8.262661 7.930650 549.207825
110 0 1 7.756509 8.153004 549.928894
111 0 1 7.412764 8.776477 550.615723
112 0 1 7.086634 9.049610 551.471924
113 0 1 6.655260 9.504169 552.228210
114 0 1 6.230830 10.234470 552.757385
115 0 1 6.046810 10.556480 553.657288
116 0 1 5.950800 10.538710 554.584595
117 0 1 5.496510 10.471040 555.490417
118 0 1 4.801440 10.441520 556.170776
119 0 1 4.067960 10.448930 556.758789
120 0 1 3.449190 10.356900 557.524902
121 0 1 2.970380 10.229480 558.372009
122 0 1 2.567690 10.164351 559.291870
123 0 1 2.436760 10.096060 560.208801
124 0 1 2.805430 10.320590 561.102722
125 0 1 2.763810 10.496790 562.052795
126 0 1 3.201330 10.468370 562.916077
127 0 1 3.852230 10.436150 563.640686
128 0 1 4.432190 10.463150 564.389221
129 0 1 5.267710 10.227200 564.860107
130 0 1 5.934680 9.980970 565.515625
131 0 1 6.414030 9.675680 566.315125
132 0 1 6.718010 8.993936 566.993225
133 0 1 6.958630 8.338931 567.670288
134 0 1 7.207439 7.824598 568.407593
135 0 1 7.887786 7.253175 568.971802
136 0 1 8.423052 6.723820 569.618530
137 0 1 8.575414 6.221750 570.482910
138 0 1 8.672920 5.912780 571.403076
139 0 1 8.582449 5.440210 572.256714
140 0 1 8.132696 5.189020 573.033691
141 0 1 7.697515 5.182220 573.894104
142 0 1 7.271451 5.363410 574.747314
143 0 1 6.761330 5.220830 575.504822
144 0 1 6.289880 5.163670 576.413208
145 0 1 5.869500 4.985930 577.206909
146 0 1 5.492850 4.911870 578.150574
147 0 1 5.079240 4.560820 578.909973
148 0 1 4.699200 4.120170 579.642090
149 0 1 4.682270 3.802570 580.522400
150 0 1 4.560100 3.682690 581.484802
151 0 1 4.552400 3.587420 582.503479
152 0 1 4.963670 3.698230 583.432983
153 0 1 5.394210 3.601120 584.271179
154 0 1 5.709220 3.690750 585.215332
155 0 1 6.079470 3.899540 586.085205
156 0 1 6.260030 3.915030 587.034180
157 0 1 6.516800 3.607210 587.920593
158 0 1 6.765550 3.442480 588.895020
159 0 1 6.781950 3.317520 589.860474
160 0 1 6.771170 3.387370 590.782715
161 0 1 6.241590 3.488230 591.602600
162 0 1 5.761240 3.348090 592.417419
163 0 1 5.514680 3.052710 593.300476
164 0 1 5.097210 2.780920 594.187378
165 0 1 5.066090 2.598200 595.097168
166 0 1 5.124580 2.337010 595.979309
167 0 1 5.176800 2.298960 596.928772
168 0 1 5.495930 2.520700 597.793396
169 0 1 6.012650 2.812650 598.513977
170 0 1 6.365120 3.190130 599.343872
171 0 1 6.670080 3.609730 600.128418
172 0 1 7.266104 3.888740 600.883972
173 0 1 7.689677 4.376270 601.591797
174 0 1 8.012294 4.730910 602.405518
175 0 1 8.244132 5.011120 603.291870
176 0 1 8.686293 5.413680 604.069519
177 0 1 8.921016 6.026150 604.727112
178 0 1 9.024460 6.598880 605.516602
179 0 1 9.383050 7.186477 606.200073
180 0 1 9.591010 7.846799 606.854492
181 0 1 9.892241 8.568656 607.435669
182 0 1 10.135030 9.307250 607.892090
183 0 1 10.498270 10.193970 608.151184
184 0 1 10.613440 11.112600 608.358398
185 0 1 10.802040 11.948790 608.760986
186 0 1 11.048010 12.717560 609.319214
187 0 1 11.215890 13.287170 610.012573
188 0 1 11.291240 13.677870 610.887207
189 0 1 11.375860 13.943581 611.761597
190 0 1 11.324820 13.887720 612.723328
191 0 1 11.105440 14.017550 613.627625
192 0 1 10.964340 14.179850 614.502625
193 0 1 10.668970 14.259970 615.454102
194 0 1 10.247280 14.164930 616.336426
195 0 1 10.107090 13.888000 617.280884
196 0 1 10.018980 13.528629 618.142212
197 0 1 9.722360 13.117910 618.934509
198 0 1 9.498760 12.943991 619.890991
199 0 1 9.326300 12.549550 620.765503
200 0 1 8.885698 11.890841 621.357239
201 0 1 8.779319 11.009420 621.811890
202 0 1 8.501006 10.331511 622.475464
203 0 1 8.236876 9.977300 623.319336
204 0 1 7.889415 9.403610 624.039917
205 0 1 7.814789 8.836072 624.859619
206 0 1 7.846091 8.579981 625.762634
207 0 1 7.796754 8.561954 626.727966
208 0 1 7.504015 8.698982 627.685547
209 0 1 7.397326 8.801319 628.681091
210 0 1 7.015746 9.378670 629.421936
211 0 1 6.487960 9.640900 630.121704
212 0 1 6.061470 9.917630 630.921631
213 0 1 5.772810 10.335800 631.813782
214 0 1 5.424750 10.655400 632.658203
215 0 1 5.299880 10.909070 633.602661
216 0 1 5.131730 11.019820 634.535828
217 0 1 4.675470 10.948380 635.390747
218 0 1 4.339010 10.807550 636.281738
219 0 1 4.156730 10.382460 637.107849
220 0 1 4.070910 10.073160 637.961975
221 0 1 3.606840 9.914280 638.772278
222 0 1 3.207070 9.682220 639.625427
223 0 1 3.108330 9.452540 640.530212
224 0 1 3.116040 9.383090 641.459412
225 0 1 3.184790 9.365950 642.400208
226 0 1 3.263260 9.438630 643.325317
227 0 1 3.078680 9.372720 644.283997
228 0 1 2.705940 9.364400 645.199585
229 0 1 2.820340 9.277560 646.147583
230 0 1 2.856090 9.392000 647.116516
231 0 1 3.294990 9.480760 647.941284
232 0 1 3.427860 9.569490 648.866089
233 0 1 3.543130 9.466950 649.817810
234 0 1 3.727060 9.445730 650.751221
235 0 1 3.817420 9.374010 651.723328
236 0 1 4.089990 9.756010 652.536804
237 0 1 4.369920 9.944630 653.380615
238 0 1 4.823240 10.182290 654.172607
239 0 1 5.101850 10.570390 654.965271
240 0 1 5.399330 10.712009 655.893921
241 0 1 5.815710 10.440380 656.700317
242 0 1 6.342090 10.083090 657.426575
243 0 1 6.532520 9.882750 658.363708
244 0 1 6.739920 9.627170 659.265991
245 0 1 7.074582 9.406780 660.084412
246 0 1 7.645330 9.251260 660.909607
247 0 1 8.091875 9.115350 661.731506
248 0 1 8.585451 8.827053 662.487793
249 0 1 8.934627 8.585098 663.356323
250 0 1 9.337800 8.715134 664.233887
251 0 1 9.539500 9.163280 665.106506
252 0 1 9.784530 9.158240 666.051697
253 0 1 10.152370 9.323300 666.884216
254 0 1 10.279680 9.787200 667.715576
255 0 1 10.439450 10.356590 668.468201
256 0 1 10.646400 10.663589 669.378479
257 0 1 10.763250 10.592740 670.337891
258 0 1 10.913990 10.565980 671.358093
259 0 1 11.065420 10.438110 672.281006
260 0 1 11.193310 10.760320 673.171387
261 0 1 11.061240 10.688129 674.144226
262 0 1 10.794960 10.535160 675.101990
263 0 1 10.318480 10.423100 675.900024
264 0 1 10.044980 10.243660 676.809692
265 0 1 10.188250 9.913760 677.753479
266 0 1 10.278440 9.691850 678.729919
267 0 1 10.536350 9.671450 679.670105
268 0 1 10.608210 9.947080 680.600098
269 0 1 10.968940 10.379150 681.343079
270 0 1 10.992460 10.672280 682.283325
271 0 1 10.698080 11.026110 683.208679
272 0 1 10.399030 11.192440 684.078979
273 0 1 9.894950 11.200710 684.914978
274 0 1 9.617090 11.177880 685.766724
275 0 1 9.361330 11.223370 686.692688
276 0 1 9.373360 11.396350 687.613586
277 0 1 9.509000 11.733280 688.490784
278 0 1 9.587230 11.919550 689.399109
279 0 1 9.584290 11.937650 690.431519
280 0 1 9.508260 11.747890 691.361511
281 0 1 9.325800 11.379400 692.196411
282 0 1 8.942146 10.798410 692.879883
283 0 1 8.644681 9.997290 693.338013
284 0 1 8.417955 9.167480 693.867188
285 0 1 8.173840 8.451138 694.498718
286 0 1 7.998333 8.146499 695.409485
287 0 1 7.948949 7.679589 696.283020
288 0 1 8.028929 7.306252 697.205017
289 0 1 8.290199 7.190315 698.106567
290 0 1 8.612230 7.183731 698.957825
291 0 1 8.717586 7.211786 699.885803
292 0 1 8.771756 7.281300 700.787903
293 0 1 8.811861 7.269742 701.778625
294 0 1 8.782569 7.194149 702.740967
295 0 1 8.969730 7.273200 703.699402
296 0 1 8.882662 6.945440 704.532410
297 0 1 8.924618 6.566070 705.457092
298 0 1 8.886661 6.502090 706.473206
299 0 1 8.938479 6.557140 707.416321
300 0 1 9.209610 6.670550 708.360779
301 0 1 9.462500 6.964090 709.244507
302 0 1 9.875380 7.161497 710.119202
303 0 1 10.354030 6.999300 710.964905
304 0 1 10.630580 6.799480 711.826172
305 0 1 10.859631 6.779270 712.744324
306 0 1 10.718790 7.069626 713.669495
307 0 1 10.717370 6.915620 714.663330
308 0 1 10.829230 6.879790 715.653076
309 0 1 10.830120 6.810800 716.666321
310 0 1 10.681810 6.839070 717.661316
311 0 1 10.541650 7.024055 718.567810
312 0 1 10.562970 7.118185 719.561096
313 0 1 10.668450 7.230969 720.484375
314 0 1 11.044090 6.906420 721.356506
315 0 1 11.283200 6.580850 722.254700
316 0 1 11.605610 6.302780 723.092529
317 0 1 11.675280 6.163350 724.008606
318 0 1 11.574600 6.049420 725.033020
319 0 1 11.700330 6.374940 725.942200
320 0 1 11.973270 6.632450 726.835571
321 0 1 12.116720 6.848790 727.756775
322 0 1 12.471900 7.223437 728.570007
323 0 1 12.868919 7.280260 729.421997
324 0 1 13.348630 7.646023 730.218994
325 0 1 13.702930 7.740206 731.062012
326 0 1 13.853340 7.836913 732.085022
327 0 1 13.879120 7.973398 733.012024
328 0 1 13.775391 7.677948 733.947998
329 0 1 13.658421 7.493649 734.903992
330 0 1 13.638821 7.213429 735.919983
331 0 1 13.599990 6.910440 736.807007
332 0 1 13.413640 6.743490 737.739990
333 0 1 13.246130 6.377020 738.601013
334 0 1 12.866961 6.091230 739.468994
335 0 1 12.701651 5.586840 740.283020
336 0 1 12.580840 5.200690 741.124023
337 0 1 12.314130 4.939200 742.137024
338 0 1 11.774400 4.854760 742.906006
339 0 1 11.210400 4.682190 743.674011
340 0 1 10.843910 4.430490 744.585999
341 0 1 10.352150 4.090670 745.369995
342 0 1 9.978330 3.778250 746.226990
343 0 1 9.504690 4.061880 747.009033
344 0 1 9.080400 4.034410 747.893005
345 0 1 8.706559 3.720620 748.713989
346 0 1 8.309325 3.370070 749.487976
347 0 1 8.046864 3.099440 750.367981
348 0 1 8.013242 2.786610 751.265991
349 0 1 7.918811 2.151800 751.963989
350 0 1 8.036574 1.669490 752.745972
351 0 1 8.371058 1.473760 753.651978
352 0 1 8.839443 1.534330 754.443970
353 0 1 9.103520 1.819750 755.351013
354 0 1 9.278111 2.215340 756.276978
355 0 1 9.570780 2.353680 757.205994
356 0 1 9.836950 2.597720 758.062012
357 0 1 10.156610 3.285220 758.700989
358 0 1 10.343781 4.000550 759.320984
359 0 1 10.486790 4.513560 760.158020
360 0 1 10.550570 4.913080 761.036987
361 0 1 10.364840 4.935380 762.015015
362 0 1 10.024080 4.846250 762.971985
363 0 1 9.912450 4.566400 763.877991
364 0 1 10.014360 4.418370 764.858032
365 0 1 10.048810 4.322090 765.773010
366 0 1 10.031890 4.154970 766.755005
367 0 1 9.731940 4.302050 767.615967
368 0 1 9.375310 4.708540 768.443970
369 0 1 9.037860 5.248910 769.179016
370 0 1 8.625732 5.196970 770.015015
371 0 1 8.221894 5.208300 770.889038
372 0 1 8.047342 4.908900 771.731018
373 0 1 8.322557 4.734200 772.664001
374 0 1 8.475421 4.744870 773.625000
375 0 1 8.390876 4.414570 774.518982
376 0 1 8.534626 4.089970 775.400024
377 0 1 8.957207 3.892200 776.226013
378 0 1 9.257570 3.931130 777.139038
379 0 1 9.661000 4.117900 777.978027
380 0 1 10.182410 4.209320 778.734985
381 0 1 10.698299 4.416340 779.549011
382 0 1 10.943510 4.681490 780.505005
383 0 1 11.209260 4.861580 781.367004
384 0 1 11.472970 5.282280 782.212036
385 0 1 11.710279 5.596570 783.101013
386 0 1 11.879539 5.929490 783.952026
387 0 1 11.933940 5.937490 785.002991
388 0 1 12.195660 6.052940 785.890015
389 0 1 12.262990 6.174480 786.848999
390 0 1 12.185160 6.379990 787.764038
391 0 1 11.916440 6.463610 788.639038
392 0 1 11.495790 6.613420 789.494019
393 0 1 11.615260 6.830680 790.411987
394 0 1 11.634450 6.988080 791.349976
395 0 1 11.788350 7.095351 792.254028
396 0 1 12.214920 7.117532 793.098999
397 0 1 12.624900 7.269566 793.911011
398 0 1 12.989981 7.435888 794.791016
399 0 1 13.436090 7.538439 795.661987
400 0 1 13.625170 7.597594 796.636963
401 0 1 13.539320 7.311760 797.593994
402 0 1 13.317910 7.215774 798.488037
403 0 1 13.088449 7.348997 799.457031
404 0 1 12.667720 7.407319 800.265991
405 0 1 12.164169 7.246717 801.099976
406 0 1 11.829890 6.866140 801.987000
407 0 1 11.700109 6.334040 802.724976
408 0 1 11.399560 5.910910 803.596008
409 0 1 11.094100 5.683610 804.481018
410 0 1 10.947230 5.471120 805.421997
411 0 1 10.819410 5.583560 806.375000
412 0 1 10.396339 5.611470 807.207031
413 0 1 10.040950 5.692500 808.122009
414 0 1 9.910260 5.711900 809.062012
415 0 1 9.587180 5.943830 809.924988
416 0 1 9.335210 5.929180 810.844971
417 0 1 9.185410 5.815950 811.771973
418 0 1 9.017550 5.562900 812.650024
419 0 1 8.929824 5.237060 813.588013
420 0 1 8.823067 4.947990 814.473999
421 0 1 8.704621 4.560240 815.307983
422 0 1 8.250779 4.375520 816.089966
423 0 1 7.614464 4.251820 816.812012
424 0 1 7.136394 3.846440 817.582031
425 0 1 6.824760 3.709940 818.562988
426 0 1 6.438800 3.501210 819.375977
427 0 1 6.110920 3.450660 820.226013
428 0 1 5.764760 3.152370 821.065979
429 0 1 5.469520 2.763090 821.910034
430 0 1 5.456800 2.442640 822.775024
431 0 1 5.511420 1.887610 823.627991
432 0 1 5.781620 1.580770 824.489990
433 0 1 6.042520 1.697350 825.411987
434 0 1 6.171780 1.807980 826.317017
435 0 1 6.131000 1.931820 827.318970
436 0 1 6.099000 2.064930 828.306030
437 0 1 6.145220 2.020340 829.234009
438 0 1 6.246710 1.779420 830.270020
439 0 1 6.359300 1.463400 831.167969
440 0 1 6.831540 1.262580 832.072998
441 0 1 7.389874 1.366790 832.843994
442 0 1 7.862570 1.424760 833.677002
443 0 1 8.193497 1.613150 834.575012
444 0 1 8.380336 2.267290 835.353027
445 0 1 8.347523 2.983750 836.023987
446 0 1 8.178046 3.802770 836.515015
447 0 1 7.742276 4.586280 836.818970
448 0 1 7.214303 5.431140 836.945007
449 0 1 6.605310 6.156470 837.143982
450 0 1 6.280210 6.972990 837.360962
451 0 1 6.441890 7.842698 837.737000
452 0 1 6.534600 8.829388 837.759033
453 0 1 6.827960 9.544930 837.244019
454 0 1 7.004023 10.379370 836.804016
455 0 1 6.846950 11.130190 836.281982
456 0 1 6.678970 11.747470 835.570007
457 0 1 6.507870 12.394270 834.848999
458 0 1 6.276370 12.842250 834.026001
459 0 1 5.945830 13.028200 833.164978
460 0 1 5.642470 12.910049 832.244019
461 0 1 5.602840 12.616500 831.291992
462 0 1 5.403010 12.329730 830.328979
463 0 1 5.179920 12.057460 829.406006
464 0 1 5.031670 11.749260 828.559998
465 0 1 5.222780 11.290780 827.755005
466 0 1 5.435610 10.966450 826.841980
467 0 1 5.804540 10.808580 825.921997
468 0 1 6.168380 10.421250 825.156982
469 0 1 6.605580 10.194410 824.297974
470 0 1 6.873430 10.077250 823.393005
471 0 1 7.362148 9.907240 822.471985
472 0 1 8.118248 9.873090 821.786987
473 0 1 8.802377 9.316250 821.264038
474 0 1 9.235920 8.696373 820.640015
475 0 1 9.352800 8.393112 819.744019
476 0 1 9.672760 8.237312 818.835022
477 0 1 10.005150 7.908798 818.042969
478 0 1 10.361150 7.384303 817.313965
479 0 1 10.844270 7.079706 816.515991
480 0 1 10.984710 6.866870 815.526978
481 0 1 10.906760 6.393980 814.729004
482 0 1 10.915160 5.987720 813.838013
483 0 1 10.771600 5.462460 813.067993
484 0 1 10.545219 4.635340 812.572021
485 0 1 10.328060 3.957470 811.891968
486 0 1 9.961480 3.667530 810.981018
487 0 1 9.784680 3.417040 810.041992
488 0 1 9.655770 3.250890 809.130981
489 0 1 9.385100 3.334100 808.216003
490 0 1 8.836538 3.018090 807.401978
491 0 1 8.443990 2.868990 806.544983
492 0 1 7.919017 2.524480 805.872009
493 0 1 7.744755 2.516370 804.953003
494 0 1 7.466765 2.529500 804.041016
495 0 1 7.272790 2.500400 803.085999
496 0 1 7.170296 2.652460 802.117004
497 0 1 7.066200 2.613110 801.156006
498 0 1 6.865040 2.938350 800.286011
499 0 1 6.478380 3.112500 799.450989
500 0 1 6.178120 3.068730 798.557983
501 0 1 6.125620 3.191950 797.575989
502 0 1 6.087280 2.858870 796.617004
503 0 1 6.276720 2.357280 795.796997
504 0 1 6.155400 2.064150 794.893005
505 0 1 6.083260 2.085080 793.843994
506 0 1 6.139700 2.210480 792.865967
507 0 1 6.491430 2.793700 792.082031
508 0 1 7.001911 3.294180 791.421021
509 0 1 7.332897 3.897140 790.718994
510 0 1 7.986246 4.427560 790.160034
511 0 1 8.413576 5.090580 789.572021
512 0 1 8.829551 5.769600 789.031982
513 0 1 9.361750 6.283520 788.440979
514 0 1 9.991600 6.904840 787.999023
515 0 1 10.649660 7.342090 787.388000
516 0 1 11.270440 7.490924 786.630005
517 0 1 11.511050 7.628456 785.739014
518 0 1 12.024960 7.541710 784.882996
519 0 1 12.413580 7.794104 784.054016
520 0 1 12.669100 7.966349 783.106018
521 0 1 12.488050 8.242601 782.164001
522 0 1 12.309540 8.512399 781.223999
523 0 1 12.110991 8.681611 780.264038
524 0 1 11.961740 8.746076 779.322021
525 0 1 11.915950 8.689113 778.346985
526 0 1 11.596380 8.847849 777.462036
527 0 1 11.253070 9.241520 776.630981
528 0 1 10.621730 9.519190 775.973022
529 0 1 10.418660 9.651800 775.054993
530 0 1 10.429860 9.922430 774.182983
531 0 1 10.478020 10.335310 773.289978
532 0 1 10.577380 10.638969 772.360962
533 0 1 10.701080 10.866510 771.445007
534 0 1 11.032200 11.254440 770.601013
535 0 1 11.108620 11.684600 769.721985
536 0 1 11.253810 12.023010 768.846008
537 0 1 11.425030 12.193330 767.953979
538 0 1 11.740910 12.308331 767.078979
539 0 1 12.095900 12.442070 766.188965
540 0 1 12.370330 12.657129 765.271973
541 0 1 12.725580 12.530900 764.421021
542 0 1 12.697519 12.406300 763.408020
543 0 1 12.454850 12.433390 762.521973
544 0 1 12.026140 12.433650 761.526001
545 0 1 11.733459 12.476460 760.627991
546 0 1 11.803490 12.583590 759.656982
547 0 1 11.915830 12.535250 758.733032
548 0 1 12.027810 12.447180 757.818970
549 0 1 11.984070 12.603860 756.841980
550 0 1 11.626530 12.642680 755.978027
551 0 1 11.580620 12.469120 755.033020
552 0 1 11.786620 12.457359 754.025024
553 0 1 11.700000 12.328780 753.077026
554 0 1 11.608630 12.051650 752.213013
555 0 1 11.658800 11.733850 751.325989
556 0 1 11.671670 11.171920 750.487000
557 0 1 11.766050 10.496740 749.822998
558 0 1 12.028650 10.013781 749.060974
559 0 1 12.363581 9.608990 748.268005
560 0 1 12.573870 9.382140 747.403992
561 0 1 12.828890 9.194050 746.513000
562 0 1 12.756081 8.567247 745.822998
563 0 1 13.034360 7.889067 745.182007
564 0 1 13.334470 7.640621 744.320984
565 0 1 13.580320 7.507918 743.445007
566 0 1 13.899240 7.492768 742.516968
567 0 1 14.048960 7.454007 741.523987
568 0 1 13.915751 7.649866 740.572021
569 0 1 13.804190 7.994392 739.666016
570 0 1 13.752530 8.167260 738.679993
571 0 1 13.506229 8.570803 737.885986
572 0 1 13.314700 8.843630 736.911987
573 0 1 12.967850 9.207340 736.073975
574 0 1 12.700240 9.321510 735.119019
575 0 1 12.522200 9.835840 734.306030
576 0 1 12.516120 10.279100 733.495972
577 0 1 11.992350 10.461349 732.771973
578 0 1 11.432130 10.846710 732.026978
579 0 1 10.773350 11.260010 731.443970
580 0 1 10.004470 11.705009 731.028015
581 0 1 9.162090 12.010870 730.619019
582 0 1 8.251548 12.164209 730.380005
583 0 1 7.554709 12.442221 729.763977
584 0 1 7.125837 12.850630 728.947998
585 0 1 6.977900 13.227230 728.057617
586 0 1 6.733310 13.786500 727.299072
587 0 1 6.667500 14.066339 726.396484
588 0 1 6.697280 14.311780 725.500183
589 0 1 6.587550 14.252570 724.548096
590 0 1 6.209850 14.158180 723.633179
591 0 1 6.491950 14.083731 722.672607
592 0 1 6.928100 13.959200 721.819275
593 0 1 7.400219 13.848960 720.955322
594 0 1 7.789101 13.844999 720.038574
595 0 1 8.263334 13.885360 719.162231
596 0 1 8.715804 13.894250 718.382996
597 0 1 8.968401 13.592279 717.450989
598 0 1 9.010550 13.301450 716.509583
599 0 1 8.900913 12.886971 715.690613
600 0 1 8.718193 12.179820 714.957703
601 0 1 8.664299 11.541870 714.272583
602 0 1 8.738816 10.878770 713.591003
603 0 1 8.642286 10.344521 712.856384
604 0 1 8.667040 9.619150 712.235229
605 0 1 8.288052 8.772649 711.863525
606 0 1 8.030650 8.054664 711.332886
607 0 1 7.983560 7.189099 710.903931
608 0 1 8.015592 6.385910 710.446167
609 0 1 8.036737 5.716130 709.794678
610 0 1 8.093292 5.062180 709.104980
611 0 1 8.035650 4.330290 708.483826
612 0 1 8.148285 3.654250 707.859680
613 0 1 8.253124 3.012110 707.126587
614 0 1 8.416512 2.457650 706.393921
615 0 1 8.635988 1.843880 705.667419
616 0 1 8.685518 1.624180 704.762695
617 0 1 8.816552 1.569990 703.718018
618 0 1 9.214980 1.837400 702.803101
619 0 1 9.798560 1.947270 702.053406
620 0 1 10.391680 2.099370 701.287415
621 0 1 11.285070 2.206120 700.847595
622 0 1 12.049510 2.497590 700.191101
623 0 1 12.603991 2.966200 699.545105
624 0 1 13.145720 3.398780 698.938232
625 0 1 13.532270 4.023270 698.334290
626 0 1 13.805770 4.751210 697.803833
627 0 1 14.167120 5.528330 697.274170
628 0 1 14.279070 6.220910 696.621277
629 0 1 14.252660 6.693380 695.791870
630 0 1 14.251670 6.948900 694.868713
631 0 1 14.327800 7.153746 693.870789
632 0 1 14.549231 7.297465 692.920288
633 0 1 14.648170 7.622450 692.087891
634 0 1 14.524630 7.610959 691.156128
635 0 1 14.815821 7.566628 690.298279
636 0 1 14.635780 7.499683 689.324219
637 0 1 14.385850 7.381026 688.385498
638 0 1 13.936920 7.350608 687.468506
639 0 1 13.437810 7.537466 686.483887
640 0 1 13.193340 7.751659 685.589417
641 0 1 13.094170 7.896910 684.625610
642 0 1 12.739941 8.229224 683.783875
643 0 1 12.478730 8.641457 682.883789
644 0 1 12.287450 8.785202 681.954712
645 0 1 12.048670 9.293030 681.127930
646 0 1 11.771060 9.498270 680.236206
647 0 1 11.614070 9.544930 679.338623
648 0 1 11.513969 9.483740 678.425415
649 0 1 11.190690 9.200240 677.575195
650 0 1 10.897500 8.541284 676.909302
651 0 1 10.501130 7.922593 676.281006
652 0 1 10.038460 7.313112 675.754517
653 0 1 9.902850 6.891590 674.932495
654 0 1 9.842420 6.556740 674.036621
655 0 1 9.639760 6.513760 673.074524
656 0 1 9.469360 6.235660 672.142090
657 0 1 9.216150 6.127370 671.217712
658 0 1 9.106150 6.064890 670.341797
659 0 1 9.031660 6.059160 669.353271
660 0 1 8.903483 6.224520 668.385193
661 0 1 8.934147 6.525040 667.449219
662 0 1 8.980642 6.599160 666.485229
663 0 1 8.810195 6.783500 665.568909
664 0 1 8.628413 7.077766 664.661621
665 0 1 8.475036 7.178109 663.657227
666 0 1 8.048841 7.002779 662.802917
667 0 1 7.606487 6.952820 662.016785
668 0 1 7.258777 6.806500 661.072083
669 0 1 6.908480 6.739330 660.208008
670 0 1 6.687040 6.701850 659.243530
671 0 1 6.549260 6.624890 658.332092
672 0 1 6.636480 6.630150 657.387024
673 0 1 6.751580 6.670810 656.380920
674 0 1 6.780830 6.812430 655.391907
675 0 1 6.697120 7.035843 654.472778
676 0 1 6.529610 7.260991 653.481995
677 0 1 6.321060 7.203815 652.575195
678 0 1 6.335740 7.088034 651.655029
679 0 1 6.242290 6.964720 650.627686
680 0 1 6.363570 6.774970 649.639099
681 0 1 6.270540 6.445010 648.750305
682 0 1 6.339080 6.682370 647.780518
683 0 1 6.386970 6.559370 646.815491
684 0 1 6.331730 6.582570 645.782715
685 0 1 6.149440 6.764550 644.841614
686 0 1 6.052980 7.072674 643.943420
687 0 1 6.154040 7.393857 643.055298
688 0 1 6.474450 7.210579 642.198914
689 0 1 6.833000 6.943210 641.287415
690 0 1 6.879150 7.083917 640.363281
691 0 1 6.725540 6.770650 639.457703
692 0 1 6.605080 6.210600 638.689026
693 0 1 6.735790 5.783370 637.811829
694 0 1 6.656190 5.258370 637.003601
695 0 1 6.374540 4.809810 636.253662
696 0 1 6.105190 4.476720 635.428589
697 0 1 5.261630 4.626790 634.906372
698 0 1 4.433190 4.758850 634.471436
699 0 1 3.680990 5.030540 633.948364
700 0 1 3.255750 5.494300 633.177551
701 0 1 2.862450 5.829330 632.343262
702 0 1 2.595870 5.955070 631.380188
703 0 1 2.449050 6.228050 630.446655
704 0 1 2.120970 6.454360 629.450623
705 0 1 2.079720 6.442800 628.503052
706 0 1 2.023340 6.401580 627.489380
707 0 1 2.189580 6.516880 626.508606
708 0 1 1.952900 6.799290 625.592957
709 0 1 1.766890 7.435719 624.875916
710 0 1 1.530590 7.904800 624.036560
711 0 1 1.358050 8.257615 623.169678
712 0 1 1.383800 8.555333 622.246826
713 0 1 1.786900 8.876878 621.500732
714 0 1 2.464350 9.210850 620.884094
715 0 1 2.802060 9.678220 620.133850
716 0 1 2.947610 10.249570 619.397217
717 0 1 3.231040 11.013140 618.962708
718 0 1 3.646860 11.777030 618.508423
719 0 1 4.497680 12.253780 618.336426
720 0 1 5.255000 12.733470 618.087280
721 0 1 5.968640 13.321720 617.962585
722 0 1 6.611670 13.916019 617.574829
723 0 1 7.388719 14.302450 617.039429
724 0 1 8.034871 14.375600 616.344910
725 0 1 8.559260 14.355740 615.541321
726 0 1 8.784635 14.332050 614.575623
727 0 1 9.043070 13.935619 613.679016
728 0 1 8.997760 13.700300 612.776917
729 0 1 9.065180 13.298870 611.881287
730 0 1 8.899392 12.769341 611.054504
731 0 1 8.735715 12.200000 610.310974
732 0 1 8.402342 11.820920 609.500671
733 0 1 8.596892 11.444850 608.630005
734 0 1 8.824004 11.326600 607.702209
735 0 1 8.744081 11.032820 606.810913
736 0 1 8.582721 10.913900 605.916870
737 0 1 8.449577 10.463120 605.085083
738 0 1 8.603993 10.061110 604.175171
739 0 1 8.884628 9.551920 603.382385
740 0 1 8.990941 8.876465 602.718018
741 0 1 9.013420 8.148429 602.095215
742 0 1 8.879896 7.515667 601.395020
743 0 1 8.590407 7.616368 600.521606
744 0 1 8.438704 7.575774 599.563110
745 0 1 8.216861 7.761025 598.658569
746 0 1 7.819344 7.923533 597.805908
747 0 1 7.731225 8.145548 596.870789
748 0 1 7.271370 8.244386 595.989868
749 0 1 6.671170 8.324091 595.277405
750 0 1 5.832630 8.369620 594.662109
751 0 1 5.209290 8.372020 593.918701
752 0 1 4.504950 8.551254 593.350220
753 0 1 4.107730 8.884061 592.461670
754 0 1 3.988790 9.008910 591.517273
755 0 1 4.048400 9.121099 590.523621
756 0 1 4.465980 9.500031 589.655212
757 0 1 4.590870 9.553210 588.681580
758 0 1 4.700220 9.630050 587.749084
759 0 1 4.710640 9.659610 586.776672
760 0 1 4.664670 9.674191 585.795593
761 0 1 4.364620 9.558260 584.774292
762 0 1 4.000160 9.626530 583.915527
763 0 1 3.574440 9.752340 583.054321
764 0 1 3.290080 9.874370 582.144104
765 0 1 3.015690 10.068280 581.297913
766 0 1 2.749850 10.255190 580.362671
767 0 1 2.459690 10.658220 579.540771
768 0 1 2.431670 11.027390 578.615601
769 0 1 2.572390 11.413480 577.720093
770 0 1 2.838300 11.661370 576.820801
771 0 1 3.315990 11.912700 576.023926
772 0 1 3.646100 12.138850 575.161499
773 0 1 3.835530 12.037300 574.205017
774 0 1 3.764530 12.054590 573.208496
775 0 1 3.806710 12.018140 572.318787
776 0 1 3.671200 12.239100 571.437378
777 0 1 3.786210 12.553560 570.469482
778 0 1 3.847650 12.848420 569.605408
779 0 1 3.983640 13.118230 568.640808
780 0 1 4.306120 12.968480 567.702209
781 0 1 4.590890 12.712200 566.795898
782 0 1 5.023120 12.885180 566.008911
783 0 1 5.160480 12.912479 565.099487
784 0 1 5.181010 12.871180 564.132690
785 0 1 5.222620 12.887461 563.061584
786 0 1 4.967520 12.833110 562.126587
787 0 1 4.660390 12.873960 561.085999
788 0 1 4.409450 13.030550 560.159180
789 0 1 4.043940 13.118111 559.262024
790 0 1 3.826450 12.983850 558.334290