LAMMPS data file via MDAnalysis

        1000  atoms
        1000  bonds
        1000  angles
           0  dihedrals
           0  impropers

           1  atom types
           1  bond types
           1  angle types
           0  dihedral types
           0  improper types

0.000000 16.000000 xlo xhi
0.000000 16.000000 ylo yhi
0.000000 1257.000000 zlo zhi


Masses

1 1.000000

Atoms

1 0 1 8.898116 2.723710 443.973999
2 0 1 9.541600 2.626880 444.832001
3 0 1 10.166210 3.103640 445.476990
4 0 1 10.820880 3.345370 446.162994
5 0 1 11.313010 3.519740 446.962006
6 0 1 11.675470 3.848680 447.789978
7 0 1 11.675480 3.857950 448.819000
8 0 1 11.683150 3.816320 449.783020
9 0 1 11.811890 4.067130 450.661987
10 0 1 11.669370 4.467240 451.529999
11 0 1 11.441790 5.058240 452.208984
12 0 1 11.089060 5.538160 452.966003
13 0 1 10.802470 5.949010 453.817993
14 0 1 10.711050 6.486280 454.628998
15 0 1 10.336490 6.837930 455.397003
16 0 1 9.804890 7.251017 456.039978
17 0 1 9.575260 7.853856 456.739014
18 0 1 9.328060 8.478704 457.419983
19 0 1 9.045840 9.223570 457.951996
20 0 1 8.977444 9.843240 458.658997
21 0 1 9.009990 10.674640 459.247986
22 0 1 9.010130 11.404470 459.864014
23 0 1 9.245980 12.168510 460.351013
24 0 1 9.399600 12.763330 461.061005
25 0 1 9.513450 13.405371 461.791992
26 0 1 9.635860 13.779600 462.774994
27 0 1 9.497290 14.150391 463.714996
28 0 1 9.216270 13.980690 464.602997
29 0 1 9.154250 13.767250 465.481995
30 0 1 8.840967 13.567730 466.382019
31 0 1 8.741745 13.802771 467.338013
32 0 1 8.494590 13.666560 468.213989
33 0 1 8.196325 13.432910 469.125000
34 0 1 8.322146 13.142090 470.020020
35 0 1 8.438606 12.536221 470.726013
36 0 1 8.338869 11.907150 471.510986
37 0 1 8.459105 11.456750 472.325989
38 0 1 8.631625 11.079700 473.161987
39 0 1 8.726497 10.745990 474.061005
40 0 1 9.047230 10.608970 474.968018
41 0 1 9.165740 10.320960 475.867981
42 0 1 9.272110 9.959340 476.773010
43 0 1 9.463830 9.570870 477.647003
44 0 1 9.491470 9.108130 478.497986
45 0 1 9.484950 8.792705 479.440002
46 0 1 9.355380 8.563259 480.367004
47 0 1 9.310900 8.360966 481.265015
48 0 1 9.096550 8.249083 482.205994
49 0 1 8.719597 8.190422 483.075989
50 0 1 8.697251 8.373431 484.031982
51 0 1 8.924213 8.553443 484.929993
52 0 1 9.191440 8.893398 485.796021
53 0 1 9.240120 9.188530 486.746002
54 0 1 9.233710 9.433000 487.695984
55 0 1 9.020320 9.919110 488.531982
56 0 1 8.816272 10.393070 489.354980
57 0 1 8.560773 10.578960 490.341003
58 0 1 8.163062 10.825100 491.171997
59 0 1 7.842394 10.997360 492.044006
60 0 1 7.440772 11.062350 492.923004
61 0 1 7.374946 11.327100 493.924988
62 0 1 7.518056 11.523860 494.869995
63 0 1 7.919055 11.651950 495.747009
64 0 1 8.394101 11.522220 496.613007
65 0 1 8.847260 11.530290 497.514008
66 0 1 9.363360 11.542470 498.281982
67 0 1 10.011010 11.582390 498.971008
68 0 1 10.662210 11.582780 499.695007
69 0 1 11.411250 11.496660 500.354004
70 0 1 11.889250 11.423161 501.151001
71 0 1 12.359430 11.308570 501.979004
72 0 1 12.559080 11.326250 502.984009
73 0 1 12.645100 11.417350 503.942017
74 0 1 12.469470 11.466940 504.924011
75 0 1 12.273439 11.489000 505.833008
76 0 1 12.351080 11.415900 506.792999
77 0 1 12.001460 11.247470 507.725006
78 0 1 11.659730 11.220680 508.605011
79 0 1 11.438340 11.332280 509.584991
80 0 1 11.429820 11.493259 510.523987
81 0 1 11.390400 11.627131 511.502014
82 0 1 11.263620 11.721680 512.466980
83 0 1 11.065470 11.576290 513.390991
84 0 1 10.878870 11.328960 514.320984
85 0 1 10.591880 11.112810 515.138000
86 0 1 10.003531 11.101380 515.966003
87 0 1 9.649600 10.884780 516.853027
88 0 1 9.541300 10.771830 517.778992
89 0 1 9.435960 10.839730 518.742981
90 0 1 9.685350 10.867690 519.698975
91 0 1 10.055099 10.879140 520.557007
92 0 1 10.478230 10.830709 521.390015
93 0 1 10.756480 10.650100 522.288025
94 0 1 10.695720 10.663070 523.226990
95 0 1 10.821950 10.615630 524.198975
96 0 1 10.841311 10.517050 525.143982
97 0 1 10.964970 10.363060 526.077026
98 0 1 11.000690 9.995850 526.929016
99 0 1 11.325880 9.540980 527.736023
100 0 1 11.358250 9.065190 528.565674
101 0 1 11.340860 8.850600 529.541992
102 0 1 11.455160 8.412679 530.367004
103 0 1 11.395710 8.217103 531.303284
104 0 1 10.900990 7.972472 532.127319
105 0 1 10.862650 7.429338 532.955078
106 0 1 10.709590 6.942900 533.786804
107 0 1 10.609300 6.404670 534.536316
108 0 1 10.646800 5.960790 535.374084
109 0 1 10.502131 5.625540 536.281982
110 0 1 10.618250 5.308250 537.217773
111 0 1 10.777540 4.854910 538.090576
112 0 1 10.912440 4.447220 538.937195
113 0 1 10.862540 4.063940 539.818298
114 0 1 10.822210 3.671200 540.690186
115 0 1 10.648640 3.444400 541.601074
116 0 1 10.528970 3.353280 542.573120
117 0 1 10.352660 3.084450 543.454834
118 0 1 10.379520 3.038890 544.427185
119 0 1 10.036230 3.305860 545.329834
120 0 1 9.841810 3.688060 546.140808
121 0 1 10.180850 4.244130 546.841125
122 0 1 10.620040 4.806520 547.518066
123 0 1 10.830730 5.437090 548.259583
124 0 1 10.952350 6.106990 548.940308
125 0 1 11.210979 6.780790 549.546875
126 0 1 11.671680 7.373301 550.178711
127 0 1 11.998850 7.952200 550.906677
128 0 1 12.172410 8.411825 551.732300
129 0 1 12.264380 8.587076 552.704834
130 0 1 12.013861 8.888770 553.595581
131 0 1 11.708509 9.114170 554.508606
132 0 1 11.514840 9.076210 555.450073
133 0 1 11.240020 9.120290 556.391113
134 0 1 11.028580 9.424829 557.253174
135 0 1 10.845160 10.026340 557.999817
136 0 1 10.389100 10.547091 558.702026
137 0 1 10.176360 11.051229 559.522888
138 0 1 10.079150 11.280350 560.474915
139 0 1 9.709290 11.356200 561.437622
140 0 1 9.446430 11.402020 562.344421
141 0 1 9.523840 11.736950 563.200012
142 0 1 9.362290 11.981190 564.071899
143 0 1 9.377570 12.441760 564.849182
144 0 1 9.463690 12.722900 565.761292
145 0 1 9.619320 12.744670 566.694519
146 0 1 9.824750 12.865749 567.602905
147 0 1 10.048540 13.174210 568.448303
148 0 1 10.124290 13.440250 569.399170
149 0 1 10.127430 13.401770 570.366699
150 0 1 10.220770 13.639980 571.264404
151 0 1 10.394580 13.489990 572.149109
152 0 1 10.414670 13.381830 573.120972
153 0 1 10.202400 12.929440 573.978210
154 0 1 10.083410 12.442471 574.789795
155 0 1 9.694890 12.471840 575.736511
156 0 1 9.172770 12.356310 576.672119
157 0 1 8.603364 12.233900 577.457092
158 0 1 8.203211 12.273180 578.337219
159 0 1 7.837294 12.162510 579.247070
160 0 1 7.458422 11.921860 580.109985
161 0 1 7.058594 11.604650 580.895508
162 0 1 6.626260 11.189480 581.665710
163 0 1 6.359920 10.803070 582.463379
164 0 1 6.130730 10.417910 583.312683
165 0 1 5.882320 10.336309 584.268677
166 0 1 5.734250 10.110640 585.227417
167 0 1 5.851650 10.166630 586.154175
168 0 1 5.993460 10.355920 587.115173
169 0 1 6.141740 10.413070 588.041870
170 0 1 6.418960 10.493920 589.002930
171 0 1 6.385680 10.492670 589.955994
172 0 1 6.278390 10.501600 590.911377
173 0 1 6.230930 10.529860 591.878174
174 0 1 6.381550 10.500150 592.821899
175 0 1 6.636130 10.331270 593.841003
176 0 1 6.967830 9.858140 594.621582
177 0 1 7.287915 9.347610 595.405884
178 0 1 7.360656 8.615303 596.033875
179 0 1 7.669546 8.010612 596.619507
180 0 1 7.886893 7.789671 597.499573
181 0 1 8.158724 7.585001 598.419495
182 0 1 8.578617 7.638452 599.304993
183 0 1 8.922172 7.495770 600.159180
184 0 1 9.469830 7.335815 600.946899
185 0 1 10.066460 7.619126 601.584717
186 0 1 10.789670 7.849335 602.286499
187 0 1 11.205840 7.979652 603.150513
188 0 1 11.854120 8.083189 603.771423
189 0 1 12.345660 8.372786 604.525391
190 0 1 12.542910 8.466247 605.489014
191 0 1 12.629150 8.673083 606.397827
192 0 1 12.585640 9.233450 607.219116
193 0 1 12.600420 9.596050 608.179993
194 0 1 12.221760 9.563820 609.038208
195 0 1 11.696330 9.380720 609.855469
196 0 1 11.277110 9.344810 610.668518
197 0 1 11.357150 9.176260 611.648682
198 0 1 11.538040 8.874641 612.602295
199 0 1 11.628531 8.471036 613.481384
200 0 1 11.764709 8.171666 614.463196
201 0 1 11.946690 7.632124 615.210083
202 0 1 12.276740 7.460200 616.073120
203 0 1 12.767740 7.213990 616.892395
204 0 1 13.218599 7.209488 617.700806
205 0 1 13.364300 7.462052 618.657104
206 0 1 13.524110 7.638000 619.570862
207 0 1 13.647730 7.708641 620.547241
208 0 1 13.402250 7.823948 621.508545
209 0 1 13.169920 7.833600 622.446655
210 0 1 12.863960 7.836541 623.380859
211 0 1 12.423130 7.610551 624.218628
212 0 1 11.959930 7.517475 625.083862
213 0 1 11.858070 7.280417 626.035767
214 0 1 11.579890 6.816160 626.886963
215 0 1 11.376170 6.355950 627.702820
216 0 1 11.220750 6.293830 628.658386
217 0 1 11.336639 6.421820 629.574463
218 0 1 11.454060 6.829240 630.416809
219 0 1 11.476320 7.403037 631.251892
220 0 1 11.246990 7.835962 632.060669
221 0 1 10.896980 8.208730 632.909302
222 0 1 10.734270 8.791250 633.634155
223 0 1 10.400530 9.000450 634.479614
224 0 1 10.185570 9.343600 635.371033
225 0 1 10.043000 9.567820 636.321350
226 0 1 9.768240 9.824700 637.205933
227 0 1 9.450740 9.958450 638.124084
228 0 1 9.238420 10.210840 639.033508
229 0 1 9.148970 10.272650 640.036011
230 0 1 9.096340 10.307961 640.973877
231 0 1 9.357000 10.121910 641.889771
232 0 1 9.583230 10.080000 642.791626
233 0 1 9.814100 10.315410 643.676514
234 0 1 10.168800 10.357780 644.596191
235 0 1 10.512740 10.190890 645.495789
236 0 1 10.707040 10.037670 646.492920
237 0 1 10.768340 9.683680 647.353882
238 0 1 10.938510 9.342510 648.239624
239 0 1 11.205040 8.995185 649.110229
240 0 1 11.376630 8.698890 650.087219
241 0 1 11.546840 8.675823 651.035278
242 0 1 12.054350 8.672403 651.815430
243 0 1 12.587530 8.638483 652.679504
244 0 1 12.754850 8.545092 653.630005
245 0 1 12.602600 8.494905 654.578308
246 0 1 12.500410 8.501734 655.561218
247 0 1 12.359730 8.781701 656.447693
248 0 1 12.103390 9.012640 657.333923
249 0 1 11.801540 9.331960 658.130127
250 0 1 11.393040 9.706760 658.953674
251 0 1 11.239580 9.883020 659.976196
252 0 1 11.043360 9.955300 660.939331
253 0 1 10.817210 9.663630 661.781372
254 0 1 10.293640 9.297810 662.497192
255 0 1 9.729140 8.734939 663.150391
256 0 1 9.259120 8.218147 663.757324
257 0 1 9.162390 7.710929 664.517578
258 0 1 8.771401 7.369903 665.315430
259 0 1 8.191688 7.169384 666.037720
260 0 1 7.704840 6.585090 666.690613
261 0 1 7.252872 6.003720 667.270630
262 0 1 6.934600 5.252790 667.867126
263 0 1 6.551890 4.752710 668.782410
264 0 1 6.479980 4.257750 669.628174
265 0 1 6.310860 3.800650 670.510498
266 0 1 6.351150 3.423800 671.436890
267 0 1 6.308350 2.864560 672.172791
268 0 1 6.044840 2.424180 673.025024
269 0 1 5.725930 2.236480 673.948303
270 0 1 5.841090 2.155760 674.884827
271 0 1 5.992000 2.171200 675.789185
272 0 1 6.227090 2.397230 676.694275
273 0 1 6.609100 2.478530 677.547607
274 0 1 6.834270 2.682880 678.417725
275 0 1 7.067951 2.676380 679.349182
276 0 1 7.411280 2.604450 680.234497
277 0 1 7.958545 2.565140 681.015991
278 0 1 8.551796 2.752590 681.773315
279 0 1 8.927521 3.240190 682.500793
280 0 1 9.210500 3.506920 683.346680
281 0 1 9.359560 3.766920 684.289917
282 0 1 9.458179 4.178660 685.185303
283 0 1 9.392500 4.854090 685.903076
284 0 1 9.137140 5.505470 686.549072
285 0 1 8.989113 6.182590 687.229004
286 0 1 8.829619 6.958410 687.763000
287 0 1 8.506423 7.795702 688.125305
288 0 1 7.706580 8.263271 688.309204
289 0 1 6.885570 8.390795 688.777405
290 0 1 6.248400 8.544899 689.442017
291 0 1 5.409880 8.360191 689.955872
292 0 1 4.789490 7.953161 690.571289
293 0 1 4.198240 7.844795 691.426575
294 0 1 3.390080 7.721006 692.023682
295 0 1 2.756300 7.649588 692.749390
296 0 1 2.168040 7.516123 693.480286
297 0 1 1.620170 7.583827 694.210815
298 0 1 1.398970 7.703315 695.148926
299 0 1 1.355100 7.786921 696.097717
300 0 1 1.537370 7.556091 697.001099
301 0 1 1.731660 7.463320 697.925598
302 0 1 1.896440 7.191835 698.832581
303 0 1 2.053580 7.100671 699.743530
304 0 1 2.115400 7.210249 700.714233
305 0 1 2.464820 7.088368 701.583618
306 0 1 2.665700 6.912790 702.570190
307 0 1 2.996060 6.708750 703.452393
308 0 1 3.021480 6.824450 704.464111
309 0 1 2.915660 6.903460 705.388977
310 0 1 2.932190 6.743370 706.321594
311 0 1 2.771830 6.707770 707.296204
312 0 1 2.322360 6.497300 708.154114
313 0 1 2.066020 6.157720 709.098022
314 0 1 1.813730 6.236530 710.049072
315 0 1 2.019590 6.182310 710.967896
316 0 1 2.325620 6.064280 711.863586
317 0 1 2.896670 5.993990 712.579407
318 0 1 3.340400 5.953380 713.429382
319 0 1 3.603050 6.064860 714.377625
320 0 1 4.117680 6.083580 715.180481
321 0 1 4.465730 6.009120 716.122314
322 0 1 5.158090 5.890530 716.784607
323 0 1 5.521000 5.941880 717.687317
324 0 1 6.020270 5.701530 718.456177
325 0 1 6.322860 5.078030 719.081482
326 0 1 6.460220 4.427910 719.798218
327 0 1 6.681290 3.971070 720.611816
328 0 1 6.789430 3.404080 721.374634
329 0 1 6.926870 2.941130 722.156921
330 0 1 6.985980 2.526930 723.027832
331 0 1 6.935780 2.373280 723.966980
332 0 1 6.804140 2.189100 724.900574
333 0 1 6.896330 2.224750 725.895874
334 0 1 6.911030 2.296180 726.836182
335 0 1 6.826270 2.314070 727.757690
336 0 1 6.715500 2.300740 728.728027
337 0 1 6.478950 2.105480 729.667969
338 0 1 6.177020 2.005140 730.572998
339 0 1 6.151130 1.764250 731.468994
340 0 1 6.058310 1.665480 732.424011
341 0 1 5.982420 2.003350 733.307007
342 0 1 6.057380 2.591830 734.135986
343 0 1 6.128870 3.196370 734.885986
344 0 1 6.268200 3.777410 735.707031
345 0 1 6.325450 4.363850 736.500977
346 0 1 6.490030 4.622620 737.387024
347 0 1 6.957000 4.632340 738.250977
348 0 1 7.483957 4.540800 739.044006
349 0 1 7.716622 4.896290 739.903992
350 0 1 7.684769 5.132290 740.801025
351 0 1 7.673335 5.437780 741.752014
352 0 1 7.823029 5.627830 742.660034
353 0 1 7.816983 5.401170 743.583984
354 0 1 7.585086 5.042730 744.437012
355 0 1 7.568602 4.613690 745.315979
356 0 1 7.402625 4.166530 746.169983
357 0 1 7.109284 3.822110 747.041016
358 0 1 6.933580 3.459790 747.924011
359 0 1 6.874690 3.145730 748.869995
360 0 1 7.028512 3.173260 749.820984
361 0 1 6.833350 3.361690 750.713989
362 0 1 6.600900 3.337350 751.697998
363 0 1 6.326840 3.460370 752.582031
364 0 1 6.074040 3.403700 753.495972
365 0 1 5.781890 3.398700 754.408020
366 0 1 5.448990 3.535670 755.200012
367 0 1 5.263540 3.509410 756.192993
368 0 1 5.129500 3.794640 757.104980
369 0 1 5.074330 3.770020 758.077026
370 0 1 5.247450 3.423290 758.893005
371 0 1 5.493070 3.138470 759.733032
372 0 1 5.829640 3.000810 760.716980
373 0 1 6.034040 2.838270 761.682983
374 0 1 6.367240 3.102590 762.556030
375 0 1 6.561290 3.335740 763.453003
376 0 1 6.533600 3.360080 764.445007
377 0 1 6.796910 3.316470 765.354980
378 0 1 6.575620 3.550710 766.309998
379 0 1 6.596520 4.041210 767.140015
380 0 1 6.520430 4.637030 767.895020
381 0 1 6.442870 5.408690 768.502991
382 0 1 6.291630 6.028250 769.179993
383 0 1 6.320110 6.737560 769.903992
384 0 1 6.148750 7.441489 770.634033
385 0 1 6.071880 8.079168 771.307007
386 0 1 5.908750 8.797293 771.957031
387 0 1 5.958030 9.062330 772.838013
388 0 1 5.710250 9.301320 773.799988
389 0 1 5.436810 9.540440 774.690002
390 0 1 5.139270 9.762420 775.572021
391 0 1 5.094530 9.874110 776.507019
392 0 1 4.802860 9.751190 777.421021
393 0 1 4.318540 9.773700 778.235962
394 0 1 4.068190 9.585690 779.101013
395 0 1 3.864560 9.457660 780.039978
396 0 1 3.891340 9.624260 781.000000
397 0 1 3.983880 9.940950 781.942017
398 0 1 4.171330 10.283270 782.835022
399 0 1 4.151270 10.470800 783.811035
400 0 1 4.195430 10.682859 784.773010
401 0 1 4.441450 10.885910 785.703979
402 0 1 4.783450 10.817240 786.596985
403 0 1 4.798010 10.825290 787.567017
404 0 1 4.858020 10.909200 788.568970
405 0 1 5.050650 11.108850 789.476013
406 0 1 5.405910 11.508320 790.181030
407 0 1 5.851680 11.204050 791.103027
408 0 1 6.492370 10.742090 791.752991
409 0 1 7.086670 10.237100 792.377014
410 0 1 7.551792 10.030290 793.200989
411 0 1 7.993816 9.782580 794.010010
412 0 1 8.679065 9.633660 794.692017
413 0 1 9.297280 9.588240 795.432983
414 0 1 9.670900 9.338390 796.341980
415 0 1 9.937670 9.266860 797.333008
416 0 1 10.162380 9.343440 798.239990
417 0 1 10.229310 9.004130 799.119019
418 0 1 10.132000 8.498893 799.882996
419 0 1 10.193740 7.788196 800.598022
420 0 1 10.350690 7.116526 801.292969
421 0 1 10.386780 6.479000 802.093018
422 0 1 10.586740 5.928570 802.934998
423 0 1 10.934740 5.476180 803.690002
424 0 1 11.178910 5.104760 804.541016
425 0 1 11.122770 4.863900 805.414978
426 0 1 10.942420 4.548420 806.367004
427 0 1 10.748350 4.525400 807.304993
428 0 1 10.313231 4.569950 808.207031
429 0 1 9.811850 4.464750 809.134033
430 0 1 9.480980 4.393460 809.963989
431 0 1 9.026690 4.423350 810.778015
432 0 1 8.509470 4.478860 811.536987
433 0 1 7.906961 4.307490 812.289978
434 0 1 7.580753 4.169120 813.208008
435 0 1 7.326931 4.112910 814.135986
436 0 1 7.015869 3.892320 815.049988
437 0 1 6.613210 4.274170 815.891968
438 0 1 6.265760 4.490810 816.703979
439 0 1 5.959040 4.774150 817.552002
440 0 1 5.440730 5.004500 818.398987
441 0 1 4.990330 5.322680 819.226990
442 0 1 4.739580 5.688470 820.088989
443 0 1 4.563710 5.692550 821.018982
444 0 1 4.337250 5.674940 821.929993
445 0 1 4.223550 5.780750 822.945007
446 0 1 4.244200 5.694740 823.893982
447 0 1 4.192240 5.616640 824.849976
448 0 1 4.104480 5.282410 825.760010
449 0 1 3.805170 5.035080 826.603027
450 0 1 3.690900 4.871380 827.510010
451 0 1 3.676930 4.964240 828.442993
452 0 1 3.737640 4.967360 829.390015
453 0 1 3.625760 5.092980 830.302002
454 0 1 3.625790 5.315710 831.205994
455 0 1 3.689670 5.573980 832.148010
456 0 1 3.464890 5.636470 833.042969
457 0 1 3.497530 5.783450 834.004028
458 0 1 3.559790 6.145850 834.864990
459 0 1 3.488100 6.441030 835.734009
460 0 1 3.410970 6.561770 836.681030
461 0 1 3.388710 6.554030 837.650024
462 0 1 3.518490 6.781330 838.585999
463 0 1 3.913810 7.254747 839.354980
464 0 1 4.412670 7.687687 840.044006
465 0 1 4.991700 8.127493 840.667969
466 0 1 5.658080 8.801207 840.882019
467 0 1 6.446540 9.430940 840.893005
468 0 1 6.965180 10.274910 840.828003
469 0 1 7.514290 10.996240 840.495972
470 0 1 8.120033 11.619490 840.065002
471 0 1 8.360631 12.407310 839.535034
472 0 1 8.607428 13.025840 838.832031
473 0 1 8.855950 13.443260 837.979004
474 0 1 8.681242 13.557540 837.049011
475 0 1 8.447334 14.010970 836.205994
476 0 1 8.432851 14.373650 835.332031
477 0 1 8.572158 14.233580 834.406982
478 0 1 8.990219 14.298380 833.549988
479 0 1 9.319190 14.154690 832.640015
480 0 1 9.739450 13.745050 831.945007
481 0 1 9.901340 12.989260 831.410034
482 0 1 9.827830 12.523149 830.563965
483 0 1 9.419930 12.247180 829.807007
484 0 1 9.010100 12.064310 828.942017
485 0 1 8.608349 11.773960 828.138000
486 0 1 8.367127 11.363650 827.260010
487 0 1 8.117613 11.094270 826.421997
488 0 1 7.757061 10.949280 825.523010
489 0 1 7.442306 10.671130 824.653015
490 0 1 7.022758 10.345530 823.875977
491 0 1 6.683190 10.229940 822.963013
492 0 1 6.295450 9.894160 822.101990
493 0 1 6.098390 9.493999 821.198975
494 0 1 5.790010 9.232830 820.315979
495 0 1 5.429580 9.245930 819.408020
496 0 1 5.387950 9.214900 818.440002
497 0 1 5.209650 9.374380 817.523010
498 0 1 5.215040 9.468770 816.559021
499 0 1 5.051420 9.349850 815.541016
500 0 1 5.196770 9.139490 814.587036
501 0 1 5.015020 8.889185 813.677979
502 0 1 5.011220 8.747057 812.796997
503 0 1 4.981480 8.782716 811.895996
504 0 1 4.795800 8.643163 810.983032
505 0 1 5.039390 8.647843 810.067993
506 0 1 5.161910 8.570028 809.072998
507 0 1 5.442920 8.450242 808.166992
508 0 1 5.560230 8.516337 807.213989
509 0 1 5.506390 8.595712 806.210022
510 0 1 5.584740 8.775175 805.216980
511 0 1 6.098340 8.835025 804.401001
512 0 1 6.640700 9.015079 803.617981
513 0 1 7.163064 9.048650 802.846985
514 0 1 7.696626 9.166340 801.992981
515 0 1 8.104186 9.071220 801.020020
516 0 1 8.482470 9.323360 800.171997
517 0 1 8.502089 9.671790 799.268982
518 0 1 8.467850 9.614970 798.255005
519 0 1 8.686266 9.419730 797.364990
520 0 1 8.369755 9.727230 796.533020
521 0 1 7.775641 10.182690 795.856995
522 0 1 7.305047 10.439430 795.075012
523 0 1 6.708810 10.554560 794.369995
524 0 1 6.147200 10.628890 793.588989
525 0 1 5.430160 10.670110 792.823975
526 0 1 4.669310 10.500420 792.286987
527 0 1 4.129150 10.247320 791.536011
528 0 1 3.515180 9.637920 790.963013
529 0 1 3.332880 8.861546 790.291016
530 0 1 3.248180 8.249121 789.489990
531 0 1 2.998690 7.913654 788.686035
532 0 1 2.900130 7.649945 787.742981
533 0 1 3.332020 7.359355 786.906006
534 0 1 3.937860 7.299582 786.140015
535 0 1 4.418200 7.055659 785.338013
536 0 1 4.931360 7.070893 784.561035
537 0 1 5.305820 7.039791 783.676025
538 0 1 5.801650 6.927820 782.835999
539 0 1 6.217970 7.110577 782.020020
540 0 1 6.404380 7.383798 781.166992
541 0 1 6.894140 7.717851 780.354980
542 0 1 7.272076 7.831095 779.474976
543 0 1 7.780893 7.651104 778.658020
544 0 1 8.127047 7.382826 777.781006
545 0 1 8.558997 7.069838 776.992004
546 0 1 9.056000 6.450160 776.414978
547 0 1 9.582020 5.962460 775.796021
548 0 1 10.133490 5.472360 775.132996
549 0 1 10.462709 4.854920 774.479980
550 0 1 10.908390 4.182140 773.938965
551 0 1 11.292350 3.632850 773.169006
552 0 1 11.422200 3.482990 772.255005
553 0 1 11.329320 3.312910 771.291016
554 0 1 11.513850 3.308890 770.351990
555 0 1 11.750520 3.268580 769.408020
556 0 1 11.885139 3.371330 768.471985
557 0 1 12.014500 3.365460 767.526001
558 0 1 12.165850 3.561510 766.591980
559 0 1 12.347139 3.717140 765.718018
560 0 1 12.385651 3.662410 764.766968
561 0 1 12.632259 3.801500 763.849976
562 0 1 12.454180 4.124400 762.898010
563 0 1 12.126030 4.422220 762.078003
564 0 1 11.767600 4.707970 761.252014
565 0 1 11.324590 4.983700 760.481018
566 0 1 10.873390 5.377340 759.708008
567 0 1 10.558050 5.566400 758.815979
568 0 1 10.123070 6.001180 758.140991
569 0 1 9.650130 6.457800 757.408020
570 0 1 9.393120 6.779770 756.505005
571 0 1 9.369061 6.963010 755.557983
572 0 1 9.298870 6.977620 754.507996
573 0 1 9.177450 6.855040 753.536011
574 0 1 8.947202 6.930700 752.531982
575 0 1 8.673172 6.750260 751.729004
576 0 1 8.364111 6.946640 750.773987
577 0 1 8.161927 6.748520 749.888977
578 0 1 7.581743 6.878800 749.103027
579 0 1 7.058696 6.826040 748.278992
580 0 1 6.605050 6.738940 747.479980
581 0 1 6.426050 6.757670 746.500977
582 0 1 6.521000 7.214087 745.591980
583 0 1 6.391030 7.757297 744.810974
584 0 1 6.188180 8.262304 744.067993
585 0 1 6.311360 8.858818 743.344971
586 0 1 6.513410 9.552580 742.632996
587 0 1 6.725540 10.204570 741.979980
588 0 1 7.217152 10.631969 741.294006
589 0 1 7.682111 11.004000 740.520020
590 0 1 8.207185 10.803890 739.768005
591 0 1 8.661322 11.013930 738.937988
592 0 1 9.041410 11.270560 738.031982
593 0 1 9.358570 11.417770 737.122986
594 0 1 9.612900 11.573930 736.190979
595 0 1 9.942270 11.492670 735.254028
596 0 1 10.056410 11.358370 734.270996
597 0 1 10.230220 11.080770 733.328979
598 0 1 10.333870 10.564631 732.489990
599 0 1 10.303740 10.031200 731.677002
600 0 1 10.000810 9.588320 730.869995
601 0 1 9.843160 9.349520 729.924988
602 0 1 10.055130 9.178690 728.935974
603 0 1 10.137660 8.932993 728.023621
604 0 1 10.254030 8.642366 727.090698
605 0 1 10.248830 8.582616 726.139709
606 0 1 10.323410 8.418894 725.147522
607 0 1 10.495430 8.542053 724.223267
608 0 1 10.562860 8.910853 723.404114
609 0 1 10.400280 9.531650 722.723206
610 0 1 9.993460 10.204820 722.091003
611 0 1 9.662280 10.674440 721.302979
612 0 1 9.501150 11.399060 720.659424
613 0 1 9.379410 12.054871 719.994995
614 0 1 9.270170 12.721080 719.277710
615 0 1 9.468230 13.074770 718.359192
616 0 1 9.831870 13.194860 717.496704
617 0 1 10.182690 13.250210 716.566406
618 0 1 10.257140 12.970210 715.709778
619 0 1 10.261120 13.001480 714.748108
620 0 1 10.371130 13.220360 713.801208
621 0 1 10.394250 13.340460 712.798218
622 0 1 10.385611 13.318100 711.844788
623 0 1 10.268370 13.347401 710.902100
624 0 1 10.208340 13.302240 709.919800
625 0 1 10.043570 12.964820 709.075073
626 0 1 10.011830 12.599370 708.184509
627 0 1 10.015270 12.126630 707.323608
628 0 1 10.136280 11.565969 706.542786
629 0 1 10.483820 10.920919 705.915222
630 0 1 10.564320 10.229580 705.259705
631 0 1 10.421329 9.613770 704.559875
632 0 1 10.099730 9.238780 703.688721
633 0 1 9.960110 9.174380 702.738770
634 0 1 9.872470 9.029010 701.766907
635 0 1 9.746250 8.957923 700.841187
636 0 1 9.657240 8.959550 699.830933
637 0 1 9.409980 8.960003 698.866699
638 0 1 9.309600 8.823912 697.878906
639 0 1 9.091311 8.980495 696.986877
640 0 1 8.926486 9.019230 696.059814
641 0 1 8.698804 9.065701 695.139771
642 0 1 8.645740 9.047210 694.174316
643 0 1 8.545039 9.094970 693.188293
644 0 1 8.506259 9.064650 692.235474
645 0 1 8.330805 8.969172 691.205688
646 0 1 8.216716 8.885789 690.314087
647 0 1 7.890919 9.301520 689.497070
648 0 1 7.612580 9.437080 688.567017
649 0 1 7.467987 9.886500 687.776001
650 0 1 7.551516 10.289890 686.875183
651 0 1 7.832504 10.472691 685.996887
652 0 1 8.192087 10.724540 685.062988
653 0 1 8.428748 10.978820 684.169312
654 0 1 8.536872 11.160690 683.180176
655 0 1 8.231642 11.105790 682.228271
656 0 1 8.218854 11.089500 681.257324
657 0 1 8.342930 11.043080 680.292603
658 0 1 8.262301 10.712310 679.437622
659 0 1 7.922723 10.480430 678.544922
660 0 1 7.451190 10.191250 677.721985
661 0 1 7.017352 10.006840 676.899780
662 0 1 6.702360 9.785380 676.036072
663 0 1 6.482090 9.572040 675.180420
664 0 1 6.291620 9.729190 674.226318
665 0 1 6.412800 10.155790 673.291016
666 0 1 6.515510 10.533290 672.370483
667 0 1 6.811440 10.787690 671.462585
668 0 1 7.214690 10.849220 670.655701
669 0 1 7.820539 10.568790 669.925598
670 0 1 8.353983 10.643909 669.136719
671 0 1 8.633387 10.718160 668.180298
672 0 1 8.993007 10.680750 667.346985
673 0 1 9.334949 11.004120 666.457886
674 0 1 9.441080 11.225050 665.481323
675 0 1 9.374530 11.636630 664.533020
676 0 1 9.561700 11.787320 663.624512
677 0 1 9.656960 12.178050 662.795410
678 0 1 9.745630 12.395570 661.837097
679 0 1 9.952760 12.662849 660.898010
680 0 1 10.121610 12.778820 659.941528
681 0 1 10.481470 12.836531 659.057922
682 0 1 10.872530 12.769470 658.203003
683 0 1 11.192530 12.544661 657.312683
684 0 1 11.327230 12.299670 656.394287
685 0 1 11.674730 12.169291 655.445190
686 0 1 11.893390 12.093620 654.529785
687 0 1 11.845110 12.060329 653.605286
688 0 1 11.477050 11.884430 652.725525
689 0 1 11.042891 11.923670 651.884216
690 0 1 10.656330 11.909440 650.975220
691 0 1 10.260780 11.788370 650.139709
692 0 1 10.073830 11.620501 649.229614
693 0 1 9.943501 11.563390 648.321472
694 0 1 9.807990 11.624130 647.395996
695 0 1 9.632540 11.845290 646.482788
696 0 1 9.544090 12.130011 645.521301
697 0 1 9.426720 12.345160 644.484802
698 0 1 9.132080 12.689150 643.638428
699 0 1 8.793955 13.040720 642.801086
700 0 1 8.617305 13.385850 641.860779
701 0 1 8.642994 13.591700 640.884094
702 0 1 8.507144 13.348220 639.955688
703 0 1 8.432623 13.093901 639.023621
704 0 1 8.568799 12.824640 638.140076
705 0 1 8.800903 12.583361 637.335754
706 0 1 9.113510 12.197969 636.457581
707 0 1 9.309660 11.744490 635.632629
708 0 1 9.348420 11.387930 634.716248
709 0 1 9.546650 10.969210 633.881226
710 0 1 9.738180 10.373650 633.194214
711 0 1 9.638460 9.912290 632.393494
712 0 1 9.685610 9.436410 631.542480
713 0 1 9.775690 9.079690 630.640930
714 0 1 9.734100 8.704357 629.775574
715 0 1 9.728030 8.364443 628.770752
716 0 1 9.716350 7.984300 627.908813
717 0 1 9.852190 7.663399 626.993774
718 0 1 9.763100 7.231551 626.176270
719 0 1 9.386150 6.860080 625.376099
720 0 1 8.984786 6.735260 624.482605
721 0 1 8.555007 6.650620 623.648865
722 0 1 8.129349 6.729830 622.739502
723 0 1 7.740602 6.759950 621.847595
724 0 1 7.607878 7.010741 620.936462
725 0 1 7.370795 7.656550 620.264648
726 0 1 7.492462 8.256804 619.566223
727 0 1 7.305275 8.900034 618.893188
728 0 1 7.164965 9.374240 618.090210
729 0 1 6.753300 9.828080 617.371399
730 0 1 6.406480 10.452880 616.749329
731 0 1 6.073100 11.139600 616.133728
732 0 1 5.697480 11.542450 615.400879
733 0 1 5.198720 11.960230 614.736511
734 0 1 4.739030 12.268021 614.034729
735 0 1 4.464190 12.707890 613.244629
736 0 1 4.186920 13.040030 612.365784
737 0 1 3.820830 13.096849 611.467529
738 0 1 3.951510 13.137870 610.504028
739 0 1 3.854990 13.051350 609.496826
740 0 1 3.724230 12.622540 608.637817
741 0 1 3.798060 12.479120 607.693726
742 0 1 4.040510 12.416850 606.758484
743 0 1 4.563200 12.357380 605.942627
744 0 1 4.934240 12.166920 605.070190
745 0 1 5.428330 11.817310 604.320984
746 0 1 5.971320 11.420280 603.634827
747 0 1 6.511230 11.050230 602.959900
748 0 1 6.883990 10.667970 602.153931
749 0 1 7.095126 10.219760 601.279785
750 0 1 7.339982 9.795130 600.382629
751 0 1 7.416905 9.586840 599.492004
752 0 1 7.773998 9.678660 598.549072
753 0 1 8.271170 9.755060 597.669983
754 0 1 8.473862 9.830100 596.704102
755 0 1 8.812857 9.570090 595.842224
756 0 1 9.043180 9.374890 594.923828
757 0 1 9.019640 9.236620 593.942017
758 0 1 9.409150 8.964478 593.127686
759 0 1 9.554930 8.539268 592.257202
760 0 1 9.399520 8.216757 591.334717
761 0 1 9.104020 7.971676 590.504028
762 0 1 8.616024 7.784235 589.595276
763 0 1 8.126681 7.584283 588.747803
764 0 1 8.050608 7.276223 587.825012
765 0 1 7.988134 6.750180 587.028381
766 0 1 8.039561 6.275310 586.256775
767 0 1 8.017371 5.985870 585.310303
768 0 1 7.937185 5.377130 584.523804
769 0 1 7.848035 4.859710 583.703003
770 0 1 7.923269 4.517830 582.843201
771 0 1 8.074592 4.240840 581.877319
772 0 1 8.520647 4.290050 581.046204
773 0 1 9.209970 4.222960 580.373779
774 0 1 9.931100 4.360330 579.828003
775 0 1 10.562280 4.583060 579.167175
776 0 1 11.086210 5.000830 578.454590
777 0 1 11.647800 5.301220 577.754211
778 0 1 12.337210 5.636150 577.172729
779 0 1 13.021629 5.928220 576.648804
780 0 1 13.423070 6.318600 575.958008
781 0 1 13.858820 6.434790 575.057800
782 0 1 14.143530 6.434710 574.107117
783 0 1 13.985530 6.480130 573.171814
784 0 1 13.935190 6.668470 572.201782
785 0 1 14.379770 6.974220 571.328613
786 0 1 14.717180 7.164915 570.395630
787 0 1 14.848610 7.302500 569.424683
788 0 1 14.607670 7.437560 568.481323
789 0 1 14.486410 7.737359 567.604614