LAMMPS data file via MDAnalysis

        1000  atoms
        1000  bonds
        1000  angles
           0  dihedrals
           0  impropers

           1  atom types
           1  bond types
           1  angle types
           0  dihedral types
           0  improper types

0.000000 16.000000 xlo xhi
0.000000 16.000000 ylo yhi
0.000000 1257.000000 zlo zhi


Masses

1 1.000000

Atoms

1 0 1 5.403700 13.682700 448.399994
2 0 1 5.268090 13.412580 449.270996
3 0 1 4.956440 13.054670 450.136993
4 0 1 4.768300 13.014060 451.112000
5 0 1 4.811700 12.861080 452.083984
6 0 1 4.593610 12.573500 452.992981
7 0 1 4.577880 12.046280 453.809998
8 0 1 4.468900 11.706720 454.737000
9 0 1 4.370230 11.129829 455.481018
10 0 1 4.534690 10.657260 456.248993
11 0 1 4.238710 10.276300 457.033020
12 0 1 3.900600 9.697360 457.791016
13 0 1 3.893150 9.094760 458.541992
14 0 1 4.077180 8.628891 459.412994
15 0 1 4.047510 7.984710 460.186005
16 0 1 3.918400 7.190322 460.916992
17 0 1 3.816820 6.914370 461.860992
18 0 1 3.805170 6.872070 462.815002
19 0 1 3.736430 6.663970 463.761993
20 0 1 3.807620 6.197400 464.703979
21 0 1 3.909830 5.536250 465.373993
22 0 1 4.111380 5.094850 466.227997
23 0 1 4.224040 4.568210 467.039978
24 0 1 4.353670 4.202810 467.884003
25 0 1 4.493080 3.964000 468.830994
26 0 1 4.609350 3.603130 469.700012
27 0 1 5.007310 3.308230 470.572021
28 0 1 5.236480 3.069020 471.444000
29 0 1 5.345470 2.955180 472.406006
30 0 1 5.451090 3.326700 473.281006
31 0 1 5.384940 3.685950 474.166016
32 0 1 5.196640 4.182040 475.007996
33 0 1 5.013800 4.545290 475.882019
34 0 1 4.902010 4.838940 476.807983
35 0 1 5.207910 5.061180 477.707001
36 0 1 5.495390 5.270700 478.669006
37 0 1 5.808050 5.678020 479.575989
38 0 1 5.940390 5.937230 480.497009
39 0 1 6.211520 5.882410 481.369995
40 0 1 6.506770 5.994310 482.255981
41 0 1 6.657660 6.261670 483.212006
42 0 1 6.921360 6.348940 484.161987
43 0 1 7.303869 6.307250 485.028015
44 0 1 7.703661 6.216670 485.925995
45 0 1 8.230188 6.145110 486.686005
46 0 1 8.719652 6.232390 487.559021
47 0 1 9.170680 6.570110 488.359985
48 0 1 9.178530 7.034488 489.207001
49 0 1 9.466210 7.662984 489.873993
50 0 1 9.538240 8.493289 490.279999
51 0 1 9.617150 9.303630 490.936005
52 0 1 9.540640 9.784070 491.786987
53 0 1 9.397050 10.088490 492.699005
54 0 1 9.376450 10.046391 493.682007
55 0 1 9.005020 10.159019 494.531006
56 0 1 8.824292 10.078300 495.476013
57 0 1 8.844138 9.939920 496.421997
58 0 1 8.863919 9.346750 497.177002
59 0 1 8.469067 8.752661 497.860992
60 0 1 7.971825 8.163647 498.398010
61 0 1 7.527346 7.718424 499.080994
62 0 1 6.982890 7.517363 499.871002
63 0 1 6.499340 7.515431 500.779999
64 0 1 6.442230 7.690615 501.735992
65 0 1 6.543350 7.783394 502.649994
66 0 1 6.591570 8.043522 503.524994
67 0 1 6.771230 8.123189 504.467010
68 0 1 7.137324 8.320664 505.337006
69 0 1 7.311052 8.586923 506.233002
70 0 1 7.365784 9.043570 507.076996
71 0 1 7.278367 9.073130 508.091003
72 0 1 7.427265 9.143150 509.020996
73 0 1 7.438577 9.459410 509.937012
74 0 1 7.683509 9.624200 510.862000
75 0 1 7.811701 9.674470 511.799988
76 0 1 7.935918 9.790140 512.781982
77 0 1 8.066100 9.841980 513.775024
78 0 1 8.455955 9.750790 514.740967
79 0 1 8.815844 9.777310 515.663025
80 0 1 8.748911 10.031520 516.612000
81 0 1 8.480596 10.039490 517.523010
82 0 1 8.200697 9.760410 518.413025
83 0 1 8.123535 9.707450 519.364990
84 0 1 8.231342 9.356700 520.214966
85 0 1 8.352896 8.978633 521.083984
86 0 1 8.293124 8.779507 521.984985
87 0 1 8.204501 8.657451 522.922974
88 0 1 8.291457 8.490066 523.908997
89 0 1 8.507403 8.339938 524.843994
90 0 1 8.693474 7.935337 525.703979
91 0 1 8.976106 7.444471 526.500000
92 0 1 8.883165 7.447472 527.473999
93 0 1 9.005990 7.534182 528.445984
94 0 1 9.161260 7.287753 529.362488
95 0 1 9.485160 7.051528 530.250732
96 0 1 10.048570 7.199964 531.072876
97 0 1 10.517630 7.119504 531.913574
98 0 1 10.877990 7.121298 532.783081
99 0 1 11.049850 7.199236 533.753113
100 0 1 11.102770 7.338092 534.704834
101 0 1 11.342880 7.390152 535.653625
102 0 1 11.190520 7.549759 536.516602
103 0 1 11.122860 7.901098 537.427612
104 0 1 10.698310 8.041871 538.290527
105 0 1 10.359430 7.907991 539.179077
106 0 1 9.958850 7.472140 539.973206
107 0 1 9.826310 6.882720 540.653198
108 0 1 9.701800 6.064630 541.073914
109 0 1 9.360760 5.295360 541.502930
110 0 1 8.986904 4.750980 542.169983
111 0 1 8.739110 4.151730 542.896973
112 0 1 8.537592 3.451790 543.593811
113 0 1 8.360984 3.102620 544.443726
114 0 1 8.151464 2.871080 545.385803
115 0 1 7.860348 2.711140 546.272583
116 0 1 7.398885 2.520090 547.101929
117 0 1 7.251807 2.589030 548.014771
118 0 1 7.072112 2.878550 548.917969
119 0 1 6.915110 3.184530 549.829224
120 0 1 6.765160 3.363680 550.734192
121 0 1 6.341870 3.579470 551.556091
122 0 1 5.997210 3.931390 552.351074
123 0 1 5.396300 4.156360 553.174622
124 0 1 5.094190 3.998650 554.065002
125 0 1 4.941220 3.941070 555.014282
126 0 1 4.726270 4.000710 555.945984
127 0 1 4.458430 4.332290 556.761597
128 0 1 4.345400 4.377780 557.746216
129 0 1 4.378330 4.583360 558.679688
130 0 1 4.515150 4.803330 559.627930
131 0 1 4.797910 4.885970 560.561584
132 0 1 5.146380 4.956660 561.512573
133 0 1 5.421650 5.192590 562.430176
134 0 1 5.690770 5.030350 563.352417
135 0 1 6.115280 5.257590 564.191284
136 0 1 6.792040 5.321460 564.896423
137 0 1 7.427652 5.098070 565.564331
138 0 1 8.138087 4.969120 566.268921
139 0 1 8.818193 4.850200 566.846008
140 0 1 9.340170 4.754370 567.666382
141 0 1 9.754760 4.656200 568.498169
142 0 1 10.039351 4.486690 569.390076
143 0 1 10.209960 4.621680 570.331116
144 0 1 10.110060 4.725670 571.298218
145 0 1 10.266370 4.878240 572.222290
146 0 1 10.209200 5.176380 573.167175
147 0 1 10.154010 5.315160 574.125183
148 0 1 10.368430 5.293380 575.112427
149 0 1 10.403400 5.262520 576.113220
150 0 1 10.458030 5.157500 577.120117
151 0 1 10.075630 5.133300 578.069580
152 0 1 9.988850 5.140660 579.048889
153 0 1 9.709290 5.295260 579.941101
154 0 1 9.612790 5.717590 580.784912
155 0 1 9.517770 6.135040 581.683716
156 0 1 9.690510 6.348460 582.591614
157 0 1 9.651380 6.701050 583.514771
158 0 1 9.363360 6.982710 584.367432
159 0 1 9.161780 7.213126 585.315491
160 0 1 8.952572 7.442013 586.259888
161 0 1 8.808210 7.663729 587.160889
162 0 1 8.603553 7.619437 588.129028
163 0 1 8.321105 7.686844 589.089417
164 0 1 7.866442 7.609377 589.986084
165 0 1 7.659557 7.328455 590.863098
166 0 1 7.634905 7.018980 591.775818
167 0 1 7.575790 6.733610 592.656494
168 0 1 7.392043 6.382670 593.532410
169 0 1 7.214590 5.968340 594.378906
170 0 1 7.044437 5.430780 595.185303
171 0 1 6.640360 4.968310 596.036072
172 0 1 6.245290 4.409020 596.769409
173 0 1 6.038110 3.998720 597.606018
174 0 1 5.778500 3.697910 598.551392
175 0 1 5.594970 3.928220 599.487122
176 0 1 5.709030 4.318420 600.324707
177 0 1 6.037610 5.007480 600.984497
178 0 1 6.600580 5.637590 601.572021
179 0 1 7.226325 6.177580 602.093506
180 0 1 7.969732 6.584760 602.473206
181 0 1 8.696168 7.010823 603.063477
182 0 1 9.264310 7.652387 603.678284
183 0 1 9.662780 8.083654 604.455994
184 0 1 9.675850 8.605056 605.302795
185 0 1 9.957300 8.839371 606.204895
186 0 1 10.422910 8.829125 607.136414
187 0 1 10.722879 9.075420 608.049805
188 0 1 10.691950 9.119280 609.061279
189 0 1 10.351220 8.936130 609.966187
190 0 1 10.172029 8.732579 610.927979
191 0 1 9.859720 8.791433 611.829285
192 0 1 9.582030 8.811834 612.876099
193 0 1 9.192000 8.885386 613.748596
194 0 1 8.589980 9.032050 614.516296
195 0 1 8.258861 9.067280 615.385498
196 0 1 7.995029 9.315490 616.307983
197 0 1 7.792288 9.844640 617.129395
198 0 1 7.613316 10.243480 618.034119
199 0 1 7.411415 10.690050 618.908569
200 0 1 7.286343 11.127769 619.802246
201 0 1 7.196444 11.679980 620.607910
202 0 1 7.073607 12.080360 621.422302
203 0 1 6.868640 12.531310 622.240784
204 0 1 6.827310 12.783950 623.132629
205 0 1 6.709240 13.168580 624.051392
206 0 1 6.689360 13.553130 624.895569
207 0 1 6.477740 13.947969 625.747314
208 0 1 5.985240 13.929050 626.574097
209 0 1 5.598620 13.554461 627.395020
210 0 1 5.219520 13.338170 628.272827
211 0 1 5.025850 13.118940 629.234619
212 0 1 5.203870 12.744511 630.175171
213 0 1 5.567270 12.311689 631.030884
214 0 1 5.871220 11.846340 631.862610
215 0 1 6.168750 11.357360 632.631592
216 0 1 6.159560 10.859070 633.446899
217 0 1 5.945810 10.497950 634.338745
218 0 1 5.343750 10.154540 635.002502
219 0 1 4.732300 10.187620 635.741699
220 0 1 4.051140 10.143650 636.471252
221 0 1 3.397170 10.186090 637.320618
222 0 1 2.819800 10.353970 638.097107
223 0 1 2.816350 10.631680 639.040710
224 0 1 2.751270 10.893209 639.982788
225 0 1 2.479870 11.174760 640.874695
226 0 1 2.372330 11.057330 641.805603
227 0 1 2.008700 11.010910 642.703003
228 0 1 1.959050 10.837460 643.632812
229 0 1 2.011530 10.500031 644.541077
230 0 1 2.230450 10.161360 645.393982
231 0 1 2.256400 9.830690 646.335510
232 0 1 1.836050 9.790980 647.174500
233 0 1 1.839430 9.740380 648.123779
234 0 1 1.791600 9.566890 649.077393
235 0 1 1.849760 9.908080 649.997986
236 0 1 1.977650 10.202120 650.912476
237 0 1 2.386180 10.249701 651.773071
238 0 1 2.917740 10.674710 652.473694
239 0 1 3.507570 11.053640 653.236023
240 0 1 3.982690 10.964770 654.086426
241 0 1 4.028900 11.280980 655.009827
242 0 1 4.025470 11.435890 655.957703
243 0 1 4.201730 11.364161 656.871216
244 0 1 4.678940 11.376380 657.707703
245 0 1 5.292900 11.330030 658.482117
246 0 1 5.901300 11.095881 659.174927
247 0 1 6.422460 10.791220 659.931519
248 0 1 6.929860 10.649960 660.734619
249 0 1 7.379057 10.761620 661.589417
250 0 1 7.746890 10.649370 662.576599
251 0 1 7.990436 10.550570 663.458984
252 0 1 8.221608 10.507540 664.424805
253 0 1 8.581396 10.529840 665.298828
254 0 1 8.884266 10.714849 666.199890
255 0 1 9.377950 10.989130 666.991272
256 0 1 9.868460 11.179780 667.796326
257 0 1 10.019590 11.230021 668.750732
258 0 1 10.317860 11.346070 669.643494
259 0 1 10.177750 11.540330 670.620422
260 0 1 10.279320 11.940850 671.507812
261 0 1 10.562680 12.280200 672.389099
262 0 1 10.957251 12.358490 673.370911
263 0 1 11.244699 12.252270 674.305786
264 0 1 11.257990 12.174550 675.263672
265 0 1 11.344860 11.989540 676.176575
266 0 1 11.286500 11.697530 677.135620
267 0 1 11.274700 11.040480 677.917786
268 0 1 11.184200 10.219730 678.434326
269 0 1 10.908160 9.686470 679.197021
270 0 1 10.632590 9.104580 679.906006
271 0 1 10.592890 8.521551 680.632202
272 0 1 10.536600 8.281785 681.580078
273 0 1 10.364930 7.816949 682.417725
274 0 1 10.238010 7.432485 683.244507
275 0 1 10.135430 7.117328 684.143677
276 0 1 10.074260 6.621060 684.971802
277 0 1 10.320220 6.118500 685.729309
278 0 1 10.537370 5.539950 686.546326
279 0 1 10.589720 5.083910 687.382080
280 0 1 10.798040 4.583420 688.135193
281 0 1 10.859340 4.399070 689.084778
282 0 1 10.970210 4.292980 690.061096
283 0 1 10.979580 4.274870 691.020386
284 0 1 10.304950 4.138030 691.790771
285 0 1 9.563050 4.136190 692.457581
286 0 1 8.949674 4.104820 693.190979
287 0 1 8.378242 4.264750 694.078491
288 0 1 7.772664 4.542030 694.802490
289 0 1 7.166528 4.562900 695.494812
290 0 1 6.448810 4.603720 696.125183
291 0 1 5.736010 4.891100 696.784180
292 0 1 5.073750 5.172320 697.374695
293 0 1 4.439610 5.339720 698.083191
294 0 1 4.156650 5.581790 698.913879
295 0 1 3.900770 5.891120 699.825378
296 0 1 3.776290 5.927550 700.790710
297 0 1 3.625360 5.910560 701.815125
298 0 1 3.717270 5.867260 702.793396
299 0 1 4.187840 5.878730 703.649780
300 0 1 4.766840 5.963310 704.479919
301 0 1 5.104120 6.404810 705.364868
302 0 1 5.567470 6.900420 706.118896
303 0 1 6.089970 7.388895 706.778931
304 0 1 6.733890 7.599683 707.414185
305 0 1 7.396571 7.699250 708.037903
306 0 1 8.161104 7.701285 708.547485
307 0 1 9.001710 7.877513 709.084778
308 0 1 9.736410 8.107323 709.687500
309 0 1 10.402530 8.542985 710.335510
310 0 1 10.887000 8.904526 711.094788
311 0 1 11.470060 9.188960 711.794922
312 0 1 11.770190 9.627060 712.614197
313 0 1 12.001710 9.689900 713.557678
314 0 1 12.217461 9.614990 714.578796
315 0 1 12.206810 9.364710 715.537720
316 0 1 12.076380 9.069290 716.456116
317 0 1 12.007071 8.934256 717.476013
318 0 1 11.932580 8.995594 718.401733
319 0 1 11.936390 9.139930 719.344421
320 0 1 11.891370 9.399990 720.319580
321 0 1 11.745920 9.933800 721.149902
322 0 1 11.486000 10.500680 721.932007
323 0 1 11.144300 10.939600 722.670166
324 0 1 10.599120 11.255720 723.369202
325 0 1 10.101320 11.349180 724.222168
326 0 1 9.662590 11.234650 725.093384
327 0 1 9.435720 11.046340 726.017090
328 0 1 9.427420 10.979760 727.035034
329 0 1 9.205010 10.967240 727.951721
330 0 1 9.248890 10.961210 728.890015
331 0 1 9.267500 11.088470 729.822021
332 0 1 9.391860 11.252160 730.773010
333 0 1 9.234120 11.155840 731.731018
334 0 1 9.202110 11.191510 732.716980
335 0 1 9.155610 11.112550 733.687012
336 0 1 9.125710 11.250750 734.651978
337 0 1 9.204980 11.225300 735.542969
338 0 1 8.791853 11.362340 736.429016
339 0 1 8.724377 11.455740 737.463989
340 0 1 8.415271 11.398479 738.341003
341 0 1 8.018799 11.065870 739.195984
342 0 1 7.506069 10.869320 739.984985
343 0 1 7.357097 10.393260 740.765015
344 0 1 7.108664 10.304840 741.669983
345 0 1 6.652930 10.370210 742.526001
346 0 1 6.578680 10.342649 743.468018
347 0 1 6.738840 10.423491 744.405029
348 0 1 6.995110 10.657579 745.302002
349 0 1 7.220857 10.928770 746.245972
350 0 1 7.260835 11.335250 747.156982
351 0 1 7.382102 11.523410 748.088013
352 0 1 7.516866 11.707541 749.036011
353 0 1 7.880575 11.765420 749.916016
354 0 1 8.029259 11.775820 750.895996
355 0 1 8.463957 11.484990 751.716980
356 0 1 8.754294 11.296021 752.693970
357 0 1 8.970946 11.275060 753.676025
358 0 1 9.028830 11.335340 754.646973
359 0 1 9.094770 11.610350 755.594971
360 0 1 9.084910 11.846430 756.575989
361 0 1 9.149310 12.106979 757.547974
362 0 1 9.303699 12.313890 758.474976
363 0 1 9.171170 12.449240 759.414978
364 0 1 9.120020 12.335430 760.431030
365 0 1 9.063869 12.209459 761.364990
366 0 1 9.290080 12.039330 762.281006
367 0 1 9.366210 11.946390 763.207031
368 0 1 9.391280 11.824110 764.130005
369 0 1 9.137660 11.594030 765.049011
370 0 1 8.969579 11.394381 765.983032
371 0 1 9.108190 11.369210 766.940979
372 0 1 9.424240 11.188641 767.766968
373 0 1 9.645900 10.978700 768.761963
374 0 1 10.054700 10.765980 769.598022
375 0 1 10.304590 10.417370 770.458008
376 0 1 10.654090 10.239630 771.338989
377 0 1 11.009430 10.190340 772.229980
378 0 1 11.331360 10.104410 773.103027
379 0 1 11.689490 10.185329 773.963013
380 0 1 12.153891 9.949130 774.787964
381 0 1 12.354630 9.649880 775.679016
382 0 1 12.710670 9.332130 776.505005
383 0 1 12.942610 9.159081 777.414001
384 0 1 13.044001 8.803792 778.312988
385 0 1 13.271170 8.424388 779.119019
386 0 1 13.525169 8.357872 779.989990
387 0 1 13.617100 8.245419 780.976990
388 0 1 13.785390 8.278792 781.947998
389 0 1 13.777380 8.337211 782.937012
390 0 1 13.796490 8.473716 783.917969
391 0 1 14.186131 8.735903 784.802979
392 0 1 14.388741 9.097640 785.684021
393 0 1 14.593510 9.291650 786.563965
394 0 1 14.453140 9.620831 787.434998
395 0 1 14.358800 9.679200 788.388000
396 0 1 13.851601 9.732970 789.174988
397 0 1 13.249400 9.701970 789.919983
398 0 1 12.801800 9.738770 790.807983
399 0 1 12.365100 9.799660 791.664001
400 0 1 11.786170 9.705800 792.419983
401 0 1 11.209570 9.834780 793.109985
402 0 1 10.820060 9.695870 793.945007
403 0 1 10.415130 9.426000 794.812988
404 0 1 9.986640 8.961256 795.516968
405 0 1 9.491580 8.307696 796.061035
406 0 1 9.435200 7.555928 796.639038
407 0 1 9.186470 6.793970 797.291992
408 0 1 9.180440 6.195250 797.989014
409 0 1 9.462160 5.829150 798.919983
410 0 1 9.483950 5.450510 799.744019
411 0 1 9.332420 5.265510 800.635986
412 0 1 9.117010 4.776450 801.414978
413 0 1 8.995150 4.149800 802.114014
414 0 1 9.418450 3.877880 802.955017
415 0 1 9.600420 3.629050 803.938965
416 0 1 9.486629 3.232140 804.820007
417 0 1 9.584650 2.831290 805.729980
418 0 1 9.675540 2.496090 806.632019
419 0 1 9.734070 2.299610 807.589966
420 0 1 9.825171 2.028510 808.554016
421 0 1 9.885000 2.064100 809.440979
422 0 1 10.334030 2.168240 810.335022
423 0 1 10.374810 2.527470 811.261963
424 0 1 10.412880 3.031620 812.200012
425 0 1 10.515200 3.254510 813.153015
426 0 1 10.485430 3.519120 814.087036
427 0 1 10.708640 4.266630 814.778015
428 0 1 10.691780 4.963940 815.437012
429 0 1 10.350700 5.769760 816.091003
430 0 1 10.102020 6.509030 816.601990
431 0 1 9.759150 7.124737 817.327026
432 0 1 9.599090 7.793655 817.960999
433 0 1 9.297100 8.491697 818.554016
434 0 1 8.830502 9.046090 819.297974
435 0 1 8.334729 9.352480 820.145020
436 0 1 7.985123 9.955470 820.841003
437 0 1 7.752514 10.484100 821.632996
438 0 1 7.673006 11.047050 822.514038
439 0 1 7.594941 11.707270 823.238037
440 0 1 7.273933 12.252689 823.958984
441 0 1 6.748720 12.582890 824.749023
442 0 1 6.249090 12.592630 825.510010
443 0 1 5.877420 12.793739 826.385010
444 0 1 5.722910 13.161480 827.270020
445 0 1 5.532920 13.607030 828.065979
446 0 1 5.368940 13.731541 829.010986
447 0 1 5.004640 13.656050 829.934998
448 0 1 4.703410 13.465640 830.815002
449 0 1 4.661250 12.892290 831.577026
450 0 1 4.548750 12.476000 832.489014
451 0 1 4.563270 12.000299 833.335999
452 0 1 4.682990 11.403330 834.046021
453 0 1 4.968940 10.813280 834.786987
454 0 1 5.431730 10.102221 835.375000
455 0 1 5.952440 9.393160 835.848999
456 0 1 6.477650 8.817741 836.348022
457 0 1 7.065311 8.318873 836.900024
458 0 1 7.641691 7.652447 837.276001
459 0 1 8.098229 6.944560 837.662964
460 0 1 8.644400 6.169900 837.739990
461 0 1 9.210920 5.345710 837.627991
462 0 1 9.842570 4.610330 837.453979
463 0 1 10.247601 3.938240 836.891968
464 0 1 11.055790 3.747270 836.349976
465 0 1 11.674470 3.572690 835.664001
466 0 1 12.210680 3.688200 834.817993
467 0 1 12.237949 3.576410 833.877991
468 0 1 12.194389 3.671440 832.872009
469 0 1 12.062820 4.078710 831.983032
470 0 1 12.183440 4.410980 831.026978
471 0 1 12.396481 4.505070 830.063965
472 0 1 12.558510 4.482290 829.119995
473 0 1 12.647160 4.594340 828.172974
474 0 1 12.376760 4.578790 827.247009
475 0 1 11.774920 4.346580 826.500977
476 0 1 11.131090 4.123920 825.755981
477 0 1 10.708540 3.884010 824.898010
478 0 1 10.312540 3.786240 823.995972
479 0 1 9.845080 3.736260 823.101990
480 0 1 9.351290 3.678180 822.296021
481 0 1 8.874381 3.422450 821.443970
482 0 1 8.394811 3.344640 820.635986
483 0 1 7.845868 3.257870 819.843994
484 0 1 7.475415 3.119040 818.981018
485 0 1 7.428873 2.909340 818.052002
486 0 1 7.116745 2.855330 817.166016
487 0 1 6.669220 2.816110 816.369995
488 0 1 6.512540 2.864300 815.369995
489 0 1 6.471480 2.902170 814.458984
490 0 1 6.537700 3.014940 813.562012
491 0 1 6.433460 2.984060 812.521973
492 0 1 6.274370 3.288620 811.528992
493 0 1 5.957150 3.487810 810.641968
494 0 1 5.557400 3.920070 809.872986
495 0 1 5.012430 4.071240 809.171021
496 0 1 4.531880 4.486620 808.380981
497 0 1 4.251470 4.866810 807.515991
498 0 1 3.922520 5.282260 806.693970
499 0 1 3.814290 5.358720 805.716980
500 0 1 4.075950 5.575720 804.856018
501 0 1 4.361430 5.568070 803.877014
502 0 1 4.526190 5.601480 802.921997
503 0 1 4.636670 5.596200 801.984985
504 0 1 4.623910 5.698430 801.010986
505 0 1 4.445800 5.664080 800.041016
506 0 1 4.631840 5.508780 799.093994
507 0 1 4.770590 5.491420 798.141968
508 0 1 5.177690 5.272710 797.249023
509 0 1 5.631380 4.803200 796.549011
510 0 1 6.004950 4.420780 795.813965
511 0 1 6.485200 3.937880 795.146973
512 0 1 6.769250 3.433670 794.309021
513 0 1 7.067179 3.284440 793.382996
514 0 1 7.288371 3.424690 792.431030
515 0 1 7.472160 3.804530 791.580994
516 0 1 7.409756 4.413070 790.849976
517 0 1 7.282387 4.948610 790.047974
518 0 1 6.932350 5.256160 789.145020
519 0 1 6.771970 5.835040 788.421021
520 0 1 6.587670 6.643030 787.936035
521 0 1 6.780690 7.389539 787.289001
522 0 1 7.214470 8.115819 786.765991
523 0 1 7.495523 8.786427 786.167969
524 0 1 7.831834 9.372210 785.537964
525 0 1 8.332398 9.739870 784.853027
526 0 1 9.026250 9.976950 784.224976
527 0 1 9.324550 10.349850 783.401978
528 0 1 9.284190 10.922180 782.588989
529 0 1 9.192490 11.544090 781.864990
530 0 1 9.086030 12.165380 781.117981
531 0 1 9.084390 12.656040 780.287964
532 0 1 9.261490 13.044840 779.424988
533 0 1 9.543960 13.242599 778.541992
534 0 1 9.523420 13.489750 777.643982
535 0 1 9.975700 13.523420 776.778992
536 0 1 10.445260 13.353970 775.905029
537 0 1 10.822520 13.206130 774.984985
538 0 1 11.244510 13.180309 774.114990
539 0 1 11.435061 13.201611 773.190979
540 0 1 11.596430 13.145870 772.302979
541 0 1 11.549260 12.646330 771.497986
542 0 1 11.815440 12.215850 770.713013
543 0 1 12.242599 11.677350 769.989990
544 0 1 12.698420 11.479660 769.187012
545 0 1 13.345090 11.427430 768.490967
546 0 1 13.730380 11.173670 767.682007
547 0 1 13.964230 11.325580 766.688965
548 0 1 13.697090 11.299720 765.728027
549 0 1 13.139160 11.255810 764.973022
550 0 1 12.621170 11.052110 764.231018
551 0 1 12.364290 10.782180 763.382019
552 0 1 11.868550 10.593081 762.580994
553 0 1 11.294360 10.088340 761.890991
554 0 1 11.156750 9.590090 761.192993
555 0 1 10.754520 8.931222 760.537964
556 0 1 10.357370 8.530265 759.742981
557 0 1 10.128429 7.934793 759.088989
558 0 1 10.064529 7.502949 758.275024
559 0 1 9.995490 7.177254 757.335022
560 0 1 10.195330 6.818380 756.541016
561 0 1 10.433001 6.521440 755.594971
562 0 1 10.459290 6.147860 754.710999
563 0 1 10.378160 5.978050 753.685974
564 0 1 10.307460 5.842300 752.716003
565 0 1 10.008670 5.869350 751.693970
566 0 1 9.724930 5.924560 750.729004
567 0 1 9.402110 6.187390 749.875000
568 0 1 9.070280 6.612910 749.067017
569 0 1 8.925644 6.988710 748.164001
570 0 1 8.969757 7.151945 747.200012
571 0 1 9.060130 7.562963 746.354004
572 0 1 9.022700 7.884689 745.495972
573 0 1 8.877484 8.169118 744.575012
574 0 1 8.636469 8.536031 743.640015
575 0 1 8.547520 8.609776 742.697021
576 0 1 8.474290 8.662561 741.765991
577 0 1 8.293571 8.513851 740.882019
578 0 1 7.891109 8.119313 740.033997
579 0 1 7.648120 7.923141 739.093994
580 0 1 7.234957 7.565014 738.265991
581 0 1 6.822460 7.372255 737.434021
582 0 1 6.392670 7.017791 736.674011
583 0 1 5.875780 6.652490 735.960999
584 0 1 5.702650 6.359820 735.096985
585 0 1 5.410100 6.164650 734.231995
586 0 1 5.172250 6.109990 733.317017
587 0 1 5.153130 5.978780 732.364990
588 0 1 5.424910 5.737350 731.478027
589 0 1 5.448160 5.588240 730.549988
590 0 1 5.570310 5.395620 729.575012
591 0 1 5.287480 5.113560 728.645020
592 0 1 5.257230 4.879120 727.676208
593 0 1 5.371390 4.837930 726.679016
594 0 1 5.630470 4.593300 725.778503
595 0 1 6.039950 4.756120 724.902405
596 0 1 6.420340 4.844640 723.992126
597 0 1 6.759750 4.954590 723.073792
598 0 1 6.983580 4.896430 722.100830
599 0 1 7.177041 5.048350 721.163330
600 0 1 7.738993 5.219890 720.326111
601 0 1 8.385406 5.400560 719.615479
602 0 1 8.965102 5.580560 718.870300
603 0 1 9.219020 5.742470 717.985229
604 0 1 9.669880 5.660330 717.156189
605 0 1 10.110390 5.537420 716.333130
606 0 1 10.227489 5.786350 715.411621
607 0 1 10.473500 5.840760 714.490112
608 0 1 10.509840 6.101260 713.584778
609 0 1 10.752140 6.514950 712.675293
610 0 1 11.055000 6.628230 711.775696
611 0 1 11.383710 6.755740 710.867676
612 0 1 11.623740 6.913870 709.955994
613 0 1 11.846630 7.160683 709.035767
614 0 1 12.193010 7.199184 708.149170
615 0 1 12.760270 6.862930 707.348389
616 0 1 13.376490 6.590540 706.574524
617 0 1 13.617050 6.547870 705.662292
618 0 1 13.846060 6.537880 704.726990
619 0 1 13.656820 6.980370 703.851685
620 0 1 13.592871 7.501283 703.042114
621 0 1 13.471210 8.170194 702.295410
622 0 1 13.451920 8.769662 701.571777
623 0 1 13.242340 9.379180 700.794800
624 0 1 12.863620 9.765240 700.018677
625 0 1 12.533430 10.301260 699.298706
626 0 1 12.329121 10.668680 698.330811
627 0 1 11.904750 10.964840 697.501526
628 0 1 11.440280 11.011770 696.673279
629 0 1 10.756060 10.981290 695.966980
630 0 1 10.114010 10.729140 695.357910
631 0 1 9.781810 10.406380 694.532898
632 0 1 9.289260 9.949930 693.770081
633 0 1 8.720168 9.927629 693.007812
634 0 1 8.346175 9.862530 692.109192
635 0 1 8.025107 9.530360 691.266907
636 0 1 7.735972 9.036670 690.470581
637 0 1 7.421047 8.461312 689.758972
638 0 1 7.382567 7.790383 689.004883
639 0 1 7.577322 7.227333 688.250732
640 0 1 7.974717 6.716090 687.484375
641 0 1 8.473244 6.296890 686.764282
642 0 1 8.885003 5.700840 685.997925
643 0 1 8.791590 5.103290 685.287720
644 0 1 8.869187 4.379060 684.509277
645 0 1 9.136909 4.036730 683.713318
646 0 1 9.617640 3.700910 682.969482
647 0 1 10.136600 3.466640 682.230408
648 0 1 10.480560 3.365250 681.340881
649 0 1 10.699180 3.415390 680.401978
650 0 1 10.674600 3.657990 679.453369
651 0 1 10.714700 3.952440 678.563782
652 0 1 11.073480 4.162480 677.619080
653 0 1 11.476220 4.107850 676.723206
654 0 1 11.752310 4.285560 675.755371
655 0 1 11.675210 4.439720 674.819397
656 0 1 11.595350 4.925560 673.993591
657 0 1 11.924600 5.504640 673.295532
658 0 1 12.277390 5.996570 672.481018
659 0 1 12.529730 6.197220 671.555481
660 0 1 13.116510 6.075190 670.864014
661 0 1 13.557961 6.094050 669.964172
662 0 1 13.890551 6.394960 669.117615
663 0 1 14.025499 6.694100 668.239807
664 0 1 14.156910 7.227290 667.487610
665 0 1 14.030410 7.987332 666.836121
666 0 1 13.833020 8.499945 666.034424
667 0 1 13.936029 8.945968 665.183472
668 0 1 13.987511 9.232280 664.252319
669 0 1 13.770861 9.391090 663.302673
670 0 1 13.759621 9.715611 662.431519
671 0 1 13.541019 9.744190 661.527527
672 0 1 13.425240 9.952160 660.583008
673 0 1 13.166930 10.167450 659.651306
674 0 1 12.950780 10.360850 658.734192
675 0 1 12.610620 10.374180 657.851013
676 0 1 11.946420 10.490070 657.133972
677 0 1 11.259930 10.450871 656.342224
678 0 1 10.469640 10.280900 655.686218
679 0 1 9.589520 10.483380 655.181885
680 0 1 8.810141 10.340010 654.720215
681 0 1 8.017110 10.144939 654.175293
682 0 1 7.321265 10.269460 653.526978
683 0 1 6.554710 10.600290 653.001282
684 0 1 5.951150 10.670480 652.242920
685 0 1 5.557970 10.655220 651.357788
686 0 1 5.064020 10.272840 650.626587
687 0 1 5.140460 9.509210 649.973816
688 0 1 4.898040 8.893587 649.310486
689 0 1 4.928190 8.260011 648.608398
690 0 1 5.144380 7.569568 647.935791
691 0 1 5.541470 7.370618 647.123596
692 0 1 5.553890 7.221261 646.153381
693 0 1 5.585050 7.054191 645.224976
694 0 1 5.395970 6.662600 644.315186
695 0 1 5.102220 6.490570 643.407715
696 0 1 4.814660 6.055830 642.581909
697 0 1 4.510830 5.778250 641.731506
698 0 1 4.826930 5.709580 640.844971
699 0 1 5.065860 5.312650 640.025085
700 0 1 5.221210 5.456610 639.127502
701 0 1 5.086450 5.594110 638.111633
702 0 1 5.213440 5.644750 637.171082
703 0 1 5.401360 5.944310 636.246155
704 0 1 5.527770 5.927020 635.338562
705 0 1 5.508960 5.979670 634.424805
706 0 1 5.526030 5.680190 633.499329
707 0 1 5.654880 5.372540 632.612732
708 0 1 5.838450 5.227210 631.721436
709 0 1 5.980350 5.013940 630.757568
710 0 1 5.760590 4.896030 629.833130
711 0 1 5.375020 4.792140 629.006714
712 0 1 4.822760 4.793760 628.201721
713 0 1 4.152980 4.885150 627.556030
714 0 1 3.723820 4.997650 626.706177
715 0 1 3.491230 4.740100 625.727234
716 0 1 3.440250 4.834540 624.740845
717 0 1 3.152670 4.602000 623.893555
718 0 1 3.150360 4.250600 622.923157
719 0 1 3.095810 3.725430 622.077454
720 0 1 3.058280 3.442200 621.087708
721 0 1 3.162160 3.413710 620.067566
722 0 1 3.448380 3.408350 619.138733
723 0 1 3.965560 3.241810 618.414795
724 0 1 4.251530 3.313140 617.532471
725 0 1 4.542780 3.538070 616.635193
726 0 1 4.657750 3.738340 615.760986
727 0 1 4.555580 4.036810 614.840698
728 0 1 4.428480 3.993670 613.890076
729 0 1 4.434900 3.809460 612.872620
730 0 1 4.328410 3.540600 611.957397
731 0 1 4.063330 3.305360 611.089600
732 0 1 3.723170 3.157510 610.177673
733 0 1 3.727120 3.170270 609.199097
734 0 1 3.641720 3.098050 608.295593
735 0 1 4.042580 2.731280 607.535095
736 0 1 4.628120 2.540220 606.795288
737 0 1 5.016170 2.382400 605.950378
738 0 1 5.427580 2.639420 605.169800
739 0 1 5.712820 2.811460 604.182617
740 0 1 5.872940 3.082860 603.228882
741 0 1 5.986240 3.325270 602.239624
742 0 1 6.149400 3.544010 601.326294
743 0 1 6.387450 3.553590 600.451294
744 0 1 6.697040 3.688610 599.521912
745 0 1 7.158339 3.635280 598.731628
746 0 1 7.429905 3.473130 597.803406
747 0 1 7.427052 3.178180 596.917969
748 0 1 7.580785 3.046940 595.918091
749 0 1 7.582983 3.070870 594.989990
750 0 1 7.643214 2.671020 594.105103
751 0 1 7.800110 2.278920 593.235596
752 0 1 7.842361 2.267520 592.254517
753 0 1 7.715306 2.256970 591.317322
754 0 1 7.692911 2.124360 590.354187
755 0 1 7.474050 1.826350 589.394897
756 0 1 7.445903 1.826340 588.356018
757 0 1 7.353472 1.924980 587.419373
758 0 1 7.245975 2.416050 586.599609
759 0 1 7.157031 2.844260 585.756470
760 0 1 6.809760 3.300960 584.921997
761 0 1 6.585040 3.544980 583.899902
762 0 1 6.493430 3.504850 582.942627
763 0 1 6.527720 3.397340 581.990173
764 0 1 6.123470 3.616520 581.169922
765 0 1 5.466790 3.879270 580.530273
766 0 1 4.963780 4.013580 579.723694
767 0 1 4.605800 3.953740 578.857605
768 0 1 4.411060 4.151880 577.859131
769 0 1 4.036570 4.339920 577.015686
770 0 1 3.554480 4.531350 576.197998
771 0 1 3.184140 4.567400 575.289917
772 0 1 2.809670 4.870790 574.429199
773 0 1 2.522140 5.331900 573.717712
774 0 1 2.539910 5.888060 572.918091
775 0 1 2.238370 6.340180 572.164978
776 0 1 2.290100 6.952480 571.479126
777 0 1 2.341110 7.508822 570.659912
778 0 1 2.246220 7.847850 569.834778
779 0 1 2.273760 7.866439 568.845825
780 0 1 2.423920 7.974535 567.857300
781 0 1 2.700200 8.072335 566.860474
782 0 1 3.097980 8.250509 566.025513
783 0 1 3.172980 8.222253 564.982727
784 0 1 3.391040 8.327755 564.079407
785 0 1 3.637060 8.389252 563.194885
786 0 1 4.125690 8.349702 562.387817
787 0 1 4.418290 7.964617 561.548828
788 0 1 4.777110 7.437975 560.765198
789 0 1 5.122200 7.162392 559.882385
790 0 1 5.725930 6.737190 559.213013
791 0 1 6.285610 6.338590 558.605286