LAMMPS data file via MDAnalysis

        1000  atoms
        1000  bonds
        1000  angles
           0  dihedrals
           0  impropers

           1  atom types
           1  bond types
           1  angle types
           0  dihedral types
           0  improper types

0.000000 16.000000 xlo xhi
0.000000 16.000000 ylo yhi
0.000000 1257.000000 zlo zhi


Masses

1 1.000000

Atoms

1 0 1 6.529790 14.563931 440.015015
2 0 1 6.598520 14.627831 440.973022
3 0 1 6.251950 14.477460 441.903992
4 0 1 5.997190 14.225030 442.851990
5 0 1 5.783520 14.031071 443.812012
6 0 1 5.810360 13.974140 444.817017
7 0 1 5.377170 13.872210 445.630005
8 0 1 5.347460 13.877020 446.617004
9 0 1 5.472310 13.911010 447.570984
10 0 1 5.623890 14.000879 448.533020
11 0 1 5.582990 13.770380 449.536987
12 0 1 5.608650 13.749950 450.458984
13 0 1 5.882940 13.610580 451.375000
14 0 1 6.001610 12.952510 452.037994
15 0 1 6.402170 12.456200 452.752014
16 0 1 6.730830 11.958270 453.479004
17 0 1 6.878570 11.427760 454.229980
18 0 1 6.995660 10.745680 455.023987
19 0 1 7.166417 10.081350 455.679016
20 0 1 7.304012 9.592590 456.526978
21 0 1 7.656172 9.162270 457.304016
22 0 1 7.814478 8.611996 458.114990
23 0 1 7.729261 8.069019 459.003998
24 0 1 7.782124 7.441465 459.705017
25 0 1 7.590363 7.153255 460.621002
26 0 1 7.263802 7.101885 461.580017
27 0 1 7.192561 7.098579 462.520020
28 0 1 7.103628 7.620683 463.382019
29 0 1 6.951420 7.611462 464.325989
30 0 1 6.572700 7.737613 465.234009
31 0 1 6.266000 7.908086 466.182007
32 0 1 6.062640 7.948659 467.135010
33 0 1 6.027120 8.082074 468.075012
34 0 1 6.047980 8.289403 468.981018
35 0 1 6.358940 8.466861 469.914001
36 0 1 6.514200 8.952041 470.739014
37 0 1 6.785180 9.058570 471.664001
38 0 1 7.119432 9.275710 472.526001
39 0 1 7.476684 9.821920 473.246002
40 0 1 7.533067 10.269620 474.140015
41 0 1 7.619220 10.666690 475.024994
42 0 1 8.027789 10.608600 475.890991
43 0 1 8.143851 10.710570 476.867981
44 0 1 8.281843 11.242360 477.635986
45 0 1 8.270774 11.709490 478.451996
46 0 1 8.232793 12.037680 479.365997
47 0 1 8.357944 12.168560 480.367004
48 0 1 8.446479 12.165530 481.385986
49 0 1 8.580131 12.306530 482.312988
50 0 1 8.505925 12.461630 483.289978
51 0 1 8.162190 12.669100 484.220001
52 0 1 7.386874 12.944630 484.856995
53 0 1 6.835590 12.900940 485.617981
54 0 1 6.171800 12.805560 486.317993
55 0 1 5.629500 12.477409 487.002991
56 0 1 5.293480 11.931840 487.755005
57 0 1 5.065490 11.354810 488.578003
58 0 1 4.926310 11.068290 489.464996
59 0 1 4.545110 10.947010 490.358002
60 0 1 4.378710 10.660320 491.352997
61 0 1 4.130110 10.532240 492.291016
62 0 1 4.273320 10.549880 493.259003
63 0 1 4.775120 10.746690 494.007996
64 0 1 5.202040 11.056129 494.794006
65 0 1 5.329420 11.172010 495.770996
66 0 1 5.441240 11.379430 496.703979
67 0 1 5.544670 11.479130 497.669983
68 0 1 5.727990 11.696040 498.562988
69 0 1 5.671340 11.788680 499.562988
70 0 1 5.629140 11.954760 500.505981
71 0 1 5.658610 12.448610 501.356018
72 0 1 5.758480 12.758730 502.230011
73 0 1 5.851750 12.764020 503.242004
74 0 1 5.773250 12.387170 504.175995
75 0 1 5.517370 12.469330 505.083008
76 0 1 5.362870 12.639840 506.023987
77 0 1 5.342240 12.951910 506.923004
78 0 1 5.464570 13.438410 507.704010
79 0 1 5.527580 13.917920 508.687012
80 0 1 5.823950 13.986680 509.622009
81 0 1 5.970550 13.813340 510.554993
82 0 1 6.228040 13.821680 511.475006
83 0 1 6.324100 13.684589 512.440002
84 0 1 6.574150 13.555540 513.302979
85 0 1 6.636380 13.571859 514.289978
86 0 1 6.570880 13.390060 515.231018
87 0 1 6.296680 13.006390 516.093018
88 0 1 5.952320 12.368370 516.828003
89 0 1 5.721000 11.680290 517.542969
90 0 1 5.181590 11.238740 518.167969
91 0 1 4.644140 10.882550 519.015991
92 0 1 4.131200 10.840730 519.869995
93 0 1 3.886010 10.266530 520.637024
94 0 1 3.890370 9.859300 521.528992
95 0 1 4.214590 9.332490 522.351990
96 0 1 4.245860 8.722948 523.059998
97 0 1 4.207010 7.980549 523.700989
98 0 1 4.094040 7.482148 524.497009
99 0 1 3.954030 6.715280 525.161987
100 0 1 4.053590 6.058790 525.865967
101 0 1 4.139470 5.758480 526.792969
102 0 1 4.109810 5.671550 527.835022
103 0 1 3.995240 5.914480 528.750183
104 0 1 3.946320 6.306610 529.608704
105 0 1 4.264520 6.560040 530.420532
106 0 1 4.410170 6.952170 531.242004
107 0 1 4.870310 6.971550 532.058777
108 0 1 5.335860 6.813430 532.840515
109 0 1 5.736780 6.585150 533.616577
110 0 1 6.225520 6.620770 534.475220
111 0 1 6.650960 6.785240 535.360718
112 0 1 7.182342 7.090474 536.148376
113 0 1 7.559117 7.359626 537.006592
114 0 1 7.841298 7.750363 537.788696
115 0 1 8.001493 7.864688 538.717102
116 0 1 8.192007 8.075028 539.614868
117 0 1 8.381823 8.382638 540.465820
118 0 1 8.609160 8.720404 541.341492
119 0 1 8.805350 9.154350 542.157715
120 0 1 9.195650 9.590870 542.969727
121 0 1 9.514140 9.831460 543.907776
122 0 1 9.464020 9.895240 544.836914
123 0 1 9.253180 10.098280 545.740601
124 0 1 9.059120 10.522240 546.635376
125 0 1 8.629538 10.792300 547.466187
126 0 1 8.068126 10.868980 548.290405
127 0 1 7.367570 10.963050 548.949585
128 0 1 6.787770 10.912760 549.657471
129 0 1 6.428950 10.864140 550.568909
130 0 1 6.254870 10.347990 551.419312
131 0 1 6.094250 10.058480 552.367920
132 0 1 6.345750 9.904930 553.271118
133 0 1 6.506870 9.684340 554.187988
134 0 1 6.668730 9.348780 555.073914
135 0 1 6.777550 9.152100 556.036682
136 0 1 6.962790 9.284960 557.036377
137 0 1 6.999030 9.438920 558.021606
138 0 1 7.014616 9.833730 558.909485
139 0 1 7.128493 10.300540 559.772827
140 0 1 7.352266 10.790070 560.576111
141 0 1 7.196911 11.348280 561.421631
142 0 1 7.065903 11.722549 562.326111
143 0 1 6.743620 12.213210 563.190674
144 0 1 6.704530 12.626530 564.041687
145 0 1 6.548490 12.964140 564.969910
146 0 1 6.277790 13.239700 565.857178
147 0 1 5.952730 13.515600 566.682190
148 0 1 5.793530 13.689711 567.618896
149 0 1 5.355130 13.548030 568.493408
150 0 1 4.937840 13.360950 569.365906
151 0 1 4.631640 13.205350 570.300171
152 0 1 4.566510 13.245390 571.239685
153 0 1 4.327740 13.126200 572.180115
154 0 1 4.125000 13.014990 573.066895
155 0 1 4.102960 12.931190 574.000000
156 0 1 3.774430 12.867519 574.872498
157 0 1 3.553980 12.745050 575.744202
158 0 1 3.594390 12.658000 576.742126
159 0 1 3.886140 12.350349 577.591919
160 0 1 4.086500 12.041821 578.509216
161 0 1 4.056820 11.796960 579.470886
162 0 1 4.064950 11.152360 580.188232
163 0 1 4.243130 10.517590 580.891113
164 0 1 4.402510 9.843270 581.518127
165 0 1 4.632700 9.336190 582.271729
166 0 1 5.130010 8.953305 582.974915
167 0 1 5.606200 8.608390 583.698730
168 0 1 6.086170 8.419812 584.468323
169 0 1 6.597260 8.304605 585.239685
170 0 1 6.903860 8.183198 586.093079
171 0 1 7.139081 8.027009 587.010620
172 0 1 7.355608 7.972615 587.949402
173 0 1 7.628696 7.904811 588.918884
174 0 1 7.494214 7.731922 589.884399
175 0 1 7.299601 7.738744 590.841797
176 0 1 7.360944 7.632219 591.765198
177 0 1 7.397520 7.330027 592.693726
178 0 1 7.280805 7.188985 593.664673
179 0 1 7.177518 7.026268 594.667114
180 0 1 6.993090 7.024508 595.598999
181 0 1 6.929920 7.069992 596.632874
182 0 1 7.090217 7.061422 597.588501
183 0 1 6.923440 6.938380 598.492188
184 0 1 6.736150 6.671000 599.382507
185 0 1 6.900870 6.274540 600.213196
186 0 1 7.052629 5.816530 601.174683
187 0 1 7.351916 5.491330 602.051514
188 0 1 7.602479 5.303180 602.971985
189 0 1 7.679394 5.248600 603.917725
190 0 1 7.674128 5.204720 604.864624
191 0 1 7.354302 5.311060 605.780518
192 0 1 7.229028 5.432880 606.789795
193 0 1 7.072282 5.342200 607.700684
194 0 1 7.045786 5.169400 608.678101
195 0 1 7.187084 5.067360 609.630310
196 0 1 7.064973 4.669410 610.554504
197 0 1 6.883580 4.506070 611.443298
198 0 1 6.905070 4.497340 612.426819
199 0 1 6.735640 4.085970 613.249390
200 0 1 6.827330 3.650640 614.066528
201 0 1 6.957850 3.290650 615.007080
202 0 1 6.506750 3.295540 615.958923
203 0 1 6.150710 3.208010 616.808899
204 0 1 5.536200 3.033480 617.506226
205 0 1 5.098190 2.807280 618.288818
206 0 1 4.680590 2.496850 619.059875
207 0 1 4.338590 2.487620 619.917725
208 0 1 4.199930 2.797090 620.850037
209 0 1 4.001450 3.415530 621.653992
210 0 1 4.022240 4.021260 622.406372
211 0 1 4.306160 4.760410 622.880432
212 0 1 4.777710 5.512690 623.270325
213 0 1 5.234150 5.939660 623.954834
214 0 1 5.830200 5.842890 624.719238
215 0 1 6.264750 5.590410 625.551514
216 0 1 6.587990 5.525810 626.499878
217 0 1 7.088753 5.441490 627.335205
218 0 1 7.437064 5.397500 628.164368
219 0 1 7.693204 5.334760 629.130920
220 0 1 7.338078 5.277160 630.012573
221 0 1 7.100726 5.281630 630.925781
222 0 1 6.821350 5.436180 631.861389
223 0 1 6.926630 5.502900 632.883911
224 0 1 6.868650 5.432220 633.884521
225 0 1 6.719580 5.476050 634.826599
226 0 1 6.515080 5.741840 635.761719
227 0 1 6.229420 5.783190 636.658997
228 0 1 5.872240 5.806130 637.549072
229 0 1 5.429460 6.038680 638.372986
230 0 1 4.875110 6.205200 639.146484
231 0 1 4.469090 6.622290 639.919189
232 0 1 4.258570 7.127630 640.705811
233 0 1 4.201610 7.571658 641.592529
234 0 1 4.213230 8.177417 642.334473
235 0 1 3.890550 8.520034 643.221313
236 0 1 3.527250 8.693836 644.136414
237 0 1 3.347600 8.810948 645.093506
238 0 1 3.382420 8.959641 646.025269
239 0 1 3.250030 8.915590 647.044312
240 0 1 3.074370 8.800431 648.015503
241 0 1 3.034960 8.530156 648.920776
242 0 1 3.161430 8.232242 649.802979
243 0 1 3.121020 7.654063 650.655518
244 0 1 3.223770 7.090901 651.430786
245 0 1 3.475480 6.680030 652.254089
246 0 1 3.551960 6.276670 653.114075
247 0 1 3.768450 5.741480 653.917480
248 0 1 3.980120 5.456400 654.865295
249 0 1 4.380270 5.426990 655.755676
250 0 1 4.702440 5.537400 656.645508
251 0 1 4.972470 5.614100 657.572327
252 0 1 5.384690 5.452170 658.421204
253 0 1 5.930250 5.200310 659.211304
254 0 1 6.523550 5.075180 659.966125
255 0 1 7.183244 5.399480 660.682617
256 0 1 7.685548 5.626320 661.475586
257 0 1 8.018330 5.896380 662.302368
258 0 1 8.088264 5.958300 663.220825
259 0 1 8.366252 5.887190 664.076782
260 0 1 8.767849 5.983390 664.992493
261 0 1 9.104840 6.212300 665.884521
262 0 1 9.707760 6.020030 666.610596
263 0 1 10.014520 5.764650 667.515015
264 0 1 10.423180 5.285900 668.263123
265 0 1 10.861361 4.954110 669.084595
266 0 1 11.384730 4.678010 669.823730
267 0 1 11.815320 4.515950 670.672974
268 0 1 12.165930 4.216760 671.518188
269 0 1 12.506510 4.157190 672.371399
270 0 1 12.769330 4.257600 673.319885
271 0 1 12.795520 4.284370 674.274780
272 0 1 12.606670 4.331240 675.180298
273 0 1 12.354930 4.504260 676.009705
274 0 1 11.838610 4.719410 676.853210
275 0 1 11.343750 4.724190 677.740479
276 0 1 11.021870 4.616960 678.651978
277 0 1 10.947500 4.357080 679.585022
278 0 1 11.008520 4.117200 680.546021
279 0 1 11.265490 3.733600 681.449585
280 0 1 11.398809 3.665780 682.428711
281 0 1 11.408860 3.519800 683.386597
282 0 1 11.387800 3.511890 684.364197
283 0 1 11.029600 3.568520 685.310181
284 0 1 10.448370 3.372280 686.188599
285 0 1 9.872960 3.285660 686.975891
286 0 1 9.333020 3.139980 687.755371
287 0 1 8.691110 2.914190 688.424988
288 0 1 7.967429 2.658500 689.054321
289 0 1 7.559402 2.526820 689.868591
290 0 1 7.621590 2.530900 690.875183
291 0 1 7.672494 2.596410 691.797791
292 0 1 7.574795 2.522990 692.774597
293 0 1 7.186246 2.705170 693.594482
294 0 1 6.899000 3.059100 694.403992
295 0 1 6.946510 3.462760 695.235901
296 0 1 7.246043 4.051790 695.980286
297 0 1 7.168740 4.634500 696.802185
298 0 1 7.138914 5.052760 697.692627
299 0 1 7.135080 5.804980 698.331116
300 0 1 7.360432 6.654680 698.717407
301 0 1 7.470974 7.308906 699.377197
302 0 1 7.594127 7.960139 700.066284
303 0 1 7.634880 8.564544 700.745117
304 0 1 7.910191 8.948590 701.582825
305 0 1 7.813316 9.576400 702.349182
306 0 1 7.675816 10.147660 703.106506
307 0 1 7.799106 10.597530 703.924194
308 0 1 8.168443 10.985210 704.726074
309 0 1 8.283781 11.494500 705.559570
310 0 1 8.497674 12.013360 706.359924
311 0 1 8.768440 12.324181 707.250183
312 0 1 8.970880 12.680910 708.137573
313 0 1 9.186730 12.531870 709.107300
314 0 1 9.489300 12.260310 709.986084
315 0 1 9.547540 12.123270 710.937683
316 0 1 9.726750 11.839030 711.863708
317 0 1 9.753690 11.235080 712.680481
318 0 1 9.693870 10.779500 713.483521
319 0 1 9.531230 10.336540 714.366821
320 0 1 9.487660 9.695440 715.109192
321 0 1 9.561370 9.013400 715.934814
322 0 1 9.719020 8.287826 716.588318
323 0 1 9.669540 7.464846 717.182678
324 0 1 9.604570 6.774370 717.817627
325 0 1 9.223150 6.072860 718.374878
326 0 1 9.093540 5.710470 719.290283
327 0 1 9.170959 5.396010 720.224792
328 0 1 8.947819 4.978560 721.055908
329 0 1 8.889618 4.956990 722.060425
330 0 1 8.787734 5.096950 722.985474
331 0 1 9.084510 5.167010 723.887329
332 0 1 9.525080 5.191550 724.715393
333 0 1 9.945290 5.013070 725.610474
334 0 1 10.420731 4.983940 726.479309
335 0 1 10.333410 4.755430 727.420288
336 0 1 10.161340 4.182310 728.243896
337 0 1 10.159100 3.733350 729.091003
338 0 1 9.990400 3.349190 730.021973
339 0 1 9.401011 3.034340 730.700012
340 0 1 8.767432 3.096680 731.426025
341 0 1 8.223751 2.926000 732.210999
342 0 1 7.727231 3.108620 733.013000
343 0 1 7.076583 3.253330 733.687988
344 0 1 6.374680 3.484640 734.328979
345 0 1 5.656790 3.836020 734.869995
346 0 1 4.982840 4.456890 735.091980
347 0 1 4.270750 4.967480 735.504028
348 0 1 3.654650 5.289310 736.151001
349 0 1 3.412650 5.481920 737.007019
350 0 1 3.272350 5.823880 737.935974
351 0 1 3.073490 6.255650 738.872009
352 0 1 2.999850 6.359220 739.862976
353 0 1 2.576760 6.149710 740.679016
354 0 1 2.375380 5.914110 741.627014
355 0 1 2.070580 5.625220 742.476990
356 0 1 2.088160 5.443150 743.461975
357 0 1 2.074770 5.334550 744.453003
358 0 1 2.106210 5.445870 745.406982
359 0 1 2.359800 5.466900 746.335022
360 0 1 2.419350 5.584210 747.325989
361 0 1 2.519910 5.699930 748.266968
362 0 1 2.910750 5.794180 749.138000
363 0 1 3.331680 5.557730 750.044983
364 0 1 4.060950 5.556770 750.729004
365 0 1 4.406320 5.683310 751.679016
366 0 1 4.858840 5.697160 752.460022
367 0 1 5.121770 5.853550 753.375000
368 0 1 5.557190 5.904500 754.169006
369 0 1 5.795200 5.968580 755.119019
370 0 1 6.356510 5.932300 755.885986
371 0 1 7.111726 5.852590 756.546021
372 0 1 7.488011 5.742410 757.494019
373 0 1 7.624028 5.579920 758.417969
374 0 1 7.761131 6.063710 759.231018
375 0 1 7.855722 6.669120 759.968018
376 0 1 7.780224 7.028877 760.796021
377 0 1 7.740791 7.363318 761.655029
378 0 1 7.662361 7.666264 762.632996
379 0 1 7.447202 7.716573 763.578003
380 0 1 7.298549 7.780608 764.523987
381 0 1 7.418459 7.905711 765.469971
382 0 1 7.429197 7.829805 766.367981
383 0 1 7.309511 7.822110 767.309998
384 0 1 7.290472 7.810514 768.276001
385 0 1 7.288592 7.872418 769.223999
386 0 1 7.435991 8.177669 770.145020
387 0 1 7.627171 8.527479 770.971985
388 0 1 7.726578 8.957313 771.818970
389 0 1 7.901458 9.181290 772.807983
390 0 1 7.915974 9.617210 773.742981
391 0 1 8.123295 9.925260 774.609009
392 0 1 8.209600 10.195360 775.565979
393 0 1 8.322259 10.529860 776.438965
394 0 1 8.374001 10.838950 777.377991
395 0 1 8.353814 10.801080 778.343994
396 0 1 8.061275 10.667960 779.229980
397 0 1 7.677358 10.439460 780.106018
398 0 1 7.504440 10.190540 780.997986
399 0 1 7.223393 9.956990 781.927002
400 0 1 6.767540 9.767970 782.712036
401 0 1 6.562960 9.491950 783.593994
402 0 1 6.725770 9.155490 784.469971
403 0 1 6.831400 9.311110 785.395996
404 0 1 6.685750 9.234110 786.369019
405 0 1 6.576230 9.552890 787.275024
406 0 1 6.456490 9.648390 788.190002
407 0 1 6.184210 9.622570 789.156006
408 0 1 6.035210 9.469950 790.059998
409 0 1 5.870610 9.250840 790.901978
410 0 1 5.757970 9.041059 791.856018
411 0 1 5.653150 8.641311 792.799011
412 0 1 6.052120 8.214963 793.601990
413 0 1 6.413620 7.789867 794.421021
414 0 1 6.809250 7.342281 795.229004
415 0 1 7.151112 6.781190 795.964966
416 0 1 7.393344 6.059680 796.514038
417 0 1 7.834401 5.481930 797.132996
418 0 1 8.183748 5.009150 797.828979
419 0 1 8.639546 4.384410 798.474976
420 0 1 9.081690 4.008740 799.237000
421 0 1 9.631080 3.719200 799.992004
422 0 1 10.288950 3.566760 800.664001
423 0 1 10.762080 3.278370 801.442993
424 0 1 11.257880 3.087230 802.268005
425 0 1 11.511520 2.806500 803.167969
426 0 1 11.826020 2.558920 804.078979
427 0 1 12.108931 2.661340 805.007019
428 0 1 12.375970 2.961090 805.898987
429 0 1 12.412800 3.342290 806.744995
430 0 1 12.468571 3.769080 807.630005
431 0 1 12.629650 4.049990 808.551025
432 0 1 13.012569 4.407930 809.341003
433 0 1 13.267440 4.648040 810.242004
434 0 1 13.346570 4.568070 811.218994
435 0 1 13.371050 4.827400 812.167969
436 0 1 13.072850 5.118800 813.054016
437 0 1 12.904409 5.369750 813.905029
438 0 1 12.824860 5.545190 814.809021
439 0 1 12.896620 5.694360 815.695984
440 0 1 12.839320 6.170030 816.609009
441 0 1 12.994340 6.205870 817.568970
442 0 1 13.013929 6.312200 818.528015
443 0 1 13.041370 6.460970 819.468994
444 0 1 13.146800 6.728470 820.363037
445 0 1 13.087610 6.991430 821.311035
446 0 1 13.106279 7.136300 822.239990
447 0 1 13.526000 7.379045 823.182983
448 0 1 13.845100 7.711455 824.070007
449 0 1 13.813721 7.733681 825.080994
450 0 1 13.854219 7.678024 826.075012
451 0 1 13.923500 7.450062 826.981018
452 0 1 13.965490 6.986590 827.849976
453 0 1 14.152390 6.860460 828.773987
454 0 1 14.461170 6.909360 829.713013
455 0 1 14.724220 7.208596 830.684021
456 0 1 14.824699 7.144061 831.630005
457 0 1 14.528709 7.468215 832.474976
458 0 1 14.122220 7.813794 833.263000
459 0 1 13.976020 8.322009 834.099976
460 0 1 13.897921 8.995378 834.802002
461 0 1 13.705840 9.770690 835.419006
462 0 1 13.440229 10.605249 835.815979
463 0 1 12.930210 11.153770 836.353027
464 0 1 12.469860 11.925440 836.643005
465 0 1 11.751060 12.540340 836.929016
466 0 1 11.033810 13.135530 836.851990
467 0 1 10.418080 13.626340 836.351990
468 0 1 9.961480 14.310450 835.879028
469 0 1 9.456040 14.566151 835.070007
470 0 1 8.818131 14.457300 834.283020
471 0 1 8.122660 14.483430 833.554016
472 0 1 7.396774 14.408381 832.898010
473 0 1 6.791680 14.192520 832.171021
474 0 1 6.230630 13.862960 831.429016
475 0 1 5.818510 13.379030 830.687988
476 0 1 5.835920 12.617350 830.145996
477 0 1 5.800250 11.777451 829.653015
478 0 1 5.689540 11.049191 829.082031
479 0 1 5.906970 10.293080 828.513000
480 0 1 6.161070 9.503800 827.942017
481 0 1 6.395420 8.864445 827.205994
482 0 1 6.448230 8.277033 826.481018
483 0 1 6.550580 7.552307 825.841980
484 0 1 6.516760 6.767820 825.359985
485 0 1 6.805960 6.072500 824.760986
486 0 1 6.835870 5.657170 823.872009
487 0 1 6.834740 5.339440 822.950012
488 0 1 6.718300 5.096530 822.039001
489 0 1 6.595210 5.031980 821.093994
490 0 1 6.533690 5.008130 820.161987
491 0 1 6.376500 5.024320 819.179016
492 0 1 6.141710 4.930860 818.244995
493 0 1 6.124810 4.684040 817.250000
494 0 1 6.241880 4.478840 816.354004
495 0 1 6.368570 4.143070 815.505005
496 0 1 6.602290 3.834130 814.609985
497 0 1 6.950520 3.335160 813.875000
498 0 1 7.273543 2.934380 813.030029
499 0 1 7.577256 2.720330 812.080017
500 0 1 7.583046 2.426280 811.216980
501 0 1 7.539016 2.302080 810.271973
502 0 1 7.512353 2.278300 809.320984
503 0 1 7.325308 2.498140 808.429016
504 0 1 6.993170 2.539320 807.523987
505 0 1 6.628810 2.482640 806.608032
506 0 1 6.377880 2.583830 805.705017
507 0 1 6.009980 2.979660 804.875977
508 0 1 5.507700 3.162890 804.031006
509 0 1 5.294550 3.152650 803.164001
510 0 1 5.024360 3.474110 802.219971
511 0 1 4.731430 3.756620 801.354980
512 0 1 4.696340 4.287700 800.591980
513 0 1 4.662670 4.966600 799.905029
514 0 1 4.629250 5.744470 799.307983
515 0 1 4.761190 6.276980 798.500000
516 0 1 5.064110 6.968990 797.931030
517 0 1 5.289230 7.746173 797.516968
518 0 1 5.582130 8.481607 796.859985
519 0 1 5.873500 9.093690 796.257996
520 0 1 6.394440 9.504450 795.622986
521 0 1 6.881430 9.750120 794.832031
522 0 1 7.494878 10.002570 794.088989
523 0 1 8.069130 10.131310 793.359009
524 0 1 8.528250 10.147710 792.511963
525 0 1 8.969317 10.466430 791.693970
526 0 1 9.128960 10.606230 790.765015
527 0 1 9.026250 10.827271 789.893005
528 0 1 8.815424 10.855061 788.958008
529 0 1 8.966709 10.681750 788.014038
530 0 1 9.131030 10.623631 787.041016
531 0 1 9.332030 10.450100 786.114014
532 0 1 9.624050 10.229970 785.203003
533 0 1 9.777570 9.955300 784.304016
534 0 1 9.857400 9.475850 783.426025
535 0 1 10.295790 9.005180 782.646973
536 0 1 10.454610 8.530578 781.854980
537 0 1 10.527740 7.984331 781.101990
538 0 1 10.620399 7.444499 780.260986
539 0 1 10.476521 6.856010 779.514038
540 0 1 10.022660 6.529850 778.734985
541 0 1 9.545620 6.044540 778.056030
542 0 1 9.010060 5.739710 777.255981
543 0 1 8.508202 5.664970 776.458008
544 0 1 8.153509 5.591840 775.468018
545 0 1 7.928435 5.424920 774.528015
546 0 1 7.835453 4.900260 773.660034
547 0 1 7.744669 4.411900 772.825989
548 0 1 7.865810 3.585390 772.354980
549 0 1 7.839030 3.073510 771.575012
550 0 1 7.838729 2.434090 770.891968
551 0 1 8.339861 2.103660 770.091980
552 0 1 8.592580 1.696530 769.265015
553 0 1 8.620968 1.371240 768.362000
554 0 1 8.555370 1.308780 767.408020
555 0 1 8.641452 1.262070 766.462036
556 0 1 8.876213 1.289730 765.542969
557 0 1 9.229070 1.479520 764.630981
558 0 1 9.851140 1.553790 763.910034
559 0 1 10.176310 1.745860 762.966980
560 0 1 10.371370 2.126690 762.129028
561 0 1 10.773190 2.498540 761.291016
562 0 1 10.712749 2.723530 760.343994
563 0 1 10.449660 2.664050 759.362000
564 0 1 10.166389 2.820660 758.450989
565 0 1 9.977720 3.039170 757.557007
566 0 1 9.835340 3.346930 756.667969
567 0 1 9.545710 3.828970 755.908997
568 0 1 9.414030 4.226410 755.020996
569 0 1 9.049730 4.805680 754.195007
570 0 1 9.096980 5.434200 753.476990
571 0 1 9.084930 6.043470 752.747986
572 0 1 8.938269 6.784370 752.161987
573 0 1 9.027060 7.362567 751.406982
574 0 1 9.033270 7.622847 750.513977
575 0 1 9.056490 7.533729 749.424011
576 0 1 8.977186 7.276692 748.442993
577 0 1 8.972645 6.854170 747.583008
578 0 1 8.992642 6.620940 746.632996
579 0 1 9.059570 6.317290 745.729004
580 0 1 9.314600 6.068030 744.820007
581 0 1 9.608720 5.920560 743.910034
582 0 1 9.889130 5.830770 742.960999
583 0 1 10.258260 5.891020 742.033020
584 0 1 10.500880 6.243330 741.208008
585 0 1 10.549750 6.580180 740.297974
586 0 1 10.678101 7.178255 739.536987
587 0 1 10.548870 7.955001 738.964966
588 0 1 10.369170 8.803348 738.591980
589 0 1 10.202600 9.504210 737.927979
590 0 1 10.319380 10.046650 737.140991
591 0 1 10.724910 10.561410 736.481018
592 0 1 11.125040 11.067950 735.629028
593 0 1 11.296630 11.333130 734.656982
594 0 1 11.439270 11.619580 733.757996
595 0 1 11.517810 11.685180 732.775024
596 0 1 11.458170 11.932240 731.843018
597 0 1 11.100960 12.334110 730.971008
598 0 1 10.708690 12.589460 730.166992
599 0 1 10.402890 12.700630 729.332031
600 0 1 10.509541 12.779790 728.395203
601 0 1 10.956550 12.964211 727.526001
602 0 1 10.991080 13.498500 726.708496
603 0 1 10.903290 13.891460 725.785767
604 0 1 10.544980 14.099831 724.931274
605 0 1 10.401360 14.045589 723.989990
606 0 1 10.066000 14.117661 723.128723
607 0 1 9.812580 14.296220 722.144897
608 0 1 9.694180 14.426720 721.238892
609 0 1 9.531020 14.453979 720.327393
610 0 1 9.146560 14.617500 719.378113
611 0 1 8.785860 14.712350 718.510132
612 0 1 8.212932 14.800640 717.698975
613 0 1 7.670321 14.804860 716.911133
614 0 1 7.059893 14.722890 716.188416
615 0 1 6.482700 14.547640 715.454590
616 0 1 5.772920 14.254820 714.887024
617 0 1 5.220400 14.007700 714.103516
618 0 1 4.845640 13.877370 713.170715
619 0 1 4.586400 13.586300 712.266296
620 0 1 4.312560 13.327829 711.407593
621 0 1 4.105120 12.991990 710.512329
622 0 1 4.336250 12.746870 709.621704
623 0 1 4.555460 12.314590 708.749695
624 0 1 4.863480 11.952070 707.884033
625 0 1 5.131910 11.607610 706.967896
626 0 1 5.238710 11.487920 705.999695
627 0 1 5.437930 11.327600 705.113770
628 0 1 5.569590 11.288660 704.173889
629 0 1 5.559240 11.321790 703.246582
630 0 1 5.261560 11.360760 702.260132
631 0 1 5.302140 11.544170 701.337891
632 0 1 5.289830 11.762080 700.414429
633 0 1 5.327380 11.861970 699.369629
634 0 1 5.227980 11.890790 698.396973
635 0 1 5.113280 12.103320 697.389404
636 0 1 5.329230 12.207300 696.435913
637 0 1 5.561540 12.033171 695.516968
638 0 1 5.878340 12.027870 694.639526
639 0 1 5.871560 12.098220 693.661682
640 0 1 5.781360 11.770430 692.738708
641 0 1 6.076340 11.436120 691.862427
642 0 1 6.481900 11.333540 690.977417
643 0 1 7.006752 11.401320 690.174011
644 0 1 7.310989 11.551270 689.302795
645 0 1 7.575105 11.702070 688.422913
646 0 1 7.925665 11.691800 687.502991
647 0 1 8.267805 11.938510 686.589722
648 0 1 8.491763 11.919300 685.650208
649 0 1 8.676162 11.681680 684.691711
650 0 1 8.741037 11.246240 683.855713
651 0 1 8.864292 11.003030 682.954224
652 0 1 9.125130 10.458830 682.214172
653 0 1 9.101750 10.038651 681.338501
654 0 1 8.625037 9.719350 680.569519
655 0 1 8.329587 9.184010 679.771179
656 0 1 7.951081 8.836121 678.944092
657 0 1 7.627496 8.603983 678.080872
658 0 1 6.911820 8.178647 677.531494
659 0 1 6.133660 7.935129 677.086670
660 0 1 5.320260 7.936937 676.629883
661 0 1 4.513020 7.731957 676.067200
662 0 1 3.885480 7.523538 675.337708
663 0 1 3.265120 7.241122 674.669617
664 0 1 2.699780 6.815430 673.930176
665 0 1 2.429420 6.456260 673.090881
666 0 1 2.279390 6.153970 672.218628
667 0 1 1.917690 6.009230 671.278625
668 0 1 1.986050 5.706170 670.431091
669 0 1 1.997220 5.732280 669.442688
670 0 1 1.943810 5.715210 668.507324
671 0 1 2.185100 5.331330 667.688232
672 0 1 2.305830 5.420150 666.770203
673 0 1 2.607990 5.536190 665.880493
674 0 1 2.664560 5.861120 665.037476
675 0 1 2.528910 6.037030 664.116577
676 0 1 1.987720 6.138260 663.248413
677 0 1 1.536990 6.112440 662.425903
678 0 1 1.321530 6.611120 661.607788
679 0 1 1.373240 7.155622 660.824280
680 0 1 1.404700 7.697046 660.028076
681 0 1 1.666270 7.986242 659.165710
682 0 1 1.836820 8.001387 658.248169
683 0 1 1.945930 7.922410 657.238586
684 0 1 2.283780 7.811828 656.343872
685 0 1 2.776210 7.967849 655.497314
686 0 1 3.244500 8.225351 654.739197
687 0 1 3.730620 8.622393 653.948181
688 0 1 4.127110 8.855983 653.120789
689 0 1 4.396180 8.944986 652.184387
690 0 1 4.871400 8.861892 651.325500
691 0 1 5.340170 8.611384 650.501587
692 0 1 5.770470 8.518288 649.613403
693 0 1 6.063360 8.523132 648.662476
694 0 1 5.997340 8.799049 647.751099
695 0 1 6.172450 9.068080 646.852417
696 0 1 6.550150 9.256470 645.971008
697 0 1 7.133136 9.444760 645.252930
698 0 1 7.707619 9.528730 644.518921
699 0 1 8.262202 9.197670 643.750488
700 0 1 8.782215 9.056630 642.930420
701 0 1 9.040000 8.913840 642.076111
702 0 1 9.319670 8.919815 641.169800
703 0 1 9.921180 9.173250 640.500793
704 0 1 10.815870 9.225389 639.982117
705 0 1 11.668400 9.395920 639.660583
706 0 1 12.434560 9.370120 639.067993
707 0 1 13.063210 9.404800 638.372559
708 0 1 13.113990 9.038460 637.453491
709 0 1 13.003160 8.519956 636.651550
710 0 1 13.175830 7.903635 635.860535
711 0 1 13.196500 7.227671 635.179321
712 0 1 13.331480 6.593740 634.400696
713 0 1 13.311769 5.814330 633.708923
714 0 1 13.044570 5.314240 632.961914
715 0 1 12.474490 5.002320 632.221924
716 0 1 11.984050 4.912760 631.383362
717 0 1 11.398710 5.130680 630.682556
718 0 1 11.021900 5.631870 629.935242
719 0 1 10.738470 5.813610 629.004395
720 0 1 10.674290 5.939840 628.040588
721 0 1 10.571420 6.235200 627.182434
722 0 1 10.824990 6.581800 626.300903
723 0 1 10.723650 7.077206 625.470642
724 0 1 10.647860 7.646892 624.674255
725 0 1 10.725880 8.147143 623.889343
726 0 1 10.812870 8.777463 623.186035
727 0 1 11.144540 9.337111 622.396851
728 0 1 11.200020 9.984620 621.713257
729 0 1 11.482460 10.412330 620.931641
730 0 1 11.760070 10.885230 620.145813
731 0 1 11.894030 11.478800 619.368958
732 0 1 11.699780 12.164869 618.644470
733 0 1 11.386810 12.739220 617.907898
734 0 1 11.195100 12.929740 617.011719
735 0 1 10.946760 13.014270 616.120117
736 0 1 10.902390 13.065300 615.121277
737 0 1 11.179280 13.193850 614.209778
738 0 1 11.364861 13.099609 613.235474
739 0 1 11.585751 12.719470 612.346008
740 0 1 11.613990 12.334180 611.509399
741 0 1 11.634850 11.818930 610.696289
742 0 1 11.638220 11.272050 609.825623
743 0 1 11.503839 10.457951 609.241821
744 0 1 11.466790 9.618010 608.755310
745 0 1 11.160650 8.929164 608.186890
746 0 1 11.111510 8.281373 607.506714
747 0 1 11.226810 7.692927 606.786072
748 0 1 11.326241 7.008764 606.087524
749 0 1 11.345200 6.355250 605.459229
750 0 1 11.039780 5.984000 604.630371
751 0 1 10.651640 5.302050 603.924194
752 0 1 10.371220 4.931640 603.057373
753 0 1 10.384660 4.706300 602.125671
754 0 1 9.999370 4.870710 601.255188
755 0 1 9.628820 5.188240 600.427612
756 0 1 9.679850 5.181330 599.482178
757 0 1 9.650610 4.874980 598.550171
758 0 1 9.339680 4.413590 597.756775
759 0 1 9.218470 3.776260 597.033325
760 0 1 8.977977 3.214690 596.263123
761 0 1 8.586609 3.000660 595.429321
762 0 1 8.181714 2.718540 594.624573
763 0 1 7.843933 2.578150 593.748901
764 0 1 7.471194 2.550720 592.876587
765 0 1 6.999690 2.292600 592.114380
766 0 1 6.468470 1.926650 591.432373
767 0 1 5.785910 1.756530 590.739868
768 0 1 5.328250 1.758450 589.897888
769 0 1 4.767860 2.065400 589.194275
770 0 1 4.265880 2.577500 588.505005
771 0 1 3.813990 2.949540 587.712585
772 0 1 3.528590 3.388210 586.872620
773 0 1 3.367440 4.120390 586.250732
774 0 1 3.163680 4.881080 585.761719
775 0 1 2.892750 5.692690 585.332886
776 0 1 2.694590 6.378350 584.695679
777 0 1 2.631870 6.794650 583.738525
778 0 1 2.932590 6.784530 582.776917
779 0 1 3.258570 6.764020 581.879517
780 0 1 3.588680 6.426160 581.042969
781 0 1 3.918490 6.061350 580.197388
782 0 1 4.175040 5.629980 579.276672
783 0 1 4.479710 5.369900 578.381714
784 0 1 4.715980 5.072350 577.498169
785 0 1 4.959440 5.012070 576.609985
786 0 1 5.105480 4.904070 575.651917
787 0 1 5.217470 4.879640 574.697693
788 0 1 5.532530 4.727840 573.783020
789 0 1 5.755100 4.408800 572.854797
790 0 1 6.005690 4.226690 571.924377
791 0 1 6.008080 4.107450 570.959473
792 0 1 6.312820 4.078290 570.018005