LAMMPS data file via MDAnalysis

        1000  atoms
        1000  bonds
        1000  angles
           0  dihedrals
           0  impropers

           1  atom types
           1  bond types
           1  angle types
           0  dihedral types
           0  improper types

0.000000 16.000000 xlo xhi
0.000000 16.000000 ylo yhi
0.000000 1257.000000 zlo zhi


Masses

1 1.000000

Atoms

1 0 1 5.974170 8.869232 445.059998
2 0 1 5.560270 9.401070 445.708984
3 0 1 5.383060 9.734810 446.645020
4 0 1 5.691980 9.891650 447.496002
5 0 1 5.752980 10.206910 448.398987
6 0 1 5.613230 10.603010 449.325989
7 0 1 5.433560 10.641740 450.239014
8 0 1 4.865320 10.728880 451.052002
9 0 1 4.326670 10.861740 451.792999
10 0 1 3.707460 11.198800 452.434021
11 0 1 3.101050 11.595740 453.127991
12 0 1 2.797670 11.720650 454.072998
13 0 1 2.722620 11.696110 455.106995
14 0 1 2.683550 11.606870 456.028992
15 0 1 3.031590 11.243550 456.811005
16 0 1 3.326310 10.793430 457.677002
17 0 1 3.639380 10.158530 458.390015
18 0 1 4.028020 9.608870 459.049988
19 0 1 4.421300 9.054200 459.707001
20 0 1 4.731290 8.639103 460.572021
21 0 1 5.068470 8.243396 461.309021
22 0 1 5.319250 7.595500 461.987000
23 0 1 5.749770 7.216146 462.768005
24 0 1 6.098630 6.846210 463.580994
25 0 1 6.121810 6.231750 464.291992
26 0 1 5.947560 5.654840 465.096008
27 0 1 5.756020 5.338330 465.942017
28 0 1 5.651780 5.250240 466.885010
29 0 1 5.693820 5.594490 467.752991
30 0 1 5.942830 6.025100 468.667999
31 0 1 6.082560 6.591540 469.473999
32 0 1 6.291450 6.954680 470.369019
33 0 1 6.483660 7.318625 471.187012
34 0 1 6.771380 7.553189 472.033020
35 0 1 6.933370 8.056914 472.886993
36 0 1 7.099259 8.613744 473.666992
37 0 1 7.126340 9.205330 474.451996
38 0 1 7.460434 9.833480 475.112000
39 0 1 8.038667 10.282110 475.812988
40 0 1 8.441491 10.537370 476.703979
41 0 1 8.940641 10.928780 477.507019
42 0 1 9.368760 11.354500 478.235992
43 0 1 9.840650 11.609740 479.096008
44 0 1 10.120650 11.663651 480.002014
45 0 1 10.154520 11.804430 480.908020
46 0 1 10.424550 12.026800 481.796997
47 0 1 10.589010 12.044240 482.735992
48 0 1 10.786140 11.958000 483.687012
49 0 1 11.368840 11.912730 484.524994
50 0 1 11.685200 11.968500 485.505005
51 0 1 12.195499 12.075661 486.322021
52 0 1 12.581079 12.139500 487.161011
53 0 1 12.859930 12.266050 488.106995
54 0 1 12.803740 12.525140 489.091980
55 0 1 12.862320 12.848490 490.028015
56 0 1 12.923810 12.854380 490.955994
57 0 1 12.496480 12.621920 491.851990
58 0 1 12.129990 12.269520 492.645996
59 0 1 11.707000 11.739660 493.302002
60 0 1 11.137850 11.632890 494.052002
61 0 1 10.874400 11.340210 494.958984
62 0 1 10.781710 11.355440 495.885010
63 0 1 10.564170 11.133940 496.794983
64 0 1 10.268480 10.688260 497.641998
65 0 1 10.318230 10.381930 498.523010
66 0 1 10.241240 10.481430 499.492004
67 0 1 10.548310 10.203150 500.367004
68 0 1 10.363580 10.189140 501.274994
69 0 1 10.206200 10.381730 502.188995
70 0 1 10.038230 10.314100 503.169983
71 0 1 9.954620 10.383950 504.171997
72 0 1 9.693630 10.491060 505.101990
73 0 1 9.503240 10.626770 506.058990
74 0 1 9.373080 10.998159 506.931000
75 0 1 9.151730 11.386600 507.807983
76 0 1 8.870463 11.451880 508.734009
77 0 1 8.928527 11.349421 509.695007
78 0 1 9.002460 11.424480 510.656982
79 0 1 8.912659 11.230630 511.596985
80 0 1 8.689210 10.879010 512.426025
81 0 1 8.658948 10.390970 513.323975
82 0 1 8.263023 9.773960 514.004028
83 0 1 7.790641 9.248900 514.724976
84 0 1 7.430763 8.683741 515.447021
85 0 1 7.293269 8.367455 516.374023
86 0 1 7.233497 8.106743 517.338013
87 0 1 7.202822 7.968047 518.302979
88 0 1 7.237377 7.719455 519.317993
89 0 1 7.464959 7.559236 520.195007
90 0 1 7.485798 7.282571 521.098022
91 0 1 7.513925 6.933270 522.031006
92 0 1 7.333478 6.659330 522.900024
93 0 1 7.114685 6.300240 523.773010
94 0 1 6.762520 6.019110 524.565002
95 0 1 6.456070 5.873680 525.416016
96 0 1 5.960050 5.916270 526.229004
97 0 1 5.625370 6.131300 527.096985
98 0 1 5.231390 5.971340 527.945007
99 0 1 5.186490 5.653850 528.819580
100 0 1 5.266760 5.344680 529.730469
101 0 1 5.544800 5.415320 530.688599
102 0 1 5.857170 5.557860 531.558777
103 0 1 6.317530 5.735660 532.443115
104 0 1 6.740110 6.052280 533.311523
105 0 1 7.287937 6.321240 534.145386
106 0 1 7.694205 6.909570 534.788208
107 0 1 7.962743 7.450770 535.481812
108 0 1 8.208524 8.104215 536.097778
109 0 1 8.197726 8.862292 536.742126
110 0 1 8.463095 9.472430 537.441772
111 0 1 8.459262 10.083050 538.159790
112 0 1 8.485429 10.528950 539.034607
113 0 1 8.398294 11.136770 539.845825
114 0 1 8.248996 11.389150 540.749207
115 0 1 8.049045 11.803070 541.647888
116 0 1 8.132420 12.072880 542.532410
117 0 1 8.556907 12.484159 543.328308
118 0 1 9.132890 12.710260 544.059021
119 0 1 9.471700 12.888010 544.905029
120 0 1 9.679860 13.014430 545.799622
121 0 1 10.098021 12.837009 546.687378
122 0 1 10.353390 12.695360 547.589722
123 0 1 10.452240 12.492500 548.572388
124 0 1 10.679760 12.290490 549.526001
125 0 1 10.951139 12.108110 550.381409
126 0 1 11.096340 12.164090 551.346191
127 0 1 11.054720 12.407200 552.351379
128 0 1 10.935640 12.288640 553.270691
129 0 1 10.849590 12.675730 554.166992
130 0 1 10.839410 12.799300 555.091797
131 0 1 10.907810 13.063480 555.988525
132 0 1 11.169470 13.161591 556.890686
133 0 1 11.348550 13.007660 557.871826
134 0 1 11.530610 12.874990 558.766418
135 0 1 11.876650 12.655710 559.654907
136 0 1 12.323151 12.359370 560.483276
137 0 1 12.458630 12.325900 561.432617
138 0 1 12.158160 12.331329 562.395325
139 0 1 11.972480 12.418390 563.411926
140 0 1 11.577500 12.579639 564.301575
141 0 1 11.320450 12.657710 565.199585
142 0 1 10.993470 12.538270 566.062988
143 0 1 10.678220 12.265261 567.002380
144 0 1 10.385920 12.104879 567.984985
145 0 1 9.920230 11.900850 568.811096
146 0 1 9.430850 11.635490 569.544373
147 0 1 8.819263 11.552870 570.364197
148 0 1 8.414999 11.284190 571.207886
149 0 1 7.850740 10.916140 571.918091
150 0 1 7.146177 10.745740 572.530579
151 0 1 6.793000 10.455481 573.390320
152 0 1 6.371750 10.158680 574.210815
153 0 1 6.016600 9.659050 574.966980
154 0 1 5.684730 9.000560 575.625183
155 0 1 5.184390 8.402569 576.246216
156 0 1 4.821520 7.854087 576.994080
157 0 1 4.302210 7.383436 577.629578
158 0 1 3.823190 6.809070 578.238098
159 0 1 3.342510 6.435910 578.940979
160 0 1 3.149420 6.216420 579.843811
161 0 1 3.212360 6.101450 580.858215
162 0 1 3.454810 5.757410 581.701477
163 0 1 4.236160 5.465320 582.277588
164 0 1 4.628630 5.265200 583.135315
165 0 1 5.085210 4.996370 583.954712
166 0 1 5.379990 4.825810 584.899780
167 0 1 5.549850 4.853840 585.820496
168 0 1 6.018580 4.964920 586.612610
169 0 1 6.417760 4.996570 587.467285
170 0 1 6.774300 4.625500 588.263794
171 0 1 7.234530 4.313290 589.074829
172 0 1 7.746965 3.842670 589.751404
173 0 1 8.247775 3.359200 590.358215
174 0 1 8.604274 2.986940 591.212097
175 0 1 9.080500 2.684550 592.083496
176 0 1 9.421920 2.594920 592.954102
177 0 1 9.624450 2.877510 593.909424
178 0 1 9.813760 3.189270 594.799805
179 0 1 10.096889 3.334510 595.722473
180 0 1 10.123199 3.429320 596.678772
181 0 1 9.893250 3.756040 597.590698
182 0 1 9.548720 4.369530 598.267029
183 0 1 9.275960 4.848970 599.076172
184 0 1 8.992592 5.267240 599.882690
185 0 1 8.794988 5.670470 600.765198
186 0 1 8.513882 5.830580 601.705383
187 0 1 8.198460 6.057220 602.595276
188 0 1 7.934698 6.523820 603.462402
189 0 1 7.798559 6.823650 604.341003
190 0 1 7.726236 7.008359 605.260803
191 0 1 7.800560 7.307093 606.146423
192 0 1 8.015803 7.793216 606.917725
193 0 1 8.227435 8.189626 607.794922
194 0 1 8.457385 8.771342 608.573792
195 0 1 8.536999 9.076970 609.493225
196 0 1 8.511484 9.550460 610.372498
197 0 1 8.520520 9.956990 611.233276
198 0 1 8.623035 10.160370 612.187622
199 0 1 8.517429 10.292160 613.185791
200 0 1 8.438218 10.350980 614.165588
201 0 1 8.176294 10.257720 615.092896
202 0 1 7.884569 9.696010 615.919922
203 0 1 7.736551 9.323430 616.859619
204 0 1 7.497440 9.078430 617.746094
205 0 1 7.381841 9.081740 618.746521
206 0 1 7.277431 8.703833 619.562988
207 0 1 7.186632 8.530949 620.471313
208 0 1 7.014501 8.575207 621.444458
209 0 1 6.712660 8.537071 622.372131
210 0 1 6.700810 8.648907 623.315491
211 0 1 6.827440 8.792131 624.271851
212 0 1 6.897760 8.980232 625.251709
213 0 1 6.997460 9.282640 626.201355
214 0 1 6.811610 9.831670 626.985352
215 0 1 6.637090 10.137260 627.836609
216 0 1 6.574620 10.536770 628.675110
217 0 1 6.602360 11.028960 629.472656
218 0 1 6.564580 11.177390 630.439941
219 0 1 6.537650 11.098550 631.410828
220 0 1 6.552000 11.187700 632.409668
221 0 1 6.561570 11.184510 633.376648
222 0 1 6.442360 11.254030 634.362549
223 0 1 6.521540 11.490340 635.268738
224 0 1 6.693150 11.915751 636.144836
225 0 1 6.597550 12.310830 636.955139
226 0 1 6.570780 12.597890 637.823364
227 0 1 6.656100 12.892530 638.757202
228 0 1 6.711510 12.930000 639.690491
229 0 1 6.882690 12.737320 640.674622
230 0 1 7.207526 12.466311 641.573975
231 0 1 7.605144 12.047080 642.426697
232 0 1 7.742723 12.007589 643.434326
233 0 1 8.036058 11.667419 644.279724
234 0 1 8.258532 11.021840 644.969727
235 0 1 8.205886 10.601151 645.752197
236 0 1 8.218944 10.207510 646.632874
237 0 1 8.500907 9.438610 647.170776
238 0 1 9.090130 8.969749 647.808777
239 0 1 9.915840 8.534683 648.189026
240 0 1 10.575660 7.939519 648.521423
241 0 1 11.311090 7.540644 649.074402
242 0 1 12.041410 7.276832 649.612488
243 0 1 12.803619 6.998930 650.111816
244 0 1 13.364429 6.347900 650.614319
245 0 1 13.815411 5.835780 651.318726
246 0 1 14.120610 5.589370 652.249329
247 0 1 14.377780 5.766460 653.159119
248 0 1 14.592170 5.896890 654.135315
249 0 1 14.450100 5.902630 655.139282
250 0 1 14.074750 5.873620 655.989197
251 0 1 14.176840 5.672940 656.908020
252 0 1 14.027861 5.573230 657.874512
253 0 1 13.829130 5.583540 658.783508
254 0 1 13.509520 5.553670 659.736328
255 0 1 12.832710 5.569040 660.435425
256 0 1 12.225630 5.327830 661.162415
257 0 1 11.769540 4.696300 661.662476
258 0 1 11.327830 4.000090 662.101624
259 0 1 10.899120 3.451420 662.779114
260 0 1 10.379550 2.909960 663.353516
261 0 1 9.687230 2.757120 664.000122
262 0 1 9.162640 3.156600 664.721313
263 0 1 8.753227 3.301410 665.630188
264 0 1 8.720846 3.866990 666.400696
265 0 1 8.799354 3.955890 667.388611
266 0 1 9.127100 3.868330 668.342712
267 0 1 9.346730 3.982710 669.277893
268 0 1 9.425280 4.335380 670.194824
269 0 1 9.322371 4.359060 671.244812
270 0 1 9.060130 4.149890 672.116516
271 0 1 8.831356 4.086100 673.067322
272 0 1 8.569553 3.825100 674.026794
273 0 1 8.605525 3.586170 674.933228
274 0 1 8.932378 3.315870 675.830688
275 0 1 9.262270 3.002490 676.683105
276 0 1 9.497180 2.313850 677.292114
277 0 1 9.590650 1.999920 678.169006
278 0 1 9.721880 1.653960 679.063782
279 0 1 9.779590 1.830330 680.042603
280 0 1 9.808080 2.314560 680.833008
281 0 1 9.854620 2.745910 681.650818
282 0 1 9.622110 2.911400 682.576294
283 0 1 9.696110 3.018640 683.556396
284 0 1 9.612170 2.830170 684.502930
285 0 1 9.631580 2.825880 685.518982
286 0 1 9.758950 2.649740 686.512085
287 0 1 10.001820 2.572300 687.480408
288 0 1 10.600100 2.515340 688.276917
289 0 1 11.096900 2.441510 689.091980
290 0 1 11.469950 2.426750 690.016174
291 0 1 11.786200 2.415760 690.905884
292 0 1 12.156361 2.531250 691.762512
293 0 1 12.382460 2.806850 692.699585
294 0 1 12.519670 3.184740 693.598267
295 0 1 12.428520 3.291560 694.552917
296 0 1 12.311029 3.445360 695.560303
297 0 1 12.340780 3.508450 696.588806
298 0 1 12.135220 3.126090 697.471497
299 0 1 12.034690 2.881090 698.408813
300 0 1 11.687960 2.675460 699.326599
301 0 1 11.578740 2.770510 700.259277
302 0 1 11.330530 2.783360 701.197693
303 0 1 11.300420 2.785640 702.137878
304 0 1 11.419640 3.314460 702.978882
305 0 1 11.444500 3.862350 703.799194
306 0 1 11.065760 4.257440 704.592896
307 0 1 10.609100 4.566330 705.409607
308 0 1 10.276720 4.839530 706.292114
309 0 1 9.710450 5.069780 706.998596
310 0 1 9.461160 5.157250 707.918884
311 0 1 9.011780 5.345050 708.742188
312 0 1 8.450496 5.444330 709.543884
313 0 1 8.214469 5.450740 710.479980
314 0 1 8.078514 5.416300 711.456726
315 0 1 7.812421 5.592430 712.391785
316 0 1 7.320347 5.724700 713.223877
317 0 1 6.681520 6.044330 713.864075
318 0 1 6.056770 6.478150 714.504395
319 0 1 5.509780 6.524880 715.320496
320 0 1 5.014570 6.813890 716.031982
321 0 1 4.534230 7.368111 716.613525
322 0 1 4.265850 7.898828 717.378113
323 0 1 4.083420 8.450062 718.151978
324 0 1 3.654300 8.871045 718.911926
325 0 1 3.292510 9.327480 719.719910
326 0 1 3.200160 10.003780 720.394104
327 0 1 3.325120 10.659790 721.051392
328 0 1 3.575010 11.418819 721.567200
329 0 1 3.868140 12.090139 722.119812
330 0 1 4.055770 12.533080 723.005310
331 0 1 3.900780 12.579320 723.927368
332 0 1 4.017250 12.699961 724.875488
333 0 1 4.421760 12.475190 725.846375
334 0 1 4.481300 12.549250 726.811890
335 0 1 4.602680 12.261061 727.719971
336 0 1 4.686020 11.837600 728.560974
337 0 1 4.769010 11.570620 729.455017
338 0 1 4.675860 11.586670 730.411987
339 0 1 4.655340 11.755750 731.354004
340 0 1 4.866970 11.793591 732.302979
341 0 1 5.109510 11.918030 733.221985
342 0 1 5.099890 12.201500 734.145996
343 0 1 4.931700 12.378759 735.072021
344 0 1 4.665610 12.231911 736.015991
345 0 1 4.624740 12.157209 737.028015
346 0 1 4.634070 12.083040 738.078979
347 0 1 4.739060 11.829010 739.007019
348 0 1 4.917420 11.832340 740.025024
349 0 1 4.876880 11.673870 740.966980
350 0 1 4.964720 11.328920 741.856018
351 0 1 5.260170 10.950330 742.721008
352 0 1 5.511760 10.689660 743.703003
353 0 1 5.847660 10.495710 744.606018
354 0 1 6.272450 10.332240 745.429993
355 0 1 6.536760 10.272860 746.333008
356 0 1 6.769380 10.254440 747.276978
357 0 1 7.178099 10.138440 748.134033
358 0 1 7.008444 9.747980 749.044006
359 0 1 7.023630 9.449180 749.976990
360 0 1 7.123777 9.012040 750.817993
361 0 1 7.267326 8.812906 751.804016
362 0 1 7.285053 8.618609 752.742004
363 0 1 7.058134 8.545080 753.645020
364 0 1 6.832640 8.296744 754.541992
365 0 1 6.724730 8.282974 755.539978
366 0 1 6.783500 8.149923 756.460999
367 0 1 6.639200 8.064452 757.443970
368 0 1 6.414500 7.982186 758.466003
369 0 1 6.189290 7.745990 759.382019
370 0 1 5.574180 7.666034 760.125000
371 0 1 5.186540 7.801134 760.999023
372 0 1 4.756640 8.024639 761.833008
373 0 1 4.205540 8.347072 762.640015
374 0 1 3.832660 8.453800 763.520996
375 0 1 3.648290 8.695310 764.408020
376 0 1 3.311280 8.640860 765.278992
377 0 1 3.115060 8.778112 766.161987
378 0 1 3.291350 9.074960 767.073975
379 0 1 3.439450 9.181960 768.026001
380 0 1 3.630510 9.497530 768.931030
381 0 1 3.603130 9.503540 769.856018
382 0 1 3.667580 9.499070 770.792969
383 0 1 3.781450 9.225830 771.745972
384 0 1 3.695780 8.933905 772.700012
385 0 1 3.690870 8.694467 773.643005
386 0 1 3.635590 8.644364 774.598999
387 0 1 3.624960 8.465778 775.572998
388 0 1 3.440560 8.356924 776.445984
389 0 1 3.437910 8.431989 777.421997
390 0 1 3.537760 8.246026 778.377991
391 0 1 3.517820 7.903812 779.273010
392 0 1 3.554450 7.469576 780.096985
393 0 1 3.348740 6.880330 780.896973
394 0 1 3.212240 6.208930 781.723022
395 0 1 3.162660 5.907810 782.653015
396 0 1 3.225760 5.599190 783.572021
397 0 1 3.266310 5.401210 784.483032
398 0 1 3.219570 5.429790 785.471008
399 0 1 3.029170 5.650500 786.369019
400 0 1 2.911010 5.622210 787.502014
401 0 1 2.982490 5.589130 788.468994
402 0 1 3.345300 5.619620 789.382996
403 0 1 3.432990 5.615800 790.291992
404 0 1 3.560790 5.650540 791.271973
405 0 1 3.744200 5.880150 792.234009
406 0 1 3.791330 6.120380 793.156006
407 0 1 4.030980 6.454110 794.078003
408 0 1 4.256860 6.838770 794.903992
409 0 1 4.757720 7.204453 795.682983
410 0 1 5.228590 7.598871 796.479980
411 0 1 5.847690 7.739295 797.226013
412 0 1 6.318070 7.770032 798.020996
413 0 1 6.803930 7.561679 798.843018
414 0 1 7.404268 7.394016 799.632996
415 0 1 7.961458 7.163666 800.359985
416 0 1 8.446067 7.169440 801.213989
417 0 1 8.953831 7.097461 802.044983
418 0 1 9.288760 7.103037 802.960999
419 0 1 9.542920 7.314483 803.877014
420 0 1 9.891270 7.394004 804.760986
421 0 1 10.126450 7.621209 805.640015
422 0 1 10.221570 7.764283 806.596985
423 0 1 10.211990 8.007770 807.523987
424 0 1 10.174870 8.280125 808.518005
425 0 1 10.122480 8.635591 809.476990
426 0 1 10.132190 8.962147 810.408997
427 0 1 9.870050 9.105340 811.364014
428 0 1 9.403970 9.185320 812.247009
429 0 1 8.993645 8.906807 813.188965
430 0 1 8.410844 8.642770 813.889038
431 0 1 8.035967 8.169929 814.598022
432 0 1 7.691910 7.911565 815.453979
433 0 1 7.491528 7.585112 816.291016
434 0 1 7.409314 7.265041 817.315979
435 0 1 6.960740 6.987760 818.174988
436 0 1 6.726070 6.944010 819.164001
437 0 1 6.596260 6.849150 820.070984
438 0 1 6.439050 6.939620 821.011963
439 0 1 6.269880 7.031029 821.968994
440 0 1 6.005210 7.167319 822.932007
441 0 1 5.727060 7.287134 823.877014
442 0 1 5.600600 7.539050 824.785034
443 0 1 5.347750 8.038051 825.660034
444 0 1 4.923620 8.316900 826.447998
445 0 1 4.451940 8.481270 827.235962
446 0 1 3.919910 8.554492 827.992004
447 0 1 3.313180 8.725646 828.729980
448 0 1 3.019410 8.551674 829.651978
449 0 1 2.622220 8.285305 830.481995
450 0 1 2.307360 8.282390 831.403015
451 0 1 2.029260 8.485579 832.260010
452 0 1 2.022510 8.531542 833.261963
453 0 1 2.104620 8.420400 834.205994
454 0 1 2.364730 8.177099 835.085022
455 0 1 3.119540 8.287405 835.674011
456 0 1 4.000920 8.142638 836.143005
457 0 1 4.822550 7.792051 836.520996
458 0 1 5.639100 7.610610 837.036987
459 0 1 6.519960 7.460997 837.374023
460 0 1 7.378915 7.083951 837.674988
461 0 1 8.139005 6.630610 838.155029
462 0 1 9.062570 6.459430 838.193970
463 0 1 9.940220 6.358570 837.849976
464 0 1 10.922210 6.276200 837.385010
465 0 1 11.641581 6.360390 836.755005
466 0 1 12.222990 6.520460 836.004028
467 0 1 12.706250 6.651120 835.197998
468 0 1 12.396700 7.086390 834.432983
469 0 1 12.335680 7.382801 833.523987
470 0 1 12.109011 7.685528 832.596008
471 0 1 11.955350 8.014239 831.729980
472 0 1 11.751560 8.471943 830.893982
473 0 1 11.608521 8.962312 830.059998
474 0 1 11.859740 9.275570 829.195007
475 0 1 12.165800 9.548100 828.389038
476 0 1 12.526340 9.877340 827.535034
477 0 1 12.610840 10.135740 826.585999
478 0 1 12.809410 10.314450 825.695984
479 0 1 12.824261 10.437270 824.726990
480 0 1 12.821751 10.430080 823.702026
481 0 1 12.755020 10.091110 822.744019
482 0 1 12.690900 9.933760 821.797974
483 0 1 12.552700 9.862930 820.900024
484 0 1 12.440710 9.716390 819.911987
485 0 1 11.764620 9.714570 819.109985
486 0 1 11.039070 9.729500 818.484009
487 0 1 10.341520 9.763470 817.789978
488 0 1 9.618250 9.445090 817.188965
489 0 1 8.924865 9.083640 816.583984
490 0 1 8.310388 9.195310 815.869019
491 0 1 7.577288 9.033970 815.160034
492 0 1 7.040095 8.792340 814.445984
493 0 1 6.697240 8.413025 813.612000
494 0 1 6.467990 8.013091 812.807007
495 0 1 5.879810 7.627940 812.000977
496 0 1 5.302580 7.833815 811.223022
497 0 1 4.797350 7.623022 810.432983
498 0 1 4.403260 7.598162 809.598999
499 0 1 4.123480 7.731322 808.690979
500 0 1 4.266630 7.666497 807.738037
501 0 1 4.278930 7.740441 806.739990
502 0 1 4.405710 7.732084 805.797974
503 0 1 4.656680 7.962105 804.869995
504 0 1 5.012830 8.083397 804.026978
505 0 1 5.721870 8.255357 803.382996
506 0 1 6.215290 8.383210 802.598999
507 0 1 6.667710 8.650313 801.815979
508 0 1 6.954800 8.837765 800.867004
509 0 1 6.806910 9.046640 799.968018
510 0 1 6.756170 9.513140 799.125977
511 0 1 6.617600 9.939170 798.271973
512 0 1 6.586770 10.319660 797.339966
513 0 1 6.658470 10.659730 796.434021
514 0 1 7.109173 10.768610 795.518005
515 0 1 7.362690 11.087440 794.636963
516 0 1 7.566741 11.393539 793.766968
517 0 1 7.727002 11.626240 792.898987
518 0 1 8.037800 11.773460 791.960999
519 0 1 8.496582 12.191310 791.210999
520 0 1 8.920089 12.502860 790.341980
521 0 1 9.026950 12.632160 789.341980
522 0 1 8.956114 12.566299 788.389038
523 0 1 8.976591 12.541800 787.452026
524 0 1 8.762742 12.309320 786.500000
525 0 1 8.713539 12.152760 785.573975
526 0 1 8.658104 11.915970 784.658997
527 0 1 8.594766 11.763720 783.700989
528 0 1 8.292007 11.567900 782.885986
529 0 1 7.904396 11.268170 782.078979
530 0 1 7.417747 11.491390 781.359985
531 0 1 6.751450 11.482970 780.660034
532 0 1 6.200640 11.696830 779.942017
533 0 1 5.777600 11.886360 779.051025
534 0 1 5.720740 11.919690 778.156982
535 0 1 5.455520 11.681450 777.197998
536 0 1 5.436280 11.568710 776.261963
537 0 1 5.575910 11.640660 775.252014
538 0 1 5.599010 11.626550 774.302002
539 0 1 5.578350 11.460270 773.377014
540 0 1 5.335760 11.028830 772.575012
541 0 1 5.418640 10.536760 771.768005
542 0 1 5.893060 9.835890 771.325012
543 0 1 6.329350 9.080710 770.895996
544 0 1 6.837420 8.348652 770.585999
545 0 1 7.462565 7.820350 770.114990
546 0 1 7.725847 7.234467 769.382996
547 0 1 7.911680 6.788840 768.567017
548 0 1 8.004744 6.215760 767.731018
549 0 1 8.102737 5.726310 766.974976
550 0 1 8.460143 5.599120 766.068970
551 0 1 9.071360 5.253970 765.473999
552 0 1 9.835790 5.154850 764.818970
553 0 1 10.610370 5.054790 764.240967
554 0 1 11.163340 4.953140 763.453003
555 0 1 11.646450 5.018370 762.593018
556 0 1 12.057159 5.178940 761.760010
557 0 1 12.359711 5.580860 760.905029
558 0 1 12.544109 5.941270 760.002014
559 0 1 12.404420 6.377030 759.134033
560 0 1 12.347691 6.684090 758.229004
561 0 1 12.420910 7.060653 757.369995
562 0 1 12.524300 7.405707 756.464966
563 0 1 12.477261 7.904130 755.658997
564 0 1 12.495020 8.559412 754.981018
565 0 1 12.326790 9.287700 754.325989
566 0 1 12.129390 9.780650 753.565979
567 0 1 12.097919 10.266800 752.723999
568 0 1 11.942200 10.576070 751.794983
569 0 1 11.853460 10.585030 750.835022
570 0 1 11.644410 10.555180 749.849976
571 0 1 11.521300 10.613840 748.851990
572 0 1 11.458860 10.587630 747.833008
573 0 1 11.410630 10.349710 746.856995
574 0 1 11.584480 10.196210 745.914978
575 0 1 11.541080 9.837510 745.031006
576 0 1 11.417240 9.456260 744.208008
577 0 1 11.061720 9.367940 743.333008
578 0 1 10.541370 9.264900 742.546021
579 0 1 10.226490 9.308120 741.656982
580 0 1 9.924570 9.432120 740.759033
581 0 1 9.553380 9.480970 739.828979
582 0 1 8.966759 9.452660 739.119995
583 0 1 8.640695 9.705260 738.271973
584 0 1 8.394142 10.185190 737.422974
585 0 1 8.293982 10.699830 736.609009
586 0 1 8.405485 10.995690 735.637024
587 0 1 8.275881 11.254080 734.742981
588 0 1 8.169546 11.341500 733.794006
589 0 1 7.908343 11.165450 732.862000
590 0 1 8.002635 11.242390 731.854980
591 0 1 7.834142 11.370280 730.927979
592 0 1 7.598578 11.221500 730.007996
593 0 1 7.314700 11.266860 729.156982
594 0 1 6.834870 11.430570 728.250916
595 0 1 6.658080 11.796619 727.322632
596 0 1 6.848130 11.906281 726.376526
597 0 1 6.958720 12.000040 725.440491
598 0 1 7.250834 12.094390 724.534119
599 0 1 7.390160 12.319019 723.644775
600 0 1 7.609771 12.388690 722.720886
601 0 1 8.241766 12.557030 722.082825
602 0 1 8.557071 12.540990 721.154419
603 0 1 8.676359 12.586470 720.242981
604 0 1 8.796714 12.606270 719.348083
605 0 1 8.795203 12.449120 718.387512
606 0 1 8.490969 12.248170 717.526794
607 0 1 7.946095 12.083640 716.734680
608 0 1 7.200821 12.008200 716.108032
609 0 1 6.695140 11.961110 715.350220
610 0 1 6.249520 11.908560 714.545776
611 0 1 5.673530 11.895750 713.749390
612 0 1 5.100690 11.481760 713.103271
613 0 1 4.486750 11.116970 712.558105
614 0 1 3.882580 10.967690 711.809814
615 0 1 3.225440 11.005930 711.100586
616 0 1 2.811580 10.771111 710.272217
617 0 1 2.336310 10.581010 709.379089
618 0 1 2.260610 10.059071 708.653503
619 0 1 2.179470 9.413290 708.003601
620 0 1 2.702120 8.960254 707.301819
621 0 1 2.868080 8.411662 706.502014
622 0 1 2.894320 7.953279 705.669067
623 0 1 2.842730 7.715525 704.748169
624 0 1 2.807880 7.483456 703.839111
625 0 1 2.905810 7.719305 702.891418
626 0 1 3.173670 7.977399 702.006714
627 0 1 3.794750 8.142231 701.293579
628 0 1 4.331150 8.346616 700.464966
629 0 1 4.600520 8.611643 699.534668
630 0 1 5.278340 8.717980 698.775818
631 0 1 5.778830 8.724163 698.008423
632 0 1 5.988620 8.934931 697.048706
633 0 1 6.015150 9.017420 696.000305
634 0 1 5.870540 9.042620 695.072632
635 0 1 5.401150 9.209670 694.252380
636 0 1 4.903730 9.570360 693.501526
637 0 1 4.786870 9.693060 692.540283
638 0 1 4.687220 9.619990 691.614502
639 0 1 4.530540 9.382540 690.655701
640 0 1 4.467360 9.066370 689.731689
641 0 1 4.316600 8.956505 688.700073
642 0 1 4.014940 8.822881 687.786377
643 0 1 3.757940 8.675113 686.848328
644 0 1 3.631500 8.790267 685.887817
645 0 1 3.645150 8.693310 684.914124
646 0 1 3.889610 8.787283 684.022217
647 0 1 3.912170 8.433649 683.058411
648 0 1 4.269120 8.491032 682.194397
649 0 1 4.678600 8.738522 681.334778
650 0 1 5.067480 9.059680 680.465210
651 0 1 5.350370 9.364690 679.608704
652 0 1 5.550620 9.848690 678.819519
653 0 1 5.782850 10.308620 677.983032
654 0 1 6.224010 10.602551 677.119324
655 0 1 6.701710 10.905940 676.369324
656 0 1 7.183409 11.251650 675.558716
657 0 1 7.476630 11.580450 674.661316
658 0 1 7.347496 11.726851 673.730713
659 0 1 6.923860 11.994440 672.892212
660 0 1 6.572860 11.885920 671.989685
661 0 1 6.301070 11.325710 671.215088
662 0 1 6.350050 10.714530 670.508606
663 0 1 6.483290 9.960330 669.923584
664 0 1 6.618080 9.281390 669.235229
665 0 1 6.590750 8.543817 668.600525
666 0 1 6.584000 7.962948 667.825623
667 0 1 6.204020 7.302717 667.003296
668 0 1 5.859970 7.094003 666.116577
669 0 1 5.632750 6.796790 665.236694
670 0 1 5.662120 6.503060 664.347473
671 0 1 5.524180 6.020450 663.536804
672 0 1 5.483400 5.793040 662.576599
673 0 1 5.678120 5.800930 661.587097
674 0 1 6.055920 5.759310 660.718384
675 0 1 6.577240 5.947090 659.932800
676 0 1 7.023070 6.043610 659.113586
677 0 1 7.349256 6.147520 658.207214
678 0 1 7.923714 5.965600 657.521790
679 0 1 8.469836 5.593540 656.783325
680 0 1 9.150800 5.568210 656.123718
681 0 1 9.931040 5.671150 655.546021
682 0 1 10.461370 6.185040 654.948792
683 0 1 10.681380 6.589370 654.105713
684 0 1 10.623159 7.083848 653.272522
685 0 1 10.612360 7.776966 652.610718
686 0 1 10.629510 8.436390 651.909180
687 0 1 10.422800 9.095030 651.210693
688 0 1 9.811069 9.624550 650.591797
689 0 1 9.234360 10.126280 650.050598
690 0 1 8.513687 10.380460 649.462402
691 0 1 7.940495 10.577380 648.645813
692 0 1 7.503895 10.611930 647.781616
693 0 1 7.063450 10.575790 646.894714
694 0 1 6.807390 10.769810 645.987488
695 0 1 6.598760 10.565090 645.031677
696 0 1 6.263750 10.141040 644.207397
697 0 1 6.026430 10.006050 643.288391
698 0 1 5.968390 10.031480 642.340393
699 0 1 5.791370 10.063280 641.357117
700 0 1 5.812980 10.213020 640.436584
701 0 1 6.178460 10.329650 639.585083
702 0 1 6.764770 10.567150 638.770020
703 0 1 7.178283 10.648200 637.870911
704 0 1 7.416196 11.042220 636.994446
705 0 1 7.655160 11.563110 636.099365
706 0 1 7.809168 12.132580 635.334656
707 0 1 7.875166 12.571510 634.510498
708 0 1 8.023301 12.873000 633.645691
709 0 1 8.374181 13.054930 632.785950
710 0 1 8.848094 13.428699 632.035950
711 0 1 9.063280 14.046350 631.276245
712 0 1 9.514380 14.335110 630.432373
713 0 1 10.003571 14.270531 629.550476
714 0 1 10.414280 13.897840 628.695618
715 0 1 10.787960 13.464140 627.941772
716 0 1 11.139140 13.135630 627.100830
717 0 1 11.537760 12.748440 626.324890
718 0 1 11.892210 12.479811 625.499084
719 0 1 12.010059 12.436290 624.529541
720 0 1 12.037360 12.451480 623.504761
721 0 1 12.205481 12.321560 622.525269
722 0 1 12.302919 12.068590 621.553955
723 0 1 12.104740 11.834060 620.633423
724 0 1 12.385500 11.464750 619.687561
725 0 1 12.386920 11.125950 618.758057
726 0 1 12.102470 10.801040 617.848389
727 0 1 11.458340 10.719560 617.067505
728 0 1 10.851160 10.328920 616.372925
729 0 1 10.271950 9.977870 615.691711
730 0 1 9.550740 9.537000 615.215515
731 0 1 8.798356 9.131710 614.646912
732 0 1 8.075180 8.926440 614.054321
733 0 1 7.501805 8.528440 613.290710
734 0 1 6.682990 8.318833 612.826111
735 0 1 5.891120 8.279515 612.320496
736 0 1 5.038010 8.367006 611.980286
737 0 1 4.156240 8.166301 611.609314
738 0 1 3.484750 8.181698 610.948303
739 0 1 2.962120 8.340333 610.118103
740 0 1 2.489470 8.704213 609.331726
741 0 1 2.253400 8.772130 608.476318
742 0 1 2.256540 8.918648 607.490295
743 0 1 2.165760 9.273650 606.671692
744 0 1 2.118440 9.676090 605.759827
745 0 1 2.301860 9.764390 604.748108
746 0 1 2.330190 9.434610 603.838684
747 0 1 2.087710 9.210011 602.952515
748 0 1 2.462910 8.914710 602.107300
749 0 1 2.945750 8.565963 601.313293
750 0 1 3.519220 8.092893 600.676086
751 0 1 3.880210 7.851458 599.775085
752 0 1 4.067040 7.658683 598.856628
753 0 1 4.457410 7.582597 597.937927
754 0 1 5.047360 7.390087 597.222412
755 0 1 5.457820 7.145387 596.364197
756 0 1 6.019110 6.951540 595.651794
757 0 1 6.570800 7.004045 594.833191
758 0 1 7.084906 7.261900 594.081787
759 0 1 7.439693 6.964640 593.114868
760 0 1 7.823234 6.617570 592.260803
761 0 1 8.006850 6.191140 591.411987
762 0 1 8.290867 5.621880 590.612976
763 0 1 8.735518 4.892480 590.082520
764 0 1 9.052930 4.195460 589.508484
765 0 1 9.356520 3.916020 588.659668
766 0 1 9.627260 3.361350 587.959290
767 0 1 10.371161 2.892140 587.551392
768 0 1 10.745080 2.292750 586.981995
769 0 1 10.839890 1.977500 586.047607
770 0 1 10.849840 1.801190 585.093201
771 0 1 10.892250 2.017160 584.160583
772 0 1 11.171830 2.163360 583.263123
773 0 1 11.093060 2.149420 582.326782
774 0 1 11.392050 2.256910 581.332214
775 0 1 11.236530 2.533860 580.362183
776 0 1 10.938770 2.904580 579.518982
777 0 1 10.599240 3.417830 578.798401
778 0 1 10.515380 3.739910 577.900818
779 0 1 10.683790 4.021010 576.977905
780 0 1 10.518360 4.480820 576.111572
781 0 1 10.048370 5.244480 575.557312
782 0 1 9.811430 5.906270 574.858032
783 0 1 9.391410 6.768870 574.492126
784 0 1 9.124940 7.445721 573.896973
785 0 1 8.790789 8.033419 573.253784
786 0 1 8.369788 8.658833 572.681702
787 0 1 7.965852 9.255410 572.029602
788 0 1 7.638744 9.729200 571.246704
789 0 1 7.445715 10.264690 570.486084
790 0 1 7.062582 10.834060 569.814026