LAMMPS data file via MDAnalysis

        1000  atoms
        1000  bonds
        1000  angles
           0  dihedrals
           0  impropers

           1  atom types
           1  bond types
           1  angle types
           0  dihedral types
           0  improper types

0.000000 16.000000 xlo xhi
0.000000 16.000000 ylo yhi
0.000000 1257.000000 zlo zhi


Masses

1 1.000000

Atoms

1 0 1 6.434540 6.846090 456.231995
2 0 1 6.624190 6.770960 457.177002
3 0 1 6.816440 7.010722 458.075012
4 0 1 7.256512 7.008679 458.923004
5 0 1 7.630184 6.778670 459.760986
6 0 1 7.996992 6.417940 460.575989
7 0 1 7.888743 6.212740 461.552002
8 0 1 7.880637 6.241240 462.596008
9 0 1 7.988026 6.402300 463.533997
10 0 1 8.169664 6.303350 464.502991
11 0 1 8.121553 5.723840 465.408020
12 0 1 7.995049 5.652340 466.317017
13 0 1 7.773381 5.491150 467.291992
14 0 1 7.289184 5.310770 468.121002
15 0 1 6.678540 5.378700 468.851990
16 0 1 6.148000 5.589730 469.651978
17 0 1 5.746600 5.720800 470.544006
18 0 1 5.212910 5.991150 471.298004
19 0 1 4.786400 6.342060 472.122986
20 0 1 4.147130 6.725060 472.697021
21 0 1 3.963890 7.049904 473.580994
22 0 1 3.798060 7.396967 474.483002
23 0 1 3.627320 7.983335 475.253998
24 0 1 3.316230 8.637094 475.938995
25 0 1 3.059930 8.857836 476.843994
26 0 1 2.649290 9.008970 477.700989
27 0 1 2.242650 9.340320 478.533020
28 0 1 1.939140 9.453480 479.520996
29 0 1 1.856370 9.601620 480.505005
30 0 1 1.881660 9.804540 481.468018
31 0 1 1.962730 9.943420 482.417999
32 0 1 1.859010 10.014910 483.425995
33 0 1 1.764620 10.013820 484.338989
34 0 1 1.694480 9.860010 485.324005
35 0 1 1.722670 9.850730 486.252991
36 0 1 2.046800 9.969300 487.203003
37 0 1 2.326090 10.201160 488.093018
38 0 1 2.668050 10.645781 488.950012
39 0 1 3.294950 11.077610 489.548004
40 0 1 3.862510 11.178880 490.283997
41 0 1 4.631990 11.329570 490.908997
42 0 1 5.446500 11.603330 491.453003
43 0 1 6.316400 11.653440 491.886993
44 0 1 7.057459 11.562960 492.549011
45 0 1 7.676039 11.515280 493.255981
46 0 1 7.948639 11.139730 494.125000
47 0 1 8.447394 10.914530 494.916992
48 0 1 8.912076 10.726470 495.726013
49 0 1 9.437020 10.813350 496.494019
50 0 1 9.781880 10.816750 497.350006
51 0 1 9.913580 10.749371 498.309998
52 0 1 9.999670 10.597540 499.251007
53 0 1 10.517100 10.594360 500.104004
54 0 1 10.853340 10.937740 500.976013
55 0 1 10.917680 11.213950 501.912994
56 0 1 10.993880 11.021990 502.812988
57 0 1 11.407000 10.910290 503.697998
58 0 1 11.898970 10.674920 504.489990
59 0 1 12.359470 10.438890 505.246002
60 0 1 12.875020 10.212780 506.011993
61 0 1 13.283700 9.676270 506.692993
62 0 1 13.543800 9.234740 507.667999
63 0 1 13.821899 8.854201 508.515015
64 0 1 13.778080 8.610649 509.445984
65 0 1 13.608980 8.302166 510.394989
66 0 1 13.492240 8.090717 511.354004
67 0 1 13.475250 8.170055 512.268005
68 0 1 13.383739 8.269924 513.163025
69 0 1 13.720640 8.357795 513.997009
70 0 1 14.207670 8.144666 514.788025
71 0 1 14.658131 7.977340 515.624023
72 0 1 14.929211 7.880979 516.612976
73 0 1 14.890779 7.863842 517.614990
74 0 1 14.796170 7.910601 518.578979
75 0 1 14.879440 8.019461 519.523987
76 0 1 14.886120 8.200270 520.457031
77 0 1 14.746300 8.313116 521.401978
78 0 1 14.542990 8.568421 522.356995
79 0 1 14.068029 8.825021 523.219971
80 0 1 13.628170 8.937808 524.064026
81 0 1 13.056749 9.043040 524.781982
82 0 1 12.493230 9.328170 525.483032
83 0 1 11.999210 9.773420 526.145020
84 0 1 11.313890 10.190360 526.687988
85 0 1 10.486720 10.359540 527.309998
86 0 1 9.763990 10.423070 528.057983
87 0 1 9.061080 10.634710 528.650208
88 0 1 8.238445 11.005500 529.009094
89 0 1 7.499282 11.416530 529.454834
90 0 1 6.676530 11.680090 529.875610
91 0 1 5.948290 11.903580 530.430298
92 0 1 5.480640 12.126600 531.281189
93 0 1 5.033250 12.172490 532.096008
94 0 1 4.580110 11.959400 532.959717
95 0 1 4.198960 11.715651 533.800476
96 0 1 3.820330 11.292780 534.531006
97 0 1 3.691080 10.922240 535.414429
98 0 1 3.947450 10.489201 536.225403
99 0 1 3.909730 10.367229 537.172913
100 0 1 3.737740 10.159250 538.161804
101 0 1 3.412310 9.827540 539.024475
102 0 1 3.484650 9.417550 539.867493
103 0 1 3.947770 9.164650 540.670593
104 0 1 4.264040 8.855891 541.502808
105 0 1 4.605290 8.904847 542.449707
106 0 1 5.076450 8.949452 543.233398
107 0 1 5.500320 9.102250 544.096985
108 0 1 5.548450 9.470490 544.981689
109 0 1 5.852270 9.820210 545.888428
110 0 1 5.896220 10.108960 546.878784
111 0 1 6.095400 10.356791 547.754028
112 0 1 6.487700 10.570730 548.578308
113 0 1 6.834670 10.616710 549.468079
114 0 1 7.242400 10.633560 550.314697
115 0 1 7.615757 10.332720 551.129822
116 0 1 7.816592 9.836210 551.962891
117 0 1 8.057999 9.061470 552.497681
118 0 1 8.128216 8.167989 552.893799
119 0 1 8.147877 7.297875 553.337524
120 0 1 8.394149 6.422180 553.766785
121 0 1 8.194551 5.781890 554.483276
122 0 1 7.907181 5.166710 555.225525
123 0 1 7.904280 4.747840 556.079712
124 0 1 8.084894 4.608050 557.072083
125 0 1 8.248954 4.691110 558.042786
126 0 1 8.452948 5.111290 558.884583
127 0 1 8.756468 5.435460 559.735596
128 0 1 8.861146 5.619740 560.724609
129 0 1 9.042770 5.611750 561.657776
130 0 1 9.225490 5.627010 562.634705
131 0 1 9.464430 5.518610 563.673828
132 0 1 9.651260 5.629930 564.570618
133 0 1 9.375270 5.729910 565.446777
134 0 1 9.072770 5.969430 566.390869
135 0 1 8.692007 6.534470 567.091614
136 0 1 8.310556 7.294102 567.612488
137 0 1 7.801400 7.894740 568.143005
138 0 1 7.287765 8.487371 568.691528
139 0 1 6.518100 8.930849 569.189819
140 0 1 5.855540 8.978842 569.903076
141 0 1 5.367000 9.163880 570.775818
142 0 1 5.003340 9.411680 571.605774
143 0 1 4.754900 9.664940 572.588684
144 0 1 4.306540 9.884439 573.409607
145 0 1 3.555670 9.793140 574.053528
146 0 1 3.106330 9.754780 574.938782
147 0 1 2.914240 9.840300 575.850220
148 0 1 2.787270 10.188480 576.763916
149 0 1 2.651920 10.286230 577.714172
150 0 1 2.743460 9.923200 578.637085
151 0 1 2.745890 9.387860 579.472107
152 0 1 2.810850 8.848248 580.371399
153 0 1 2.677070 8.547979 581.260498
154 0 1 2.619220 8.286564 582.173889
155 0 1 2.690940 8.484694 583.125000
156 0 1 2.874840 8.780104 584.029907
157 0 1 3.316380 9.053660 584.845215
158 0 1 3.787160 8.934056 585.657715
159 0 1 4.098950 8.810056 586.535522
160 0 1 4.484070 8.633460 587.436584
161 0 1 4.940330 8.560771 588.262207
162 0 1 5.188750 8.570361 589.112183
163 0 1 5.546800 8.468601 589.986206
164 0 1 5.710190 8.680634 590.959229
165 0 1 5.966000 8.761524 591.895874
166 0 1 5.968280 9.226300 592.774780
167 0 1 5.817910 9.599330 593.598877
168 0 1 5.717780 10.234600 594.330078
169 0 1 5.380730 10.756210 595.043396
170 0 1 4.858680 11.261420 595.673889
171 0 1 4.692250 11.650480 596.506409
172 0 1 4.480070 11.987110 597.390808
173 0 1 4.413770 12.161489 598.371826
174 0 1 4.309230 12.431499 599.292908
175 0 1 4.392940 12.707860 600.209229
176 0 1 4.300730 12.823050 601.167419
177 0 1 4.158520 12.900470 602.074280
178 0 1 4.267490 12.714080 603.034302
179 0 1 4.330730 12.544240 604.003723
180 0 1 4.455800 12.372379 604.952820
181 0 1 4.473900 12.337460 605.901001
182 0 1 4.445280 12.192551 606.875610
183 0 1 4.413890 11.820050 607.842773
184 0 1 4.328470 11.485160 608.745300
185 0 1 4.227850 11.677070 609.731201
186 0 1 4.109960 11.542300 610.661194
187 0 1 4.086040 11.273710 611.560974
188 0 1 4.213680 11.195690 612.492004
189 0 1 4.274210 11.017580 613.469299
190 0 1 4.283700 10.812970 614.419678
191 0 1 4.241580 10.833139 615.334106
192 0 1 4.271150 10.659690 616.263489
193 0 1 4.219290 10.564380 617.254028
194 0 1 4.496870 10.272300 618.120178
195 0 1 5.008000 10.286260 618.929016
196 0 1 5.389010 10.316710 619.770203
197 0 1 5.541030 10.421860 620.711060
198 0 1 5.695490 10.706970 621.622681
199 0 1 5.457270 11.055531 622.523132
200 0 1 5.094150 11.320060 623.375854
201 0 1 4.907190 11.981330 624.074097
202 0 1 4.614780 12.231871 624.999634
203 0 1 4.548170 12.509040 626.028381
204 0 1 4.622120 12.742661 627.040649
205 0 1 4.559890 12.887290 628.006592
206 0 1 4.664400 12.923491 628.929688
207 0 1 4.807380 12.969990 629.911987
208 0 1 4.853060 13.034580 630.878662
209 0 1 4.977690 13.122180 631.841980
210 0 1 4.906720 13.070840 632.817932
211 0 1 4.884060 13.003719 633.774963
212 0 1 4.853230 13.121230 634.770203
213 0 1 4.838110 13.492870 635.611267
214 0 1 5.098810 13.880320 636.450684
215 0 1 5.214040 14.033820 637.405090
216 0 1 5.474330 14.141410 638.307007
217 0 1 5.849390 14.263910 639.184021
218 0 1 6.285550 14.280610 640.024902
219 0 1 6.968590 14.269751 640.695679
220 0 1 7.693299 14.289930 641.282227
221 0 1 8.514746 14.185460 641.825806
222 0 1 9.194260 13.987520 642.515076
223 0 1 9.748440 13.644250 643.253723
224 0 1 10.365020 13.515430 644.015991
225 0 1 10.638220 13.246090 644.857483
226 0 1 11.031549 12.923491 645.659790
227 0 1 11.231920 12.928930 646.590271
228 0 1 11.368470 12.976709 647.487976
229 0 1 11.436190 13.009010 648.432922
230 0 1 11.439520 13.297400 649.375977
231 0 1 11.377450 13.264420 650.289795
232 0 1 11.260460 13.523251 651.168701
233 0 1 11.126220 13.529119 652.109619
234 0 1 11.082860 13.557800 653.084412
235 0 1 11.207541 13.472870 654.039917
236 0 1 11.161800 13.261950 654.982422
237 0 1 11.262210 13.106670 655.914185
238 0 1 11.352921 12.910800 656.960205
239 0 1 11.259990 12.720110 657.898987
240 0 1 10.997700 12.426090 658.765808
241 0 1 10.646280 12.391650 659.705811
242 0 1 10.288730 12.595221 660.600220
243 0 1 9.621140 12.729280 661.271729
244 0 1 8.970268 12.591330 661.975403
245 0 1 8.439759 12.342860 662.715393
246 0 1 7.865843 12.150710 663.478577
247 0 1 7.270152 12.065630 664.204468
248 0 1 6.859390 11.817940 665.039185
249 0 1 6.645410 11.224800 665.812500
250 0 1 6.611690 10.703740 666.558594
251 0 1 6.609770 10.078160 667.329895
252 0 1 6.521530 9.435220 668.046997
253 0 1 6.176710 8.653094 668.516602
254 0 1 6.081250 7.798696 669.101379
255 0 1 6.093570 7.219551 669.820190
256 0 1 6.006310 6.916140 670.746399
257 0 1 6.126820 6.646870 671.685181
258 0 1 6.430670 6.311790 672.554321
259 0 1 6.798470 6.008300 673.358398
260 0 1 7.218775 5.901390 674.252625
261 0 1 7.487855 5.925570 675.180725
262 0 1 8.136257 6.089900 675.997681
263 0 1 8.695542 6.181730 676.734680
264 0 1 9.192950 6.152330 677.609314
265 0 1 9.510860 6.236180 678.444275
266 0 1 9.941880 6.399550 679.336426
267 0 1 10.198030 6.335380 680.252319
268 0 1 10.408930 5.839310 681.093384
269 0 1 10.548150 5.447450 682.005371
270 0 1 10.424580 5.036070 682.873169
271 0 1 10.516010 4.906890 683.792297
272 0 1 10.821380 4.729640 684.667480
273 0 1 11.309940 4.591820 685.487427
274 0 1 11.968160 4.372370 686.216125
275 0 1 12.558620 4.163920 686.999573
276 0 1 13.054060 4.038890 687.806702
277 0 1 13.406361 4.148530 688.676025
278 0 1 13.347230 4.299360 689.661621
279 0 1 13.309320 4.438640 690.648071
280 0 1 13.346280 4.593470 691.636230
281 0 1 13.259780 4.861220 692.559082
282 0 1 12.883360 5.176680 693.406616
283 0 1 12.383881 5.397840 694.185120
284 0 1 11.884360 5.617780 694.957397
285 0 1 11.628690 6.168620 695.771118
286 0 1 11.123650 6.586950 696.409302
287 0 1 10.422500 6.790060 697.056274
288 0 1 9.794430 7.078339 697.819275
289 0 1 9.461750 7.171865 698.767700
290 0 1 9.169420 7.199632 699.648682
291 0 1 8.745154 7.205044 700.539001
292 0 1 8.595023 6.651140 701.327271
293 0 1 8.231701 6.272280 702.197693
294 0 1 8.028612 5.838290 702.999084
295 0 1 8.004367 5.282820 703.806824
296 0 1 7.965894 4.812930 704.668701
297 0 1 7.990493 4.523290 705.564575
298 0 1 8.252611 4.229200 706.571594
299 0 1 8.592247 4.076180 707.516296
300 0 1 8.778137 4.296790 708.424072
301 0 1 8.872706 4.414940 709.306396
302 0 1 9.339980 4.575140 710.170532
303 0 1 9.812890 4.997400 710.910889
304 0 1 10.293530 5.334100 711.822998
305 0 1 10.488840 5.585900 712.812134
306 0 1 10.787500 5.869370 713.636230
307 0 1 10.814060 6.233620 714.516724
308 0 1 10.790870 6.646240 715.372070
309 0 1 10.703590 7.064305 716.240601
310 0 1 10.390020 7.694721 717.012512
311 0 1 10.023920 8.148790 717.746094
312 0 1 9.582650 8.408286 718.598999
313 0 1 9.498569 8.624742 719.468872
314 0 1 9.637740 8.409097 720.340210
315 0 1 9.764890 8.503788 721.336426
316 0 1 9.711800 8.848485 722.202881
317 0 1 9.745690 9.112850 723.118286
318 0 1 9.584600 9.461870 724.070312
319 0 1 9.200310 9.966690 724.795410
320 0 1 8.684928 10.203310 725.567200
321 0 1 8.181902 10.272640 726.433594
322 0 1 7.713448 10.392270 727.234802
323 0 1 7.082972 10.278160 728.013306
324 0 1 6.687100 10.218070 728.926025
325 0 1 6.231140 9.602090 729.562012
326 0 1 5.599060 8.850443 729.836975
327 0 1 5.050890 8.160976 730.179993
328 0 1 4.277020 7.619822 730.406006
329 0 1 3.782900 6.895570 730.724976
330 0 1 3.492200 6.314720 731.443970
331 0 1 3.074640 5.943310 732.174011
332 0 1 2.643060 5.795280 733.015015
333 0 1 2.512810 5.388730 733.942993
334 0 1 2.443230 5.029880 734.791016
335 0 1 2.347240 4.652890 735.645996
336 0 1 2.553050 4.395770 736.530029
337 0 1 2.863930 4.208330 737.481995
338 0 1 3.260830 4.047030 738.398010
339 0 1 3.777690 4.072840 739.226013
340 0 1 4.477820 3.981130 739.874023
341 0 1 5.117530 4.268070 740.549011
342 0 1 5.856490 4.296520 741.146973
343 0 1 6.608330 4.465050 741.775024
344 0 1 7.375963 4.509060 742.411011
345 0 1 8.025668 4.560440 743.184998
346 0 1 8.275285 4.700930 744.166016
347 0 1 8.195881 4.980620 745.047974
348 0 1 8.161523 5.385200 745.854980
349 0 1 8.051982 5.716740 746.783997
350 0 1 8.020664 5.868540 747.766968
351 0 1 7.737013 6.009240 748.612000
352 0 1 7.311517 6.100550 749.586975
353 0 1 6.942390 6.198360 750.487976
354 0 1 6.577070 6.555350 751.285034
355 0 1 6.313060 7.059019 752.080017
356 0 1 5.853190 7.433106 752.885010
357 0 1 5.414430 7.630759 753.710022
358 0 1 4.631350 7.625969 754.297974
359 0 1 3.964960 7.577754 755.085022
360 0 1 3.504890 7.473680 755.966980
361 0 1 3.071950 7.495761 756.848999
362 0 1 2.753760 7.675126 757.750000
363 0 1 2.331750 7.904111 758.643982
364 0 1 2.065480 8.280652 759.466003
365 0 1 1.719510 8.479210 760.388000
366 0 1 1.523390 8.572426 761.306030
367 0 1 1.553320 8.412002 762.242004
368 0 1 1.387350 8.408488 763.239014
369 0 1 1.344120 8.635458 764.150024
370 0 1 1.194410 8.804873 765.085999
371 0 1 1.165110 8.784622 766.052979
372 0 1 1.492660 8.785264 766.957031
373 0 1 1.706960 8.629616 767.815002
374 0 1 2.148190 8.672999 768.681030
375 0 1 2.453520 8.716382 769.604004
376 0 1 2.901050 8.314679 770.400024
377 0 1 3.013990 7.893433 771.244019
378 0 1 3.192970 7.503130 772.070007
379 0 1 3.599130 7.078855 772.867004
380 0 1 3.994540 6.876800 773.783020
381 0 1 4.133400 7.120877 774.757019
382 0 1 4.253020 7.003891 775.734985
383 0 1 4.604610 6.854000 776.546997
384 0 1 5.315030 6.663710 777.263000
385 0 1 5.637880 6.515490 778.188965
386 0 1 6.048520 6.552690 779.013000
387 0 1 6.445850 6.401060 779.936035
388 0 1 7.085766 6.415260 780.632996
389 0 1 7.702983 6.394480 781.364014
390 0 1 8.465243 6.591670 781.922974
391 0 1 8.974618 6.670550 782.744019
392 0 1 9.362930 6.674410 783.596985
393 0 1 9.598130 6.579470 784.604004
394 0 1 9.752030 6.606780 785.539001
395 0 1 9.747670 7.025267 786.405029
396 0 1 9.669910 7.596667 787.067993
397 0 1 9.289120 8.151320 787.718994
398 0 1 8.596246 8.494105 788.286011
399 0 1 7.930571 8.820826 788.922974
400 0 1 7.718511 9.340940 789.658997
401 0 1 7.227059 9.812360 790.317993
402 0 1 6.794620 10.157640 791.089966
403 0 1 6.401710 10.537020 791.874023
404 0 1 6.400510 10.819360 792.799011
405 0 1 6.537090 10.906490 793.781982
406 0 1 6.436540 11.286790 794.733032
407 0 1 6.534330 11.813710 795.585022
408 0 1 6.504890 12.206030 796.414001
409 0 1 6.634710 12.442490 797.393982
410 0 1 6.476840 12.820000 798.255005
411 0 1 6.226940 13.457050 798.929016
412 0 1 6.294790 13.800650 799.854004
413 0 1 6.342730 14.016460 800.807983
414 0 1 6.400810 13.869471 801.731018
415 0 1 6.394200 13.712959 802.734009
416 0 1 6.347890 13.605080 803.697998
417 0 1 6.101150 13.550520 804.656006
418 0 1 5.717620 13.278481 805.528015
419 0 1 5.449850 12.993990 806.393982
420 0 1 5.633630 12.570630 807.296021
421 0 1 5.691970 12.079880 808.108032
422 0 1 5.967490 11.760420 808.974976
423 0 1 5.972880 11.214730 809.765991
424 0 1 5.754090 10.756720 810.622986
425 0 1 5.655480 10.561300 811.551025
426 0 1 5.615290 10.636040 812.453979
427 0 1 5.584070 10.431459 813.330017
428 0 1 5.428400 9.835120 814.132019
429 0 1 5.215470 9.107150 814.775024
430 0 1 5.451290 8.288463 815.276978
431 0 1 5.616030 7.564301 815.859009
432 0 1 5.746180 6.901210 816.541992
433 0 1 5.954870 6.254680 817.265015
434 0 1 6.147720 5.832750 818.106018
435 0 1 6.222110 5.558090 819.023987
436 0 1 6.121800 5.170850 819.893005
437 0 1 6.245800 4.902830 820.776978
438 0 1 6.452220 4.761310 821.697998
439 0 1 6.344540 4.535830 822.617004
440 0 1 6.275800 4.773940 823.544983
441 0 1 5.901800 4.480140 824.483032
442 0 1 5.554800 4.232110 825.301025
443 0 1 5.162630 4.060090 826.207031
444 0 1 4.950800 3.573020 826.987000
445 0 1 4.628220 3.095340 827.822021
446 0 1 4.385100 2.921210 828.734009
447 0 1 3.974570 2.797210 829.588013
448 0 1 3.679150 2.851010 830.523987
449 0 1 3.684530 2.900680 831.458984
450 0 1 3.545660 3.256820 832.367981
451 0 1 3.420480 3.757840 833.171997
452 0 1 3.430260 4.431710 833.922974
453 0 1 3.695020 5.068830 834.646973
454 0 1 3.819040 5.698110 835.335022
455 0 1 3.933370 6.562740 835.781982
456 0 1 4.092560 7.484908 836.093018
457 0 1 4.035230 8.428863 836.223999
458 0 1 4.359850 9.296800 835.953003
459 0 1 4.805550 10.072070 835.557007
460 0 1 5.175640 10.898220 835.129028
461 0 1 5.578110 11.503480 834.393005
462 0 1 5.806950 11.978100 833.632996
463 0 1 6.057640 12.396370 832.787964
464 0 1 6.312870 12.796310 831.987000
465 0 1 6.401320 12.845250 831.059998
466 0 1 6.372230 12.874570 830.141968
467 0 1 6.460610 12.733630 829.216003
468 0 1 6.781190 12.656860 828.218994
469 0 1 7.014669 12.644520 827.250977
470 0 1 7.398117 12.441970 826.337036
471 0 1 7.785790 12.305651 825.427979
472 0 1 8.266810 11.914030 824.690979
473 0 1 9.035000 11.647940 824.101013
474 0 1 9.599051 11.416690 823.325012
475 0 1 10.230110 11.353251 822.666992
476 0 1 10.656360 11.103960 821.838989
477 0 1 11.308350 11.036470 821.057007
478 0 1 11.598330 10.953850 820.169983
479 0 1 11.923110 10.801331 819.358032
480 0 1 11.929250 10.671680 818.438965
481 0 1 11.799570 10.305280 817.518982
482 0 1 11.414790 10.008280 816.757996
483 0 1 11.052050 9.899210 815.858032
484 0 1 10.727190 9.734140 814.989990
485 0 1 10.726950 9.706370 814.002991
486 0 1 10.964650 9.964370 813.124023
487 0 1 11.161560 10.347820 812.301025
488 0 1 11.254940 10.593630 811.343994
489 0 1 11.464030 10.767870 810.385010
490 0 1 11.654290 10.708930 809.437012
491 0 1 11.911480 10.863310 808.528992
492 0 1 11.961411 11.198640 807.651001
493 0 1 11.985160 11.397970 806.718994
494 0 1 11.916010 11.248790 805.761963
495 0 1 12.082029 11.440010 804.825989
496 0 1 12.262360 11.398960 803.869995
497 0 1 12.158300 11.050890 803.026978
498 0 1 11.837460 10.613320 802.270996
499 0 1 11.719210 10.182580 801.370972
500 0 1 11.627480 9.366710 800.820007
501 0 1 11.546900 8.596115 800.273010
502 0 1 11.584681 7.879665 799.601013
503 0 1 11.466710 7.252538 798.843994
504 0 1 11.582460 6.847640 797.994019
505 0 1 11.627240 6.582740 797.052979
506 0 1 11.299870 6.554080 796.117981
507 0 1 10.854610 6.507440 795.260010
508 0 1 10.373770 6.235540 794.466003
509 0 1 9.741130 6.140800 793.705017
510 0 1 9.202900 6.192050 792.906006
511 0 1 8.628374 6.218100 792.148987
512 0 1 8.199235 6.453750 791.276978
513 0 1 7.678848 6.406950 790.443970
514 0 1 7.484792 6.617350 789.562988
515 0 1 7.485410 6.734500 788.672974
516 0 1 7.051228 6.853900 787.838989
517 0 1 6.708180 6.900540 786.880005
518 0 1 6.470960 6.991890 785.911011
519 0 1 6.191200 6.888080 784.966980
520 0 1 6.041200 6.676790 784.080994
521 0 1 5.866920 6.732590 783.140991
522 0 1 6.020110 7.041158 782.327026
523 0 1 6.098120 7.435851 781.473999
524 0 1 6.183380 7.857461 780.583008
525 0 1 6.411560 8.195177 779.742981
526 0 1 6.493570 8.638177 778.885986
527 0 1 6.363570 8.930033 777.953979
528 0 1 6.100130 9.255770 777.013000
529 0 1 5.958870 9.305300 776.096985
530 0 1 5.694610 9.210400 775.208008
531 0 1 5.562410 8.947477 774.266968
532 0 1 5.550010 8.741260 773.280029
533 0 1 5.389470 8.710428 772.297974
534 0 1 5.439380 8.581899 771.335999
535 0 1 5.822770 8.407591 770.440979
536 0 1 6.154970 8.145995 769.609009
537 0 1 6.589150 8.025234 768.744019
538 0 1 6.773740 7.458778 767.979980
539 0 1 7.073501 7.035602 767.239990
540 0 1 7.158367 6.592260 766.393982
541 0 1 7.313475 6.331410 765.474976
542 0 1 7.560085 5.981480 764.630005
543 0 1 7.864285 6.172920 763.739014
544 0 1 8.185329 6.337300 762.891968
545 0 1 8.431016 6.549980 761.985962
546 0 1 8.681230 6.651920 761.117004
547 0 1 8.955216 6.401410 760.254028
548 0 1 9.266930 5.721340 759.567993
549 0 1 9.859921 5.231610 758.997986
550 0 1 10.574070 4.778670 758.526001
551 0 1 11.092850 4.426870 757.773010
552 0 1 11.312230 4.454810 756.827026
553 0 1 11.235080 4.686560 755.890991
554 0 1 11.296010 4.783920 754.848999
555 0 1 11.436510 4.967620 753.884033
556 0 1 11.701040 5.415290 753.049011
557 0 1 11.848980 5.706670 752.138977
558 0 1 11.941370 5.712310 751.164978
559 0 1 12.200550 5.681290 750.286011
560 0 1 12.493441 5.775120 749.396973
561 0 1 12.757210 5.776890 748.495972
562 0 1 12.969870 5.948040 747.568970
563 0 1 13.246429 5.814110 746.635986
564 0 1 13.313430 5.511430 745.707031
565 0 1 13.222799 5.049620 744.862000
566 0 1 13.589940 4.917360 743.969971
567 0 1 13.911420 5.034710 743.007019
568 0 1 14.308371 5.234570 742.158997
569 0 1 14.191600 5.808350 741.390015
570 0 1 13.914351 6.268730 740.601013
571 0 1 13.363729 6.352210 739.833984
572 0 1 12.818860 6.417620 739.078979
573 0 1 12.459431 6.498460 738.190002
574 0 1 11.983330 6.793560 737.314026
575 0 1 11.512850 6.977190 736.483032
576 0 1 11.195890 6.490550 735.707031
577 0 1 11.098450 5.889450 734.908020
578 0 1 10.977440 5.380900 734.065002
579 0 1 11.028300 4.785660 733.356018
580 0 1 10.992240 4.397170 732.466003
581 0 1 10.765310 4.291440 731.564026
582 0 1 10.472589 4.007120 730.708984
583 0 1 10.267790 3.428810 729.958008
584 0 1 10.192860 3.111130 729.044006
585 0 1 10.019400 2.677450 728.240967
586 0 1 9.346320 2.420410 727.555725
587 0 1 8.539558 2.145870 727.033508
588 0 1 7.733934 1.799430 726.787292
589 0 1 7.001223 1.649570 726.228882
590 0 1 6.388530 1.521700 725.433411
591 0 1 5.827570 1.622300 724.585571
592 0 1 5.623420 1.602190 723.688232
593 0 1 5.391440 1.870590 722.736511
594 0 1 5.184400 2.167880 721.875122
595 0 1 5.236770 2.475200 720.998596
596 0 1 5.031940 3.105840 720.261597
597 0 1 4.862720 3.865430 719.698975
598 0 1 4.621740 4.699080 719.254822
599 0 1 4.154390 5.425050 718.837769
600 0 1 3.917400 6.230500 718.443481
601 0 1 3.655760 7.056102 717.972412
602 0 1 3.969900 7.857878 717.499695
603 0 1 4.502990 8.494036 717.048401
604 0 1 5.115890 9.206970 716.686768
605 0 1 5.568760 9.967880 716.221069
606 0 1 5.927650 10.718240 715.800415
607 0 1 6.409790 11.336679 715.129211
608 0 1 6.928010 11.817130 714.403931
609 0 1 7.203785 12.110460 713.557983
610 0 1 7.517112 12.468599 712.689697
611 0 1 7.387422 13.160310 711.965332
612 0 1 7.386170 13.819429 711.207520
613 0 1 7.492148 14.374660 710.432800
614 0 1 7.870170 14.736430 709.591003
615 0 1 8.333868 14.598820 708.730713
616 0 1 8.438611 14.298730 707.841187
617 0 1 8.332058 13.751110 707.020813
618 0 1 8.139608 13.010580 706.341614
619 0 1 7.820349 12.578180 705.525513
620 0 1 7.688479 12.157280 704.686279
621 0 1 7.686499 11.666670 703.791870
622 0 1 7.574011 11.230820 702.928406
623 0 1 7.229314 10.800670 702.044495
624 0 1 7.174491 10.310101 701.263977
625 0 1 7.143861 9.968781 700.360229
626 0 1 7.086001 9.582800 699.473022
627 0 1 7.039825 9.219660 698.527466
628 0 1 7.032501 8.727825 697.719604
629 0 1 7.078256 8.484102 696.751831
630 0 1 7.158028 8.194804 695.809082
631 0 1 7.329084 7.652566 695.009888
632 0 1 7.401903 7.110597 694.225830
633 0 1 7.467872 6.319550 693.633118
634 0 1 7.630054 5.585930 693.039429
635 0 1 7.849571 4.927320 692.439331
636 0 1 7.931749 4.268950 691.750916
637 0 1 8.129655 3.996930 690.856628
638 0 1 8.121333 3.759240 689.889099
639 0 1 8.004357 3.622710 688.976196
640 0 1 7.947650 3.127750 688.201599
641 0 1 7.779514 2.747620 687.357117
642 0 1 8.050422 2.644970 686.440002
643 0 1 8.244913 2.577170 685.505127
644 0 1 8.140878 2.598750 684.547485
645 0 1 7.875515 2.676260 683.636230
646 0 1 7.977975 2.557930 682.685913
647 0 1 7.939108 2.411880 681.735291
648 0 1 7.862498 2.298800 680.769714
649 0 1 7.751713 2.411110 679.822083
650 0 1 7.769184 2.513680 678.794312
651 0 1 7.674245 2.854520 677.879700
652 0 1 7.683448 2.915800 676.917297
653 0 1 7.894212 2.755610 676.013000
654 0 1 8.142095 2.762030 675.031189
655 0 1 8.675005 2.861540 674.263794
656 0 1 9.206480 3.272810 673.583008
657 0 1 9.749520 3.728300 672.956177
658 0 1 10.082581 4.344160 672.350403
659 0 1 10.448400 5.042120 671.848816
660 0 1 10.899080 5.680630 671.246582
661 0 1 11.025940 6.127050 670.365112
662 0 1 10.943171 6.473590 669.432190
663 0 1 10.734930 6.840060 668.512695
664 0 1 10.493830 7.095692 667.637390
665 0 1 10.181980 7.288771 666.693115
666 0 1 10.016850 7.494230 665.724121
667 0 1 9.973989 7.755002 664.815796
668 0 1 9.928830 8.010407 663.893127
669 0 1 9.826950 8.132591 662.899780
670 0 1 9.780130 8.453735 661.969971
671 0 1 9.495600 8.720292 661.057922
672 0 1 8.919404 8.809699 660.325989
673 0 1 8.262859 8.787788 659.596008
674 0 1 7.762532 8.827923 658.790588
675 0 1 7.441992 8.909767 657.806885
676 0 1 7.194610 9.251250 656.965027
677 0 1 6.844910 9.700020 656.179871
678 0 1 6.379170 10.155900 655.455383
679 0 1 5.740210 10.649790 654.869202
680 0 1 5.416830 10.819000 654.026978
681 0 1 5.345240 10.891220 653.046692
682 0 1 5.366280 11.267490 652.118591
683 0 1 5.337170 11.647220 651.264587
684 0 1 5.430500 12.016951 650.369202
685 0 1 5.456360 11.910810 649.403625
686 0 1 5.381070 11.656950 648.504272
687 0 1 5.158130 11.492240 647.596985
688 0 1 4.839010 11.217530 646.771423
689 0 1 4.505610 11.172930 645.802185
690 0 1 4.286880 11.094590 644.857910
691 0 1 3.921500 10.540840 644.139526
692 0 1 3.582280 9.878520 643.571716
693 0 1 3.320520 9.162470 643.053589
694 0 1 3.062380 8.643105 642.341675
695 0 1 2.776410 8.214767 641.483398
696 0 1 2.842990 8.137118 640.537109
697 0 1 2.813840 7.888157 639.507019
698 0 1 3.122530 7.731807 638.656616
699 0 1 3.169530 7.809852 637.662842
700 0 1 3.440170 7.674801 636.767212
701 0 1 3.381390 7.687617 635.794189
702 0 1 3.377380 7.917836 634.849915
703 0 1 3.464170 8.150671 633.931396
704 0 1 3.924490 8.184658 633.101135
705 0 1 4.233860 8.572483 632.217346
706 0 1 4.390840 8.763037 631.344055
707 0 1 4.757780 9.046070 630.501770
708 0 1 4.985660 9.432730 629.590576
709 0 1 5.279590 9.769510 628.745422
710 0 1 5.899930 10.124599 628.165039
711 0 1 6.605320 10.317530 627.603638
712 0 1 7.235254 10.672330 626.965332
713 0 1 7.805522 10.950439 626.225708
714 0 1 8.428623 11.312140 625.529541
715 0 1 8.957279 11.449980 624.764404
716 0 1 9.411930 11.413490 623.889587
717 0 1 9.666080 11.269230 622.960449
718 0 1 9.861960 10.922250 622.101807
719 0 1 9.937810 10.372770 621.316467
720 0 1 10.126680 9.784930 620.558777
721 0 1 10.300830 9.322990 619.750305
722 0 1 10.419940 9.079290 618.854980
723 0 1 10.291430 8.663844 617.947571
724 0 1 10.070130 8.346198 617.066528
725 0 1 10.334930 7.888868 616.241577
726 0 1 10.620940 7.692036 615.369629
727 0 1 10.883590 7.586254 614.468872
728 0 1 11.000220 7.476799 613.536072
729 0 1 11.153820 7.415245 612.556030
730 0 1 11.661020 7.159151 611.824585
731 0 1 11.917920 7.021346 610.915222
732 0 1 12.346170 6.975060 609.971191
733 0 1 12.698180 6.664650 609.137817
734 0 1 13.030390 6.452890 608.207886
735 0 1 13.134640 6.358840 607.251892
736 0 1 13.339080 6.294480 606.262512
737 0 1 13.681450 6.539840 605.424927
738 0 1 13.823750 6.925970 604.559998
739 0 1 13.734330 7.134658 603.627502
740 0 1 13.795760 7.453243 602.749695
741 0 1 13.583350 7.811910 601.823792
742 0 1 13.363750 8.140625 600.966919
743 0 1 13.202690 8.186359 600.022827
744 0 1 12.973750 8.177460 599.045471
745 0 1 12.770430 8.251013 598.104187
746 0 1 12.748790 8.565895 597.228271
747 0 1 12.829350 9.272779 596.469788
748 0 1 12.581900 9.763500 595.680908
749 0 1 12.722310 9.970000 594.741272
750 0 1 12.802200 9.737810 593.799988
751 0 1 13.312660 9.440340 593.022278
752 0 1 13.597390 9.007880 592.117310
753 0 1 13.425110 8.458307 591.315918
754 0 1 13.311920 7.804515 590.617126
755 0 1 13.224319 7.213254 589.838989
756 0 1 12.818171 6.479650 589.379517
757 0 1 12.351660 5.868220 588.797607
758 0 1 11.996130 5.093550 588.373718
759 0 1 11.568760 4.349240 587.879578
760 0 1 11.437620 3.796700 587.148193
761 0 1 11.174470 3.271340 586.418518
762 0 1 10.896640 2.830320 585.645508
763 0 1 10.678620 2.313420 584.834290
764 0 1 10.550150 2.107080 583.909973
765 0 1 10.448350 2.112420 582.882874
766 0 1 10.369480 2.401980 581.990906
767 0 1 10.250760 2.641230 581.099426
768 0 1 10.215040 2.767120 580.177917
769 0 1 10.198590 2.742630 579.206482
770 0 1 10.308890 2.958710 578.269531
771 0 1 10.377501 3.013510 577.281372
772 0 1 10.260030 2.947860 576.260803
773 0 1 10.026880 2.674220 575.348877
774 0 1 9.959720 2.271580 574.452026
775 0 1 9.706000 2.056280 573.576721
776 0 1 9.272310 1.811760 572.748108
777 0 1 8.790675 1.781080 571.858276
778 0 1 8.510547 1.834500 570.915100
779 0 1 8.248520 1.692840 569.996277
780 0 1 7.916938 1.623060 569.052979
781 0 1 7.601879 1.398280 568.199402
782 0 1 7.415165 1.178430 567.299011
783 0 1 7.234841 1.121940 566.308105
784 0 1 7.063926 1.297870 565.377991
785 0 1 7.186291 1.739880 564.569275
786 0 1 7.356575 2.187650 563.693970
787 0 1 8.009045 2.374740 562.949219
788 0 1 8.436845 2.399330 562.090088
789 0 1 8.947323 2.660150 561.332520
790 0 1 9.403350 2.909230 560.484009