LAMMPS data file via MDAnalysis

        1000  atoms
        1000  bonds
        1000  angles
           0  dihedrals
           0  impropers

           1  atom types
           1  bond types
           1  angle types
           0  dihedral types
           0  improper types

0.000000 16.000000 xlo xhi
0.000000 16.000000 ylo yhi
0.000000 1257.000000 zlo zhi


Masses

1 1.000000

Atoms

1 0 1 5.307910 12.404650 456.390015
2 0 1 5.074420 12.053640 457.294983
3 0 1 5.122190 11.518670 458.056000
4 0 1 5.318390 10.898050 458.748993
5 0 1 5.309830 10.136460 459.330994
6 0 1 5.513950 9.580880 460.065002
7 0 1 5.608410 9.255460 460.947021
8 0 1 5.714670 8.795924 461.747986
9 0 1 6.021720 8.364178 462.621002
10 0 1 6.270670 7.779220 463.270020
11 0 1 6.508790 7.132903 463.901001
12 0 1 6.638410 6.664790 464.804016
13 0 1 6.749140 6.450500 465.690979
14 0 1 6.840430 6.164320 466.602997
15 0 1 6.727530 6.264400 467.562988
16 0 1 6.834350 6.467240 468.536011
17 0 1 6.841670 6.493240 469.479980
18 0 1 6.685010 6.403300 470.424011
19 0 1 6.288920 6.421290 471.306000
20 0 1 5.950770 6.466080 472.197998
21 0 1 5.933430 6.635540 473.184021
22 0 1 6.096360 6.732890 474.104980
23 0 1 5.912290 6.895130 475.052979
24 0 1 5.677630 7.170278 476.042999
25 0 1 5.391220 7.236668 476.931000
26 0 1 5.325490 7.490952 477.854980
27 0 1 5.233640 7.620729 478.792999
28 0 1 5.486750 7.640963 479.744019
29 0 1 5.876360 7.300577 480.531982
30 0 1 6.188540 6.996800 481.384003
31 0 1 6.361460 6.735990 482.264008
32 0 1 6.698110 6.621220 483.207001
33 0 1 6.996050 6.900560 484.018005
34 0 1 7.527682 7.211770 484.757996
35 0 1 7.494864 7.695304 485.585999
36 0 1 7.311141 8.095066 486.449005
37 0 1 6.918780 8.334580 487.302979
38 0 1 6.788530 8.441226 488.257019
39 0 1 6.791590 8.123811 489.166016
40 0 1 6.773590 7.526815 489.994995
41 0 1 6.769830 7.131632 490.944000
42 0 1 6.762770 6.851970 491.929993
43 0 1 6.806210 6.548870 492.848022
44 0 1 6.428940 6.278310 493.647003
45 0 1 6.186490 6.032830 494.510986
46 0 1 5.900110 5.839180 495.382996
47 0 1 5.482920 5.583310 496.223999
48 0 1 4.971620 5.272480 497.002014
49 0 1 4.820020 4.746020 497.755981
50 0 1 4.487780 4.261860 498.585022
51 0 1 4.075190 3.918170 499.419983
52 0 1 3.789050 3.378930 500.203003
53 0 1 3.389780 3.268520 501.125000
54 0 1 3.174120 3.531910 502.022003
55 0 1 2.842670 4.031640 502.815002
56 0 1 2.465820 4.369730 503.670990
57 0 1 2.331410 4.701470 504.587006
58 0 1 2.371510 4.758130 505.583984
59 0 1 2.209600 4.602210 506.516998
60 0 1 2.080450 4.595350 507.451996
61 0 1 2.292440 4.372540 508.382996
62 0 1 2.739100 4.254270 509.298004
63 0 1 3.197710 4.142900 510.119995
64 0 1 3.698700 4.125680 510.897003
65 0 1 3.786050 4.163070 511.876007
66 0 1 4.075900 4.014210 512.757996
67 0 1 4.455860 3.993340 513.646973
68 0 1 4.732040 4.105330 514.528992
69 0 1 5.071040 4.127650 515.447998
70 0 1 5.463200 4.084200 516.306030
71 0 1 5.979170 4.265800 517.104004
72 0 1 6.228750 4.699810 517.960022
73 0 1 6.579700 5.430140 518.562012
74 0 1 7.015833 6.048910 519.239990
75 0 1 7.341014 6.567510 519.964966
76 0 1 7.865457 6.923330 520.677002
77 0 1 8.642076 6.863910 521.281982
78 0 1 9.435390 7.100913 521.799988
79 0 1 10.160920 7.402973 522.325012
80 0 1 10.803070 7.815529 522.942017
81 0 1 11.447540 8.187439 523.544983
82 0 1 11.724649 8.785320 524.283997
83 0 1 11.866220 8.919924 525.221008
84 0 1 12.044880 8.747911 526.099976
85 0 1 12.245501 8.388458 527.010010
86 0 1 12.332769 8.297473 527.943970
87 0 1 12.305571 8.088098 528.843811
88 0 1 12.366489 7.930602 529.820923
89 0 1 12.157120 8.003837 530.687012
90 0 1 11.897310 7.937285 531.650269
91 0 1 11.615960 7.802625 532.526367
92 0 1 11.173270 7.733614 533.373413
93 0 1 10.391610 7.770248 534.086121
94 0 1 9.740220 7.710067 534.817688
95 0 1 9.201320 7.825943 535.638916
96 0 1 8.789547 7.999889 536.462219
97 0 1 8.514270 7.828414 537.376099
98 0 1 8.501410 7.814140 538.320190
99 0 1 8.526750 7.917622 539.249390
100 0 1 8.454596 7.918790 540.154907
101 0 1 8.496784 8.124593 541.141785
102 0 1 8.121941 8.640356 541.818176
103 0 1 7.860186 9.234310 542.631409
104 0 1 8.085526 9.795820 543.362122
105 0 1 8.123119 10.268860 544.244507
106 0 1 8.103508 10.713881 545.076782
107 0 1 8.161078 11.203310 545.938477
108 0 1 8.354413 11.601510 546.811584
109 0 1 8.370188 11.797970 547.738770
110 0 1 8.139016 11.844740 548.694214
111 0 1 8.098022 11.601200 549.684204
112 0 1 8.172298 11.428380 550.615967
113 0 1 8.047332 11.270560 551.513977
114 0 1 7.912035 10.965350 552.413086
115 0 1 7.533813 10.654921 553.268005
116 0 1 7.143832 10.278630 554.044067
117 0 1 6.793970 9.912970 554.865906
118 0 1 6.215460 9.598120 555.573303
119 0 1 5.665810 9.311300 556.336182
120 0 1 5.163720 8.940626 557.049683
121 0 1 4.686620 8.587932 557.785095
122 0 1 4.635300 8.114034 558.669617
123 0 1 4.958890 7.730291 559.477478
124 0 1 5.114030 7.213139 560.242493
125 0 1 5.370060 6.743980 561.072205
126 0 1 5.656410 6.097570 561.652588
127 0 1 5.632660 5.524630 562.443787
128 0 1 5.599080 4.990230 563.323120
129 0 1 5.312070 4.350730 564.001099
130 0 1 4.962440 3.708120 564.701294
131 0 1 5.054450 3.250550 565.546875
132 0 1 5.553000 2.777170 566.204285
133 0 1 5.903870 2.312090 566.963928
134 0 1 6.268600 1.870000 567.775879
135 0 1 6.760740 1.566250 568.501892
136 0 1 7.194252 1.639130 569.357117
137 0 1 7.704813 1.419800 570.109009
138 0 1 8.391853 1.271060 570.742004
139 0 1 9.144420 1.539010 571.350403
140 0 1 9.624050 2.078130 572.030212
141 0 1 10.178830 2.672350 572.613403
142 0 1 10.675330 2.886800 573.449585
143 0 1 10.862780 2.926690 574.401428
144 0 1 11.024170 3.140520 575.306213
145 0 1 10.944170 3.373080 576.223389
146 0 1 10.800170 3.585080 577.105896
147 0 1 10.419690 4.062530 577.854797
148 0 1 10.277170 4.698510 578.605896
149 0 1 10.439520 5.200540 579.446716
150 0 1 10.636680 5.478930 580.374878
151 0 1 10.694469 5.654910 581.254028
152 0 1 10.541150 6.119160 582.146484
153 0 1 10.361510 6.241330 583.093628
154 0 1 10.033470 6.232020 583.949585
155 0 1 9.655990 6.362640 584.804932
156 0 1 9.234340 6.304640 585.705872
157 0 1 8.471107 6.222710 586.368408
158 0 1 7.805208 6.037010 587.079285
159 0 1 7.207313 5.675220 587.776672
160 0 1 6.496410 5.179880 588.354919
161 0 1 5.955460 4.881010 589.193726
162 0 1 5.781060 4.743730 590.108093
163 0 1 5.538180 4.532200 591.041687
164 0 1 5.359800 4.485440 591.977905
165 0 1 5.259850 4.543660 592.942322
166 0 1 5.520710 4.832290 593.831177
167 0 1 5.657270 4.875130 594.799072
168 0 1 5.918070 4.598300 595.735291
169 0 1 6.019900 4.110650 596.511475
170 0 1 5.903400 3.730050 597.419617
171 0 1 5.843480 3.579050 598.355896
172 0 1 6.010090 3.509400 599.292297
173 0 1 6.100460 3.466700 600.283325
174 0 1 6.254490 3.556710 601.262817
175 0 1 6.224350 3.670290 602.238708
176 0 1 6.249560 3.998040 603.133789
177 0 1 6.147100 4.309200 604.020813
178 0 1 5.943700 4.515450 604.920471
179 0 1 5.743240 4.712060 605.849487
180 0 1 5.310020 4.934770 606.671204
181 0 1 5.155730 5.111690 607.541626
182 0 1 4.876790 5.495750 608.352295
183 0 1 4.855580 6.157630 609.058594
184 0 1 4.923460 6.999170 609.518982
185 0 1 5.120050 7.607974 610.301880
186 0 1 5.149850 8.006050 611.195984
187 0 1 5.236340 8.447647 612.025024
188 0 1 5.529760 8.867457 612.847229
189 0 1 5.758580 9.382360 613.673523
190 0 1 5.956800 9.695220 614.561890
191 0 1 6.081070 9.429610 615.482483
192 0 1 5.835980 9.208470 616.391785
193 0 1 5.912670 8.940652 617.281921
194 0 1 6.272170 8.699229 618.151978
195 0 1 6.435630 8.089914 618.930420
196 0 1 6.791340 7.621783 619.697327
197 0 1 7.133172 6.979130 620.312073
198 0 1 7.435248 6.444720 621.071289
199 0 1 7.512980 6.075570 621.928833
200 0 1 7.482514 5.971930 622.871704
201 0 1 7.535340 5.940920 623.795166
202 0 1 7.477240 5.681320 624.723450
203 0 1 7.594124 5.741180 625.726868
204 0 1 7.878816 6.262580 626.544434
205 0 1 8.317468 6.756490 627.222656
206 0 1 8.817614 6.919940 628.026123
207 0 1 9.315750 7.226184 628.806152
208 0 1 9.831120 7.608827 629.538818
209 0 1 10.554710 7.519503 630.234619
210 0 1 11.070360 7.448301 631.049194
211 0 1 11.754910 7.297899 631.772888
212 0 1 12.218630 7.469483 632.615723
213 0 1 12.615931 7.716284 633.471069
214 0 1 12.941470 7.931608 634.432190
215 0 1 13.201930 8.031662 635.404419
216 0 1 13.182711 8.227612 636.335022
217 0 1 12.998600 7.974108 637.342957
218 0 1 12.955400 7.524233 638.210999
219 0 1 13.283990 6.984480 638.988281
220 0 1 13.575050 6.756030 639.919006
221 0 1 13.818640 6.296050 640.728882
222 0 1 13.618860 5.764500 641.564270
223 0 1 13.060471 5.187990 642.164795
224 0 1 12.553860 4.847240 642.876892
225 0 1 12.000830 4.488590 643.548584
226 0 1 11.331810 4.093030 644.104675
227 0 1 10.757310 3.928620 644.823486
228 0 1 10.164480 3.905160 645.682922
229 0 1 9.812210 3.789220 646.561890
230 0 1 9.471220 3.489010 647.409119
231 0 1 9.517150 3.300530 648.332275
232 0 1 9.576280 3.205650 649.318115
233 0 1 9.890460 3.351010 650.247498
234 0 1 10.357800 3.668580 650.995300
235 0 1 10.663870 4.004000 651.866394
236 0 1 10.984070 4.524350 652.713013
237 0 1 10.905560 4.890270 653.615601
238 0 1 11.030560 5.259000 654.481873
239 0 1 11.020470 5.464020 655.415527
240 0 1 10.924570 5.663930 656.348083
241 0 1 10.901170 5.882400 657.273499
242 0 1 10.866980 6.133990 658.257324
243 0 1 10.647990 6.418990 659.134705
244 0 1 10.379601 6.711820 660.003296
245 0 1 10.282550 6.971720 660.976501
246 0 1 10.121230 7.149127 661.868103
247 0 1 9.789670 7.203745 662.723694
248 0 1 9.383560 7.186535 663.628723
249 0 1 9.118280 7.574690 664.530090
250 0 1 9.085230 7.723106 665.527832
251 0 1 8.956174 7.741516 666.484009
252 0 1 9.017860 7.923069 667.432190
253 0 1 8.733756 8.305904 668.283569
254 0 1 8.632874 8.479682 669.239502
255 0 1 8.493185 8.442044 670.213806
256 0 1 8.719012 8.699827 671.136108
257 0 1 8.763211 8.662121 672.121399
258 0 1 8.728014 8.553184 673.087402
259 0 1 8.772809 8.438999 674.013184
260 0 1 8.605305 8.310245 674.994812
261 0 1 8.487723 8.311850 675.934326
262 0 1 8.250441 8.379122 676.845276
263 0 1 8.103371 8.355242 677.787720
264 0 1 8.038578 8.542396 678.703979
265 0 1 8.197053 8.578232 679.691406
266 0 1 8.199180 8.819793 680.602783
267 0 1 8.270747 9.129350 681.514709
268 0 1 8.276670 9.522920 682.391113
269 0 1 8.251517 10.045460 683.147278
270 0 1 8.425367 10.712660 683.806030
271 0 1 8.655589 11.117599 684.671875
272 0 1 8.619417 11.377290 685.525085
273 0 1 8.794542 11.510790 686.507507
274 0 1 8.769050 11.617860 687.451477
275 0 1 8.746730 11.631410 688.470886
276 0 1 8.879452 11.598690 689.446106
277 0 1 9.309890 11.785960 690.284119
278 0 1 9.482740 12.032030 691.191223
279 0 1 9.334780 12.308900 692.097778
280 0 1 8.885033 12.445670 693.029907
281 0 1 8.703396 12.444830 693.923096
282 0 1 8.622766 12.316140 694.878479
283 0 1 8.525690 12.242849 695.804382
284 0 1 8.745133 12.512260 696.659607
285 0 1 8.610102 12.647060 697.601624
286 0 1 8.685746 12.500680 698.598816
287 0 1 8.654157 12.133900 699.512329
288 0 1 8.960483 11.702570 700.331116
289 0 1 9.328950 11.035390 700.871704
290 0 1 9.593930 10.421680 701.544495
291 0 1 9.656310 9.688110 702.150696
292 0 1 9.694670 9.143610 702.970276
293 0 1 9.858930 8.529664 703.679688
294 0 1 9.948670 7.868422 704.447327
295 0 1 10.006180 7.379026 705.247314
296 0 1 10.090520 6.979520 706.126709
297 0 1 9.889620 6.681020 706.997986
298 0 1 9.837440 6.566500 707.952698
299 0 1 9.923990 6.391550 708.918213
300 0 1 9.865960 6.215540 709.865723
301 0 1 9.771290 6.058040 710.813416
302 0 1 9.442090 5.924720 711.716797
303 0 1 8.775997 5.758980 712.367310
304 0 1 8.164756 5.495330 713.101318
305 0 1 7.462188 5.347300 713.823120
306 0 1 7.120928 5.165630 714.689331
307 0 1 6.826580 4.659040 715.456299
308 0 1 6.589670 4.262680 716.282715
309 0 1 6.502150 4.288930 717.241211
310 0 1 6.515070 4.313430 718.211487
311 0 1 6.641950 4.568950 719.136292
312 0 1 6.741360 4.747410 720.063782
313 0 1 6.693520 5.012920 721.075195
314 0 1 6.637390 5.097020 722.037292
315 0 1 6.221980 5.295200 722.987793
316 0 1 5.672060 5.445710 723.713013
317 0 1 5.210220 5.780090 724.484192
318 0 1 5.094120 6.197780 725.357300
319 0 1 5.012350 6.718640 726.210388
320 0 1 5.027510 7.285414 726.976379
321 0 1 5.325680 7.793909 727.727112
322 0 1 5.760570 8.267694 728.442505
323 0 1 6.298150 8.333479 729.226013
324 0 1 6.860500 8.320988 730.030029
325 0 1 7.191562 8.299904 731.007019
326 0 1 7.495084 8.092587 731.839966
327 0 1 8.110599 8.145147 732.582031
328 0 1 8.741780 8.288874 733.250000
329 0 1 9.590000 8.309323 733.770020
330 0 1 10.323930 7.959985 734.231995
331 0 1 11.196520 7.608904 734.466003
332 0 1 11.953880 7.061545 734.679993
333 0 1 12.618580 7.204820 735.312988
334 0 1 13.036500 7.271575 736.138977
335 0 1 13.465330 7.131344 736.973999
336 0 1 13.991620 6.897780 737.731018
337 0 1 14.303360 6.582590 738.549011
338 0 1 14.260460 6.305490 739.476013
339 0 1 14.113000 5.660790 740.200989
340 0 1 14.109011 5.480200 741.141968
341 0 1 13.856770 5.465700 742.065979
342 0 1 13.468081 5.464210 743.018982
343 0 1 12.816050 5.244130 743.677979
344 0 1 12.428030 5.223470 744.521973
345 0 1 12.335220 5.316620 745.531006
346 0 1 12.141340 5.564360 746.596985
347 0 1 12.013360 5.940100 747.460999
348 0 1 11.941200 6.516800 748.288025
349 0 1 11.856440 7.045071 749.112000
350 0 1 11.715720 7.759824 749.708984
351 0 1 11.471080 8.541528 750.231018
352 0 1 11.065250 9.326150 750.583984
353 0 1 10.298300 9.895170 750.796021
354 0 1 9.530600 10.062799 751.335022
355 0 1 8.780011 10.264090 751.869995
356 0 1 8.064886 10.320430 752.627014
357 0 1 7.455593 10.290010 753.364014
358 0 1 6.906710 9.865860 754.077026
359 0 1 6.447960 9.687260 754.903015
360 0 1 6.271050 9.299110 755.807983
361 0 1 5.945150 8.870575 756.686035
362 0 1 5.939640 8.502582 757.559021
363 0 1 5.842930 8.029569 758.374023
364 0 1 5.847780 7.548160 759.167969
365 0 1 5.925440 6.777530 759.858032
366 0 1 6.114120 6.121920 760.610962
367 0 1 6.286650 5.537570 761.458984
368 0 1 6.194600 4.977710 762.184998
369 0 1 6.410990 4.654580 763.067017
370 0 1 6.572990 4.496450 764.007019
371 0 1 6.868150 4.509370 764.968994
372 0 1 6.856040 4.407660 765.942017
373 0 1 6.742370 4.259170 766.912964
374 0 1 6.611560 4.284350 767.890991
375 0 1 6.340270 4.159060 768.846008
376 0 1 5.704060 3.968410 769.634033
377 0 1 5.107350 3.683300 770.322998
378 0 1 4.522160 3.502370 771.067993
379 0 1 4.278680 3.876240 771.974976
380 0 1 4.115540 4.369380 772.785034
381 0 1 3.814490 4.698700 773.609009
382 0 1 3.683260 4.899580 774.466980
383 0 1 3.750720 4.932640 775.450989
384 0 1 3.923230 5.048010 776.401001
385 0 1 4.111320 5.144580 777.330994
386 0 1 4.202770 5.424880 778.255981
387 0 1 4.444700 5.600540 779.166992
388 0 1 4.535860 5.648530 780.122986
389 0 1 4.637870 5.712290 781.141968
390 0 1 5.163110 5.630340 782.011963
391 0 1 5.748470 5.615580 782.739990
392 0 1 6.263260 5.576030 783.588989
393 0 1 6.481170 5.769750 784.499023
394 0 1 6.640880 5.872480 785.398010
395 0 1 6.740900 5.850630 786.411987
396 0 1 6.853790 5.899380 787.369019
397 0 1 7.163310 5.657810 788.265015
398 0 1 7.393733 5.260440 789.109985
399 0 1 7.385971 5.029270 790.015991
400 0 1 7.660499 4.745070 790.880981
401 0 1 7.969002 4.394530 791.671021
402 0 1 8.269089 4.383320 792.588989
403 0 1 8.014048 4.270450 793.509033
404 0 1 7.855052 4.070580 794.421997
405 0 1 7.875535 3.833710 795.343018
406 0 1 7.866784 3.863950 796.278015
407 0 1 7.881217 3.724860 797.177002
408 0 1 8.064254 3.866020 798.063965
409 0 1 8.313971 3.988270 798.932983
410 0 1 8.313184 3.781490 799.869995
411 0 1 8.391859 3.553250 800.809998
412 0 1 8.304193 3.285970 801.729004
413 0 1 8.012707 2.901760 802.617981
414 0 1 8.115041 2.931260 803.606995
415 0 1 8.609527 3.093130 804.419983
416 0 1 9.062350 3.491370 805.235962
417 0 1 9.276820 3.729840 806.145996
418 0 1 9.735510 4.004250 806.860962
419 0 1 9.860970 4.151690 807.785034
420 0 1 10.054590 4.103590 808.690002
421 0 1 10.057671 4.000480 809.635986
422 0 1 9.883360 3.853570 810.593994
423 0 1 9.878960 3.654430 811.502991
424 0 1 9.800080 3.376620 812.510986
425 0 1 9.801110 3.479120 813.533020
426 0 1 10.178750 3.732020 814.412964
427 0 1 10.544350 4.062640 815.245972
428 0 1 10.781500 4.583240 816.028015
429 0 1 11.018220 4.951230 816.843018
430 0 1 11.099620 5.416920 817.681030
431 0 1 10.906230 5.734580 818.536011
432 0 1 11.139020 5.992210 819.429993
433 0 1 11.453870 6.170520 820.299011
434 0 1 11.741550 6.119790 821.187012
435 0 1 12.111071 5.892820 822.115967
436 0 1 12.310520 5.683090 823.007019
437 0 1 12.255239 5.447640 823.896973
438 0 1 11.888269 5.109220 824.739014
439 0 1 11.405070 4.831440 825.447021
440 0 1 10.654650 4.551560 826.013000
441 0 1 9.908940 4.523050 826.610962
442 0 1 9.101280 4.535960 827.370972
443 0 1 8.655094 4.519580 828.260986
444 0 1 8.130093 4.554790 829.085999
445 0 1 7.935105 4.132470 829.874023
446 0 1 7.631883 3.893060 830.833984
447 0 1 7.203346 4.041220 831.656982
448 0 1 6.859070 3.983200 832.557983
449 0 1 6.462320 4.023590 833.414001
450 0 1 5.936360 4.244470 834.249023
451 0 1 5.465660 4.509280 835.115967
452 0 1 5.068630 5.102640 835.792969
453 0 1 4.905840 6.006030 836.198975
454 0 1 4.872280 6.856300 836.692017
455 0 1 5.286270 7.524361 837.260986
456 0 1 5.791200 8.058487 837.924011
457 0 1 6.209930 8.855752 838.307983
458 0 1 6.664700 9.678890 838.552002
459 0 1 7.066745 10.507610 838.872009
460 0 1 7.535333 11.333350 838.742004
461 0 1 7.995018 12.092960 838.412964
462 0 1 8.722065 12.565170 838.083984
463 0 1 9.581760 12.741409 837.636963
464 0 1 10.193460 12.790560 836.879028
465 0 1 10.697480 13.042370 836.078979
466 0 1 10.983210 13.110050 835.205017
467 0 1 11.259171 13.043950 834.292969
468 0 1 11.135590 12.965691 833.380981
469 0 1 10.844481 12.800290 832.395996
470 0 1 10.748790 12.845221 831.419983
471 0 1 10.652210 12.972240 830.521973
472 0 1 10.553690 13.026820 829.541992
473 0 1 10.330630 13.322730 828.677002
474 0 1 10.399840 13.502550 827.721008
475 0 1 10.341390 13.514000 826.731018
476 0 1 10.335250 13.337210 825.804993
477 0 1 10.285330 13.012980 824.898987
478 0 1 10.283130 12.343821 824.228027
479 0 1 9.911551 11.707050 823.620972
480 0 1 9.626830 11.189910 822.863037
481 0 1 9.526320 10.709570 821.937012
482 0 1 9.407430 10.405390 821.088013
483 0 1 9.338670 10.097640 820.184998
484 0 1 9.051410 9.926030 819.265991
485 0 1 8.414702 9.764300 818.541992
486 0 1 7.866127 9.699060 817.687012
487 0 1 7.498017 9.519210 816.796021
488 0 1 7.465285 9.358810 815.812988
489 0 1 7.602658 8.925865 814.942993
490 0 1 7.606334 8.499705 814.127991
491 0 1 7.326240 7.904593 813.473022
492 0 1 6.882920 7.553379 812.731995
493 0 1 6.411810 7.380647 811.825012
494 0 1 5.885200 7.313261 810.952026
495 0 1 5.589650 7.177110 810.052002
496 0 1 5.296590 7.057329 809.155029
497 0 1 5.188600 6.737110 808.247009
498 0 1 5.181480 6.537760 807.291992
499 0 1 5.206490 6.209590 806.372986
500 0 1 5.171220 5.985870 805.401978
501 0 1 5.235310 5.868680 804.419006
502 0 1 5.254060 5.917730 803.509033
503 0 1 5.251700 5.854360 802.520996
504 0 1 5.260540 5.843760 801.481995
505 0 1 5.436450 6.051540 800.591980
506 0 1 5.465240 6.183270 799.671021
507 0 1 5.797410 6.297470 798.752014
508 0 1 6.141930 6.206680 797.864990
509 0 1 6.238380 6.290320 796.885010
510 0 1 6.554570 6.458870 795.952026
511 0 1 6.758320 6.563450 795.072021
512 0 1 6.739830 6.645440 793.958984
513 0 1 6.566030 6.627510 793.007996
514 0 1 6.397420 6.637340 792.101990
515 0 1 6.406110 6.675440 791.169006
516 0 1 6.444290 6.520360 790.234009
517 0 1 6.516880 6.722890 789.286987
518 0 1 6.852820 6.994090 788.379028
519 0 1 7.220898 7.249446 787.489990
520 0 1 7.589961 7.259497 786.552002
521 0 1 8.118830 7.238845 785.773010
522 0 1 8.822816 7.469880 785.110962
523 0 1 9.394350 7.670577 784.375000
524 0 1 9.979090 7.959866 783.641968
525 0 1 10.451060 8.301056 782.888000
526 0 1 10.522610 8.503658 781.981995
527 0 1 10.220250 8.940694 781.234009
528 0 1 9.915730 9.469980 780.523987
529 0 1 9.532990 9.562120 779.728027
530 0 1 9.258230 9.710500 778.833984
531 0 1 9.123440 9.572440 777.859985
532 0 1 8.741076 9.615980 776.971008
533 0 1 8.688957 9.467490 776.068970
534 0 1 8.707414 9.144120 775.112000
535 0 1 8.547470 8.973265 774.205017
536 0 1 8.427823 8.768974 773.280029
537 0 1 8.578243 8.384851 772.312988
538 0 1 8.580321 8.087018 771.369019
539 0 1 8.699040 7.738857 770.528992
540 0 1 8.833538 7.327423 769.710022
541 0 1 8.708676 7.107148 768.755981
542 0 1 8.435493 7.049754 767.838013
543 0 1 8.483613 7.132386 766.864990
544 0 1 8.515682 7.429545 765.981018
545 0 1 8.511899 7.698058 765.054993
546 0 1 8.453780 7.644557 764.070984
547 0 1 7.942555 7.601655 763.213989
548 0 1 7.661027 7.619098 762.330017
549 0 1 7.250707 7.902141 761.520996
550 0 1 7.095540 8.054592 760.610962
551 0 1 6.990430 8.087565 759.580017
552 0 1 7.114514 8.033236 758.658997
553 0 1 7.111974 7.506869 757.864990
554 0 1 7.173052 7.148438 756.945007
555 0 1 7.308541 6.988160 755.987000
556 0 1 7.450983 7.173441 755.073975
557 0 1 7.326541 7.338569 754.145996
558 0 1 7.324405 7.365216 753.161987
559 0 1 7.476843 7.270915 752.177979
560 0 1 7.825701 7.296293 751.239990
561 0 1 8.146193 7.198841 750.325012
562 0 1 8.492561 6.836430 749.507996
563 0 1 8.681316 6.454080 748.614014
564 0 1 8.828668 6.090160 747.762024
565 0 1 9.182600 5.747050 746.950012
566 0 1 9.691910 5.228720 746.346985
567 0 1 10.136920 4.930920 745.497009
568 0 1 10.309870 4.486300 744.692017
569 0 1 10.459681 3.941430 743.973022
570 0 1 10.477300 3.287310 743.255981
571 0 1 10.415600 2.914300 742.364990
572 0 1 10.292450 2.623360 741.469971
573 0 1 10.184270 2.394800 740.546021
574 0 1 9.924650 2.543220 739.611023
575 0 1 9.778610 2.515060 738.645020
576 0 1 9.999269 2.646290 737.622986
577 0 1 10.295950 2.675620 736.658997
578 0 1 10.295919 2.983160 735.757019
579 0 1 9.986050 3.214530 734.830994
580 0 1 9.805861 3.525480 733.924988
581 0 1 9.646811 3.925340 733.049011
582 0 1 9.712270 4.208960 732.151978
583 0 1 9.792690 4.450970 731.224976
584 0 1 9.800810 4.508950 730.276978
585 0 1 9.700710 4.624830 729.307983
586 0 1 9.949080 5.038660 728.458496
587 0 1 10.314930 5.459680 727.670593
588 0 1 10.423161 5.928110 726.866516
589 0 1 10.142130 6.405060 726.027466
590 0 1 10.365100 6.794690 725.166809
591 0 1 10.053790 7.282907 724.395386
592 0 1 9.640830 7.492420 723.548096
593 0 1 9.306980 7.660908 722.638123
594 0 1 8.902375 7.888690 721.825684
595 0 1 8.431660 8.052811 720.987000
596 0 1 7.847535 8.201291 720.111084
597 0 1 7.402935 8.575029 719.332703
598 0 1 7.080401 8.488745 718.447083
599 0 1 6.875920 8.799101 717.553589
600 0 1 6.520680 9.244360 716.736816
601 0 1 6.218520 9.626860 715.910889
602 0 1 6.205850 10.092960 715.097290
603 0 1 5.798960 10.211580 714.192810
604 0 1 5.451590 10.541250 713.311279
605 0 1 5.252380 11.247000 712.610901
606 0 1 5.042670 11.676970 711.777893
607 0 1 5.123930 12.024059 710.940125
608 0 1 5.195630 12.260981 709.953796
609 0 1 5.025930 11.884160 709.073486
610 0 1 4.950870 11.786520 708.115906
611 0 1 4.771900 11.570430 707.151184
612 0 1 5.202710 11.440030 706.245728
613 0 1 5.537910 11.267390 705.369202
614 0 1 5.838390 11.359780 704.348511
615 0 1 6.012000 11.437340 703.377502
616 0 1 6.179400 11.270240 702.425598
617 0 1 6.122890 11.130380 701.483032
618 0 1 5.854260 11.069420 700.566711
619 0 1 5.567580 10.799080 699.712219
620 0 1 5.116700 11.030840 698.877991
621 0 1 4.684270 11.018090 697.981689
622 0 1 4.298700 11.077490 697.106812
623 0 1 3.993070 11.124880 696.167480
624 0 1 3.792960 11.372110 695.190674
625 0 1 3.925610 11.460770 694.242615
626 0 1 4.269740 11.570180 693.325500
627 0 1 4.349960 11.593840 692.352600
628 0 1 4.409030 11.161060 691.505676
629 0 1 4.319060 10.674630 690.652283
630 0 1 4.177170 10.079090 689.884277
631 0 1 4.329720 9.376900 689.229614
632 0 1 4.744490 8.734346 688.659119
633 0 1 5.235140 8.164147 688.137817
634 0 1 5.566140 7.635552 687.402527
635 0 1 6.075190 7.195935 686.767395
636 0 1 6.720520 6.745630 686.207825
637 0 1 7.489976 6.492930 685.711914
638 0 1 8.080389 6.088280 685.087524
639 0 1 8.729985 5.971740 684.384216
640 0 1 9.477060 5.923180 683.692810
641 0 1 10.082750 5.810650 683.001587
642 0 1 10.473000 5.466020 682.189331
643 0 1 10.698850 5.468020 681.209473
644 0 1 10.855010 5.712030 680.216492
645 0 1 11.176380 5.901440 679.289429
646 0 1 11.530260 5.892750 678.386292
647 0 1 11.667720 5.677820 677.458923
648 0 1 11.736670 5.454310 676.514221
649 0 1 11.987160 5.297440 675.599915
650 0 1 12.343190 5.278190 674.643372
651 0 1 12.918030 5.249600 673.903015
652 0 1 13.205990 5.563690 673.027100
653 0 1 13.305640 6.012340 672.112915
654 0 1 12.931910 6.422140 671.292725
655 0 1 12.484680 6.689750 670.433411
656 0 1 11.945280 6.597540 669.634521
657 0 1 11.516870 6.427830 668.766968
658 0 1 11.345870 5.914450 667.990417
659 0 1 10.996320 5.415570 667.218384
660 0 1 10.477591 5.282240 666.372803
661 0 1 9.830830 5.197180 665.674072
662 0 1 9.152610 5.251150 664.942200
663 0 1 8.798037 5.480220 664.028809
664 0 1 8.479844 5.770820 663.072632
665 0 1 8.151314 6.025340 662.210083
666 0 1 7.860485 6.440050 661.433594
667 0 1 7.861035 7.071868 660.668274
668 0 1 7.793412 7.642135 659.857178
669 0 1 7.676989 7.983940 658.957703
670 0 1 7.592668 8.559872 658.055725
671 0 1 7.736445 9.177450 657.356812
672 0 1 7.874750 9.610210 656.550415
673 0 1 7.898831 9.867070 655.658203
674 0 1 7.825098 10.474530 654.905701
675 0 1 7.739214 10.878540 654.071411
676 0 1 7.568037 11.173161 653.147095
677 0 1 7.364285 11.582570 652.276978
678 0 1 7.312962 11.997480 651.418274
679 0 1 7.261684 12.575251 650.659485
680 0 1 7.096107 13.071250 649.896423
681 0 1 6.840740 13.594360 649.181091
682 0 1 6.661220 13.922831 648.321777
683 0 1 6.467760 13.954559 647.356628
684 0 1 6.117520 13.970190 646.445679
685 0 1 5.825560 13.847630 645.549683
686 0 1 5.614370 13.426640 644.732483
687 0 1 5.481910 12.906110 643.940918
688 0 1 5.079350 12.480989 643.177002
689 0 1 4.530840 11.978030 642.573730
690 0 1 4.193060 11.580640 641.789917
691 0 1 3.915180 11.265960 640.799072
692 0 1 3.361340 10.986390 639.918518
693 0 1 2.947480 10.392340 639.293701
694 0 1 2.652520 9.786310 638.655518
695 0 1 2.473140 8.997321 638.090332
696 0 1 2.421110 8.482418 637.298645
697 0 1 2.429980 8.130791 636.332092
698 0 1 2.144780 7.645132 635.540222
699 0 1 1.715950 7.243233 634.692688
700 0 1 1.465240 7.021518 633.743103
701 0 1 1.490780 6.951190 632.807312
702 0 1 1.397650 6.673380 631.896179
703 0 1 1.534480 6.466970 630.951904
704 0 1 1.912900 6.243940 630.159485
705 0 1 2.261350 6.073620 629.267273
706 0 1 2.646710 5.999860 628.413086
707 0 1 3.005160 6.042470 627.486023
708 0 1 3.415480 5.899220 626.604065
709 0 1 3.800210 5.968220 625.744385
710 0 1 4.067770 6.007600 624.786987
711 0 1 4.326110 5.818090 623.801147
712 0 1 4.472410 5.599260 622.865417
713 0 1 4.741220 5.704680 621.924194
714 0 1 5.051930 5.504130 621.047913
715 0 1 5.369050 5.483370 620.149353
716 0 1 5.512250 5.740650 619.143433
717 0 1 5.565500 5.932090 618.247070
718 0 1 5.442680 6.279660 617.331970
719 0 1 5.315220 6.400180 616.369629
720 0 1 5.336930 6.364580 615.445496
721 0 1 5.313190 6.376460 614.502625
722 0 1 5.228060 6.232220 613.549500
723 0 1 5.293170 6.047320 612.630615
724 0 1 5.276050 6.051830 611.648315
725 0 1 5.507150 5.950170 610.723389
726 0 1 5.915990 5.561400 609.971497
727 0 1 6.273500 5.191970 609.181702
728 0 1 6.788350 4.814670 608.423096
729 0 1 6.872700 4.700540 607.420593
730 0 1 7.270027 4.659760 606.464783
731 0 1 7.826888 4.384770 605.819092
732 0 1 8.494155 4.142060 605.140015
733 0 1 9.173540 3.877530 604.413391
734 0 1 9.642430 3.556690 603.634583
735 0 1 10.153070 3.403750 602.739624
736 0 1 10.630230 3.578910 601.893494
737 0 1 10.990100 3.749270 600.994629
738 0 1 11.235730 3.794170 600.067383
739 0 1 11.331730 3.826830 599.129211
740 0 1 11.391171 3.920560 598.217285
741 0 1 11.405240 4.277480 597.325012
742 0 1 11.845030 4.799180 596.682373
743 0 1 12.512421 5.136550 596.003784
744 0 1 12.642540 5.398920 595.091187
745 0 1 12.807899 5.690480 594.153687
746 0 1 13.083031 5.700660 593.185913
747 0 1 12.979879 5.752580 592.268005
748 0 1 12.956460 5.725310 591.314880
749 0 1 12.844770 5.833170 590.372070
750 0 1 12.662661 6.193260 589.497375
751 0 1 12.594120 6.426820 588.604919
752 0 1 12.355350 6.701460 587.679626
753 0 1 12.063049 6.631910 586.788086
754 0 1 11.918780 6.762840 585.828369
755 0 1 11.815350 6.582620 584.882874
756 0 1 11.600370 6.638740 583.966309
757 0 1 11.431350 6.865640 583.030212
758 0 1 11.248240 7.325231 582.160095
759 0 1 10.828170 7.845813 581.406494
760 0 1 10.441450 8.519349 580.780884
761 0 1 10.085000 8.952630 580.036987
762 0 1 9.754880 9.383510 579.213806
763 0 1 9.187330 9.885420 578.551880
764 0 1 8.646351 10.393850 577.967712
765 0 1 8.229847 10.781940 577.229980
766 0 1 7.527411 11.022020 576.580017
767 0 1 7.168174 11.074350 575.721497
768 0 1 6.974600 11.171190 574.794800
769 0 1 6.888660 11.025920 573.777283
770 0 1 6.851170 10.684430 572.847717
771 0 1 6.833030 10.491010 571.843201
772 0 1 6.350620 10.558280 571.009521
773 0 1 5.726410 10.640260 570.239868
774 0 1 5.397200 10.386100 569.261230
775 0 1 5.298420 10.090230 568.317200
776 0 1 5.391180 9.812200 567.429016
777 0 1 5.680180 9.387510 566.618713
778 0 1 5.687440 8.900370 565.802368
779 0 1 5.829200 8.495456 564.953918
780 0 1 5.968870 8.491070 563.988281
781 0 1 6.133870 8.650553 563.096191
782 0 1 6.321900 8.883520 562.143677
783 0 1 6.421630 9.328430 561.278625
784 0 1 6.790740 9.893400 560.510315
785 0 1 6.870410 10.300410 559.640076
786 0 1 7.141409 10.443340 558.642334
787 0 1 7.308581 10.340190 557.690979
788 0 1 7.752539 10.562770 556.853882
789 0 1 8.083384 10.442680 555.976990
790 0 1 8.051586 10.269330 554.984802
791 0 1 8.139211 9.854910 554.106812
792 0 1 8.138366 9.191230 553.379700
793 0 1 8.250045 8.563323 552.682495
794 0 1 8.335898 8.155623 551.743774