LAMMPS data file via MDAnalysis

        1000  atoms
        1000  bonds
        1000  angles
           0  dihedrals
           0  impropers

           1  atom types
           1  bond types
           1  angle types
           0  dihedral types
           0  improper types

0.000000 16.000000 xlo xhi
0.000000 16.000000 ylo yhi
0.000000 1257.000000 zlo zhi


Masses

1 1.000000

Atoms

1 0 1 4.834680 5.996960 460.684021
2 0 1 5.541330 5.820060 461.359009
3 0 1 6.088110 5.888510 462.197998
4 0 1 6.552680 5.868960 463.044006
5 0 1 7.028911 5.966650 463.877014
6 0 1 7.480857 6.136520 464.731018
7 0 1 8.189821 6.497860 465.296021
8 0 1 8.731234 6.743190 466.101990
9 0 1 9.189850 6.748450 466.931000
10 0 1 9.698009 6.734140 467.796021
11 0 1 10.167030 6.934220 468.649994
12 0 1 10.486280 7.174766 469.494995
13 0 1 10.824830 7.315014 470.369995
14 0 1 11.251510 7.502681 471.184021
15 0 1 11.564230 7.280083 472.067017
16 0 1 11.860810 7.006206 472.963013
17 0 1 11.836200 6.955880 473.908020
18 0 1 11.920870 6.859110 474.856018
19 0 1 11.914410 7.018025 475.760010
20 0 1 11.953830 7.388604 476.636993
21 0 1 11.637260 7.487763 477.539001
22 0 1 11.148911 7.689132 478.326996
23 0 1 10.843550 8.068538 479.167999
24 0 1 10.564120 8.337708 480.095001
25 0 1 10.390630 8.478523 481.075989
26 0 1 10.465540 8.507883 482.002991
27 0 1 10.632850 8.599616 482.916016
28 0 1 10.614650 8.477043 483.825989
29 0 1 10.340350 8.302363 484.726990
30 0 1 10.430120 8.046186 485.609009
31 0 1 10.471920 8.087996 486.557983
32 0 1 10.778680 8.378683 487.484985
33 0 1 11.328020 8.740676 488.221985
34 0 1 11.937870 9.036730 488.989990
35 0 1 12.479250 9.262280 489.778015
36 0 1 12.889570 9.354180 490.679993
37 0 1 13.185320 9.513309 491.565002
38 0 1 13.719280 9.299730 492.309998
39 0 1 14.169590 8.904278 493.114990
40 0 1 14.331020 8.670098 494.020020
41 0 1 14.469040 8.236061 494.873993
42 0 1 14.471120 7.692464 495.609009
43 0 1 14.341311 7.085776 496.315002
44 0 1 14.431840 6.434460 496.990997
45 0 1 14.235519 5.815030 497.740997
46 0 1 13.942010 5.617830 498.614014
47 0 1 13.509940 5.445820 499.537994
48 0 1 13.340950 5.362440 500.485992
49 0 1 13.484301 5.055920 501.417999
50 0 1 13.648800 4.744440 502.303009
51 0 1 13.753099 4.456170 503.221008
52 0 1 13.670771 4.258550 504.126007
53 0 1 13.325940 4.164660 504.975006
54 0 1 12.825740 4.425840 505.786987
55 0 1 12.496059 4.660640 506.654999
56 0 1 11.930960 4.823570 507.364990
57 0 1 11.437370 5.159700 508.104004
58 0 1 10.885340 5.595280 508.700012
59 0 1 10.335830 6.007290 509.299988
60 0 1 9.861600 6.521360 509.962006
61 0 1 9.142890 6.665460 510.592010
62 0 1 8.387781 6.601780 511.192993
63 0 1 7.633282 6.543550 511.845001
64 0 1 6.928950 6.592750 512.471008
65 0 1 6.569090 6.859600 513.348022
66 0 1 6.248650 7.045977 514.239990
67 0 1 5.916290 7.295619 515.070984
68 0 1 5.683520 7.590933 515.940979
69 0 1 5.380980 8.011136 516.752991
70 0 1 5.084080 8.355478 517.617981
71 0 1 4.705260 8.612900 518.468994
72 0 1 4.476270 8.880906 519.442993
73 0 1 4.368480 8.852126 520.398010
74 0 1 4.609190 8.791698 521.359009
75 0 1 4.937550 8.650068 522.223022
76 0 1 5.038560 8.506411 523.135010
77 0 1 5.249840 8.291615 524.039001
78 0 1 5.335070 8.107063 524.960022
79 0 1 5.409680 7.934052 525.858032
80 0 1 5.664590 7.854112 526.844971
81 0 1 6.062380 8.092729 527.705017
82 0 1 6.204250 8.284219 528.649902
83 0 1 6.361060 8.338169 529.567322
84 0 1 6.409510 8.449578 530.507874
85 0 1 6.314480 8.692420 531.429993
86 0 1 6.568600 9.169590 532.239990
87 0 1 6.548670 9.260210 533.199707
88 0 1 6.664780 8.935973 534.093872
89 0 1 6.962620 8.504463 534.889282
90 0 1 7.194827 7.848480 535.554626
91 0 1 7.538156 7.652458 536.466675
92 0 1 8.051410 7.417788 537.291870
93 0 1 8.685235 7.040013 537.960388
94 0 1 9.514300 6.697820 538.380493
95 0 1 10.104040 6.488770 539.038025
96 0 1 10.671490 6.474050 539.811218
97 0 1 10.967530 6.508330 540.769287
98 0 1 11.016211 6.691090 541.719299
99 0 1 11.014790 6.876630 542.640686
100 0 1 10.681390 6.785700 543.523682
101 0 1 10.524010 6.662410 544.461792
102 0 1 10.628300 6.277710 545.292908
103 0 1 10.745670 6.058310 546.303223
104 0 1 10.991720 6.040130 547.190613
105 0 1 11.043591 5.883690 548.233276
106 0 1 11.152370 5.716740 549.162781
107 0 1 11.525390 5.873790 550.029724
108 0 1 12.078930 6.164590 550.728516
109 0 1 12.411990 6.550320 551.538330
110 0 1 12.551250 7.184390 552.250488
111 0 1 12.520240 7.898429 552.966187
112 0 1 12.510180 8.545846 553.628296
113 0 1 12.154100 8.941423 554.427612
114 0 1 11.922970 9.128790 555.343018
115 0 1 11.924020 9.237110 556.303406
116 0 1 11.626260 9.173210 557.259216
117 0 1 11.356190 9.106870 558.235107
118 0 1 11.181490 8.863463 559.133911
119 0 1 11.245940 8.914113 560.083496
120 0 1 11.200350 8.970672 561.050476
121 0 1 11.334579 8.718664 562.020508
122 0 1 11.786650 8.394462 562.825684
123 0 1 12.273740 8.116310 563.741699
124 0 1 12.400120 7.775612 564.656006
125 0 1 12.278090 7.742741 565.588196
126 0 1 12.053930 7.450549 566.507202
127 0 1 11.851690 7.271344 567.496216
128 0 1 11.935110 7.335544 568.441101
129 0 1 12.073750 7.513076 569.411621
130 0 1 12.059441 7.651385 570.411682
131 0 1 11.956230 7.850805 571.321411
132 0 1 11.822060 8.040736 572.286011
133 0 1 11.437230 7.842994 573.189514
134 0 1 10.988640 7.364815 573.954590
135 0 1 10.621930 6.984990 574.789673
136 0 1 10.404860 6.565140 575.675903
137 0 1 10.357430 5.986370 576.404114
138 0 1 10.450160 5.613590 577.246582
139 0 1 10.952980 5.248340 578.054016
140 0 1 11.258930 5.197810 578.965881
141 0 1 11.366130 5.350440 579.853699
142 0 1 11.577311 5.666120 580.717773
143 0 1 11.867770 6.090720 581.522400
144 0 1 12.096130 6.292550 582.464722
145 0 1 12.395920 6.769480 583.235107
146 0 1 12.676840 7.238959 584.094299
147 0 1 12.849550 7.397806 585.016907
148 0 1 12.820250 7.550483 585.984314
149 0 1 12.695030 7.306605 586.936523
150 0 1 12.345921 7.045239 587.793518
151 0 1 11.869560 6.810270 588.619873
152 0 1 11.517120 6.388180 589.452698
153 0 1 11.261820 6.103720 590.403076
154 0 1 11.202330 5.869360 591.388794
155 0 1 11.210590 5.895090 592.377197
156 0 1 11.286720 5.653400 593.294800
157 0 1 11.358120 5.606560 594.238403
158 0 1 11.355790 5.585850 595.181824
159 0 1 11.190300 5.483330 596.058472
160 0 1 10.873899 5.584190 596.965271
161 0 1 10.656740 5.535120 597.924500
162 0 1 10.528880 5.686570 598.884216
163 0 1 10.452750 5.378460 599.827271
164 0 1 10.400850 5.095440 600.759888
165 0 1 10.185369 4.715810 601.682495
166 0 1 9.920770 4.902340 602.599609
167 0 1 9.754660 5.082030 603.485413
168 0 1 9.623631 5.173340 604.428528
169 0 1 9.502430 5.017150 605.341675
170 0 1 9.431870 4.920140 606.333374
171 0 1 9.377300 4.748390 607.258423
172 0 1 9.356350 4.632210 608.184021
173 0 1 9.477740 4.499630 609.136230
174 0 1 9.451860 4.035120 609.925720
175 0 1 9.453010 3.652260 610.764709
176 0 1 9.099380 3.621920 611.605896
177 0 1 8.893382 3.503120 612.504578
178 0 1 8.660007 3.486340 613.440979
179 0 1 8.769977 3.935650 614.302979
180 0 1 8.842795 4.352940 615.182495
181 0 1 9.331740 4.856490 615.932922
182 0 1 9.796400 5.393200 616.635193
183 0 1 10.161100 6.153670 616.959229
184 0 1 10.528481 7.077184 617.260803
185 0 1 10.532180 8.027849 617.621094
186 0 1 10.383320 8.916372 617.959778
187 0 1 10.152570 9.866250 618.361816
188 0 1 9.817590 10.583920 618.833679
189 0 1 9.329350 11.110370 619.502502
190 0 1 9.036800 11.398940 620.313110
191 0 1 8.848860 11.712970 621.207520
192 0 1 8.881572 12.104390 622.061584
193 0 1 8.723554 12.424490 622.938904
194 0 1 8.602936 12.598280 623.876953
195 0 1 8.459793 12.800620 624.806763
196 0 1 8.112206 12.738880 625.710266
197 0 1 7.605606 12.718599 626.603027
198 0 1 7.013224 12.495380 627.239197
199 0 1 6.487530 12.114780 627.961975
200 0 1 6.214730 11.901990 628.852356
201 0 1 5.922590 11.845170 629.742493
202 0 1 5.579270 11.930429 630.657288
203 0 1 5.347810 11.871571 631.619263
204 0 1 5.119450 11.528440 632.582947
205 0 1 4.687400 11.545370 633.434998
206 0 1 4.373730 11.393990 634.400696
207 0 1 4.134430 11.133400 635.251160
208 0 1 3.963620 11.028700 636.218872
209 0 1 4.136530 11.103320 637.184814
210 0 1 4.096080 11.030581 638.174561
211 0 1 4.213830 10.816401 639.167480
212 0 1 4.357610 10.620501 640.107727
213 0 1 4.509890 10.601191 641.074524
214 0 1 4.719260 10.519130 642.077820
215 0 1 4.821710 10.318690 643.022095
216 0 1 4.867220 10.235710 643.994019
217 0 1 4.909050 10.183380 644.967712
218 0 1 4.898890 10.061399 645.942322
219 0 1 4.647620 9.498010 646.655518
220 0 1 4.769730 9.005780 647.516602
221 0 1 4.902320 8.788677 648.486572
222 0 1 4.999280 8.409422 649.322876
223 0 1 5.147680 7.942242 650.135925
224 0 1 5.208900 7.145730 650.701904
225 0 1 5.303330 6.582480 651.473389
226 0 1 5.509050 5.879690 652.176819
227 0 1 5.593230 5.427040 653.002808
228 0 1 5.756940 4.952640 653.851501
229 0 1 5.768010 4.364370 654.632996
230 0 1 5.834170 4.019300 655.515991
231 0 1 6.046810 3.791750 656.510315
232 0 1 6.591210 3.563030 657.244873
233 0 1 7.049472 3.382700 658.066223
234 0 1 7.638379 3.282070 658.875122
235 0 1 8.269938 3.287820 659.643799
236 0 1 8.768873 3.669070 660.391785
237 0 1 9.077880 3.883800 661.292603
238 0 1 9.218240 4.179760 662.228699
239 0 1 9.161090 4.769750 662.966919
240 0 1 8.815961 5.509530 663.578796
241 0 1 8.783025 6.301260 664.059021
242 0 1 8.330085 7.044353 664.465576
243 0 1 7.916351 7.831630 664.786987
244 0 1 7.427706 8.650304 664.939880
245 0 1 6.723900 9.144960 665.333679
246 0 1 5.953690 9.668150 665.517700
247 0 1 5.344100 10.087490 666.053711
248 0 1 4.832060 10.558850 666.799683
249 0 1 4.298300 11.070490 667.418518
250 0 1 4.021840 11.358550 668.251831
251 0 1 3.810630 11.764730 669.065002
252 0 1 3.484680 11.768570 669.959473
253 0 1 3.214600 11.713910 670.895203
254 0 1 3.085740 11.885180 671.837524
255 0 1 3.456070 11.894780 672.674805
256 0 1 3.879130 11.765280 673.585999
257 0 1 4.160620 11.448050 674.411194
258 0 1 4.810480 11.142050 675.052124
259 0 1 5.674460 10.850270 675.478271
260 0 1 6.353180 10.690100 676.168884
261 0 1 7.077603 10.740120 676.827271
262 0 1 7.761322 10.601710 677.443115
263 0 1 8.441222 10.481530 678.192627
264 0 1 9.060050 10.306900 678.935974
265 0 1 9.547540 10.100410 679.757812
266 0 1 10.141340 9.871770 680.452271
267 0 1 10.544240 9.933000 681.332886
268 0 1 10.832690 10.103800 682.256714
269 0 1 11.238461 10.039490 683.116699
270 0 1 11.304520 9.924850 684.048401
271 0 1 11.340240 10.028240 684.981506
272 0 1 11.013260 9.825050 685.905273
273 0 1 10.858300 9.857670 686.885315
274 0 1 10.866100 9.810500 687.840393
275 0 1 10.840020 9.614510 688.815491
276 0 1 11.044490 9.288050 689.743591
277 0 1 11.040720 8.957919 690.599121
278 0 1 10.849640 8.695326 691.529175
279 0 1 10.546480 8.583566 692.462280
280 0 1 10.554970 8.517894 693.474976
281 0 1 10.421860 8.042849 694.364319
282 0 1 10.255630 7.977805 695.317688
283 0 1 9.972910 7.532707 696.172485
284 0 1 9.436820 7.288699 696.926086
285 0 1 8.686702 7.035802 697.506714
286 0 1 8.120765 6.545590 698.069092
287 0 1 7.307641 6.381200 698.528076
288 0 1 6.687810 6.439430 699.251526
289 0 1 6.064000 6.899020 699.789917
290 0 1 5.443050 7.181710 700.423584
291 0 1 4.909690 7.583770 701.109802
292 0 1 4.548520 7.900106 701.945312
293 0 1 4.163760 8.329817 702.795105
294 0 1 3.743590 8.766052 703.610413
295 0 1 3.587990 9.383910 704.336426
296 0 1 3.566320 9.765880 705.214722
297 0 1 3.929320 9.723240 706.194702
298 0 1 4.259580 9.864460 707.075623
299 0 1 4.534870 10.048161 707.982300
300 0 1 4.364850 10.225440 708.876831
301 0 1 4.380810 10.301430 709.822327
302 0 1 4.128450 10.660540 710.682373
303 0 1 4.112560 11.120380 711.550903
304 0 1 4.227840 11.331181 712.491699
305 0 1 4.428970 11.830379 713.343384
306 0 1 4.227790 12.260651 714.174683
307 0 1 3.984130 12.624701 715.034607
308 0 1 3.776940 12.830690 716.018066
309 0 1 3.733440 13.015610 716.942688
310 0 1 4.186990 13.235900 717.760986
311 0 1 4.516250 13.514160 718.625977
312 0 1 4.968560 13.548050 719.477722
313 0 1 5.418560 13.464690 720.332581
314 0 1 5.993800 13.237200 721.083801
315 0 1 6.737840 13.015591 721.626709
316 0 1 7.650996 12.964530 721.979004
317 0 1 8.445725 12.836940 722.539795
318 0 1 9.137510 12.550540 723.077393
319 0 1 9.840140 12.204730 723.632874
320 0 1 10.525140 11.593910 724.000977
321 0 1 11.110630 10.915800 724.279724
322 0 1 11.397420 10.028740 724.594788
323 0 1 11.760890 9.299840 725.085999
324 0 1 12.013650 8.733597 725.839233
325 0 1 12.153561 8.233551 726.633606
326 0 1 12.028400 7.644628 727.391602
327 0 1 11.786320 7.033278 728.106323
328 0 1 11.510941 6.476380 728.906006
329 0 1 11.657021 6.523190 729.822998
330 0 1 11.925300 6.488460 730.718018
331 0 1 12.192360 6.467960 731.669006
332 0 1 12.516200 6.426730 732.608032
333 0 1 12.852859 6.464190 733.453003
334 0 1 12.975969 6.468960 734.374023
335 0 1 13.121500 6.197080 735.254028
336 0 1 13.108320 6.041380 736.205017
337 0 1 13.163370 5.924830 737.169983
338 0 1 13.007410 5.795680 738.115967
339 0 1 12.686300 6.005700 739.007996
340 0 1 12.520320 6.026340 739.922974
341 0 1 12.379820 6.159620 740.835999
342 0 1 12.308210 6.448060 741.742981
343 0 1 12.200840 6.840350 742.671021
344 0 1 12.037230 7.468547 743.396973
345 0 1 11.742510 8.031468 744.094971
346 0 1 11.394600 8.427351 744.942993
347 0 1 11.134350 8.676015 745.903015
348 0 1 10.809010 9.047580 746.684021
349 0 1 10.595730 9.554560 747.429016
350 0 1 10.596000 9.766400 748.335022
351 0 1 10.616000 9.987680 749.259033
352 0 1 10.608350 9.638860 750.114014
353 0 1 10.344080 9.323390 750.953979
354 0 1 10.107389 9.052120 751.809021
355 0 1 9.897380 9.069470 752.815979
356 0 1 9.787330 9.198250 753.788025
357 0 1 9.622060 9.150249 754.766968
358 0 1 9.436700 9.032790 755.705017
359 0 1 9.188060 8.809411 756.645020
360 0 1 9.078660 8.728739 757.646973
361 0 1 9.060380 8.681392 758.609009
362 0 1 9.121130 8.624711 759.634033
363 0 1 8.926425 8.518619 760.614990
364 0 1 8.511423 8.460111 761.484009
365 0 1 8.002959 8.249488 762.289001
366 0 1 7.415621 8.100402 763.106018
367 0 1 6.922530 8.104144 763.879028
368 0 1 6.389820 8.222014 764.705017
369 0 1 5.937910 8.553627 765.440002
370 0 1 5.649300 8.668492 766.338989
371 0 1 5.118440 8.569853 767.091980
372 0 1 4.647550 8.413711 767.905029
373 0 1 4.490410 8.159100 768.813965
374 0 1 4.555200 7.761284 769.789001
375 0 1 4.366700 7.418839 770.646973
376 0 1 4.123600 7.115460 771.547974
377 0 1 3.868890 6.769490 772.424011
378 0 1 3.636100 6.340170 773.343994
379 0 1 3.723090 5.641440 774.035034
380 0 1 3.901700 5.139650 774.809998
381 0 1 4.346050 4.544750 775.565002
382 0 1 4.656000 3.963740 776.265015
383 0 1 4.863830 3.339640 777.015015
384 0 1 5.013490 2.850070 777.828003
385 0 1 5.184410 2.273790 778.615967
386 0 1 5.308370 2.182020 779.551025
387 0 1 5.565540 1.976170 780.476013
388 0 1 5.483730 1.922340 781.432007
389 0 1 5.578920 2.207730 782.351013
390 0 1 5.877960 2.588730 783.260986
391 0 1 6.432520 3.075100 783.843018
392 0 1 6.978170 3.617090 784.348022
393 0 1 7.562601 4.175000 784.815002
394 0 1 7.585438 4.860690 785.495972
395 0 1 7.716816 5.244100 786.416016
396 0 1 7.582269 5.713660 787.252991
397 0 1 7.414867 6.262140 788.036987
398 0 1 7.288147 6.753820 788.801025
399 0 1 7.294843 7.523359 789.358032
400 0 1 7.286516 8.268239 789.924988
401 0 1 7.201394 8.902257 790.632019
402 0 1 7.595372 8.888343 791.504028
403 0 1 7.981630 8.673118 792.348999
404 0 1 8.125330 8.547776 793.250000
405 0 1 8.281000 8.444634 794.221985
406 0 1 8.690633 8.668340 795.109985
407 0 1 8.724977 8.868388 796.088989
408 0 1 8.585773 8.961680 797.049011
409 0 1 8.413411 9.052320 798.057983
410 0 1 8.430678 8.965719 799.023987
411 0 1 8.402065 9.129030 799.968994
412 0 1 8.212035 9.328590 800.908020
413 0 1 7.958358 9.627350 801.854980
414 0 1 7.552316 10.029110 802.653992
415 0 1 7.517863 10.449160 803.489014
416 0 1 7.714675 10.907320 804.312012
417 0 1 7.863261 11.531090 805.062012
418 0 1 7.730005 12.101860 805.867981
419 0 1 7.408076 12.379400 806.742981
420 0 1 7.254327 12.782360 807.687012
421 0 1 6.857400 13.163000 808.458008
422 0 1 6.386690 13.286140 809.328003
423 0 1 5.814020 13.268080 810.127991
424 0 1 5.369660 13.161170 810.989990
425 0 1 5.197520 12.987870 811.938965
426 0 1 5.096380 12.784389 812.964966
427 0 1 5.054660 12.708490 813.875977
428 0 1 5.111480 12.398370 814.768982
429 0 1 5.251580 11.920390 815.549988
430 0 1 5.468910 11.613110 816.455994
431 0 1 5.580060 11.413570 817.445984
432 0 1 5.801250 11.188499 818.382019
433 0 1 5.921330 10.746750 819.328003
434 0 1 6.127920 10.503770 820.221008
435 0 1 6.567110 10.406190 821.041016
436 0 1 6.930880 10.549340 821.960999
437 0 1 7.343025 10.640000 822.802979
438 0 1 8.001288 10.536010 823.531982
439 0 1 8.694361 10.310090 824.127991
440 0 1 9.434100 10.333990 824.721985
441 0 1 10.094530 10.575330 825.318970
442 0 1 10.631371 10.310740 826.062012
443 0 1 11.251290 10.319360 826.797974
444 0 1 11.775430 9.993990 827.507996
445 0 1 12.409460 9.789721 828.192993
446 0 1 13.060440 9.714870 828.924011
447 0 1 13.104210 9.722000 829.854980
448 0 1 13.065020 9.640110 830.827026
449 0 1 12.799700 9.382190 831.708984
450 0 1 12.255930 8.953572 832.354004
451 0 1 11.673810 8.427285 832.963013
452 0 1 11.089090 7.714327 833.143005
453 0 1 10.370190 6.997020 833.016968
454 0 1 9.770020 6.220560 833.037964
455 0 1 9.094750 5.511080 832.865967
456 0 1 8.448589 4.887290 832.603027
457 0 1 7.700570 4.356380 832.346985
458 0 1 6.930830 3.983380 831.908997
459 0 1 6.329300 3.989090 831.140991
460 0 1 5.714530 3.813590 830.372009
461 0 1 4.921770 3.860200 829.859009
462 0 1 4.202960 4.228520 829.315002
463 0 1 3.706210 4.655520 828.729980
464 0 1 3.383630 5.191880 828.052002
465 0 1 3.066530 5.839800 827.322021
466 0 1 3.013090 6.519970 826.604980
467 0 1 3.159500 6.960200 825.708008
468 0 1 3.052030 7.482827 824.835999
469 0 1 2.939650 8.038561 824.035034
470 0 1 2.925480 8.044877 823.018005
471 0 1 2.417610 7.984427 822.145020
472 0 1 2.041910 7.834757 821.192993
473 0 1 1.857220 7.707833 820.265991
474 0 1 1.822390 7.616191 819.309998
475 0 1 1.822540 7.466418 818.328979
476 0 1 2.121960 7.332933 817.414001
477 0 1 2.245150 7.071574 816.494995
478 0 1 2.358590 6.837180 815.582031
479 0 1 2.493650 6.665570 814.655029
480 0 1 2.796730 6.167530 813.922974
481 0 1 3.218240 5.693030 813.114990
482 0 1 3.471360 5.273660 812.268982
483 0 1 3.924600 5.161110 811.339966
484 0 1 4.643240 5.323210 810.760986
485 0 1 5.192040 5.751240 810.114014
486 0 1 5.540220 6.445090 809.523987
487 0 1 5.644440 7.359182 809.210022
488 0 1 5.724860 8.238621 808.858032
489 0 1 5.501700 9.149120 808.557983
490 0 1 5.474120 10.035450 808.078003
491 0 1 5.461300 10.664970 807.276001
492 0 1 5.347610 11.055830 806.443970
493 0 1 5.049740 11.502660 805.609985
494 0 1 4.751950 11.742110 804.684998
495 0 1 4.545060 11.686200 803.776001
496 0 1 4.362410 11.518290 802.875000
497 0 1 4.364800 11.271840 801.969971
498 0 1 4.474640 10.933400 801.072021
499 0 1 4.390470 10.448550 800.239990
500 0 1 4.681390 10.044820 799.463013
501 0 1 5.030350 9.470990 798.823975
502 0 1 5.272210 8.965325 798.007019
503 0 1 5.312250 8.745244 797.114014
504 0 1 5.454240 8.788019 796.094971
505 0 1 5.592380 8.894582 795.192993
506 0 1 5.710140 9.312450 794.286011
507 0 1 5.932270 9.585850 793.348999
508 0 1 5.897030 9.824950 792.466003
509 0 1 5.790040 9.858750 791.521973
510 0 1 5.829020 9.985410 790.509033
511 0 1 5.887380 10.366950 789.610962
512 0 1 6.192760 10.946569 788.851990
513 0 1 6.289370 11.318530 787.955994
514 0 1 6.235760 11.368800 787.020020
515 0 1 6.463150 11.327120 786.023010
516 0 1 6.752690 11.363700 785.101013
517 0 1 7.025670 11.064529 784.172974
518 0 1 7.373139 10.745660 783.309021
519 0 1 7.742703 10.526470 782.422974
520 0 1 7.958765 10.329050 781.494019
521 0 1 8.291638 9.898790 780.630005
522 0 1 8.547912 9.487450 779.789001
523 0 1 8.388321 8.784890 779.117981
524 0 1 8.257142 8.259367 778.325012
525 0 1 8.248163 7.619922 777.544006
526 0 1 8.367500 6.929850 776.932007
527 0 1 8.491081 6.355880 776.208984
528 0 1 8.629178 5.862390 775.398010
529 0 1 8.958983 5.507490 774.583008
530 0 1 9.226360 5.504190 773.677002
531 0 1 9.483970 5.541580 772.786011
532 0 1 9.845060 5.559440 771.865967
533 0 1 10.090450 5.680870 770.936035
534 0 1 10.265910 6.009840 770.020996
535 0 1 10.210270 6.264350 769.039978
536 0 1 10.038960 6.308420 768.075012
537 0 1 10.068450 6.057940 767.166992
538 0 1 10.089710 6.151130 766.166992
539 0 1 10.035680 6.289620 765.210999
540 0 1 9.644500 6.240520 764.322021
541 0 1 9.454120 5.853620 763.393005
542 0 1 9.250630 5.515410 762.523010
543 0 1 9.013720 5.197980 761.658997
544 0 1 8.696696 4.934050 760.707031
545 0 1 8.314010 4.790160 759.835999
546 0 1 8.357728 4.381650 758.968994
547 0 1 8.507627 4.400830 758.000000
548 0 1 8.880082 4.329400 757.072998
549 0 1 9.271700 4.585010 756.223022
550 0 1 9.692280 4.815390 755.380005
551 0 1 10.401150 4.874770 754.635010
552 0 1 11.177090 5.213370 754.093018
553 0 1 11.708920 5.447250 753.325012
554 0 1 12.390890 5.698150 752.651978
555 0 1 12.988410 5.806800 751.888000
556 0 1 13.366830 6.021040 751.023010
557 0 1 13.202230 6.151840 750.109985
558 0 1 12.893450 6.404990 749.249023
559 0 1 12.270969 6.458490 748.484009
560 0 1 11.746920 6.677250 747.710999
561 0 1 11.458179 6.854690 746.804016
562 0 1 11.086940 6.857920 745.888000
563 0 1 10.718130 7.148989 744.984009
564 0 1 10.409600 7.520574 744.153992
565 0 1 10.183130 7.722524 743.229980
566 0 1 9.750800 8.027436 742.437988
567 0 1 9.812520 8.460482 741.630981
568 0 1 9.966640 8.901909 740.757019
569 0 1 9.825100 9.069790 739.828003
570 0 1 9.834480 9.361410 738.903992
571 0 1 9.706340 9.915660 738.059021
572 0 1 10.084681 10.323690 737.309998
573 0 1 10.228080 10.689370 736.445007
574 0 1 10.482170 10.960510 735.556030
575 0 1 10.535690 11.041190 734.530029
576 0 1 10.417270 11.136930 733.591980
577 0 1 10.523500 11.170630 732.648987
578 0 1 10.574970 10.938960 731.710022
579 0 1 10.464060 10.642740 730.809021
580 0 1 10.519070 10.320060 729.906006
581 0 1 10.483459 9.934110 729.002991
582 0 1 10.197100 9.499510 728.197021
583 0 1 9.896111 8.968010 727.369019
584 0 1 9.579510 8.523780 726.623108
585 0 1 9.133910 8.175017 725.812195
586 0 1 9.016930 8.044431 724.844482
587 0 1 8.820573 7.671139 723.962280
588 0 1 8.484005 7.223383 723.143677
589 0 1 8.151559 6.811910 722.367004
590 0 1 7.909095 6.462840 721.493896
591 0 1 7.666976 6.278620 720.567871
592 0 1 7.386749 6.381980 719.570007
593 0 1 7.396985 6.387600 718.629822
594 0 1 7.505134 6.369570 717.688782
595 0 1 7.441940 6.560900 716.711914
596 0 1 7.684634 6.868900 715.721191
597 0 1 7.896438 7.105572 714.781921
598 0 1 8.295969 7.119255 713.878479
599 0 1 8.623601 7.315076 712.965576
600 0 1 9.008780 7.751335 712.206909
601 0 1 9.348230 8.267879 711.453125
602 0 1 9.707580 8.761430 710.720825
603 0 1 10.200380 9.073650 709.923096
604 0 1 10.727090 9.501880 709.251709
605 0 1 11.186280 9.749190 708.390686
606 0 1 11.546100 9.976030 707.469116
607 0 1 11.721680 9.916110 706.500000
608 0 1 12.136660 10.038060 705.586670
609 0 1 12.427700 10.216810 704.658691
610 0 1 12.766050 10.536810 703.756470
611 0 1 12.657209 10.693790 702.867188
612 0 1 12.267941 10.717700 701.961304
613 0 1 11.976120 10.319020 701.124268
614 0 1 11.818350 9.859170 700.238586
615 0 1 11.691240 9.469010 699.406677
616 0 1 11.223420 8.995315 698.686218
617 0 1 10.773439 8.237299 698.231995
618 0 1 10.278690 7.454669 698.078003
619 0 1 9.700600 6.743170 698.000977
620 0 1 9.127350 5.924110 697.918396
621 0 1 8.315533 5.548060 697.570312
622 0 1 7.525982 5.089500 697.267517
623 0 1 6.826690 4.760370 696.674805
624 0 1 6.245510 4.453930 695.928711
625 0 1 5.664800 4.692380 695.121582
626 0 1 5.179110 5.060950 694.398193
627 0 1 4.943920 5.426160 693.567688
628 0 1 4.684370 5.663000 692.700073
629 0 1 4.788730 5.817210 691.758606
630 0 1 5.034650 5.734270 690.792114
631 0 1 5.419050 6.007510 689.942505
632 0 1 5.976470 6.099500 689.166870
633 0 1 6.664570 6.400230 688.539490
634 0 1 7.218865 6.595170 687.757202
635 0 1 7.534408 6.889430 686.827698
636 0 1 7.612388 7.282386 685.994873
637 0 1 7.572290 7.389755 684.986694
638 0 1 7.708957 7.402561 684.020081
639 0 1 7.916633 7.588363 683.083618
640 0 1 8.023554 8.083450 682.315308
641 0 1 7.756143 8.452189 681.477112
642 0 1 7.569010 8.741609 680.510925
643 0 1 7.416743 8.811929 679.503906
644 0 1 7.411358 9.095940 678.558289
645 0 1 7.557206 9.454980 677.564209
646 0 1 7.522528 9.647800 676.599792
647 0 1 7.511161 9.631780 675.665527
648 0 1 7.522704 9.766060 674.654297
649 0 1 7.663776 9.628450 673.707825
650 0 1 7.603558 9.493080 672.736023
651 0 1 7.339742 9.307620 671.850891
652 0 1 7.214227 8.813018 671.006104
653 0 1 6.764420 8.575206 670.122375
654 0 1 6.209900 8.408055 669.382568
655 0 1 5.526240 8.382594 668.611206
656 0 1 4.915090 8.416806 667.879822
657 0 1 4.458320 8.466904 667.066406
658 0 1 3.832620 8.286644 666.273315
659 0 1 3.123010 8.055885 665.690308
660 0 1 2.631900 7.802844 664.887573
661 0 1 2.332880 7.248951 664.163513
662 0 1 2.149350 6.613780 663.488770
663 0 1 2.239760 5.986030 662.692383
664 0 1 2.421220 5.598810 661.850525
665 0 1 2.647820 5.113280 661.052368
666 0 1 2.664270 4.689860 660.189514
667 0 1 2.971960 4.381290 659.340881
668 0 1 3.085410 4.213290 658.432129
669 0 1 3.403870 4.134520 657.529724
670 0 1 3.428460 4.051610 656.537292
671 0 1 3.487340 3.921540 655.562317
672 0 1 3.466100 3.632860 654.688171
673 0 1 3.131620 3.476270 653.755005
674 0 1 3.117470 3.341820 652.711670
675 0 1 3.106810 3.448150 651.714783
676 0 1 3.379830 3.521380 650.800903
677 0 1 3.486340 3.452440 649.772522
678 0 1 3.921850 3.508710 648.887207
679 0 1 4.229790 3.415680 647.969116
680 0 1 4.792140 3.388270 647.134827
681 0 1 5.225210 3.388030 646.217712
682 0 1 5.668270 3.355690 645.410889
683 0 1 5.837190 3.627310 644.470276
684 0 1 6.248450 3.597190 643.593689
685 0 1 6.819860 3.538380 642.833984
686 0 1 7.393646 3.931580 642.189209
687 0 1 7.888804 4.312660 641.445984
688 0 1 8.443028 4.339580 640.657104
689 0 1 8.619010 4.174340 639.707397
690 0 1 8.898446 4.122590 638.824280
691 0 1 9.309480 4.109820 637.965393
692 0 1 9.741340 4.150490 637.051086
693 0 1 10.227050 4.109850 636.195068
694 0 1 10.333460 4.291240 635.235535
695 0 1 10.673010 4.380410 634.289124
696 0 1 10.683520 4.523070 633.284424
697 0 1 10.575630 4.349160 632.346191
698 0 1 10.478980 4.165020 631.424683
699 0 1 10.169050 3.860250 630.601013
700 0 1 9.779050 3.793790 629.684998
701 0 1 9.198060 3.991840 628.998840
702 0 1 8.657764 4.195950 628.208984
703 0 1 7.966352 4.621490 627.682922
704 0 1 7.384124 5.070280 627.034424
705 0 1 6.568930 5.466510 626.716675
706 0 1 6.015480 5.870420 626.017822
707 0 1 5.928040 6.232410 625.154236
708 0 1 5.949660 6.735450 624.241516
709 0 1 5.976480 6.823320 623.329895
710 0 1 6.311140 6.959420 622.439392
711 0 1 6.704670 7.097784 621.608521
712 0 1 7.260008 7.157469 620.839600
713 0 1 7.845534 7.332069 620.066895
714 0 1 8.344457 7.651003 619.291565
715 0 1 8.814921 7.867699 618.506287
716 0 1 9.140980 8.019705 617.623474
717 0 1 9.555280 8.135197 616.761414
718 0 1 9.973710 8.427393 616.006775
719 0 1 10.181590 8.573643 615.107300
720 0 1 10.335340 8.434854 614.159119
721 0 1 10.404890 8.570782 613.217224
722 0 1 10.599220 8.694747 612.303101
723 0 1 10.984420 8.824466 611.377625
724 0 1 11.412280 9.001980 610.531494
725 0 1 11.667220 9.090940 609.597717
726 0 1 11.834410 9.204670 608.660217
727 0 1 11.828130 8.976161 607.643616
728 0 1 11.778521 8.827222 606.690918
729 0 1 12.015530 8.717247 605.743774
730 0 1 11.823290 8.571136 604.841980
731 0 1 11.905951 8.717653 603.933289
732 0 1 11.637300 8.694371 602.973022
733 0 1 11.476920 8.447357 602.057190
734 0 1 11.663240 8.071782 601.158691
735 0 1 11.933290 8.186407 600.199585
736 0 1 12.148520 8.046793 599.243774
737 0 1 12.403891 7.888497 598.307373
738 0 1 12.221160 7.600367 597.419800
739 0 1 12.040770 7.542103 596.469971
740 0 1 11.972140 7.634860 595.497375
741 0 1 11.766450 7.846233 594.537109
742 0 1 11.550210 7.988462 593.655518
743 0 1 11.031820 7.864588 592.840576
744 0 1 10.423719 7.674787 592.024170
745 0 1 9.975330 7.352286 591.288818
746 0 1 9.600500 6.861830 590.568481
747 0 1 9.369610 6.205750 589.862793
748 0 1 9.602560 5.529600 589.127075
749 0 1 9.772440 4.831980 588.538879
750 0 1 9.453630 4.132910 588.009399
751 0 1 9.545820 3.405110 587.453003
752 0 1 9.831800 2.677010 586.689514
753 0 1 9.629750 2.261030 585.729370
754 0 1 9.520780 1.891390 584.870117
755 0 1 9.265450 1.562800 584.008911
756 0 1 8.732723 1.470680 583.239197
757 0 1 8.436986 1.432960 582.336609
758 0 1 8.179257 1.247680 581.430115
759 0 1 8.135694 1.087770 580.516785
760 0 1 8.125208 1.169430 579.556396
761 0 1 8.107081 1.248640 578.590210
762 0 1 7.790727 1.352850 577.674500
763 0 1 7.562324 1.728480 576.805481
764 0 1 7.327810 2.134600 576.006226
765 0 1 7.203099 2.674410 575.242310
766 0 1 7.146310 3.022620 574.267273
767 0 1 7.200436 3.379710 573.387207
768 0 1 7.504839 3.734140 572.535217
769 0 1 7.606778 4.184380 571.729004
770 0 1 7.661935 4.562650 570.829407
771 0 1 7.463409 4.815470 569.923401
772 0 1 7.226668 4.880110 568.959717
773 0 1 6.873580 4.925310 568.033386
774 0 1 6.846900 4.836580 567.093994
775 0 1 6.801940 4.885500 566.147705
776 0 1 7.233850 4.928430 565.155701
777 0 1 7.467971 5.161360 564.261108
778 0 1 7.867116 5.322670 563.376892
779 0 1 8.120790 5.823900 562.554810
780 0 1 8.143196 6.267890 561.676208
781 0 1 8.229841 6.880370 560.988098
782 0 1 8.514032 7.676234 560.413696
783 0 1 8.674492 8.533185 560.014709
784 0 1 9.124660 9.389210 559.712097
785 0 1 9.609230 9.992040 559.103088
786 0 1 9.916110 10.519510 558.346191
787 0 1 9.987470 10.827490 557.445007
788 0 1 10.272290 11.230520 556.539429
789 0 1 10.694901 11.687590 555.873474
790 0 1 11.275681 11.966530 555.232910
791 0 1 11.760880 12.115250 554.388184