LAMMPS data file via MDAnalysis

        1000  atoms
        1000  bonds
        1000  angles
           0  dihedrals
           0  impropers

           1  atom types
           1  bond types
           1  angle types
           0  dihedral types
           0  improper types

0.000000 16.000000 xlo xhi
0.000000 16.000000 ylo yhi
0.000000 1257.000000 zlo zhi


Masses

1 1.000000

Atoms

1 0 1 3.751080 11.134020 474.826996
2 0 1 3.257120 11.225540 475.617981
3 0 1 2.914260 11.214390 476.570007
4 0 1 2.783120 10.754050 477.411011
5 0 1 2.665480 10.395440 478.339996
6 0 1 2.542410 10.055250 479.285004
7 0 1 2.797680 9.466940 480.002991
8 0 1 3.313660 9.064430 480.687012
9 0 1 3.726000 8.622186 481.489014
10 0 1 4.101110 8.252833 482.337006
11 0 1 4.342140 8.258911 483.352997
12 0 1 4.530300 8.479960 484.263000
13 0 1 4.521400 8.668625 485.238007
14 0 1 4.466310 8.833127 486.148010
15 0 1 4.614950 9.231990 486.997986
16 0 1 4.808970 9.194480 487.945984
17 0 1 4.916660 9.103670 488.869019
18 0 1 5.231070 9.201650 489.802002
19 0 1 5.656590 8.944733 490.675995
20 0 1 6.055400 8.566228 491.468018
21 0 1 6.560540 8.226630 492.273010
22 0 1 7.186887 7.888174 492.950989
23 0 1 7.886598 7.587181 493.615997
24 0 1 8.479959 7.120673 494.128998
25 0 1 9.290700 7.059757 494.673004
26 0 1 9.991430 6.999870 495.302979
27 0 1 10.538460 6.733740 496.023987
28 0 1 11.119780 6.469190 496.752991
29 0 1 11.732430 6.041800 497.351990
30 0 1 12.507790 6.351070 497.838013
31 0 1 13.050660 6.483940 498.660004
32 0 1 13.535521 6.418000 499.513000
33 0 1 13.695089 6.084030 500.393982
34 0 1 13.874440 5.788130 501.270996
35 0 1 14.232540 5.631650 502.127991
36 0 1 14.498199 5.662690 503.056000
37 0 1 14.400169 5.944450 504.011993
38 0 1 14.275190 5.956490 504.971008
39 0 1 14.201590 6.271790 505.885986
40 0 1 13.957150 6.453280 506.854004
41 0 1 13.814720 6.526030 507.837006
42 0 1 13.836260 6.724780 508.796997
43 0 1 13.748330 7.048413 509.755005
44 0 1 13.653299 7.467301 510.632019
45 0 1 13.424100 7.875236 511.488007
46 0 1 13.003410 8.002093 512.369019
47 0 1 12.409800 8.208853 513.098022
48 0 1 11.847290 8.654205 513.723022
49 0 1 11.642250 9.123569 514.526001
50 0 1 11.338000 9.501320 515.367981
51 0 1 11.410470 9.987270 516.221985
52 0 1 11.619300 10.299340 517.106995
53 0 1 11.677480 10.190560 518.064026
54 0 1 11.605650 10.396190 518.997009
55 0 1 11.598590 10.735000 519.910034
56 0 1 11.652081 11.092030 520.830017
57 0 1 11.342020 11.259000 521.776978
58 0 1 11.097410 11.411180 522.742981
59 0 1 11.072380 11.528780 523.658020
60 0 1 10.957600 11.845420 524.533997
61 0 1 10.889430 11.912760 525.528992
62 0 1 10.726430 11.946720 526.486023
63 0 1 10.554560 11.906490 527.421021
64 0 1 10.524050 11.827600 528.388977
65 0 1 10.296580 11.864870 529.353088
66 0 1 10.145460 11.936720 530.310486
67 0 1 10.248460 11.843550 531.240601
68 0 1 10.347210 11.700541 532.209900
69 0 1 10.451670 11.539740 533.161804
70 0 1 10.861830 11.123580 533.928833
71 0 1 11.461920 10.620790 534.596680
72 0 1 11.843390 10.173759 535.339600
73 0 1 12.037940 9.583860 536.059082
74 0 1 12.107970 9.051780 536.840393
75 0 1 12.110580 8.396256 537.554993
76 0 1 12.131730 7.698392 538.229126
77 0 1 12.418720 6.993790 538.903931
78 0 1 12.765600 6.860650 539.784485
79 0 1 13.119619 6.810330 540.660889
80 0 1 13.615459 6.573990 541.440979
81 0 1 13.990370 6.541760 542.277283
82 0 1 13.936621 6.583630 543.235474
83 0 1 13.577410 6.740210 544.097900
84 0 1 13.068501 7.053906 544.851013
85 0 1 12.495399 7.427727 545.481323
86 0 1 11.808500 7.387330 546.107483
87 0 1 11.275880 7.142425 546.822205
88 0 1 10.856350 7.023607 547.712891
89 0 1 10.519711 6.491300 548.438293
90 0 1 10.203250 6.308390 549.300781
91 0 1 10.033630 6.150300 550.242188
92 0 1 9.806750 5.943250 551.175110
93 0 1 9.498400 5.877400 552.098816
94 0 1 9.145970 5.963520 552.966614
95 0 1 9.028800 6.089660 553.928223
96 0 1 8.644673 6.234340 554.837585
97 0 1 8.339109 6.343740 555.713074
98 0 1 8.102549 6.666490 556.564819
99 0 1 7.796255 6.740230 557.511475
100 0 1 7.454884 6.886830 558.366089
101 0 1 7.201012 7.104034 559.280884
102 0 1 7.136664 7.305109 560.193420
103 0 1 7.056089 7.490172 561.119873
104 0 1 7.106973 7.681455 562.061523
105 0 1 6.971370 7.924042 562.994812
106 0 1 6.907460 7.779459 563.980286
107 0 1 7.078745 7.952248 564.971497
108 0 1 6.880450 7.842922 565.879089
109 0 1 6.864540 7.893514 566.842285
110 0 1 6.894150 7.749922 567.810608
111 0 1 7.056032 7.580302 568.729126
112 0 1 7.072115 7.323998 569.650085
113 0 1 7.029539 7.047356 570.563110
114 0 1 7.102415 6.839810 571.499390
115 0 1 7.242305 6.597820 572.488892
116 0 1 7.556012 6.449860 573.368530
117 0 1 7.779745 6.627700 574.306702
118 0 1 7.901764 6.600100 575.237000
119 0 1 7.944941 6.544430 576.176208
120 0 1 7.969631 6.722020 577.126587
121 0 1 7.996781 7.017246 578.119019
122 0 1 7.847031 7.462754 578.927124
123 0 1 8.231132 7.997870 579.643677
124 0 1 8.585779 8.645931 580.319702
125 0 1 9.098400 9.071900 581.037598
126 0 1 9.543159 9.547870 581.732300
127 0 1 10.428801 9.719860 582.018982
128 0 1 11.361070 9.730550 582.188721
129 0 1 12.129620 9.857821 582.722290
130 0 1 12.851641 9.959500 583.356079
131 0 1 13.305309 10.271670 584.164612
132 0 1 13.507980 10.224649 585.120422
133 0 1 13.691290 10.133360 585.995300
134 0 1 13.913090 9.967520 586.994873
135 0 1 13.759240 10.010099 587.977722
136 0 1 13.452499 10.041880 588.860291
137 0 1 12.838640 10.277190 589.549927
138 0 1 12.032970 10.366670 590.067627
139 0 1 11.276850 10.427600 590.687500
140 0 1 10.568450 10.368860 591.291992
141 0 1 9.854720 10.128660 591.903076
142 0 1 9.114200 9.841270 592.487122
143 0 1 8.537565 9.493350 593.141785
144 0 1 8.016473 9.052160 593.840210
145 0 1 7.572328 8.437489 594.531311
146 0 1 6.833240 8.103811 595.075928
147 0 1 6.361230 7.998828 595.930115
148 0 1 5.867560 7.931797 596.754883
149 0 1 5.301900 7.906657 597.530029
150 0 1 4.906160 8.207834 598.290771
151 0 1 4.504170 8.480700 599.119080
152 0 1 4.106030 8.741185 599.949402
153 0 1 3.833420 9.253980 600.762512
154 0 1 3.320480 9.521920 601.543213
155 0 1 2.748590 9.780120 602.300598
156 0 1 2.435800 9.976000 603.240112
157 0 1 2.073400 10.062901 604.138184
158 0 1 1.982820 9.683140 605.006775
159 0 1 2.223950 9.367610 605.937805
160 0 1 2.361420 9.280230 606.893005
161 0 1 2.486220 9.171890 607.865295
162 0 1 2.737500 9.371590 608.741516
163 0 1 2.937390 9.482200 609.682800
164 0 1 3.017430 9.723240 610.586914
165 0 1 3.309010 9.881180 611.492676
166 0 1 3.464740 10.215850 612.359497
167 0 1 3.300330 9.983050 613.278015
168 0 1 3.546920 9.746700 614.159180
169 0 1 3.785380 9.557310 615.101379
170 0 1 3.774060 9.205580 615.957397
171 0 1 3.887200 8.841699 616.932617
172 0 1 3.988650 8.525617 617.867615
173 0 1 4.297550 8.448059 618.743896
174 0 1 4.326910 8.797415 619.618286
175 0 1 4.113930 9.072780 620.470764
176 0 1 3.774450 9.186150 621.372864
177 0 1 3.591140 9.165520 622.336426
178 0 1 3.423790 9.505000 623.244263
179 0 1 3.285740 9.923890 624.160583
180 0 1 3.238260 10.468920 624.965210
181 0 1 3.233100 10.870320 625.863953
182 0 1 3.229570 11.196530 626.733948
183 0 1 3.385440 11.460090 627.700195
184 0 1 3.727310 11.850740 628.554932
185 0 1 3.813940 11.994900 629.475708
186 0 1 3.902160 12.002610 630.403625
187 0 1 3.768740 11.812540 631.348938
188 0 1 3.621310 11.271530 632.083740
189 0 1 3.647680 10.702360 632.881897
190 0 1 3.673880 10.277580 633.738525
191 0 1 3.745380 10.158751 634.789062
192 0 1 3.853740 9.934870 635.746948
193 0 1 3.979110 9.873690 636.721863
194 0 1 4.346400 9.748840 637.606079
195 0 1 4.890900 9.584170 638.422852
196 0 1 5.035590 9.132730 639.230225
197 0 1 5.273990 8.783411 640.080017
198 0 1 5.453220 8.560525 640.966797
199 0 1 5.677650 8.382381 641.968018
200 0 1 6.177790 8.230767 642.884583
201 0 1 6.585790 8.019139 643.742371
202 0 1 6.680010 7.425933 644.546631
203 0 1 6.711170 7.017625 645.446472
204 0 1 6.990060 6.372420 646.114624
205 0 1 7.411346 5.754470 646.743591
206 0 1 7.861086 5.416800 647.564697
207 0 1 8.221525 5.146850 648.364685
208 0 1 8.514169 4.869370 649.303284
209 0 1 8.895040 4.673520 650.173401
210 0 1 9.456079 4.298690 650.900818
211 0 1 10.103951 4.010360 651.636108
212 0 1 10.676280 3.916290 652.424927
213 0 1 11.011480 4.072700 653.299927
214 0 1 11.345760 4.680660 654.005798
215 0 1 11.721830 5.044210 654.818298
216 0 1 12.166571 5.714500 655.326294
217 0 1 12.441521 6.488350 655.811829
218 0 1 12.473890 7.356004 656.069397
219 0 1 12.336620 8.323884 656.269409
220 0 1 12.090310 9.236980 656.421204
221 0 1 11.941840 10.069360 656.895874
222 0 1 11.977910 10.593440 657.687500
223 0 1 12.311160 10.893060 658.536987
224 0 1 12.542260 10.941430 659.491211
225 0 1 12.865260 10.771390 660.346619
226 0 1 13.020250 10.698020 661.303284
227 0 1 13.431670 10.481650 662.246216
228 0 1 13.399940 10.306150 663.182129
229 0 1 13.272570 10.210390 664.092712
230 0 1 13.155371 10.078440 665.053223
231 0 1 13.014140 10.124310 665.953674
232 0 1 12.829821 9.982160 666.918701
233 0 1 12.967620 9.782120 667.884521
234 0 1 13.269140 9.780850 668.863220
235 0 1 13.451330 10.129300 669.744385
236 0 1 13.215469 10.299030 670.618286
237 0 1 13.080280 10.278111 671.563110
238 0 1 12.817210 10.306120 672.477905
239 0 1 12.757540 10.393240 673.505188
240 0 1 12.870560 10.120980 674.404480
241 0 1 12.566780 9.983000 675.297180
242 0 1 12.401770 9.933620 676.285278
243 0 1 12.394230 9.660380 677.207886
244 0 1 12.128750 9.318020 678.069702
245 0 1 12.018010 9.054710 678.985107
246 0 1 11.913651 8.688115 679.915710
247 0 1 12.012840 8.377605 680.853210
248 0 1 11.851930 8.236688 681.771912
249 0 1 11.538190 8.494232 682.665710
250 0 1 11.183559 8.594311 683.532104
251 0 1 11.066380 8.792421 684.473328
252 0 1 11.059550 8.768867 685.484192
253 0 1 11.141650 8.623428 686.398926
254 0 1 10.913150 8.565434 687.300171
255 0 1 10.827410 8.694340 688.302124
256 0 1 10.952169 8.727107 689.248291
257 0 1 11.215260 8.793518 690.171997
258 0 1 11.437610 8.693663 691.059570
259 0 1 11.661960 8.702235 691.997375
260 0 1 12.279730 8.797780 692.736816
261 0 1 12.495740 8.501852 693.661621
262 0 1 12.665490 8.191067 694.583374
263 0 1 12.953360 7.915478 695.450684
264 0 1 13.181150 7.964314 696.403381
265 0 1 13.205790 8.011870 697.423401
266 0 1 13.208960 8.115438 698.381470
267 0 1 13.089460 8.027026 699.349182
268 0 1 12.873130 8.051220 700.259827
269 0 1 12.709490 8.135790 701.199585
270 0 1 12.400909 8.059474 702.159180
271 0 1 12.121360 7.944614 703.136719
272 0 1 11.910650 7.877302 704.058777
273 0 1 11.763360 7.741686 704.991577
274 0 1 11.550040 7.805269 705.909912
275 0 1 11.449770 7.497559 706.856812
276 0 1 11.216209 7.244500 707.705994
277 0 1 11.065300 6.771920 708.561401
278 0 1 10.752910 6.348390 709.337402
279 0 1 10.121520 5.977690 709.980408
280 0 1 9.305900 5.532580 710.333496
281 0 1 8.688371 5.033770 710.859314
282 0 1 8.180319 4.579230 711.585205
283 0 1 7.580960 4.029020 712.043518
284 0 1 6.942920 3.705040 712.665405
285 0 1 6.229070 3.453970 713.223694
286 0 1 5.553690 3.372660 713.938599
287 0 1 5.003740 3.452520 714.748779
288 0 1 4.664480 3.727090 715.592590
289 0 1 4.491890 4.049950 716.496277
290 0 1 4.552530 3.985960 717.487305
291 0 1 4.983380 3.798020 718.353394
292 0 1 5.118920 3.686130 719.398071
293 0 1 5.344060 3.744950 720.362488
294 0 1 5.338800 3.694490 721.306580
295 0 1 5.586520 3.612210 722.278625
296 0 1 5.744700 3.681140 723.265381
297 0 1 6.101000 3.719990 724.157104
298 0 1 6.357410 3.539020 725.028809
299 0 1 6.770010 3.425470 725.912109
300 0 1 7.160336 3.299110 726.786133
301 0 1 7.758146 3.314300 727.526123
302 0 1 8.388983 3.217430 728.227600
303 0 1 8.784474 2.868710 729.046997
304 0 1 8.669560 2.676870 729.997009
305 0 1 8.430609 2.673910 730.974976
306 0 1 8.049270 2.606210 731.862976
307 0 1 7.662097 2.632090 732.731018
308 0 1 7.325119 2.765340 733.667969
309 0 1 6.830000 2.953130 734.520996
310 0 1 6.278520 3.196230 735.240967
311 0 1 6.076910 3.512780 736.210999
312 0 1 6.207240 3.831930 737.117981
313 0 1 6.251780 3.827410 738.072021
314 0 1 6.085680 4.185880 738.973022
315 0 1 5.847350 4.596270 739.846008
316 0 1 5.394040 4.883320 740.663025
317 0 1 5.163020 4.888980 741.615967
318 0 1 4.928750 4.863160 742.533020
319 0 1 4.635190 4.769580 743.429993
320 0 1 4.424970 4.847040 744.322021
321 0 1 4.193470 4.903680 745.231018
322 0 1 4.046230 4.892830 746.205017
323 0 1 4.142690 5.102750 747.213013
324 0 1 4.512730 5.381070 748.153992
325 0 1 4.690380 5.375340 749.065002
326 0 1 4.970850 5.427090 749.929016
327 0 1 5.250500 5.366730 750.867004
328 0 1 5.597400 5.162920 751.822021
329 0 1 6.033260 5.114920 752.679993
330 0 1 6.276620 4.979190 753.589966
331 0 1 6.620950 4.874160 754.461975
332 0 1 7.042846 5.107880 755.335022
333 0 1 7.554586 5.218820 756.153992
334 0 1 7.882182 5.192900 757.057007
335 0 1 8.231167 5.257870 757.968994
336 0 1 8.568231 5.416520 758.791016
337 0 1 8.978236 5.659970 759.661987
338 0 1 9.331779 5.997250 760.505005
339 0 1 9.501640 6.454040 761.385986
340 0 1 9.386640 6.666330 762.311035
341 0 1 9.321400 6.830550 763.224976
342 0 1 9.603310 6.631630 764.171997
343 0 1 9.537390 6.337670 765.062988
344 0 1 9.385670 6.225760 766.025024
345 0 1 9.344090 6.169680 766.981018
346 0 1 9.383610 6.143160 767.964966
347 0 1 9.347660 6.310420 768.917969
348 0 1 9.281820 6.558420 769.833008
349 0 1 9.025410 6.669470 770.719971
350 0 1 8.834307 6.259660 771.505981
351 0 1 8.616146 5.980230 772.424988
352 0 1 8.454322 5.756840 773.414001
353 0 1 8.070094 5.418430 774.221008
354 0 1 7.615767 5.147370 774.987000
355 0 1 7.237816 5.289410 775.872986
356 0 1 6.805070 5.236950 776.806030
357 0 1 6.660480 5.032950 777.733032
358 0 1 6.819230 4.912360 778.705017
359 0 1 6.576020 4.740240 779.575989
360 0 1 6.532910 4.589530 780.531982
361 0 1 6.659200 4.693200 781.549011
362 0 1 6.562540 4.568750 782.541016
363 0 1 6.368000 4.342780 783.419983
364 0 1 6.008860 4.319940 784.264038
365 0 1 5.772280 4.532890 785.177002
366 0 1 5.261940 4.379000 785.945007
367 0 1 4.740530 4.204640 786.739990
368 0 1 4.406160 4.003130 787.655029
369 0 1 4.191910 3.629060 788.497986
370 0 1 4.133990 3.190990 789.341003
371 0 1 4.393410 2.989720 790.240967
372 0 1 4.806640 2.730190 791.072021
373 0 1 5.287010 2.646030 791.906982
374 0 1 5.982670 2.759860 792.594971
375 0 1 6.577710 2.908090 793.343018
376 0 1 7.203687 3.159890 794.070984
377 0 1 7.486283 3.211680 795.036987
378 0 1 7.851855 3.238670 795.953979
379 0 1 7.850267 3.349920 796.929993
380 0 1 7.746778 3.403880 797.867981
381 0 1 7.585261 3.672350 798.789001
382 0 1 7.825105 4.246340 799.645020
383 0 1 8.020709 4.752300 800.481018
384 0 1 8.312274 5.354920 801.188965
385 0 1 8.641350 5.879400 801.914978
386 0 1 9.046300 6.389320 802.585999
387 0 1 9.416520 6.749820 803.406982
388 0 1 9.454370 7.078236 804.318970
389 0 1 9.504030 7.407076 805.216980
390 0 1 9.607260 7.614756 806.145020
391 0 1 9.470020 7.762097 807.122009
392 0 1 9.401600 7.928658 808.052979
393 0 1 9.618590 8.158627 809.005981
394 0 1 9.660789 8.444413 809.885986
395 0 1 9.709320 8.788121 810.781982
396 0 1 9.684400 9.334260 811.634033
397 0 1 9.750220 9.922380 812.393982
398 0 1 9.743420 10.598170 813.127991
399 0 1 9.767710 11.138920 813.872009
400 0 1 9.734420 11.613010 814.791016
401 0 1 9.647650 11.799191 815.716980
402 0 1 9.629190 11.928960 816.650024
403 0 1 9.690130 12.024031 817.666992
404 0 1 9.723170 12.429140 818.500977
405 0 1 9.531350 12.692989 819.380005
406 0 1 9.484280 12.743650 820.388000
407 0 1 9.778190 12.950780 821.245972
408 0 1 9.983290 13.170120 822.136963
409 0 1 10.287680 13.499189 822.963989
410 0 1 10.686930 13.539190 823.937012
411 0 1 11.053930 13.460100 824.759033
412 0 1 11.448690 13.188580 825.561035
413 0 1 11.922520 12.922390 826.380981
414 0 1 12.496790 12.515300 827.145996
415 0 1 12.810270 12.275129 828.054016
416 0 1 12.976641 12.034950 828.957031
417 0 1 13.147170 11.769730 829.809998
418 0 1 13.324881 11.639750 830.839966
419 0 1 13.388850 11.632290 831.841003
420 0 1 13.551900 11.519600 832.703003
421 0 1 13.348890 11.368390 833.604980
422 0 1 13.099880 11.022950 834.455994
423 0 1 12.642361 10.842260 835.234985
424 0 1 12.209110 10.456079 835.968018
425 0 1 11.732350 9.926960 836.606018
426 0 1 11.224960 9.530950 837.318970
427 0 1 10.461440 8.993964 837.445984
428 0 1 9.781919 8.717322 837.994995
429 0 1 9.023750 8.288129 838.426025
430 0 1 8.574048 7.606892 839.018005
431 0 1 8.024144 6.852060 839.351990
432 0 1 7.613268 5.997090 839.693970
433 0 1 7.040441 5.276790 839.953003
434 0 1 6.804620 4.378700 839.708984
435 0 1 6.749740 3.426790 839.265991
436 0 1 6.681010 2.581010 838.783020
437 0 1 6.865180 2.009850 838.065979
438 0 1 7.027639 1.523380 837.285034
439 0 1 7.242132 1.333140 836.375000
440 0 1 7.531981 1.308500 835.382996
441 0 1 7.891554 1.466960 834.494995
442 0 1 7.963476 1.914890 833.552979
443 0 1 8.260991 2.439230 832.815002
444 0 1 8.161294 2.920590 832.010986
445 0 1 7.981745 3.631800 831.320984
446 0 1 7.818311 4.227830 830.630981
447 0 1 7.603793 4.507600 829.738037
448 0 1 7.398013 4.911340 828.877991
449 0 1 7.137109 5.472670 828.091003
450 0 1 6.787880 5.790620 827.223999
451 0 1 6.503200 6.061230 826.312012
452 0 1 6.136960 6.450230 825.510010
453 0 1 5.626890 6.689130 824.754028
454 0 1 5.131600 6.625830 823.953979
455 0 1 4.658560 6.500970 823.160034
456 0 1 4.289750 6.144620 822.276978
457 0 1 3.871870 6.110070 821.341980
458 0 1 3.492810 5.970820 820.431030
459 0 1 3.097140 5.742810 819.645020
460 0 1 2.801290 5.740280 818.744995
461 0 1 2.616170 5.491450 817.822021
462 0 1 2.624790 5.064270 816.895020
463 0 1 2.717340 4.679830 816.000977
464 0 1 2.620890 4.267040 815.070984
465 0 1 2.822380 4.079350 814.207031
466 0 1 2.844330 3.979630 813.216003
467 0 1 2.892520 4.122280 812.187988
468 0 1 2.804070 4.361540 811.266968
469 0 1 2.732810 4.372910 810.297974
470 0 1 2.679630 4.250640 809.363037
471 0 1 2.678580 3.832550 808.492981
472 0 1 3.091270 3.607580 807.671997
473 0 1 3.472330 3.543190 806.827026
474 0 1 3.723740 3.874530 805.945984
475 0 1 4.168070 4.108590 805.119019
476 0 1 4.705420 4.271880 804.385010
477 0 1 5.464950 4.571340 803.841980
478 0 1 6.254050 5.062060 803.389038
479 0 1 6.678000 5.605190 802.655029
480 0 1 6.966950 6.092640 801.877014
481 0 1 7.182212 6.370870 801.031006
482 0 1 7.185000 6.604370 800.098999
483 0 1 6.758580 6.856520 799.218018
484 0 1 6.450790 7.029169 798.359985
485 0 1 6.035820 7.008906 797.492981
486 0 1 5.776710 6.964780 796.568970
487 0 1 5.456280 7.018070 795.645996
488 0 1 5.221660 6.590960 794.750977
489 0 1 4.997950 6.372390 793.872009
490 0 1 4.732790 6.216150 792.994995
491 0 1 4.484560 6.216680 792.080017
492 0 1 4.255780 6.152040 791.135986
493 0 1 4.227300 6.120720 790.169983
494 0 1 4.028300 6.109010 789.231018
495 0 1 3.856610 6.037950 788.315002
496 0 1 3.793330 6.074230 787.344971
497 0 1 3.442620 6.217280 786.458984
498 0 1 3.311740 6.672390 785.547974
499 0 1 3.441090 7.066347 784.700012
500 0 1 3.895670 7.518298 783.916016
501 0 1 4.404330 7.603619 783.002991
502 0 1 4.795950 7.378803 782.139038
503 0 1 5.260170 7.291291 781.275024
504 0 1 5.656760 7.172645 780.436035
505 0 1 5.531540 7.083797 779.537964
506 0 1 5.178350 7.200328 778.561035
507 0 1 5.035650 7.430870 777.674988
508 0 1 4.858720 7.516464 776.738037
509 0 1 4.941780 7.653950 775.811035
510 0 1 5.131410 7.994743 774.989990
511 0 1 5.336810 8.269197 774.025024
512 0 1 5.802660 8.432529 773.193970
513 0 1 6.316000 8.637101 772.398010
514 0 1 6.691410 8.670141 771.518982
515 0 1 7.078503 8.949186 770.651001
516 0 1 7.545927 9.321210 769.898010
517 0 1 8.053236 9.595280 769.088013
518 0 1 8.554550 9.538330 768.299011
519 0 1 8.863574 9.299480 767.372009
520 0 1 9.030110 8.961981 766.515991
521 0 1 9.101789 8.729782 765.570984
522 0 1 8.851295 8.476468 764.656982
523 0 1 8.500446 8.484239 763.768005
524 0 1 8.148864 8.373952 762.796021
525 0 1 7.838428 8.190655 761.891968
526 0 1 7.530035 7.945830 760.981018
527 0 1 7.487368 7.518391 760.018005
528 0 1 7.337109 7.223755 759.072021
529 0 1 7.357367 6.882840 758.169006
530 0 1 7.315402 6.529300 757.148987
531 0 1 7.424265 6.366010 756.179993
532 0 1 7.456762 6.293960 755.231018
533 0 1 7.416483 6.502550 754.301025
534 0 1 7.209620 6.716310 753.398010
535 0 1 6.806950 7.072216 752.603027
536 0 1 6.406300 7.321366 751.721985
537 0 1 6.427790 7.705232 750.807007
538 0 1 6.618720 7.992049 749.864990
539 0 1 6.836100 8.222449 748.976013
540 0 1 7.168744 8.412660 748.112000
541 0 1 7.225171 8.608678 747.153992
542 0 1 7.479888 8.818430 746.207031
543 0 1 7.858278 9.088060 745.379028
544 0 1 8.288133 9.361360 744.521973
545 0 1 8.762655 9.427750 743.744995
546 0 1 9.170650 9.511350 742.763000
547 0 1 9.584200 9.472050 741.828979
548 0 1 9.732370 9.425740 740.893982
549 0 1 10.047850 9.498770 739.895020
550 0 1 10.430710 9.452550 738.981018
551 0 1 10.969200 9.690320 738.166992
552 0 1 11.017860 10.254100 737.309998
553 0 1 11.047850 10.498760 736.377991
554 0 1 11.190730 10.741780 735.500000
555 0 1 11.233510 10.985980 734.552979
556 0 1 11.352360 11.203320 733.637024
557 0 1 11.256570 11.515310 732.716980
558 0 1 11.268330 11.889050 731.836975
559 0 1 11.399500 12.138210 730.940002
560 0 1 11.430330 12.423241 730.020020
561 0 1 11.555410 12.965731 729.192993
562 0 1 11.646190 13.155970 728.241516
563 0 1 11.696780 13.182150 727.263306
564 0 1 11.549450 13.048420 726.315002
565 0 1 11.611990 13.087100 725.317200
566 0 1 11.954140 13.010790 724.339966
567 0 1 12.268360 12.496840 723.556091
568 0 1 12.245390 12.101840 722.694519
569 0 1 12.060790 11.726440 721.841492
570 0 1 11.983610 11.318450 720.963867
571 0 1 11.900579 11.105750 720.069275
572 0 1 12.052460 10.930790 719.128174
573 0 1 12.151239 10.630710 718.186707
574 0 1 12.442810 10.127410 717.420593
575 0 1 12.267330 9.660890 716.662476
576 0 1 11.954781 9.543500 715.747314
577 0 1 11.716619 9.358260 714.832214
578 0 1 11.279020 9.107680 714.031311
579 0 1 10.917140 8.563029 713.340820
580 0 1 10.411040 8.145418 712.677307
581 0 1 9.829450 7.629106 712.035095
582 0 1 9.297220 7.149665 711.439392
583 0 1 8.798595 6.921000 710.669678
584 0 1 8.399969 6.997150 709.765320
585 0 1 8.237201 6.984830 708.857422
586 0 1 8.065546 7.016355 707.877319
587 0 1 7.681725 7.188302 707.025696
588 0 1 7.600005 7.128996 706.083008
589 0 1 7.270694 7.130207 705.176270
590 0 1 7.082484 7.121794 704.207397
591 0 1 6.630180 6.730550 703.360413
592 0 1 6.566150 5.906110 702.798584
593 0 1 6.823250 5.506120 701.935791
594 0 1 7.201947 5.687070 701.052673
595 0 1 7.643354 6.009960 700.132874
596 0 1 8.153895 6.299860 699.379578
597 0 1 8.671314 6.413760 698.585999
598 0 1 9.186870 6.422090 697.766968
599 0 1 9.545700 6.276540 696.822632
600 0 1 9.991350 6.511370 696.045410
601 0 1 10.553391 6.681640 695.296326
602 0 1 10.688220 6.687200 694.391602
603 0 1 10.925560 6.707890 693.478882
604 0 1 11.115250 6.513090 692.539185
605 0 1 10.908630 6.355750 691.628174
606 0 1 10.610430 6.495730 690.724487
607 0 1 10.434550 6.402190 689.736511
608 0 1 9.912790 6.401430 688.884277
609 0 1 9.368230 6.160420 688.077026
610 0 1 9.122360 5.968480 687.149109
611 0 1 9.031260 5.668510 686.223999
612 0 1 9.292440 5.276180 685.331787
613 0 1 9.497200 4.919860 684.425781
614 0 1 9.633230 4.722670 683.480286
615 0 1 9.586660 4.482200 682.503296
616 0 1 9.517530 4.088780 681.585083
617 0 1 9.687170 4.035370 680.652405
618 0 1 9.578290 4.027960 679.710022
619 0 1 9.628390 4.002830 678.749268
620 0 1 9.325980 4.042980 677.745789
621 0 1 9.259580 4.540840 676.872925
622 0 1 9.368820 5.054660 676.096313
623 0 1 9.349820 5.646280 675.292480
624 0 1 9.193501 6.006570 674.388916
625 0 1 9.010860 6.314210 673.521179
626 0 1 8.646204 6.530700 672.678894
627 0 1 8.218142 6.374230 671.835083
628 0 1 7.844956 5.958430 671.021484
629 0 1 7.042104 5.501710 670.601624
630 0 1 6.145520 5.137190 670.280823
631 0 1 5.370570 5.119650 669.756714
632 0 1 4.695230 5.121370 669.025818
633 0 1 4.189120 5.182340 668.254822
634 0 1 3.801460 5.297240 667.347168
635 0 1 3.715370 5.622090 666.458313
636 0 1 3.723830 6.097060 665.672424
637 0 1 3.591830 6.714210 665.034607
638 0 1 3.188920 7.335188 664.338684
639 0 1 2.784610 7.755225 663.547974
640 0 1 2.386580 8.049842 662.712708
641 0 1 2.528900 8.187206 661.773926
642 0 1 2.828550 8.455697 660.898315
643 0 1 3.162410 8.922259 660.125610
644 0 1 3.520880 9.529520 659.438721
645 0 1 3.904350 9.804430 658.619629
646 0 1 4.160750 10.126510 657.756470
647 0 1 4.446820 10.487960 656.866272
648 0 1 4.649060 10.784620 655.995422
649 0 1 4.786320 11.130370 655.138123
650 0 1 5.064060 11.584760 654.411926
651 0 1 5.412600 12.162331 653.738403
652 0 1 5.935840 12.484690 652.989929
653 0 1 6.521060 12.809731 652.269287
654 0 1 6.937880 13.035620 651.362610
655 0 1 7.600097 13.109390 650.654907
656 0 1 8.063109 13.211700 649.887024
657 0 1 8.341460 13.184959 648.964783
658 0 1 8.628813 13.390300 648.086426
659 0 1 8.658141 13.480930 647.158813
660 0 1 8.664730 13.801559 646.226318
661 0 1 8.485596 13.947110 645.337891
662 0 1 8.458246 14.190160 644.402588
663 0 1 8.479116 14.313150 643.393616
664 0 1 8.144272 14.383170 642.539978
665 0 1 7.909377 14.586451 641.546021
666 0 1 7.856803 14.433870 640.642090
667 0 1 7.688070 13.976191 639.817078
668 0 1 7.780755 13.376080 639.023071
669 0 1 7.752897 12.881510 638.169861
670 0 1 7.843116 12.175500 637.521729
671 0 1 7.500579 11.431020 636.959106
672 0 1 6.915330 10.703430 636.607422
673 0 1 6.521940 9.778650 636.424744
674 0 1 6.403620 8.922080 636.013733
675 0 1 6.249610 8.110798 635.639404
676 0 1 6.178610 7.233915 635.218140
677 0 1 6.204140 6.657080 634.481140
678 0 1 6.611510 6.367570 633.601562
679 0 1 6.825330 6.339880 632.674805
680 0 1 6.949670 6.298180 631.698669
681 0 1 6.915830 6.220020 630.754822
682 0 1 6.747880 6.260670 629.882629
683 0 1 7.157065 6.183300 628.999329
684 0 1 7.267292 6.069410 628.052673
685 0 1 7.513048 6.045680 627.121948
686 0 1 7.661221 6.187020 626.244568
687 0 1 7.735874 6.176570 625.280823
688 0 1 7.912284 6.097390 624.310974
689 0 1 8.349851 6.015720 623.422363
690 0 1 8.630037 6.058840 622.497681
691 0 1 8.959451 6.259330 621.608765
692 0 1 9.404680 6.360670 620.796570
693 0 1 9.944901 6.249250 619.924744
694 0 1 10.143300 6.097330 619.056152
695 0 1 10.314230 6.042810 618.123108
696 0 1 10.541140 5.991250 617.174316
697 0 1 10.984320 5.934980 616.275085
698 0 1 11.231150 5.811200 615.348694
699 0 1 11.330060 5.742040 614.333984
700 0 1 11.558710 5.845990 613.407898
701 0 1 11.704940 5.863020 612.419922
702 0 1 11.867020 5.929750 611.465576
703 0 1 12.049681 6.263110 610.609985
704 0 1 12.081551 6.742530 609.708191
705 0 1 11.936580 6.811450 608.724915
706 0 1 11.490920 6.985710 607.905090
707 0 1 11.139290 7.009372 606.945312
708 0 1 10.952780 7.005112 605.999512
709 0 1 10.859370 7.168693 605.090576
710 0 1 10.726510 7.162253 604.103516
711 0 1 10.660030 7.301016 603.163696
712 0 1 10.574940 7.516153 602.227295
713 0 1 10.468019 7.566724 601.260925
714 0 1 10.433680 7.718320 600.319824
715 0 1 10.452271 7.978942 599.427917
716 0 1 10.647340 8.199704 598.492920
717 0 1 10.919040 8.044500 597.479492
718 0 1 11.070770 7.763051 596.581482
719 0 1 11.435820 7.553241 595.674194
720 0 1 11.613980 7.412740 594.759827
721 0 1 11.676800 7.222990 593.871826
722 0 1 11.383471 7.225069 592.912598
723 0 1 11.157460 7.407163 591.968323
724 0 1 11.044450 7.330986 590.989075
725 0 1 10.699460 7.571331 590.118774
726 0 1 10.333570 7.685574 589.289673
727 0 1 9.884410 7.622024 588.444824
728 0 1 9.827120 7.503669 587.459106
729 0 1 9.506090 7.538509 586.486572
730 0 1 9.275520 7.304365 585.567017
731 0 1 8.811837 7.062175 584.728577
732 0 1 8.288052 6.762700 583.988098
733 0 1 7.825793 6.447630 583.194885
734 0 1 7.333341 6.010180 582.453125
735 0 1 6.912980 5.728210 581.624695
736 0 1 6.478370 5.274720 580.876099
737 0 1 5.851940 4.988230 580.210510
738 0 1 5.604280 4.976810 579.247925
739 0 1 5.589530 5.131120 578.308594
740 0 1 5.635420 5.241400 577.398926
741 0 1 5.739200 5.179320 576.468689
742 0 1 6.027670 5.307790 575.564575
743 0 1 6.058810 5.370920 574.601929
744 0 1 6.047480 5.505360 573.667297
745 0 1 6.185930 5.735450 572.724792
746 0 1 6.170480 6.153290 571.864685
747 0 1 5.812300 6.775070 571.195068
748 0 1 5.506600 7.261517 570.381409
749 0 1 5.326110 7.792618 569.651489
750 0 1 5.247420 8.058968 568.688599
751 0 1 5.212710 8.402524 567.774719
752 0 1 5.349130 8.893612 566.848206
753 0 1 5.616730 9.227990 565.958679
754 0 1 5.778560 9.550550 565.077698
755 0 1 5.887460 9.805710 564.069214
756 0 1 5.909600 9.809669 563.153992
757 0 1 6.016620 9.951760 562.185425
758 0 1 5.810490 10.225910 561.218201
759 0 1 5.902520 10.515480 560.287720
760 0 1 5.921510 10.424280 559.376892
761 0 1 6.219760 10.283390 558.419922
762 0 1 6.774540 10.406120 557.610413
763 0 1 7.438141 10.485540 556.863525
764 0 1 8.218564 10.759450 556.332703
765 0 1 8.876149 11.087520 555.747681
766 0 1 9.675370 10.892590 555.142395
767 0 1 10.521900 10.734850 554.701416
768 0 1 11.152451 10.406230 554.055298
769 0 1 11.838320 9.810440 553.471924
770 0 1 12.142480 9.449760 552.620972
771 0 1 12.519640 9.179690 551.793884
772 0 1 13.145229 8.831051 551.172791
773 0 1 13.532110 8.438728 550.386414
774 0 1 13.803980 7.745504 549.782776
775 0 1 14.012110 7.224876 548.996887
776 0 1 14.204411 6.762370 548.160095
777 0 1 14.264970 6.309100 547.274170
778 0 1 14.290960 5.855080 546.390625
779 0 1 14.161330 5.523670 545.502075
780 0 1 13.918520 4.720700 545.042603
781 0 1 13.644930 4.080330 544.473206
782 0 1 13.262000 3.469540 543.827271
783 0 1 12.798970 3.124170 543.114807
784 0 1 12.216370 3.048290 542.415771
785 0 1 11.687500 2.817120 541.611206
786 0 1 11.260440 3.133170 540.795898
787 0 1 10.630260 3.540130 540.118286
788 0 1 10.123890 3.732340 539.309998
789 0 1 9.701760 3.885920 538.509399
790 0 1 9.393010 4.308350 537.648071
791 0 1 9.160520 4.579580 536.817200