LAMMPS data file via MDAnalysis

        1000  atoms
        1000  bonds
        1000  angles
           0  dihedrals
           0  impropers

           1  atom types
           1  bond types
           1  angle types
           0  dihedral types
           0  improper types

0.000000 16.000000 xlo xhi
0.000000 16.000000 ylo yhi
0.000000 1257.000000 zlo zhi


Masses

1 1.000000

Atoms

1 0 1 8.601391 5.443100 460.130981
2 0 1 8.891641 6.104540 460.716980
3 0 1 9.012440 6.583370 461.539978
4 0 1 9.020120 7.387549 462.085999
5 0 1 8.880931 8.208948 462.630005
6 0 1 8.792083 9.058990 463.093994
7 0 1 8.559964 9.953040 463.322021
8 0 1 8.346307 10.884760 463.773987
9 0 1 8.242221 11.621300 464.352997
10 0 1 8.235151 12.234779 465.104980
11 0 1 8.481988 12.705100 465.820984
12 0 1 8.646046 13.091750 466.721008
13 0 1 8.846835 13.357630 467.625000
14 0 1 9.012280 13.064040 468.471985
15 0 1 9.032350 12.967899 469.419006
16 0 1 9.196360 12.815229 470.378998
17 0 1 9.014460 12.934500 471.294006
18 0 1 8.769540 12.974770 472.213989
19 0 1 8.586536 12.678710 473.096008
20 0 1 8.734369 12.485780 474.009003
21 0 1 8.829537 12.512199 474.910004
22 0 1 8.987110 12.491730 475.865997
23 0 1 9.361780 12.242149 476.707001
24 0 1 9.749510 12.099560 477.575012
25 0 1 9.955060 11.992559 478.475006
26 0 1 10.284890 11.825940 479.320984
27 0 1 10.469680 11.568000 480.201996
28 0 1 10.431520 11.174940 481.083008
29 0 1 10.498910 10.934040 482.002014
30 0 1 10.633050 10.787590 482.950989
31 0 1 10.420940 10.550220 484.002991
32 0 1 10.467421 10.455970 485.024994
33 0 1 10.381080 10.561560 485.957001
34 0 1 10.325270 10.517139 486.919983
35 0 1 10.281340 10.547800 487.924011
36 0 1 10.272090 10.619080 488.838013
37 0 1 10.567600 10.615640 489.747986
38 0 1 10.876141 10.606730 490.731018
39 0 1 10.741130 10.514290 491.656982
40 0 1 10.517930 10.735291 492.604004
41 0 1 10.211970 10.787300 493.526978
42 0 1 10.039380 10.643050 494.476013
43 0 1 9.936610 10.309970 495.365997
44 0 1 9.628600 9.817460 496.100006
45 0 1 9.181300 9.432590 496.819000
46 0 1 8.833954 9.065331 497.639008
47 0 1 8.668291 8.725355 498.522003
48 0 1 8.671855 8.386428 499.468994
49 0 1 8.664364 8.116031 500.414001
50 0 1 9.171950 8.131181 501.239990
51 0 1 9.711990 8.278568 502.075012
52 0 1 10.143850 8.585673 502.886993
53 0 1 10.225640 8.884266 503.763000
54 0 1 10.355730 9.012310 504.731018
55 0 1 10.429860 9.349520 505.701996
56 0 1 10.377630 9.504420 506.617004
57 0 1 10.528370 10.059330 507.441010
58 0 1 10.634871 10.269650 508.399994
59 0 1 10.446840 10.617450 509.294006
60 0 1 10.279900 10.825450 510.157990
61 0 1 10.113250 11.109830 511.085999
62 0 1 10.012850 11.545830 511.924011
63 0 1 9.754360 12.026670 512.708984
64 0 1 9.207230 12.372140 513.476013
65 0 1 8.556474 12.745640 514.307983
66 0 1 8.131368 12.682100 515.143982
67 0 1 7.764967 12.731689 516.039001
68 0 1 7.459034 12.402510 516.968018
69 0 1 7.337778 11.935850 517.836975
70 0 1 7.183486 11.369110 518.637024
71 0 1 7.117760 10.697309 519.338013
72 0 1 7.141509 10.016211 520.023010
73 0 1 7.257680 9.314790 520.598022
74 0 1 7.528679 8.599839 521.254028
75 0 1 7.457787 8.157847 522.112000
76 0 1 7.353692 7.892869 523.020020
77 0 1 7.412875 7.882977 523.960999
78 0 1 7.552388 8.066297 524.906982
79 0 1 7.530434 8.049675 525.877014
80 0 1 7.618688 7.914528 526.864990
81 0 1 7.831586 7.611444 527.762024
82 0 1 8.138314 7.555938 528.709412
83 0 1 8.543326 7.677857 529.541504
84 0 1 8.753158 7.980132 530.381470
85 0 1 8.924813 8.100763 531.276978
86 0 1 9.073830 8.281987 532.143494
87 0 1 9.507070 8.344461 532.971924
88 0 1 10.045589 8.544814 533.751404
89 0 1 10.159040 8.754852 534.673096
90 0 1 10.056450 8.826796 535.651306
91 0 1 9.875020 8.943489 536.570068
92 0 1 9.568570 8.967745 537.496826
93 0 1 9.544580 8.772611 538.445068
94 0 1 9.532700 8.675604 539.373596
95 0 1 9.759760 8.681921 540.381409
96 0 1 9.833110 8.805519 541.310669
97 0 1 9.825750 9.104530 542.239197
98 0 1 9.702600 9.529181 543.178223
99 0 1 9.253650 9.719830 543.957520
100 0 1 8.867746 9.940050 544.884277
101 0 1 8.706997 10.212900 545.822632
102 0 1 8.694632 10.679190 546.686707
103 0 1 8.739432 11.022590 547.555115
104 0 1 8.757039 11.279570 548.490417
105 0 1 8.644991 11.529700 549.399597
106 0 1 8.348096 11.889830 550.212402
107 0 1 8.358683 12.000540 551.194092
108 0 1 8.419465 12.222620 552.095703
109 0 1 8.564995 12.372880 553.071716
110 0 1 8.839497 12.689280 554.083374
111 0 1 8.991075 12.925970 555.033508
112 0 1 9.186350 12.926550 555.930786
113 0 1 9.221780 12.589570 556.797424
114 0 1 9.323320 12.323660 557.763672
115 0 1 9.149020 12.084869 558.701294
116 0 1 8.760973 11.894600 559.546631
117 0 1 8.849682 11.513190 560.467102
118 0 1 8.966488 11.016340 561.303101
119 0 1 8.753271 10.831310 562.238525
120 0 1 8.521803 10.849091 563.199097
121 0 1 8.108024 10.647430 564.026306
122 0 1 8.122684 10.231000 564.853271
123 0 1 8.278149 9.774110 565.711182
124 0 1 8.511740 9.353760 566.569519
125 0 1 8.910208 8.833092 567.267212
126 0 1 9.377390 8.538088 568.073425
127 0 1 9.942830 8.368459 568.840881
128 0 1 10.198230 8.435328 569.779602
129 0 1 10.443920 8.422163 570.685974
130 0 1 10.433800 8.324576 571.668884
131 0 1 10.366080 8.520065 572.659180
132 0 1 10.274940 8.386965 573.583496
133 0 1 9.956130 8.294603 574.500916
134 0 1 9.415240 8.094008 575.295105
135 0 1 9.006300 8.206942 576.216614
136 0 1 8.565071 8.339432 577.116821
137 0 1 8.185334 8.170253 577.982178
138 0 1 7.626815 8.015598 578.725220
139 0 1 7.260554 7.936587 579.668213
140 0 1 6.756780 8.015323 580.480896
141 0 1 6.282600 7.961540 581.304626
142 0 1 6.016600 8.078345 582.268799
143 0 1 5.855000 8.138392 583.258118
144 0 1 5.909180 7.889679 584.149780
145 0 1 5.846090 7.816236 585.082397
146 0 1 5.996840 7.735191 586.015808
147 0 1 6.054100 7.765853 586.976318
148 0 1 6.328940 7.412697 587.834778
149 0 1 6.306040 6.982880 588.705200
150 0 1 6.277180 6.619610 589.653381
151 0 1 6.110300 6.548800 590.614807
152 0 1 6.072320 6.253180 591.504089
153 0 1 5.853130 5.821900 592.376831
154 0 1 5.647150 5.479740 593.219788
155 0 1 5.364130 5.275040 594.102600
156 0 1 5.320470 5.340500 595.099304
157 0 1 5.240130 5.205750 596.098206
158 0 1 5.152850 5.229150 597.054810
159 0 1 5.187550 5.208840 597.989807
160 0 1 5.183170 5.329410 598.925476
161 0 1 4.965270 5.432980 599.884888
162 0 1 5.124250 5.402420 600.850098
163 0 1 5.263860 5.637440 601.820496
164 0 1 5.342140 6.079110 602.678284
165 0 1 5.607270 6.529340 603.501892
166 0 1 5.942590 7.240869 604.171326
167 0 1 6.376550 7.865195 604.843689
168 0 1 6.609250 8.461822 605.540100
169 0 1 7.057212 8.836163 606.287292
170 0 1 7.659436 9.189110 607.084900
171 0 1 7.996102 9.387430 607.927979
172 0 1 8.526834 9.610291 608.743591
173 0 1 8.949691 9.545010 609.580627
174 0 1 9.223260 9.394680 610.538330
175 0 1 9.449460 9.306690 611.487793
176 0 1 9.765460 9.084200 612.405090
177 0 1 10.073460 8.892415 613.294617
178 0 1 9.908890 8.682702 614.221069
179 0 1 9.683870 8.220093 615.019226
180 0 1 9.278030 7.711249 615.762085
181 0 1 9.178500 7.204184 616.644287
182 0 1 8.787746 6.877040 617.461182
183 0 1 8.426007 6.776000 618.307800
184 0 1 7.859664 6.873890 619.087097
185 0 1 7.415058 6.940850 619.983887
186 0 1 7.078855 7.026319 620.877136
187 0 1 6.769290 6.897000 621.821411
188 0 1 6.324940 6.880630 622.655884
189 0 1 6.183860 6.575000 623.562439
190 0 1 5.990660 5.960310 624.331665
191 0 1 5.746130 5.525520 625.144226
192 0 1 5.499640 5.238760 626.065918
193 0 1 5.312810 4.836620 626.904846
194 0 1 5.323620 4.642620 627.831970
195 0 1 5.415080 4.450930 628.809875
196 0 1 5.376010 4.438980 629.747681
197 0 1 5.428890 4.276930 630.688477
198 0 1 5.704180 4.526810 631.580444
199 0 1 5.734230 4.805830 632.490662
200 0 1 5.642650 5.272930 633.328491
201 0 1 6.126790 5.753960 634.119141
202 0 1 6.819480 5.945250 634.831848
203 0 1 7.391781 6.296350 635.551086
204 0 1 7.662278 6.579410 636.415344
205 0 1 7.811550 6.646400 637.356018
206 0 1 8.153709 6.660990 638.265381
207 0 1 8.295807 6.866980 639.132507
208 0 1 8.610779 7.082835 640.074219
209 0 1 8.498418 7.526759 640.926697
210 0 1 8.349965 8.121983 641.679810
211 0 1 8.413514 8.630718 642.507812
212 0 1 8.841355 8.904922 643.333496
213 0 1 9.341560 9.196810 644.126404
214 0 1 9.667521 9.300310 644.984131
215 0 1 10.078300 9.232750 645.838074
216 0 1 10.486490 9.237560 646.691589
217 0 1 10.731050 9.548820 647.527283
218 0 1 10.934250 9.480550 648.435181
219 0 1 11.212190 9.267220 649.359131
220 0 1 11.111700 9.208040 650.304382
221 0 1 10.870300 9.094060 651.200500
222 0 1 10.714020 8.777641 652.132812
223 0 1 10.759450 8.727807 653.108215
224 0 1 10.389060 8.680001 654.058777
225 0 1 9.979840 8.820556 654.915405
226 0 1 9.356480 8.551610 655.574097
227 0 1 9.001150 7.928367 656.249512
228 0 1 8.855640 7.288852 656.981506
229 0 1 8.800413 6.923450 657.888428
230 0 1 8.897397 6.703700 658.847717
231 0 1 9.097730 6.595570 659.775391
232 0 1 9.068680 6.261100 660.673279
233 0 1 8.896474 5.912990 661.530884
234 0 1 8.802782 5.511310 662.401978
235 0 1 8.710103 5.029510 663.183716
236 0 1 8.527091 4.608010 664.083801
237 0 1 8.609314 4.496320 665.011475
238 0 1 8.566965 4.404650 665.946228
239 0 1 8.587027 4.307280 666.913330
240 0 1 8.479422 4.320280 667.881897
241 0 1 8.456770 4.325190 668.867432
242 0 1 8.490940 4.318260 669.785706
243 0 1 8.740330 4.125000 670.701111
244 0 1 8.964527 4.106150 671.580688
245 0 1 9.118560 4.372770 672.519592
246 0 1 9.665930 4.575510 673.289978
247 0 1 10.116250 4.679690 674.119019
248 0 1 10.554100 4.723340 674.976196
249 0 1 10.862170 5.002900 675.807922
250 0 1 11.042040 5.235790 676.737000
251 0 1 11.248020 5.581970 677.657715
252 0 1 11.323730 6.352840 678.194580
253 0 1 11.040030 7.041875 678.793518
254 0 1 10.802240 7.639395 679.484924
255 0 1 10.600600 8.200393 680.195312
256 0 1 10.588990 8.573673 681.060303
257 0 1 10.422280 9.281850 681.749268
258 0 1 10.279840 9.957630 682.482727
259 0 1 9.989390 10.579041 683.056030
260 0 1 9.572120 11.058740 683.756470
261 0 1 9.000280 11.562460 684.329712
262 0 1 8.458567 11.766250 685.103516
263 0 1 7.921443 11.881860 685.876099
264 0 1 7.567794 11.646620 686.713501
265 0 1 7.396081 11.424680 687.637390
266 0 1 6.943150 11.440080 688.431396
267 0 1 6.819570 11.718530 689.400208
268 0 1 6.782210 11.767350 690.362427
269 0 1 7.044193 11.727020 691.288330
270 0 1 7.366772 11.802010 692.163330
271 0 1 7.510623 11.899050 693.092590
272 0 1 7.456368 12.061600 694.139404
273 0 1 7.309632 12.160240 695.052185
274 0 1 7.032536 12.326059 695.942383
275 0 1 7.109624 12.645880 696.860413
276 0 1 7.203682 12.771870 697.819397
277 0 1 7.401056 13.326770 698.591980
278 0 1 7.610943 13.664989 699.455200
279 0 1 7.605702 13.583070 700.495422
280 0 1 7.577318 13.427130 701.433411
281 0 1 7.751502 13.298120 702.380615
282 0 1 8.037314 13.434930 703.302490
283 0 1 8.172293 13.323060 704.217407
284 0 1 8.285990 13.426149 705.193604
285 0 1 8.439564 13.187420 706.074280
286 0 1 8.602810 13.030450 707.025208
287 0 1 8.853062 12.634621 707.916504
288 0 1 8.986978 12.116381 708.794800
289 0 1 8.672944 11.466920 709.412903
290 0 1 8.535345 10.991640 710.237122
291 0 1 8.185085 10.416900 710.974182
292 0 1 7.561146 9.833800 711.351624
293 0 1 6.698190 9.467100 711.398682
294 0 1 5.793860 9.149860 711.506104
295 0 1 4.914700 9.047390 711.815430
296 0 1 3.978270 8.881195 712.177307
297 0 1 3.033350 8.524786 712.029602
298 0 1 2.391590 7.895802 712.290894
299 0 1 1.917490 7.121460 712.658875
300 0 1 1.580360 6.269580 712.971069
301 0 1 1.894480 5.473030 713.594788
302 0 1 2.522530 4.997610 714.172974
303 0 1 3.413840 4.689910 714.408508
304 0 1 4.319900 4.301450 714.298523
305 0 1 5.154440 3.988290 714.501831
306 0 1 5.924540 3.487510 714.692871
307 0 1 6.823930 3.372740 714.814514
308 0 1 7.634147 3.548970 715.245422
309 0 1 8.228662 3.752180 715.946106
310 0 1 8.498572 3.972350 716.837524
311 0 1 8.437780 4.225570 717.798401
312 0 1 8.534519 4.699750 718.670593
313 0 1 8.502170 4.997420 719.599731
314 0 1 8.485450 5.243980 720.580933
315 0 1 8.578582 5.280660 721.534424
316 0 1 8.515641 5.437450 722.501526
317 0 1 8.228587 5.470170 723.363098
318 0 1 7.867492 5.334110 724.213318
319 0 1 7.260521 5.072310 724.922485
320 0 1 6.586170 4.970700 725.599121
321 0 1 5.835090 4.801710 726.156006
322 0 1 5.114760 4.504080 726.756592
323 0 1 4.433550 4.198950 727.367126
324 0 1 4.265150 3.981640 728.284668
325 0 1 3.878000 3.806520 729.135986
326 0 1 3.660630 3.388720 730.080017
327 0 1 3.739570 3.201950 730.964966
328 0 1 3.844360 3.211640 731.917969
329 0 1 3.828630 2.932710 732.854980
330 0 1 4.001700 2.866970 733.783997
331 0 1 4.262430 2.551220 734.713013
332 0 1 4.368710 2.438480 735.666992
333 0 1 4.621800 2.426640 736.627991
334 0 1 5.076930 2.530680 737.473999
335 0 1 5.525480 2.321470 738.231018
336 0 1 5.909440 2.394120 739.091003
337 0 1 6.518550 2.499980 739.853027
338 0 1 6.993780 2.582640 740.671021
339 0 1 6.905930 2.840220 741.598999
340 0 1 6.682540 3.194200 742.486023
341 0 1 6.533660 3.504290 743.364014
342 0 1 6.502160 3.873590 744.255981
343 0 1 6.163140 4.485190 744.890015
344 0 1 5.989240 4.852730 745.731995
345 0 1 5.953330 5.004680 746.651001
346 0 1 5.851220 4.977360 747.625000
347 0 1 5.697830 5.195480 748.556030
348 0 1 5.738720 5.255000 749.557983
349 0 1 5.935100 5.124950 750.483032
350 0 1 6.272080 5.201080 751.375977
351 0 1 6.475440 5.311810 752.294983
352 0 1 6.455510 5.963140 753.044983
353 0 1 6.433950 6.461750 753.804016
354 0 1 6.502180 7.093540 754.500977
355 0 1 6.240190 7.636727 755.224976
356 0 1 6.076930 8.274743 755.942993
357 0 1 6.287740 8.530339 756.898987
358 0 1 6.556920 9.023911 757.630981
359 0 1 6.785590 9.644470 758.315979
360 0 1 7.234732 10.173880 758.971985
361 0 1 7.707860 10.310300 759.776001
362 0 1 8.179325 10.298820 760.619019
363 0 1 8.561615 10.236610 761.544006
364 0 1 8.760508 10.203830 762.450989
365 0 1 8.906883 10.149840 763.432983
366 0 1 9.155140 9.970910 764.317017
367 0 1 9.346320 9.907850 765.195007
368 0 1 9.414210 9.751270 766.115967
369 0 1 9.763371 9.834280 767.080017
370 0 1 9.866540 10.160390 767.984985
371 0 1 9.759090 10.244320 768.966003
372 0 1 9.549330 10.162930 769.921021
373 0 1 9.472430 9.740100 770.771973
374 0 1 9.388250 9.656900 771.724976
375 0 1 9.078460 9.383140 772.613037
376 0 1 8.816710 8.813518 773.289001
377 0 1 8.737901 8.591137 774.270020
378 0 1 8.599823 8.487942 775.216980
379 0 1 8.353140 8.527074 776.143982
380 0 1 8.258385 8.615009 777.135010
381 0 1 8.396720 8.764150 778.158020
382 0 1 8.573831 8.918976 779.125977
383 0 1 8.634934 9.327050 780.020020
384 0 1 9.011000 9.839520 780.786011
385 0 1 9.291780 10.388580 781.484009
386 0 1 9.521190 10.769790 782.302979
387 0 1 9.870070 11.151030 783.172974
388 0 1 10.329810 11.163830 784.044983
389 0 1 10.463230 11.167320 785.031982
390 0 1 10.571070 10.945730 785.979004
391 0 1 10.648750 10.817870 786.911987
392 0 1 10.566250 10.740980 787.877991
393 0 1 10.273940 10.535480 788.809021
394 0 1 9.767140 10.077260 789.497009
395 0 1 9.255150 9.926500 790.332031
396 0 1 9.084910 9.422220 791.122986
397 0 1 8.873438 9.040500 791.953979
398 0 1 8.757765 8.708523 792.815002
399 0 1 8.765464 8.128911 793.614990
400 0 1 8.577475 7.925649 794.615967
401 0 1 8.204635 7.714859 795.487000
402 0 1 7.714411 7.554003 796.358032
403 0 1 7.116572 7.619409 797.127014
404 0 1 6.510340 7.733797 797.989990
405 0 1 5.796030 7.855252 798.653992
406 0 1 5.378340 7.761682 799.552979
407 0 1 4.924440 7.772677 800.333008
408 0 1 4.512600 7.582674 801.156006
409 0 1 4.294410 7.429951 802.127991
410 0 1 4.301990 6.997370 802.966980
411 0 1 4.384640 6.572210 803.825012
412 0 1 4.662820 6.368560 804.723022
413 0 1 5.347300 6.200490 805.332031
414 0 1 6.236950 6.363320 805.734009
415 0 1 7.030937 6.259950 806.280029
416 0 1 7.866758 6.290850 806.822998
417 0 1 8.599072 6.306750 807.385986
418 0 1 9.328550 6.500380 807.940979
419 0 1 10.147779 6.873360 808.341003
420 0 1 10.847560 7.135057 808.891968
421 0 1 11.330020 7.637970 809.536987
422 0 1 11.689780 8.278383 810.101013
423 0 1 12.077430 8.841705 810.742004
424 0 1 12.395290 9.410940 811.411011
425 0 1 12.599370 9.762620 812.285034
426 0 1 12.680320 10.008210 813.213013
427 0 1 12.545100 10.107960 814.145020
428 0 1 12.834560 10.439280 814.983032
429 0 1 13.343590 10.723249 815.735962
430 0 1 13.298500 11.056330 816.619019
431 0 1 12.968590 11.353010 817.432007
432 0 1 12.561110 11.719620 818.235962
433 0 1 12.074369 12.045031 818.966980
434 0 1 11.645380 12.385389 819.750977
435 0 1 11.333310 12.609489 820.671997
436 0 1 11.279020 12.811000 821.664001
437 0 1 11.156100 12.966169 822.583984
438 0 1 10.629550 13.130250 823.377991
439 0 1 10.266211 13.378290 824.223022
440 0 1 9.847550 13.544470 825.109009
441 0 1 9.705250 13.718121 826.037964
442 0 1 9.642400 14.029340 826.971985
443 0 1 9.515670 14.070070 827.969971
444 0 1 9.399570 13.839840 828.890015
445 0 1 9.315920 13.622459 829.817017
446 0 1 9.007760 13.325570 830.638000
447 0 1 8.654653 12.951509 831.389038
448 0 1 8.478697 12.268960 832.098022
449 0 1 8.337110 11.324841 832.500000
450 0 1 8.311160 10.414100 832.988037
451 0 1 8.373928 9.507290 833.320007
452 0 1 8.306554 8.582226 833.405029
453 0 1 8.047921 7.673156 833.245972
454 0 1 7.655508 6.760690 832.989014
455 0 1 7.166890 6.137020 832.452026
456 0 1 6.641180 5.810820 831.765991
457 0 1 6.123740 5.756040 831.014038
458 0 1 5.461960 5.831220 830.337036
459 0 1 4.870110 5.761690 829.561035
460 0 1 4.590470 5.538200 828.686035
461 0 1 4.229120 5.739620 827.794006
462 0 1 4.322620 6.018020 826.896973
463 0 1 4.336080 6.221630 825.973022
464 0 1 4.229370 6.356840 825.046997
465 0 1 3.947860 6.544330 824.083984
466 0 1 3.682530 6.490070 823.138000
467 0 1 3.814870 6.417820 822.161987
468 0 1 4.051550 6.494100 821.188965
469 0 1 4.083170 6.336270 820.250000
470 0 1 3.859460 6.288710 819.323975
471 0 1 3.911990 6.081610 818.370972
472 0 1 3.613770 6.177390 817.476990
473 0 1 3.236700 6.645010 816.531982
474 0 1 3.209310 6.817350 815.603027
475 0 1 3.148260 7.238299 814.723999
476 0 1 3.006760 7.960083 814.049988
477 0 1 3.204280 8.706512 813.487000
478 0 1 3.587050 9.411530 812.877014
479 0 1 3.896750 9.794800 812.061035
480 0 1 3.966310 10.500010 811.302979
481 0 1 4.186160 11.014339 810.499023
482 0 1 4.542840 11.216909 809.640015
483 0 1 4.838630 11.464840 808.718994
484 0 1 5.205390 11.635690 807.812988
485 0 1 5.411730 11.455250 806.891968
486 0 1 5.208230 11.231840 805.966980
487 0 1 5.004000 11.048540 805.054016
488 0 1 4.844240 10.661620 804.195007
489 0 1 4.507100 10.213560 803.346985
490 0 1 4.168370 9.967700 802.520996
491 0 1 3.774980 9.716770 801.677002
492 0 1 3.281700 9.418800 800.792969
493 0 1 3.185340 9.050920 799.898010
494 0 1 3.284830 8.743388 799.000000
495 0 1 3.112470 8.396684 798.179993
496 0 1 3.103360 8.215391 797.228027
497 0 1 3.150890 7.956909 796.231018
498 0 1 3.131070 7.467188 795.306030
499 0 1 3.595650 6.936630 794.651001
500 0 1 4.116590 6.576490 793.924988
501 0 1 4.944680 6.415420 793.416016
502 0 1 5.796940 6.214280 793.026978
503 0 1 6.621340 6.065630 792.667969
504 0 1 7.446496 6.160840 792.114014
505 0 1 8.008242 6.483780 791.406982
506 0 1 8.614624 6.807100 790.770020
507 0 1 8.833657 6.911260 789.841003
508 0 1 9.015280 6.757720 788.854980
509 0 1 9.188869 6.597040 787.932983
510 0 1 9.418260 6.170920 787.104004
511 0 1 9.593070 5.574420 786.359985
512 0 1 9.760080 4.736300 785.849976
513 0 1 9.853251 3.965080 785.266968
514 0 1 10.215030 3.347910 784.666016
515 0 1 10.405840 2.724790 783.962036
516 0 1 10.117889 2.276860 783.177002
517 0 1 9.772860 2.020590 782.333984
518 0 1 9.651160 1.867380 781.421997
519 0 1 9.384010 1.689810 780.533020
520 0 1 9.203230 1.753570 779.554993
521 0 1 9.169720 1.651140 778.575989
522 0 1 9.172910 1.524080 777.643982
523 0 1 8.997931 1.517830 776.705994
524 0 1 8.746831 1.892810 775.880981
525 0 1 8.712856 2.426180 775.039978
526 0 1 8.756932 3.031500 774.270996
527 0 1 9.006200 3.625280 773.541992
528 0 1 9.064560 4.051490 772.650024
529 0 1 9.285940 4.299370 771.718994
530 0 1 9.604130 4.342910 770.843994
531 0 1 10.123030 4.321180 770.067017
532 0 1 10.490250 4.489760 769.239014
533 0 1 10.558450 4.542220 768.239014
534 0 1 10.448840 4.717430 767.231018
535 0 1 10.229160 4.579690 766.322021
536 0 1 10.221730 4.431260 765.398987
537 0 1 10.032110 4.199640 764.452026
538 0 1 9.583710 3.892740 763.671021
539 0 1 8.927455 3.577610 763.072998
540 0 1 8.273173 3.392310 762.377014
541 0 1 7.437070 3.281120 761.849976
542 0 1 6.626210 3.262240 761.285034
543 0 1 6.109200 3.201690 760.523987
544 0 1 5.650330 3.028050 759.734985
545 0 1 5.130600 3.020810 758.895020
546 0 1 4.743310 3.038600 757.973022
547 0 1 4.276960 3.369880 757.224976
548 0 1 4.005860 3.745480 756.322998
549 0 1 3.784920 4.297950 755.562012
550 0 1 3.552350 4.734130 754.749023
551 0 1 3.153900 5.048340 754.033997
552 0 1 2.683240 5.454540 753.338013
553 0 1 2.277920 6.051560 752.648010
554 0 1 2.091940 6.690240 751.945984
555 0 1 1.900470 7.089261 751.020996
556 0 1 1.817400 7.654696 750.226990
557 0 1 1.743690 8.115676 749.385986
558 0 1 1.673880 8.213836 748.429993
559 0 1 1.768240 8.402091 747.513977
560 0 1 2.092610 8.419015 746.598999
561 0 1 2.236840 8.299158 745.664978
562 0 1 2.262360 8.166189 744.755005
563 0 1 2.039580 8.303239 743.830017
564 0 1 1.784790 8.438864 742.942993
565 0 1 1.752540 8.384424 741.940002
566 0 1 1.617170 8.326830 740.963989
567 0 1 1.675140 8.433353 739.983032
568 0 1 1.800460 8.782607 739.101013
569 0 1 2.061920 8.869525 738.189026
570 0 1 2.508190 9.040560 737.348999
571 0 1 3.060310 9.228340 736.622009
572 0 1 3.717750 9.396200 735.922974
573 0 1 4.496980 9.502990 735.205017
574 0 1 5.298410 9.322730 734.589966
575 0 1 5.873900 8.972136 733.885010
576 0 1 6.492960 8.505506 733.320007
577 0 1 7.372241 8.337860 732.903015
578 0 1 8.212153 8.153117 732.435974
579 0 1 8.996526 8.112580 731.906982
580 0 1 9.612840 8.278391 731.135010
581 0 1 9.980250 8.418499 730.304993
582 0 1 10.096080 8.581610 729.395996
583 0 1 10.148510 8.961348 728.538025
584 0 1 10.100840 8.944013 727.579224
585 0 1 10.149740 9.254790 726.699097
586 0 1 10.001630 9.426370 725.774170
587 0 1 9.619720 9.493930 724.902588
588 0 1 9.082630 9.867000 724.081177
589 0 1 8.338561 10.077290 723.399475
590 0 1 7.637957 9.936750 722.741333
591 0 1 6.896120 9.921120 722.068604
592 0 1 6.158980 9.625800 721.478577
593 0 1 5.665430 9.183740 720.777893
594 0 1 5.185590 8.486723 720.284485
595 0 1 4.812110 8.069139 719.508301
596 0 1 4.373560 7.668487 718.807922
597 0 1 4.203930 7.277496 717.925293
598 0 1 4.391060 6.744620 717.155212
599 0 1 4.526220 6.364320 716.290771
600 0 1 4.125470 6.316450 715.407104
601 0 1 3.915000 6.242910 714.490601
602 0 1 3.909320 6.183360 713.579407
603 0 1 4.045620 6.159540 712.634827
604 0 1 4.396920 6.074080 711.699402
605 0 1 4.612540 5.859770 710.811096
606 0 1 4.800540 5.637920 709.794312
607 0 1 4.870430 5.329970 708.859009
608 0 1 4.796300 4.944200 708.025024
609 0 1 4.361730 4.379350 707.294983
610 0 1 4.266670 3.659240 706.547607
611 0 1 4.456010 3.255800 705.749207
612 0 1 4.512220 3.044250 704.752808
613 0 1 4.482060 2.891850 703.753723
614 0 1 4.293940 2.875050 702.811218
615 0 1 4.305120 2.890000 701.848511
616 0 1 4.402240 2.712770 700.936401
617 0 1 4.709200 2.741350 700.049011
618 0 1 5.122070 2.746210 699.098816
619 0 1 5.622620 2.766670 698.287231
620 0 1 6.131630 3.044340 697.506897
621 0 1 6.295250 3.432660 696.638916
622 0 1 6.343380 3.557200 695.693298
623 0 1 5.982260 3.651580 694.826172
624 0 1 6.047400 3.974020 693.848694
625 0 1 5.928130 4.106500 692.844116
626 0 1 6.347490 4.438420 692.028198
627 0 1 6.454890 4.796830 691.157288
628 0 1 6.419720 5.357180 690.324829
629 0 1 6.458750 6.098890 689.724976
630 0 1 6.535110 6.771430 689.023621
631 0 1 6.763010 7.136832 688.097778
632 0 1 6.989680 7.425694 687.174072
633 0 1 7.275009 7.511894 686.290710
634 0 1 7.519835 7.741369 685.349182
635 0 1 7.656202 8.209997 684.548828
636 0 1 7.815931 8.789708 683.813416
637 0 1 7.885542 9.321560 683.010620
638 0 1 8.057584 9.702450 682.106689
639 0 1 8.289329 9.803400 681.168274
640 0 1 8.704007 9.849500 680.309814
641 0 1 9.257490 9.920740 679.449829
642 0 1 9.567170 9.727810 678.507202
643 0 1 9.835600 9.769110 677.556030
644 0 1 10.021610 9.933090 676.574097
645 0 1 10.232770 10.014481 675.605286
646 0 1 10.509420 9.960390 674.662109
647 0 1 10.906919 9.710120 673.819702
648 0 1 11.087680 9.472560 672.913086
649 0 1 11.504560 9.356850 672.024902
650 0 1 11.757460 8.918533 671.236084
651 0 1 12.049860 8.494303 670.453369
652 0 1 11.859910 7.964825 669.644104
653 0 1 11.342720 7.581964 668.899780
654 0 1 10.795040 7.389561 668.131470
655 0 1 10.362360 7.332976 667.329895
656 0 1 10.037600 7.335646 666.474731
657 0 1 9.804630 7.227287 665.554199
658 0 1 9.813140 7.180929 664.641968
659 0 1 9.844980 7.108952 663.643127
660 0 1 9.841440 7.551952 662.790894
661 0 1 9.754990 8.007444 661.972107
662 0 1 9.631280 8.520420 661.103027
663 0 1 9.242190 8.989310 660.336914
664 0 1 8.899789 9.379530 659.446289
665 0 1 8.445684 9.842630 658.670471
666 0 1 8.035537 10.432080 658.057129
667 0 1 7.726686 11.067280 657.385620
668 0 1 7.816698 11.654870 656.656311
669 0 1 7.906569 12.202100 655.827698
670 0 1 8.096548 12.525450 654.973206
671 0 1 8.124199 13.110130 654.175110
672 0 1 8.392951 13.802031 653.567505
673 0 1 8.539529 14.123301 652.603271
674 0 1 8.490271 14.394290 651.652771
675 0 1 8.273049 14.644850 650.689575
676 0 1 8.172542 14.579559 649.752991
677 0 1 8.112786 14.583139 648.839600
678 0 1 8.115325 14.393900 647.837524
679 0 1 8.216655 14.269470 646.865601
680 0 1 8.065986 14.135220 645.942383
681 0 1 7.763575 14.007280 645.011780
682 0 1 7.338092 13.661090 644.283691
683 0 1 7.119665 13.452650 643.368286
684 0 1 7.270448 13.501551 642.353516
685 0 1 7.554191 13.668180 641.412415
686 0 1 7.734755 13.606359 640.410522
687 0 1 8.025728 13.441580 639.481201
688 0 1 8.530190 13.223600 638.676514
689 0 1 8.779760 12.631639 638.044373
690 0 1 9.127230 12.110250 637.285217
691 0 1 9.342450 11.768180 636.456665
692 0 1 9.478820 11.593349 635.524414
693 0 1 9.610320 11.394420 634.467896
694 0 1 9.561200 11.297930 633.545471
695 0 1 9.543360 11.017210 632.548767
696 0 1 9.492380 10.607550 631.691772
697 0 1 9.498569 10.250870 630.752197
698 0 1 9.292240 9.976230 629.859497
699 0 1 9.216520 9.339680 629.161255
700 0 1 9.179500 8.764896 628.391052
701 0 1 9.677500 8.086158 627.862671
702 0 1 10.100790 7.333751 627.429810
703 0 1 10.246490 6.609610 626.836182
704 0 1 10.125071 5.875730 626.280823
705 0 1 9.717150 5.315600 625.639709
706 0 1 9.254260 4.891060 624.903320
707 0 1 8.999620 4.879560 623.971863
708 0 1 8.866403 4.434100 623.088989
709 0 1 8.934012 3.830020 622.266785
710 0 1 9.035030 3.335250 621.438354
711 0 1 9.204490 2.930280 620.560730
712 0 1 9.290080 2.527220 619.684326
713 0 1 9.290700 2.333370 618.673523
714 0 1 9.285580 2.280770 617.743103
715 0 1 9.409210 2.347710 616.827026
716 0 1 9.588570 2.475180 615.856689
717 0 1 9.770110 2.426850 614.877930
718 0 1 10.098880 2.551700 614.017273
719 0 1 10.382640 2.705120 613.081421
720 0 1 10.378350 2.731830 612.086609
721 0 1 10.338990 2.635800 611.148926
722 0 1 10.481730 2.928180 610.232605
723 0 1 10.737740 3.193120 609.330017
724 0 1 11.222420 3.421870 608.445496
725 0 1 11.669340 3.781690 607.672424
726 0 1 11.728640 4.052830 606.754700
727 0 1 11.772220 4.300490 605.831482
728 0 1 11.700480 4.385100 604.882080
729 0 1 11.562120 4.485870 603.979004
730 0 1 11.282520 4.607090 603.000488
731 0 1 11.075780 4.568440 602.099426
732 0 1 10.873830 4.354240 601.136230
733 0 1 11.138800 3.990140 600.276001
734 0 1 11.356370 3.782120 599.326599
735 0 1 11.781190 3.644520 598.453125
736 0 1 12.165990 3.722910 597.554016
737 0 1 12.517150 3.877310 596.648621
738 0 1 12.848820 3.912420 595.761780
739 0 1 13.017790 4.200370 594.850525
740 0 1 13.040871 4.094290 593.906677
741 0 1 13.159090 4.222910 592.934814
742 0 1 13.180270 4.226070 591.945984
743 0 1 13.370251 4.400370 591.000977
744 0 1 13.508530 4.765840 590.111877
745 0 1 13.724010 5.503860 589.586609
746 0 1 13.922810 6.234130 588.962097
747 0 1 13.736420 6.881520 588.311768
748 0 1 13.747450 7.627597 587.684082
749 0 1 13.509850 8.278669 587.011597
750 0 1 13.353210 8.535217 586.087891
751 0 1 12.913000 8.864075 585.316528
752 0 1 12.794980 9.062400 584.375183
753 0 1 12.627050 9.584230 583.554016
754 0 1 12.187890 9.766200 582.683594
755 0 1 11.855960 9.909130 581.747375
756 0 1 11.218500 10.135920 580.980286
757 0 1 10.494730 10.422700 580.424805
758 0 1 9.675230 10.749130 579.901917
759 0 1 9.022720 11.129770 579.244385
760 0 1 8.587068 11.531410 578.477112
761 0 1 8.040401 11.766270 577.749207
762 0 1 7.638369 11.455290 576.937683
763 0 1 7.695672 11.002480 576.017700
764 0 1 7.705617 10.618280 575.174805
765 0 1 8.067275 10.499280 574.313721
766 0 1 8.266146 10.630230 573.410706
767 0 1 8.004257 10.328250 572.523621
768 0 1 7.585643 9.877320 571.839783
769 0 1 7.063825 9.290421 571.390625
770 0 1 6.362380 8.927157 570.812805
771 0 1 5.998880 8.615773 570.000122
772 0 1 5.735490 8.016734 569.221069
773 0 1 5.368270 7.428483 568.486389
774 0 1 4.889880 7.034554 567.732300
775 0 1 4.513990 6.551730 566.942871
776 0 1 4.228420 6.415800 566.009583
777 0 1 4.057210 6.269330 565.148621
778 0 1 3.849060 6.136730 564.254700
779 0 1 3.513160 6.087140 563.354370
780 0 1 3.636210 6.018640 562.443909
781 0 1 3.659130 6.072030 561.461487
782 0 1 3.478490 6.148440 560.514587
783 0 1 3.234980 6.213420 559.610901
784 0 1 3.020080 6.291830 558.648193
785 0 1 2.990470 6.515320 557.688293
786 0 1 2.935940 6.874800 556.828125
787 0 1 2.701830 7.002342 555.932007
788 0 1 2.574830 6.801380 554.960327
789 0 1 2.340040 6.440730 554.105774
790 0 1 2.306240 6.447450 553.078125
791 0 1 2.241340 6.626350 552.053284
792 0 1 2.113410 6.661470 551.125000
793 0 1 2.011570 6.604390 550.178223