LAMMPS data file via MDAnalysis

        1000  atoms
        1000  bonds
        1000  angles
           0  dihedrals
           0  impropers

           1  atom types
           1  bond types
           1  angle types
           0  dihedral types
           0  improper types

0.000000 16.000000 xlo xhi
0.000000 16.000000 ylo yhi
0.000000 1257.000000 zlo zhi


Masses

1 1.000000

Atoms

1 0 1 6.202580 8.821332 457.052979
2 0 1 6.027850 9.147070 457.942017
3 0 1 5.988670 9.779510 458.639008
4 0 1 5.863760 10.407721 459.354980
5 0 1 5.894690 10.986460 460.128998
6 0 1 6.000540 11.351120 460.992004
7 0 1 6.195470 11.421490 461.898987
8 0 1 6.597430 11.552680 462.765015
9 0 1 7.049165 11.648320 463.687988
10 0 1 7.358555 11.648730 464.619019
11 0 1 7.903803 11.407320 465.398010
12 0 1 8.661170 11.442430 466.052979
13 0 1 9.466350 11.291230 466.664001
14 0 1 10.232580 10.889740 467.098022
15 0 1 10.863150 10.558710 467.778992
16 0 1 11.403970 10.180901 468.444000
17 0 1 12.062469 9.727160 468.960022
18 0 1 12.628210 9.189150 469.505981
19 0 1 13.155720 8.759314 470.208008
20 0 1 13.764811 8.538006 470.971008
21 0 1 14.337660 8.357793 471.716003
22 0 1 14.364349 8.026655 472.669006
23 0 1 14.228849 7.620311 473.580994
24 0 1 13.809860 7.564603 474.487000
25 0 1 13.319770 7.810242 475.278992
26 0 1 12.840010 8.432778 475.908997
27 0 1 12.362850 8.954148 476.510986
28 0 1 11.951340 9.408290 477.319000
29 0 1 11.462740 9.786110 478.046021
30 0 1 11.134060 10.240780 478.832001
31 0 1 10.963710 10.430470 479.796997
32 0 1 10.757999 10.696930 480.729980
33 0 1 10.270870 10.998920 481.572998
34 0 1 10.015950 11.185980 482.455994
35 0 1 9.322270 11.139840 483.134003
36 0 1 8.657849 11.216380 483.802002
37 0 1 8.062834 11.475610 484.544983
38 0 1 7.227058 11.731500 484.977997
39 0 1 6.518630 11.820971 485.542999
40 0 1 5.817310 11.848960 486.171021
41 0 1 5.110170 11.876170 486.828979
42 0 1 4.663780 11.782590 487.601990
43 0 1 4.161440 11.611510 488.377014
44 0 1 3.668600 11.300390 489.114990
45 0 1 3.101940 10.932460 489.864990
46 0 1 2.626420 10.441550 490.591980
47 0 1 2.171400 9.924780 491.221985
48 0 1 1.989620 9.613590 492.154999
49 0 1 2.194550 9.377690 493.070007
50 0 1 2.333740 9.340030 494.013000
51 0 1 2.709770 9.325380 494.924988
52 0 1 2.955680 9.208941 495.867004
53 0 1 2.968420 9.017590 496.765015
54 0 1 2.850170 8.837000 497.674988
55 0 1 2.746160 8.674798 498.572021
56 0 1 2.610730 8.611630 499.569000
57 0 1 2.861800 8.643116 500.523987
58 0 1 3.165640 8.692115 501.464996
59 0 1 3.213720 8.670766 502.445984
60 0 1 3.343800 8.717391 503.437012
61 0 1 3.369800 8.537951 504.382019
62 0 1 3.376380 8.604132 505.292999
63 0 1 3.012260 8.568138 506.209991
64 0 1 2.813430 8.599783 507.188995
65 0 1 2.678930 8.602149 508.179993
66 0 1 2.678650 8.638994 509.123993
67 0 1 2.721120 8.982459 510.046997
68 0 1 2.641040 9.424500 510.898010
69 0 1 2.421700 9.842580 511.730011
70 0 1 2.273740 10.331830 512.546021
71 0 1 2.372180 10.517330 513.499023
72 0 1 2.587100 10.380770 514.450012
73 0 1 2.773700 10.309980 515.400024
74 0 1 2.848800 10.163460 516.361023
75 0 1 3.316090 10.209500 517.210999
76 0 1 3.871290 9.937510 517.999023
77 0 1 4.407340 9.866961 518.806030
78 0 1 5.040870 9.793940 519.575989
79 0 1 5.526700 9.746260 520.393005
80 0 1 5.783060 9.763360 521.314026
81 0 1 5.882070 9.835720 522.312988
82 0 1 6.081890 9.553560 523.164001
83 0 1 6.136180 9.195180 524.129028
84 0 1 5.981840 8.945188 525.021973
85 0 1 6.187160 8.664144 525.937012
86 0 1 6.465240 8.355862 526.817017
87 0 1 6.629210 8.025724 527.690002
88 0 1 6.624280 8.000154 528.671082
89 0 1 6.720360 7.810473 529.624268
90 0 1 6.889200 7.616379 530.543274
91 0 1 7.088652 7.339174 531.506775
92 0 1 7.468858 7.048707 532.300781
93 0 1 8.005949 6.565480 533.027588
94 0 1 8.361775 6.047480 533.789795
95 0 1 8.806085 5.444600 534.397583
96 0 1 9.248830 4.962870 535.128906
97 0 1 9.820230 4.573280 535.884094
98 0 1 10.061871 4.443080 536.797119
99 0 1 10.160700 4.265190 537.745911
100 0 1 10.176620 3.985740 538.690918
101 0 1 10.200500 3.736800 539.626892
102 0 1 10.251260 3.528990 540.585205
103 0 1 10.610030 3.489460 541.474731
104 0 1 10.799720 3.552390 542.425781
105 0 1 10.931410 3.864710 543.306396
106 0 1 11.098270 4.312000 544.149780
107 0 1 11.322070 4.995740 544.768005
108 0 1 11.408370 5.713820 545.290710
109 0 1 10.997650 6.339040 545.928894
110 0 1 10.391590 6.909510 546.450500
111 0 1 9.816370 7.345609 547.052917
112 0 1 9.365280 7.663280 547.888611
113 0 1 8.930332 7.932437 548.780884
114 0 1 8.361909 8.309624 549.471985
115 0 1 7.508126 8.627475 549.833496
116 0 1 6.841650 8.575241 550.477905
117 0 1 6.237210 8.409544 551.273376
118 0 1 6.033460 8.109412 552.151794
119 0 1 6.076220 7.798764 553.120728
120 0 1 5.976590 7.454049 553.997803
121 0 1 6.214040 7.124999 554.903503
122 0 1 6.390930 6.944900 555.799377
123 0 1 6.680560 6.549310 556.634399
124 0 1 6.824640 6.166400 557.459778
125 0 1 6.881390 5.845970 558.362122
126 0 1 6.843480 5.628390 559.247925
127 0 1 6.964330 5.699330 560.150085
128 0 1 6.888360 5.953440 561.098022
129 0 1 6.712850 6.276910 562.029419
130 0 1 6.611900 6.093210 562.980286
131 0 1 6.382420 6.227800 563.874268
132 0 1 6.052130 6.376990 564.780884
133 0 1 5.584160 6.355320 565.596680
134 0 1 5.310410 6.350680 566.540894
135 0 1 5.351900 6.102480 567.434082
136 0 1 5.230960 5.672060 568.270081
137 0 1 4.958410 5.350110 569.154785
138 0 1 4.641210 5.180420 570.076721
139 0 1 4.733180 5.279090 571.020203
140 0 1 4.600330 5.219030 571.964417
141 0 1 4.733550 5.188330 572.901306
142 0 1 4.547940 5.184100 573.926880
143 0 1 4.427530 5.191690 574.903076
144 0 1 4.181070 5.114300 575.775085
145 0 1 3.932840 5.021110 576.644775
146 0 1 3.428660 4.913920 577.465210
147 0 1 3.300680 4.662650 578.382324
148 0 1 3.135630 4.697670 579.368591
149 0 1 3.163770 4.927740 580.358398
150 0 1 3.312670 4.888110 581.302612
151 0 1 3.600030 5.121540 582.220215
152 0 1 3.572430 5.551940 583.075684
153 0 1 3.685970 5.853430 583.979187
154 0 1 3.867490 6.119240 584.918396
155 0 1 4.403540 6.563710 585.683411
156 0 1 4.607800 7.156469 586.380615
157 0 1 4.902690 7.909701 586.919128
158 0 1 5.165880 8.557117 587.617981
159 0 1 5.640780 9.225690 588.254211
160 0 1 6.171640 9.775960 588.838623
161 0 1 6.796780 10.205420 589.392212
162 0 1 7.501830 10.695900 589.803772
163 0 1 7.966738 11.095700 590.601318
164 0 1 8.596991 11.056490 591.337524
165 0 1 9.251360 10.855820 592.047485
166 0 1 9.746270 10.699530 592.874512
167 0 1 10.205560 10.495080 593.669678
168 0 1 10.623360 10.386430 594.547791
169 0 1 10.730400 10.246910 595.512512
170 0 1 10.727340 10.085070 596.453125
171 0 1 10.664280 10.139850 597.461914
172 0 1 10.471770 10.354700 598.397095
173 0 1 10.470630 10.465740 599.329773
174 0 1 10.665370 10.471510 600.309509
175 0 1 10.826060 10.585230 601.186401
176 0 1 10.979240 10.717240 602.163391
177 0 1 11.059010 10.902309 603.162231
178 0 1 11.160450 11.038160 604.106323
179 0 1 11.273430 11.161750 605.031921
180 0 1 11.449369 10.985331 605.955505
181 0 1 11.577670 10.656179 606.854126
182 0 1 11.695910 10.355380 607.760071
183 0 1 12.023251 10.181730 608.655212
184 0 1 12.477961 10.345020 609.516296
185 0 1 12.824369 10.435730 610.395386
186 0 1 13.077499 10.660080 611.325989
187 0 1 13.001600 10.824020 612.258301
188 0 1 13.081970 10.828090 613.223083
189 0 1 12.909660 10.892730 614.167480
190 0 1 12.499050 11.084560 614.995728
191 0 1 12.422160 11.064569 615.929993
192 0 1 12.451560 10.994470 616.900696
193 0 1 12.338800 10.964890 617.828918
194 0 1 11.849260 10.708700 618.595825
195 0 1 11.530190 9.995110 619.099792
196 0 1 11.374300 9.173640 619.481018
197 0 1 11.232300 8.387740 620.090271
198 0 1 11.347560 7.561783 620.664062
199 0 1 11.488190 6.702510 621.043335
200 0 1 11.336860 5.855000 621.531555
201 0 1 11.144609 4.957290 621.911011
202 0 1 10.742430 4.282250 622.488770
203 0 1 10.468770 3.838060 623.388733
204 0 1 10.391790 3.579030 624.309509
205 0 1 10.471479 3.363530 625.224548
206 0 1 10.488480 3.410430 626.185730
207 0 1 10.682730 3.365550 627.116272
208 0 1 10.969920 3.577770 628.042664
209 0 1 11.059270 3.786790 628.942261
210 0 1 10.827390 4.154950 629.810974
211 0 1 10.604750 4.607690 630.653992
212 0 1 10.343640 4.833880 631.542419
213 0 1 10.412340 4.706230 632.465210
214 0 1 10.595190 4.652570 633.440369
215 0 1 10.591650 4.333910 634.391846
216 0 1 10.600610 4.136260 635.338745
217 0 1 10.574050 3.998160 636.306396
218 0 1 10.706870 3.715030 637.215393
219 0 1 10.687799 3.590630 638.202942
220 0 1 10.763580 3.683810 639.109680
221 0 1 11.045600 3.974910 640.007080
222 0 1 11.516541 4.352750 640.795715
223 0 1 11.829260 4.748160 641.607117
224 0 1 12.139470 5.206180 642.445923
225 0 1 12.323660 5.704500 643.272888
226 0 1 12.289860 6.167510 644.088989
227 0 1 12.082991 6.669620 644.922729
228 0 1 12.105949 7.271817 645.752380
229 0 1 12.319960 7.734009 646.601990
230 0 1 12.398460 8.176570 647.450378
231 0 1 12.187440 8.708613 648.258118
232 0 1 11.772230 9.298940 648.849182
233 0 1 11.480391 9.661950 649.676697
234 0 1 11.500540 9.991360 650.571411
235 0 1 11.385830 10.445680 651.417969
236 0 1 11.437330 10.971050 652.371826
237 0 1 11.196370 11.372470 653.203796
238 0 1 10.764510 11.793520 653.999023
239 0 1 10.052900 11.856020 654.758423
240 0 1 9.730370 11.977010 655.651672
241 0 1 9.584340 11.951670 656.617371
242 0 1 9.568570 11.754900 657.528992
243 0 1 9.421570 11.428870 658.530884
244 0 1 9.279380 10.943320 659.349976
245 0 1 8.986747 10.356380 660.064209
246 0 1 8.833161 9.769630 660.788513
247 0 1 8.706637 9.275470 661.619507
248 0 1 8.823890 8.703509 662.411316
249 0 1 9.103350 8.197421 663.154602
250 0 1 9.451630 7.698528 663.905518
251 0 1 9.732720 7.334837 664.747192
252 0 1 10.037730 6.973720 665.523987
253 0 1 10.299370 6.513210 666.327881
254 0 1 10.488400 5.847730 667.011414
255 0 1 10.697670 5.241500 667.809509
256 0 1 10.779200 5.057220 668.768921
257 0 1 10.848080 4.769280 669.713989
258 0 1 11.151220 4.353920 670.597595
259 0 1 11.099920 4.309660 671.554321
260 0 1 11.158020 4.263720 672.534302
261 0 1 11.256010 4.312380 673.496277
262 0 1 11.161570 4.230390 674.386292
263 0 1 11.059090 3.985160 675.293518
264 0 1 11.078500 3.582990 676.186523
265 0 1 11.074420 3.264210 677.157227
266 0 1 11.414740 3.056850 677.982422
267 0 1 11.720690 2.900570 678.882385
268 0 1 11.970830 2.657500 679.724121
269 0 1 12.159389 2.846150 680.607605
270 0 1 12.250840 3.284980 681.450928
271 0 1 12.577520 3.754310 682.182983
272 0 1 13.037050 4.356640 682.883972
273 0 1 13.610310 4.747380 683.631714
274 0 1 13.910521 5.107300 684.554993
275 0 1 13.907010 5.544040 685.432007
276 0 1 14.036190 5.960920 686.257507
277 0 1 14.054340 6.406730 687.122192
278 0 1 14.071609 6.716720 688.060120
279 0 1 14.052811 6.960000 688.942871
280 0 1 14.019870 7.259284 689.877502
281 0 1 13.702700 7.364552 690.736694
282 0 1 13.203450 7.770218 691.509094
283 0 1 12.926041 8.063302 692.425781
284 0 1 12.623930 8.437959 693.220093
285 0 1 12.103701 9.028811 693.752075
286 0 1 11.850740 9.798740 694.361023
287 0 1 11.547250 10.471621 695.094788
288 0 1 11.122520 10.839050 695.853027
289 0 1 10.626250 10.916610 696.695007
290 0 1 10.271580 10.859070 697.651184
291 0 1 9.585000 10.923531 698.318115
292 0 1 8.956693 11.091370 699.018677
293 0 1 8.335964 11.008511 699.707703
294 0 1 7.967674 10.799440 700.566284
295 0 1 7.570865 11.008060 701.411011
296 0 1 7.082188 11.135740 702.296631
297 0 1 6.573870 11.058650 703.095825
298 0 1 6.269410 11.058929 703.981934
299 0 1 5.916610 11.192710 704.913330
300 0 1 5.885150 11.177190 705.880615
301 0 1 5.785490 11.029930 706.789429
302 0 1 5.638550 10.683240 707.730286
303 0 1 5.380770 10.277870 708.568420
304 0 1 5.025160 9.978520 709.350281
305 0 1 4.895070 9.870610 710.338501
306 0 1 4.906330 9.712020 711.299500
307 0 1 4.907260 9.592900 712.213013
308 0 1 4.801820 8.948011 712.964600
309 0 1 4.445580 8.348726 713.622009
310 0 1 3.964680 7.874300 714.366821
311 0 1 3.972590 7.424473 715.204712
312 0 1 4.127250 6.946460 716.091492
313 0 1 4.266450 6.526480 716.958130
314 0 1 4.326800 6.357020 717.883179
315 0 1 4.551980 5.887770 718.717712
316 0 1 4.618200 5.426340 719.591797
317 0 1 4.857540 4.760650 720.252686
318 0 1 5.208600 4.311820 720.968384
319 0 1 5.379410 3.920990 721.869507
320 0 1 5.278820 3.589850 722.805176
321 0 1 5.222690 3.450270 723.730896
322 0 1 5.205960 3.375630 724.699280
323 0 1 5.500960 3.212460 725.581909
324 0 1 5.853400 3.235400 726.437805
325 0 1 6.160350 3.535070 727.348511
326 0 1 6.490070 3.959340 728.134399
327 0 1 6.927870 4.570370 728.760986
328 0 1 7.179362 5.168320 729.429016
329 0 1 7.348255 5.693990 730.213989
330 0 1 7.677799 6.275360 730.859985
331 0 1 8.044996 6.810680 731.542969
332 0 1 8.412377 7.417441 732.181030
333 0 1 8.965683 7.804689 732.877991
334 0 1 9.136450 8.150255 733.762024
335 0 1 9.299320 8.101478 734.744019
336 0 1 9.224940 8.385359 735.625977
337 0 1 9.204840 8.747953 736.560974
338 0 1 9.133760 9.128410 737.500977
339 0 1 9.062830 9.526310 738.401978
340 0 1 8.947395 9.847790 739.255005
341 0 1 8.834382 10.148640 740.190979
342 0 1 8.538415 10.566820 741.042969
343 0 1 8.434402 10.854000 741.992004
344 0 1 8.154997 11.211000 742.791016
345 0 1 7.916492 11.276410 743.690979
346 0 1 7.636654 11.481600 744.586975
347 0 1 7.184686 11.505930 745.469971
348 0 1 6.698420 11.558790 746.336975
349 0 1 6.378130 11.426710 747.255005
350 0 1 6.344650 11.463420 748.231018
351 0 1 6.323020 11.432380 749.263000
352 0 1 6.231560 11.465710 750.171997
353 0 1 6.469780 11.221610 751.098022
354 0 1 6.568840 11.024820 751.997986
355 0 1 6.930240 10.776340 752.822998
356 0 1 7.648984 10.614330 753.546021
357 0 1 7.824386 10.578910 754.437988
358 0 1 7.957621 10.567210 755.343018
359 0 1 8.104487 10.569760 756.325012
360 0 1 8.198025 10.667550 757.259033
361 0 1 8.178132 10.473619 758.208984
362 0 1 8.376815 10.253810 759.104980
363 0 1 8.521663 9.886770 760.013000
364 0 1 8.458129 9.668740 760.958984
365 0 1 8.320409 9.480160 761.891968
366 0 1 8.411015 9.301720 762.851013
367 0 1 8.735412 9.156560 763.739014
368 0 1 9.046000 9.440610 764.594971
369 0 1 9.342110 9.673370 765.536987
370 0 1 9.681590 9.905760 766.492981
371 0 1 9.940130 9.836500 767.434021
372 0 1 10.171680 9.718770 768.365967
373 0 1 10.226330 9.588220 769.296997
374 0 1 10.134820 9.592270 770.281006
375 0 1 10.007630 9.837730 771.192993
376 0 1 9.520870 9.838050 772.028992
377 0 1 8.977176 9.768590 772.823975
378 0 1 8.306408 9.917490 773.468018
379 0 1 7.769321 9.806190 774.294983
380 0 1 7.214686 9.884950 775.127991
381 0 1 6.620490 10.129560 775.833984
382 0 1 6.041270 10.237289 776.575989
383 0 1 5.480410 10.198709 777.327026
384 0 1 5.180930 9.934290 778.167969
385 0 1 4.855590 9.967610 779.171997
386 0 1 4.774290 9.793120 780.106018
387 0 1 4.430480 10.077750 780.984985
388 0 1 4.317780 10.304070 781.926025
389 0 1 4.315560 10.441040 782.837036
390 0 1 4.408580 10.709530 783.716980
391 0 1 4.332230 10.846260 784.684021
392 0 1 4.183230 10.895451 785.640991
393 0 1 4.003430 10.571920 786.539978
394 0 1 3.641340 10.448210 787.445007
395 0 1 3.398460 10.197390 788.406006
396 0 1 3.095400 9.920270 789.273987
397 0 1 3.061110 9.866240 790.265991
398 0 1 3.444750 9.806640 791.155029
399 0 1 3.817430 9.717190 792.160034
400 0 1 3.834340 9.490710 793.177002
401 0 1 3.697800 9.427260 794.153992
402 0 1 3.861510 9.441860 795.160034
403 0 1 4.506730 9.297510 795.792969
404 0 1 5.322820 9.401220 796.424988
405 0 1 6.184530 9.425580 796.843994
406 0 1 7.047500 9.184031 797.135986
407 0 1 7.949157 8.957569 797.518982
408 0 1 8.712903 8.698045 797.936035
409 0 1 9.162189 8.346424 798.739014
410 0 1 9.541059 7.984806 799.537964
411 0 1 9.897449 7.698191 800.405029
412 0 1 9.744920 7.288614 801.292969
413 0 1 9.397350 7.302309 802.210999
414 0 1 9.096200 7.189251 803.112000
415 0 1 8.597297 7.300076 803.911011
416 0 1 8.122217 7.327282 804.716003
417 0 1 7.423784 7.401446 805.364014
418 0 1 6.786050 7.507295 806.104980
419 0 1 6.379550 7.508424 807.047974
420 0 1 6.195180 7.182103 807.942017
421 0 1 6.070770 7.251850 808.921021
422 0 1 5.652920 7.230931 809.849976
423 0 1 5.296420 7.316792 810.754028
424 0 1 4.872270 7.184284 811.645020
425 0 1 4.433380 7.180459 812.544983
426 0 1 4.503690 7.218854 813.552002
427 0 1 4.626760 7.300146 814.497986
428 0 1 4.587450 7.668965 815.447998
429 0 1 4.146300 7.832627 816.309021
430 0 1 3.861570 7.861909 817.203003
431 0 1 3.596810 8.313881 818.030029
432 0 1 3.339590 8.706351 818.872009
433 0 1 3.003560 8.983420 819.750000
434 0 1 2.615230 9.176100 820.648010
435 0 1 2.548980 9.247720 821.609009
436 0 1 2.668580 9.027870 822.533020
437 0 1 2.805510 9.219840 823.489014
438 0 1 2.976950 9.417620 824.479004
439 0 1 3.142820 9.191750 825.462036
440 0 1 3.002600 9.154330 826.419983
441 0 1 2.755080 9.154270 827.338013
442 0 1 2.631940 9.067550 828.266968
443 0 1 2.552510 8.836738 829.239014
444 0 1 2.377610 8.677671 830.160034
445 0 1 2.235980 8.233176 830.990967
446 0 1 2.515680 8.099268 831.854980
447 0 1 2.938510 8.170948 832.764038
448 0 1 3.219720 8.162641 833.615967
449 0 1 3.673150 8.218369 834.463989
450 0 1 4.296710 8.097247 835.187012
451 0 1 5.002340 7.825295 835.775024
452 0 1 6.011100 7.559793 835.872009
453 0 1 6.881070 7.168864 836.010010
454 0 1 7.678780 6.663290 836.059998
455 0 1 8.434880 6.220640 835.660034
456 0 1 9.274600 6.056070 835.172974
457 0 1 10.042280 5.881050 834.585022
458 0 1 10.633160 5.653260 833.877014
459 0 1 11.151450 5.253280 833.216003
460 0 1 11.384850 5.110470 832.270996
461 0 1 11.810090 4.848530 831.427979
462 0 1 12.038200 4.540650 830.525024
463 0 1 12.079030 4.342930 829.609009
464 0 1 12.066600 4.681780 828.718994
465 0 1 12.164841 4.736030 827.703003
466 0 1 12.304100 4.991120 826.838989
467 0 1 12.332850 5.372830 826.031006
468 0 1 12.102790 5.560690 825.115967
469 0 1 11.947090 5.841950 824.207031
470 0 1 11.856310 6.218140 823.353027
471 0 1 11.586930 6.688870 822.515991
472 0 1 11.417380 7.185513 821.671997
473 0 1 11.292470 7.890965 820.968994
474 0 1 11.685320 8.311753 820.275024
475 0 1 11.840270 8.919658 819.520996
476 0 1 11.747971 9.619120 818.905029
477 0 1 11.846770 10.337709 818.245972
478 0 1 12.029600 10.857250 817.452026
479 0 1 12.039351 11.284980 816.604980
480 0 1 11.906170 11.520980 815.686035
481 0 1 11.854000 11.855630 814.818970
482 0 1 11.986390 11.980710 813.901978
483 0 1 12.063601 12.090750 812.921021
484 0 1 12.240040 12.086269 811.958984
485 0 1 12.633160 11.969749 811.059021
486 0 1 12.711880 11.861580 810.115967
487 0 1 12.711730 11.798780 809.117004
488 0 1 12.729600 11.820360 808.094971
489 0 1 12.762920 11.929960 807.117981
490 0 1 12.565830 12.116930 806.182007
491 0 1 12.438920 11.826720 805.239990
492 0 1 12.019990 11.380350 804.515991
493 0 1 11.854980 11.103849 803.601990
494 0 1 11.940100 10.917840 802.651978
495 0 1 12.459459 10.716420 801.877991
496 0 1 12.881090 10.614920 801.062012
497 0 1 13.192270 10.654520 800.143005
498 0 1 13.469521 10.755360 799.200012
499 0 1 13.737980 10.827271 798.296997
500 0 1 14.020280 10.718710 797.440002
501 0 1 14.235300 10.449471 796.535034
502 0 1 14.248690 10.300190 795.546997
503 0 1 14.149620 10.144230 794.554016
504 0 1 14.196640 9.901711 793.625977
505 0 1 14.056190 9.500340 792.785034
506 0 1 13.778920 9.093440 791.997009
507 0 1 13.761650 8.468032 791.255981
508 0 1 13.650650 7.654305 790.734985
509 0 1 13.556430 6.965230 790.070007
510 0 1 13.096780 6.344250 789.511963
511 0 1 12.611111 5.654940 788.984009
512 0 1 11.794291 5.233790 788.544983
513 0 1 11.383369 4.773140 787.880981
514 0 1 10.894440 4.559120 787.083008
515 0 1 10.210840 4.430550 786.375977
516 0 1 9.694100 4.318090 785.546997
517 0 1 9.083760 4.489410 784.839966
518 0 1 8.823133 4.461490 783.862000
519 0 1 8.402950 4.508790 783.004028
520 0 1 7.682011 4.458080 782.278015
521 0 1 7.080587 4.530470 781.531982
522 0 1 6.448520 4.996230 780.934998
523 0 1 5.965190 5.437050 780.265991
524 0 1 5.569500 5.846840 779.369995
525 0 1 5.486910 6.179140 778.464966
526 0 1 5.574010 6.418120 777.489014
527 0 1 5.313900 6.744330 776.554016
528 0 1 5.283960 6.841990 775.625000
529 0 1 5.522900 6.781880 774.716980
530 0 1 5.703050 6.640120 773.752991
531 0 1 6.160330 6.744260 772.865967
532 0 1 6.848920 7.089205 772.124023
533 0 1 7.791024 7.178869 771.710999
534 0 1 8.598858 7.150750 771.072998
535 0 1 9.287060 7.145874 770.390991
536 0 1 9.987670 7.100448 769.768005
537 0 1 10.484261 6.996230 768.960022
538 0 1 10.699070 6.545740 768.150024
539 0 1 10.858960 6.211980 767.244995
540 0 1 11.365270 5.819440 766.533020
541 0 1 11.596820 5.508650 765.648010
542 0 1 11.660800 5.202630 764.737000
543 0 1 11.915020 4.639180 763.886963
544 0 1 12.203780 4.199960 763.016968
545 0 1 11.947720 4.092280 762.077026
546 0 1 11.651700 4.273290 761.169006
547 0 1 11.308120 4.276620 760.203979
548 0 1 10.959090 4.398640 759.304993
549 0 1 10.751830 4.888110 758.380981
550 0 1 10.782330 5.464050 757.575012
551 0 1 11.000060 5.989220 756.801025
552 0 1 10.866230 6.486980 755.947021
553 0 1 10.752270 6.911080 755.153992
554 0 1 10.308470 6.992110 754.260010
555 0 1 9.848340 7.110983 753.391968
556 0 1 9.381350 7.097146 752.565979
557 0 1 8.790746 7.218907 751.832031
558 0 1 8.240116 7.432759 751.060974
559 0 1 7.658064 7.659227 750.395996
560 0 1 7.066927 7.407498 749.708008
561 0 1 6.702070 7.343534 748.841980
562 0 1 6.519040 6.979820 747.948975
563 0 1 6.467360 6.636210 747.083984
564 0 1 6.643250 6.183270 746.250977
565 0 1 6.396190 5.871310 745.333984
566 0 1 6.247700 5.510220 744.307983
567 0 1 5.987810 5.175960 743.424988
568 0 1 5.630990 4.748030 742.614014
569 0 1 5.030880 4.227450 742.021973
570 0 1 4.978050 3.606100 741.218018
571 0 1 5.123510 3.328080 740.312012
572 0 1 5.240480 2.935030 739.497009
573 0 1 5.532730 2.620280 738.612000
574 0 1 5.715950 2.520560 737.674011
575 0 1 6.173830 2.639510 736.832031
576 0 1 6.434820 2.816650 735.932983
577 0 1 6.471820 3.220310 735.028992
578 0 1 6.320670 3.709040 734.203003
579 0 1 6.276200 3.977730 733.270996
580 0 1 6.245580 4.416700 732.457031
581 0 1 6.037100 4.831830 731.640015
582 0 1 5.841210 5.415880 730.882019
583 0 1 5.523260 5.892730 730.093018
584 0 1 5.033440 6.198590 729.304993
585 0 1 4.633170 6.479360 728.526001
586 0 1 4.141930 6.844170 727.708679
587 0 1 3.600530 7.294782 727.153687
588 0 1 3.118880 7.550754 726.362305
589 0 1 2.579810 7.998594 725.676208
590 0 1 1.991380 8.393458 724.933594
591 0 1 1.674360 8.785810 724.136292
592 0 1 1.280220 9.008510 723.270996
593 0 1 1.443870 9.468700 722.396179
594 0 1 1.453630 9.561800 721.418396
595 0 1 1.578550 9.497231 720.416687
596 0 1 1.732520 9.173480 719.568604
597 0 1 1.943020 9.275980 718.636230
598 0 1 1.982700 9.437130 717.703674
599 0 1 2.022510 9.474080 716.711670
600 0 1 2.337450 9.293360 715.826416
601 0 1 2.460240 9.178400 714.899292
602 0 1 2.741190 8.976059 713.995789
603 0 1 2.955800 8.865404 713.049805
604 0 1 3.259970 8.488184 712.238892
605 0 1 3.700130 7.873904 711.589600
606 0 1 3.903490 7.352943 710.789673
607 0 1 4.033880 6.862800 709.989990
608 0 1 4.005960 6.398300 709.176697
609 0 1 3.634990 5.968960 708.397888
610 0 1 3.367770 5.733770 707.553894
611 0 1 3.221490 5.454490 706.643311
612 0 1 3.221620 4.992990 705.784424
613 0 1 2.910930 4.834590 704.919678
614 0 1 2.906190 4.848220 703.917175
615 0 1 3.015240 4.680030 702.977417
616 0 1 3.610780 4.695710 702.191589
617 0 1 4.259560 4.567860 701.445312
618 0 1 4.969130 4.690270 700.766296
619 0 1 5.594440 4.940680 700.074524
620 0 1 5.914010 5.012950 699.197021
621 0 1 6.096070 4.974060 698.210815
622 0 1 6.001280 4.647420 697.293518
623 0 1 5.521630 4.454720 696.518982
624 0 1 5.262840 4.153800 695.649109
625 0 1 4.982150 4.046830 694.726013
626 0 1 4.740110 3.689510 693.879211
627 0 1 4.735540 3.624050 692.855225
628 0 1 4.912040 3.618160 691.947083
629 0 1 5.231400 3.960520 691.051086
630 0 1 5.816130 4.110950 690.266602
631 0 1 6.572280 4.171110 689.692322
632 0 1 7.412742 4.325060 689.156372
633 0 1 8.345298 4.514340 688.635620
634 0 1 9.103510 4.791450 688.155212
635 0 1 9.724820 5.190120 687.575989
636 0 1 10.218750 5.716270 686.917786
637 0 1 10.813420 6.467300 686.475220
638 0 1 11.377450 7.078860 685.911072
639 0 1 11.664840 7.776338 685.325684
640 0 1 11.984880 8.262730 684.548279
641 0 1 12.107340 8.632444 683.712524
642 0 1 12.297791 9.012609 682.840332
643 0 1 11.976940 9.365690 682.017273
644 0 1 11.635420 9.742730 681.120178
645 0 1 11.183080 10.168700 680.359619
646 0 1 10.757280 10.327020 679.564514
647 0 1 10.161730 10.412370 678.753906
648 0 1 9.583080 10.408520 677.994385
649 0 1 9.210800 10.400790 677.119812
650 0 1 8.602935 10.630899 676.460876
651 0 1 7.798077 11.111219 676.072327
652 0 1 6.982140 11.479720 675.669373
653 0 1 6.503110 12.084459 675.049194
654 0 1 6.196500 12.932680 674.690613
655 0 1 6.077030 13.818310 674.169922
656 0 1 5.892810 14.184940 673.263794
657 0 1 5.590120 14.227350 672.430420
658 0 1 5.201740 14.100930 671.537476
659 0 1 4.808550 13.660550 670.758728
660 0 1 4.434400 13.301741 669.982727
661 0 1 4.284490 13.065550 669.018494
662 0 1 4.390570 12.511570 668.225220
663 0 1 4.332910 11.890360 667.401001
664 0 1 4.370170 11.345620 666.612671
665 0 1 4.520770 10.689160 665.888977
666 0 1 4.725730 10.249400 665.051514
667 0 1 4.726310 9.710540 664.299805
668 0 1 4.662670 9.228510 663.494019
669 0 1 4.713670 9.075380 662.536621
670 0 1 5.008620 8.886619 661.666382
671 0 1 4.823940 8.640883 660.751404
672 0 1 4.810420 8.213348 659.926697
673 0 1 4.997470 8.115501 658.990784
674 0 1 5.068740 7.953463 658.058716
675 0 1 5.056760 7.922724 657.077087
676 0 1 5.306130 7.899435 656.112671
677 0 1 5.560550 7.992026 655.156311
678 0 1 5.724990 8.039127 654.264893
679 0 1 6.009280 8.270264 653.342590
680 0 1 5.917850 8.388998 652.394287
681 0 1 5.944470 8.707817 651.416870
682 0 1 6.053210 8.839778 650.460693
683 0 1 5.947290 8.897215 649.491028
684 0 1 5.668340 8.875262 648.522827
685 0 1 5.613430 8.670633 647.593994
686 0 1 5.822220 8.331994 646.782104
687 0 1 6.222400 8.293814 645.931396
688 0 1 6.666020 8.152603 645.093811
689 0 1 7.242572 7.992852 644.281616
690 0 1 7.854919 7.976944 643.561096
691 0 1 8.423237 8.193925 642.828369
692 0 1 8.698904 8.370784 641.900085
693 0 1 8.965244 8.603202 640.989807
694 0 1 9.122730 8.562772 640.068726
695 0 1 9.175820 8.676384 639.116211
696 0 1 9.309930 8.768186 638.184204
697 0 1 9.467110 8.738298 637.213440
698 0 1 9.842520 8.595997 636.343994
699 0 1 10.162189 8.528992 635.463623
700 0 1 10.756180 8.505853 634.699341
701 0 1 11.470470 8.427779 633.993164
702 0 1 12.085310 8.172888 633.300049
703 0 1 12.598650 7.741630 632.609375
704 0 1 12.917350 7.280646 631.887390
705 0 1 13.262020 6.917960 631.049133
706 0 1 13.630080 6.757970 630.154785
707 0 1 13.678420 6.628860 629.216858
708 0 1 13.590990 6.855050 628.152344
709 0 1 13.336670 7.090454 627.224426
710 0 1 13.281450 7.467927 626.311523
711 0 1 13.172421 7.767393 625.419495
712 0 1 13.033000 8.297652 624.580505
713 0 1 12.805470 8.887819 623.873047
714 0 1 12.426710 9.108150 623.036743
715 0 1 11.985030 9.296920 622.156616
716 0 1 11.579730 9.584420 621.370239
717 0 1 11.290220 10.056390 620.563904
718 0 1 10.749840 10.582600 619.988892
719 0 1 10.255930 11.194950 619.439758
720 0 1 9.947830 11.666950 618.708679
721 0 1 9.698730 12.082790 617.938293
722 0 1 9.327500 12.310760 617.094299
723 0 1 8.876478 12.561040 616.286804
724 0 1 8.571208 12.671980 615.381775
725 0 1 8.329639 12.495600 614.463318
726 0 1 8.052371 12.204240 613.589478
727 0 1 7.661240 11.703900 612.813293
728 0 1 7.455379 10.978920 612.177002
729 0 1 7.372280 10.330570 611.406616
730 0 1 7.049220 9.587280 610.941528
731 0 1 6.495110 9.232620 610.221619
732 0 1 6.021260 8.965848 609.440186
733 0 1 5.720100 8.395632 608.684326
734 0 1 5.456390 7.922883 607.860229
735 0 1 5.291600 7.527480 606.998108
736 0 1 5.146110 7.236612 606.077271
737 0 1 5.154000 7.057375 605.053223
738 0 1 5.099470 6.728080 604.197998
739 0 1 4.916730 6.429930 603.344727
740 0 1 5.194510 6.288510 602.402588
741 0 1 5.156650 6.059600 601.438782
742 0 1 5.102900 5.667030 600.555725
743 0 1 5.165770 5.180610 599.741516
744 0 1 5.293660 4.423760 599.136108
745 0 1 5.763460 3.971960 598.380493
746 0 1 6.104430 3.525770 597.633118
747 0 1 6.268000 3.204280 596.724915
748 0 1 6.414050 3.150940 595.804077
749 0 1 6.744440 3.285750 594.946106
750 0 1 6.942310 3.330120 593.969971
751 0 1 7.255736 3.449820 593.112122
752 0 1 7.563448 3.915120 592.370789
753 0 1 8.084119 4.273000 591.664429
754 0 1 8.527479 4.434940 590.781677
755 0 1 9.075700 4.604030 590.051208
756 0 1 9.672240 4.917510 589.448730
757 0 1 10.262460 5.009620 588.665100
758 0 1 10.655951 5.103640 587.809326
759 0 1 10.976770 5.245020 586.901001
760 0 1 11.136869 5.430000 585.969604
761 0 1 11.345440 5.763450 585.102478
762 0 1 11.458850 6.226640 584.202698
763 0 1 11.672880 6.480580 583.307312
764 0 1 11.970680 7.012227 582.568115
765 0 1 11.865950 7.618901 581.816223
766 0 1 11.788919 7.954266 580.901489
767 0 1 11.590100 8.212386 580.021179
768 0 1 11.565371 8.846993 579.301086
769 0 1 11.665091 9.311820 578.514221
770 0 1 11.835110 9.697330 577.618103
771 0 1 12.116961 9.834960 576.676575
772 0 1 12.271891 10.007020 575.811401
773 0 1 12.419270 10.103370 574.835876
774 0 1 12.410360 10.245090 573.857178
775 0 1 12.288930 10.296410 572.915771
776 0 1 11.863110 10.435140 572.056213
777 0 1 11.324300 10.389150 571.255188
778 0 1 10.854770 10.329020 570.384399
779 0 1 10.611120 10.340210 569.467712
780 0 1 10.460751 10.577630 568.537720
781 0 1 10.619329 10.321410 567.577881
782 0 1 10.562540 10.276260 566.612610
783 0 1 10.205360 10.610750 565.817871
784 0 1 9.776250 10.705800 564.953308
785 0 1 9.789550 10.974540 563.964722
786 0 1 10.094610 10.888969 563.046997
787 0 1 10.429470 10.317890 562.327820
788 0 1 10.487460 9.630690 561.668518
789 0 1 10.558160 8.864545 561.153320