LAMMPS data file via MDAnalysis

        1000  atoms
        1000  bonds
        1000  angles
           0  dihedrals
           0  impropers

           1  atom types
           1  bond types
           1  angle types
           0  dihedral types
           0  improper types

0.000000 16.000000 xlo xhi
0.000000 16.000000 ylo yhi
0.000000 1257.000000 zlo zhi


Masses

1 1.000000

Atoms

1 0 1 2.746700 9.517730 483.044983
2 0 1 2.748590 9.774090 483.990997
3 0 1 2.967430 9.540370 484.927002
4 0 1 2.977140 9.219090 485.830017
5 0 1 3.162310 8.821631 486.763000
6 0 1 3.205530 8.499553 487.656006
7 0 1 3.196250 8.089715 488.546997
8 0 1 3.223530 8.001456 489.498993
9 0 1 3.475520 7.875067 490.385010
10 0 1 3.693730 8.090254 491.307007
11 0 1 3.760270 8.482848 492.158997
12 0 1 3.782400 8.847572 493.036987
13 0 1 3.730500 9.351040 493.848022
14 0 1 4.097570 9.870410 494.606995
15 0 1 4.441540 10.368970 495.359009
16 0 1 4.914590 10.679750 496.210022
17 0 1 5.267370 10.664391 497.096008
18 0 1 5.802530 10.248940 497.886993
19 0 1 6.174980 9.655340 498.601013
20 0 1 6.383060 9.307490 499.522003
21 0 1 6.669310 9.290080 500.421997
22 0 1 7.053751 9.162880 501.285004
23 0 1 7.382207 8.781056 502.130005
24 0 1 7.871465 8.655327 502.963989
25 0 1 8.410895 8.304288 503.687012
26 0 1 9.015540 8.062032 504.442993
27 0 1 9.718410 7.968963 505.170990
28 0 1 10.472820 8.146616 505.713989
29 0 1 11.097270 8.210009 506.420990
30 0 1 11.917740 8.369243 506.990997
31 0 1 12.556271 8.407005 507.643005
32 0 1 13.080580 8.233870 508.356995
33 0 1 13.494500 8.382081 509.183990
34 0 1 13.794439 8.509047 510.114990
35 0 1 13.918440 8.521635 511.044006
36 0 1 13.964880 8.595665 511.976013
37 0 1 14.136200 8.713342 512.895996
38 0 1 14.222270 9.200770 513.707031
39 0 1 13.971320 9.690050 514.463013
40 0 1 13.762310 10.386499 515.101013
41 0 1 13.574551 11.016270 515.872009
42 0 1 13.351299 11.436330 516.703003
43 0 1 13.338039 11.976590 517.526001
44 0 1 13.178070 12.134230 518.489990
45 0 1 13.009900 12.199471 519.452026
46 0 1 12.701550 11.996450 520.325989
47 0 1 12.432400 11.855190 521.291992
48 0 1 12.193230 11.865891 522.203979
49 0 1 11.822780 11.608310 523.057007
50 0 1 11.414860 11.199060 523.822021
51 0 1 11.157190 10.911130 524.757996
52 0 1 10.815331 10.629040 525.593018
53 0 1 10.158330 10.236691 526.221008
54 0 1 9.575700 9.974770 526.913025
55 0 1 9.339430 9.667230 527.783020
56 0 1 9.081160 9.271240 528.610596
57 0 1 8.686187 8.839044 529.507690
58 0 1 8.496372 8.539488 530.420898
59 0 1 8.397940 8.378831 531.360107
60 0 1 8.094972 8.271543 532.303833
61 0 1 7.733420 7.905024 533.206787
62 0 1 7.431265 7.545752 534.014404
63 0 1 7.396911 7.218534 534.977722
64 0 1 7.275192 6.982220 535.886475
65 0 1 6.895250 6.726250 536.797791
66 0 1 6.810290 6.348010 537.692688
67 0 1 7.142338 5.903820 538.501709
68 0 1 7.174002 5.431920 539.384521
69 0 1 7.449242 5.180490 540.269775
70 0 1 7.817198 5.276790 541.110413
71 0 1 7.989556 5.236270 542.031494
72 0 1 8.026948 5.026300 542.989319
73 0 1 7.991642 5.079750 543.985413
74 0 1 8.540305 5.254560 544.809021
75 0 1 9.165260 5.340780 545.567688
76 0 1 9.680110 5.512990 546.384033
77 0 1 10.229080 5.627250 547.142212
78 0 1 10.585590 5.670050 548.055176
79 0 1 10.770340 5.449720 548.942383
80 0 1 10.574540 5.414880 549.900818
81 0 1 10.570880 4.990510 550.814392
82 0 1 10.530690 4.914090 551.824097
83 0 1 10.622390 4.797930 552.814880
84 0 1 10.604240 4.809530 553.764221
85 0 1 10.489059 5.229350 554.710876
86 0 1 10.336900 5.450470 555.562317
87 0 1 10.150440 5.632120 556.528625
88 0 1 9.996610 5.643880 557.534790
89 0 1 9.992060 5.539060 558.536804
90 0 1 10.149010 5.352570 559.457031
91 0 1 10.445860 5.081710 560.375610
92 0 1 10.665450 5.107600 561.233704
93 0 1 11.124780 5.047560 562.046631
94 0 1 11.783421 4.783040 562.745972
95 0 1 12.289260 4.699650 563.574097
96 0 1 12.649460 4.768080 564.403320
97 0 1 12.592680 4.812060 565.392578
98 0 1 12.670570 4.915330 566.320007
99 0 1 12.812880 5.075430 567.238281
100 0 1 12.764700 5.217140 568.189697
101 0 1 12.576691 5.160350 569.130188
102 0 1 12.189600 5.060050 570.058289
103 0 1 11.896420 5.008040 570.992920
104 0 1 11.628550 4.907790 571.933228
105 0 1 11.394000 4.723910 572.857178
106 0 1 10.971700 4.799060 573.705688
107 0 1 10.566660 5.121490 574.525574
108 0 1 10.368240 5.391630 575.409424
109 0 1 10.470830 5.841810 576.233032
110 0 1 10.545919 6.188490 577.139893
111 0 1 10.868110 6.341640 578.082886
112 0 1 11.159690 6.335300 579.036377
113 0 1 11.410450 6.055850 579.941895
114 0 1 11.565770 5.777580 580.859680
115 0 1 11.726580 5.504930 581.773071
116 0 1 11.922100 5.139480 582.649170
117 0 1 12.113100 4.876070 583.554932
118 0 1 12.240150 4.931350 584.519775
119 0 1 12.260670 5.049330 585.479309
120 0 1 12.351410 5.143730 586.426025
121 0 1 12.333241 5.078560 587.408508
122 0 1 12.207109 5.231230 588.325684
123 0 1 11.916250 5.453190 589.166016
124 0 1 11.676189 5.839810 590.145813
125 0 1 11.240880 6.061960 590.995300
126 0 1 10.738900 6.179700 591.825623
127 0 1 10.309100 5.963160 592.688782
128 0 1 9.773350 5.593760 593.425781
129 0 1 9.143220 5.124630 593.976379
130 0 1 8.937399 5.043100 594.875977
131 0 1 8.523539 4.686780 595.720825
132 0 1 7.998701 4.780820 596.584412
133 0 1 7.682100 4.514140 597.473511
134 0 1 7.347912 4.117290 598.288818
135 0 1 6.934220 3.617700 599.006104
136 0 1 6.580720 3.305660 599.829102
137 0 1 5.976990 2.848190 600.567505
138 0 1 5.645460 2.506990 601.399719
139 0 1 5.566800 2.247030 602.335083
140 0 1 5.534640 2.120360 603.342407
141 0 1 5.484000 2.398450 604.285706
142 0 1 5.726840 2.927050 605.070923
143 0 1 5.774530 3.432410 605.938599
144 0 1 5.997920 3.733370 606.811401
145 0 1 6.129210 3.852560 607.713196
146 0 1 6.311050 4.120300 608.620728
147 0 1 6.911330 4.629290 609.255615
148 0 1 7.514081 5.018580 609.894592
149 0 1 8.126254 5.067780 610.689209
150 0 1 8.737864 4.983010 611.394531
151 0 1 9.247510 4.982130 612.242615
152 0 1 9.666960 5.035250 613.114197
153 0 1 10.165260 5.084890 614.023010
154 0 1 10.654460 5.311630 614.846375
155 0 1 11.068830 5.839530 615.575378
156 0 1 11.356670 6.218650 616.419006
157 0 1 11.620580 6.495550 617.414490
158 0 1 12.055580 6.623920 618.269714
159 0 1 12.363171 6.550450 619.140259
160 0 1 12.556720 6.488320 620.075073
161 0 1 12.888100 6.752460 620.929199
162 0 1 13.332251 6.807540 621.744019
163 0 1 13.768940 6.740330 622.611511
164 0 1 13.977859 6.671200 623.519531
165 0 1 14.215560 6.673260 624.402954
166 0 1 14.238911 6.828280 625.384949
167 0 1 14.184589 6.990860 626.349670
168 0 1 14.180790 6.751970 627.243835
169 0 1 13.827660 6.475560 628.080200
170 0 1 13.339230 6.106420 628.881592
171 0 1 12.879120 5.933260 629.733704
172 0 1 12.167690 5.801880 630.453430
173 0 1 11.618031 5.737900 631.275635
174 0 1 11.233570 5.734270 632.151611
175 0 1 10.761200 5.503640 632.963562
176 0 1 9.936940 5.517890 633.553223
177 0 1 9.358820 5.507020 634.308167
178 0 1 8.943814 5.371610 635.117065
179 0 1 8.441679 5.241960 635.976624
180 0 1 7.952310 4.902840 636.721436
181 0 1 7.543222 4.716370 637.569946
182 0 1 7.250715 4.657340 638.490540
183 0 1 6.881610 4.646160 639.397095
184 0 1 6.466070 4.685160 640.294495
185 0 1 6.556810 4.535860 641.230713
186 0 1 6.731170 4.283270 642.150513
187 0 1 7.192327 4.218880 643.034973
188 0 1 7.555984 3.877110 643.849609
189 0 1 8.018545 3.557310 644.620422
190 0 1 8.770172 3.418320 645.133911
191 0 1 9.359230 3.665940 645.829895
192 0 1 9.533830 4.113960 646.650574
193 0 1 9.581790 4.426460 647.544006
194 0 1 9.800170 4.797750 648.423401
195 0 1 10.098530 4.882620 649.335571
196 0 1 10.720540 4.901170 650.129883
197 0 1 11.315810 5.047260 650.827698
198 0 1 11.780770 5.405980 651.604309
199 0 1 12.111610 5.516340 652.487976
200 0 1 12.525620 5.454160 653.330383
201 0 1 12.903299 5.719960 654.213989
202 0 1 13.385981 5.923690 655.057983
203 0 1 13.572210 6.190030 655.976013
204 0 1 13.590440 6.234180 656.958618
205 0 1 13.614260 6.174540 657.926208
206 0 1 13.515141 6.121140 658.818604
207 0 1 13.424129 6.242560 659.760620
208 0 1 13.241859 6.344360 660.734192
209 0 1 12.955720 6.274230 661.718201
210 0 1 12.471550 6.326730 662.641418
211 0 1 11.998140 6.488240 663.451172
212 0 1 11.665600 6.627600 664.349976
213 0 1 11.629810 6.640380 665.322021
214 0 1 11.434110 6.781740 666.263672
215 0 1 11.279480 7.021391 667.143372
216 0 1 11.121140 7.209835 668.091492
217 0 1 10.706230 7.185334 669.000793
218 0 1 10.780120 7.264684 669.989990
219 0 1 10.998850 7.113246 670.950317
220 0 1 11.166121 7.181519 671.870483
221 0 1 11.358960 7.398625 672.788818
222 0 1 11.452641 7.766010 673.771729
223 0 1 11.365150 8.068785 674.719910
224 0 1 11.065790 8.413692 675.601318
225 0 1 10.711200 8.778077 676.424194
226 0 1 10.469730 8.864767 677.413574
227 0 1 10.123859 9.238740 678.290222
228 0 1 9.870560 9.750500 679.096924
229 0 1 9.775420 10.202340 679.991882
230 0 1 9.476789 10.923340 680.565186
231 0 1 9.237530 11.602280 681.267700
232 0 1 8.927392 12.014259 682.014709
233 0 1 8.541655 12.560710 682.717407
234 0 1 8.026687 13.139450 683.267517
235 0 1 7.677302 13.704821 684.047119
236 0 1 7.339319 14.055490 684.916626
237 0 1 6.881660 14.101810 685.795227
238 0 1 6.273060 14.178130 686.541992
239 0 1 5.760730 14.234440 687.338684
240 0 1 5.442510 14.222780 688.304382
241 0 1 5.141430 14.202000 689.214600
242 0 1 4.905800 13.992260 690.169189
243 0 1 4.717650 13.575951 691.044495
244 0 1 4.440040 13.293711 691.930603
245 0 1 4.238520 12.966570 692.846375
246 0 1 4.373790 12.705441 693.760803
247 0 1 4.588680 12.171090 694.547302
248 0 1 4.912060 11.365140 695.005981
249 0 1 5.420880 10.524830 695.112915
250 0 1 5.805680 9.652950 695.612976
251 0 1 5.813000 8.852991 696.166016
252 0 1 6.014860 8.135539 696.807007
253 0 1 6.272440 7.474059 697.411926
254 0 1 6.405170 6.801110 698.043701
255 0 1 6.294080 6.341380 698.921997
256 0 1 6.151600 6.105550 699.793213
257 0 1 5.777760 6.112490 700.666321
258 0 1 5.755610 6.215580 701.624390
259 0 1 6.105250 6.418400 702.565125
260 0 1 6.231150 6.805190 703.457031
261 0 1 6.509540 7.205102 704.349304
262 0 1 6.826670 7.580148 705.162720
263 0 1 7.153585 7.604895 706.064026
264 0 1 7.404736 7.631250 706.978271
265 0 1 7.731860 7.570184 707.886230
266 0 1 7.982759 7.818162 708.774902
267 0 1 8.495565 8.033031 709.566711
268 0 1 8.605089 8.462852 710.476196
269 0 1 8.638592 8.998871 711.288025
270 0 1 8.825867 9.568330 712.055298
271 0 1 8.870052 10.156900 712.765991
272 0 1 8.967357 10.758511 713.525269
273 0 1 8.692617 11.185770 714.425171
274 0 1 8.432835 11.485690 715.344604
275 0 1 8.275950 11.819000 716.242676
276 0 1 8.189226 12.023630 717.204895
277 0 1 8.261523 12.261800 718.097534
278 0 1 8.568644 12.496469 718.972290
279 0 1 8.669119 12.846310 719.811096
280 0 1 8.661437 13.243720 720.699829
281 0 1 8.567979 13.349000 721.667480
282 0 1 8.250288 13.070370 722.536682
283 0 1 8.058641 12.913780 723.532227
284 0 1 8.065639 12.629280 724.426270
285 0 1 7.961236 12.554330 725.395996
286 0 1 7.968699 12.131340 726.368225
287 0 1 8.104214 11.454540 727.097595
288 0 1 8.337732 10.938050 727.935608
289 0 1 8.700036 10.815890 728.898987
290 0 1 9.138400 10.990710 729.786011
291 0 1 9.340880 11.180260 730.674011
292 0 1 9.313570 11.365860 731.693970
293 0 1 9.072600 11.408360 732.598999
294 0 1 8.614952 11.228700 733.455994
295 0 1 8.490283 11.438460 734.422974
296 0 1 8.261313 11.495530 735.400024
297 0 1 8.341476 11.395610 736.362976
298 0 1 8.290169 11.315350 737.314026
299 0 1 8.382076 11.262780 738.255005
300 0 1 8.564630 10.974620 739.112000
301 0 1 8.814828 10.634120 740.049011
302 0 1 9.182360 10.543330 740.922974
303 0 1 9.540700 10.294930 741.780029
304 0 1 10.005800 10.036620 742.672974
305 0 1 10.646441 10.169280 743.388000
306 0 1 11.299510 10.028049 744.072021
307 0 1 11.960160 9.863530 744.734009
308 0 1 12.295740 9.496750 745.539978
309 0 1 12.555340 9.085350 746.370972
310 0 1 13.040070 8.443711 746.971985
311 0 1 13.129971 8.274913 747.955994
312 0 1 13.033569 8.183201 748.916016
313 0 1 12.780320 8.439690 749.792969
314 0 1 12.537640 8.325988 750.791992
315 0 1 12.098869 8.279772 751.646973
316 0 1 11.728780 8.448978 752.580994
317 0 1 11.710381 8.326305 753.552002
318 0 1 11.379800 8.073224 754.395020
319 0 1 11.397779 7.780435 755.294006
320 0 1 11.266960 7.418963 756.203003
321 0 1 11.545080 7.017169 757.122009
322 0 1 11.848100 6.782890 757.985962
323 0 1 12.273170 6.917380 758.765991
324 0 1 12.516430 7.341597 759.646973
325 0 1 12.620729 7.512855 760.589966
326 0 1 12.561230 7.665970 761.542969
327 0 1 12.758130 7.717108 762.556030
328 0 1 13.072340 7.668806 763.460999
329 0 1 13.343250 7.522533 764.369019
330 0 1 13.723169 7.331609 765.297974
331 0 1 14.021770 6.898400 766.174011
332 0 1 14.364759 6.880290 767.093018
333 0 1 14.483060 6.478900 767.968018
334 0 1 14.194691 6.032140 768.827026
335 0 1 13.949420 5.519060 769.554016
336 0 1 13.749720 5.012430 770.337036
337 0 1 13.405910 4.476720 771.065002
338 0 1 12.793760 4.069830 771.684998
339 0 1 12.040210 3.938470 772.247009
340 0 1 11.354140 3.879410 773.028992
341 0 1 10.814360 3.649440 773.804993
342 0 1 10.107440 3.521130 774.463989
343 0 1 9.471530 3.682910 775.186035
344 0 1 9.099190 3.887020 776.052979
345 0 1 8.513897 4.190880 776.799988
346 0 1 8.198575 4.594940 777.609009
347 0 1 8.174755 5.067680 778.445984
348 0 1 8.287399 5.350390 779.365967
349 0 1 7.987282 5.517110 780.320984
350 0 1 7.476616 5.475450 781.179016
351 0 1 6.826780 5.643870 781.841980
352 0 1 6.192490 5.734880 782.565979
353 0 1 5.622080 5.962480 783.278015
354 0 1 5.249330 5.842170 784.141968
355 0 1 5.208860 5.620160 785.036987
356 0 1 5.052800 5.334760 785.914001
357 0 1 4.827400 4.793470 786.690979
358 0 1 4.434860 4.185430 787.276001
359 0 1 4.224680 3.737220 788.119019
360 0 1 3.842790 3.553310 788.960022
361 0 1 3.947370 3.588680 789.880005
362 0 1 3.858610 4.020580 790.700012
363 0 1 3.852750 4.393790 791.614014
364 0 1 4.115310 4.982450 792.348999
365 0 1 4.218090 5.580090 793.075012
366 0 1 4.404960 6.182010 793.786011
367 0 1 4.418920 6.674060 794.578979
368 0 1 4.446570 6.977290 795.489990
369 0 1 4.579740 7.382123 796.337036
370 0 1 4.421110 7.776451 797.143005
371 0 1 4.363770 8.572095 797.714966
372 0 1 4.747380 9.185660 798.335022
373 0 1 4.819540 9.770830 799.056030
374 0 1 5.087670 10.506800 799.570984
375 0 1 5.402880 11.290820 800.080994
376 0 1 5.835940 11.829280 800.787964
377 0 1 6.293330 12.281020 801.485962
378 0 1 6.839340 12.564870 802.187988
379 0 1 7.378025 12.645550 802.931030
380 0 1 7.995294 12.950740 803.627991
381 0 1 8.532161 12.916100 804.437012
382 0 1 9.044420 12.933880 805.250000
383 0 1 9.530560 13.084590 806.021973
384 0 1 9.837020 12.853530 806.932007
385 0 1 10.161500 12.695910 807.841003
386 0 1 10.431350 12.330820 808.674988
387 0 1 10.546930 11.991489 809.638000
388 0 1 10.616610 11.639811 810.582031
389 0 1 11.056010 11.231060 811.320984
390 0 1 11.340370 10.887130 812.122986
391 0 1 11.484040 10.560850 812.978027
392 0 1 11.596260 10.095970 813.859985
393 0 1 11.418810 9.532520 814.615967
394 0 1 11.161221 9.006730 815.401978
395 0 1 11.063601 8.761314 816.343994
396 0 1 10.970460 8.409254 817.192993
397 0 1 10.896811 8.196916 818.135986
398 0 1 11.113720 7.826573 819.062012
399 0 1 11.340050 7.502925 819.919006
400 0 1 11.553170 7.481854 820.872009
401 0 1 11.832720 7.727889 821.771973
402 0 1 11.904830 8.253154 822.596008
403 0 1 11.867500 8.548235 823.601013
404 0 1 12.160160 8.750250 824.487000
405 0 1 12.521800 9.050090 825.285034
406 0 1 12.739799 9.091210 826.219971
407 0 1 13.000840 9.214160 827.203979
408 0 1 13.175180 9.260350 828.164978
409 0 1 13.041639 9.164480 829.101013
410 0 1 13.157300 9.333060 830.042969
411 0 1 13.405080 9.497020 830.947021
412 0 1 13.447030 9.798800 831.875000
413 0 1 13.582331 9.625280 832.837036
414 0 1 13.504520 9.267460 833.703979
415 0 1 13.333099 8.935666 834.552002
416 0 1 13.159700 8.807096 835.549011
417 0 1 13.003420 8.981767 836.453979
418 0 1 12.536420 9.071460 837.294006
419 0 1 11.844440 8.849903 837.978027
420 0 1 11.246830 8.331007 838.546997
421 0 1 10.569910 7.662722 838.739990
422 0 1 9.861430 7.023975 838.838013
423 0 1 9.112700 6.407470 838.716003
424 0 1 8.433752 5.839630 838.401978
425 0 1 7.778915 5.433810 837.729980
426 0 1 7.056594 5.216550 837.127014
427 0 1 6.436920 4.820260 836.481018
428 0 1 5.889550 4.525280 835.669983
429 0 1 5.530560 4.381670 834.766968
430 0 1 5.501210 4.511950 833.799011
431 0 1 5.163810 4.873010 832.945007
432 0 1 4.932160 5.062810 832.036987
433 0 1 4.508940 5.365290 831.192017
434 0 1 4.362290 5.773370 830.348022
435 0 1 4.336030 6.145560 829.518982
436 0 1 4.527830 6.774480 828.856995
437 0 1 4.699450 7.419071 828.169006
438 0 1 4.761620 8.193358 827.667969
439 0 1 4.797650 9.036630 827.143982
440 0 1 5.017780 9.861920 826.653992
441 0 1 5.546290 10.542440 826.281982
442 0 1 6.107980 11.275960 826.140015
443 0 1 6.321770 11.959610 825.483032
444 0 1 6.328090 12.775880 825.015991
445 0 1 6.495220 13.319550 824.205017
446 0 1 6.492130 13.684340 823.283997
447 0 1 6.387460 14.004930 822.247986
448 0 1 6.082420 13.972670 821.278992
449 0 1 5.638220 13.858820 820.442017
450 0 1 5.027460 13.775860 819.708008
451 0 1 4.594980 13.599910 818.815002
452 0 1 4.284380 13.220739 818.037964
453 0 1 3.816960 12.857320 817.205017
454 0 1 3.506960 12.280890 816.549988
455 0 1 3.395020 11.695580 815.708008
456 0 1 3.392420 11.130540 814.929993
457 0 1 3.780940 10.684230 814.192993
458 0 1 3.807810 10.285970 813.320007
459 0 1 3.730530 9.964030 812.377014
460 0 1 3.608140 9.504660 811.585022
461 0 1 3.623390 9.134390 810.671997
462 0 1 3.470850 8.628616 809.914001
463 0 1 3.365880 8.111785 809.007019
464 0 1 3.393110 7.768032 808.087036
465 0 1 3.453080 7.309135 807.273987
466 0 1 4.106720 6.900700 806.671021
467 0 1 4.712030 6.622090 806.004028
468 0 1 4.947220 6.253100 805.155029
469 0 1 5.315210 5.777880 804.429993
470 0 1 5.600520 5.281020 803.669006
471 0 1 5.855990 5.093540 802.734985
472 0 1 6.132170 4.760320 801.835999
473 0 1 6.553340 4.679160 801.007996
474 0 1 6.826280 4.845540 800.130005
475 0 1 7.175272 5.032600 799.265015
476 0 1 7.372587 5.097690 798.332031
477 0 1 7.612992 5.166180 797.385986
478 0 1 7.795955 5.241130 796.466003
479 0 1 7.923956 5.528380 795.528015
480 0 1 8.075711 5.663960 794.591003
481 0 1 7.860780 5.753300 793.690979
482 0 1 7.663718 6.023950 792.801025
483 0 1 7.535123 6.346570 791.877991
484 0 1 7.744705 6.634720 791.035034
485 0 1 7.638318 6.909410 790.129028
486 0 1 7.591251 7.274782 789.234985
487 0 1 7.506874 7.677109 788.349976
488 0 1 7.530814 8.129547 787.500977
489 0 1 7.431793 8.380241 786.619995
490 0 1 7.181530 8.680793 785.655029
491 0 1 7.081397 8.882766 784.761963
492 0 1 6.953800 9.136040 783.864990
493 0 1 6.775660 9.502090 782.932983
494 0 1 6.396480 9.838830 782.164001
495 0 1 6.035530 10.378099 781.438965
496 0 1 5.659310 11.010360 780.809998
497 0 1 5.573450 11.348790 779.827026
498 0 1 5.433330 11.270790 778.889038
499 0 1 5.105350 11.137360 778.020020
500 0 1 4.886260 10.629200 777.252014
501 0 1 5.009860 9.969100 776.533997
502 0 1 4.974450 9.288100 775.789978
503 0 1 4.846980 8.836779 774.955994
504 0 1 4.779230 8.523582 774.018005
505 0 1 4.634540 8.491735 773.083008
506 0 1 4.285320 8.656262 772.161987
507 0 1 3.708940 8.750148 771.429016
508 0 1 3.239690 9.169340 770.710999
509 0 1 3.131530 9.167250 769.747986
510 0 1 3.047680 9.065150 768.817993
511 0 1 3.366590 8.988251 767.888000
512 0 1 3.500030 8.957879 766.886963
513 0 1 3.432260 8.833874 765.929993
514 0 1 3.416460 8.596472 765.004028
515 0 1 3.572570 8.450266 764.067993
516 0 1 3.857170 8.239221 763.174011
517 0 1 4.326880 7.746046 762.494995
518 0 1 4.841530 7.311067 761.809021
519 0 1 5.013010 6.812290 761.005005
520 0 1 5.120340 6.280510 760.216003
521 0 1 5.363760 5.725730 759.360962
522 0 1 5.742120 5.572630 758.509033
523 0 1 5.858570 5.504380 757.570984
524 0 1 5.980450 5.754080 756.667969
525 0 1 6.315400 5.932790 755.814026
526 0 1 6.470850 6.240840 754.921997
527 0 1 6.803920 6.549630 754.085022
528 0 1 7.141959 6.747320 753.184998
529 0 1 7.472451 6.873030 752.292969
530 0 1 7.701147 6.902540 751.322021
531 0 1 8.083591 6.893780 750.369019
532 0 1 8.096947 6.628330 749.440979
533 0 1 8.167963 6.056210 748.620972
534 0 1 8.337665 5.584530 747.830994
535 0 1 8.177548 5.343730 746.820007
536 0 1 7.729936 5.322720 745.900024
537 0 1 7.444623 4.810900 745.101013
538 0 1 7.179006 4.243460 744.325989
539 0 1 6.606910 4.001910 743.539978
540 0 1 6.181270 3.998940 742.674988
541 0 1 5.815900 4.136750 741.778015
542 0 1 5.437870 4.397990 740.906982
543 0 1 4.835050 4.671700 740.184021
544 0 1 4.350730 4.972370 739.439026
545 0 1 3.754340 5.374750 738.773010
546 0 1 3.259950 5.965670 738.203003
547 0 1 3.063320 6.470420 737.401001
548 0 1 2.819620 6.899690 736.612000
549 0 1 2.586230 7.503808 735.916992
550 0 1 2.631240 8.101902 735.134033
551 0 1 2.856100 8.364799 734.244019
552 0 1 3.003550 8.305683 733.312012
553 0 1 2.992640 8.571538 732.411987
554 0 1 2.913760 8.839745 731.535034
555 0 1 3.072510 9.039980 730.671021
556 0 1 3.153400 9.233960 729.750000
557 0 1 3.231130 9.372680 728.833008
558 0 1 3.355630 9.730410 727.941772
559 0 1 3.323830 9.661140 726.933289
560 0 1 3.368170 9.526150 725.958374
561 0 1 3.548360 9.357020 725.055176
562 0 1 3.404240 9.185130 724.117310
563 0 1 3.464920 9.148630 723.199219
564 0 1 3.241310 8.776547 722.381409
565 0 1 3.135630 8.713145 721.354187
566 0 1 2.862400 8.789516 720.383911
567 0 1 2.789060 9.018630 719.433716
568 0 1 2.813750 9.278220 718.474792
569 0 1 2.928700 9.504720 717.508179
570 0 1 3.231370 9.749890 716.604797
571 0 1 3.431430 10.078530 715.729675
572 0 1 3.672270 10.310050 714.731812
573 0 1 3.705480 10.367630 713.791809
574 0 1 4.014500 10.335620 712.926086
575 0 1 4.586310 10.303790 712.160217
576 0 1 4.910480 10.086930 711.251404
577 0 1 4.974440 9.937640 710.318115
578 0 1 5.355670 9.724270 709.450623
579 0 1 6.062980 9.417400 708.945618
580 0 1 6.836120 9.310240 708.310486
581 0 1 7.480430 9.415350 707.625916
582 0 1 7.697571 9.396270 706.677307
583 0 1 7.733845 9.142360 705.680420
584 0 1 7.762781 8.962332 704.770630
585 0 1 7.661885 9.112750 703.783875
586 0 1 7.677123 9.415210 702.839722
587 0 1 7.636147 9.727730 701.908569
588 0 1 7.836372 9.906820 701.044189
589 0 1 8.144237 9.721170 700.183228
590 0 1 8.277483 9.457430 699.282288
591 0 1 8.567607 9.059060 698.435791
592 0 1 9.000031 8.717957 697.609802
593 0 1 9.486650 8.405653 696.736328
594 0 1 9.969140 8.639790 695.939880
595 0 1 10.299960 8.902824 695.124084
596 0 1 10.891581 8.979522 694.319519
597 0 1 11.252990 9.054029 693.447083
598 0 1 11.567699 8.965171 692.523682
599 0 1 11.812490 8.913571 691.617798
600 0 1 11.696580 8.843495 690.671692
601 0 1 11.276450 8.721157 689.817322
602 0 1 10.709990 8.851607 689.103516
603 0 1 10.231000 9.114780 688.223083
604 0 1 9.863290 9.208420 687.333313
605 0 1 9.635710 8.957264 686.349426
606 0 1 9.675370 8.691426 685.450012
607 0 1 9.681760 8.695246 684.508301
608 0 1 9.650810 8.768933 683.541199
609 0 1 9.519720 8.838687 682.622986
610 0 1 9.187290 8.324722 681.819824
611 0 1 8.894968 7.998001 680.957092
612 0 1 8.571323 7.670186 680.092102
613 0 1 8.125006 7.546725 679.240906
614 0 1 7.798348 7.218293 678.334717
615 0 1 7.407489 6.770370 677.517273
616 0 1 6.979760 6.598850 676.681824
617 0 1 6.490330 6.635210 675.858032
618 0 1 6.142420 6.866070 674.984497
619 0 1 6.399870 7.234877 674.121399
620 0 1 6.676180 7.406084 673.135498
621 0 1 6.713300 7.588946 672.227173
622 0 1 6.850190 7.885699 671.325928
623 0 1 6.731340 8.251346 670.459229
624 0 1 6.612140 8.340048 669.468811
625 0 1 6.551150 8.045913 668.590881
626 0 1 6.489640 7.808592 667.620483
627 0 1 6.114770 7.379521 666.794006
628 0 1 6.023250 7.185939 665.855774
629 0 1 5.948330 7.000033 664.922729
630 0 1 5.943830 6.793170 663.967224
631 0 1 5.693250 6.992250 663.088684
632 0 1 5.483090 7.242261 662.171082
633 0 1 5.257440 7.273891 661.213928
634 0 1 5.139790 7.370524 660.283997
635 0 1 5.328310 7.444819 659.310974
636 0 1 5.717610 7.619802 658.461914
637 0 1 5.986290 7.847511 657.590271
638 0 1 6.048520 7.997621 656.624573
639 0 1 5.571840 7.982724 655.814819
640 0 1 5.135990 8.164663 655.013672
641 0 1 4.876680 8.374730 654.161072
642 0 1 4.834780 8.415014 653.217224
643 0 1 4.609770 8.544641 652.301025
644 0 1 4.662230 8.549290 651.346802
645 0 1 4.649840 8.505094 650.374329
646 0 1 4.904040 8.264628 649.486511
647 0 1 5.251730 8.080685 648.544006
648 0 1 5.512170 7.861327 647.670288
649 0 1 5.583540 7.469862 646.767883
650 0 1 5.582770 7.212181 645.796631
651 0 1 5.693600 7.041952 644.886780
652 0 1 5.846110 6.993750 643.968872
653 0 1 6.058070 6.875970 643.041809
654 0 1 6.023190 6.651650 642.135925
655 0 1 6.218820 6.480640 641.211792
656 0 1 6.390230 6.389870 640.223877
657 0 1 6.464110 6.235570 639.301575
658 0 1 6.263760 6.124610 638.313049
659 0 1 6.256520 5.924590 637.344116
660 0 1 6.314570 6.142630 636.390564
661 0 1 6.471610 6.573030 635.587708
662 0 1 6.674620 6.805050 634.712097
663 0 1 6.961470 6.979120 633.731140
664 0 1 7.230937 7.022494 632.830811
665 0 1 7.595420 6.937390 631.909607
666 0 1 7.694352 7.141596 631.060242
667 0 1 7.798725 7.300135 630.086914
668 0 1 7.934469 7.273523 629.099365
669 0 1 8.123101 7.124953 628.146362
670 0 1 8.064869 7.085402 627.180786
671 0 1 7.917755 7.195487 626.232971
672 0 1 7.539832 7.222349 625.347229
673 0 1 7.200218 7.283362 624.397461
674 0 1 6.849100 7.326333 623.517090
675 0 1 6.613820 7.226292 622.568237
676 0 1 6.264780 7.291162 621.643250
677 0 1 6.100740 7.617156 620.747192
678 0 1 6.081130 7.738710 619.795349
679 0 1 6.299340 7.579191 618.812317
680 0 1 6.414130 7.103833 617.870422
681 0 1 6.226470 6.741240 617.000977
682 0 1 6.089130 6.280980 616.262695
683 0 1 5.648950 5.921550 615.483093
684 0 1 5.106730 5.720190 614.691895
685 0 1 4.669380 5.764510 613.843994
686 0 1 4.541150 5.879840 612.848816
687 0 1 4.231500 5.994520 611.960876
688 0 1 3.854520 6.181460 611.086670
689 0 1 3.581450 6.115310 610.124512
690 0 1 3.292560 5.950450 609.184326
691 0 1 3.147170 6.095920 608.275085
692 0 1 3.007740 6.364190 607.412415
693 0 1 3.200050 6.865030 606.483704
694 0 1 3.541350 7.446938 605.764282
695 0 1 4.257280 7.659355 605.073914
696 0 1 4.841520 7.896814 604.311279
697 0 1 5.528160 7.876914 603.646606
698 0 1 6.241890 7.553874 603.117188
699 0 1 6.994300 7.465458 602.572510
700 0 1 7.817264 7.660078 601.944092
701 0 1 8.515113 7.791764 601.241577
702 0 1 9.238100 7.895390 600.520874
703 0 1 10.079470 8.133282 600.030396
704 0 1 10.848470 8.372870 599.429016
705 0 1 11.461650 8.585751 598.758606
706 0 1 12.051041 9.048920 598.034607
707 0 1 12.486549 9.655950 597.434814
708 0 1 12.617889 10.230170 596.693481
709 0 1 12.678200 10.660620 595.863403
710 0 1 12.576691 10.873550 594.934326
711 0 1 12.764350 11.246560 594.041870
712 0 1 13.124730 11.203370 593.122314
713 0 1 13.274281 10.592210 592.346619
714 0 1 13.329580 10.272990 591.472107
715 0 1 13.587030 9.453290 590.934204
716 0 1 13.558840 8.704426 590.271790
717 0 1 13.694450 8.330428 589.423218
718 0 1 13.330390 8.097350 588.533020
719 0 1 13.022010 7.999429 587.522705
720 0 1 12.776051 7.936781 586.553101
721 0 1 12.603439 7.816687 585.620178
722 0 1 12.493031 7.742524 584.661194
723 0 1 12.257090 7.937200 583.755798
724 0 1 11.740100 8.089007 583.014282
725 0 1 11.323669 8.347023 582.176880
726 0 1 11.385960 8.888402 581.339172
727 0 1 11.175290 8.972820 580.368774
728 0 1 11.096260 9.026310 579.436523
729 0 1 10.842240 8.843380 578.481079
730 0 1 10.444590 8.848325 577.620972
731 0 1 10.121120 8.639334 576.735107
732 0 1 9.856290 8.471656 575.782410
733 0 1 9.513150 8.024085 574.986389
734 0 1 9.096700 7.661916 574.150269
735 0 1 8.988940 7.242127 573.244995
736 0 1 9.070790 6.970700 572.307617
737 0 1 8.989455 6.874990 571.268005
738 0 1 9.112980 7.029257 570.359375
739 0 1 9.442170 7.001824 569.421082
740 0 1 9.384630 7.128482 568.497681
741 0 1 9.543420 7.377392 567.587708
742 0 1 9.600650 7.666542 566.549683
743 0 1 9.440100 7.736743 565.627502
744 0 1 9.535680 7.739863 564.669617
745 0 1 9.539330 7.924430 563.721680
746 0 1 9.390260 8.316208 562.861084
747 0 1 9.106760 8.902395 562.149719
748 0 1 8.758884 9.395760 561.395508
749 0 1 8.474877 10.010870 560.640686
750 0 1 8.181115 10.715040 560.064514
751 0 1 8.122310 11.547870 559.505920
752 0 1 8.058841 12.287980 558.953125
753 0 1 8.122521 12.880660 558.158081
754 0 1 8.115333 13.355850 557.292419
755 0 1 7.915885 13.425350 556.367432
756 0 1 7.795687 13.401780 555.421326
757 0 1 7.789574 13.357800 554.476013
758 0 1 8.076621 13.325319 553.558777
759 0 1 8.503649 13.181780 552.802612
760 0 1 9.045870 13.016310 552.014221
761 0 1 9.536970 13.293950 551.260193
762 0 1 9.804810 13.574030 550.356018
763 0 1 9.945400 13.730080 549.427979
764 0 1 9.962710 13.978020 548.521606
765 0 1 10.117990 14.187090 547.589111
766 0 1 10.104400 14.310249 546.664307
767 0 1 9.723420 14.227859 545.799011
768 0 1 9.507650 13.966140 544.891418
769 0 1 9.302430 13.757650 543.997925
770 0 1 9.027500 13.667300 543.091431
771 0 1 9.110130 13.264090 542.225403
772 0 1 9.192340 13.196410 541.251282
773 0 1 9.392500 13.284790 540.293579
774 0 1 9.537880 13.179649 539.406006
775 0 1 9.752650 13.016150 538.448730
776 0 1 9.834460 12.939910 537.484619
777 0 1 9.658700 12.952890 536.552368
778 0 1 9.566290 12.912280 535.574829
779 0 1 9.328310 13.060020 534.633606
780 0 1 9.182950 13.043950 533.730774
781 0 1 9.309340 13.075970 532.748474
782 0 1 9.224510 13.147659 531.791687
783 0 1 9.294920 12.958000 530.844299
784 0 1 9.324920 13.039801 529.879578
785 0 1 9.194600 13.221780 528.927490
786 0 1 9.174129 13.357679 527.974976
787 0 1 9.180630 13.633720 527.085022
788 0 1 9.226760 13.658899 526.161987
789 0 1 9.335170 13.523350 525.213013
790 0 1 9.142640 13.562170 524.210999
791 0 1 8.841859 13.620541 523.307007