LAMMPS data file via MDAnalysis

        1000  atoms
        1000  bonds
        1000  angles
           0  dihedrals
           0  impropers

           1  atom types
           1  bond types
           1  angle types
           0  dihedral types
           0  improper types

0.000000 16.000000 xlo xhi
0.000000 16.000000 ylo yhi
0.000000 1257.000000 zlo zhi


Masses

1 1.000000

Atoms

1 0 1 8.326477 9.708720 473.417999
2 0 1 8.112893 9.593270 474.341003
3 0 1 7.842693 9.225020 475.161011
4 0 1 7.807602 8.775564 476.048004
5 0 1 7.714135 8.444820 476.976013
6 0 1 7.664628 7.948050 477.800995
7 0 1 7.560607 7.701041 478.765015
8 0 1 7.756721 7.561609 479.681000
9 0 1 8.308265 7.190702 480.346985
10 0 1 8.951318 6.803650 481.010986
11 0 1 9.538030 6.131560 481.483002
12 0 1 10.052530 5.568320 482.140015
13 0 1 10.581739 5.308390 482.869995
14 0 1 10.818990 5.269740 483.846008
15 0 1 10.714621 5.282990 484.854004
16 0 1 10.710470 5.345020 485.750000
17 0 1 10.626600 5.301060 486.744019
18 0 1 10.174740 5.444910 487.601990
19 0 1 9.916451 5.320890 488.460022
20 0 1 10.337111 5.414880 489.315979
21 0 1 10.541630 5.449510 490.247986
22 0 1 10.759171 5.745740 491.127014
23 0 1 11.002210 6.242480 491.963989
24 0 1 11.219330 6.835990 492.695007
25 0 1 11.511900 7.524639 493.315979
26 0 1 11.678280 8.208420 493.950012
27 0 1 11.731230 9.043210 494.414001
28 0 1 11.686120 9.879310 494.932983
29 0 1 11.540860 10.650500 495.528992
30 0 1 11.251220 11.218719 496.250000
31 0 1 10.861390 11.559890 497.070007
32 0 1 10.610670 11.689910 497.984985
33 0 1 10.104870 11.814150 498.735992
34 0 1 9.607310 11.963660 499.550995
35 0 1 9.101030 11.856020 500.339996
36 0 1 8.384388 12.051991 501.062012
37 0 1 7.798427 12.231600 501.885010
38 0 1 7.142486 12.579720 502.492004
39 0 1 6.617160 12.947330 503.268005
40 0 1 6.127160 13.172840 504.045990
41 0 1 5.794440 13.678530 504.798004
42 0 1 5.721430 14.155340 505.683990
43 0 1 5.995960 14.533400 506.496002
44 0 1 6.444850 14.257800 507.257996
45 0 1 6.697950 13.833530 508.101013
46 0 1 6.657990 13.527901 509.003998
47 0 1 6.623050 12.968430 509.830017
48 0 1 6.698000 12.709169 510.729004
49 0 1 6.692950 12.471189 511.688995
50 0 1 6.866600 12.177320 512.578003
51 0 1 7.040127 12.035000 513.520996
52 0 1 7.358337 11.818200 514.422974
53 0 1 7.434855 11.460900 515.351990
54 0 1 7.729522 11.185450 516.237976
55 0 1 8.158663 10.924690 517.119019
56 0 1 8.399705 10.617520 518.013000
57 0 1 8.719161 10.546030 518.901978
58 0 1 8.635953 10.127220 519.731995
59 0 1 8.569433 9.903380 520.702026
60 0 1 8.739145 9.567820 521.672974
61 0 1 9.280350 9.130190 522.362000
62 0 1 9.893620 8.835763 523.075012
63 0 1 10.560210 8.618841 523.754028
64 0 1 11.034290 8.321191 524.531006
65 0 1 11.551490 8.312518 525.343994
66 0 1 11.987590 8.531178 526.239014
67 0 1 12.152790 8.266587 527.166992
68 0 1 11.996140 7.760263 528.016968
69 0 1 11.933880 7.293379 528.815186
70 0 1 11.778070 7.095055 529.870605
71 0 1 11.296840 7.043108 530.703186
72 0 1 11.038400 6.919660 531.682190
73 0 1 10.600340 6.658270 532.493591
74 0 1 10.213140 6.218680 533.299805
75 0 1 9.716730 5.755030 533.945374
76 0 1 9.051460 5.565260 534.662720
77 0 1 8.521357 5.461020 535.506775
78 0 1 7.939135 5.350550 536.424988
79 0 1 7.499155 5.370860 537.264771
80 0 1 7.238418 5.282010 538.163391
81 0 1 6.850770 5.035020 539.077026
82 0 1 6.458470 5.026570 539.978516
83 0 1 6.092360 5.141920 541.006409
84 0 1 5.957540 4.890090 541.928833
85 0 1 5.853040 4.517340 542.887207
86 0 1 5.373770 4.175930 543.679504
87 0 1 5.250940 4.046810 544.700500
88 0 1 5.363640 3.935410 545.651489
89 0 1 5.819710 4.238070 546.472412
90 0 1 6.325320 4.657620 547.115784
91 0 1 6.720240 5.314900 547.705994
92 0 1 6.987670 5.811410 548.512329
93 0 1 7.467092 6.159310 549.391174
94 0 1 8.117162 6.408800 550.045410
95 0 1 8.839276 6.828360 550.653931
96 0 1 9.236660 7.028934 551.541077
97 0 1 9.513660 7.144591 552.486206
98 0 1 9.447840 7.483849 553.351807
99 0 1 9.390670 7.372237 554.322998
100 0 1 9.445560 7.073320 555.257568
101 0 1 9.314260 7.133254 556.154724
102 0 1 8.923358 7.431067 557.035034
103 0 1 8.597345 7.848955 557.839478
104 0 1 8.186184 8.440326 558.468689
105 0 1 7.922887 8.719553 559.311279
106 0 1 7.388378 8.762404 560.141602
107 0 1 6.940170 8.761977 560.981323
108 0 1 6.601220 8.739753 561.898682
109 0 1 6.541270 8.806034 562.823181
110 0 1 6.654430 8.753705 563.755676
111 0 1 6.742410 8.924596 564.682007
112 0 1 6.671620 9.072010 565.626526
113 0 1 6.748970 9.213620 566.528076
114 0 1 6.550310 9.387240 567.458191
115 0 1 5.902940 9.510720 568.186584
116 0 1 5.285690 9.827600 568.896973
117 0 1 4.876250 10.087749 569.722717
118 0 1 4.517040 10.015841 570.642212
119 0 1 4.408410 9.818501 571.574097
120 0 1 4.327960 9.492090 572.452820
121 0 1 4.310110 8.974150 573.241699
122 0 1 4.256790 8.451230 574.051086
123 0 1 4.119120 7.822135 574.769592
124 0 1 3.862840 7.386748 575.568298
125 0 1 3.730770 6.715940 576.264282
126 0 1 3.621010 6.166000 577.038391
127 0 1 3.824370 5.689530 577.795532
128 0 1 3.826190 5.095100 578.587524
129 0 1 4.010620 4.818310 579.486816
130 0 1 4.045510 4.656440 580.416992
131 0 1 4.244130 4.889310 581.386902
132 0 1 4.701540 4.961870 582.186096
133 0 1 5.245860 4.801340 583.125732
134 0 1 5.851960 4.609170 583.835693
135 0 1 6.274650 4.333460 584.689880
136 0 1 6.695410 4.035070 585.497375
137 0 1 7.314779 3.623330 586.188721
138 0 1 7.815813 3.331060 586.967590
139 0 1 8.336613 3.335940 587.750977
140 0 1 8.667197 2.976000 588.604492
141 0 1 8.866117 2.614490 589.452209
142 0 1 8.939184 2.435310 590.402710
143 0 1 9.020820 2.259130 591.324829
144 0 1 9.119080 2.119570 592.290100
145 0 1 9.059600 2.294110 593.275696
146 0 1 9.201150 2.269640 594.306824
147 0 1 9.047010 2.393550 595.284180
148 0 1 8.997726 2.578270 596.210388
149 0 1 9.077130 2.529240 597.202515
150 0 1 8.863504 2.535110 598.138000
151 0 1 8.537843 2.302410 599.025269
152 0 1 7.961965 2.059510 599.765503
153 0 1 7.451508 1.807470 600.588684
154 0 1 7.019396 1.647640 601.377075
155 0 1 6.663280 1.740670 602.239197
156 0 1 6.342680 2.077120 603.160706
157 0 1 5.962970 2.505710 603.948792
158 0 1 5.775300 2.908570 604.805176
159 0 1 5.882350 3.155790 605.721008
160 0 1 5.883700 3.326510 606.623779
161 0 1 5.946450 3.461570 607.548706
162 0 1 5.833430 3.571740 608.546692
163 0 1 5.592600 3.351390 609.440186
164 0 1 5.543080 3.032330 610.327271
165 0 1 5.303440 2.729640 611.187317
166 0 1 5.346130 2.525060 612.244385
167 0 1 5.187800 2.569730 613.165283
168 0 1 4.924620 2.797690 614.121521
169 0 1 4.854100 2.767850 615.055786
170 0 1 4.947210 2.724060 616.025513
171 0 1 5.306400 3.139840 616.832886
172 0 1 5.523100 3.757790 617.556519
173 0 1 5.559670 4.083090 618.493774
174 0 1 5.729170 4.486400 619.341309
175 0 1 5.552120 4.876340 620.207092
176 0 1 5.525600 5.158120 621.132812
177 0 1 5.651660 5.350970 622.122498
178 0 1 5.893450 5.480560 623.020508
179 0 1 6.070440 6.084850 623.812744
180 0 1 6.399170 6.838560 624.320984
181 0 1 6.428100 7.516615 625.004761
182 0 1 6.061140 8.056505 625.705139
183 0 1 5.722990 8.583129 626.496033
184 0 1 5.309170 8.812028 627.344055
185 0 1 4.806390 8.875571 628.098450
186 0 1 4.189210 9.028490 628.874023
187 0 1 3.967750 9.186900 629.794678
188 0 1 3.681760 9.172950 630.728760
189 0 1 3.264150 9.320400 631.644775
190 0 1 2.757420 9.478540 632.494263
191 0 1 2.340680 9.454990 633.452332
192 0 1 2.198190 9.596330 634.390381
193 0 1 2.069220 9.450930 635.424561
194 0 1 1.873130 9.275320 636.402344
195 0 1 1.833160 9.206950 637.413391
196 0 1 1.793780 9.059380 638.402893
197 0 1 1.779450 8.890553 639.385193
198 0 1 1.804630 8.385067 640.214905
199 0 1 1.888110 8.202344 641.192383
200 0 1 1.967530 7.887325 642.211121
201 0 1 1.901480 7.637482 643.182190
202 0 1 1.798690 7.325376 644.067688
203 0 1 1.872260 7.089889 644.992615
204 0 1 2.136230 6.766040 645.898376
205 0 1 2.533870 6.293460 646.619995
206 0 1 2.835380 5.738170 647.289124
207 0 1 3.430550 5.415120 648.007019
208 0 1 4.004300 4.946820 648.596802
209 0 1 4.373490 4.362940 649.293579
210 0 1 4.991920 4.056320 649.900574
211 0 1 5.501800 3.508930 650.524292
212 0 1 5.794540 3.074390 651.291077
213 0 1 5.970200 2.804370 652.166626
214 0 1 6.016660 2.617080 653.109497
215 0 1 6.274750 2.669230 654.077515
216 0 1 6.589360 3.011110 654.972473
217 0 1 6.871370 3.081670 655.928406
218 0 1 7.308833 2.962500 656.804810
219 0 1 7.458204 2.708230 657.761780
220 0 1 7.550160 2.613570 658.734802
221 0 1 7.761890 2.667720 659.688171
222 0 1 7.682608 2.801160 660.664001
223 0 1 7.609188 3.302970 661.542297
224 0 1 7.770710 3.686860 662.365601
225 0 1 7.971012 4.150680 663.194580
226 0 1 8.085123 4.533320 664.090088
227 0 1 8.381288 4.764850 664.992432
228 0 1 8.828018 5.202940 665.810425
229 0 1 9.285830 5.463980 666.668701
230 0 1 9.440850 5.505120 667.577087
231 0 1 9.413710 5.714950 668.503296
232 0 1 9.455050 5.992600 669.425110
233 0 1 9.522230 6.126400 670.352783
234 0 1 9.599930 6.297110 671.272400
235 0 1 9.599650 6.630690 672.199219
236 0 1 9.363520 6.858380 673.099731
237 0 1 9.124010 6.592680 673.979675
238 0 1 9.241600 6.582020 674.969971
239 0 1 9.262400 6.639940 675.930298
240 0 1 9.396860 6.726900 676.888428
241 0 1 9.688530 6.989280 677.779114
242 0 1 9.975420 6.816650 678.642700
243 0 1 10.069180 7.014411 679.549622
244 0 1 9.963640 7.180881 680.501282
245 0 1 9.553350 7.788077 681.148376
246 0 1 9.396710 8.192521 682.041992
247 0 1 9.298440 8.657595 682.852478
248 0 1 9.216530 9.229130 683.588196
249 0 1 9.162650 9.709020 684.360107
250 0 1 9.043820 10.074900 685.226624
251 0 1 8.856173 10.221621 686.112122
252 0 1 8.890746 10.530780 687.043091
253 0 1 9.152430 10.537519 687.936279
254 0 1 9.431710 10.477580 688.854980
255 0 1 9.698470 10.198771 689.838379
256 0 1 9.957660 9.721189 690.661194
257 0 1 10.158710 9.167080 691.426697
258 0 1 10.271820 8.982744 692.345520
259 0 1 10.349610 8.797802 693.280823
260 0 1 10.245871 8.393459 694.141785
261 0 1 10.330720 8.083400 695.053833
262 0 1 10.360090 7.904910 695.999207
263 0 1 9.997360 8.072603 696.860291
264 0 1 9.771620 8.293231 697.763306
265 0 1 9.457730 8.707272 698.530884
266 0 1 9.375060 9.067660 699.360718
267 0 1 9.484610 9.265320 700.314880
268 0 1 9.395460 9.257610 701.240601
269 0 1 9.123140 9.088730 702.139099
270 0 1 8.986074 8.854578 703.047485
271 0 1 8.724818 8.563216 703.977112
272 0 1 8.651414 8.205654 704.839478
273 0 1 8.824521 7.859537 705.761597
274 0 1 8.981420 7.499385 706.702271
275 0 1 9.191220 7.576875 707.662903
276 0 1 9.174990 7.646195 708.630493
277 0 1 9.085910 7.492207 709.604614
278 0 1 8.828347 7.219503 710.506897
279 0 1 8.407924 6.796170 711.287476
280 0 1 8.004292 6.302120 712.012512
281 0 1 7.555830 5.724220 712.634277
282 0 1 7.422364 5.431500 713.569702
283 0 1 6.969380 5.331700 714.398071
284 0 1 6.669670 4.995480 715.235107
285 0 1 6.423430 4.717580 716.103699
286 0 1 6.025950 4.309280 716.969971
287 0 1 5.606320 4.073720 717.832703
288 0 1 5.634380 4.018330 718.803223
289 0 1 5.849340 4.182690 719.744324
290 0 1 5.961110 4.408730 720.645630
291 0 1 6.195820 4.605280 721.560486
292 0 1 6.315760 4.713130 722.476501
293 0 1 6.715500 4.947080 723.301270
294 0 1 7.300356 4.944180 724.033875
295 0 1 7.786159 4.960800 724.822327
296 0 1 8.175676 4.866780 725.688721
297 0 1 8.510456 4.902120 726.594727
298 0 1 8.576693 4.833830 727.552673
299 0 1 8.204034 4.760020 728.486511
300 0 1 7.705377 4.842430 729.276978
301 0 1 7.291385 5.219370 730.089966
302 0 1 6.869240 5.440220 730.903015
303 0 1 6.648400 5.592690 731.833984
304 0 1 6.434650 5.919850 732.684998
305 0 1 6.297860 6.444340 733.458984
306 0 1 6.152780 6.717780 734.372009
307 0 1 6.353980 6.906400 735.304016
308 0 1 6.759650 7.213680 736.106018
309 0 1 7.046618 7.490929 736.914978
310 0 1 7.370206 7.749459 737.768005
311 0 1 7.929313 7.886302 738.509033
312 0 1 8.387276 8.141660 739.304993
313 0 1 8.860661 8.439554 740.127014
314 0 1 9.118280 8.965387 740.989990
315 0 1 9.036720 9.676030 741.744019
316 0 1 8.723742 10.239420 742.504028
317 0 1 8.230331 10.699770 743.218018
318 0 1 7.922003 11.170530 744.005981
319 0 1 7.652595 11.661119 744.807007
320 0 1 7.634285 11.920280 745.711975
321 0 1 7.646983 11.883600 746.625000
322 0 1 7.734364 11.573460 747.570984
323 0 1 7.875125 11.096550 748.416016
324 0 1 8.071163 10.604840 749.228027
325 0 1 8.615818 10.203450 749.955017
326 0 1 8.804987 9.677270 750.692993
327 0 1 8.881881 9.206260 751.552979
328 0 1 8.982056 8.565278 752.273010
329 0 1 9.139720 7.921031 753.046021
330 0 1 9.010880 7.341687 753.835022
331 0 1 8.890751 6.722230 754.549011
332 0 1 8.676005 6.479520 755.440002
333 0 1 8.162835 6.005270 756.161987
334 0 1 7.648785 5.538500 756.765991
335 0 1 7.209576 5.262680 757.516968
336 0 1 6.696120 5.022180 758.332031
337 0 1 6.134180 4.707300 759.046021
338 0 1 5.615670 4.626020 759.846985
339 0 1 5.194600 4.444520 760.690002
340 0 1 5.024860 4.520440 761.598022
341 0 1 4.704570 4.671620 762.578003
342 0 1 4.491420 4.644910 763.531982
343 0 1 4.603700 4.676940 764.497986
344 0 1 4.611780 4.892310 765.406006
345 0 1 4.419880 5.274910 766.307983
346 0 1 4.293530 5.679020 767.158020
347 0 1 4.019030 6.219940 767.916992
348 0 1 3.666570 6.831860 768.575989
349 0 1 3.480750 7.224664 769.429993
350 0 1 3.271300 7.537176 770.289978
351 0 1 2.929840 8.039365 771.010010
352 0 1 2.737170 8.710474 771.713013
353 0 1 2.402540 9.167200 772.476013
354 0 1 2.136570 9.820920 773.190979
355 0 1 2.053510 10.302620 774.005005
356 0 1 2.088120 10.760440 774.895020
357 0 1 2.264990 11.220190 775.671021
358 0 1 2.586400 11.653030 776.403992
359 0 1 2.970460 12.097990 777.197998
360 0 1 3.436600 12.781950 777.770996
361 0 1 3.873640 13.393810 778.389038
362 0 1 4.439840 13.806770 779.068970
363 0 1 4.937930 14.205339 779.734009
364 0 1 5.111840 13.999670 780.617004
365 0 1 5.214800 13.907579 781.557007
366 0 1 5.313190 13.835430 782.476990
367 0 1 5.230560 13.633551 783.432007
368 0 1 4.999570 13.381960 784.338989
369 0 1 4.823820 13.215620 785.247009
370 0 1 4.530910 12.983450 786.101013
371 0 1 4.538010 12.498730 786.938965
372 0 1 4.599390 12.248449 787.846008
373 0 1 4.656660 12.323660 788.848999
374 0 1 4.576900 12.311550 789.809021
375 0 1 4.649380 12.136070 790.804016
376 0 1 4.728460 11.841021 791.737000
377 0 1 4.596970 11.582570 792.653992
378 0 1 4.602590 11.308670 793.520020
379 0 1 4.204190 11.034570 794.377991
380 0 1 3.553670 10.600451 794.947021
381 0 1 3.166490 10.100150 795.648987
382 0 1 2.698790 9.727140 796.463989
383 0 1 2.276920 9.477820 797.291992
384 0 1 1.874240 9.145430 798.088013
385 0 1 1.728090 9.122440 799.106995
386 0 1 2.092440 8.983928 799.999023
387 0 1 2.511240 8.668973 800.817993
388 0 1 2.831150 8.643848 801.705017
389 0 1 3.035440 8.689602 802.619019
390 0 1 3.323770 8.690003 803.530029
391 0 1 3.664040 8.570344 804.494995
392 0 1 4.159660 8.733572 805.382996
393 0 1 4.747700 8.813238 806.114990
394 0 1 5.480800 8.927511 806.677979
395 0 1 6.251550 9.204760 807.166992
396 0 1 6.700080 9.661430 807.864990
397 0 1 7.290724 9.947660 808.552979
398 0 1 7.911342 10.377439 809.182007
399 0 1 8.478830 10.766530 809.875000
400 0 1 9.036540 11.243160 810.510010
401 0 1 9.529520 11.634890 811.234009
402 0 1 9.588130 11.854570 812.242004
403 0 1 9.390710 12.164780 813.197998
404 0 1 9.126890 12.643431 814.129028
405 0 1 8.865071 12.768150 815.088989
406 0 1 8.767411 12.748859 816.037964
407 0 1 8.567696 12.604460 816.974976
408 0 1 8.381696 12.659580 817.890991
409 0 1 8.437166 12.696260 818.837036
410 0 1 8.475980 12.438049 819.754028
411 0 1 8.373784 12.650110 820.747009
412 0 1 8.131723 12.893230 821.755005
413 0 1 7.867109 13.223900 822.721008
414 0 1 7.506184 13.413200 823.627991
415 0 1 7.108846 13.555330 824.515015
416 0 1 6.769610 13.634040 825.453003
417 0 1 6.527750 13.662720 826.440002
418 0 1 6.466130 13.761900 827.367981
419 0 1 6.238480 13.813710 828.328003
420 0 1 5.897000 13.893900 829.242004
421 0 1 6.045960 13.676430 830.130981
422 0 1 6.052030 13.532080 831.082031
423 0 1 6.101570 13.207020 831.926025
424 0 1 6.714690 13.019770 832.630981
425 0 1 7.289940 12.736111 833.330994
426 0 1 7.804273 12.349609 834.020996
427 0 1 8.065598 11.984500 834.927002
428 0 1 8.186452 11.354270 835.686035
429 0 1 7.846143 10.764740 836.252014
430 0 1 7.605644 10.138220 836.962036
431 0 1 7.200815 9.363510 837.348022
432 0 1 7.012384 8.444639 837.471985
433 0 1 6.740860 7.569745 837.737000
434 0 1 6.578170 6.655800 837.867004
435 0 1 6.069870 5.809670 837.643005
436 0 1 5.466140 5.132030 837.140991
437 0 1 4.816420 4.509850 836.750000
438 0 1 4.433800 3.777350 836.181030
439 0 1 4.329250 3.343600 835.309998
440 0 1 4.436230 3.401600 834.393982
441 0 1 4.514530 3.325050 833.442993
442 0 1 4.387220 3.542310 832.511963
443 0 1 4.221020 3.717780 831.585022
444 0 1 3.795480 4.090140 830.832031
445 0 1 3.356410 4.682620 830.192993
446 0 1 2.946420 5.213580 829.507996
447 0 1 2.841470 5.558830 828.591003
448 0 1 2.799980 5.825930 827.688965
449 0 1 3.145010 6.168430 826.835999
450 0 1 3.406770 6.383300 825.932007
451 0 1 3.757520 6.591520 825.054016
452 0 1 3.995990 6.812810 824.146973
453 0 1 4.117550 6.725470 823.192017
454 0 1 4.386230 7.075498 822.325012
455 0 1 4.817040 7.418829 821.510986
456 0 1 5.055490 7.659167 820.604004
457 0 1 5.281710 7.967308 819.713989
458 0 1 5.713130 8.186110 818.794983
459 0 1 6.024510 7.964129 817.846985
460 0 1 6.691210 8.052741 817.166992
461 0 1 7.529375 8.258353 816.645996
462 0 1 8.381206 8.500473 816.296997
463 0 1 9.291630 8.582521 815.860962
464 0 1 10.079170 8.531848 815.286987
465 0 1 10.765739 8.501957 814.572021
466 0 1 11.221270 8.656208 813.687012
467 0 1 11.513380 8.909703 812.731018
468 0 1 11.374910 9.021420 811.827026
469 0 1 11.062880 9.014830 810.916016
470 0 1 10.602000 9.111220 810.075989
471 0 1 10.066910 9.198990 809.307983
472 0 1 9.854010 9.270190 808.372986
473 0 1 9.871490 9.629880 807.455994
474 0 1 10.018060 10.008240 806.641968
475 0 1 10.224810 10.534810 805.791992
476 0 1 10.700640 11.115940 805.221008
477 0 1 11.086010 11.065030 804.343018
478 0 1 11.081070 11.056310 803.398987
479 0 1 11.101260 10.842000 802.460999
480 0 1 10.970630 10.649230 801.514038
481 0 1 10.783900 10.329650 800.587036
482 0 1 10.536420 10.163300 799.724976
483 0 1 10.284990 10.264300 798.794983
484 0 1 9.964911 10.116110 797.891968
485 0 1 9.875960 10.110350 796.968018
486 0 1 9.860970 9.969220 795.968994
487 0 1 9.912840 9.731650 795.000000
488 0 1 9.457910 9.480820 794.153015
489 0 1 9.217970 9.142630 793.289001
490 0 1 8.872247 8.752318 792.426025
491 0 1 8.542569 8.326228 791.613037
492 0 1 8.147229 7.686249 790.940979
493 0 1 7.741227 7.514981 790.101013
494 0 1 7.360773 7.411730 789.247009
495 0 1 7.269541 7.084256 788.382019
496 0 1 7.357293 6.777990 787.502014
497 0 1 7.606010 6.453750 786.544983
498 0 1 7.920532 6.208720 785.648010
499 0 1 7.982633 5.743250 784.812012
500 0 1 7.899963 5.261070 784.030029
501 0 1 7.786952 5.019050 783.083984
502 0 1 7.432459 5.012890 782.166992
503 0 1 7.232716 5.027380 781.238037
504 0 1 7.558873 5.350540 780.338013
505 0 1 7.808199 5.659150 779.481018
506 0 1 7.809820 5.771740 778.514038
507 0 1 7.682026 6.063760 777.619019
508 0 1 7.499201 6.657660 776.862000
509 0 1 7.454191 7.243011 776.099976
510 0 1 7.520283 7.443046 775.151001
511 0 1 7.366801 7.536146 774.210999
512 0 1 7.507926 7.501219 773.306030
513 0 1 7.994592 7.729840 772.450989
514 0 1 8.483882 8.138528 771.755005
515 0 1 8.953335 8.762972 771.125977
516 0 1 9.375440 9.346770 770.466980
517 0 1 9.733540 9.811500 769.664978
518 0 1 10.124500 10.207200 768.867004
519 0 1 10.737110 10.391260 768.026978
520 0 1 11.259060 10.460020 767.247986
521 0 1 11.810640 10.524770 766.422974
522 0 1 12.322590 10.496600 765.573975
523 0 1 12.884171 10.539780 764.744995
524 0 1 13.116740 10.691820 763.818970
525 0 1 13.280090 10.970800 762.912964
526 0 1 13.177660 11.368010 762.046021
527 0 1 13.271749 11.805680 761.213989
528 0 1 13.394430 11.843480 760.239990
529 0 1 13.409360 11.747940 759.302979
530 0 1 13.220310 11.318900 758.437012
531 0 1 13.199820 10.745770 757.651978
532 0 1 12.989180 10.113940 756.947021
533 0 1 12.994280 9.936510 755.942993
534 0 1 13.075319 9.497120 755.088013
535 0 1 13.320550 9.055440 754.263977
536 0 1 13.375481 8.661830 753.431030
537 0 1 13.241320 8.151455 752.630981
538 0 1 13.216209 7.469053 751.969971
539 0 1 13.064400 6.944360 751.195007
540 0 1 13.091021 6.561730 750.259033
541 0 1 12.989960 6.100110 749.385986
542 0 1 12.885400 5.880890 748.403015
543 0 1 12.550090 5.763650 747.497009
544 0 1 12.073860 5.548900 746.729004
545 0 1 11.426280 5.655110 746.028992
546 0 1 10.995280 5.864670 745.202026
547 0 1 10.747890 6.170900 744.292969
548 0 1 10.650380 6.289140 743.270020
549 0 1 10.576440 6.240040 742.356018
550 0 1 10.294070 5.881990 741.544983
551 0 1 10.256870 5.336570 740.768982
552 0 1 10.588860 5.001600 739.916016
553 0 1 10.850220 4.673110 738.981995
554 0 1 10.869880 4.093890 738.198975
555 0 1 10.869560 3.490610 737.427002
556 0 1 11.096020 2.973470 736.676025
557 0 1 11.207530 2.927020 735.718018
558 0 1 11.395540 2.943090 734.773010
559 0 1 11.355630 3.192850 733.853027
560 0 1 11.103280 3.577620 732.974976
561 0 1 10.773430 4.142560 732.239990
562 0 1 10.632220 4.741720 731.528992
563 0 1 10.603500 5.182240 730.677002
564 0 1 10.878571 5.261430 729.716980
565 0 1 10.939529 5.168140 728.770020
566 0 1 11.050900 5.027230 727.852173
567 0 1 11.177050 4.905220 726.904419
568 0 1 10.935090 4.710220 725.974426
569 0 1 10.905560 4.782170 725.064514
570 0 1 11.055030 4.813000 724.081177
571 0 1 11.215140 4.404150 723.223511
572 0 1 11.523581 4.015810 722.364624
573 0 1 11.724820 3.412430 721.649780
574 0 1 12.070430 2.785330 720.967529
575 0 1 11.877420 2.504350 719.983582
576 0 1 11.586270 2.480280 719.073914
577 0 1 11.302320 2.504440 718.080322
578 0 1 11.256599 2.901200 717.223267
579 0 1 10.997910 3.401130 716.395508
580 0 1 10.938129 4.095260 715.721802
581 0 1 11.234660 4.728320 715.056519
582 0 1 11.039160 5.330530 714.348267
583 0 1 10.837490 6.103220 713.708679
584 0 1 10.559590 6.864950 713.207275
585 0 1 10.119860 7.345879 712.476990
586 0 1 9.576740 7.712869 711.764587
587 0 1 8.768934 8.150304 711.253113
588 0 1 8.434078 8.870104 710.756897
589 0 1 7.904483 9.516340 710.323486
590 0 1 7.112472 9.525870 709.757019
591 0 1 6.533740 9.507020 708.944275
592 0 1 6.076780 9.265280 708.144226
593 0 1 5.862480 8.893118 707.299988
594 0 1 5.688560 8.704039 706.409424
595 0 1 5.308270 8.641209 705.545410
596 0 1 5.139000 8.487479 704.582825
597 0 1 4.958760 8.240152 703.632202
598 0 1 4.808620 8.009328 702.682312
599 0 1 4.609180 7.663577 701.786682
600 0 1 4.728180 7.185610 701.016602
601 0 1 4.575760 6.586920 700.322876
602 0 1 4.399150 5.989230 699.573303
603 0 1 4.144230 5.636140 698.699097
604 0 1 4.178050 5.251790 697.810608
605 0 1 3.869310 4.742270 697.022522
606 0 1 3.223920 4.416860 696.327271
607 0 1 2.746550 4.448580 695.489014
608 0 1 2.824890 4.447020 694.471802
609 0 1 2.965590 4.488680 693.518494
610 0 1 2.985250 4.452570 692.571899
611 0 1 3.173520 4.272320 691.665527
612 0 1 3.327150 4.087140 690.731506
613 0 1 3.786060 4.139510 689.911926
614 0 1 4.176400 4.316380 689.041382
615 0 1 4.596770 4.565860 688.134277
616 0 1 4.936780 4.818860 687.270874
617 0 1 5.541640 5.216590 686.640991
618 0 1 5.866760 5.670460 685.854675
619 0 1 6.071820 5.972330 684.932983
620 0 1 6.287140 6.243200 684.030518
621 0 1 6.480650 6.307900 683.056580
622 0 1 6.409780 6.092050 682.096619
623 0 1 6.226170 5.764320 681.202515
624 0 1 5.861940 5.421790 680.426819
625 0 1 5.340740 5.140840 679.661987
626 0 1 4.751020 5.087280 678.884399
627 0 1 4.388880 5.004750 677.955017
628 0 1 4.399350 5.227240 676.899292
629 0 1 4.024720 5.472280 676.093079
630 0 1 3.865480 5.667550 675.139587
631 0 1 3.663780 6.047510 674.345581
632 0 1 3.534220 6.548480 673.563477
633 0 1 3.235620 7.262629 672.973022
634 0 1 3.080070 7.841857 672.208191
635 0 1 3.038560 8.531398 671.478394
636 0 1 3.313100 8.926226 670.673706
637 0 1 3.688550 8.973286 669.821594
638 0 1 4.110940 8.765763 668.980774
639 0 1 4.541530 8.399113 668.133423
640 0 1 4.878150 8.329928 667.190308
641 0 1 5.272040 8.259425 666.298401
642 0 1 5.348000 8.146791 665.267700
643 0 1 5.572260 8.241031 664.356018
644 0 1 5.696210 8.580236 663.481689
645 0 1 5.674900 8.634494 662.532288
646 0 1 5.608290 8.671399 661.534485
647 0 1 5.760260 8.525458 660.543396
648 0 1 6.111200 8.607294 659.585571
649 0 1 6.488180 8.285839 658.746277
650 0 1 6.524800 7.985308 657.830994
651 0 1 6.628670 7.711303 656.898010
652 0 1 6.653410 7.650286 655.960083
653 0 1 6.897900 7.597360 655.034180
654 0 1 7.207628 7.902396 654.195190
655 0 1 7.577810 7.708355 653.380310
656 0 1 8.072435 7.319389 652.684082
657 0 1 8.387972 6.872640 651.905701
658 0 1 8.723368 6.551480 651.143188
659 0 1 9.088170 6.196780 650.348328
660 0 1 9.311980 5.906640 649.476990
661 0 1 9.420130 5.845300 648.503784
662 0 1 9.752260 6.139530 647.664429
663 0 1 9.866410 6.238760 646.704529
664 0 1 9.873860 6.397680 645.710388
665 0 1 9.591010 6.466320 644.823914
666 0 1 9.453279 6.053340 643.884277
667 0 1 9.181030 5.840960 642.955872
668 0 1 9.171540 5.648330 642.063293
669 0 1 9.174430 5.405540 641.119629
670 0 1 9.115191 5.357780 640.160889
671 0 1 8.983959 5.308450 639.203186
672 0 1 8.767430 4.781460 638.395081
673 0 1 8.902081 4.187400 637.592468
674 0 1 9.159050 3.912340 636.654480
675 0 1 9.011310 3.766340 635.704956
676 0 1 8.515149 3.713250 634.922546
677 0 1 8.082587 3.682740 634.067017
678 0 1 7.805050 3.633970 633.175537
679 0 1 7.572505 3.944190 632.266541
680 0 1 7.175385 4.483530 631.530701
681 0 1 6.912590 5.091920 630.816223
682 0 1 6.262080 5.365420 630.109802
683 0 1 5.514380 5.593740 629.591797
684 0 1 4.959680 5.944270 628.870056
685 0 1 4.733870 6.355020 628.060242
686 0 1 4.586480 6.706250 627.086609
687 0 1 4.474220 7.326769 626.401306
688 0 1 4.475560 7.982914 625.680969
689 0 1 4.132250 8.200632 624.853149
690 0 1 3.727210 8.615006 624.007263
691 0 1 3.438930 8.932177 623.120117
692 0 1 3.330420 9.459890 622.268127
693 0 1 3.491400 9.707030 621.338013
694 0 1 3.824650 9.893610 620.477600
695 0 1 4.156410 10.219840 619.593811
696 0 1 4.463060 10.392810 618.708069
697 0 1 4.794680 10.321480 617.780884
698 0 1 5.489860 10.360519 617.050720
699 0 1 5.968650 10.522551 616.294373
700 0 1 6.076100 10.729560 615.367798
701 0 1 6.132620 11.045370 614.484802
702 0 1 6.225620 11.179910 613.543884
703 0 1 5.907880 11.460510 612.671509
704 0 1 5.575820 11.583690 611.767517
705 0 1 5.408660 12.023130 610.915771
706 0 1 5.405780 12.329070 610.014282
707 0 1 5.335870 12.486430 609.069092
708 0 1 5.385330 12.712140 608.186523
709 0 1 5.365370 12.690331 607.199585
710 0 1 5.217850 12.605050 606.251282
711 0 1 5.361330 12.431931 605.306519
712 0 1 5.392840 12.119420 604.408203
713 0 1 5.263280 11.854530 603.565125
714 0 1 5.197780 11.939880 602.587769
715 0 1 5.375100 11.982570 601.649475
716 0 1 5.468930 12.043390 600.598511
717 0 1 5.378060 11.894570 599.622986
718 0 1 5.594170 11.402570 598.857422
719 0 1 5.689760 10.762030 598.178772
720 0 1 5.639440 10.199141 597.391479
721 0 1 5.709810 9.757170 596.596191
722 0 1 5.814710 9.399330 595.692993
723 0 1 5.915990 9.200980 594.770813
724 0 1 6.363830 9.011140 593.985229
725 0 1 6.859410 8.712647 593.171692
726 0 1 7.385372 8.205745 592.597595
727 0 1 8.055035 7.689919 592.121704
728 0 1 8.732441 7.340054 591.521179
729 0 1 9.338110 7.086307 590.769592
730 0 1 9.883610 6.974130 590.034607
731 0 1 10.508390 6.860120 589.344299
732 0 1 11.097050 6.987860 588.592712
733 0 1 11.419740 7.260358 587.712524
734 0 1 11.783500 7.413331 586.839905
735 0 1 12.227680 7.638853 586.030212
736 0 1 12.524179 7.568099 585.139404
737 0 1 12.823800 7.491458 584.250732
738 0 1 13.074640 7.299078 583.341980
739 0 1 13.076010 6.974230 582.471069
740 0 1 12.754200 6.558110 581.673828
741 0 1 12.228780 6.426020 580.884094
742 0 1 11.754710 6.327700 580.082031
743 0 1 11.364830 6.206470 579.218079
744 0 1 10.768311 6.000190 578.428772
745 0 1 10.373420 5.764510 577.551086
746 0 1 10.353340 5.767020 576.591980
747 0 1 10.208830 5.735440 575.679626
748 0 1 10.099930 5.668300 574.714294
749 0 1 10.130870 5.555520 573.815979
750 0 1 10.378930 5.198850 572.982178
751 0 1 10.693920 4.852210 572.145203
752 0 1 11.031350 4.776010 571.258972
753 0 1 11.419621 4.791780 570.406006
754 0 1 11.855970 4.673500 569.506409
755 0 1 12.194630 4.621620 568.611084
756 0 1 12.445670 4.893500 567.736328
757 0 1 12.311279 5.062570 566.755676
758 0 1 12.233780 5.198690 565.823975
759 0 1 11.892710 5.024110 564.947510
760 0 1 11.830540 4.474370 564.137512
761 0 1 11.861680 3.930900 563.288208
762 0 1 11.513070 3.422540 562.542480
763 0 1 11.165670 2.973530 561.762207
764 0 1 10.652240 2.537790 561.025024
765 0 1 10.095930 2.340780 560.266113
766 0 1 9.688169 2.374420 559.382385
767 0 1 9.143850 2.340970 558.554626
768 0 1 8.499734 2.421090 557.880981
769 0 1 7.868413 2.357630 557.110229
770 0 1 7.466073 2.443930 556.261108
771 0 1 7.156436 2.724130 555.389893
772 0 1 7.166347 2.948490 554.461975
773 0 1 7.008500 3.547810 553.689697
774 0 1 6.832210 3.938990 552.844727
775 0 1 6.551020 4.223310 551.960999
776 0 1 6.468450 4.481470 551.074524
777 0 1 6.515560 5.020340 550.330566
778 0 1 6.367080 5.608060 549.539429
779 0 1 5.837700 6.299510 548.953125
780 0 1 5.277500 6.846320 548.352417
781 0 1 4.952930 7.520068 547.821289
782 0 1 4.909430 8.302888 547.232178
783 0 1 4.674460 8.890506 546.421082
784 0 1 4.458110 9.000110 545.495117
785 0 1 3.993890 8.873758 544.562012
786 0 1 3.467990 8.859203 543.829468
787 0 1 3.230840 8.493216 542.921814
788 0 1 3.092420 8.211343 541.980591
789 0 1 2.830250 8.045711 541.076416
790 0 1 2.694220 7.971591 540.140869
791 0 1 2.477800 7.734623 539.235107
792 0 1 2.211100 7.255717 538.427795
793 0 1 2.049260 7.021678 537.455383
794 0 1 2.008650 6.853430 536.511780