LAMMPS data file via MDAnalysis

        1000  atoms
        1000  bonds
        1000  angles
           0  dihedrals
           0  impropers

           1  atom types
           1  bond types
           1  angle types
           0  dihedral types
           0  improper types

0.000000 16.000000 xlo xhi
0.000000 16.000000 ylo yhi
0.000000 1257.000000 zlo zhi


Masses

1 1.000000

Atoms

1 0 1 4.147740 11.302401 453.885010
2 0 1 4.036300 11.635830 454.773010
3 0 1 4.027340 11.980450 455.731018
4 0 1 3.723960 12.028530 456.636993
5 0 1 3.384360 11.696180 457.511993
6 0 1 3.016030 11.502620 458.371002
7 0 1 2.877100 11.377831 459.298004
8 0 1 2.837800 11.203800 460.343018
9 0 1 2.919890 11.147660 461.315979
10 0 1 3.175970 11.046061 462.195984
11 0 1 3.565730 10.766690 463.015991
12 0 1 3.796860 10.573160 463.901978
13 0 1 4.024770 10.424310 464.812012
14 0 1 4.196830 10.598810 465.737000
15 0 1 4.423150 10.510790 466.679993
16 0 1 4.587030 10.018290 467.445007
17 0 1 4.674090 9.678490 468.286011
18 0 1 5.035820 9.235390 469.075012
19 0 1 5.350720 9.046800 469.936005
20 0 1 5.878330 8.577391 470.705017
21 0 1 6.339040 8.143154 471.523987
22 0 1 6.634940 7.741308 472.360992
23 0 1 6.730370 7.304042 473.192993
24 0 1 6.601060 6.807340 474.102997
25 0 1 6.488540 6.394210 474.901978
26 0 1 6.412240 6.031750 475.755981
27 0 1 6.327780 5.628470 476.671997
28 0 1 6.293070 5.095710 477.466003
29 0 1 6.280670 4.442190 478.102997
30 0 1 6.381580 3.852770 478.863007
31 0 1 6.519560 3.486940 479.742004
32 0 1 6.673640 3.036900 480.539001
33 0 1 7.021944 2.857080 481.494019
34 0 1 7.192871 2.899970 482.552002
35 0 1 7.555259 3.044950 483.447021
36 0 1 8.070770 3.102440 484.210999
37 0 1 8.716577 3.274400 484.916992
38 0 1 9.010130 3.651320 485.750000
39 0 1 9.503510 3.974510 486.453003
40 0 1 9.607680 4.241760 487.388000
41 0 1 9.775949 4.501260 488.317017
42 0 1 9.971630 4.526550 489.242004
43 0 1 10.098470 4.339910 490.174988
44 0 1 10.343660 4.005720 491.024994
45 0 1 10.596680 3.845230 491.937012
46 0 1 10.846479 3.560030 492.794006
47 0 1 11.083590 3.194370 493.703979
48 0 1 11.014900 3.063680 494.669983
49 0 1 10.929630 3.367970 495.635986
50 0 1 10.586050 3.812320 496.403015
51 0 1 10.258990 4.308640 497.203003
52 0 1 9.933630 4.789690 497.950989
53 0 1 9.705450 5.418470 498.602997
54 0 1 9.522590 5.990830 499.369019
55 0 1 9.555080 6.219060 500.384003
56 0 1 9.497390 6.483450 501.316010
57 0 1 9.559790 6.637120 502.302002
58 0 1 9.448030 6.756440 503.316010
59 0 1 9.604540 6.854460 504.252991
60 0 1 10.027270 6.860560 505.154999
61 0 1 10.315020 6.788660 506.063995
62 0 1 10.545890 6.708190 506.987000
63 0 1 10.913760 6.794150 507.860992
64 0 1 11.365129 6.799820 508.783997
65 0 1 11.693230 6.837670 509.735992
66 0 1 11.937660 7.095783 510.677002
67 0 1 11.818830 7.168871 511.601013
68 0 1 11.777690 7.271298 512.549988
69 0 1 11.762680 7.326559 513.539978
70 0 1 11.545950 7.561079 514.406982
71 0 1 11.349051 8.114298 515.160034
72 0 1 11.197940 8.485590 516.021973
73 0 1 11.119030 8.691694 516.924988
74 0 1 11.126270 9.042850 517.817017
75 0 1 11.430560 9.617040 518.565979
76 0 1 11.581890 10.250930 519.302979
77 0 1 11.761850 10.797680 520.117981
78 0 1 11.854070 11.177470 521.018005
79 0 1 11.849370 11.659150 521.809021
80 0 1 11.466810 12.049080 522.570007
81 0 1 11.521280 12.361839 523.421021
82 0 1 11.547410 12.308781 524.393982
83 0 1 11.544500 12.268530 525.348999
84 0 1 11.665020 12.184130 526.260010
85 0 1 12.015360 12.056530 527.112000
86 0 1 12.333361 11.990900 528.000977
87 0 1 12.268829 12.017190 528.967224
88 0 1 12.168800 11.780350 529.924927
89 0 1 12.183400 11.523240 530.867188
90 0 1 12.426010 11.167180 531.729309
91 0 1 12.793000 10.791620 532.525513
92 0 1 13.034580 10.407890 533.343994
93 0 1 13.345520 10.161090 534.246704
94 0 1 13.427811 10.150140 535.221680
95 0 1 13.063820 10.310140 536.065674
96 0 1 12.535250 10.090830 536.847778
97 0 1 11.997980 9.825120 537.650208
98 0 1 11.619490 9.848250 538.518494
99 0 1 11.082890 9.922940 539.280396
100 0 1 10.840200 10.112130 540.139282
101 0 1 10.315060 10.456530 540.893433
102 0 1 9.636310 10.846300 541.512573
103 0 1 8.950833 11.345650 542.198975
104 0 1 8.343119 11.600230 542.841125
105 0 1 7.614577 11.705009 543.475220
106 0 1 6.964870 11.853621 544.162109
107 0 1 6.250020 11.913610 544.783508
108 0 1 5.678940 11.849610 545.588806
109 0 1 5.196380 11.693200 546.348511
110 0 1 4.730840 11.541280 547.139404
111 0 1 4.647330 11.173300 548.009277
112 0 1 4.663100 10.550100 548.730286
113 0 1 4.911610 9.867080 549.315491
114 0 1 5.285210 9.373230 550.088867
115 0 1 5.498260 8.872191 550.913391
116 0 1 5.856800 8.472031 551.718872
117 0 1 6.184060 7.978022 552.528198
118 0 1 6.594080 7.751994 553.382874
119 0 1 6.951160 7.778522 554.276306
120 0 1 7.322985 7.851360 555.236877
121 0 1 7.573537 7.902891 556.193909
122 0 1 7.920040 8.207081 557.078308
123 0 1 8.126077 8.549026 558.014709
124 0 1 8.200595 9.114810 558.745117
125 0 1 8.413569 9.774350 559.394104
126 0 1 8.729677 10.310120 560.139526
127 0 1 8.904540 10.897150 560.905212
128 0 1 9.045080 11.378850 561.702515
129 0 1 9.157540 11.788950 562.593201
130 0 1 9.242180 12.255770 563.408569
131 0 1 9.131580 12.555420 564.303711
132 0 1 9.139140 12.643721 565.261902
133 0 1 9.088560 12.765980 566.141418
134 0 1 8.584460 12.905190 566.982422
135 0 1 8.364760 12.981350 567.875610
136 0 1 8.375264 12.932430 568.846313
137 0 1 8.592205 12.805420 569.779419
138 0 1 9.058680 12.916630 570.706421
139 0 1 9.332450 12.727420 571.549072
140 0 1 9.492780 12.475780 572.445984
141 0 1 9.657750 12.476760 573.381104
142 0 1 9.573280 12.605440 574.289917
143 0 1 9.223410 12.477859 575.139709
144 0 1 9.031850 12.257230 576.087891
145 0 1 8.769973 12.228439 577.079712
146 0 1 8.837727 12.250170 578.113403
147 0 1 8.695283 12.005960 579.057800
148 0 1 8.403020 11.756230 579.859009
149 0 1 8.268982 11.722610 580.850586
150 0 1 8.031247 11.715800 581.798279
151 0 1 8.026711 11.719290 582.734375
152 0 1 8.192516 11.576430 583.633301
153 0 1 8.648374 11.191620 584.472107
154 0 1 9.088820 10.658330 585.125305
155 0 1 9.357770 10.093710 585.823608
156 0 1 9.895610 9.779260 586.611816
157 0 1 10.136720 9.251300 587.321411
158 0 1 10.771111 9.043530 588.028015
159 0 1 11.520630 8.959918 588.708191
160 0 1 12.230400 9.105740 589.283020
161 0 1 13.004021 9.056640 589.866882
162 0 1 13.729509 9.369940 590.411377
163 0 1 14.029631 9.193680 591.280090
164 0 1 14.109090 9.003300 592.237671
165 0 1 14.166520 8.750768 593.151306
166 0 1 14.254280 8.751135 594.141724
167 0 1 14.515360 8.700045 595.075317
168 0 1 14.611481 8.650773 595.981812
169 0 1 14.290080 8.800876 596.951294
170 0 1 14.012730 9.022960 597.854492
171 0 1 13.660120 8.986210 598.867615
172 0 1 13.288960 9.174740 599.786011
173 0 1 13.043210 9.479670 600.638000
174 0 1 13.055130 9.670050 601.570618
175 0 1 12.956320 9.772740 602.536987
176 0 1 12.866220 9.681300 603.471313
177 0 1 12.793510 9.562100 604.411987
178 0 1 12.775970 9.421659 605.389526
179 0 1 12.668470 9.322800 606.337219
180 0 1 12.528500 9.053960 607.253479
181 0 1 12.483789 8.846970 608.179199
182 0 1 12.200740 8.891756 609.106201
183 0 1 11.782240 9.083570 609.955017
184 0 1 11.549170 9.269730 610.921875
185 0 1 11.319720 9.184910 611.821106
186 0 1 11.331280 9.008170 612.748230
187 0 1 11.545630 8.826683 613.718689
188 0 1 11.717600 8.924426 614.678772
189 0 1 11.776979 8.599824 615.585388
190 0 1 11.937770 8.192654 616.436890
191 0 1 11.715090 8.164480 617.373230
192 0 1 11.261980 8.318740 618.248901
193 0 1 10.662580 8.265628 619.012451
194 0 1 9.986230 7.909287 619.618774
195 0 1 9.200570 7.515178 620.084534
196 0 1 8.400011 7.384667 620.687439
197 0 1 7.508094 7.588608 621.043945
198 0 1 6.671870 7.908615 621.314514
199 0 1 5.887680 7.967341 621.884827
200 0 1 5.251310 8.172899 622.576904
201 0 1 4.687270 8.121004 623.328003
202 0 1 4.134690 8.091262 624.090515
203 0 1 3.563010 7.997101 624.839111
204 0 1 3.129580 8.123612 625.737915
205 0 1 2.626600 8.431247 626.456604
206 0 1 2.609490 8.594593 627.473938
207 0 1 2.851820 8.401624 628.380066
208 0 1 3.273360 8.147700 629.201233
209 0 1 3.405090 7.944815 630.135559
210 0 1 3.360900 7.515826 630.989868
211 0 1 3.483940 6.972270 631.717651
212 0 1 3.963730 6.633160 632.485962
213 0 1 4.259450 6.101520 633.287476
214 0 1 4.390960 5.560730 634.055359
215 0 1 4.404270 4.924870 634.829834
216 0 1 4.558850 4.330260 635.617615
217 0 1 4.855580 3.769140 636.284363
218 0 1 5.224560 3.342960 637.064819
219 0 1 5.447740 2.966180 637.935913
220 0 1 5.865220 2.470900 638.687927
221 0 1 6.075370 2.233020 639.621582
222 0 1 5.901970 2.178570 640.583618
223 0 1 5.880850 2.461830 641.566284
224 0 1 5.824790 3.019480 642.391174
225 0 1 5.716300 3.708420 643.109375
226 0 1 5.776320 4.329070 643.892883
227 0 1 5.798790 4.785740 644.719299
228 0 1 5.859760 5.304790 645.515686
229 0 1 6.163390 5.458130 646.372009
230 0 1 6.571260 5.623880 647.207275
231 0 1 6.893870 5.820110 648.080505
232 0 1 6.968670 5.949430 649.026794
233 0 1 7.070784 6.047250 650.057129
234 0 1 7.335522 5.944000 650.975403
235 0 1 7.397992 5.850060 652.014587
236 0 1 7.341277 5.583380 652.942200
237 0 1 7.385304 5.326040 653.849731
238 0 1 7.357939 5.312290 654.816711
239 0 1 7.293470 5.225960 655.761780
240 0 1 7.537329 5.276380 656.631775
241 0 1 7.672169 5.140720 657.557373
242 0 1 7.542040 5.172110 658.524170
243 0 1 7.472340 5.117120 659.479797
244 0 1 7.743465 5.085400 660.379883
245 0 1 7.998706 5.324830 661.231628
246 0 1 8.248308 5.505820 662.199219
247 0 1 8.169400 5.542310 663.163696
248 0 1 7.839501 5.649880 664.077393
249 0 1 7.499204 5.477690 664.937195
250 0 1 7.218021 5.144550 665.874817
251 0 1 6.919140 5.016960 666.744812
252 0 1 6.660280 4.844680 667.669373
253 0 1 6.590810 4.954820 668.600403
254 0 1 6.903460 4.860120 669.561279
255 0 1 7.295362 4.921880 670.417725
256 0 1 7.558972 4.713660 671.296631
257 0 1 8.060350 4.385580 672.107727
258 0 1 8.623950 4.130190 672.801880
259 0 1 9.311131 4.106300 673.485779
260 0 1 10.015320 4.278080 674.109314
261 0 1 10.780510 4.390170 674.835571
262 0 1 11.207109 4.708610 675.655823
263 0 1 11.589460 4.910470 676.542175
264 0 1 11.700790 5.313710 677.434387
265 0 1 11.719370 5.928240 678.236206
266 0 1 11.766920 6.561090 678.899475
267 0 1 11.825340 7.337805 679.590515
268 0 1 11.654020 7.970225 680.313721
269 0 1 11.529779 8.797005 680.850830
270 0 1 11.298270 9.469610 681.450317
271 0 1 11.144680 10.065580 682.260681
272 0 1 10.865150 10.542191 683.060120
273 0 1 10.529150 10.800340 683.947205
274 0 1 10.151880 10.853580 684.811584
275 0 1 9.887640 10.989820 685.802612
276 0 1 9.727750 10.897360 686.716125
277 0 1 9.597080 11.156321 687.585815
278 0 1 9.363720 11.509069 688.466919
279 0 1 9.341710 11.607670 689.414490
280 0 1 9.181700 11.995840 690.259216
281 0 1 8.903912 12.193520 691.177002
282 0 1 8.581877 12.438390 692.113098
283 0 1 8.014545 12.614260 692.960815
284 0 1 7.581805 12.797190 693.809998
285 0 1 6.993700 13.065310 694.514282
286 0 1 6.592210 13.265800 695.378784
287 0 1 6.308300 13.093420 696.226318
288 0 1 5.969670 12.967660 697.130981
289 0 1 5.776050 12.723490 698.120605
290 0 1 5.622820 12.369579 698.980225
291 0 1 5.170780 12.164761 699.770203
292 0 1 4.615210 11.851260 700.486511
293 0 1 4.304480 11.553640 701.361023
294 0 1 4.086450 11.121469 702.130371
295 0 1 4.152330 10.797660 703.080017
296 0 1 4.139410 10.589890 704.010925
297 0 1 4.358530 10.532810 705.041077
298 0 1 4.670800 10.646210 705.929932
299 0 1 4.957030 10.814330 706.792725
300 0 1 5.027610 11.164410 707.664917
301 0 1 5.018140 11.720410 708.535767
302 0 1 5.071970 11.759550 709.456116
303 0 1 5.030090 11.750840 710.423279
304 0 1 4.925250 11.770570 711.399292
305 0 1 4.991790 11.573730 712.373901
306 0 1 5.033770 11.093220 713.258911
307 0 1 5.259170 10.406460 713.865723
308 0 1 5.325070 9.712749 714.529785
309 0 1 5.471540 8.995378 715.126526
310 0 1 5.718720 8.540939 715.917419
311 0 1 5.872950 8.172055 716.809021
312 0 1 6.482400 7.882203 717.534790
313 0 1 7.078820 7.736772 718.229675
314 0 1 7.869198 7.543580 718.905884
315 0 1 8.156380 7.917799 719.712708
316 0 1 8.509935 8.303798 720.521790
317 0 1 8.714304 8.718517 721.394531
318 0 1 9.037800 9.079880 722.188110
319 0 1 9.348220 9.391320 723.077209
320 0 1 9.611670 9.656270 723.987976
321 0 1 10.039940 10.139990 724.707703
322 0 1 10.392390 10.527460 725.564697
323 0 1 10.883810 10.650750 726.295166
324 0 1 11.413750 10.772560 727.131714
325 0 1 11.859180 10.891940 727.960571
326 0 1 12.293301 11.163770 728.742004
327 0 1 12.465900 11.413390 729.734985
328 0 1 12.620020 11.349450 730.609009
329 0 1 12.396830 11.203990 731.547974
330 0 1 11.945980 11.053620 732.370972
331 0 1 11.347680 10.932660 733.177002
332 0 1 10.706160 10.768200 733.809998
333 0 1 10.034410 10.518070 734.460999
334 0 1 9.403290 10.211150 735.190979
335 0 1 8.890609 9.945539 735.955017
336 0 1 8.258874 9.737820 736.653015
337 0 1 7.705876 9.502030 737.375000
338 0 1 7.016753 9.280650 738.036987
339 0 1 6.310390 9.149290 738.676025
340 0 1 5.565530 8.929196 739.304993
341 0 1 4.925810 8.552038 740.033997
342 0 1 4.402830 8.173223 740.799011
343 0 1 4.004410 7.824948 741.620972
344 0 1 3.627660 7.306834 742.385010
345 0 1 3.394760 7.305533 743.338013
346 0 1 3.229700 7.147535 744.226990
347 0 1 3.109040 7.183042 745.218018
348 0 1 2.869940 7.356154 746.109009
349 0 1 2.633360 7.501694 746.992981
350 0 1 2.354460 7.658537 747.964966
351 0 1 2.259440 7.849647 748.922974
352 0 1 2.161710 7.859784 749.862000
353 0 1 2.770530 8.012611 750.542969
354 0 1 3.366670 8.000306 751.369019
355 0 1 3.937210 8.201505 752.082031
356 0 1 4.446200 8.463118 752.877014
357 0 1 5.083960 8.648358 753.606995
358 0 1 5.345790 8.908050 754.450012
359 0 1 5.575860 9.127640 755.400024
360 0 1 6.178100 9.193750 756.160034
361 0 1 6.403390 9.676420 757.041016
362 0 1 6.594870 10.110620 757.872009
363 0 1 6.687300 10.450220 758.718994
364 0 1 6.654210 10.935659 759.599976
365 0 1 6.318540 11.450790 760.452026
366 0 1 6.275200 11.788180 761.389038
367 0 1 6.195520 12.266251 762.226990
368 0 1 5.912700 12.853730 763.041992
369 0 1 5.621380 13.265130 763.869995
370 0 1 5.524300 13.305600 764.854004
371 0 1 5.433960 13.315300 765.789978
372 0 1 5.358260 13.508230 766.766968
373 0 1 5.391230 13.478439 767.726013
374 0 1 5.297330 13.154050 768.641968
375 0 1 5.167570 12.862220 769.588989
376 0 1 5.158240 12.478991 770.473022
377 0 1 5.298810 12.158239 771.434998
378 0 1 5.438150 12.052259 772.393005
379 0 1 5.861760 11.837290 773.338013
380 0 1 6.037030 11.779110 774.289001
381 0 1 6.060100 11.746230 775.237000
382 0 1 5.936930 11.881240 776.162964
383 0 1 5.922200 12.068069 777.091003
384 0 1 6.265230 12.355110 777.942017
385 0 1 6.812000 12.480710 778.674011
386 0 1 7.517688 12.671890 779.332031
387 0 1 7.907557 13.099239 780.056030
388 0 1 8.013912 13.577990 780.911011
389 0 1 8.089836 13.866350 781.763000
390 0 1 8.599541 13.799870 782.554016
391 0 1 8.959354 13.395540 783.341003
392 0 1 9.069960 12.824380 784.096008
393 0 1 8.903154 12.364960 784.870972
394 0 1 8.971895 11.953760 785.674988
395 0 1 9.464810 11.529650 786.422974
396 0 1 9.857850 11.007330 787.181030
397 0 1 10.097720 10.521811 787.976990
398 0 1 10.158360 10.234270 788.869019
399 0 1 10.141439 10.012380 789.783020
400 0 1 10.175340 9.718520 790.698975
401 0 1 10.219290 9.450210 791.641968
402 0 1 10.431810 9.216311 792.549011
403 0 1 10.631480 8.676321 793.339966
404 0 1 10.675390 8.333440 794.281006
405 0 1 10.651390 7.869779 795.059998
406 0 1 10.696580 7.561666 795.911011
407 0 1 10.802361 6.828070 796.474976
408 0 1 10.764060 6.146370 797.119995
409 0 1 11.025351 5.409110 797.766968
410 0 1 11.380710 4.927780 798.567993
411 0 1 11.893400 4.922980 799.414001
412 0 1 12.325600 5.190570 800.239990
413 0 1 12.425920 5.631420 801.073975
414 0 1 12.534480 5.825310 802.037964
415 0 1 12.867880 5.938350 802.978027
416 0 1 13.290670 5.963380 803.835022
417 0 1 13.756330 5.903370 804.705017
418 0 1 14.062890 5.997010 805.578979
419 0 1 14.182529 5.942450 806.518982
420 0 1 13.993290 6.172530 807.452026
421 0 1 13.756830 6.576150 808.285034
422 0 1 13.488091 6.653540 809.198975
423 0 1 13.242661 6.585690 810.143982
424 0 1 12.823280 6.458590 810.976013
425 0 1 12.696630 6.363530 811.919983
426 0 1 12.411119 5.964160 812.789001
427 0 1 11.975500 5.740120 813.690002
428 0 1 11.978110 5.655220 814.646973
429 0 1 12.326981 5.953560 815.445007
430 0 1 12.740370 6.226260 816.271973
431 0 1 12.641700 6.418560 817.221008
432 0 1 12.665600 6.395640 818.172974
433 0 1 12.526630 6.508760 819.109985
434 0 1 12.210120 6.381820 819.994019
435 0 1 11.808320 6.057390 820.802002
436 0 1 11.375850 5.580580 821.614990
437 0 1 11.028340 5.146360 822.346008
438 0 1 10.499690 4.873920 823.068970
439 0 1 9.952070 4.721290 823.882996
440 0 1 9.349140 4.706970 824.615967
441 0 1 9.011900 4.685710 825.488037
442 0 1 8.741302 4.661620 826.398987
443 0 1 8.852985 4.959880 827.325989
444 0 1 8.650763 5.258320 828.190002
445 0 1 8.680396 5.457500 829.179993
446 0 1 8.485182 5.557980 830.085999
447 0 1 8.297107 5.827340 830.976013
448 0 1 8.272525 6.161410 831.854980
449 0 1 7.842372 6.520430 832.593018
450 0 1 7.287603 7.131288 833.096985
451 0 1 6.614810 7.857944 833.315979
452 0 1 6.043430 8.639228 833.335999
453 0 1 5.441740 9.391240 833.122986
454 0 1 4.828710 10.046900 832.815002
455 0 1 4.258840 10.709930 832.398010
456 0 1 3.825510 11.356760 831.802002
457 0 1 3.498570 11.965120 831.049988
458 0 1 3.176430 12.473200 830.287964
459 0 1 3.110310 12.776620 829.367981
460 0 1 3.426230 13.201910 828.580017
461 0 1 4.013680 13.487610 827.963989
462 0 1 4.682630 13.713530 827.312012
463 0 1 5.426400 13.751841 826.658020
464 0 1 6.157900 13.516800 826.077026
465 0 1 7.020850 13.219339 825.661011
466 0 1 7.699294 12.849020 825.080994
467 0 1 8.081799 12.367599 824.389038
468 0 1 8.287983 11.850310 823.622009
469 0 1 8.133948 11.612860 822.755005
470 0 1 7.889365 11.489630 821.765015
471 0 1 7.619661 11.600040 820.825012
472 0 1 7.057091 11.520140 820.013000
473 0 1 6.836310 11.826700 819.117004
474 0 1 6.467130 12.256240 818.226013
475 0 1 6.271480 12.677629 817.400024
476 0 1 5.857520 12.827061 816.536987
477 0 1 5.523650 12.698200 815.639038
478 0 1 5.111720 12.641420 814.681030
479 0 1 4.641340 12.295950 813.927002
480 0 1 4.263140 12.058041 813.057007
481 0 1 4.204860 11.767010 812.140991
482 0 1 4.226840 11.177959 811.354004
483 0 1 4.412800 10.691860 810.559998
484 0 1 4.755460 10.137280 809.839966
485 0 1 5.260440 9.646370 809.120972
486 0 1 5.686120 9.124500 808.447998
487 0 1 6.090190 8.475173 807.869019
488 0 1 6.546880 7.861361 807.212036
489 0 1 6.655440 7.263017 806.417969
490 0 1 6.542490 6.730970 805.635010
491 0 1 6.474050 5.978080 805.010010
492 0 1 6.515790 5.373090 804.264038
493 0 1 6.333070 4.751800 803.583984
494 0 1 6.374320 4.168070 802.705994
495 0 1 6.488610 3.913880 801.786987
496 0 1 6.512670 3.644980 800.882019
497 0 1 6.653220 3.655970 799.960022
498 0 1 6.658210 3.569150 798.895020
499 0 1 6.872630 3.913100 798.002991
500 0 1 6.753910 4.139010 797.056030
501 0 1 6.522250 4.456320 796.138000
502 0 1 6.073910 4.957270 795.416016
503 0 1 5.415310 5.400850 794.971008
504 0 1 4.603060 5.718730 794.594971
505 0 1 3.942570 6.078420 793.948975
506 0 1 3.375330 6.279430 793.156006
507 0 1 2.997930 6.577580 792.275024
508 0 1 2.884410 6.946880 791.450012
509 0 1 2.685610 7.041775 790.526001
510 0 1 2.478290 7.171948 789.648987
511 0 1 2.578340 7.315356 788.667969
512 0 1 2.696620 7.153113 787.742004
513 0 1 2.830350 6.895300 786.817017
514 0 1 2.973710 6.875170 785.820984
515 0 1 3.264360 6.687070 784.917969
516 0 1 3.544320 6.418610 784.009033
517 0 1 3.704820 6.444190 783.056030
518 0 1 3.972070 6.501920 782.146973
519 0 1 3.887690 6.533680 781.202026
520 0 1 3.584210 6.474040 780.322021
521 0 1 3.407960 6.171530 779.338013
522 0 1 3.370370 5.877800 778.393005
523 0 1 3.347780 5.804800 777.437012
524 0 1 3.136270 5.704470 776.507019
525 0 1 3.328620 5.559260 775.513000
526 0 1 3.610020 5.563020 774.599976
527 0 1 3.651490 5.752520 773.707031
528 0 1 3.872850 5.838100 772.750977
529 0 1 4.137490 5.789430 771.856018
530 0 1 4.453000 5.620520 770.927979
531 0 1 4.997960 5.538620 770.150024
532 0 1 5.415950 5.580910 769.281982
533 0 1 5.851910 5.591980 768.450012
534 0 1 6.426030 5.649350 767.648010
535 0 1 6.957600 5.728400 766.929993
536 0 1 7.690004 5.971760 766.257996
537 0 1 8.521679 6.462940 765.921997
538 0 1 9.141740 6.766790 765.354004
539 0 1 9.865630 6.892380 764.771973
540 0 1 10.443710 6.756150 764.025024
541 0 1 11.198500 6.982560 763.507996
542 0 1 11.732640 7.261712 762.786987
543 0 1 11.862550 8.051587 762.124023
544 0 1 11.821840 8.746092 761.483032
545 0 1 11.396420 9.461930 761.039001
546 0 1 10.937901 10.123700 760.518982
547 0 1 10.632470 10.815470 759.940979
548 0 1 10.542080 11.493460 759.218994
549 0 1 10.419370 12.007919 758.416016
550 0 1 10.469660 12.564859 757.606018
551 0 1 10.315090 13.254850 756.927002
552 0 1 9.974760 13.652349 756.166992
553 0 1 9.268090 13.728160 755.434998
554 0 1 8.480454 13.989380 754.877991
555 0 1 7.730022 14.119249 754.137024
556 0 1 6.958760 13.818390 753.620972
557 0 1 6.185170 13.391310 753.216980
558 0 1 5.700020 12.676910 752.757019
559 0 1 5.266460 11.950200 752.408020
560 0 1 5.369510 10.979050 752.221985
561 0 1 5.336840 10.107410 751.832031
562 0 1 5.296480 9.221440 751.348999
563 0 1 5.189210 8.540966 750.635986
564 0 1 5.154800 7.770726 750.059998
565 0 1 5.392760 7.230513 749.301025
566 0 1 5.593700 6.804980 748.442993
567 0 1 5.974510 6.708040 747.525024
568 0 1 6.393450 6.507030 746.728027
569 0 1 7.091357 6.478140 746.109009
570 0 1 7.911414 6.580150 745.474976
571 0 1 8.664654 6.922480 744.890015
572 0 1 9.488840 6.922900 744.419006
573 0 1 10.359221 7.021894 743.919983
574 0 1 11.117140 7.024332 743.351013
575 0 1 11.646760 6.877000 742.583008
576 0 1 12.038549 6.729440 741.648987
577 0 1 12.564510 6.702270 740.815002
578 0 1 13.224260 7.009753 740.127991
579 0 1 13.724461 7.208191 739.348022
580 0 1 13.777030 7.408471 738.384033
581 0 1 14.038839 7.211080 737.450989
582 0 1 14.263750 6.907490 736.572998
583 0 1 14.257740 6.641110 735.666016
584 0 1 13.934450 6.442720 734.737000
585 0 1 13.496440 6.057830 733.974976
586 0 1 12.837580 5.910820 733.268982
587 0 1 12.172131 5.676560 732.614014
588 0 1 11.509380 5.353900 732.002991
589 0 1 10.889310 4.840810 731.536987
590 0 1 10.263830 4.560450 730.888977
591 0 1 9.752620 4.045810 730.247009
592 0 1 9.224310 3.660610 729.570007
593 0 1 8.714996 3.370090 728.726013
594 0 1 8.430813 3.144520 727.808411
595 0 1 8.144754 2.936690 726.900208
596 0 1 7.940287 3.024690 725.900513
597 0 1 7.904667 3.109980 724.905029
598 0 1 7.990844 3.388020 723.998474
599 0 1 8.091063 3.573080 723.084717
600 0 1 8.395570 3.942980 722.192322
601 0 1 8.769201 4.182170 721.231079
602 0 1 8.883731 4.339330 720.288513
603 0 1 8.998894 4.416860 719.303284
604 0 1 9.430920 4.467590 718.432800
605 0 1 9.937710 4.399360 717.507385
606 0 1 10.500500 4.583080 716.693909
607 0 1 11.066140 5.154280 716.200073
608 0 1 11.102880 5.808900 715.540527
609 0 1 11.404540 6.270600 714.711670
610 0 1 11.712200 6.588810 713.813721
611 0 1 12.036800 6.583120 712.928711
612 0 1 12.157070 6.540190 711.969971
613 0 1 12.197229 6.369160 710.989075
614 0 1 12.037530 6.303660 710.033691
615 0 1 12.278000 6.201610 709.143494
616 0 1 12.690860 6.077810 708.276917
617 0 1 12.967720 6.086680 707.357300
618 0 1 13.225410 6.033770 706.406189
619 0 1 13.391530 6.045990 705.484619
620 0 1 13.444030 5.899080 704.501831
621 0 1 13.279680 5.756380 703.600891
622 0 1 13.092990 5.409790 702.727478
623 0 1 12.868940 4.905380 701.903015
624 0 1 12.785390 4.297100 701.095886
625 0 1 12.705060 3.731560 700.339905
626 0 1 12.552800 3.416750 699.399170
627 0 1 12.729790 3.275360 698.449829
628 0 1 12.676010 3.204580 697.437378
629 0 1 12.473130 3.287840 696.529602
630 0 1 12.223180 3.111290 695.619019
631 0 1 11.848740 2.664710 694.835693
632 0 1 11.416630 2.472260 693.967224
633 0 1 11.196490 2.815160 693.105408
634 0 1 10.805790 3.058400 692.289307
635 0 1 10.235580 3.230610 691.474304
636 0 1 9.611900 3.507330 690.838318
637 0 1 8.978310 3.732280 690.113525
638 0 1 8.389357 3.874120 689.331421
639 0 1 7.875438 3.804180 688.526672
640 0 1 7.304352 3.983810 687.749573
641 0 1 6.589480 3.935250 687.097290
642 0 1 6.017340 3.806390 686.273804
643 0 1 5.659460 3.680790 685.376892
644 0 1 5.100230 3.753160 684.582275
645 0 1 4.568300 3.717820 683.763123
646 0 1 4.039910 3.944970 683.043213
647 0 1 3.602620 4.013590 682.159607
648 0 1 3.464740 4.321280 681.284302
649 0 1 3.373280 4.489630 680.415283
650 0 1 3.499910 4.323550 679.493774
651 0 1 3.426630 4.622980 678.556091
652 0 1 3.717130 5.063070 677.804321
653 0 1 4.258390 5.469510 676.970825
654 0 1 4.731420 5.805770 676.193787
655 0 1 5.289920 6.107390 675.506775
656 0 1 5.600730 6.334710 674.593689
657 0 1 5.634990 6.450470 673.638916
658 0 1 5.569320 6.703690 672.696777
659 0 1 5.495210 6.743660 671.654175
660 0 1 5.406120 6.760260 670.662598
661 0 1 5.484180 6.844170 669.642090
662 0 1 5.679930 7.054645 668.707520
663 0 1 5.936470 7.267077 667.816223
664 0 1 5.930380 7.368081 666.869873
665 0 1 5.952060 7.414753 665.887024
666 0 1 5.982810 7.356724 664.941284
667 0 1 6.036480 7.301219 663.926575
668 0 1 6.027650 7.315162 662.927002
669 0 1 5.989500 7.146976 661.996216
670 0 1 6.189550 7.552533 661.086975
671 0 1 6.525900 7.869434 660.261414
672 0 1 6.864880 8.151042 659.340881
673 0 1 7.443426 8.045973 658.542603
674 0 1 8.093317 7.847503 657.860291
675 0 1 8.700111 7.382601 657.174500
676 0 1 9.369250 7.081645 656.541870
677 0 1 10.111300 7.221811 655.912231
678 0 1 10.757160 7.217600 655.247009
679 0 1 11.388580 7.099767 654.523987
680 0 1 12.091850 6.817850 653.997070
681 0 1 12.770550 6.671050 653.267395
682 0 1 13.243179 6.792050 652.432373
683 0 1 13.581930 7.010872 651.580200
684 0 1 13.817039 7.302700 650.700012
685 0 1 13.782351 7.662420 649.765808
686 0 1 13.741400 8.073045 648.928589
687 0 1 13.395020 8.321459 648.108276
688 0 1 13.312130 8.662123 647.193481
689 0 1 13.041480 8.561777 646.257812
690 0 1 12.950399 8.501798 645.287415
691 0 1 12.664630 8.407359 644.302307
692 0 1 12.755980 8.455931 643.387085
693 0 1 12.682859 8.804882 642.485413
694 0 1 12.994490 8.775927 641.548523
695 0 1 13.242210 8.859169 640.509827
696 0 1 13.268960 8.897769 639.556702
697 0 1 13.220440 8.982152 638.610779
698 0 1 13.209970 9.407490 637.758789
699 0 1 13.328979 9.825610 636.878967
700 0 1 13.141900 10.263220 636.002319
701 0 1 12.828520 10.456470 635.088806
702 0 1 12.634809 10.616570 634.195557
703 0 1 12.432230 10.701981 633.236511
704 0 1 12.404329 10.682870 632.329407
705 0 1 11.942699 10.778870 631.417114
706 0 1 11.545640 11.085040 630.587097
707 0 1 11.165091 11.171930 629.710388
708 0 1 10.744150 11.313020 628.860352
709 0 1 10.325690 11.324660 628.009338
710 0 1 10.080540 11.319250 627.096130
711 0 1 9.899800 10.991899 626.230774
712 0 1 9.922520 10.541870 625.298828
713 0 1 9.783030 10.511230 624.321045
714 0 1 9.749760 10.237761 623.391418
715 0 1 9.297729 10.333620 622.614746
716 0 1 8.972401 10.435190 621.667847
717 0 1 8.665172 10.487840 620.731201
718 0 1 8.494342 10.703180 619.779114
719 0 1 8.337031 10.823130 618.837219
720 0 1 7.768445 10.941999 618.063599
721 0 1 7.240295 10.833241 617.335022
722 0 1 6.541400 10.498030 616.650391
723 0 1 5.976410 10.159530 615.940125
724 0 1 5.572540 9.718570 615.133911
725 0 1 5.069760 9.537450 614.279724
726 0 1 4.601470 9.325990 613.477600
727 0 1 4.234760 9.063169 612.642517
728 0 1 4.029230 8.641893 611.718811
729 0 1 3.734110 8.437164 610.844788
730 0 1 3.442240 8.165997 609.971375
731 0 1 3.207310 7.777779 609.048279
732 0 1 2.957280 7.442478 608.229309
733 0 1 2.763900 7.443865 607.294189
734 0 1 2.443070 7.258065 606.403015
735 0 1 2.417930 7.129119 605.448303
736 0 1 2.631680 7.055083 604.489380
737 0 1 3.080150 7.124383 603.652283
738 0 1 3.386830 6.853120 602.770813
739 0 1 3.732390 6.441910 601.899902
740 0 1 3.859950 6.419410 600.940796
741 0 1 3.885820 6.773730 600.086914
742 0 1 3.954350 6.876030 599.104614
743 0 1 3.868030 7.056283 598.142090
744 0 1 3.834220 7.277077 597.231079
745 0 1 3.862880 7.420192 596.201416
746 0 1 3.535450 7.448456 595.327881
747 0 1 3.572880 7.412391 594.405029
748 0 1 3.992440 7.442553 593.466187
749 0 1 4.507520 7.452423 592.625305
750 0 1 4.723540 7.080929 591.758911
751 0 1 5.057800 6.695380 590.875793
752 0 1 5.382980 6.263050 590.066589
753 0 1 5.495390 5.557800 589.470093
754 0 1 5.671050 4.832550 588.803284
755 0 1 5.956710 4.242250 588.063599
756 0 1 6.481000 3.992610 587.290894
757 0 1 6.970860 3.902360 586.433594
758 0 1 7.659013 3.809570 585.757690
759 0 1 8.250049 3.822930 585.054993
760 0 1 8.914730 3.538930 584.330017
761 0 1 9.432580 3.607240 583.472900
762 0 1 9.707670 3.471870 582.463989
763 0 1 9.826550 3.432710 581.569824
764 0 1 9.906210 3.306690 580.644897
765 0 1 10.165610 3.358310 579.695190
766 0 1 10.243800 3.430810 578.731384
767 0 1 10.404610 3.377510 577.807007
768 0 1 10.793859 3.242740 576.874878
769 0 1 10.899509 3.268870 575.876892
770 0 1 10.864780 3.242750 574.933411
771 0 1 10.733650 3.159700 573.969482
772 0 1 10.490789 3.286220 573.094421
773 0 1 10.028340 3.713660 572.306274
774 0 1 9.510520 3.588280 571.540588
775 0 1 9.248750 3.526110 570.639526
776 0 1 9.076290 3.251400 569.778625
777 0 1 9.139490 3.094000 568.781311
778 0 1 9.180190 3.042370 567.805115
779 0 1 9.176700 3.188120 566.830872
780 0 1 9.032710 3.639310 566.004089
781 0 1 8.498589 4.122780 565.345520
782 0 1 7.816508 4.531500 564.850525
783 0 1 7.274984 5.277100 564.396606
784 0 1 6.702720 5.814910 563.756409
785 0 1 6.334420 6.292790 563.068420
786 0 1 6.153910 6.981340 562.432922
787 0 1 5.730890 7.573950 561.841431
788 0 1 5.676090 8.389119 561.356079
789 0 1 5.486200 9.298210 560.980225