LAMMPS data file via MDAnalysis

        1000  atoms
        1000  bonds
        1000  angles
           0  dihedrals
           0  impropers

           1  atom types
           1  bond types
           1  angle types
           0  dihedral types
           0  improper types

0.000000 16.000000 xlo xhi
0.000000 16.000000 ylo yhi
0.000000 1257.000000 zlo zhi


Masses

1 1.000000

Atoms

1 0 1 6.709280 12.610960 447.895996
2 0 1 7.042564 12.858370 448.761993
3 0 1 7.591445 13.187010 449.466980
4 0 1 8.084523 13.506160 450.330994
5 0 1 8.516437 13.827770 451.125000
6 0 1 9.067440 13.695271 451.912994
7 0 1 9.384570 13.817329 452.737000
8 0 1 9.193340 13.663190 453.695007
9 0 1 8.827646 13.327100 454.492004
10 0 1 8.223767 13.024020 455.108002
11 0 1 7.708846 12.608060 455.776001
12 0 1 7.164899 12.214690 456.494019
13 0 1 6.949470 11.607580 457.252014
14 0 1 6.912250 10.968340 457.984009
15 0 1 7.056570 10.388070 458.781982
16 0 1 7.256159 9.881090 459.606018
17 0 1 7.283774 9.400510 460.497009
18 0 1 7.301637 8.709662 461.134003
19 0 1 7.559179 8.397183 461.990997
20 0 1 7.787861 8.131047 462.923004
21 0 1 7.765027 7.948757 463.851013
22 0 1 7.722662 7.689765 464.799011
23 0 1 7.545418 7.612239 465.699005
24 0 1 7.613531 7.739717 466.690979
25 0 1 7.566095 7.796983 467.662994
26 0 1 7.669806 7.767468 468.614990
27 0 1 7.708503 7.698528 469.544983
28 0 1 7.664565 7.395783 470.500000
29 0 1 7.537244 7.561926 471.507019
30 0 1 7.560170 7.811137 472.511993
31 0 1 7.134029 8.178073 473.442993
32 0 1 6.661990 8.583518 474.192993
33 0 1 6.278480 8.952477 475.054016
34 0 1 5.793430 9.047130 475.884003
35 0 1 5.340200 8.849273 476.695984
36 0 1 4.769100 8.579621 477.468994
37 0 1 4.378420 8.421300 478.304016
38 0 1 4.098550 8.092766 479.109985
39 0 1 3.931520 7.836622 480.052002
40 0 1 3.558190 7.584321 480.955994
41 0 1 3.163700 7.340961 481.851013
42 0 1 3.077120 7.472195 482.815979
43 0 1 3.063890 7.735691 483.789978
44 0 1 3.333560 7.911551 484.669983
45 0 1 3.232380 8.128931 485.585999
46 0 1 3.252540 8.334130 486.542999
47 0 1 3.337710 8.654324 487.377014
48 0 1 3.268530 8.732252 488.362000
49 0 1 3.229790 8.978502 489.354980
50 0 1 3.466520 9.385890 490.174988
51 0 1 3.811500 9.642450 491.080017
52 0 1 4.450680 9.982220 491.701996
53 0 1 4.959160 10.114630 492.510010
54 0 1 5.437330 10.063520 493.372009
55 0 1 5.887980 10.000390 494.247009
56 0 1 6.190500 9.575440 495.014008
57 0 1 6.609210 9.240460 495.843018
58 0 1 6.974670 8.887093 496.669983
59 0 1 7.133492 8.514277 497.473022
60 0 1 7.237761 8.033222 498.291016
61 0 1 7.575387 7.659944 499.052979
62 0 1 7.778890 7.268800 499.891998
63 0 1 8.169418 7.017570 500.751007
64 0 1 8.231204 6.716200 501.658997
65 0 1 8.236624 6.727650 502.641998
66 0 1 8.168373 6.777420 503.632019
67 0 1 8.350207 6.577740 504.588989
68 0 1 8.109066 6.348790 505.536987
69 0 1 7.788080 6.085980 506.432983
70 0 1 7.828823 5.603810 507.208984
71 0 1 7.962497 5.414590 508.123993
72 0 1 7.958182 5.442700 509.082001
73 0 1 7.871519 5.459730 510.016998
74 0 1 7.743119 5.321560 510.994995
75 0 1 7.624930 5.319330 511.932007
76 0 1 7.585186 5.352610 512.921021
77 0 1 7.811383 5.507070 513.888977
78 0 1 8.086812 5.596300 514.861023
79 0 1 8.241653 5.807400 515.745972
80 0 1 8.624687 6.172940 516.507019
81 0 1 9.141770 6.463680 517.323975
82 0 1 9.537310 6.497940 518.219971
83 0 1 10.028000 6.319500 519.015991
84 0 1 10.541320 6.170820 519.843994
85 0 1 11.064990 6.188660 520.598022
86 0 1 11.554720 6.197780 521.377014
87 0 1 11.882600 6.358450 522.322998
88 0 1 12.257930 6.616290 523.153015
89 0 1 12.387170 6.862670 524.125000
90 0 1 12.837510 7.223036 524.960022
91 0 1 13.154010 7.416667 525.841003
92 0 1 13.386340 7.381187 526.885986
93 0 1 13.543039 7.333886 527.802979
94 0 1 13.778970 7.372170 528.748779
95 0 1 14.109409 7.346862 529.674988
96 0 1 14.178780 7.616721 530.637207
97 0 1 14.411800 7.837670 531.587524
98 0 1 14.367280 8.143193 532.548279
99 0 1 14.190580 8.403646 533.447815
100 0 1 13.820710 8.195896 534.315430
101 0 1 13.543011 7.718828 535.109924
102 0 1 13.285640 7.430291 536.021179
103 0 1 12.840740 7.244981 536.818970
104 0 1 12.255640 6.858950 537.518005
105 0 1 11.562190 6.588650 538.095093
106 0 1 10.995620 6.293150 538.831421
107 0 1 10.495980 6.154260 539.651367
108 0 1 9.886480 5.916170 540.361877
109 0 1 9.197340 5.787200 541.143433
110 0 1 8.402318 5.938350 541.671997
111 0 1 7.625735 5.882910 542.274780
112 0 1 7.091921 5.507160 543.078674
113 0 1 6.719520 5.081180 543.808899
114 0 1 6.110720 4.945950 544.588623
115 0 1 5.768290 5.037970 545.481689
116 0 1 5.257170 5.082630 546.301697
117 0 1 4.994520 5.153070 547.204468
118 0 1 4.823230 5.267830 548.159302
119 0 1 4.539870 5.427940 549.054199
120 0 1 4.170500 5.641680 549.884827
121 0 1 4.076970 5.581620 550.873779
122 0 1 4.068670 5.532580 551.849731
123 0 1 4.243410 5.542790 552.819580
124 0 1 4.306080 5.337490 553.705200
125 0 1 4.617610 4.907740 554.554382
126 0 1 4.937890 4.733050 555.382874
127 0 1 5.198870 4.794000 556.277466
128 0 1 5.431930 4.847500 557.252991
129 0 1 5.291350 4.592290 558.185913
130 0 1 5.310690 4.625000 559.139099
131 0 1 5.155910 4.918290 560.049377
132 0 1 4.764700 5.111750 560.890686
133 0 1 4.528620 5.094570 561.900391
134 0 1 4.391500 5.489270 562.734314
135 0 1 4.178100 5.822590 563.658020
136 0 1 3.845160 5.947550 564.567322
137 0 1 4.008790 5.818540 565.495911
138 0 1 4.280110 5.754790 566.446411
139 0 1 4.654860 5.433370 567.222778
140 0 1 5.241100 5.156460 567.975220
141 0 1 5.733850 5.048280 568.793274
142 0 1 6.235960 4.844430 569.559082
143 0 1 6.405550 4.863500 570.486023
144 0 1 6.751340 4.879500 571.366516
145 0 1 7.172859 5.049550 572.209717
146 0 1 7.631007 5.342250 572.966309
147 0 1 8.155774 5.379250 573.804199
148 0 1 8.547406 5.616690 574.653503
149 0 1 8.677450 6.079230 575.466003
150 0 1 8.591611 6.387470 576.409180
151 0 1 8.768167 6.520120 577.354980
152 0 1 8.766079 6.772960 578.264893
153 0 1 8.680934 7.255344 579.121216
154 0 1 8.884535 7.649435 579.913574
155 0 1 8.980206 8.140646 580.711487
156 0 1 8.768275 8.495152 581.553406
157 0 1 8.242667 8.957545 582.226196
158 0 1 7.892886 9.470590 582.955017
159 0 1 7.474270 9.881480 583.668701
160 0 1 7.101015 9.957900 584.548523
161 0 1 6.460370 9.829790 585.274902
162 0 1 5.942180 9.531850 585.989319
163 0 1 5.419730 9.273170 586.704407
164 0 1 4.988590 8.879322 587.533569
165 0 1 4.622260 8.810726 588.380615
166 0 1 4.490540 8.814917 589.369080
167 0 1 4.551570 9.115590 590.268188
168 0 1 4.459560 9.251540 591.200500
169 0 1 4.101750 9.494070 592.047607
170 0 1 4.022240 9.747280 592.968872
171 0 1 3.905720 9.865280 593.888428
172 0 1 3.942630 9.758780 594.864197
173 0 1 3.948320 9.500450 595.822632
174 0 1 4.110690 8.852334 596.611023
175 0 1 4.350630 8.277105 597.345581
176 0 1 4.504000 7.946877 598.220520
177 0 1 4.378330 7.919679 599.139404
178 0 1 3.808750 7.760403 599.936707
179 0 1 3.138190 7.522015 600.520325
180 0 1 2.688090 7.019003 601.229919
181 0 1 2.454310 6.731620 602.195801
182 0 1 2.762400 6.619600 603.119324
183 0 1 3.190590 6.540990 603.958618
184 0 1 3.372950 6.048510 604.771790
185 0 1 3.772690 5.756760 605.665100
186 0 1 4.117590 5.677690 606.620178
187 0 1 4.208280 5.869120 607.605103
188 0 1 4.106870 6.204060 608.574402
189 0 1 4.301730 6.413220 609.441772
190 0 1 4.426020 6.529520 610.419495
191 0 1 4.295430 6.450170 611.474792
192 0 1 4.207310 6.306030 612.458679
193 0 1 4.327240 6.170050 613.465515
194 0 1 4.765160 5.907500 614.285583
195 0 1 5.170850 5.823780 615.134521
196 0 1 5.366940 5.734810 616.057983
197 0 1 5.598510 5.628980 616.947815
198 0 1 5.733540 5.724930 617.882324
199 0 1 5.924730 5.636300 618.891663
200 0 1 5.873820 5.541800 619.809326
201 0 1 5.990620 5.526560 620.874756
202 0 1 6.243280 5.420870 621.828003
203 0 1 6.442110 5.592030 622.726013
204 0 1 6.821740 5.737610 623.625610
205 0 1 7.116672 5.933020 624.465027
206 0 1 7.446505 5.957780 625.359070
207 0 1 7.734014 5.776580 626.283447
208 0 1 8.149286 5.486390 627.097168
209 0 1 8.153046 4.878510 627.795959
210 0 1 7.882589 4.184710 628.361145
211 0 1 7.506109 3.597200 629.009766
212 0 1 7.130705 3.093120 629.726562
213 0 1 6.924040 2.772000 630.605957
214 0 1 7.030620 2.550670 631.549072
215 0 1 6.953630 2.631080 632.505371
216 0 1 6.833920 2.848210 633.425903
217 0 1 6.604530 2.928130 634.295898
218 0 1 6.623040 2.995250 635.306335
219 0 1 6.782180 3.283460 636.215698
220 0 1 6.915580 3.673490 637.030090
221 0 1 7.338402 3.882060 637.805237
222 0 1 8.044424 3.999130 638.513184
223 0 1 8.899205 4.176250 639.088074
224 0 1 9.358640 4.532850 639.892822
225 0 1 9.863560 4.625860 640.742493
226 0 1 10.215420 4.709720 641.634888
227 0 1 10.482880 4.795010 642.542114
228 0 1 10.728559 4.993450 643.448181
229 0 1 10.748960 4.752080 644.358398
230 0 1 10.790670 4.211420 645.239380
231 0 1 10.641670 3.747040 646.171326
232 0 1 10.518440 3.342060 647.003479
233 0 1 10.371880 2.891290 647.852417
234 0 1 9.731520 2.670720 648.501526
235 0 1 8.997210 2.567430 649.190918
236 0 1 8.581592 2.333840 649.957581
237 0 1 8.094283 2.287980 650.768677
238 0 1 7.940137 2.271800 651.714722
239 0 1 7.728194 2.435560 652.632202
240 0 1 7.430980 2.456670 653.552795
241 0 1 7.355618 2.631090 654.512207
242 0 1 7.724318 2.784550 655.415771
243 0 1 8.157513 2.823240 656.250793
244 0 1 8.278227 2.764120 657.183716
245 0 1 8.508217 2.685080 658.091797
246 0 1 8.906841 2.809080 658.965515
247 0 1 9.401700 2.963060 659.723022
248 0 1 9.904510 3.398290 660.388306
249 0 1 10.592790 3.896620 660.970825
250 0 1 11.132490 4.333910 661.701172
251 0 1 11.628650 4.669520 662.534790
252 0 1 12.167020 5.016420 663.324890
253 0 1 12.472980 5.327710 664.198730
254 0 1 12.562400 5.369730 665.152893
255 0 1 12.598300 5.654360 666.118225
256 0 1 12.649570 6.123450 666.962769
257 0 1 12.293760 6.674730 667.647827
258 0 1 11.914450 7.161487 668.336609
259 0 1 11.656810 7.993567 668.760620
260 0 1 11.229750 8.675543 669.315674
261 0 1 11.038870 9.322250 669.958801
262 0 1 10.926440 9.963340 670.613770
263 0 1 11.155149 10.425400 671.483887
264 0 1 11.330820 10.737940 672.385986
265 0 1 11.280670 11.203520 673.216492
266 0 1 11.288500 11.838290 673.914185
267 0 1 11.038630 12.384010 674.647217
268 0 1 10.785230 12.602910 675.574280
269 0 1 10.534480 12.719049 676.512512
270 0 1 10.206800 12.571810 677.456604
271 0 1 9.932280 12.263430 678.278320
272 0 1 9.650240 12.377131 679.162903
273 0 1 9.274090 12.259550 680.031616
274 0 1 8.968531 11.846291 680.843628
275 0 1 9.045630 11.282860 681.627686
276 0 1 9.476870 10.879760 682.363525
277 0 1 10.126340 10.511400 682.948303
278 0 1 10.438200 10.113660 683.741394
279 0 1 10.829450 9.770060 684.602112
280 0 1 11.185990 9.621930 685.467102
281 0 1 11.468430 9.676140 686.403625
282 0 1 11.925050 9.590270 687.221802
283 0 1 12.270380 9.418100 688.087402
284 0 1 12.772470 9.251200 688.851074
285 0 1 12.909460 9.122520 689.752991
286 0 1 12.752270 8.795388 690.670105
287 0 1 12.456460 8.677113 691.565918
288 0 1 12.228730 8.835985 692.511597
289 0 1 12.028950 8.948764 693.427612
290 0 1 11.982150 8.827702 694.417419
291 0 1 11.725140 8.682300 695.344971
292 0 1 11.797270 8.644260 696.285889
293 0 1 11.663630 8.770363 697.240784
294 0 1 11.789440 8.924349 698.228577
295 0 1 12.195710 9.008660 699.107483
296 0 1 12.315240 9.151030 700.089111
297 0 1 12.193120 9.400500 701.074219
298 0 1 12.196620 9.452760 702.056885
299 0 1 11.981410 9.604890 702.985107
300 0 1 11.994140 9.931610 703.956299
301 0 1 11.830180 10.198840 704.809692
302 0 1 11.815840 10.636660 705.635498
303 0 1 11.671180 10.336690 706.550476
304 0 1 11.314240 9.937370 707.379700
305 0 1 11.197701 9.436530 708.180420
306 0 1 11.302950 8.927755 709.018677
307 0 1 11.267300 8.369646 709.860596
308 0 1 11.126940 8.335359 710.799622
309 0 1 10.719820 8.375237 711.728577
310 0 1 10.675440 8.596555 712.629211
311 0 1 10.428391 8.834545 713.509216
312 0 1 10.167530 9.117050 714.396912
313 0 1 10.019711 9.485470 715.245300
314 0 1 9.840680 9.827070 716.157715
315 0 1 9.960290 10.130620 717.075623
316 0 1 10.207020 10.310610 717.956726
317 0 1 10.483900 10.450769 718.882385
318 0 1 10.948840 10.613930 719.755981
319 0 1 11.425680 10.723600 720.638611
320 0 1 11.809550 10.496290 721.460022
321 0 1 12.104650 10.481190 722.355408
322 0 1 12.429100 10.247340 723.187683
323 0 1 12.818930 9.808800 724.067078
324 0 1 12.949790 9.553061 724.962219
325 0 1 12.896240 9.278780 725.881592
326 0 1 12.787200 8.837466 726.691223
327 0 1 12.726760 8.419020 727.553894
328 0 1 12.735960 7.957896 728.380676
329 0 1 12.780130 7.625531 729.244995
330 0 1 13.051970 7.217437 730.088013
331 0 1 12.807500 6.784210 730.898987
332 0 1 12.345520 6.379820 731.632996
333 0 1 11.955400 5.847710 732.365967
334 0 1 11.865089 5.146690 733.065002
335 0 1 11.729460 4.519810 733.828979
336 0 1 11.333160 4.127630 734.698975
337 0 1 10.686000 3.747560 735.307983
338 0 1 10.066700 3.580810 735.960999
339 0 1 9.578700 3.604690 736.729980
340 0 1 9.314880 3.618410 737.622009
341 0 1 8.964072 3.571320 738.499023
342 0 1 8.491445 3.377680 739.349976
343 0 1 8.340051 3.237090 740.283020
344 0 1 8.176634 3.028480 741.257019
345 0 1 7.962202 2.748930 742.140991
346 0 1 7.724859 2.573440 743.114990
347 0 1 7.937071 2.310580 744.021973
348 0 1 8.320544 2.417190 744.942993
349 0 1 8.471120 2.511530 745.882996
350 0 1 8.540947 2.681460 746.838989
351 0 1 8.457469 2.961000 747.851990
352 0 1 8.517719 3.354960 748.708984
353 0 1 8.191133 3.798920 749.466980
354 0 1 7.922942 4.459720 750.156982
355 0 1 7.678092 5.097450 750.846985
356 0 1 7.291833 5.576030 751.513000
357 0 1 6.752900 6.168810 752.155029
358 0 1 6.511610 6.602770 752.935974
359 0 1 6.646540 7.293873 753.603027
360 0 1 6.611640 7.697287 754.494019
361 0 1 6.256370 7.998356 755.367004
362 0 1 5.710910 8.108674 756.164001
363 0 1 5.554240 8.012343 757.171021
364 0 1 5.290190 7.976369 758.057983
365 0 1 5.235120 8.031810 759.000977
366 0 1 5.105620 7.703317 759.911987
367 0 1 4.809620 7.276057 760.794983
368 0 1 4.751650 6.653640 761.510010
369 0 1 4.572790 6.103000 762.341980
370 0 1 4.329120 5.671870 763.264038
371 0 1 4.184390 5.318480 764.101990
372 0 1 4.033950 4.984430 765.007996
373 0 1 3.858070 4.937350 765.952026
374 0 1 3.924750 5.325580 766.862000
375 0 1 3.858390 5.866530 767.648010
376 0 1 3.668280 6.439440 768.421021
377 0 1 3.603310 6.944340 769.242004
378 0 1 3.423160 7.259186 770.109009
379 0 1 3.348380 7.613477 771.068970
380 0 1 3.249490 8.132992 771.848022
381 0 1 2.828190 8.601413 772.686035
382 0 1 2.431210 8.928355 773.518982
383 0 1 2.178880 9.124350 774.466003
384 0 1 2.246550 8.968611 775.408020
385 0 1 2.606670 9.095290 776.250977
386 0 1 3.185620 8.797249 776.979980
387 0 1 3.378410 8.743809 777.929016
388 0 1 3.835460 8.431957 778.775024
389 0 1 4.125940 8.341506 779.660034
390 0 1 4.439280 8.459111 780.570007
391 0 1 4.720760 8.937402 781.344971
392 0 1 4.869760 9.214470 782.228027
393 0 1 5.286480 9.209760 783.127014
394 0 1 5.664070 9.170100 784.067017
395 0 1 6.029790 8.759665 784.895020
396 0 1 6.377870 8.215517 785.615967
397 0 1 6.662610 7.636424 786.301025
398 0 1 6.792900 7.136187 787.150024
399 0 1 6.481760 6.789610 787.976013
400 0 1 6.329910 5.987650 788.609985
401 0 1 6.021890 5.463400 789.349976
402 0 1 5.439580 5.192630 790.164001
403 0 1 4.799630 4.906030 790.898010
404 0 1 4.154360 4.728010 791.636963
405 0 1 3.543760 4.902810 792.380981
406 0 1 2.906230 5.092890 793.134033
407 0 1 2.517770 5.408590 793.945984
408 0 1 2.329230 5.794320 794.792969
409 0 1 2.243860 6.286570 795.656006
410 0 1 2.096460 6.823840 796.445007
411 0 1 1.894430 7.150282 797.317017
412 0 1 1.763110 7.252857 798.259033
413 0 1 1.911250 7.186002 799.273987
414 0 1 2.354590 7.176773 800.151001
415 0 1 2.721140 7.128297 801.035034
416 0 1 3.310700 7.138866 801.726990
417 0 1 3.950600 7.304465 802.391968
418 0 1 4.512490 7.352492 803.150024
419 0 1 4.934750 7.636071 803.968018
420 0 1 5.541480 7.712931 804.718994
421 0 1 5.938110 7.637122 805.539978
422 0 1 6.458390 7.735765 806.358032
423 0 1 7.067000 7.911205 807.140015
424 0 1 7.625160 8.097575 807.898010
425 0 1 8.336541 8.210791 808.557007
426 0 1 8.657846 8.603436 809.302979
427 0 1 8.895784 9.242180 809.978027
428 0 1 9.011840 9.871210 810.776978
429 0 1 9.106740 10.321730 811.614014
430 0 1 9.303970 10.789800 812.424011
431 0 1 9.488150 11.043030 813.396973
432 0 1 9.729650 11.332160 814.313965
433 0 1 9.751570 11.504730 815.278015
434 0 1 9.498960 11.608940 816.171997
435 0 1 9.397480 11.616370 817.161011
436 0 1 9.061280 11.582190 818.059021
437 0 1 8.613101 11.361700 818.924011
438 0 1 8.242143 11.151840 819.765015
439 0 1 7.976737 11.166130 820.686035
440 0 1 7.573475 10.814170 821.525024
441 0 1 7.308778 10.686800 822.429016
442 0 1 7.105428 10.431160 823.386963
443 0 1 6.949440 10.272790 824.302979
444 0 1 6.727870 10.140300 825.257019
445 0 1 6.261830 9.854540 826.078979
446 0 1 5.813120 9.771330 826.903015
447 0 1 5.469980 9.982270 827.786987
448 0 1 4.862150 9.932860 828.533997
449 0 1 4.308330 9.964530 829.297974
450 0 1 3.609200 9.803340 829.964966
451 0 1 3.268140 9.844070 830.859009
452 0 1 2.982630 9.891730 831.749023
453 0 1 3.063860 10.136420 832.653992
454 0 1 3.338270 10.339070 833.570984
455 0 1 3.453320 10.352800 834.610962
456 0 1 3.649170 10.092440 835.479004
457 0 1 3.759410 9.799790 836.393982
458 0 1 3.772340 9.247020 837.161011
459 0 1 4.031560 8.547926 837.768982
460 0 1 4.534170 7.830201 838.130005
461 0 1 5.123760 7.154488 838.400024
462 0 1 5.604300 6.293720 838.547974
463 0 1 5.970600 5.439690 838.414978
464 0 1 6.196470 4.537430 838.110962
465 0 1 6.393060 3.863420 837.504028
466 0 1 6.790190 3.364330 836.757996
467 0 1 7.060308 2.867340 836.013000
468 0 1 7.638679 2.731530 835.318970
469 0 1 8.398085 2.565120 834.679993
470 0 1 9.028030 2.654770 833.981995
471 0 1 9.784610 2.869560 833.476013
472 0 1 10.562960 3.132780 833.023987
473 0 1 11.278111 3.213340 832.437012
474 0 1 12.102230 3.537080 831.924988
475 0 1 12.627359 3.525340 831.023010
476 0 1 12.862730 3.518790 830.129028
477 0 1 12.711800 3.488460 829.158020
478 0 1 12.373110 3.595330 828.259033
479 0 1 12.090580 3.580590 827.307007
480 0 1 11.920630 3.917500 826.416992
481 0 1 11.690960 3.977670 825.453003
482 0 1 11.758801 3.871100 824.494995
483 0 1 11.553450 3.898020 823.578003
484 0 1 11.388150 4.058290 822.635986
485 0 1 11.361290 4.207670 821.674011
486 0 1 11.392879 4.478920 820.688965
487 0 1 11.182030 5.035250 819.875977
488 0 1 10.783440 5.524390 819.179016
489 0 1 10.536740 5.734650 818.234009
490 0 1 10.579720 6.137140 817.341003
491 0 1 10.611560 6.265250 816.369019
492 0 1 10.605900 6.418490 815.429016
493 0 1 10.940150 6.411710 814.518982
494 0 1 11.183001 6.439010 813.523010
495 0 1 11.013430 6.219090 812.575012
496 0 1 10.866080 6.022100 811.596985
497 0 1 10.491380 5.782050 810.760986
498 0 1 9.986700 5.856540 809.940002
499 0 1 9.516560 5.765120 809.134033
500 0 1 9.065420 5.936200 808.283997
501 0 1 8.836038 5.992760 807.374023
502 0 1 8.454122 6.323550 806.500977
503 0 1 8.066219 6.435630 805.695984
504 0 1 7.605217 6.710850 804.877014
505 0 1 7.211004 6.885490 803.966980
506 0 1 6.798540 6.959320 803.113037
507 0 1 6.350240 7.477311 802.346008
508 0 1 6.068970 7.694094 801.463013
509 0 1 5.771710 8.110303 800.585022
510 0 1 5.505670 8.530996 799.775024
511 0 1 5.470050 8.254016 798.877991
512 0 1 5.538690 8.076318 797.895996
513 0 1 5.616100 7.939396 796.973999
514 0 1 5.715570 7.787080 796.062988
515 0 1 5.798710 7.425244 795.171997
516 0 1 5.852120 7.021275 794.289001
517 0 1 5.991830 6.582040 793.450012
518 0 1 6.284420 6.008740 792.733032
519 0 1 6.429720 5.483220 791.973022
520 0 1 6.752950 4.899910 791.313965
521 0 1 7.019413 4.232000 790.679993
522 0 1 7.138234 3.664030 789.960022
523 0 1 7.223741 3.312880 789.002991
524 0 1 6.859800 2.713200 788.252014
525 0 1 6.515510 2.585840 787.313965
526 0 1 6.182360 2.500500 786.385010
527 0 1 5.778410 2.570530 785.504028
528 0 1 5.445050 2.693360 784.634033
529 0 1 5.287240 2.987180 783.735962
530 0 1 5.415800 3.372320 782.851013
531 0 1 5.775680 3.614530 782.007996
532 0 1 6.316360 4.022310 781.276001
533 0 1 6.578950 4.589680 780.613037
534 0 1 6.849420 5.289060 780.054993
535 0 1 7.146821 5.862850 779.325989
536 0 1 7.378713 6.463970 778.591980
537 0 1 7.260492 6.994770 777.801025
538 0 1 7.276218 7.558164 777.004028
539 0 1 7.272237 7.638858 775.976013
540 0 1 7.217653 7.895347 775.033020
541 0 1 7.031630 7.995780 774.085999
542 0 1 6.973450 7.879530 773.146973
543 0 1 7.016913 7.798055 772.214966
544 0 1 6.914290 7.967554 771.257996
545 0 1 6.710250 8.363936 770.377991
546 0 1 6.969680 8.766977 769.539978
547 0 1 6.809020 9.138630 768.666016
548 0 1 6.564280 9.517490 767.716003
549 0 1 6.444590 9.952600 766.869019
550 0 1 6.240740 10.472440 766.046997
551 0 1 5.811350 11.075439 765.511963
552 0 1 5.180440 11.212430 764.768005
553 0 1 4.661050 11.198071 763.898987
554 0 1 4.349700 11.123590 763.013000
555 0 1 4.150660 10.831450 762.101013
556 0 1 4.073410 10.914460 761.166016
557 0 1 4.312320 10.591230 760.281982
558 0 1 4.489540 9.944160 759.610962
559 0 1 4.555730 9.714090 758.667969
560 0 1 4.759920 9.593670 757.713989
561 0 1 5.041250 9.384109 756.841980
562 0 1 5.270830 9.115561 755.940002
563 0 1 5.705410 9.054300 755.049988
564 0 1 6.460760 9.107420 754.403015
565 0 1 7.085241 8.961468 753.674988
566 0 1 7.723429 8.813759 752.968018
567 0 1 8.401283 8.679058 752.343994
568 0 1 9.172680 8.687870 751.749023
569 0 1 9.831450 8.619826 751.098022
570 0 1 10.363810 8.686983 750.291992
571 0 1 10.842100 8.939742 749.460022
572 0 1 11.542200 8.808233 748.693970
573 0 1 11.807800 8.661346 747.822998
574 0 1 12.021270 8.541110 746.882019
575 0 1 12.114730 8.453341 745.908020
576 0 1 12.294950 8.331703 744.948975
577 0 1 12.554480 8.303744 744.075989
578 0 1 12.878941 8.410705 743.124023
579 0 1 13.257720 8.640028 742.211975
580 0 1 13.438470 8.560416 741.219971
581 0 1 13.425880 8.536978 740.197021
582 0 1 13.325510 8.743034 739.273010
583 0 1 13.370490 9.117300 738.432007
584 0 1 13.468590 9.285770 737.495972
585 0 1 13.312130 9.046690 736.638977
586 0 1 13.304370 9.000870 735.681030
587 0 1 13.241050 9.140310 734.697998
588 0 1 13.101490 9.251630 733.820007
589 0 1 13.057420 9.740280 732.986023
590 0 1 12.899361 10.140500 732.120972
591 0 1 12.777690 10.349890 731.181030
592 0 1 12.636150 10.629010 730.270020
593 0 1 12.260450 10.788880 729.343018
594 0 1 12.248410 11.275180 728.475525
595 0 1 12.192400 11.461230 727.530518
596 0 1 11.813710 11.204830 726.582214
597 0 1 11.252850 11.287940 725.751892
598 0 1 10.808280 11.363190 724.903320
599 0 1 10.432190 11.447110 724.059082
600 0 1 10.314520 11.799450 723.233521
601 0 1 10.189130 12.050250 722.221313
602 0 1 9.997770 12.109110 721.278625
603 0 1 9.664750 12.316730 720.404175
604 0 1 9.545630 12.358210 719.511780
605 0 1 9.501260 12.515870 718.529602
606 0 1 9.474120 12.444750 717.604126
607 0 1 9.611360 12.531771 716.703125
608 0 1 9.753520 12.561240 715.741211
609 0 1 9.751360 12.573550 714.700073
610 0 1 9.600040 12.531031 713.763916
611 0 1 9.327790 12.623520 712.816589
612 0 1 9.153749 12.884109 711.888428
613 0 1 8.660763 12.983770 711.143066
614 0 1 8.005833 12.864290 710.462769
615 0 1 7.381460 12.739670 709.737610
616 0 1 6.826630 12.769239 709.019897
617 0 1 6.510470 12.729760 708.070190
618 0 1 6.051300 12.496410 707.282776
619 0 1 5.709910 12.259330 706.459778
620 0 1 5.653240 11.777440 705.661621
621 0 1 5.602210 11.542470 704.677673
622 0 1 5.351740 11.293540 703.745483
623 0 1 5.218410 10.930290 702.793396
624 0 1 4.913350 10.728400 701.929993
625 0 1 4.364710 10.577620 701.044067
626 0 1 4.051370 10.219090 700.205933
627 0 1 3.800000 9.815260 699.384033
628 0 1 3.471380 9.720660 698.467590
629 0 1 3.347500 9.708840 697.530029
630 0 1 3.186510 9.650040 696.626709
631 0 1 3.059090 9.521049 695.737183
632 0 1 3.222910 9.295170 694.775696
633 0 1 3.157290 9.498631 693.833008
634 0 1 3.105500 9.666389 692.939087
635 0 1 3.307840 9.900350 692.029480
636 0 1 3.585460 9.895400 691.104004
637 0 1 3.755840 9.700350 690.226379
638 0 1 3.844190 9.499790 689.226379
639 0 1 4.056990 9.688350 688.334473
640 0 1 4.161630 9.665320 687.371826
641 0 1 4.399090 9.540500 686.472595
642 0 1 4.758190 9.428810 685.543823
643 0 1 5.236230 9.540900 684.744995
644 0 1 5.884200 9.721720 683.984680
645 0 1 6.450480 9.928170 683.225098
646 0 1 7.016663 10.124070 682.390991
647 0 1 7.669706 10.163100 681.683289
648 0 1 8.195134 9.959070 680.920898
649 0 1 8.800233 9.777170 680.203369
650 0 1 9.338690 9.641250 679.412109
651 0 1 9.785450 9.480920 678.576416
652 0 1 10.235090 9.257170 677.787476
653 0 1 10.693240 9.093150 676.973511
654 0 1 11.105830 9.019160 676.099121
655 0 1 11.540180 9.101060 675.195801
656 0 1 11.958730 9.340330 674.385132
657 0 1 12.170000 9.603550 673.487427
658 0 1 12.420530 9.580180 672.557800
659 0 1 12.629470 9.643840 671.624573
660 0 1 12.659890 9.984320 670.759521
661 0 1 13.000450 10.417749 670.019775
662 0 1 13.288660 10.802800 669.153687
663 0 1 13.645540 11.045810 668.341919
664 0 1 13.930770 11.056829 667.430420
665 0 1 14.287069 10.883830 666.552673
666 0 1 14.109050 10.940690 665.614807
667 0 1 13.936550 11.070190 664.691284
668 0 1 13.626090 11.203840 663.754211
669 0 1 13.239059 11.141560 662.927490
670 0 1 13.016520 11.109660 661.981079
671 0 1 12.627280 11.363791 661.137085
672 0 1 12.563560 11.360370 660.231018
673 0 1 12.369380 11.399220 659.259216
674 0 1 12.203421 11.591530 658.289307
675 0 1 12.067300 11.921830 657.474609
676 0 1 12.110470 12.119630 656.523193
677 0 1 12.225950 12.213890 655.580994
678 0 1 12.214750 12.149910 654.625183
679 0 1 12.194640 12.056231 653.603821
680 0 1 12.359100 11.765010 652.733887
681 0 1 12.743151 11.815150 651.796631
682 0 1 12.873370 11.750270 650.785583
683 0 1 12.985390 11.737540 649.835571
684 0 1 12.980380 11.597660 648.805725
685 0 1 12.566060 11.496680 647.911316
686 0 1 12.502581 11.159830 646.990173
687 0 1 12.619820 10.829880 646.134583
688 0 1 12.803989 10.534530 645.304077
689 0 1 12.967990 10.066230 644.431091
690 0 1 12.881371 9.431660 643.606323
691 0 1 12.724670 8.908551 642.774597
692 0 1 12.706620 8.474110 641.924988
693 0 1 12.643940 7.973480 641.092285
694 0 1 12.480810 7.481734 640.318604
695 0 1 12.300220 7.008258 639.502502
696 0 1 12.117220 6.619760 638.649719
697 0 1 11.882140 6.163290 637.860596
698 0 1 11.533830 5.890960 637.050110
699 0 1 11.054180 5.698650 636.240356
700 0 1 10.771870 5.595040 635.316772
701 0 1 10.644600 5.279010 634.462891
702 0 1 10.390260 5.018170 633.561096
703 0 1 10.237650 4.484390 632.843018
704 0 1 10.145630 4.022470 631.983521
705 0 1 10.207251 3.596360 631.065369
706 0 1 10.370890 3.490390 630.088623
707 0 1 10.335340 3.506880 629.105957
708 0 1 10.225950 3.173820 628.214600
709 0 1 9.904819 3.112560 627.375610
710 0 1 9.547810 3.136260 626.458618
711 0 1 9.355810 3.190440 625.494080
712 0 1 9.228350 2.922540 624.495728
713 0 1 9.292470 2.501960 623.589111
714 0 1 9.669700 2.252450 622.762268
715 0 1 10.184620 2.506860 622.002686
716 0 1 10.518490 2.924240 621.204895
717 0 1 10.760241 3.332290 620.422668
718 0 1 11.099260 3.849600 619.711609
719 0 1 11.659900 4.303860 619.077454
720 0 1 12.160330 4.818490 618.357605
721 0 1 12.221849 5.430440 617.564026
722 0 1 12.380850 5.881830 616.768005
723 0 1 12.672760 6.350610 615.982117
724 0 1 12.925650 6.653690 615.093506
725 0 1 13.118020 6.935830 614.205383
726 0 1 13.331329 7.277040 613.299500
727 0 1 13.761670 7.957978 612.758179
728 0 1 14.255830 8.341178 612.082520
729 0 1 14.479250 8.635281 611.170227
730 0 1 14.441840 8.963963 610.309570
731 0 1 14.441710 9.214250 609.356812
732 0 1 14.207410 9.650740 608.501221
733 0 1 13.753201 10.164000 607.895691
734 0 1 13.159690 10.579870 607.234680
735 0 1 12.730050 10.877029 606.370605
736 0 1 12.216330 10.938690 605.601929
737 0 1 11.844240 11.022400 604.707520
738 0 1 11.501250 11.058160 603.814819
739 0 1 11.485810 11.353770 602.852478
740 0 1 11.807060 11.447880 602.023682
741 0 1 12.180750 11.348340 601.092224
742 0 1 12.817690 11.234450 600.322815
743 0 1 13.191760 10.969400 599.388184
744 0 1 13.436680 10.601940 598.543213
745 0 1 13.755650 10.523360 597.642517
746 0 1 13.893270 10.265511 596.721069
747 0 1 13.974530 9.708310 595.945374
748 0 1 13.898310 9.286020 595.149170
749 0 1 13.858410 8.739944 594.429932
750 0 1 13.880529 7.914435 593.859375
751 0 1 13.907590 6.939310 593.480225
752 0 1 13.646800 6.025260 593.305725
753 0 1 13.311600 5.221020 592.897705
754 0 1 13.002180 4.555540 592.290771
755 0 1 12.624350 3.998900 591.674500
756 0 1 12.369980 3.498640 590.848389
757 0 1 12.027570 3.139590 589.973877
758 0 1 11.656050 2.862930 589.127930
759 0 1 11.319099 2.912780 588.198730
760 0 1 11.037240 3.351540 587.320679
761 0 1 10.702650 3.748550 586.538513
762 0 1 10.278500 4.215450 585.806030
763 0 1 9.858300 4.629560 585.085693
764 0 1 9.338550 4.911070 584.304932
765 0 1 8.686490 5.061090 583.542969
766 0 1 8.030368 4.993730 582.840820
767 0 1 7.548480 4.678700 582.050781
768 0 1 7.010762 4.685240 581.187988
769 0 1 6.618420 4.786560 580.301025
770 0 1 6.303670 5.237840 579.507324
771 0 1 6.082060 5.890210 578.778687
772 0 1 6.018440 6.434330 577.989868
773 0 1 5.902870 7.132015 577.241882
774 0 1 5.872310 7.634047 576.323608
775 0 1 5.886500 8.041870 575.457886
776 0 1 5.728040 8.365029 574.537476
777 0 1 5.671340 8.381694 573.555603
778 0 1 5.897940 8.689122 572.661194
779 0 1 6.366920 8.803542 571.739868
780 0 1 6.658190 9.157060 570.833496
781 0 1 6.871430 9.487460 569.893494
782 0 1 7.075454 9.835360 568.982788
783 0 1 7.557752 10.327600 568.198730
784 0 1 7.746457 10.687880 567.356201
785 0 1 7.724099 11.200080 566.556702
786 0 1 7.843068 11.754040 565.793579
787 0 1 8.001384 12.260640 565.003113
788 0 1 7.773519 12.677710 564.185791
789 0 1 7.373877 12.956100 563.326721
790 0 1 6.975910 13.064671 562.477295
791 0 1 6.512140 13.231530 561.663208