LAMMPS data file via MDAnalysis

        1000  atoms
        1000  bonds
        1000  angles
           0  dihedrals
           0  impropers

           1  atom types
           1  bond types
           1  angle types
           0  dihedral types
           0  improper types

0.000000 16.000000 xlo xhi
0.000000 16.000000 ylo yhi
0.000000 1257.000000 zlo zhi


Masses

1 1.000000

Atoms

1 0 1 10.192710 11.973830 459.399994
2 0 1 9.716560 12.606569 459.975006
3 0 1 9.443390 13.148399 460.666016
4 0 1 9.162910 13.694860 461.432983
5 0 1 8.699117 13.906420 462.364014
6 0 1 8.426151 14.103210 463.289978
7 0 1 7.842990 14.111190 464.080994
8 0 1 7.403409 14.167540 464.960022
9 0 1 7.303159 14.025290 465.931000
10 0 1 7.330927 14.008060 466.919006
11 0 1 7.338071 13.883090 467.884003
12 0 1 7.695422 13.623199 468.778015
13 0 1 8.227582 13.384410 469.578979
14 0 1 8.790676 13.569540 470.325012
15 0 1 9.269590 13.528030 471.145020
16 0 1 9.464320 13.521851 472.080994
17 0 1 9.597990 13.713400 472.983002
18 0 1 9.665240 13.823370 474.009003
19 0 1 9.625650 14.227221 474.929016
20 0 1 9.381550 14.267500 475.906006
21 0 1 9.377150 13.762000 476.699005
22 0 1 9.287230 13.075130 477.335999
23 0 1 9.172600 12.336929 477.942017
24 0 1 9.102270 11.467670 478.520996
25 0 1 9.068270 10.862010 479.294983
26 0 1 9.110450 10.352030 480.026978
27 0 1 9.132760 9.790260 480.751007
28 0 1 9.194050 9.311600 481.552002
29 0 1 9.113910 8.821543 482.352997
30 0 1 9.498980 8.533279 483.216003
31 0 1 9.769840 8.405217 484.088013
32 0 1 10.119670 8.263373 484.994995
33 0 1 10.543630 8.453351 485.804016
34 0 1 10.954910 8.465112 486.667999
35 0 1 11.232550 8.485992 487.585022
36 0 1 11.588290 8.607450 488.463989
37 0 1 11.407280 8.536426 489.436005
38 0 1 11.002110 8.334447 490.307983
39 0 1 10.580650 8.274499 491.190002
40 0 1 10.217609 7.945216 491.988007
41 0 1 9.719090 7.505865 492.658020
42 0 1 9.571720 6.978200 493.416016
43 0 1 9.241050 6.463070 494.153015
44 0 1 8.980661 6.088590 495.028992
45 0 1 9.117640 5.706500 495.877014
46 0 1 9.185420 5.377580 496.865997
47 0 1 9.421370 5.034140 497.716980
48 0 1 9.813740 4.719750 498.513000
49 0 1 10.047359 4.223350 499.376007
50 0 1 10.287519 3.690350 500.130005
51 0 1 10.622540 3.205250 500.942993
52 0 1 10.636680 3.098420 501.921997
53 0 1 10.886971 2.762030 502.794983
54 0 1 11.079300 2.749590 503.709991
55 0 1 11.323360 2.940950 504.597992
56 0 1 11.865630 3.163190 505.346008
57 0 1 12.211070 3.570980 506.205994
58 0 1 12.481160 3.965970 507.070984
59 0 1 12.798730 4.409870 507.808990
60 0 1 12.972020 4.977110 508.588013
61 0 1 13.039380 5.657760 509.386993
62 0 1 13.233510 6.128120 510.167999
63 0 1 13.286261 6.558620 511.059998
64 0 1 13.304131 6.980200 511.955994
65 0 1 12.916470 7.292414 512.794006
66 0 1 12.740370 7.360033 513.760986
67 0 1 12.691010 7.598243 514.728027
68 0 1 12.906000 7.690595 515.666016
69 0 1 12.845190 7.980534 516.580994
70 0 1 12.686940 7.930502 517.531982
71 0 1 12.332380 7.875972 518.437988
72 0 1 12.107430 7.853714 519.361023
73 0 1 11.899270 7.803715 520.289001
74 0 1 11.697780 7.996846 521.189026
75 0 1 11.326300 8.002866 522.150024
76 0 1 10.827660 8.027099 522.932983
77 0 1 10.202790 7.886317 523.596008
78 0 1 9.482930 7.854611 524.205994
79 0 1 8.699740 7.829062 524.643982
80 0 1 8.015730 7.868953 525.341980
81 0 1 7.434500 7.673281 526.083984
82 0 1 6.913640 7.462107 526.843018
83 0 1 6.413540 7.168928 527.620972
84 0 1 6.002770 6.777990 528.426025
85 0 1 5.516350 6.359730 529.239807
86 0 1 5.087650 5.983210 530.030273
87 0 1 4.690740 5.286080 530.622681
88 0 1 4.489550 4.597230 531.226074
89 0 1 4.074680 4.112610 531.945618
90 0 1 3.748610 3.831780 532.864197
91 0 1 3.675330 3.780770 533.809387
92 0 1 3.826450 3.988710 534.744324
93 0 1 4.121070 3.889630 535.746521
94 0 1 4.432170 3.769460 536.618225
95 0 1 4.779700 3.704000 537.556030
96 0 1 5.337390 3.630020 538.321533
97 0 1 5.703000 3.576600 539.154114
98 0 1 5.818720 3.182660 539.985229
99 0 1 5.669190 2.840730 540.887085
100 0 1 5.333220 2.873310 541.781311
101 0 1 5.120530 2.713050 542.700378
102 0 1 4.910260 2.714640 543.668274
103 0 1 4.702700 2.789720 544.632324
104 0 1 4.561850 2.972700 545.567627
105 0 1 4.273020 3.235110 546.387695
106 0 1 4.191350 3.556590 547.281189
107 0 1 4.038020 4.108760 548.065491
108 0 1 4.112790 4.724200 548.878296
109 0 1 4.475880 5.120560 549.689087
110 0 1 4.655730 5.200250 550.666321
111 0 1 5.186400 5.056570 551.428223
112 0 1 5.945880 5.202990 552.108521
113 0 1 6.742150 5.340330 552.587891
114 0 1 7.485755 5.216670 553.154480
115 0 1 8.195598 5.266870 553.927124
116 0 1 8.792951 5.184110 554.698608
117 0 1 9.384410 5.169680 555.460327
118 0 1 9.552980 5.435970 556.410278
119 0 1 9.620540 5.790420 557.392578
120 0 1 9.917290 6.098050 558.277893
121 0 1 10.177999 6.393630 559.205688
122 0 1 10.214621 6.502300 560.155701
123 0 1 10.260469 6.687800 561.092773
124 0 1 10.456930 6.698540 562.054016
125 0 1 10.426200 6.757530 562.977722
126 0 1 10.293400 6.694470 563.918823
127 0 1 9.975530 6.277140 564.784607
128 0 1 9.524750 5.834340 565.476501
129 0 1 8.950280 5.676960 566.231323
130 0 1 8.217689 5.674590 566.849976
131 0 1 7.683777 5.763810 567.613525
132 0 1 7.048270 5.536120 568.294922
133 0 1 6.774610 5.011370 569.101013
134 0 1 6.415950 4.964700 569.967529
135 0 1 5.960310 5.164130 570.809082
136 0 1 5.504790 5.319990 571.644592
137 0 1 5.328670 5.231400 572.547485
138 0 1 5.204620 5.118970 573.502808
139 0 1 5.276040 5.043210 574.464905
140 0 1 5.268500 5.024890 575.419373
141 0 1 5.321210 5.229660 576.380615
142 0 1 5.356960 5.379490 577.340027
143 0 1 5.612580 5.563210 578.242004
144 0 1 5.971940 5.916160 579.045105
145 0 1 5.882970 6.221920 579.996277
146 0 1 5.561530 6.574310 580.843018
147 0 1 5.182500 6.845820 581.676880
148 0 1 4.458190 6.892880 582.452087
149 0 1 3.885790 6.553410 583.136902
150 0 1 3.601530 6.163030 584.039307
151 0 1 3.108250 5.912790 584.898193
152 0 1 2.763310 5.886850 585.774414
153 0 1 2.381490 6.066650 586.655029
154 0 1 1.979680 6.514130 587.383484
155 0 1 1.869280 6.883010 588.303528
156 0 1 1.946980 7.533766 589.029175
157 0 1 1.963830 7.850622 589.859375
158 0 1 2.017450 7.938645 590.787415
159 0 1 2.164730 7.854880 591.798218
160 0 1 2.634790 7.738289 592.694519
161 0 1 3.051410 7.557690 593.612122
162 0 1 3.467580 7.465211 594.490112
163 0 1 4.131250 7.488995 595.174194
164 0 1 4.312840 7.635810 596.174805
165 0 1 4.507350 7.825847 597.077393
166 0 1 4.676900 8.014573 598.005127
167 0 1 4.566700 8.409384 598.849915
168 0 1 4.595090 8.900154 599.633911
169 0 1 4.501190 9.475690 600.382019
170 0 1 4.422130 10.203740 601.008972
171 0 1 4.106400 10.773730 601.718628
172 0 1 4.308710 11.429900 602.414795
173 0 1 4.667100 11.876540 603.134216
174 0 1 5.108040 12.233590 603.928101
175 0 1 5.665950 12.147820 604.663574
176 0 1 6.250240 12.102690 605.445984
177 0 1 6.937300 12.018160 606.108704
178 0 1 7.517432 11.509670 606.679810
179 0 1 7.776539 10.818330 607.317200
180 0 1 8.143933 10.190701 607.910400
181 0 1 8.736052 9.671160 608.536804
182 0 1 9.272700 9.335700 609.179810
183 0 1 9.792030 8.952791 609.902710
184 0 1 10.103991 8.451470 610.647522
185 0 1 10.614300 8.261237 611.509705
186 0 1 11.061820 8.281947 612.405701
187 0 1 11.363359 8.425864 613.297180
188 0 1 11.624180 8.663040 614.203491
189 0 1 11.718590 8.763198 615.196899
190 0 1 12.028920 8.659071 616.088806
191 0 1 12.435670 8.384490 616.900208
192 0 1 12.455550 8.076347 617.755310
193 0 1 12.281799 8.095799 618.703735
194 0 1 12.252581 8.405902 619.640137
195 0 1 12.136470 8.758337 620.484680
196 0 1 12.176291 9.200030 621.399658
197 0 1 12.144550 9.858790 622.165588
198 0 1 12.126590 10.451750 622.900635
199 0 1 12.298170 10.790740 623.798706
200 0 1 12.431690 10.806150 624.702698
201 0 1 12.390930 10.840820 625.666565
202 0 1 12.172740 10.805320 626.607544
203 0 1 12.070410 10.568980 627.554688
204 0 1 12.029130 10.416330 628.556641
205 0 1 11.472290 10.464280 629.390076
206 0 1 10.814470 10.739491 630.041687
207 0 1 10.238990 10.951839 630.892578
208 0 1 9.857580 10.923531 631.749695
209 0 1 9.392760 11.195641 632.544250
210 0 1 8.811834 11.485630 633.189941
211 0 1 8.118171 11.813360 633.740784
212 0 1 7.358719 11.921740 634.387695
213 0 1 6.684470 11.819880 635.125671
214 0 1 6.126510 11.738710 635.935486
215 0 1 5.865270 11.698880 636.907288
216 0 1 5.671660 11.719460 637.793640
217 0 1 5.872060 11.915340 638.677002
218 0 1 6.119800 11.982430 639.639404
219 0 1 6.226710 12.381430 640.562195
220 0 1 6.553540 12.505440 641.424988
221 0 1 6.958710 12.684120 642.250977
222 0 1 7.631264 12.669331 643.018311
223 0 1 8.113892 12.654030 643.945312
224 0 1 8.691390 12.625250 644.726074
225 0 1 9.065490 12.209010 645.495789
226 0 1 9.122130 12.068649 646.438904
227 0 1 9.055920 11.753560 647.306702
228 0 1 9.052320 11.749120 648.314819
229 0 1 9.033400 11.474390 649.242493
230 0 1 9.143910 11.361170 650.188416
231 0 1 9.361020 11.316940 651.138489
232 0 1 9.573280 11.137260 652.087280
233 0 1 9.607500 11.454741 653.048096
234 0 1 9.664380 11.855260 653.955688
235 0 1 9.986360 12.034531 654.856323
236 0 1 10.487420 11.918320 655.732117
237 0 1 10.990680 11.719010 656.544922
238 0 1 11.471251 11.316010 657.258606
239 0 1 11.622000 10.610680 658.075012
240 0 1 11.669810 10.010830 658.776184
241 0 1 11.622910 9.691031 659.654114
242 0 1 11.435699 9.226490 660.553406
243 0 1 11.381200 8.930357 661.466797
244 0 1 11.286000 8.508635 662.311890
245 0 1 11.385190 8.149549 663.182678
246 0 1 11.092850 8.367283 664.093201
247 0 1 11.049390 8.511863 664.994690
248 0 1 10.859110 8.743401 665.946594
249 0 1 10.772360 8.925054 666.896301
250 0 1 10.590950 8.847253 667.869629
251 0 1 10.385600 8.879603 668.842529
252 0 1 10.243040 9.047070 669.807190
253 0 1 10.123350 9.093781 670.754211
254 0 1 10.131420 9.121180 671.705322
255 0 1 10.319190 9.227130 672.625305
256 0 1 10.590200 9.095480 673.529724
257 0 1 10.680531 9.034290 674.471985
258 0 1 10.492920 8.924246 675.414673
259 0 1 10.204360 8.811912 676.319214
260 0 1 10.013070 8.741169 677.201721
261 0 1 9.523070 8.610678 678.074219
262 0 1 9.122590 8.372404 678.898804
263 0 1 8.967215 8.357602 679.877319
264 0 1 8.914376 8.607535 680.861084
265 0 1 8.821153 8.678699 681.822083
266 0 1 8.853232 8.839154 682.723083
267 0 1 8.852437 8.867545 683.632996
268 0 1 8.761824 8.606402 684.609131
269 0 1 8.425992 8.455824 685.497009
270 0 1 8.047789 8.454626 686.457703
271 0 1 7.597205 8.890913 687.181885
272 0 1 7.069001 9.319830 687.960388
273 0 1 6.852040 9.768560 688.836670
274 0 1 6.822440 10.299160 689.695068
275 0 1 6.866500 10.549300 690.583191
276 0 1 6.573040 10.731060 691.608704
277 0 1 6.521020 10.768690 692.633423
278 0 1 6.432300 10.960200 693.535095
279 0 1 6.612550 11.103810 694.511597
280 0 1 6.485920 11.190140 695.507812
281 0 1 6.320620 11.302190 696.432129
282 0 1 6.412140 11.062810 697.352905
283 0 1 6.701750 10.897580 698.223022
284 0 1 7.063438 10.735189 699.077698
285 0 1 7.546266 10.365220 699.781006
286 0 1 8.184311 10.150909 700.525085
287 0 1 8.648743 10.097190 701.390076
288 0 1 8.888990 10.204150 702.337219
289 0 1 9.036630 10.441700 703.248718
290 0 1 9.040620 10.670060 704.257080
291 0 1 9.239040 11.142930 705.115417
292 0 1 9.263500 11.325450 706.107605
293 0 1 8.964690 11.296010 707.128601
294 0 1 8.670086 11.249490 708.044983
295 0 1 8.309816 11.285440 708.923706
296 0 1 7.892265 11.352900 709.814209
297 0 1 7.672051 11.269390 710.698486
298 0 1 7.494818 11.135600 711.640686
299 0 1 7.566619 10.670420 712.486572
300 0 1 7.770794 10.508320 713.424072
301 0 1 7.895353 10.287330 714.353516
302 0 1 7.877336 10.262630 715.328125
303 0 1 7.724481 10.291680 716.259399
304 0 1 7.506948 10.698980 717.111206
305 0 1 7.499386 11.236700 717.916809
306 0 1 7.921092 11.652180 718.651978
307 0 1 7.861931 12.246550 719.380798
308 0 1 7.851212 12.856110 720.052490
309 0 1 7.787501 12.944640 721.030579
310 0 1 7.978278 12.719880 721.958130
311 0 1 7.902852 12.637020 722.954224
312 0 1 8.012384 12.296970 723.852905
313 0 1 8.239276 12.044991 724.782288
314 0 1 8.291948 12.050620 725.770691
315 0 1 8.553004 11.913410 726.669006
316 0 1 8.705873 11.606610 727.633484
317 0 1 8.870506 11.541140 728.551025
318 0 1 9.131220 11.627850 729.424988
319 0 1 9.422000 11.605210 730.343018
320 0 1 9.667200 11.515340 731.234985
321 0 1 9.774310 11.247640 732.104004
322 0 1 9.887280 11.057050 733.059021
323 0 1 9.648230 10.975861 734.038025
324 0 1 9.323330 10.937840 734.943970
325 0 1 9.121240 11.250570 735.844971
326 0 1 8.786847 11.406240 736.760986
327 0 1 8.587872 11.475780 737.752014
328 0 1 8.384856 11.670050 738.671021
329 0 1 8.369028 11.565550 739.646973
330 0 1 8.544379 11.765220 740.637024
331 0 1 8.249027 11.973540 741.471985
332 0 1 7.777705 12.256041 742.278992
333 0 1 7.275343 12.665470 742.971985
334 0 1 6.558090 12.816450 743.640015
335 0 1 5.867630 13.132111 744.203003
336 0 1 5.289650 13.154810 744.945984
337 0 1 4.854890 12.967520 745.799011
338 0 1 4.715740 12.626949 746.776001
339 0 1 4.624180 12.282780 747.640015
340 0 1 4.215010 12.215190 748.494995
341 0 1 4.013580 11.865540 749.385986
342 0 1 3.625330 11.589911 750.257019
343 0 1 3.237230 11.378680 751.163025
344 0 1 2.868610 10.938931 751.908020
345 0 1 2.875140 10.385630 752.660034
346 0 1 2.979130 9.712310 753.343018
347 0 1 3.078300 9.199890 754.134033
348 0 1 3.068150 8.536363 754.867004
349 0 1 3.010670 7.975634 755.702026
350 0 1 3.089280 7.376288 756.375000
351 0 1 3.234330 7.056524 757.221985
352 0 1 3.265610 7.033949 758.261963
353 0 1 3.653410 6.791960 759.125977
354 0 1 3.898430 6.766980 760.140991
355 0 1 4.355330 6.737940 760.979004
356 0 1 4.698500 6.848590 761.862000
357 0 1 5.022070 6.769940 762.752014
358 0 1 5.315590 6.338080 763.588989
359 0 1 5.782290 5.886110 764.337036
360 0 1 6.147010 5.648500 765.161987
361 0 1 6.712470 5.218510 765.773010
362 0 1 7.233863 4.741820 766.440979
363 0 1 7.497968 4.692770 767.338013
364 0 1 7.439125 4.504780 768.289978
365 0 1 7.637253 4.487560 769.307983
366 0 1 7.757226 4.726420 770.203979
367 0 1 8.014205 4.849320 771.177979
368 0 1 8.161833 5.032050 772.078979
369 0 1 8.394634 4.994770 773.041016
370 0 1 8.702913 4.611810 773.942993
371 0 1 8.908013 4.238710 774.844971
372 0 1 9.049760 4.075450 775.786011
373 0 1 9.320810 3.753550 776.641968
374 0 1 9.312910 3.399220 777.630005
375 0 1 9.384940 3.377620 778.632019
376 0 1 9.718740 3.345340 779.485962
377 0 1 10.107000 3.628960 780.299988
378 0 1 10.455120 4.013640 781.099976
379 0 1 10.649840 4.338870 782.007996
380 0 1 10.727060 4.708840 782.900024
381 0 1 10.839630 5.160320 783.740967
382 0 1 10.771730 5.079450 784.656982
383 0 1 10.942410 5.164200 785.598022
384 0 1 11.306160 5.199430 786.514038
385 0 1 11.517090 5.137370 787.429993
386 0 1 11.498960 5.093460 788.429016
387 0 1 11.229680 5.262150 789.330994
388 0 1 10.803300 5.580800 790.099976
389 0 1 10.480310 5.485500 790.960999
390 0 1 10.171870 5.403900 791.891968
391 0 1 10.037350 5.084740 792.809021
392 0 1 9.861540 5.191750 793.726013
393 0 1 9.622980 5.059710 794.648987
394 0 1 9.205010 4.885820 795.476013
395 0 1 9.050610 4.884760 796.414978
396 0 1 8.762356 4.914570 797.369995
397 0 1 8.454528 5.200460 798.176025
398 0 1 7.866957 5.160940 798.971008
399 0 1 7.596495 5.154970 799.882996
400 0 1 7.268377 5.179210 800.817993
401 0 1 6.882600 5.003350 801.718994
402 0 1 6.496370 4.991910 802.587036
403 0 1 6.243810 4.848990 803.471985
404 0 1 5.978690 4.863670 804.452026
405 0 1 5.725960 5.021210 805.322998
406 0 1 5.737490 5.327380 806.207031
407 0 1 5.546860 5.668010 807.065002
408 0 1 5.582730 5.943850 807.999023
409 0 1 5.551390 6.366730 808.940002
410 0 1 5.295540 6.615860 809.815979
411 0 1 5.196900 6.698470 810.755005
412 0 1 5.134710 6.559710 811.702026
413 0 1 5.292740 6.398730 812.721008
414 0 1 5.426130 6.077990 813.656982
415 0 1 5.647150 5.752300 814.568970
416 0 1 6.017950 5.474390 815.364990
417 0 1 6.244960 5.377880 816.317017
418 0 1 6.397500 5.178060 817.259033
419 0 1 6.548250 4.882500 818.141968
420 0 1 6.691790 4.631370 819.073975
421 0 1 6.731730 4.639420 820.051025
422 0 1 6.644000 4.443030 821.007996
423 0 1 6.441670 4.454560 821.942017
424 0 1 6.471690 4.584170 822.947998
425 0 1 6.371300 4.516280 823.919983
426 0 1 6.561190 4.386260 824.875977
427 0 1 6.669870 4.154520 825.867981
428 0 1 7.022893 3.857150 826.728027
429 0 1 7.536210 3.417570 827.434021
430 0 1 8.123785 3.023230 828.098022
431 0 1 8.799214 2.632700 828.610962
432 0 1 9.506420 2.348840 829.187988
433 0 1 10.231060 2.287460 829.804016
434 0 1 11.003370 2.484850 830.380005
435 0 1 11.343140 2.881300 831.164978
436 0 1 11.790649 3.299880 831.912964
437 0 1 12.372240 3.656400 832.627014
438 0 1 12.897090 3.573030 833.473022
439 0 1 13.124420 3.580290 834.400024
440 0 1 13.292820 3.920960 835.280029
441 0 1 13.544800 4.156490 836.260010
442 0 1 13.782710 4.331880 837.212036
443 0 1 13.670120 4.529310 838.166992
444 0 1 13.339750 4.860140 838.963989
445 0 1 12.961670 5.080610 839.815002
446 0 1 12.238310 5.440440 840.320007
447 0 1 11.385830 5.704570 840.650024
448 0 1 10.454330 5.750700 840.886963
449 0 1 9.595700 6.199110 840.979980
450 0 1 8.672700 6.499230 841.317017
451 0 1 7.764400 6.671200 841.151001
452 0 1 6.839350 6.781350 840.662964
453 0 1 6.259450 7.183755 840.035034
454 0 1 5.826050 7.546096 839.252014
455 0 1 5.452770 7.940661 838.360962
456 0 1 5.279660 8.381533 837.516968
457 0 1 5.311750 8.476003 836.539001
458 0 1 5.214510 8.607019 835.615967
459 0 1 5.210030 8.522461 834.658997
460 0 1 5.652120 8.368522 833.718994
461 0 1 6.178630 8.255759 832.958008
462 0 1 6.833450 8.124799 832.273010
463 0 1 7.469728 7.915830 831.589966
464 0 1 8.233861 7.739191 830.919006
465 0 1 8.808908 7.860767 830.151001
466 0 1 8.915492 7.985795 829.166016
467 0 1 9.048450 8.070642 828.203979
468 0 1 9.112530 8.086697 827.231018
469 0 1 8.885969 8.128832 826.328979
470 0 1 8.624435 7.797867 825.445984
471 0 1 8.587232 7.262478 824.559998
472 0 1 8.508602 6.673870 823.838013
473 0 1 8.539108 6.517090 822.856995
474 0 1 8.717748 6.573910 821.910034
475 0 1 8.984272 6.672960 821.009033
476 0 1 9.365230 6.793670 820.161987
477 0 1 9.732010 6.962880 819.313965
478 0 1 10.089400 7.199246 818.379028
479 0 1 10.521030 7.640635 817.604980
480 0 1 10.922540 8.132721 816.867004
481 0 1 11.582220 8.306850 816.182983
482 0 1 12.320240 8.554507 815.625977
483 0 1 13.019290 8.656515 815.044983
484 0 1 13.372390 8.500514 814.166992
485 0 1 13.686940 8.464618 813.320984
486 0 1 13.934170 8.614448 812.431030
487 0 1 13.687620 8.878065 811.473999
488 0 1 13.674240 9.374640 810.653015
489 0 1 13.467340 9.822470 809.823975
490 0 1 13.367620 10.019040 808.799988
491 0 1 13.579470 10.481050 808.063965
492 0 1 13.807970 10.791960 807.135986
493 0 1 13.896600 10.773900 806.221008
494 0 1 13.956520 10.702950 805.275024
495 0 1 14.073650 10.526300 804.315002
496 0 1 14.361910 10.413720 803.436035
497 0 1 14.483120 10.183929 802.565979
498 0 1 14.300180 9.677450 801.765015
499 0 1 14.006519 9.497530 800.833984
500 0 1 13.500980 9.465760 800.018005
501 0 1 13.027840 9.657460 799.139038
502 0 1 12.614230 9.789760 798.257996
503 0 1 12.519461 9.898970 797.304993
504 0 1 12.524570 10.093030 796.369995
505 0 1 12.351740 10.035590 795.427002
506 0 1 12.338640 10.169210 794.401978
507 0 1 12.364780 10.455009 793.434998
508 0 1 12.292170 10.629050 792.485962
509 0 1 12.407750 10.726910 791.500000
510 0 1 12.537120 10.979919 790.510986
511 0 1 12.576241 11.087210 789.599976
512 0 1 12.802150 11.079560 788.639038
513 0 1 13.020220 10.742160 787.742981
514 0 1 13.052691 10.412370 786.799011
515 0 1 12.970340 10.248199 785.898010
516 0 1 12.793020 10.076560 784.942017
517 0 1 12.608339 9.882401 784.025024
518 0 1 12.442390 9.789780 782.973999
519 0 1 12.246910 9.572390 782.067993
520 0 1 11.867630 9.244120 781.221008
521 0 1 11.452300 8.961440 780.401001
522 0 1 10.886990 8.787764 779.651978
523 0 1 10.926929 8.729714 778.708008
524 0 1 10.860210 8.437265 777.807007
525 0 1 10.845420 8.157428 776.885986
526 0 1 10.571320 7.730658 775.994019
527 0 1 10.714560 7.813640 775.070984
528 0 1 10.855160 7.743891 774.039001
529 0 1 10.818860 7.811883 773.113037
530 0 1 10.740410 8.119281 772.228027
531 0 1 10.515810 8.487910 771.332031
532 0 1 10.433210 9.018540 770.525024
533 0 1 10.425310 9.392700 769.708008
534 0 1 10.222940 9.820280 768.875000
535 0 1 9.979700 10.382150 768.098999
536 0 1 9.648080 10.850990 767.403015
537 0 1 9.252580 11.483050 766.815979
538 0 1 8.893479 11.901200 766.044983
539 0 1 8.750811 12.473220 765.169983
540 0 1 8.451884 13.065490 764.406982
541 0 1 8.148243 13.463910 763.627014
542 0 1 7.935527 13.708830 762.726013
543 0 1 7.422589 13.881650 761.981995
544 0 1 6.754670 14.063900 761.323975
545 0 1 6.431480 14.230780 760.432007
546 0 1 6.297860 14.264530 759.452026
547 0 1 6.187700 14.287080 758.442993
548 0 1 6.151320 14.070360 757.514038
549 0 1 6.203090 13.678130 756.608032
550 0 1 6.087210 13.080669 755.864014
551 0 1 5.987520 12.708600 754.992981
552 0 1 5.616450 12.440750 754.039978
553 0 1 5.185590 12.272070 753.231018
554 0 1 4.654120 11.944920 752.515991
555 0 1 4.303050 11.311520 751.891968
556 0 1 4.397350 10.849020 751.049988
557 0 1 4.706500 10.829070 750.106995
558 0 1 5.147980 10.586760 749.268005
559 0 1 5.792530 10.307090 748.640991
560 0 1 6.445640 9.807820 748.134033
561 0 1 7.018586 9.182290 747.663025
562 0 1 7.445374 8.494921 747.135986
563 0 1 7.502661 8.112809 746.205017
564 0 1 7.578843 7.864654 745.283997
565 0 1 7.659479 7.746801 744.341003
566 0 1 7.766266 7.699864 743.354004
567 0 1 7.855047 7.858436 742.393982
568 0 1 7.992428 8.190470 741.476990
569 0 1 8.183457 8.539864 740.589966
570 0 1 8.342767 8.885499 739.729980
571 0 1 8.576940 9.140510 738.771973
572 0 1 8.477012 9.556110 737.888977
573 0 1 8.157995 9.991890 737.010986
574 0 1 7.740710 10.060801 736.177979
575 0 1 7.281905 10.113820 735.348999
576 0 1 6.783570 10.172190 734.535034
577 0 1 6.082520 9.767040 733.890991
578 0 1 5.795760 9.495610 733.059998
579 0 1 5.660180 9.136280 732.210022
580 0 1 5.466320 8.603284 731.408997
581 0 1 5.351580 8.195135 730.577026
582 0 1 5.084510 7.821098 729.736023
583 0 1 4.756060 7.470315 728.888977
584 0 1 4.174930 7.238586 728.155396
585 0 1 3.758420 7.071250 727.327026
586 0 1 3.315770 6.837150 726.478699
587 0 1 3.201850 6.404080 725.674927
588 0 1 3.038430 6.139780 724.804321
589 0 1 3.258510 6.109840 723.857300
590 0 1 3.562170 6.136400 722.936768
591 0 1 4.055600 6.027970 722.152100
592 0 1 4.393700 6.139420 721.219788
593 0 1 4.539960 6.517870 720.349121
594 0 1 4.863020 6.761630 719.467529
595 0 1 5.342250 6.791840 718.565674
596 0 1 5.638040 6.807080 717.680603
597 0 1 6.057780 6.814930 716.723389
598 0 1 6.253180 7.100778 715.816528
599 0 1 6.518450 7.710735 715.146423
600 0 1 6.706160 8.296596 714.386719
601 0 1 7.312339 8.686028 713.748108
602 0 1 7.885208 9.187630 713.156006
603 0 1 8.385962 9.469340 712.376282
604 0 1 8.879537 9.761520 711.563721
605 0 1 9.193560 9.757810 710.688293
606 0 1 9.662640 9.697120 709.764587
607 0 1 10.035400 9.563970 708.940979
608 0 1 10.317970 8.987055 708.184387
609 0 1 10.546680 8.373257 707.488586
610 0 1 10.503630 7.766421 706.664978
611 0 1 10.313990 7.167342 705.874023
612 0 1 10.044350 6.716300 704.964478
613 0 1 9.825730 6.224960 704.171997
614 0 1 9.866860 5.707360 703.355225
615 0 1 9.931360 5.071570 702.649597
616 0 1 10.041130 4.331860 702.085693
617 0 1 10.263730 3.898870 701.231079
618 0 1 10.644690 3.869670 700.286377
619 0 1 11.062000 3.965390 699.381409
620 0 1 11.425380 3.727380 698.541687
621 0 1 11.729800 3.585490 697.608521
622 0 1 11.865310 3.810860 696.708618
623 0 1 12.071890 4.323850 695.867493
624 0 1 12.181971 4.444600 694.858887
625 0 1 12.331680 4.517550 693.926086
626 0 1 12.402150 4.570530 692.980408
627 0 1 12.193890 4.818300 691.983398
628 0 1 12.165920 5.078280 691.020020
629 0 1 12.375760 5.505770 690.196472
630 0 1 12.563580 5.920130 689.287720
631 0 1 12.494490 6.127130 688.253113
632 0 1 12.306760 6.157230 687.319214
633 0 1 12.209290 6.199770 686.372375
634 0 1 11.852040 6.298860 685.497498
635 0 1 11.644920 6.520220 684.544006
636 0 1 11.224490 6.269540 683.664307
637 0 1 10.929490 6.163470 682.770630
638 0 1 10.712800 5.836500 681.861023
639 0 1 10.686510 5.781290 680.912292
640 0 1 10.451450 5.658730 679.996704
641 0 1 10.249820 5.536770 679.057922
642 0 1 10.146830 5.452750 678.126404
643 0 1 10.257240 5.401080 677.127991
644 0 1 10.085530 5.314930 676.151428
645 0 1 9.792190 5.363340 675.226013
646 0 1 9.515450 5.191130 674.242004
647 0 1 9.615040 4.986960 673.303101
648 0 1 9.843330 4.796580 672.299805
649 0 1 10.151840 4.447820 671.501099
650 0 1 10.142760 4.293540 670.571594
651 0 1 9.954550 3.964160 669.667786
652 0 1 9.758801 3.469910 668.748718
653 0 1 9.753670 3.157990 667.856995
654 0 1 9.963580 2.760400 666.942078
655 0 1 10.157940 2.660300 666.036377
656 0 1 9.785830 2.514100 665.093323
657 0 1 9.654580 2.573200 664.171082
658 0 1 9.370980 2.852460 663.295288
659 0 1 9.140220 3.052370 662.326599
660 0 1 8.867188 3.537170 661.558105
661 0 1 8.726492 3.951200 660.723511
662 0 1 8.809534 4.220170 659.763000
663 0 1 8.982196 4.505820 658.818481
664 0 1 9.299080 4.648210 657.964478
665 0 1 9.906210 4.857980 657.333801
666 0 1 10.440660 5.326250 656.654114
667 0 1 10.670470 5.865200 655.820129
668 0 1 10.922590 6.400230 655.085510
669 0 1 11.105200 7.079382 654.365906
670 0 1 11.223010 7.631313 653.608521
671 0 1 11.153049 8.024747 652.717224
672 0 1 10.786140 8.484559 651.940918
673 0 1 10.396640 8.687831 651.063782
674 0 1 10.289030 9.012600 650.186890
675 0 1 10.193970 9.257070 649.280701
676 0 1 10.287600 8.984553 648.351318
677 0 1 10.376950 8.709832 647.434021
678 0 1 10.418780 8.690349 646.490479
679 0 1 10.204340 8.328975 645.607605
680 0 1 10.088870 7.883989 644.773376
681 0 1 9.865990 7.677734 643.846924
682 0 1 9.547240 7.408991 642.843872
683 0 1 9.265830 7.378405 641.944702
684 0 1 9.022980 7.385540 641.019714
685 0 1 8.626040 7.569109 640.147583
686 0 1 8.170910 7.728278 639.312927
687 0 1 7.712000 7.833238 638.442322
688 0 1 7.305665 7.789005 637.513245
689 0 1 7.242653 7.779227 636.563904
690 0 1 7.227069 7.862534 635.648071
691 0 1 6.716380 7.970855 634.806458
692 0 1 6.302330 8.060503 633.967590
693 0 1 6.054300 8.164067 633.062195
694 0 1 5.780980 8.502081 632.239380
695 0 1 5.502480 8.960422 631.513977
696 0 1 4.910980 9.528419 631.032166
697 0 1 4.408010 10.300520 630.724915
698 0 1 3.891110 11.003630 630.184204
699 0 1 3.482740 11.592150 629.505615
700 0 1 3.080770 11.837880 628.649536
701 0 1 3.059030 11.995640 627.640320
702 0 1 3.025250 11.946510 626.725342
703 0 1 3.225620 11.961910 625.773254
704 0 1 3.294040 11.793210 624.774414
705 0 1 3.646880 11.896530 623.926575
706 0 1 4.019410 11.851810 623.072998
707 0 1 4.508840 12.173531 622.195312
708 0 1 5.025870 12.282030 621.353455
709 0 1 5.559770 12.178780 620.535583
710 0 1 5.988330 11.791190 619.713745
711 0 1 6.102780 11.272960 618.893005
712 0 1 6.024390 11.144600 617.986084
713 0 1 5.857320 11.066720 617.046021
714 0 1 5.856740 11.231950 616.100281
715 0 1 6.242010 11.324900 615.170105
716 0 1 6.757580 11.434780 614.370117
717 0 1 7.096722 11.629100 613.541077
718 0 1 7.593705 12.008830 612.756409
719 0 1 8.217442 12.167931 611.973511
720 0 1 8.995358 12.200100 611.350098
721 0 1 9.799600 12.218290 610.813721
722 0 1 10.464270 12.210640 610.046692
723 0 1 10.613359 12.053610 609.113403
724 0 1 10.688840 11.649100 608.260803
725 0 1 10.387130 11.430490 607.350098
726 0 1 10.303180 11.130301 606.435120
727 0 1 9.853559 10.950000 605.648376
728 0 1 9.456280 10.799270 604.741516
729 0 1 9.002000 10.598010 603.944214
730 0 1 8.572400 10.122210 603.258484
731 0 1 8.152433 9.509760 602.618103
732 0 1 7.936344 9.299810 601.681580
733 0 1 7.556905 8.915596 600.888306
734 0 1 7.181683 8.733170 600.020325
735 0 1 6.886890 8.610262 599.093201
736 0 1 6.725580 8.641291 598.127014
737 0 1 6.334480 8.595217 597.246704
738 0 1 6.080460 8.988807 596.441711
739 0 1 5.573190 9.426850 595.766907
740 0 1 5.205630 10.020490 595.050110
741 0 1 4.962520 10.611150 594.389404
742 0 1 5.007730 11.191441 593.638184
743 0 1 5.261920 11.408960 592.693909
744 0 1 5.320050 11.417410 591.736877
745 0 1 5.092830 11.353060 590.839783
746 0 1 4.761100 11.288950 589.889526
747 0 1 4.287540 11.266670 588.969910
748 0 1 4.008890 11.031360 587.983826
749 0 1 3.981200 10.540470 587.228027
750 0 1 4.160450 9.857250 586.559082
751 0 1 4.201460 9.254710 585.847168
752 0 1 4.323830 8.548225 585.241089
753 0 1 4.653630 7.855816 584.689514
754 0 1 5.177010 7.310051 584.143677
755 0 1 5.677800 6.934450 583.433289
756 0 1 6.018440 6.447440 582.711487
757 0 1 6.462460 6.067960 581.921631
758 0 1 7.016991 5.904060 581.174622
759 0 1 7.334900 5.650450 580.311218
760 0 1 7.633913 5.304600 579.489075
761 0 1 7.739330 4.899680 578.491089
762 0 1 7.541060 4.641440 577.523926
763 0 1 7.327994 4.587990 576.479614
764 0 1 7.096332 4.457560 575.561707
765 0 1 7.447528 4.383390 574.685486
766 0 1 7.904308 4.366280 573.851990
767 0 1 8.457232 4.550470 573.055481
768 0 1 8.834030 5.044070 572.332092
769 0 1 9.341510 5.638600 571.812622
770 0 1 10.007370 6.240530 571.434509
771 0 1 10.607320 6.594590 570.844971
772 0 1 10.923170 6.784920 569.981812
773 0 1 11.150520 6.953420 568.994324
774 0 1 10.966610 6.918440 568.004700
775 0 1 10.898140 7.128760 567.048706
776 0 1 10.557040 7.213534 566.158081
777 0 1 9.963740 7.242422 565.386780
778 0 1 9.578600 7.358633 564.342590
779 0 1 9.270670 7.186824 563.409668
780 0 1 9.121080 7.133398 562.495422
781 0 1 8.841695 7.319855 561.634521
782 0 1 8.813620 7.644416 560.724731
783 0 1 8.826168 7.903618 559.822693
784 0 1 8.632660 8.242851 558.914307
785 0 1 8.773158 8.758963 558.181519
786 0 1 9.037240 9.273410 557.349182
787 0 1 9.129750 9.872800 556.592773
788 0 1 9.322140 10.294730 555.797974
789 0 1 9.485050 10.446810 554.855591