LAMMPS data file via MDAnalysis

        1000  atoms
        1000  bonds
        1000  angles
           0  dihedrals
           0  impropers

           1  atom types
           1  bond types
           1  angle types
           0  dihedral types
           0  improper types

0.000000 16.000000 xlo xhi
0.000000 16.000000 ylo yhi
0.000000 1257.000000 zlo zhi


Masses

1 1.000000

Atoms

1 0 1 7.189332 5.824720 454.949005
2 0 1 7.109402 5.313100 455.744995
3 0 1 7.076177 4.859820 456.546997
4 0 1 7.054075 4.628650 457.473999
5 0 1 6.965460 4.289260 458.312012
6 0 1 6.815200 4.064910 459.201996
7 0 1 6.978960 3.950870 460.169006
8 0 1 7.071774 4.078290 461.197021
9 0 1 7.072630 4.228780 462.179993
10 0 1 7.058519 4.388640 463.135986
11 0 1 7.055239 4.282350 464.037994
12 0 1 7.111500 4.487410 465.023987
13 0 1 7.148570 4.582500 466.015991
14 0 1 7.185774 4.812420 466.947021
15 0 1 7.384002 4.827070 467.830017
16 0 1 7.599967 4.947720 468.755981
17 0 1 7.527065 5.031430 469.726013
18 0 1 7.593359 5.091150 470.684998
19 0 1 7.406381 5.370060 471.598022
20 0 1 7.111643 6.030790 472.296997
21 0 1 7.032683 6.605700 473.029999
22 0 1 6.780900 7.153807 473.876007
23 0 1 6.918240 7.540526 474.799011
24 0 1 7.029056 8.134118 475.565002
25 0 1 7.150439 8.865668 476.171021
26 0 1 7.167295 9.635600 476.811005
27 0 1 6.979940 10.176540 477.593018
28 0 1 6.743440 10.682290 478.395996
29 0 1 6.573690 11.226470 479.213013
30 0 1 6.592680 11.631820 480.048004
31 0 1 6.601310 11.787360 481.026978
32 0 1 6.632700 12.178900 481.987000
33 0 1 6.654460 12.050779 482.950989
34 0 1 6.356160 12.092010 483.860992
35 0 1 6.028950 12.399480 484.789001
36 0 1 5.947660 12.820271 485.651978
37 0 1 5.980900 13.314020 486.536987
38 0 1 6.093840 13.874510 487.423004
39 0 1 6.599010 14.035060 488.302979
40 0 1 7.082486 13.943390 489.106018
41 0 1 7.516816 13.585870 489.911011
42 0 1 8.188474 13.588710 490.591980
43 0 1 9.109390 13.303080 491.044006
44 0 1 9.935160 12.947200 491.468018
45 0 1 10.777320 12.872140 491.951996
46 0 1 11.568810 12.622561 492.475006
47 0 1 12.178289 12.279730 493.083984
48 0 1 12.536230 11.723530 493.783020
49 0 1 12.589090 11.287370 494.640015
50 0 1 12.427219 10.746950 495.429993
51 0 1 11.973270 10.359600 496.250000
52 0 1 11.792630 10.065480 497.195984
53 0 1 11.638290 9.913530 498.161011
54 0 1 11.262210 9.542890 498.945984
55 0 1 11.152030 9.124930 499.833984
56 0 1 10.794470 8.545595 500.516998
57 0 1 10.373020 8.288339 501.355011
58 0 1 9.903360 7.690344 501.966003
59 0 1 9.297680 7.123224 502.494019
60 0 1 8.828878 6.628350 503.174011
61 0 1 8.366824 6.173930 503.889008
62 0 1 7.796153 5.774070 504.513000
63 0 1 7.139752 5.541190 505.250000
64 0 1 6.690730 5.245440 506.061005
65 0 1 6.289010 4.799090 506.795990
66 0 1 5.859860 4.252640 507.468018
67 0 1 5.511590 3.545330 507.941010
68 0 1 5.271860 2.882040 508.596008
69 0 1 5.121970 2.393520 509.352997
70 0 1 5.063870 2.084260 510.234009
71 0 1 5.270760 2.052420 511.194000
72 0 1 5.719780 2.157700 512.013000
73 0 1 6.179390 2.316800 512.843994
74 0 1 6.561960 2.343190 513.809021
75 0 1 6.817540 2.536620 514.776978
76 0 1 7.013239 2.367980 515.685974
77 0 1 7.202774 2.534370 516.620972
78 0 1 7.533532 2.672600 517.494019
79 0 1 8.126515 2.724550 518.197998
80 0 1 8.510359 2.719830 519.051025
81 0 1 9.113380 2.951800 519.768005
82 0 1 9.683160 3.122890 520.568970
83 0 1 9.747280 3.131450 521.521973
84 0 1 9.719850 2.969540 522.432983
85 0 1 9.298790 3.185260 523.359985
86 0 1 8.736238 3.113430 524.114990
87 0 1 8.130534 2.939080 524.849976
88 0 1 7.406499 2.909050 525.552979
89 0 1 7.320119 3.380570 526.474976
90 0 1 7.015647 3.472710 527.362976
91 0 1 6.704270 3.445300 528.244019
92 0 1 6.331550 3.180050 529.073425
93 0 1 6.057300 2.959060 529.980469
94 0 1 5.886000 2.626210 530.863892
95 0 1 5.654480 2.286730 531.682983
96 0 1 5.283170 2.008630 532.579590
97 0 1 4.875390 1.883420 533.484131
98 0 1 4.714670 1.943590 534.358887
99 0 1 4.519760 2.089320 535.341125
100 0 1 4.390330 2.543610 536.182190
101 0 1 4.428040 2.855570 537.096802
102 0 1 4.806620 3.019380 537.993225
103 0 1 5.199650 2.965240 538.830505
104 0 1 5.425310 3.014380 539.747620
105 0 1 5.814720 3.303850 540.609375
106 0 1 5.822230 3.705300 541.434814
107 0 1 5.995620 4.160540 542.325195
108 0 1 6.152870 4.403990 543.237671
109 0 1 6.419380 4.567720 544.113403
110 0 1 6.777460 4.875670 544.998718
111 0 1 7.053219 5.232770 545.821289
112 0 1 7.365802 5.744380 546.562317
113 0 1 7.603820 6.348660 547.266907
114 0 1 7.803922 6.668890 548.173523
115 0 1 7.972928 6.972040 549.075195
116 0 1 8.228018 7.234766 549.931885
117 0 1 8.786116 7.288459 550.745483
118 0 1 9.071700 7.228778 551.632019
119 0 1 9.355940 7.222844 552.563293
120 0 1 9.664640 7.176703 553.494019
121 0 1 10.069170 7.071193 554.391602
122 0 1 10.550690 6.826220 555.184814
123 0 1 10.974380 6.511610 555.986694
124 0 1 11.397340 6.497040 556.782227
125 0 1 12.074610 6.477260 557.562134
126 0 1 12.500740 6.692370 558.405518
127 0 1 12.860080 6.823280 559.324280
128 0 1 13.245080 6.943810 560.178894
129 0 1 13.545460 7.230005 561.070374
130 0 1 13.776751 7.778342 561.819580
131 0 1 13.751490 8.140005 562.670410
132 0 1 13.683160 8.424588 563.626099
133 0 1 13.325370 8.457775 564.496704
134 0 1 12.931390 8.392477 565.334290
135 0 1 12.303690 8.130910 566.025085
136 0 1 11.501520 8.015238 566.556824
137 0 1 10.665510 7.799367 566.906006
138 0 1 9.996820 7.850841 567.542603
139 0 1 9.279700 7.794493 568.223877
140 0 1 8.733948 7.653655 569.001709
141 0 1 8.134598 7.737017 569.763611
142 0 1 7.570667 7.919136 570.607910
143 0 1 6.998430 8.171950 571.390991
144 0 1 6.317950 8.597599 572.036621
145 0 1 5.980970 9.149210 572.822327
146 0 1 5.457790 9.495620 573.627991
147 0 1 4.940300 10.108910 574.193481
148 0 1 4.337040 10.643350 574.678589
149 0 1 4.403160 11.129880 575.542786
150 0 1 4.649450 11.934740 576.103699
151 0 1 4.981120 12.558559 576.769287
152 0 1 5.451040 13.075069 577.358704
153 0 1 6.112510 13.381889 578.109802
154 0 1 6.510910 13.751090 578.921387
155 0 1 6.998650 14.109350 579.676086
156 0 1 7.318129 14.497900 580.530518
157 0 1 7.472548 14.824580 581.394409
158 0 1 7.548544 14.825630 582.430420
159 0 1 7.603376 14.906300 583.434021
160 0 1 7.422097 14.731740 584.336792
161 0 1 7.173320 14.491390 585.366272
162 0 1 6.985680 14.034590 586.200989
163 0 1 6.690330 13.504240 586.914917
164 0 1 6.463070 12.827681 587.561890
165 0 1 6.197980 12.152690 588.202209
166 0 1 5.862950 11.600740 588.969971
167 0 1 5.393400 11.202040 589.701721
168 0 1 5.234200 10.648130 590.441589
169 0 1 5.395370 10.248290 591.305115
170 0 1 5.310860 9.807670 592.187195
171 0 1 5.154000 9.381250 593.010010
172 0 1 5.115010 8.902330 593.832703
173 0 1 4.987010 8.416641 594.634583
174 0 1 4.720360 8.130932 595.517273
175 0 1 4.749670 8.156970 596.425720
176 0 1 4.970380 8.061028 597.338623
177 0 1 5.275480 7.846867 598.216431
178 0 1 5.366260 7.649085 599.203125
179 0 1 5.543200 7.404937 600.151978
180 0 1 5.664280 7.370548 601.073975
181 0 1 5.976910 7.540741 602.041687
182 0 1 6.333350 7.568358 602.983887
183 0 1 6.634510 7.658993 603.853210
184 0 1 7.090108 7.546720 604.697083
185 0 1 7.542901 7.154461 605.449829
186 0 1 7.869627 6.391890 606.047974
187 0 1 7.722193 5.709400 606.698425
188 0 1 7.775077 4.981440 607.448303
189 0 1 7.721145 4.413730 608.244507
190 0 1 7.795023 3.810690 608.989380
191 0 1 7.945306 3.311650 609.802979
192 0 1 7.809221 2.806040 610.680298
193 0 1 7.841258 2.556990 611.576172
194 0 1 7.834694 2.196830 612.503296
195 0 1 7.847064 1.911230 613.453125
196 0 1 7.923550 1.837620 614.454285
197 0 1 7.604117 1.817420 615.355713
198 0 1 7.512140 1.575580 616.307922
199 0 1 7.525412 1.224180 617.221191
200 0 1 7.666257 1.090420 618.151001
201 0 1 7.647919 1.334420 619.080444
202 0 1 7.567991 1.689240 620.001648
203 0 1 7.320507 2.088930 620.989319
204 0 1 7.081238 2.627720 621.819275
205 0 1 6.872880 3.047660 622.747375
206 0 1 6.865580 3.483640 623.588867
207 0 1 6.829190 3.847050 624.468201
208 0 1 7.086646 4.167180 625.367432
209 0 1 7.022246 4.548550 626.267639
210 0 1 7.122971 4.854390 627.180237
211 0 1 7.092065 4.966270 628.139221
212 0 1 7.063579 5.182670 629.116943
213 0 1 7.309989 5.420620 630.020874
214 0 1 7.798894 5.274560 630.851440
215 0 1 8.260686 5.130010 631.684021
216 0 1 8.742689 5.177860 632.542908
217 0 1 9.324340 5.138920 633.277954
218 0 1 9.986980 5.179400 633.907837
219 0 1 10.602850 5.418860 634.642151
220 0 1 11.138910 5.531390 635.413513
221 0 1 11.460450 5.646010 636.291809
222 0 1 11.645950 5.856080 637.263489
223 0 1 11.648240 6.020350 638.178162
224 0 1 11.518850 6.026080 639.102783
225 0 1 11.616500 6.190380 640.040283
226 0 1 11.786250 6.375100 641.018799
227 0 1 12.136789 6.667580 641.964294
228 0 1 12.145200 6.989660 642.922485
229 0 1 12.216790 7.427829 643.770874
230 0 1 12.246780 7.968136 644.534119
231 0 1 12.150209 8.360731 645.428406
232 0 1 11.802800 8.745378 646.234985
233 0 1 11.520500 8.902075 647.138000
234 0 1 11.248330 8.917717 648.096313
235 0 1 10.906710 9.055520 649.000977
236 0 1 10.776381 9.224370 649.943420
237 0 1 10.271800 9.356630 650.807312
238 0 1 9.944330 8.992379 651.683105
239 0 1 9.590160 8.235216 652.278625
240 0 1 9.350600 7.534130 652.837402
241 0 1 9.162251 7.143426 653.635193
242 0 1 8.824637 7.120627 654.625610
243 0 1 8.516408 7.384785 655.443420
244 0 1 8.299581 7.506449 656.435120
245 0 1 8.126160 7.447953 657.391296
246 0 1 7.662875 7.382415 658.275391
247 0 1 7.335283 7.024415 659.099915
248 0 1 6.852810 6.959330 659.909302
249 0 1 6.732870 6.883050 660.949219
250 0 1 6.655630 6.763630 661.933411
251 0 1 6.729890 6.937840 662.861511
252 0 1 6.544810 7.013401 663.785889
253 0 1 6.403090 7.282881 664.712585
254 0 1 6.239300 7.168200 665.648499
255 0 1 6.087050 7.339258 666.576172
256 0 1 5.905060 7.403833 667.476379
257 0 1 5.735700 7.567677 668.344177
258 0 1 5.588640 7.548254 669.319275
259 0 1 5.569300 7.335499 670.278931
260 0 1 5.676980 7.083888 671.235107
261 0 1 5.881720 7.125801 672.217407
262 0 1 6.064480 7.201523 673.133789
263 0 1 6.627860 7.246640 673.910828
264 0 1 7.137403 7.157995 674.781677
265 0 1 7.749084 7.079324 675.517517
266 0 1 8.170206 7.212053 676.422485
267 0 1 8.690215 7.165221 677.257996
268 0 1 9.014460 7.258428 678.159302
269 0 1 9.296329 7.366021 679.071594
270 0 1 9.252131 7.285142 680.021790
271 0 1 8.849648 7.164106 680.966187
272 0 1 8.564358 7.206088 681.828796
273 0 1 8.516730 7.253581 682.765198
274 0 1 8.169952 7.514194 683.603577
275 0 1 8.308425 7.979190 684.383484
276 0 1 8.748066 8.217945 685.157410
277 0 1 8.886042 8.536164 686.001587
278 0 1 8.921402 8.813752 686.950989
279 0 1 8.581919 8.771984 687.893005
280 0 1 8.372594 8.572548 688.845093
281 0 1 8.169181 8.279712 689.767578
282 0 1 7.959517 8.121507 690.755005
283 0 1 7.802133 8.222018 691.737915
284 0 1 7.792382 8.318135 692.766479
285 0 1 7.646105 8.524272 693.666504
286 0 1 7.808303 8.698269 694.560486
287 0 1 7.745073 8.937027 695.486877
288 0 1 7.736750 9.151310 696.452087
289 0 1 7.823708 9.464260 697.371216
290 0 1 7.973135 9.484020 698.400391
291 0 1 8.242902 9.507490 699.362122
292 0 1 8.251867 9.361710 700.377380
293 0 1 8.304910 9.069230 701.333008
294 0 1 8.411460 8.861192 702.340820
295 0 1 8.644942 8.769095 703.313232
296 0 1 8.871075 8.481415 704.198608
297 0 1 9.326110 8.335153 704.981812
298 0 1 9.793040 8.188460 705.955811
299 0 1 9.979790 8.039257 706.854126
300 0 1 10.197550 7.984182 707.779175
301 0 1 10.452600 7.735393 708.638794
302 0 1 10.526820 7.618616 709.610474
303 0 1 10.571480 7.385641 710.584473
304 0 1 10.561810 7.215678 711.509399
305 0 1 10.573360 7.179447 712.497681
306 0 1 10.343070 7.203814 713.413391
307 0 1 10.250790 6.879860 714.337280
308 0 1 10.260020 6.965940 715.292603
309 0 1 10.049450 7.033046 716.249207
310 0 1 10.058050 6.606910 717.143799
311 0 1 10.141280 6.116940 717.999817
312 0 1 10.144840 5.802330 718.877686
313 0 1 10.366760 5.430750 719.776733
314 0 1 10.803860 5.112810 720.618225
315 0 1 11.244500 4.825280 721.429993
316 0 1 11.288970 4.853390 722.388672
317 0 1 11.304940 4.929750 723.367004
318 0 1 11.483970 4.990910 724.281799
319 0 1 11.689250 5.267550 725.222900
320 0 1 11.954190 5.458850 726.122070
321 0 1 11.977560 5.477430 727.105408
322 0 1 12.178650 5.470960 728.007812
323 0 1 12.372641 5.353170 728.953003
324 0 1 12.586000 5.173950 729.854980
325 0 1 12.729071 4.939080 730.776001
326 0 1 12.984119 4.639400 731.679993
327 0 1 13.165279 4.794360 732.619019
328 0 1 13.351500 5.025560 733.500000
329 0 1 13.739260 5.372950 734.362976
330 0 1 13.977400 5.645200 735.286011
331 0 1 14.132020 5.571860 736.260986
332 0 1 14.066180 5.393900 737.156006
333 0 1 14.112249 5.194390 738.146973
334 0 1 13.929399 5.017950 739.056030
335 0 1 13.490850 4.740590 739.828979
336 0 1 13.147790 4.642590 740.714966
337 0 1 12.700880 4.526880 741.541992
338 0 1 12.373079 4.192190 742.396973
339 0 1 11.935220 4.196070 743.275024
340 0 1 11.808620 4.089330 744.193970
341 0 1 11.837749 4.381200 745.151001
342 0 1 12.238550 4.488810 746.094971
343 0 1 12.492559 4.754000 747.083008
344 0 1 12.742430 4.872380 748.057983
345 0 1 12.959681 4.964810 748.987000
346 0 1 12.991449 4.915300 749.989014
347 0 1 13.029369 4.938840 750.919983
348 0 1 12.766080 5.085140 751.827026
349 0 1 12.283760 5.190630 752.674988
350 0 1 11.998250 5.329340 753.630981
351 0 1 11.687970 5.555670 754.523010
352 0 1 11.545980 5.910370 755.408997
353 0 1 11.540010 6.370940 756.297974
354 0 1 11.446220 6.921000 757.049011
355 0 1 11.271130 7.246273 757.947021
356 0 1 11.097050 7.678921 758.755005
357 0 1 10.896690 8.011131 759.640015
358 0 1 10.645590 8.437270 760.395996
359 0 1 10.668990 8.745370 761.294983
360 0 1 10.752810 8.971469 762.162964
361 0 1 10.783110 9.156950 763.083008
362 0 1 10.769160 9.138640 764.104980
363 0 1 10.498970 9.325270 765.002991
364 0 1 10.168180 9.422060 765.846008
365 0 1 9.728320 9.785280 766.601013
366 0 1 9.339390 9.700040 767.448975
367 0 1 9.150830 9.796980 768.318970
368 0 1 9.017130 9.856770 769.266968
369 0 1 9.143730 9.675480 770.205994
370 0 1 9.369610 9.512940 771.129028
371 0 1 9.832950 9.253750 771.973022
372 0 1 10.437240 9.082750 772.712036
373 0 1 11.108640 8.661572 773.143005
374 0 1 11.813520 8.170692 773.682983
375 0 1 12.480680 7.559926 774.051025
376 0 1 13.211390 7.007276 774.411011
377 0 1 13.860090 6.590140 774.911987
378 0 1 14.382151 6.316680 775.671997
379 0 1 14.544291 6.121260 776.606995
380 0 1 14.352810 5.716300 777.478027
381 0 1 14.065269 5.593960 778.403015
382 0 1 14.083941 5.553480 779.424011
383 0 1 14.270420 5.845630 780.372986
384 0 1 14.405399 6.364980 781.171021
385 0 1 14.307610 6.950070 781.992004
386 0 1 14.001570 7.638601 782.578979
387 0 1 13.540920 8.396277 782.968994
388 0 1 12.959140 9.010130 783.414978
389 0 1 12.318501 9.700610 783.505005
390 0 1 11.639170 10.359520 783.802979
391 0 1 10.845280 10.765950 784.062988
392 0 1 10.109170 10.899680 784.625977
393 0 1 9.422070 10.854380 785.382019
394 0 1 8.912907 10.796930 786.161987
395 0 1 8.285407 10.386900 786.796021
396 0 1 7.930733 9.676460 787.434021
397 0 1 7.719949 8.911283 788.049988
398 0 1 7.617867 8.645649 789.072998
399 0 1 7.958468 8.645992 789.906006
400 0 1 8.267248 8.571518 790.833984
401 0 1 8.127222 8.462420 791.754028
402 0 1 8.145993 8.470204 792.752014
403 0 1 8.197862 8.072016 793.684998
404 0 1 8.418094 7.891193 794.620972
405 0 1 8.758755 7.992115 795.518005
406 0 1 9.086730 8.220644 796.385986
407 0 1 9.181420 8.516120 797.408020
408 0 1 9.005410 8.719150 798.333984
409 0 1 8.979941 8.808952 799.311035
410 0 1 9.035450 8.997629 800.229980
411 0 1 9.174360 9.228540 801.140015
412 0 1 9.323380 9.566280 802.009033
413 0 1 9.690470 9.516090 802.901001
414 0 1 10.081490 9.502850 803.835999
415 0 1 10.455080 9.677040 804.702026
416 0 1 10.754169 9.912810 805.672974
417 0 1 10.902630 10.024050 806.664978
418 0 1 11.117520 10.108350 807.588989
419 0 1 11.283830 10.404700 808.523010
420 0 1 11.281780 10.719160 809.466980
421 0 1 11.573760 10.827110 810.358032
422 0 1 11.867200 11.256230 811.129028
423 0 1 11.872400 11.755640 811.966980
424 0 1 11.968950 12.161160 812.848022
425 0 1 11.873000 12.002501 813.757996
426 0 1 11.740810 11.997440 814.755005
427 0 1 11.562870 12.278931 815.684998
428 0 1 11.323270 12.581380 816.531982
429 0 1 11.246940 12.887280 817.453979
430 0 1 10.903460 13.032040 818.353027
431 0 1 10.554250 13.150890 819.273987
432 0 1 10.295060 13.121571 820.198975
433 0 1 10.243490 13.025021 821.127014
434 0 1 10.155910 12.616050 821.994995
435 0 1 10.467270 11.969340 822.728027
436 0 1 10.445169 11.430070 823.518982
437 0 1 10.245831 10.791150 824.202026
438 0 1 10.401400 10.356050 825.049011
439 0 1 10.352040 10.163230 825.995972
440 0 1 10.247650 9.988980 826.906006
441 0 1 10.049640 9.866950 827.864990
442 0 1 10.342560 9.699800 828.799011
443 0 1 10.804580 9.661400 829.598999
444 0 1 11.352250 9.826700 830.348022
445 0 1 11.588280 10.218280 831.218994
446 0 1 11.530680 10.258240 832.213989
447 0 1 11.217340 10.429560 833.088013
448 0 1 10.964710 10.618959 834.018005
449 0 1 10.345350 10.961000 834.661011
450 0 1 9.666830 11.246590 835.286011
451 0 1 8.949910 11.268800 836.010986
452 0 1 8.090825 11.235850 836.421997
453 0 1 7.384963 10.916719 836.890991
454 0 1 6.441580 10.922340 837.296021
455 0 1 5.571810 10.665590 837.448975
456 0 1 4.696190 10.298870 837.473999
457 0 1 3.936630 9.814930 837.136963
458 0 1 3.438650 9.267879 836.610962
459 0 1 3.223240 8.526329 835.971985
460 0 1 2.953410 8.068915 835.221985
461 0 1 3.095050 7.684406 834.346008
462 0 1 3.338550 7.450975 833.416016
463 0 1 3.499130 7.272809 832.504028
464 0 1 3.677440 6.985860 831.596008
465 0 1 3.927250 6.707840 830.669006
466 0 1 4.266540 6.454970 829.804016
467 0 1 4.897030 6.428630 829.062988
468 0 1 5.451780 6.622140 828.276978
469 0 1 6.067330 6.758060 827.585999
470 0 1 6.746960 7.170881 827.052002
471 0 1 7.151420 7.810203 826.375000
472 0 1 7.545508 8.210315 825.587036
473 0 1 7.900237 8.465705 824.667969
474 0 1 8.072276 8.816262 823.734009
475 0 1 8.207439 9.055110 822.872986
476 0 1 8.230417 9.390200 822.010986
477 0 1 8.247226 9.808260 821.143982
478 0 1 8.153086 9.782750 820.153992
479 0 1 8.118578 9.835300 819.158020
480 0 1 8.370825 9.923590 818.197021
481 0 1 8.657611 9.928560 817.289001
482 0 1 9.073800 9.768430 816.337036
483 0 1 9.366410 9.618570 815.406982
484 0 1 9.532700 9.364710 814.471008
485 0 1 9.754601 9.145270 813.585999
486 0 1 9.954860 8.693665 812.787964
487 0 1 9.993630 8.309083 811.916992
488 0 1 9.898640 8.089235 810.958984
489 0 1 9.617490 7.936771 810.046997
490 0 1 9.423500 7.983948 809.141968
491 0 1 9.021890 8.035902 808.237000
492 0 1 8.588284 7.941056 807.385986
493 0 1 8.231442 7.891539 806.521973
494 0 1 7.890817 7.919875 805.585999
495 0 1 7.386349 7.905699 804.838013
496 0 1 6.733810 7.926450 804.192017
497 0 1 6.023810 7.980858 803.588013
498 0 1 5.266840 7.702483 803.096985
499 0 1 4.557040 7.896211 802.443970
500 0 1 3.803520 8.178072 801.957031
501 0 1 3.148130 8.616394 801.379028
502 0 1 2.728460 9.116010 800.679016
503 0 1 2.454440 9.258500 799.737000
504 0 1 2.195620 9.415780 798.759033
505 0 1 2.202600 9.685540 797.825989
506 0 1 2.510390 9.567390 796.912964
507 0 1 2.788290 9.648060 796.067017
508 0 1 3.281050 9.693410 795.245972
509 0 1 3.429710 9.653720 794.208984
510 0 1 3.663910 9.560250 793.239990
511 0 1 3.848670 9.521730 792.286011
512 0 1 4.152260 9.158770 791.406982
513 0 1 4.306700 8.605820 790.666016
514 0 1 4.372380 8.336480 789.737000
515 0 1 4.519580 8.243734 788.828979
516 0 1 4.390690 8.082289 787.835999
517 0 1 4.536510 8.154920 786.867981
518 0 1 4.660760 8.241708 785.943970
519 0 1 4.448640 8.338467 785.057007
520 0 1 3.915310 8.520153 784.195984
521 0 1 3.448840 8.553226 783.412964
522 0 1 3.201850 8.532553 782.476013
523 0 1 2.852940 8.413015 781.572998
524 0 1 2.710280 8.376646 780.627014
525 0 1 2.386900 8.377680 779.723022
526 0 1 2.292230 8.195647 778.747986
527 0 1 2.184270 8.255984 777.791016
528 0 1 2.427030 8.379581 776.846985
529 0 1 2.784050 8.444011 775.896973
530 0 1 3.332140 8.274209 775.104004
531 0 1 3.781940 8.153331 774.309021
532 0 1 4.150990 8.006356 773.424011
533 0 1 4.240100 7.855991 772.468018
534 0 1 4.238110 7.770664 771.518982
535 0 1 4.214640 7.431007 770.563965
536 0 1 4.300150 6.948080 769.786987
537 0 1 4.536180 6.613590 768.938965
538 0 1 4.529880 6.575700 767.960022
539 0 1 4.598950 6.476860 766.953003
540 0 1 4.772010 6.216840 766.059021
541 0 1 4.938100 5.850890 765.104980
542 0 1 5.072850 5.755150 764.130005
543 0 1 5.180040 5.723400 763.218018
544 0 1 5.433970 5.555200 762.302002
545 0 1 5.851580 5.497350 761.466003
546 0 1 6.299590 5.177050 760.695007
547 0 1 6.860480 4.754570 759.999023
548 0 1 7.574267 4.452860 759.379028
549 0 1 7.949731 4.147810 758.499023
550 0 1 8.279679 4.168710 757.559021
551 0 1 8.859496 3.965070 756.799011
552 0 1 9.546010 3.824210 756.140015
553 0 1 10.394930 3.681640 755.718018
554 0 1 11.026360 3.359790 755.026001
555 0 1 11.359591 3.248370 754.138977
556 0 1 11.883550 3.275520 753.315002
557 0 1 12.108940 3.125310 752.380005
558 0 1 12.212620 3.289040 751.447998
559 0 1 12.297319 3.339980 750.450012
560 0 1 12.269400 3.457980 749.377991
561 0 1 12.320650 3.226650 748.442017
562 0 1 12.278040 2.871840 747.507996
563 0 1 11.938610 2.398890 746.815002
564 0 1 11.212370 2.212820 746.182983
565 0 1 10.327690 2.260400 745.778992
566 0 1 9.544130 2.301280 745.268005
567 0 1 8.697193 2.330570 744.856995
568 0 1 7.968281 2.736350 744.431030
569 0 1 7.227734 3.186070 743.929016
570 0 1 6.600430 3.722330 743.523987
571 0 1 6.095360 4.168210 742.884033
572 0 1 5.744930 4.749430 742.233032
573 0 1 5.343220 5.128430 741.458984
574 0 1 4.818610 5.139610 740.611023
575 0 1 4.357370 5.402490 739.773987
576 0 1 3.943440 5.651510 738.952026
577 0 1 3.815070 5.819750 738.020020
578 0 1 3.728010 5.926490 736.989990
579 0 1 3.732170 6.056870 736.078003
580 0 1 3.482540 5.956930 735.134033
581 0 1 3.579380 5.717100 734.169983
582 0 1 3.657280 5.455990 733.205994
583 0 1 3.825150 5.462520 732.211975
584 0 1 4.094410 5.503260 731.216003
585 0 1 4.516560 5.391150 730.380981
586 0 1 4.703630 5.397680 729.377991
587 0 1 4.832200 5.548600 728.363892
588 0 1 4.774040 5.554730 727.413513
589 0 1 4.754530 5.832870 726.469971
590 0 1 4.747350 6.230650 725.572876
591 0 1 4.861030 6.566790 724.644592
592 0 1 4.663770 6.797850 723.747314
593 0 1 4.315650 6.861030 722.887878
594 0 1 4.156300 6.720880 721.909912
595 0 1 4.447420 6.740130 720.974609
596 0 1 4.862560 6.804130 720.053406
597 0 1 5.432610 6.845080 719.295715
598 0 1 5.891350 6.924650 718.432922
599 0 1 6.727560 7.031006 717.984009
600 0 1 7.586600 7.264129 717.510681
601 0 1 8.339949 7.609380 717.094482
602 0 1 9.031180 7.749468 716.493225
603 0 1 9.639060 8.124500 715.845093
604 0 1 10.205990 8.528096 715.215820
605 0 1 10.884100 8.938046 714.681580
606 0 1 11.316140 9.184520 713.856934
607 0 1 11.496531 9.669430 713.030701
608 0 1 11.489400 9.902630 712.102905
609 0 1 11.322290 10.394341 711.177612
610 0 1 10.791491 10.930970 710.513611
611 0 1 10.461330 11.380720 709.800781
612 0 1 9.992980 11.872750 709.076416
613 0 1 9.456900 12.073700 708.247986
614 0 1 8.681014 12.110109 707.616333
615 0 1 7.763330 12.166050 707.236816
616 0 1 7.001619 12.172871 706.689697
617 0 1 6.330510 12.053370 705.997986
618 0 1 5.666830 11.876141 705.417603
619 0 1 5.256050 11.713030 704.544312
620 0 1 4.973220 11.480280 703.634888
621 0 1 4.995110 11.309420 702.726196
622 0 1 4.699860 11.110860 701.813599
623 0 1 4.417250 10.833941 700.919312
624 0 1 4.581510 10.486959 700.031128
625 0 1 4.533450 10.189870 699.102478
626 0 1 4.846030 10.224060 698.204834
627 0 1 5.073560 10.583740 697.369324
628 0 1 5.496630 11.024651 696.618774
629 0 1 5.711870 11.151820 695.716919
630 0 1 5.812490 11.144150 694.723267
631 0 1 5.991190 11.113470 693.790894
632 0 1 6.169650 10.948960 692.817078
633 0 1 6.193420 10.785950 691.888794
634 0 1 6.183040 10.771200 690.937012
635 0 1 6.104860 10.600710 689.999084
636 0 1 5.835830 10.568740 689.065491
637 0 1 5.389960 10.559880 688.223816
638 0 1 5.373670 10.388580 687.268982
639 0 1 5.255190 10.214600 686.343506
640 0 1 5.544080 9.774190 685.505188
641 0 1 5.996170 9.313030 684.771423
642 0 1 6.111370 8.796607 683.942627
643 0 1 6.580900 8.270018 683.219421
644 0 1 6.864730 7.777809 682.489990
645 0 1 6.947830 7.116014 681.808289
646 0 1 7.204306 6.577760 681.025391
647 0 1 7.461814 5.789280 680.428101
648 0 1 7.798636 5.113650 679.805481
649 0 1 8.147705 4.640090 679.084595
650 0 1 8.643105 4.231600 678.360107
651 0 1 8.886123 4.026070 677.494812
652 0 1 9.221880 3.919530 676.577698
653 0 1 9.655220 3.797690 675.620483
654 0 1 10.039530 3.707400 674.709595
655 0 1 10.536250 3.774230 673.863220
656 0 1 10.862040 4.027150 673.024719
657 0 1 11.149640 4.027030 672.082886
658 0 1 11.625771 4.156610 671.294922
659 0 1 11.912650 4.438570 670.379517
660 0 1 12.069139 4.531670 669.395386
661 0 1 12.272790 4.995760 668.567993
662 0 1 12.470870 5.368320 667.721069
663 0 1 12.820290 5.679030 666.740906
664 0 1 13.202650 5.821930 665.883606
665 0 1 13.577721 5.820740 665.011292
666 0 1 13.703979 5.791390 664.028015
667 0 1 13.639030 6.020850 663.082397
668 0 1 13.466450 6.111940 662.154419
669 0 1 13.155621 6.301210 661.173279
670 0 1 12.546350 6.667440 660.461670
671 0 1 12.289380 7.144836 659.705505
672 0 1 12.361250 7.876851 659.047729
673 0 1 12.157050 8.516147 658.370178
674 0 1 11.903379 9.228940 657.744873
675 0 1 11.583370 9.433300 656.881592
676 0 1 11.426380 9.908640 656.078003
677 0 1 11.362220 10.348820 655.169189
678 0 1 11.027719 10.587450 654.279480
679 0 1 10.633730 10.597300 653.439880
680 0 1 10.370790 10.577200 652.532776
681 0 1 10.152390 10.346340 651.645325
682 0 1 9.596870 10.247790 650.890625
683 0 1 9.057520 10.132780 650.054688
684 0 1 8.492362 9.776540 649.344116
685 0 1 8.049420 9.420250 648.561707
686 0 1 7.902523 9.468480 647.587769
687 0 1 7.607227 9.818560 646.772827
688 0 1 7.280994 10.112780 645.907104
689 0 1 7.250939 10.301020 645.005981
690 0 1 7.146146 10.587510 644.100708
691 0 1 6.740930 10.705030 643.224487
692 0 1 6.260690 10.677130 642.437500
693 0 1 5.572340 10.472879 641.857788
694 0 1 4.876630 10.039830 641.200928
695 0 1 4.163640 9.626110 640.652588
696 0 1 3.465980 9.019910 640.343323
697 0 1 2.852560 8.376211 639.947205
698 0 1 2.578100 7.826363 639.276184
699 0 1 2.466350 7.478840 638.375549
700 0 1 2.453060 6.890370 637.598022
701 0 1 2.612730 6.486420 636.769714
702 0 1 2.510820 6.033380 635.932434
703 0 1 2.709570 5.787310 635.018494
704 0 1 3.018580 5.852880 634.101624
705 0 1 3.204290 5.983080 633.095459
706 0 1 3.459920 6.517170 632.343323
707 0 1 3.663340 7.130205 631.590027
708 0 1 3.801050 7.698776 630.771973
709 0 1 4.206580 7.954941 629.942078
710 0 1 4.909660 7.999407 629.291382
711 0 1 5.728700 8.095842 628.798645
712 0 1 6.388100 8.365677 628.106384
713 0 1 6.675220 8.281494 627.203003
714 0 1 7.173276 8.050193 626.346252
715 0 1 7.580928 7.890703 625.515076
716 0 1 7.735397 7.575353 624.622375
717 0 1 8.195374 7.214851 623.870483
718 0 1 8.525348 6.666650 623.048462
719 0 1 9.048680 6.641940 622.219116
720 0 1 9.415300 6.197610 621.471802
721 0 1 9.464190 5.364170 621.018188
722 0 1 9.646830 4.625270 620.436768
723 0 1 9.559970 3.963980 619.644592
724 0 1 9.452300 3.649370 618.759094
725 0 1 9.321640 3.509900 617.816101
726 0 1 9.374269 3.338910 616.836304
727 0 1 9.402960 3.095520 615.926880
728 0 1 9.474740 3.160870 614.935486
729 0 1 9.518430 3.091240 613.998718
730 0 1 9.597540 3.484820 613.090698
731 0 1 9.994880 3.708230 612.267273
732 0 1 10.225620 3.958690 611.378601
733 0 1 10.468370 4.213280 610.455994
734 0 1 10.718190 4.710230 609.730408
735 0 1 10.954400 4.935730 608.827026
736 0 1 11.128340 5.212620 607.959778
737 0 1 11.533160 5.576510 607.101624
738 0 1 11.668770 5.826150 606.159180
739 0 1 11.802361 5.951960 605.121582
740 0 1 11.745580 6.155230 604.181396
741 0 1 11.169420 6.226590 603.397522
742 0 1 10.609660 6.259290 602.531921
743 0 1 10.034110 6.649320 601.819397
744 0 1 9.693920 6.940550 600.937073
745 0 1 9.429070 7.125720 600.017883
746 0 1 9.146610 7.141235 599.039673
747 0 1 8.854160 6.999900 598.161316
748 0 1 8.470497 6.865870 597.270691
749 0 1 8.157992 6.694470 596.424683
750 0 1 7.828179 6.740940 595.483276
751 0 1 7.496261 6.892560 594.584717
752 0 1 7.437144 6.870270 593.592224
753 0 1 7.320831 7.032342 592.663208
754 0 1 7.255030 7.391582 591.780701
755 0 1 6.996270 7.528420 590.875122
756 0 1 6.893660 7.705039 589.910706
757 0 1 6.694060 7.916113 589.027832
758 0 1 6.221200 7.964954 588.072815
759 0 1 5.675730 7.844675 587.238403
760 0 1 5.446640 7.872148 586.291504
761 0 1 5.508440 7.656849 585.310303
762 0 1 5.574740 7.601286 584.300110
763 0 1 5.209450 7.814371 583.405518
764 0 1 4.723140 7.765196 582.591675
765 0 1 4.071270 7.563284 581.844971
766 0 1 3.537620 7.502600 581.029480
767 0 1 3.150480 7.353237 580.225525
768 0 1 3.040610 7.289648 579.278320
769 0 1 3.233330 7.181387 578.332886
770 0 1 3.527440 7.010906 577.442871
771 0 1 3.618720 6.949060 576.507568
772 0 1 3.647950 6.996850 575.570984
773 0 1 3.712930 7.195133 574.644775
774 0 1 3.782740 7.451813 573.697876
775 0 1 3.961680 7.754694 572.783203
776 0 1 4.342450 8.220951 571.989075
777 0 1 4.540160 8.691794 571.126526
778 0 1 5.072330 8.899290 570.415771
779 0 1 5.284800 9.064100 569.473206
780 0 1 5.578400 9.152070 568.565796
781 0 1 6.076260 9.391900 567.748413
782 0 1 6.216710 9.580810 566.805603
783 0 1 6.322940 9.738330 565.877991
784 0 1 6.735210 10.035260 565.065125
785 0 1 7.184826 10.050700 564.228699
786 0 1 7.476876 9.938500 563.390198
787 0 1 7.742624 9.821330 562.429688
788 0 1 8.004520 9.927860 561.565674
789 0 1 8.177228 10.337390 560.706421
790 0 1 8.361037 10.771590 559.924683
791 0 1 8.292825 11.111140 558.939697
792 0 1 8.580510 11.521470 558.100403
793 0 1 8.724294 12.002010 557.299377