LAMMPS data file via MDAnalysis

        1000  atoms
        1000  bonds
        1000  angles
           0  dihedrals
           0  impropers

           1  atom types
           1  bond types
           1  angle types
           0  dihedral types
           0  improper types

0.000000 16.000000 xlo xhi
0.000000 16.000000 ylo yhi
0.000000 1257.000000 zlo zhi


Masses

1 1.000000

Atoms

1 0 1 6.367770 7.028574 443.824005
2 0 1 6.496570 6.663980 444.673004
3 0 1 6.707200 6.464900 445.622009
4 0 1 7.272689 6.034990 446.328003
5 0 1 7.884038 5.763310 447.130981
6 0 1 8.361172 5.733320 447.908997
7 0 1 8.802822 5.863110 448.785004
8 0 1 9.161900 6.065200 449.653015
9 0 1 9.416650 6.623920 450.507996
10 0 1 9.289450 7.041589 451.360992
11 0 1 9.243470 7.310257 452.229004
12 0 1 9.143030 7.647755 453.101990
13 0 1 8.874795 7.738099 453.989014
14 0 1 8.626849 7.817039 454.925995
15 0 1 8.387420 7.765154 455.888000
16 0 1 8.312272 7.996043 456.826996
17 0 1 8.034913 8.246546 457.746002
18 0 1 7.950700 8.272200 458.700012
19 0 1 7.714000 8.307045 459.684998
20 0 1 7.637041 8.381185 460.692993
21 0 1 7.780028 8.649225 461.598022
22 0 1 7.517724 8.744727 462.549011
23 0 1 7.430785 8.810795 463.556000
24 0 1 7.348393 8.899376 464.559998
25 0 1 6.955620 8.953626 465.510986
26 0 1 6.799970 9.282490 466.463013
27 0 1 6.590570 9.791730 467.184998
28 0 1 6.386160 10.441260 467.885010
29 0 1 6.347080 10.945380 468.742004
30 0 1 6.146650 11.336400 469.640991
31 0 1 5.885410 11.366510 470.596985
32 0 1 5.845280 11.060770 471.497009
33 0 1 6.149290 10.600130 472.296021
34 0 1 6.513620 10.388440 473.166992
35 0 1 7.006056 10.404360 474.039978
36 0 1 7.536630 10.426670 474.815002
37 0 1 7.814076 10.582439 475.765015
38 0 1 8.242490 10.550680 476.588989
39 0 1 8.535099 10.670450 477.468994
40 0 1 8.636902 10.615370 478.427979
41 0 1 8.686213 10.599051 479.455994
42 0 1 8.597082 10.882100 480.348022
43 0 1 8.229365 10.971920 481.203979
44 0 1 7.901537 11.259880 482.065002
45 0 1 7.421637 11.568650 482.817017
46 0 1 6.843090 11.783970 483.606018
47 0 1 6.397870 12.157840 484.453979
48 0 1 6.208850 12.358521 485.380005
49 0 1 5.999920 12.728200 486.315979
50 0 1 5.899680 12.929260 487.270020
51 0 1 5.930320 13.217051 488.154999
52 0 1 5.918510 13.102840 489.095001
53 0 1 5.821740 12.931960 490.104004
54 0 1 5.725220 12.762350 491.005005
55 0 1 5.620770 12.373449 491.964996
56 0 1 5.679730 11.900460 492.824005
57 0 1 5.634920 11.561871 493.703979
58 0 1 5.905350 11.307540 494.559021
59 0 1 6.392750 10.903130 495.317993
60 0 1 6.834510 10.606720 496.175995
61 0 1 7.191249 10.277730 496.979004
62 0 1 7.507740 9.737290 497.794006
63 0 1 7.827025 9.323000 498.621002
64 0 1 8.056920 8.905899 499.466003
65 0 1 8.344361 8.355330 500.132996
66 0 1 9.046060 8.079429 500.747986
67 0 1 9.573620 7.667065 501.481018
68 0 1 10.072030 7.085871 502.173004
69 0 1 10.373690 6.696440 502.973999
70 0 1 10.686210 6.311470 503.845001
71 0 1 10.928310 6.068730 504.792999
72 0 1 10.824130 5.783700 505.691010
73 0 1 10.742980 5.426650 506.602997
74 0 1 11.030840 5.274810 507.470001
75 0 1 11.274050 4.935900 508.351990
76 0 1 11.473480 4.858350 509.333008
77 0 1 11.610229 4.787580 510.281982
78 0 1 11.608000 4.708860 511.234009
79 0 1 11.523040 4.836540 512.231018
80 0 1 11.625130 5.099880 513.145996
81 0 1 11.441550 5.420130 514.010010
82 0 1 11.183400 5.588690 514.942017
83 0 1 10.662300 5.742460 515.739990
84 0 1 10.830910 6.104380 516.604004
85 0 1 10.867080 6.607870 517.422974
86 0 1 10.808559 6.853610 518.325012
87 0 1 10.879660 7.125486 519.281982
88 0 1 10.717000 7.697262 520.117004
89 0 1 10.544360 8.413050 520.755005
90 0 1 10.298650 8.790198 521.627014
91 0 1 10.077530 9.076870 522.497986
92 0 1 9.668850 9.271130 523.354004
93 0 1 9.517460 9.379800 524.372009
94 0 1 8.970656 9.262760 525.179993
95 0 1 8.610159 9.068490 526.065002
96 0 1 8.516141 9.239940 526.994019
97 0 1 8.430450 9.457920 527.917969
98 0 1 8.597921 9.721690 528.939026
99 0 1 8.477591 9.825520 529.909607
100 0 1 8.508977 9.994530 530.880371
101 0 1 8.522354 10.069830 531.818298
102 0 1 8.472592 10.293230 532.801697
103 0 1 8.423146 10.729850 533.593994
104 0 1 8.503238 11.222230 534.412292
105 0 1 8.428723 11.453700 535.361816
106 0 1 8.194400 11.319820 536.333191
107 0 1 7.755224 11.195780 537.162903
108 0 1 7.421547 11.179790 538.106384
109 0 1 6.987900 11.023700 538.921631
110 0 1 6.876590 10.979090 539.902832
111 0 1 7.011942 10.857600 540.865173
112 0 1 7.236611 10.621740 541.747925
113 0 1 7.364334 10.421040 542.671021
114 0 1 7.506277 10.243959 543.643188
115 0 1 7.740695 9.976200 544.535889
116 0 1 8.158426 9.774810 545.364197
117 0 1 8.439452 9.376740 546.179993
118 0 1 8.519971 9.147130 547.091797
119 0 1 8.796846 9.027610 548.022095
120 0 1 8.895810 8.498310 548.835571
121 0 1 8.777690 7.916586 549.629578
122 0 1 8.568559 7.323017 550.331421
123 0 1 8.410982 6.927730 551.209900
124 0 1 8.327271 6.531630 552.074402
125 0 1 8.199891 6.369160 553.045715
126 0 1 7.849472 6.324750 553.889099
127 0 1 7.605229 6.816420 554.666870
128 0 1 7.386272 7.314108 555.439209
129 0 1 7.259392 7.818710 556.210327
130 0 1 7.252618 8.195724 557.091919
131 0 1 7.341946 8.515867 558.000793
132 0 1 7.513215 8.682929 558.945679
133 0 1 7.601023 8.854005 559.914001
134 0 1 7.641509 9.227000 560.788574
135 0 1 7.804454 9.702840 561.611023
136 0 1 7.821275 10.094100 562.482178
137 0 1 7.963709 10.388460 563.374023
138 0 1 7.955036 10.638030 564.278625
139 0 1 7.858987 10.859520 565.237793
140 0 1 7.608357 10.930010 566.156616
141 0 1 7.541756 10.956990 567.156494
142 0 1 7.819599 11.191970 568.023010
143 0 1 8.097518 11.485310 568.896729
144 0 1 8.701947 11.598850 569.718689
145 0 1 9.055770 11.448320 570.570923
146 0 1 9.561010 11.162450 571.431519
147 0 1 10.018460 10.957080 572.246704
148 0 1 10.016710 10.452510 573.070374
149 0 1 9.876310 10.279570 574.059387
150 0 1 9.804340 9.958020 574.969177
151 0 1 10.046860 9.650280 575.872986
152 0 1 9.864690 9.330410 576.762207
153 0 1 9.643020 9.167020 577.712280
154 0 1 9.684380 9.057860 578.630981
155 0 1 9.582800 9.035980 579.656372
156 0 1 9.054580 9.054029 580.416626
157 0 1 8.533257 9.284280 581.231628
158 0 1 8.214595 9.652550 582.073730
159 0 1 7.748780 9.987329 582.872681
160 0 1 7.353603 10.313810 583.708679
161 0 1 6.915290 10.527679 584.540710
162 0 1 6.418790 10.500650 585.359314
163 0 1 6.003480 10.709880 586.215698
164 0 1 5.623110 10.689390 587.120972
165 0 1 5.470210 10.582270 588.025818
166 0 1 5.106540 10.173090 588.830688
167 0 1 4.948890 10.054820 589.807129
168 0 1 4.790490 10.109610 590.760193
169 0 1 4.515620 10.167840 591.715027
170 0 1 4.348350 10.084060 592.685669
171 0 1 4.233460 9.680130 593.567505
172 0 1 4.193640 9.357080 594.454712
173 0 1 4.297320 9.168110 595.436584
174 0 1 4.365450 9.142630 596.414673
175 0 1 4.421360 9.167760 597.331116
176 0 1 4.244030 9.530130 598.241577
177 0 1 4.008050 9.649720 599.201294
178 0 1 3.889980 9.638610 600.120972
179 0 1 3.895060 9.875800 601.022888
180 0 1 3.884880 9.834700 602.020874
181 0 1 4.126200 10.066970 602.936218
182 0 1 4.371840 10.407470 603.820190
183 0 1 4.431510 10.240120 604.807495
184 0 1 4.525470 9.963810 605.739014
185 0 1 4.619350 9.510980 606.601990
186 0 1 4.970310 8.998030 607.333191
187 0 1 5.103430 8.408461 608.096924
188 0 1 5.320890 7.791006 608.829590
189 0 1 5.405360 7.047335 609.474792
190 0 1 5.517240 6.630030 610.313782
191 0 1 5.646120 6.123270 611.183777
192 0 1 5.828620 5.510000 611.910217
193 0 1 6.135170 4.940980 612.695374
194 0 1 6.446850 4.344690 613.422913
195 0 1 6.920990 3.721110 614.050171
196 0 1 6.982040 3.305960 614.945618
197 0 1 7.201091 2.806790 615.769409
198 0 1 7.451667 2.447300 616.644897
199 0 1 7.442836 2.064800 617.535889
200 0 1 7.342124 1.984360 618.499695
201 0 1 6.947390 1.991530 619.380859
202 0 1 6.797120 2.153320 620.323608
203 0 1 6.724560 2.191680 621.278198
204 0 1 6.732730 2.084630 622.226257
205 0 1 7.217626 2.042980 623.146484
206 0 1 7.593877 2.225150 624.021057
207 0 1 8.033964 2.556100 624.806763
208 0 1 8.459337 2.624810 625.618103
209 0 1 8.936913 2.673680 626.466187
210 0 1 9.471860 2.821560 627.197388
211 0 1 9.764200 3.250790 627.995361
212 0 1 9.975340 3.549640 628.889221
213 0 1 10.102680 3.603770 629.841370
214 0 1 10.326800 3.550420 630.748291
215 0 1 10.315080 3.708330 631.675659
216 0 1 10.043670 4.103300 632.505920
217 0 1 9.704840 4.520330 633.401794
218 0 1 9.625820 4.822410 634.280884
219 0 1 9.536050 4.805650 635.246887
220 0 1 9.261240 4.676920 636.155334
221 0 1 8.954543 4.677190 637.060303
222 0 1 8.655113 4.704250 637.994080
223 0 1 8.406353 4.819100 638.941223
224 0 1 8.363344 5.028920 639.949707
225 0 1 8.703862 5.239470 640.824890
226 0 1 8.744022 5.519870 641.784790
227 0 1 8.744164 5.865270 642.699402
228 0 1 8.276087 6.061690 643.581421
229 0 1 7.762158 6.257320 644.345886
230 0 1 7.435461 6.602700 645.135986
231 0 1 6.934260 6.725110 646.033508
232 0 1 6.621390 6.725830 646.948181
233 0 1 6.333150 6.894720 647.886230
234 0 1 6.229850 7.273741 648.840820
235 0 1 6.370940 8.012220 649.445007
236 0 1 6.210520 8.909828 649.946899
237 0 1 6.097970 9.794330 650.423401
238 0 1 5.918460 10.611731 651.034180
239 0 1 5.729540 11.304970 651.629517
240 0 1 5.639390 11.902770 652.414978
241 0 1 5.464350 12.293500 653.268127
242 0 1 5.422130 12.570340 654.178284
243 0 1 5.225700 13.092960 654.991028
244 0 1 5.306750 13.581730 655.830811
245 0 1 5.492630 13.842740 656.767700
246 0 1 5.498850 14.097210 657.762207
247 0 1 5.429110 13.974730 658.706909
248 0 1 5.212380 13.905010 659.646484
249 0 1 4.936270 13.954679 660.567810
250 0 1 4.710820 13.780310 661.487976
251 0 1 4.529800 13.275150 662.269409
252 0 1 4.493350 13.053471 663.174927
253 0 1 4.685830 13.025050 664.149719
254 0 1 4.983730 13.102020 665.066772
255 0 1 5.284460 13.009581 665.941528
256 0 1 5.426590 13.201880 666.876587
257 0 1 5.241220 13.224510 667.810608
258 0 1 5.048030 13.094120 668.751587
259 0 1 5.299030 13.006360 669.679932
260 0 1 5.622760 13.021290 670.615601
261 0 1 6.207530 12.795560 671.428406
262 0 1 6.724200 12.576930 672.210999
263 0 1 6.918780 12.176060 673.106018
264 0 1 7.053779 11.618280 673.853088
265 0 1 7.385574 11.039949 674.566711
266 0 1 7.669723 10.626900 675.421875
267 0 1 8.055528 10.325850 676.193909
268 0 1 8.410073 10.509390 677.047180
269 0 1 8.627252 10.640170 677.943115
270 0 1 8.857867 10.787330 678.861877
271 0 1 9.110670 10.873990 679.768494
272 0 1 9.074130 11.009809 680.691284
273 0 1 8.778984 11.148050 681.552185
274 0 1 8.161632 11.325380 682.285522
275 0 1 7.526620 11.566780 682.926819
276 0 1 6.962590 11.738791 683.648499
277 0 1 6.638550 11.514230 684.509705
278 0 1 6.146510 11.323350 685.326294
279 0 1 5.754090 11.406820 686.198181
280 0 1 5.254950 11.748640 686.932129
281 0 1 4.553660 11.969910 687.601013
282 0 1 4.069600 11.830790 688.471619
283 0 1 3.853080 11.400050 689.303406
284 0 1 3.835390 11.031140 690.180786
285 0 1 3.954310 10.762360 691.066895
286 0 1 3.916650 10.412510 691.944824
287 0 1 3.883490 10.099380 692.913208
288 0 1 3.772980 10.044430 693.849426
289 0 1 3.911470 10.422430 694.645386
290 0 1 3.941670 10.824480 695.502930
291 0 1 4.288820 11.294140 696.340332
292 0 1 4.414130 11.471920 697.291687
293 0 1 4.571800 11.651400 698.281189
294 0 1 4.832120 11.707760 699.213074
295 0 1 5.322530 11.555070 700.040588
296 0 1 5.483960 11.608720 701.056396
297 0 1 5.901490 11.274360 701.893677
298 0 1 6.031150 10.731020 702.647583
299 0 1 6.050450 10.228140 703.493530
300 0 1 5.875120 9.545300 704.128418
301 0 1 5.596110 9.003040 704.967712
302 0 1 5.472420 8.570236 705.841980
303 0 1 5.245790 8.280873 706.705566
304 0 1 4.850790 7.854039 707.477112
305 0 1 4.594630 7.550464 708.333313
306 0 1 4.479340 7.308426 709.253296
307 0 1 4.349370 7.110998 710.160095
308 0 1 4.333170 7.145451 711.117920
309 0 1 4.067260 7.150769 712.056702
310 0 1 3.506780 7.195938 712.901184
311 0 1 3.222800 7.472122 713.749207
312 0 1 3.265300 7.597899 714.717773
313 0 1 3.283390 7.523875 715.630615
314 0 1 2.956020 7.169313 716.488098
315 0 1 2.661490 6.887090 717.340698
316 0 1 2.311450 6.502910 718.143982
317 0 1 2.176270 6.278680 719.070984
318 0 1 2.354350 6.090660 719.956726
319 0 1 2.947730 5.859020 720.817200
320 0 1 3.531350 5.737750 721.567993
321 0 1 4.094880 5.393160 722.233826
322 0 1 4.425990 5.089860 723.032898
323 0 1 4.753890 5.078950 723.925781
324 0 1 5.005990 5.249220 724.948608
325 0 1 5.347640 5.584990 725.786926
326 0 1 6.013580 5.641460 726.501526
327 0 1 6.565190 5.953420 727.184204
328 0 1 6.809790 6.489930 727.952698
329 0 1 7.387926 6.805470 728.760986
330 0 1 7.827559 7.147318 729.528992
331 0 1 8.312990 7.350246 730.315979
332 0 1 8.836299 7.630220 731.164978
333 0 1 9.088710 7.932849 732.039978
334 0 1 9.409330 8.281326 732.812988
335 0 1 9.440120 8.228579 733.780029
336 0 1 9.304380 8.121731 734.796997
337 0 1 9.253740 7.908868 735.726990
338 0 1 8.872150 7.903126 736.634033
339 0 1 8.388754 8.081142 737.492981
340 0 1 7.926693 8.534744 738.211975
341 0 1 7.565528 8.967109 739.026001
342 0 1 7.219833 9.310850 739.924988
343 0 1 7.009471 9.668290 740.776978
344 0 1 6.993890 10.018840 741.752014
345 0 1 6.812670 10.190090 742.667969
346 0 1 6.359620 10.179490 743.510010
347 0 1 5.976020 10.524310 744.265991
348 0 1 5.685310 10.524160 745.202026
349 0 1 5.275460 10.591480 746.059021
350 0 1 4.775580 10.865140 746.864990
351 0 1 4.260360 11.080560 747.625000
352 0 1 3.801920 11.141710 748.473999
353 0 1 3.542530 10.937690 749.327026
354 0 1 3.395400 10.525160 750.163025
355 0 1 3.261520 10.277650 751.038025
356 0 1 3.226880 10.237920 751.952026
357 0 1 3.250790 10.444060 752.914978
358 0 1 3.473520 10.400420 753.830017
359 0 1 3.792230 10.110080 754.695007
360 0 1 4.015870 9.819680 755.606995
361 0 1 4.208180 9.501980 756.476013
362 0 1 4.626200 9.545440 757.349976
363 0 1 5.112380 9.484320 758.261963
364 0 1 5.688220 9.878150 758.927002
365 0 1 6.275190 10.222000 759.718994
366 0 1 6.915250 10.586190 760.452026
367 0 1 7.441465 10.717410 761.255981
368 0 1 7.608184 10.577020 762.176025
369 0 1 7.836829 10.214190 763.078003
370 0 1 7.870729 9.734090 763.890015
371 0 1 7.684931 9.319110 764.687012
372 0 1 7.718620 9.010220 765.622986
373 0 1 7.731188 8.565573 766.565979
374 0 1 7.772441 8.451544 767.526001
375 0 1 8.268240 8.091395 768.278992
376 0 1 8.742797 7.898477 769.113037
377 0 1 9.123160 7.653250 770.005005
378 0 1 9.094180 7.382599 770.942993
379 0 1 8.990444 6.933050 771.806030
380 0 1 8.907364 6.602890 772.738037
381 0 1 8.594012 6.400360 773.646973
382 0 1 8.466484 6.212780 774.606995
383 0 1 8.234162 5.738440 775.414978
384 0 1 8.206848 5.194470 776.252014
385 0 1 8.136623 4.948340 777.280029
386 0 1 8.168617 4.850390 778.252014
387 0 1 8.298614 5.201800 779.171021
388 0 1 8.348608 5.353750 780.125000
389 0 1 8.632328 5.707480 780.936035
390 0 1 9.024460 6.115080 781.796021
391 0 1 9.057460 6.506660 782.656006
392 0 1 9.356710 6.826560 783.537964
393 0 1 10.011090 7.045800 784.224976
394 0 1 10.560750 7.485271 784.934021
395 0 1 11.072670 7.870612 785.661011
396 0 1 11.185600 8.213849 786.554993
397 0 1 11.512740 8.303876 787.427002
398 0 1 11.771800 8.413269 788.364990
399 0 1 11.973490 8.520345 789.296997
400 0 1 12.156990 8.578460 790.212036
401 0 1 12.361870 8.554630 791.151978
402 0 1 12.591470 8.210493 792.041992
403 0 1 12.558320 8.057132 793.028992
404 0 1 12.620680 7.999293 793.990967
405 0 1 12.528140 8.105156 794.921021
406 0 1 12.632540 8.401362 795.813965
407 0 1 12.742820 8.811724 796.645996
408 0 1 12.680010 9.423310 797.421997
409 0 1 12.352221 9.797540 798.292969
410 0 1 12.264280 10.065140 799.214966
411 0 1 12.122869 10.465090 800.061035
412 0 1 11.894830 10.296710 801.062988
413 0 1 11.322420 9.965720 801.882019
414 0 1 10.848920 9.861640 802.658997
415 0 1 10.510420 9.989050 803.606995
416 0 1 10.337020 9.871740 804.636963
417 0 1 10.052190 10.151400 805.485962
418 0 1 9.607530 10.654010 806.219971
419 0 1 9.208430 11.215720 806.865967
420 0 1 8.943392 11.610940 807.747986
421 0 1 8.624327 11.769300 808.641968
422 0 1 8.351042 12.043100 809.537964
423 0 1 7.957245 12.306749 810.412964
424 0 1 7.615910 12.346600 811.286011
425 0 1 7.327694 12.323120 812.200989
426 0 1 6.785930 12.423710 813.002991
427 0 1 6.396480 12.644450 813.877014
428 0 1 6.064220 12.460170 814.739990
429 0 1 5.748320 12.198900 815.596008
430 0 1 5.331300 11.857550 816.422974
431 0 1 5.081530 11.339809 817.239014
432 0 1 4.774200 11.182400 818.192993
433 0 1 4.407760 11.205481 819.072021
434 0 1 3.901590 11.144060 819.832031
435 0 1 3.528880 10.936290 820.686035
436 0 1 3.635540 10.552900 821.572998
437 0 1 3.646020 10.336440 822.603027
438 0 1 3.804130 9.982640 823.591980
439 0 1 3.907450 9.634410 824.483032
440 0 1 3.793510 9.101910 825.294006
441 0 1 3.657800 8.690475 826.172974
442 0 1 3.676260 8.396740 827.067993
443 0 1 3.473240 7.790288 827.830994
444 0 1 3.391530 7.368376 828.655029
445 0 1 3.523400 7.090428 829.549011
446 0 1 3.663310 6.709340 830.523987
447 0 1 3.944320 6.385450 831.322998
448 0 1 4.021410 6.019990 832.254028
449 0 1 4.222790 5.750290 833.182007
450 0 1 4.002840 5.860510 834.156982
451 0 1 3.656470 6.300030 834.908997
452 0 1 3.650160 6.802380 835.729004
453 0 1 3.627540 7.305238 836.494995
454 0 1 3.791310 7.762335 837.322021
455 0 1 3.965690 8.380327 838.025024
456 0 1 3.990490 9.152950 838.617981
457 0 1 4.302250 9.755610 839.369995
458 0 1 4.967680 10.178170 840.014038
459 0 1 5.666960 10.575150 840.528992
460 0 1 6.407500 11.245080 840.455994
461 0 1 7.260856 11.666019 840.299988
462 0 1 8.082291 11.916950 839.833984
463 0 1 8.724365 11.890920 839.158997
464 0 1 9.370110 12.135820 838.445007
465 0 1 10.173980 12.255770 837.865967
466 0 1 10.877760 12.129351 837.177979
467 0 1 11.538410 11.972610 836.505005
468 0 1 12.063210 11.452230 835.900024
469 0 1 12.829010 11.001890 835.365967
470 0 1 13.224030 10.652300 834.554993
471 0 1 13.385941 10.431400 833.664001
472 0 1 13.842300 10.411250 832.806030
473 0 1 14.137300 10.495550 831.888000
474 0 1 14.193171 10.844790 830.973999
475 0 1 14.001249 11.330790 830.109985
476 0 1 13.578230 11.877950 829.468018
477 0 1 13.005500 12.304070 828.757996
478 0 1 12.445880 12.784770 828.192993
479 0 1 11.819320 13.238840 827.583984
480 0 1 11.113540 13.500669 826.914978
481 0 1 10.488560 13.718510 826.216003
482 0 1 9.935910 13.967730 825.479004
483 0 1 9.368860 14.058820 824.603027
484 0 1 8.654645 14.188390 823.927979
485 0 1 7.961994 14.154570 823.244019
486 0 1 7.375807 13.883369 822.554993
487 0 1 7.130402 13.587200 821.615967
488 0 1 6.929260 13.227110 820.710999
489 0 1 6.918700 12.741760 819.862000
490 0 1 6.825130 12.161790 819.052002
491 0 1 6.980360 11.859310 818.148010
492 0 1 7.187766 11.397360 817.286011
493 0 1 7.156605 11.103710 816.401001
494 0 1 6.969080 10.760170 815.514038
495 0 1 7.169580 10.396660 814.593994
496 0 1 7.528643 9.836180 813.830017
497 0 1 7.836384 9.378580 813.021973
498 0 1 7.933313 9.203341 812.089966
499 0 1 8.092437 9.112329 811.184021
500 0 1 8.276127 8.947612 810.273987
501 0 1 8.002559 8.450453 809.510986
502 0 1 7.838310 7.916162 808.687012
503 0 1 7.698053 7.590738 807.791016
504 0 1 7.400691 7.287907 806.932007
505 0 1 7.023364 7.049257 806.028015
506 0 1 6.608950 7.213052 805.240967
507 0 1 6.231510 7.176288 804.359985
508 0 1 5.680010 7.350448 803.613037
509 0 1 5.027360 7.493135 802.921997
510 0 1 4.348540 7.645346 802.216003
511 0 1 3.675490 7.470605 801.510986
512 0 1 3.362300 7.236845 800.630005
513 0 1 2.965670 7.381579 799.726990
514 0 1 2.544830 7.877483 799.106995
515 0 1 2.180210 8.227892 798.307983
516 0 1 2.108360 8.482377 797.370972
517 0 1 2.281110 8.657445 796.432007
518 0 1 2.767800 8.933826 795.614990
519 0 1 2.910260 9.430099 794.822998
520 0 1 3.045980 9.701320 793.895020
521 0 1 3.216440 9.934010 792.987000
522 0 1 3.456720 10.232050 792.072021
523 0 1 3.789960 10.362600 791.235962
524 0 1 4.131010 10.254670 790.379028
525 0 1 4.758060 10.311180 789.664001
526 0 1 5.219200 10.176910 788.804993
527 0 1 5.763290 9.980820 788.023010
528 0 1 6.099060 9.552800 787.242981
529 0 1 6.544700 9.197620 786.513000
530 0 1 6.441140 8.682013 785.721008
531 0 1 6.140810 8.200105 784.932007
532 0 1 6.011340 7.970389 783.989990
533 0 1 6.053170 7.721461 783.044983
534 0 1 5.806520 7.559936 782.145020
535 0 1 5.264090 7.207290 781.424988
536 0 1 4.453920 7.167193 780.791016
537 0 1 3.938520 7.019559 779.960999
538 0 1 3.608010 6.910030 779.059021
539 0 1 3.148970 6.671470 778.228027
540 0 1 3.145880 6.198230 777.354004
541 0 1 2.984010 6.111580 776.385010
542 0 1 2.938610 5.814180 775.468018
543 0 1 3.001470 5.662720 774.539001
544 0 1 3.074750 5.433420 773.610962
545 0 1 2.919820 4.999150 772.791992
546 0 1 2.865420 5.026160 771.903992
547 0 1 2.681770 4.895570 770.999023
548 0 1 2.748220 4.816750 769.971985
549 0 1 3.134860 4.831670 769.104004
550 0 1 3.588780 5.027910 768.216003
551 0 1 3.967100 5.324040 767.377014
552 0 1 4.618000 5.555890 766.648987
553 0 1 5.309200 5.889800 766.070007
554 0 1 5.798280 6.103300 765.218994
555 0 1 6.040350 6.528420 764.349976
556 0 1 6.422100 6.739300 763.453003
557 0 1 6.801910 6.831290 762.528992
558 0 1 7.174644 6.818400 761.625000
559 0 1 7.398225 6.578510 760.708008
560 0 1 7.616299 6.495820 759.785034
561 0 1 7.751718 6.542050 758.791016
562 0 1 7.802666 6.597390 757.843018
563 0 1 7.854379 6.776610 756.859009
564 0 1 7.938162 6.743500 755.880981
565 0 1 8.109137 6.709310 754.947021
566 0 1 8.101009 6.877080 753.960999
567 0 1 8.479423 7.101295 753.059998
568 0 1 8.369210 7.483987 752.174011
569 0 1 8.182644 7.543961 751.226013
570 0 1 7.828791 7.411748 750.369019
571 0 1 7.141904 7.214374 749.651001
572 0 1 6.794440 6.897570 748.776978
573 0 1 6.497290 6.930040 747.832031
574 0 1 5.917070 7.072984 747.005005
575 0 1 5.497700 7.243926 746.197998
576 0 1 5.167080 7.364614 745.307983
577 0 1 5.140770 7.698173 744.391968
578 0 1 4.912330 7.750799 743.455017
579 0 1 4.943110 7.746869 742.424988
580 0 1 5.024480 7.628062 741.474976
581 0 1 5.153950 7.570990 740.461975
582 0 1 5.358070 7.551606 739.541016
583 0 1 5.809730 7.218096 738.759033
584 0 1 6.453030 6.992060 738.059998
585 0 1 6.892510 6.827530 737.262024
586 0 1 7.052728 6.798520 736.317017
587 0 1 6.983830 6.900050 735.320007
588 0 1 6.923200 7.403998 734.460999
589 0 1 6.867780 7.805893 733.530029
590 0 1 6.895880 8.265916 732.719971
591 0 1 7.426570 8.874096 732.093994
592 0 1 8.048747 9.248730 731.400024
593 0 1 8.334269 9.603480 730.601013
594 0 1 8.746786 9.665390 729.737000
595 0 1 9.373110 9.814800 729.072021
596 0 1 9.983320 9.905730 728.224731
597 0 1 10.594940 10.135400 727.484985
598 0 1 10.985490 10.380090 726.667114
599 0 1 11.175190 10.610010 725.740784
600 0 1 11.022670 10.861140 724.811890
601 0 1 10.864759 10.692540 723.858032
602 0 1 10.584510 10.690070 722.865723
603 0 1 9.961230 10.939720 722.150391
604 0 1 9.243950 11.434170 721.643982
605 0 1 8.791784 11.572480 720.838196
606 0 1 8.690341 11.696630 719.896301
607 0 1 8.491569 11.915689 718.971924
608 0 1 8.249183 12.064730 718.082275
609 0 1 8.122184 12.279850 717.121277
610 0 1 8.516960 12.408649 716.217407
611 0 1 8.630535 12.668779 715.302368
612 0 1 8.903491 12.965990 714.396606
613 0 1 9.013620 13.474060 713.510925
614 0 1 8.964917 13.904631 712.612122
615 0 1 8.729803 14.506519 711.880615
616 0 1 8.868071 14.786070 710.961121
617 0 1 9.151810 14.607810 710.041809
618 0 1 9.428980 14.129230 709.242126
619 0 1 9.693200 13.504789 708.598389
620 0 1 9.864650 13.064720 707.772705
621 0 1 10.301430 12.644140 707.055115
622 0 1 10.743350 12.586599 706.121704
623 0 1 11.339540 12.710310 705.340088
624 0 1 11.932899 12.771720 704.549072
625 0 1 11.997700 12.539110 703.632080
626 0 1 12.072741 12.197929 702.673828
627 0 1 12.148991 11.936910 701.690430
628 0 1 12.248970 11.489310 700.820801
629 0 1 12.356131 11.220280 699.868408
630 0 1 12.647460 11.012180 698.993774
631 0 1 12.833750 10.571560 698.105591
632 0 1 13.044200 9.939230 697.402832
633 0 1 13.232460 9.330350 696.660217
634 0 1 13.309310 8.516722 696.082275
635 0 1 13.300290 7.713132 695.483215
636 0 1 12.920290 6.924600 695.138489
637 0 1 12.377100 6.468710 694.493896
638 0 1 11.632610 5.977570 694.073975
639 0 1 11.140980 5.331610 693.493774
640 0 1 10.690300 4.550100 692.969482
641 0 1 10.040461 4.090170 692.483704
642 0 1 9.325050 3.692620 691.902527
643 0 1 8.690785 3.224780 691.352173
644 0 1 8.250279 2.783630 690.552673
645 0 1 7.713613 2.475390 689.789124
646 0 1 7.101265 2.335730 689.048584
647 0 1 6.529580 2.400440 688.265625
648 0 1 6.117040 2.588470 687.405579
649 0 1 5.536090 2.445650 686.657471
650 0 1 5.332760 2.326290 685.734375
651 0 1 5.007510 2.240700 684.761780
652 0 1 4.988880 2.288810 683.832581
653 0 1 4.929460 2.206410 682.905518
654 0 1 5.035110 2.330240 681.978271
655 0 1 5.212560 2.417520 681.049683
656 0 1 5.541070 2.430710 680.128174
657 0 1 5.950540 2.445950 679.259399
658 0 1 6.270520 2.464260 678.354980
659 0 1 6.430780 2.359190 677.402588
660 0 1 6.391070 2.495320 676.476074
661 0 1 6.436000 2.420930 675.580505
662 0 1 6.753180 2.331620 674.651917
663 0 1 7.136127 2.189130 673.825317
664 0 1 7.425287 2.154700 672.877319
665 0 1 7.706498 2.243610 671.930725
666 0 1 7.776575 2.228120 670.915527
667 0 1 7.743739 2.228430 669.909607
668 0 1 7.747418 2.176070 668.987305
669 0 1 7.736878 2.276040 668.042480
670 0 1 7.549521 2.589670 667.094482
671 0 1 7.634487 3.091720 666.165894
672 0 1 7.518570 3.435470 665.265808
673 0 1 7.271433 3.891310 664.479492
674 0 1 7.118267 4.472370 663.693787
675 0 1 7.112028 4.960370 662.830200
676 0 1 6.931770 5.319280 662.002319
677 0 1 6.840570 5.445830 661.051270
678 0 1 6.714020 5.795010 660.158020
679 0 1 6.241000 5.961390 659.307312
680 0 1 5.777730 6.010660 658.484924
681 0 1 5.358630 6.010020 657.636230
682 0 1 5.007710 6.123230 656.652283
683 0 1 4.768940 6.086770 655.620605
684 0 1 4.770390 5.974410 654.635925
685 0 1 4.604780 5.659850 653.727600
686 0 1 4.294020 5.472050 652.818420
687 0 1 4.099090 5.573020 651.897095
688 0 1 3.961420 5.516500 650.913208
689 0 1 4.011420 5.680820 649.982483
690 0 1 4.156410 5.796980 649.096191
691 0 1 4.316520 5.937690 648.191528
692 0 1 4.366000 6.009860 647.197998
693 0 1 4.308080 6.193410 646.270996
694 0 1 4.364980 6.601230 645.396484
695 0 1 4.418950 6.845900 644.447083
696 0 1 4.307950 7.092149 643.524902
697 0 1 4.418820 7.286990 642.591919
698 0 1 4.635770 7.611697 641.702393
699 0 1 4.726010 8.139208 640.945801
700 0 1 4.717770 8.561895 639.945618
701 0 1 4.605120 8.885064 639.004211
702 0 1 4.356050 9.007700 638.089355
703 0 1 4.673330 8.999142 637.117676
704 0 1 5.278190 9.089450 636.381653
705 0 1 5.626400 9.556150 635.633972
706 0 1 6.164860 9.800200 634.803284
707 0 1 6.800330 10.124790 634.202026
708 0 1 7.591283 10.433990 633.802368
709 0 1 8.393695 10.651870 633.212891
710 0 1 9.176730 10.627040 632.662170
711 0 1 9.790220 10.480600 632.018677
712 0 1 10.412340 10.046160 631.312561
713 0 1 10.932010 9.776430 630.523926
714 0 1 11.434350 9.601620 629.698914
715 0 1 11.793210 9.540720 628.798279
716 0 1 11.976561 9.533510 627.872803
717 0 1 12.039400 9.556860 626.934937
718 0 1 11.957700 9.434430 625.958374
719 0 1 12.109180 9.312850 625.035156
720 0 1 12.062150 8.984470 624.141846
721 0 1 12.209420 8.716770 623.279724
722 0 1 12.122440 8.355779 622.386719
723 0 1 12.009769 7.998217 621.497192
724 0 1 11.713570 7.572040 620.696655
725 0 1 11.150430 7.209777 620.043152
726 0 1 10.704230 7.154113 619.246155
727 0 1 10.423660 7.154805 618.305420
728 0 1 10.107180 7.237903 617.410522
729 0 1 9.451850 7.429619 616.848328
730 0 1 8.728630 7.700807 616.336426
731 0 1 8.133243 8.061651 615.596008
732 0 1 7.618408 8.227383 614.766724
733 0 1 7.227222 8.368103 613.904419
734 0 1 6.927860 8.164131 613.029907
735 0 1 6.948510 7.885002 612.119324
736 0 1 7.244550 7.681194 611.232117
737 0 1 7.986101 7.228780 610.787598
738 0 1 8.444296 6.696610 610.083191
739 0 1 8.824122 6.213020 609.290527
740 0 1 9.121150 6.018910 608.422791
741 0 1 9.637480 5.757750 607.593872
742 0 1 9.696790 5.190400 606.835693
743 0 1 9.780790 4.926760 605.907104
744 0 1 9.984280 4.951270 604.944092
745 0 1 9.992610 5.025530 603.966187
746 0 1 10.070760 5.193420 603.054871
747 0 1 9.945190 5.232100 602.114624
748 0 1 9.862130 5.111920 601.106628
749 0 1 9.723280 4.992010 600.194702
750 0 1 9.794530 4.781210 599.285889
751 0 1 9.811480 4.589870 598.289917
752 0 1 10.013650 4.256840 597.347290
753 0 1 9.775770 4.215090 596.309387
754 0 1 9.951210 4.085750 595.254211
755 0 1 10.019840 4.208450 594.294312
756 0 1 10.170321 4.139200 593.327026
757 0 1 10.073910 4.015280 592.351624
758 0 1 9.682240 4.083600 591.494690
759 0 1 9.313830 3.889390 590.570312
760 0 1 9.217550 3.637060 589.584717
761 0 1 9.237300 3.616360 588.638306
762 0 1 9.108940 3.668360 587.657227
763 0 1 8.891196 3.714610 586.722717
764 0 1 8.810878 3.809360 585.770508
765 0 1 8.661722 4.038340 584.844299
766 0 1 8.665205 4.447540 583.904419
767 0 1 8.770351 4.948840 583.056274
768 0 1 8.882994 5.500630 582.254272
769 0 1 9.232660 5.823340 581.443604
770 0 1 9.852790 6.342420 580.908813
771 0 1 10.279720 6.584550 580.108276
772 0 1 10.683080 6.792940 579.248169
773 0 1 11.152930 6.832880 578.425415
774 0 1 11.728650 6.707840 577.652527
775 0 1 11.978661 6.281650 576.789978
776 0 1 12.455390 6.312370 575.948914
777 0 1 12.569901 6.202800 574.893616
778 0 1 12.755301 6.375200 573.896606
779 0 1 12.951790 6.666210 572.946594
780 0 1 12.936940 6.783330 572.014404
781 0 1 13.014000 7.379205 571.122681
782 0 1 13.109350 7.816776 570.267517
783 0 1 13.075350 8.026530 569.325684
784 0 1 12.700130 8.088199 568.425110
785 0 1 12.243720 7.923870 567.544922
786 0 1 11.707590 7.902028 566.728882
787 0 1 11.301320 7.598285 565.934021
788 0 1 11.079220 7.413541 565.048584
789 0 1 10.729060 7.578495 564.124207
790 0 1 10.396470 7.880496 563.292969
791 0 1 10.126510 8.114876 562.391724
792 0 1 9.651510 8.451818 561.600708