LAMMPS data file via MDAnalysis

        1000  atoms
        1000  bonds
        1000  angles
           0  dihedrals
           0  impropers

           1  atom types
           1  bond types
           1  angle types
           0  dihedral types
           0  improper types

0.000000 16.000000 xlo xhi
0.000000 16.000000 ylo yhi
0.000000 1257.000000 zlo zhi


Masses

1 1.000000

Atoms

1 0 1 3.777830 9.044940 460.738007
2 0 1 3.882880 8.903602 461.697998
3 0 1 4.235760 8.773128 462.640015
4 0 1 4.240460 8.391522 463.539001
5 0 1 4.139180 8.093679 464.453003
6 0 1 3.886660 7.522630 465.231018
7 0 1 3.720690 7.110670 466.082001
8 0 1 3.368330 6.816310 466.945007
9 0 1 2.987400 6.711650 467.822998
10 0 1 2.696790 6.883630 468.718018
11 0 1 2.649560 6.896110 469.682983
12 0 1 2.924160 6.952710 470.623993
13 0 1 3.083790 6.907770 471.557007
14 0 1 2.945150 6.967410 472.536987
15 0 1 3.233390 6.974890 473.442017
16 0 1 3.370260 6.607790 474.350006
17 0 1 3.513720 6.135810 475.174011
18 0 1 3.484670 5.716760 476.020020
19 0 1 3.621930 5.294000 476.898987
20 0 1 3.790220 4.817980 477.695007
21 0 1 4.139750 4.616600 478.552979
22 0 1 4.469100 4.535780 479.468994
23 0 1 4.980930 4.809590 480.221985
24 0 1 5.360280 5.021470 481.050995
25 0 1 5.817250 5.323230 481.830994
26 0 1 6.139240 5.733780 482.647003
27 0 1 6.386140 6.344940 483.367981
28 0 1 6.772650 6.930970 484.046997
29 0 1 6.771880 7.504181 484.774994
30 0 1 6.845050 7.934505 485.687988
31 0 1 6.954240 8.260650 486.643005
32 0 1 6.895810 8.541714 487.583984
33 0 1 6.828230 8.509967 488.563995
34 0 1 6.962040 8.207086 489.449005
35 0 1 6.905810 8.053399 490.382019
36 0 1 6.887210 8.074427 491.356995
37 0 1 6.761470 8.322989 492.281006
38 0 1 6.648870 8.394842 493.200989
39 0 1 6.405560 8.523204 494.062988
40 0 1 6.204800 8.638365 494.976990
41 0 1 5.890900 8.964624 495.864014
42 0 1 5.445290 9.242220 496.639008
43 0 1 5.219320 9.366380 497.593994
44 0 1 4.961190 9.387380 498.511993
45 0 1 4.707200 9.364850 499.507019
46 0 1 4.235760 9.042340 500.325989
47 0 1 3.842690 8.854296 501.179993
48 0 1 3.499870 8.776158 502.139008
49 0 1 3.285680 8.571779 503.048004
50 0 1 3.280870 8.538339 504.015991
51 0 1 3.590010 8.606464 504.869019
52 0 1 3.840360 8.818683 505.768982
53 0 1 4.320800 9.218410 506.583984
54 0 1 4.770310 9.326000 507.407990
55 0 1 5.286500 9.361500 508.248993
56 0 1 5.739420 9.351880 509.109985
57 0 1 5.893380 8.963885 509.925995
58 0 1 5.915590 8.623647 510.816010
59 0 1 5.943640 7.947843 511.526001
60 0 1 6.126070 7.210065 512.179016
61 0 1 6.278800 6.845820 513.122009
62 0 1 6.411130 6.470990 513.939026
63 0 1 6.613050 5.912690 514.718018
64 0 1 6.653920 5.613560 515.614990
65 0 1 6.858040 5.298960 516.539001
66 0 1 7.165717 5.095610 517.372986
67 0 1 7.578065 4.771740 518.190002
68 0 1 7.646689 4.546510 519.104980
69 0 1 7.679058 4.242610 520.026001
70 0 1 8.088185 4.203860 520.864990
71 0 1 8.417006 3.786040 521.677979
72 0 1 8.945856 3.385210 522.388977
73 0 1 9.122970 3.391830 523.369019
74 0 1 9.126850 3.279180 524.278015
75 0 1 9.014580 3.106060 525.231995
76 0 1 8.796008 3.026360 526.158997
77 0 1 8.646363 2.739950 527.112976
78 0 1 8.220632 2.809830 527.987000
79 0 1 7.808987 2.928060 528.849792
80 0 1 7.384632 3.256400 529.655273
81 0 1 6.892550 3.579030 530.442017
82 0 1 6.286610 3.839120 531.212585
83 0 1 5.771750 4.180490 531.941895
84 0 1 5.392470 4.709940 532.668884
85 0 1 4.977340 5.213510 533.360291
86 0 1 4.589190 5.963210 533.935486
87 0 1 4.367380 6.651860 534.601990
88 0 1 3.934940 7.155987 535.334106
89 0 1 3.572740 7.466002 536.180176
90 0 1 2.967960 7.670771 536.879211
91 0 1 2.717930 8.084587 537.655701
92 0 1 2.654610 8.262502 538.627502
93 0 1 2.395060 8.205943 539.556030
94 0 1 2.787910 8.371986 540.430420
95 0 1 3.379870 8.293611 541.167603
96 0 1 3.787860 8.520967 541.976013
97 0 1 4.370850 8.794146 542.705688
98 0 1 4.423840 9.070530 543.614502
99 0 1 4.293210 9.406560 544.562317
100 0 1 4.355530 9.391870 545.545532
101 0 1 4.297060 9.374190 546.530823
102 0 1 4.210740 9.665140 547.443420
103 0 1 4.050010 9.461720 548.383667
104 0 1 4.013230 9.060690 549.260986
105 0 1 4.088040 8.525954 550.055786
106 0 1 4.191210 7.997312 550.794678
107 0 1 4.447790 7.485008 551.580566
108 0 1 4.915280 6.991710 552.309692
109 0 1 5.312030 6.502000 553.057922
110 0 1 5.518010 5.970750 553.820007
111 0 1 5.737320 5.554590 554.632874
112 0 1 5.802450 5.388290 555.592773
113 0 1 5.974970 5.364810 556.654114
114 0 1 6.477050 5.559740 557.454407
115 0 1 7.051354 5.889230 558.196716
116 0 1 7.496305 6.037400 558.998718
117 0 1 8.014733 6.262550 559.742188
118 0 1 8.257333 6.500470 560.625610
119 0 1 8.062497 6.641310 561.553833
120 0 1 7.888286 6.661060 562.446167
121 0 1 7.794676 6.719120 563.412903
122 0 1 7.763844 7.063539 564.354492
123 0 1 7.837597 7.522638 565.234131
124 0 1 7.713268 7.982818 566.116699
125 0 1 7.606806 8.222093 566.961426
126 0 1 7.472238 8.691811 567.813782
127 0 1 7.464780 9.053400 568.676575
128 0 1 7.674284 9.399770 569.649414
129 0 1 8.000380 9.604560 570.515869
130 0 1 8.270531 9.991440 571.302979
131 0 1 8.494976 10.256730 572.177795
132 0 1 8.828749 10.259360 573.042969
133 0 1 9.082900 10.670860 573.820068
134 0 1 9.274850 11.033310 574.666321
135 0 1 9.472350 11.460480 575.443420
136 0 1 9.582410 11.647890 576.341675
137 0 1 9.892380 11.783800 577.312073
138 0 1 9.937120 11.808510 578.278992
139 0 1 9.990910 11.440360 579.186707
140 0 1 10.088050 11.024590 580.057373
141 0 1 10.340330 10.617730 580.945190
142 0 1 10.467540 10.154420 581.781799
143 0 1 10.555290 9.666400 582.527222
144 0 1 10.747620 9.236290 583.324280
145 0 1 10.562030 8.714833 584.044983
146 0 1 10.522430 8.158348 584.856689
147 0 1 10.696930 7.850419 585.722473
148 0 1 10.400000 7.729944 586.644287
149 0 1 10.183620 7.621773 587.576782
150 0 1 10.060510 7.570382 588.513306
151 0 1 9.710080 7.453984 589.455200
152 0 1 9.301460 7.296164 590.331604
153 0 1 8.999116 7.350704 591.201904
154 0 1 8.864305 7.614304 592.116516
155 0 1 8.908081 7.817656 593.074097
156 0 1 8.895599 7.995533 593.997925
157 0 1 8.854571 8.212009 594.949402
158 0 1 8.588557 8.332143 595.908997
159 0 1 8.199944 8.268341 596.763977
160 0 1 7.975408 8.180162 597.734985
161 0 1 7.481085 8.263540 598.594604
162 0 1 7.252221 8.266883 599.482910
163 0 1 7.340408 8.330518 600.449707
164 0 1 7.401829 8.312731 601.406128
165 0 1 7.496866 8.360617 602.365417
166 0 1 7.610130 8.366347 603.265503
167 0 1 7.875674 8.348879 604.168091
168 0 1 8.109118 8.370294 605.162109
169 0 1 8.308235 8.297297 606.068115
170 0 1 8.568886 8.411607 606.985901
171 0 1 8.693456 8.155460 607.901917
172 0 1 8.866116 8.285744 608.860718
173 0 1 8.935894 8.348174 609.828796
174 0 1 8.612484 8.451822 610.830383
175 0 1 8.491391 8.667847 611.797607
176 0 1 8.320807 8.877842 612.760925
177 0 1 8.307827 8.990302 613.697510
178 0 1 8.292728 9.208040 614.694580
179 0 1 7.924662 9.507920 615.603271
180 0 1 7.745375 9.952730 616.484131
181 0 1 7.309229 10.260750 617.315002
182 0 1 6.934220 10.562760 618.135803
183 0 1 6.756410 11.047890 618.940796
184 0 1 6.595780 11.513260 619.743347
185 0 1 6.449620 12.047260 620.541809
186 0 1 6.501640 12.165370 621.446777
187 0 1 6.259300 12.182051 622.348755
188 0 1 5.995670 11.945790 623.254089
189 0 1 5.821630 11.644840 624.177917
190 0 1 5.341730 11.336040 624.910095
191 0 1 4.840530 11.171550 625.748657
192 0 1 4.498240 11.059259 626.608154
193 0 1 4.130380 10.935190 627.482544
194 0 1 3.995340 10.436640 628.311646
195 0 1 3.892020 9.789860 629.054321
196 0 1 3.727310 9.250180 629.816895
197 0 1 3.659710 9.028100 630.791260
198 0 1 3.674090 8.833776 631.728394
199 0 1 3.596140 8.933407 632.736145
200 0 1 3.761230 8.867458 633.722290
201 0 1 3.850440 8.647768 634.682800
202 0 1 4.281410 8.488044 635.551941
203 0 1 4.695900 8.327990 636.385742
204 0 1 5.182400 8.292448 637.174500
205 0 1 5.460720 8.412274 638.057129
206 0 1 5.611460 8.419363 639.033386
207 0 1 5.666620 8.435109 640.008179
208 0 1 5.745020 8.684612 640.953003
209 0 1 5.853020 9.000360 641.851990
210 0 1 6.064170 9.465840 642.666504
211 0 1 6.166950 10.019020 643.413879
212 0 1 6.126510 10.528620 644.257080
213 0 1 5.977720 11.018790 645.197693
214 0 1 5.594000 11.514420 645.927917
215 0 1 5.092930 11.941390 646.659119
216 0 1 4.868450 12.326611 647.524780
217 0 1 5.048410 12.657380 648.373596
218 0 1 5.140500 12.650190 649.399292
219 0 1 5.184290 12.331739 650.305725
220 0 1 5.074720 12.104549 651.237183
221 0 1 4.795790 12.047920 652.140808
222 0 1 4.594510 12.057190 653.062500
223 0 1 4.218120 12.005070 654.056702
224 0 1 3.695830 11.960300 654.823792
225 0 1 3.225760 11.486140 655.575012
226 0 1 3.085390 11.123470 656.521118
227 0 1 3.143590 10.533091 657.339905
228 0 1 3.271260 9.990790 658.068604
229 0 1 3.602630 9.371500 658.754517
230 0 1 3.712720 8.756259 659.490112
231 0 1 3.968560 8.212964 660.233582
232 0 1 4.440610 8.028562 661.118713
233 0 1 4.956060 8.222391 662.012512
234 0 1 5.585360 8.156479 662.816101
235 0 1 6.062900 8.111991 663.623291
236 0 1 6.525880 8.229041 664.491394
237 0 1 6.956080 8.112504 665.402222
238 0 1 7.186151 7.952962 666.318115
239 0 1 7.135977 7.555816 667.204468
240 0 1 6.863240 6.858050 667.838379
241 0 1 6.694030 6.293220 668.678589
242 0 1 6.467080 6.026440 669.583801
243 0 1 6.379450 6.051670 670.549194
244 0 1 6.459610 5.901540 671.539490
245 0 1 6.718120 5.778150 672.485413
246 0 1 6.895750 5.610800 673.372925
247 0 1 7.167416 5.616290 674.260498
248 0 1 7.175264 5.741930 675.235779
249 0 1 7.269225 5.630360 676.211670
250 0 1 7.482675 5.696230 677.223694
251 0 1 7.595838 5.726840 678.139404
252 0 1 7.334968 5.540360 679.039795
253 0 1 6.976850 5.148100 679.816528
254 0 1 6.555690 4.858540 680.630676
255 0 1 6.287980 4.714430 681.615173
256 0 1 5.929580 4.812350 682.565002
257 0 1 5.761240 5.071010 683.442383
258 0 1 5.591780 4.956500 684.356079
259 0 1 5.448980 4.872650 685.294922
260 0 1 5.238030 4.770330 686.168823
261 0 1 5.002270 4.823740 687.098389
262 0 1 4.593040 5.202020 687.836914
263 0 1 4.417460 5.652860 688.688232
264 0 1 4.327510 6.061690 689.606873
265 0 1 4.230260 6.472980 690.438782
266 0 1 4.456840 7.061140 691.193909
267 0 1 4.814510 7.617180 691.895813
268 0 1 5.195710 8.022869 692.704102
269 0 1 5.607650 8.543434 693.411804
270 0 1 5.845520 9.062510 694.270508
271 0 1 5.976090 9.770870 694.920410
272 0 1 6.307690 10.435830 695.567322
273 0 1 6.297780 10.776011 696.423401
274 0 1 6.269790 11.192970 697.284607
275 0 1 6.127530 11.545450 698.221008
276 0 1 6.304530 11.657830 699.184875
277 0 1 6.433880 11.741720 700.122986
278 0 1 6.418060 12.002190 701.026123
279 0 1 6.501630 11.956430 701.997375
280 0 1 6.514080 12.025340 702.978516
281 0 1 6.528390 12.076010 703.942993
282 0 1 6.534150 11.849010 704.884583
283 0 1 6.859130 11.820670 705.762817
284 0 1 7.369978 11.683630 706.546509
285 0 1 7.848276 11.656130 707.443970
286 0 1 8.178052 11.922210 708.317688
287 0 1 8.238542 11.959290 709.319397
288 0 1 7.881878 12.094590 710.245728
289 0 1 7.545900 12.271290 711.135803
290 0 1 7.366777 12.036631 712.021973
291 0 1 7.194708 11.807400 712.884033
292 0 1 7.219837 11.283490 713.701599
293 0 1 7.170501 10.954900 714.609924
294 0 1 7.334440 10.400249 715.341492
295 0 1 7.426343 9.596770 715.902832
296 0 1 7.441119 9.096030 716.682922
297 0 1 7.379736 8.785907 717.639099
298 0 1 7.549809 8.454764 718.598633
299 0 1 7.520762 7.888151 719.390015
300 0 1 7.701470 7.511059 720.314331
301 0 1 7.720908 6.882610 721.186890
302 0 1 7.725319 6.455760 722.092224
303 0 1 7.759216 6.137310 722.972595
304 0 1 7.717001 5.704160 723.836792
305 0 1 7.507607 5.132380 724.619629
306 0 1 7.265388 4.633010 725.419067
307 0 1 6.790570 4.168790 726.082825
308 0 1 6.593960 3.941690 726.967896
309 0 1 6.772130 3.944390 727.852478
310 0 1 7.108158 4.032040 728.768982
311 0 1 7.270309 3.969400 729.739990
312 0 1 7.435272 3.895210 730.713013
313 0 1 7.559549 3.809640 731.660034
314 0 1 7.749737 3.438930 732.624023
315 0 1 7.808862 3.450670 733.575989
316 0 1 7.851262 3.526020 734.632019
317 0 1 8.225435 3.556960 735.507019
318 0 1 8.658228 3.569570 736.327026
319 0 1 9.112880 3.493640 737.161011
320 0 1 9.766171 3.688340 737.856995
321 0 1 10.345410 4.160910 738.450012
322 0 1 10.975451 4.287360 739.158020
323 0 1 11.555470 4.389030 739.879028
324 0 1 12.131050 4.471100 740.663025
325 0 1 12.467260 4.149740 741.541992
326 0 1 12.797541 3.817500 742.369019
327 0 1 12.949430 3.588670 743.367981
328 0 1 13.103430 3.607630 744.262024
329 0 1 13.481860 3.898270 745.172974
330 0 1 13.615089 4.444900 745.964966
331 0 1 13.693750 4.996190 746.693970
332 0 1 13.873159 5.418400 747.594971
333 0 1 14.079540 5.876410 748.419983
334 0 1 14.284980 6.265980 749.207031
335 0 1 14.264220 6.905640 749.922974
336 0 1 14.177250 7.277364 750.775024
337 0 1 14.061390 7.589908 751.614990
338 0 1 13.960810 8.213097 752.348022
339 0 1 14.054581 8.837773 753.195007
340 0 1 13.979210 9.429950 753.950012
341 0 1 13.544991 9.990880 754.630981
342 0 1 12.983470 10.321410 755.341003
343 0 1 12.596040 10.497350 756.190002
344 0 1 12.018499 10.639140 756.981995
345 0 1 11.334150 10.664850 757.667969
346 0 1 10.755050 11.001720 758.343018
347 0 1 10.130671 11.356400 759.046997
348 0 1 9.636710 11.507170 759.895020
349 0 1 9.314670 11.498580 760.832031
350 0 1 9.012650 11.452820 761.744995
351 0 1 8.526922 11.470360 762.539001
352 0 1 7.962041 11.347100 763.307007
353 0 1 7.546060 11.225380 764.181030
354 0 1 7.175287 11.058130 765.041016
355 0 1 6.799900 10.783270 765.851990
356 0 1 6.538810 10.565510 766.771973
357 0 1 6.035080 10.469810 767.632996
358 0 1 5.373060 10.392960 768.374023
359 0 1 4.588320 10.019860 768.854004
360 0 1 3.938430 9.581350 769.429993
361 0 1 3.388720 8.931139 769.905029
362 0 1 3.233540 8.008874 770.419006
363 0 1 3.313610 7.344702 771.085022
364 0 1 3.051690 6.736000 771.799011
365 0 1 2.900170 5.984450 772.384033
366 0 1 2.778260 5.675150 773.335022
367 0 1 2.858390 5.378670 774.205017
368 0 1 2.944320 5.001960 775.080017
369 0 1 3.119090 4.958700 776.098999
370 0 1 3.441150 4.896290 777.087036
371 0 1 3.246580 4.716630 778.026978
372 0 1 2.882200 5.077040 778.820007
373 0 1 2.853490 5.759800 779.510986
374 0 1 2.842090 6.415920 780.221008
375 0 1 2.673850 6.925920 781.015991
376 0 1 2.434190 7.424446 781.776001
377 0 1 2.567520 7.719080 782.671997
378 0 1 2.547900 7.923638 783.615967
379 0 1 2.527210 8.173652 784.549988
380 0 1 2.597380 8.493315 785.483032
381 0 1 2.839720 8.845499 786.320007
382 0 1 3.214790 9.157980 787.148010
383 0 1 3.726170 9.505230 787.888000
384 0 1 4.066710 10.135790 788.570984
385 0 1 4.176350 10.627230 789.332031
386 0 1 4.356120 10.704200 790.223999
387 0 1 4.693650 10.794510 791.132019
388 0 1 4.851270 10.877120 792.051025
389 0 1 4.924690 10.972630 792.989990
390 0 1 5.002430 10.856770 793.929016
391 0 1 4.955680 10.743750 794.888000
392 0 1 4.893860 10.547200 795.841003
393 0 1 4.888830 10.151480 796.739990
394 0 1 4.882140 10.036580 797.677002
395 0 1 4.952840 9.749870 798.562988
396 0 1 5.056200 9.494530 799.476990
397 0 1 5.228600 9.069750 800.307007
398 0 1 5.353360 8.645992 801.167969
399 0 1 5.227930 8.298568 802.041992
400 0 1 5.010140 7.866188 802.890015
401 0 1 4.921360 7.986816 803.818970
402 0 1 4.816150 7.692261 804.723999
403 0 1 4.881910 7.486671 805.664978
404 0 1 5.156830 7.199413 806.510986
405 0 1 5.836540 7.052839 807.174011
406 0 1 6.492320 7.053355 807.872009
407 0 1 6.941550 7.286623 808.672974
408 0 1 7.360013 7.210679 809.492004
409 0 1 7.866075 7.492891 810.255005
410 0 1 8.262913 7.556948 811.093994
411 0 1 8.663371 7.909970 811.908020
412 0 1 9.068290 8.389772 812.693970
413 0 1 9.155820 8.880821 813.528015
414 0 1 9.278180 9.149830 814.487000
415 0 1 9.542610 9.385080 815.453979
416 0 1 9.519320 9.787110 816.390015
417 0 1 9.435410 9.983590 817.412964
418 0 1 9.562380 10.013930 818.385010
419 0 1 9.776740 9.974910 819.377014
420 0 1 10.109580 9.959680 820.294006
421 0 1 10.237630 10.167000 821.181030
422 0 1 10.308450 10.344151 822.122986
423 0 1 9.766600 10.499780 822.952026
424 0 1 9.517750 11.019260 823.757996
425 0 1 9.495140 11.435490 824.669006
426 0 1 9.312320 11.764441 825.523010
427 0 1 9.261700 11.823299 826.487000
428 0 1 9.063350 11.868120 827.434021
429 0 1 9.089200 11.828890 828.365967
430 0 1 8.736538 12.120780 829.257019
431 0 1 8.295997 12.232960 830.033997
432 0 1 7.786431 12.452220 830.851013
433 0 1 7.579270 12.832331 831.726990
434 0 1 7.244258 13.135941 832.561035
435 0 1 7.157151 12.888639 833.476013
436 0 1 7.191266 12.658350 834.434998
437 0 1 7.385403 12.332689 835.372986
438 0 1 7.645359 11.648860 836.014038
439 0 1 7.977577 10.992390 836.766968
440 0 1 8.173644 10.151580 837.244019
441 0 1 7.992095 9.368220 837.661987
442 0 1 7.735372 8.418429 837.865967
443 0 1 7.353813 7.591074 838.049011
444 0 1 7.259174 6.600390 837.931030
445 0 1 7.527581 5.787230 837.830994
446 0 1 7.808504 5.113890 837.257019
447 0 1 8.496119 4.499120 836.817017
448 0 1 9.034970 4.097140 836.140991
449 0 1 9.570180 4.000130 835.414978
450 0 1 9.915340 4.027630 834.455017
451 0 1 10.218821 4.236020 833.483032
452 0 1 10.310090 4.194750 832.489990
453 0 1 10.398251 4.650510 831.599976
454 0 1 10.354760 5.180300 830.839966
455 0 1 10.107870 5.651620 829.947021
456 0 1 10.042670 6.238330 829.141968
457 0 1 10.124630 6.677330 828.268005
458 0 1 10.084880 6.978900 827.285034
459 0 1 10.114000 7.117754 826.325989
460 0 1 10.185610 7.474018 825.416992
461 0 1 10.346860 8.166353 824.719971
462 0 1 10.028111 8.905044 824.110962
463 0 1 9.574540 9.237660 823.351013
464 0 1 9.030770 9.663270 822.625000
465 0 1 8.438252 10.089320 821.984009
466 0 1 8.123113 10.612870 821.208984
467 0 1 7.904726 10.876620 820.252014
468 0 1 7.938381 11.050400 819.315979
469 0 1 7.776377 11.201560 818.403015
470 0 1 7.400402 11.290760 817.561035
471 0 1 7.357337 11.412440 816.615967
472 0 1 7.024742 11.455410 815.731018
473 0 1 6.566780 11.573250 814.888000
474 0 1 6.381430 11.682100 813.976990
475 0 1 6.271040 12.040131 813.023010
476 0 1 6.190040 12.245319 812.080017
477 0 1 6.216580 12.632120 811.198975
478 0 1 6.081560 12.855240 810.320984
479 0 1 5.943800 12.975941 809.393005
480 0 1 5.897610 13.193911 808.427979
481 0 1 5.766720 13.199961 807.505005
482 0 1 5.423640 13.219960 806.601990
483 0 1 5.256230 13.385560 805.638000
484 0 1 5.219190 13.346260 804.666992
485 0 1 5.030890 13.088511 803.775024
486 0 1 4.916260 12.841801 802.893982
487 0 1 5.093760 12.527670 801.947998
488 0 1 5.358170 12.252710 801.021973
489 0 1 5.667250 11.914870 800.203979
490 0 1 5.847250 11.632370 799.281006
491 0 1 6.457510 11.409430 798.559998
492 0 1 7.283890 11.165620 798.067993
493 0 1 7.840081 10.674370 797.348022
494 0 1 8.147848 10.320830 796.570007
495 0 1 8.500188 9.952690 795.718994
496 0 1 8.715881 10.143220 794.835999
497 0 1 8.926223 10.193750 793.877014
498 0 1 9.050520 10.230150 792.922974
499 0 1 9.225580 10.494400 791.962036
500 0 1 9.222100 10.634640 791.015991
501 0 1 9.089360 10.639960 790.057983
502 0 1 8.784829 10.848490 789.195984
503 0 1 8.657495 10.978510 788.247009
504 0 1 8.405599 11.359100 787.398987
505 0 1 8.377148 11.799960 786.476990
506 0 1 8.173099 12.290239 785.666016
507 0 1 7.822261 12.300011 784.794006
508 0 1 7.617247 12.431170 783.863037
509 0 1 7.634691 12.484320 782.911011
510 0 1 7.798584 12.388790 781.903015
511 0 1 7.908507 12.453580 780.917969
512 0 1 8.149513 12.398000 780.023987
513 0 1 8.112854 12.323840 779.063965
514 0 1 7.980563 12.096240 778.164978
515 0 1 7.632616 11.684580 777.395020
516 0 1 7.125371 11.489960 776.591003
517 0 1 6.714710 11.492420 775.760010
518 0 1 6.278410 11.439350 774.890015
519 0 1 5.840210 11.599510 774.041992
520 0 1 5.646870 11.973270 773.172974
521 0 1 5.606890 12.165279 772.252014
522 0 1 5.691580 12.370300 771.364990
523 0 1 6.022410 12.397440 770.419006
524 0 1 6.660950 12.447090 769.718018
525 0 1 7.236337 12.527570 768.937012
526 0 1 7.887563 12.613970 768.306030
527 0 1 8.420703 12.591030 767.487000
528 0 1 8.736903 12.792250 766.601990
529 0 1 8.773471 12.967960 765.655029
530 0 1 8.752314 13.063080 764.716980
531 0 1 8.448796 13.258440 763.799988
532 0 1 8.048917 13.250560 762.940002
533 0 1 7.409463 12.808451 762.322998
534 0 1 6.840770 12.045240 762.093994
535 0 1 5.950050 11.428770 761.958008
536 0 1 5.124690 10.930850 761.791992
537 0 1 4.294820 10.520000 761.955994
538 0 1 3.400070 10.163730 761.622009
539 0 1 2.819570 9.589240 761.205017
540 0 1 2.175260 9.181300 760.520020
541 0 1 1.854880 8.963946 759.645020
542 0 1 1.740560 8.798748 758.666016
543 0 1 1.725130 8.731278 757.731995
544 0 1 1.602380 8.596792 756.796997
545 0 1 1.579420 8.413519 755.872986
546 0 1 1.725720 8.474943 754.861023
547 0 1 1.881780 8.434475 753.927002
548 0 1 2.033720 8.511518 752.914001
549 0 1 2.275320 8.562737 751.952026
550 0 1 2.862050 8.515542 751.171021
551 0 1 3.158460 8.622821 750.200012
552 0 1 3.309350 8.473050 749.249023
553 0 1 3.695670 8.749122 748.463013
554 0 1 3.975230 8.687482 747.533020
555 0 1 4.354820 8.591416 746.637024
556 0 1 4.503610 8.708103 745.742981
557 0 1 5.077620 8.828291 744.900024
558 0 1 5.333890 8.885286 744.012024
559 0 1 5.591390 8.881421 743.158020
560 0 1 5.717150 8.543665 742.250977
561 0 1 5.943350 8.325027 741.341980
562 0 1 5.875600 8.156649 740.406006
563 0 1 6.013410 8.007875 739.448975
564 0 1 6.092420 7.981366 738.507019
565 0 1 6.217990 7.914380 737.530029
566 0 1 6.316520 7.966786 736.559998
567 0 1 6.274210 8.091108 735.586975
568 0 1 6.639100 8.126586 734.648010
569 0 1 6.834440 8.172388 733.679993
570 0 1 7.064863 8.206259 732.703979
571 0 1 7.666643 7.941914 731.955017
572 0 1 8.117575 7.873236 731.141968
573 0 1 8.363021 8.069946 730.255981
574 0 1 8.477706 8.354037 729.361023
575 0 1 8.571870 8.604184 728.403992
576 0 1 8.720809 9.076310 727.561279
577 0 1 9.255150 9.621290 726.947510
578 0 1 9.566980 10.308701 726.323181
579 0 1 9.658250 10.845170 725.539001
580 0 1 9.216370 11.220921 724.691223
581 0 1 8.890685 11.454700 723.835327
582 0 1 8.710257 11.637210 722.823425
583 0 1 8.800482 12.146830 722.003113
584 0 1 8.933641 12.488900 721.052368
585 0 1 9.246250 12.585960 720.199280
586 0 1 9.495270 12.681749 719.271912
587 0 1 9.757860 12.583830 718.336487
588 0 1 9.886520 12.508350 717.402588
589 0 1 10.084060 12.380230 716.500977
590 0 1 10.273060 12.171340 715.598694
591 0 1 10.565770 11.775300 714.769714
592 0 1 10.756710 11.516890 713.883118
593 0 1 10.992860 11.574270 712.927673
594 0 1 11.191060 11.809669 712.019104
595 0 1 11.467810 11.798480 711.091309
596 0 1 11.792370 11.680050 710.177307
597 0 1 12.037399 11.536079 709.177368
598 0 1 12.313379 11.127920 708.303284
599 0 1 12.531440 10.741190 707.405579
600 0 1 12.580299 10.461480 706.442322
601 0 1 12.389500 10.157770 705.518005
602 0 1 12.281480 9.843810 704.557190
603 0 1 12.498751 9.507520 703.718079
604 0 1 12.319630 9.164910 702.830383
605 0 1 11.981060 8.627433 702.105103
606 0 1 11.634560 8.063516 701.445312
607 0 1 11.303101 7.600539 700.727783
608 0 1 11.088100 7.130945 699.883911
609 0 1 10.882430 6.699920 698.977478
610 0 1 10.734070 6.158780 698.176514
611 0 1 10.456580 5.737800 697.365173
612 0 1 10.393880 5.736040 696.396301
613 0 1 10.682230 5.847460 695.540222
614 0 1 11.321520 5.841900 694.754700
615 0 1 11.897820 6.093560 693.950928
616 0 1 12.516960 6.354450 693.297729
617 0 1 13.031210 6.715940 692.528381
618 0 1 13.425920 7.179449 691.770813
619 0 1 13.564899 7.864089 691.088379
620 0 1 13.538401 8.306942 690.213013
621 0 1 13.450541 8.850031 689.382690
622 0 1 13.453560 9.347300 688.587097
623 0 1 13.367090 9.945860 687.847900
624 0 1 13.389339 10.464560 687.017395
625 0 1 13.129590 10.811399 686.205994
626 0 1 13.091240 11.379260 685.464111
627 0 1 12.744600 11.943330 684.669800
628 0 1 12.523050 12.221310 683.747375
629 0 1 12.479219 12.367220 682.784302
630 0 1 12.077050 12.382390 681.910400
631 0 1 11.679120 12.219210 681.080872
632 0 1 11.205950 12.277840 680.267212
633 0 1 10.807800 12.083680 679.327026
634 0 1 10.590060 11.844390 678.414978
635 0 1 10.467450 11.721680 677.395630
636 0 1 10.589849 11.635450 676.469727
637 0 1 10.571080 11.519880 675.490723
638 0 1 10.325280 11.239500 674.641724
639 0 1 10.097790 11.024130 673.690430
640 0 1 9.702380 10.732570 672.900879
641 0 1 9.223010 10.431140 672.181519
642 0 1 8.657764 10.099380 671.429077
643 0 1 8.319040 10.129990 670.549316
644 0 1 8.044496 10.140150 669.533325
645 0 1 7.688951 10.213250 668.542480
646 0 1 7.394047 10.463890 667.622986
647 0 1 6.848310 10.560620 666.837524
648 0 1 6.419100 10.737130 665.999573
649 0 1 6.034460 11.064660 665.148499
650 0 1 5.601730 11.342250 664.358398
651 0 1 5.357360 11.572980 663.424377
652 0 1 5.394500 11.599140 662.492432
653 0 1 5.359440 11.602819 661.521790
654 0 1 5.329790 11.311540 660.582092
655 0 1 5.067270 11.269800 659.607605
656 0 1 4.856120 11.122310 658.684326
657 0 1 4.774930 10.776620 657.807678
658 0 1 4.447390 10.378370 656.997498
659 0 1 4.347410 9.777120 656.272583
660 0 1 4.080860 9.168880 655.592590
661 0 1 3.611810 8.653780 654.952087
662 0 1 3.090900 8.370569 654.161072
663 0 1 2.665110 8.071856 653.351196
664 0 1 2.280520 7.894230 652.404114
665 0 1 1.979020 7.460761 651.575928
666 0 1 1.651050 6.951760 650.805603
667 0 1 1.553840 6.227890 650.195007
668 0 1 1.664800 5.449860 649.531128
669 0 1 1.957960 4.771990 648.971191
670 0 1 2.424090 4.053110 648.606812
671 0 1 3.147520 3.495400 648.289185
672 0 1 4.040110 3.566740 647.819885
673 0 1 4.820000 4.007350 647.466187
674 0 1 5.669610 4.124680 647.173218
675 0 1 6.370210 4.229910 646.510010
676 0 1 7.095980 4.267810 645.866516
677 0 1 7.695911 4.480130 645.117310
678 0 1 8.414996 4.713640 644.346619
679 0 1 8.727798 5.100370 643.521606
680 0 1 9.237220 5.800210 643.055908
681 0 1 9.506570 6.608410 642.539185
682 0 1 9.527440 7.342063 641.896973
683 0 1 9.607850 8.039507 641.119873
684 0 1 9.247090 8.698109 640.423096
685 0 1 9.073480 9.427340 639.851013
686 0 1 8.833286 9.888700 638.959229
687 0 1 9.162410 10.306829 638.149597
688 0 1 9.444560 10.696580 637.308105
689 0 1 9.378130 10.948410 636.412781
690 0 1 9.359710 11.172210 635.448181
691 0 1 9.401440 11.171600 634.397095
692 0 1 9.396720 10.938880 633.508118
693 0 1 9.449110 10.382071 632.739807
694 0 1 9.631510 9.700660 632.142822
695 0 1 9.661410 9.206890 631.382446
696 0 1 9.700770 8.910436 630.457642
697 0 1 9.573250 8.628961 629.486816
698 0 1 9.737320 8.393588 628.611206
699 0 1 9.744710 8.145843 627.783264
700 0 1 9.543370 7.911397 626.917725
701 0 1 9.437900 7.781409 625.966370
702 0 1 9.146811 7.706664 625.008118
703 0 1 8.922957 7.591194 624.051575
704 0 1 8.802332 7.542868 623.101746
705 0 1 8.380044 7.626355 622.225830
706 0 1 7.840391 7.696091 621.402588
707 0 1 7.470687 7.753570 620.517334
708 0 1 6.989450 7.659365 619.668457
709 0 1 6.852760 7.637696 618.751892
710 0 1 6.758520 7.194724 617.825928
711 0 1 6.414310 6.991270 616.935913
712 0 1 6.142650 6.889270 616.101013
713 0 1 6.096900 6.873880 615.145020
714 0 1 6.085130 6.759720 614.268311
715 0 1 5.981560 6.697780 613.349304
716 0 1 5.894690 6.717840 612.379700
717 0 1 5.832420 6.784050 611.412598
718 0 1 6.040760 6.617640 610.470215
719 0 1 6.516760 6.346110 609.525208
720 0 1 7.003151 6.123300 608.725586
721 0 1 7.476977 5.776700 607.932373
722 0 1 8.070882 5.398700 607.253723
723 0 1 8.432843 4.848390 606.585083
724 0 1 8.905834 4.465320 605.837402
725 0 1 9.523220 4.290330 605.152710
726 0 1 9.989460 4.041260 604.332214
727 0 1 10.418910 3.980150 603.520386
728 0 1 10.586810 4.116720 602.624207
729 0 1 10.589990 4.297320 601.656189
730 0 1 10.650960 4.542930 600.702209
731 0 1 10.801150 4.803040 599.833008
732 0 1 11.188470 5.051370 598.880615
733 0 1 11.119190 5.647180 598.125305
734 0 1 10.897600 6.213750 597.383911
735 0 1 10.559320 6.591440 596.563110
736 0 1 10.271350 6.840880 595.667480
737 0 1 9.942820 6.615720 594.781921
738 0 1 9.568420 6.078500 594.139282
739 0 1 9.065480 5.682750 593.445312
740 0 1 8.750306 5.445500 592.585876
741 0 1 8.429430 5.042610 591.729919
742 0 1 8.302808 4.800490 590.812012
743 0 1 8.249548 5.166530 589.914307
744 0 1 8.175523 5.602040 588.932800
745 0 1 8.152987 6.026220 588.070984
746 0 1 8.055397 6.494520 587.234680
747 0 1 7.818255 7.015704 586.516296
748 0 1 7.264339 7.612208 586.025574
749 0 1 6.720630 8.139697 585.409790
750 0 1 6.327460 8.573234 584.650696
751 0 1 6.174560 9.057050 583.807617
752 0 1 5.826650 9.411790 582.942200
753 0 1 5.753360 9.539210 581.992493
754 0 1 5.812250 9.660190 581.083679
755 0 1 5.615310 9.726680 580.148682
756 0 1 5.447860 9.926040 579.210205
757 0 1 5.362680 9.903111 578.289124
758 0 1 5.127590 9.572850 577.406494
759 0 1 4.802100 9.329210 576.576172
760 0 1 4.344460 9.174380 575.763428
761 0 1 4.131960 9.272590 574.778687
762 0 1 4.260250 9.416800 573.847168
763 0 1 4.433520 9.550680 572.931213
764 0 1 4.895890 9.539100 572.068176
765 0 1 5.020580 9.646060 571.092773
766 0 1 5.246550 9.606290 570.159607
767 0 1 5.356130 9.452230 569.189880
768 0 1 5.476130 9.090540 568.363525
769 0 1 5.768110 8.781641 567.409424
770 0 1 6.131760 8.613576 566.557800
771 0 1 6.527010 8.392888 565.690796
772 0 1 7.008494 8.482914 564.844604
773 0 1 7.103261 8.630885 563.913208
774 0 1 6.979210 8.709863 562.981934
775 0 1 6.760090 8.758931 562.095215
776 0 1 6.692970 8.960119 561.152466
777 0 1 6.614250 8.908795 560.209412
778 0 1 6.489920 8.795375 559.256897
779 0 1 6.618840 8.494998 558.354309
780 0 1 7.151137 8.154493 557.609497
781 0 1 7.655079 7.729876 556.878479
782 0 1 7.968151 7.474564 555.984802
783 0 1 8.269968 7.318811 555.040588
784 0 1 8.597894 7.240193 554.115906
785 0 1 9.078240 7.164296 553.257568
786 0 1 9.294440 6.858240 552.335205
787 0 1 9.540310 6.615590 551.446533
788 0 1 9.535940 6.470200 550.497803
789 0 1 9.715100 6.616100 549.601318
790 0 1 10.184710 7.027339 548.918213
791 0 1 10.725290 7.249704 548.059814
792 0 1 11.189341 7.403237 547.257385
793 0 1 11.605540 7.652477 546.464417