LAMMPS data file via MDAnalysis

        1000  atoms
        1000  bonds
        1000  angles
           0  dihedrals
           0  impropers

           1  atom types
           1  bond types
           1  angle types
           0  dihedral types
           0  improper types

0.000000 16.000000 xlo xhi
0.000000 16.000000 ylo yhi
0.000000 1257.000000 zlo zhi


Masses

1 1.000000

Atoms

1 0 1 9.305560 10.264610 443.437988
2 0 1 9.371580 10.804200 444.235992
3 0 1 9.333340 11.505210 444.903015
4 0 1 9.104840 11.846510 445.787994
5 0 1 8.994370 11.971340 446.705994
6 0 1 8.769522 11.947710 447.700989
7 0 1 8.608426 11.682790 448.593018
8 0 1 8.589335 11.557850 449.572021
9 0 1 8.783371 11.322510 450.528015
10 0 1 9.014470 10.903540 451.356018
11 0 1 8.932834 10.564090 452.289001
12 0 1 9.155700 10.267270 453.200989
13 0 1 9.318740 9.824570 454.041992
14 0 1 9.278690 9.330840 454.851990
15 0 1 9.285210 9.193820 455.787994
16 0 1 9.152960 9.042150 456.674988
17 0 1 9.096180 8.656945 457.583984
18 0 1 8.986147 8.466672 458.549988
19 0 1 8.482366 8.045788 459.276001
20 0 1 8.290524 7.997464 460.132996
21 0 1 8.231251 7.648021 461.039001
22 0 1 8.177002 7.186630 461.856018
23 0 1 8.511867 6.583670 462.578979
24 0 1 8.716187 5.909400 463.291992
25 0 1 8.839053 5.444470 464.054016
26 0 1 8.825938 5.042580 464.927979
27 0 1 8.712267 4.428870 465.647003
28 0 1 9.038640 3.859620 466.393005
29 0 1 9.312560 3.788640 467.311005
30 0 1 9.412930 3.633900 468.268982
31 0 1 9.460980 3.370490 469.182983
32 0 1 9.529480 2.942850 470.148010
33 0 1 9.666980 3.059930 471.122986
34 0 1 9.739160 3.109910 472.041992
35 0 1 9.982380 3.007090 472.947998
36 0 1 10.085160 3.114140 473.910004
37 0 1 10.087830 3.216700 474.848022
38 0 1 10.048340 3.511800 475.779999
39 0 1 9.991950 3.806000 476.692993
40 0 1 9.617680 4.312250 477.401978
41 0 1 9.226390 4.814620 478.166992
42 0 1 8.855887 5.339780 478.792999
43 0 1 8.558747 6.144960 479.268005
44 0 1 8.348234 6.806350 479.919983
45 0 1 8.211294 7.581204 480.398010
46 0 1 8.237735 8.141302 481.182983
47 0 1 8.329438 8.817527 481.863007
48 0 1 8.765955 9.260350 482.662994
49 0 1 9.066870 9.631290 483.484985
50 0 1 9.392820 9.775140 484.382996
51 0 1 9.473250 10.090620 485.260010
52 0 1 9.462870 10.390210 486.205994
53 0 1 9.281960 10.630400 487.070007
54 0 1 9.096490 10.884380 487.951996
55 0 1 8.595742 10.928830 488.733002
56 0 1 8.109651 11.111080 489.661011
57 0 1 7.956429 11.257350 490.635010
58 0 1 7.646250 11.169670 491.528992
59 0 1 7.320959 10.787650 492.458984
60 0 1 7.066480 10.501340 493.330017
61 0 1 7.051520 10.522141 494.273010
62 0 1 6.871900 10.670259 495.218994
63 0 1 6.686010 11.006540 496.098022
64 0 1 6.547470 11.493870 496.931000
65 0 1 6.336670 12.090680 497.729980
66 0 1 6.260040 12.554100 498.615997
67 0 1 6.364540 12.641350 499.557983
68 0 1 6.349950 12.738490 500.531006
69 0 1 6.182820 13.077890 501.432983
70 0 1 5.877340 13.391060 502.265015
71 0 1 5.991800 13.447350 503.252014
72 0 1 5.954510 13.376860 504.213989
73 0 1 5.924090 13.208270 505.162994
74 0 1 5.842510 12.823050 506.075012
75 0 1 5.704170 12.829300 507.032990
76 0 1 5.541080 12.692710 508.003998
77 0 1 5.412950 12.478170 508.958008
78 0 1 5.551910 12.217590 509.839996
79 0 1 5.768210 11.863170 510.628998
80 0 1 5.999560 11.545170 511.592010
81 0 1 6.396460 11.335960 512.460022
82 0 1 6.518310 11.406981 513.455017
83 0 1 6.513160 11.259120 514.388977
84 0 1 6.736720 11.237950 515.314026
85 0 1 7.110994 11.389920 516.207031
86 0 1 7.390463 11.371610 517.138000
87 0 1 7.445636 11.157460 518.018005
88 0 1 7.548148 10.968679 518.952026
89 0 1 7.648378 10.785720 519.908020
90 0 1 7.688883 10.368100 520.776978
91 0 1 7.876973 10.009100 521.629028
92 0 1 8.137954 9.691380 522.505981
93 0 1 8.220775 9.206570 523.309021
94 0 1 8.122454 8.787715 524.200989
95 0 1 7.967317 8.291493 525.031006
96 0 1 7.877369 7.584138 525.771973
97 0 1 7.886208 7.161841 526.651001
98 0 1 7.827207 6.633810 527.476013
99 0 1 7.462428 6.486780 528.377014
100 0 1 7.212727 6.485430 529.303833
101 0 1 7.344814 6.679220 530.266724
102 0 1 7.121643 6.828900 531.197998
103 0 1 6.835260 7.044078 532.118103
104 0 1 6.794580 7.263783 533.087219
105 0 1 6.695190 7.133402 534.050781
106 0 1 7.072883 7.191529 534.944275
107 0 1 7.417476 7.290194 535.798523
108 0 1 7.614616 7.561775 536.723389
109 0 1 8.038578 7.679322 537.635193
110 0 1 8.458605 7.570035 538.493774
111 0 1 8.645425 7.568522 539.463684
112 0 1 9.054440 7.560624 540.288696
113 0 1 9.303500 7.764020 541.236389
114 0 1 9.688720 7.836095 542.205933
115 0 1 10.288500 8.040750 542.858398
116 0 1 10.810940 8.218224 543.645630
117 0 1 11.361810 8.311787 544.373779
118 0 1 11.726570 8.333826 545.221313
119 0 1 11.820020 8.641252 546.056824
120 0 1 11.956170 9.022930 546.959412
121 0 1 12.070360 9.208530 547.903320
122 0 1 12.239410 9.203920 548.877075
123 0 1 12.298531 9.139130 549.832031
124 0 1 12.446730 9.132420 550.832275
125 0 1 12.434610 9.395360 551.768005
126 0 1 11.962290 9.625630 552.578125
127 0 1 11.220580 9.859380 553.158508
128 0 1 10.712230 9.982390 553.923279
129 0 1 10.039120 9.918850 554.605103
130 0 1 9.531410 9.923960 555.504700
131 0 1 9.059170 9.767500 556.304199
132 0 1 8.528505 9.526220 557.149597
133 0 1 8.162095 9.162630 557.984802
134 0 1 7.582532 8.917654 558.752197
135 0 1 6.859770 8.657549 559.313110
136 0 1 6.089710 8.374356 559.794006
137 0 1 5.216940 8.200799 560.212708
138 0 1 4.432540 8.358065 560.789490
139 0 1 3.961980 8.526707 561.584106
140 0 1 3.614600 8.642048 562.398193
141 0 1 3.443770 8.846186 563.383179
142 0 1 3.092510 8.784417 564.244080
143 0 1 2.739310 8.680962 565.086914
144 0 1 2.327140 8.758016 565.983887
145 0 1 2.050020 8.894504 566.962097
146 0 1 2.044610 9.107050 567.926697
147 0 1 2.110740 9.226920 568.833496
148 0 1 2.523890 9.274690 569.690674
149 0 1 2.940830 9.455710 570.581299
150 0 1 2.978080 9.438370 571.499573
151 0 1 3.039020 9.544550 572.445679
152 0 1 3.208160 9.716790 573.411987
153 0 1 3.294030 10.134510 574.257080
154 0 1 3.158400 10.547120 575.154114
155 0 1 3.313430 11.011971 576.026794
156 0 1 3.636460 11.539310 576.807495
157 0 1 3.735820 11.876590 577.654724
158 0 1 3.956390 12.003700 578.641113
159 0 1 4.148780 12.192090 579.585205
160 0 1 4.174800 12.415939 580.478394
161 0 1 4.041170 12.699820 581.402527
162 0 1 3.786610 12.805230 582.401184
163 0 1 3.770270 12.778970 583.344727
164 0 1 3.816540 12.417150 584.301575
165 0 1 3.951870 12.121770 585.193298
166 0 1 4.124920 11.649879 586.034973
167 0 1 4.342740 11.132200 586.782715
168 0 1 4.462220 10.601290 587.562500
169 0 1 4.564210 10.076310 588.311401
170 0 1 4.700680 9.573020 589.071411
171 0 1 4.852730 9.260560 589.941223
172 0 1 5.075070 9.291270 590.921814
173 0 1 5.351450 9.505490 591.786072
174 0 1 5.290110 9.708130 592.765686
175 0 1 5.416180 9.816430 593.692627
176 0 1 5.451450 9.799570 594.662781
177 0 1 5.632710 9.916500 595.586182
178 0 1 5.717220 9.983440 596.585876
179 0 1 5.790140 9.808180 597.539673
180 0 1 5.868160 9.646590 598.512024
181 0 1 5.752660 9.533950 599.453186
182 0 1 5.554520 9.556170 600.431030
183 0 1 5.651860 9.394670 601.375122
184 0 1 5.882420 9.359930 602.342285
185 0 1 5.742730 9.236430 603.356689
186 0 1 5.745230 9.294300 604.261230
187 0 1 5.437760 9.284990 605.220215
188 0 1 5.186150 9.306330 606.121399
189 0 1 5.027310 9.313300 607.095703
190 0 1 5.077240 9.553410 608.126587
191 0 1 5.406310 9.703420 609.081909
192 0 1 5.586070 10.059850 609.947998
193 0 1 5.945840 10.477020 610.786011
194 0 1 6.406880 10.715060 611.569275
195 0 1 6.712680 11.010490 612.460510
196 0 1 7.033867 11.368430 613.294006
197 0 1 7.329110 11.363860 614.183777
198 0 1 7.484608 11.031100 615.073975
199 0 1 7.250630 10.491580 615.815308
200 0 1 6.934860 9.865810 616.645508
201 0 1 6.846200 9.134300 617.364807
202 0 1 6.731750 8.447088 618.036011
203 0 1 6.769890 7.842403 618.767639
204 0 1 6.499180 7.285413 619.521301
205 0 1 6.249900 6.876410 620.328064
206 0 1 5.715810 6.522080 621.072998
207 0 1 5.028140 6.322340 621.681396
208 0 1 4.247560 6.243900 622.219971
209 0 1 3.530250 6.387010 622.794983
210 0 1 3.019120 6.391130 623.627075
211 0 1 2.526100 6.449050 624.429199
212 0 1 2.143690 6.203830 625.317139
213 0 1 2.286080 6.069030 626.248047
214 0 1 2.476560 5.832310 627.142761
215 0 1 2.625540 5.294870 627.897217
216 0 1 2.844180 4.768740 628.689819
217 0 1 3.280810 4.194370 629.328918
218 0 1 3.737430 3.590110 629.931152
219 0 1 4.290520 3.230900 630.704895
220 0 1 4.623450 3.191140 631.634277
221 0 1 5.012420 3.270860 632.533936
222 0 1 5.132270 3.346290 633.608459
223 0 1 5.189680 3.405350 634.524536
224 0 1 5.348630 3.301190 635.482788
225 0 1 5.427660 3.346860 636.411011
226 0 1 5.750830 3.185730 637.332642
227 0 1 6.190770 3.052200 638.140808
228 0 1 6.435080 2.839160 639.084900
229 0 1 6.709530 2.958010 639.983582
230 0 1 6.903380 3.081860 640.970215
231 0 1 6.751230 2.824980 641.875610
232 0 1 6.959350 2.465210 642.765320
233 0 1 6.750590 2.360660 643.631714
234 0 1 6.812220 2.220500 644.581299
235 0 1 6.493710 1.986080 645.503418
236 0 1 6.223790 1.836760 646.370300
237 0 1 6.227630 1.955920 647.316223
238 0 1 6.173470 1.928980 648.274292
239 0 1 6.234290 1.814820 649.264282
240 0 1 6.476510 1.656050 650.234009
241 0 1 6.385540 1.395920 651.187622
242 0 1 6.110790 1.355180 652.111572
243 0 1 6.088230 1.738890 652.985413
244 0 1 6.181360 2.069800 653.874573
245 0 1 6.295720 2.636450 654.658081
246 0 1 6.322190 3.195880 655.474976
247 0 1 6.249150 3.946920 656.074280
248 0 1 6.002860 4.601170 656.796509
249 0 1 5.670510 5.227980 657.459595
250 0 1 5.720240 5.932980 658.026123
251 0 1 5.748150 6.619340 658.728027
252 0 1 5.791750 7.216581 659.482300
253 0 1 6.018200 7.708831 660.290527
254 0 1 6.073190 8.210658 661.080627
255 0 1 6.059150 8.708241 661.917786
256 0 1 6.031760 9.050830 662.825806
257 0 1 6.192600 9.425360 663.754822
258 0 1 6.235680 9.685050 664.665710
259 0 1 6.123960 9.611200 665.637817
260 0 1 6.064810 9.671840 666.622314
261 0 1 5.778950 9.603840 667.538208
262 0 1 5.341780 9.444610 668.336914
263 0 1 4.979840 9.063470 669.125977
264 0 1 4.589390 8.794444 669.948120
265 0 1 4.671990 8.399274 670.817871
266 0 1 4.870550 7.835783 671.519897
267 0 1 5.278390 7.197600 672.157593
268 0 1 5.612980 6.673240 672.972290
269 0 1 5.702860 6.409980 673.888306
270 0 1 5.816500 6.053150 674.764771
271 0 1 5.801360 5.639980 675.702087
272 0 1 6.164530 5.485730 676.573486
273 0 1 6.382550 5.122580 677.493591
274 0 1 6.614670 4.716420 678.341431
275 0 1 6.743350 4.508240 679.273071
276 0 1 7.114788 4.036610 680.030212
277 0 1 7.303120 3.636890 680.832214
278 0 1 7.667495 3.418620 681.698425
279 0 1 7.965641 3.334860 682.660583
280 0 1 8.072010 3.158270 683.570496
281 0 1 8.111880 2.826000 684.513306
282 0 1 8.060041 2.690030 685.481689
283 0 1 7.770344 2.738840 686.345276
284 0 1 7.347697 2.769120 687.174805
285 0 1 6.837770 2.756490 688.097107
286 0 1 6.392710 2.764630 688.986511
287 0 1 6.108810 2.814910 689.949097
288 0 1 6.119690 2.862480 690.886597
289 0 1 6.188850 2.969660 691.865479
290 0 1 6.450470 2.820320 692.808777
291 0 1 6.705310 2.835990 693.725891
292 0 1 6.804010 2.903500 694.695374
293 0 1 6.660300 3.033280 695.664795
294 0 1 6.773340 3.193330 696.666016
295 0 1 6.799730 3.582340 697.553406
296 0 1 7.061837 4.170390 698.338501
297 0 1 6.959170 4.962390 698.970825
298 0 1 6.973050 5.338870 699.816406
299 0 1 7.015100 5.535960 700.738403
300 0 1 7.218631 5.875170 701.587708
301 0 1 7.668256 6.323820 702.320190
302 0 1 7.805879 6.780300 703.130493
303 0 1 7.979035 7.319755 703.955811
304 0 1 8.140185 7.836262 704.783813
305 0 1 8.337689 8.341473 705.539612
306 0 1 8.596358 8.812976 706.341614
307 0 1 8.691928 9.435620 707.025085
308 0 1 8.702553 10.202080 707.638428
309 0 1 8.758240 10.598980 708.526611
310 0 1 8.793275 10.878560 709.432190
311 0 1 8.786867 11.304010 710.242004
312 0 1 8.487080 11.659719 711.177979
313 0 1 8.451461 11.924210 712.074524
314 0 1 8.267246 12.125890 713.029175
315 0 1 8.267351 12.171300 713.983826
316 0 1 8.094680 12.388580 714.872681
317 0 1 7.867992 12.455370 715.815796
318 0 1 7.630096 12.582600 716.703186
319 0 1 7.361759 12.852650 717.550903
320 0 1 7.311675 12.924140 718.566895
321 0 1 7.239293 13.256371 719.500488
322 0 1 7.056436 13.746770 720.340515
323 0 1 6.812020 14.019870 721.214966
324 0 1 6.376100 14.137910 722.071594
325 0 1 5.850520 13.864140 722.853577
326 0 1 5.449420 13.637510 723.661316
327 0 1 4.942240 13.216560 724.300110
328 0 1 4.429390 12.749920 724.974976
329 0 1 4.119350 12.556110 725.829834
330 0 1 3.892570 12.512791 726.747681
331 0 1 3.799820 12.516960 727.680786
332 0 1 3.891270 12.393780 728.648987
333 0 1 4.192190 12.612340 729.518005
334 0 1 4.484540 12.799820 730.403015
335 0 1 4.896620 13.027590 731.187012
336 0 1 5.262210 13.025761 732.083984
337 0 1 5.763570 12.782539 732.862976
338 0 1 6.429430 12.706500 733.596985
339 0 1 7.088729 12.721900 734.312988
340 0 1 7.746047 12.814600 734.963989
341 0 1 8.242602 13.054501 735.773010
342 0 1 8.669056 13.201920 736.604004
343 0 1 9.020070 13.022580 737.535034
344 0 1 9.293030 12.855530 738.471008
345 0 1 9.702140 12.734690 739.385986
346 0 1 9.888320 12.961100 740.309998
347 0 1 9.971760 13.063660 741.259033
348 0 1 9.763080 12.999980 742.138977
349 0 1 9.733180 12.750031 743.219971
350 0 1 9.332680 12.424770 744.033020
351 0 1 8.600936 12.414869 744.698975
352 0 1 7.972646 12.131860 745.442017
353 0 1 7.372542 12.331820 746.276001
354 0 1 6.856900 12.628201 747.039978
355 0 1 6.346590 12.621190 747.856018
356 0 1 6.062420 12.600520 748.729004
357 0 1 5.655160 12.441010 749.551025
358 0 1 5.426690 12.137540 750.478027
359 0 1 5.192560 11.959390 751.377991
360 0 1 4.671430 11.769830 752.192017
361 0 1 4.221770 11.681070 753.056030
362 0 1 3.755060 11.767890 753.911987
363 0 1 3.011400 11.790150 754.484009
364 0 1 2.541800 11.380630 755.297974
365 0 1 2.229770 10.882390 756.070984
366 0 1 2.284570 10.911819 757.054993
367 0 1 2.432750 10.640050 757.997009
368 0 1 2.706590 10.488400 758.896973
369 0 1 2.735610 10.312150 759.869019
370 0 1 2.393930 10.081760 760.786987
371 0 1 2.413740 9.804530 761.708008
372 0 1 2.081610 9.499000 762.676025
373 0 1 2.074880 9.216180 763.620972
374 0 1 2.083430 9.007310 764.568970
375 0 1 2.020450 8.791391 765.593018
376 0 1 2.265830 8.639151 766.481995
377 0 1 2.533190 8.453978 767.398010
378 0 1 2.613800 8.228997 768.283997
379 0 1 2.825850 8.074464 769.239014
380 0 1 3.145300 7.895495 770.135010
381 0 1 3.683160 7.452012 770.835999
382 0 1 4.172620 7.299502 771.629028
383 0 1 4.518720 6.964090 772.432007
384 0 1 4.880170 6.796670 773.278992
385 0 1 4.769760 6.632050 774.313965
386 0 1 4.596460 6.351920 775.156006
387 0 1 4.642710 6.142420 776.132996
388 0 1 4.569160 6.151040 777.160034
389 0 1 4.433690 6.060970 778.083984
390 0 1 4.025300 5.866790 778.912964
391 0 1 3.826020 5.626080 779.832031
392 0 1 3.683940 5.941450 780.702026
393 0 1 3.589200 6.323650 781.562012
394 0 1 3.164280 6.591870 782.434998
395 0 1 2.635490 7.000353 783.015991
396 0 1 2.479400 7.378295 783.901001
397 0 1 2.347050 7.448170 784.875977
398 0 1 2.256360 7.612405 785.804016
399 0 1 2.083250 7.892521 786.752991
400 0 1 2.031900 8.150359 787.681030
401 0 1 2.047250 8.558867 788.627014
402 0 1 2.114360 8.717460 789.572998
403 0 1 2.455420 8.786852 790.533997
404 0 1 2.881870 9.159900 791.286011
405 0 1 3.178780 9.488440 792.136963
406 0 1 3.674310 9.550820 792.968018
407 0 1 4.163170 9.668159 793.838989
408 0 1 4.624600 9.720150 794.679016
409 0 1 5.011020 9.878860 795.562012
410 0 1 5.697650 9.887350 796.271973
411 0 1 6.402470 9.997290 796.875977
412 0 1 7.101033 10.265660 797.518005
413 0 1 7.689914 10.817010 797.966003
414 0 1 8.478490 11.233800 798.223999
415 0 1 9.173930 11.562460 798.770020
416 0 1 9.736160 11.689430 799.531006
417 0 1 10.332251 11.766880 800.265015
418 0 1 10.539800 11.782540 801.177002
419 0 1 10.743280 11.706900 802.153015
420 0 1 10.832420 11.480800 803.109009
421 0 1 11.145150 11.472060 803.997986
422 0 1 11.306290 11.177680 804.931030
423 0 1 11.574170 10.904210 805.791992
424 0 1 11.708440 10.716630 806.813965
425 0 1 11.661380 10.860830 807.854004
426 0 1 11.421090 10.636420 808.825989
427 0 1 11.182780 10.615700 809.786987
428 0 1 11.112360 10.498250 810.719971
429 0 1 10.628310 10.406050 811.598999
430 0 1 10.355040 10.239861 812.499023
431 0 1 10.258120 10.141211 813.468994
432 0 1 10.235270 9.971410 814.385010
433 0 1 10.177220 10.169720 815.312988
434 0 1 10.140220 10.465860 816.208984
435 0 1 10.070180 10.678110 817.193970
436 0 1 10.195030 10.818550 818.186035
437 0 1 10.233500 10.661740 819.129028
438 0 1 10.061900 10.830510 820.010010
439 0 1 10.080940 11.109940 820.947021
440 0 1 10.127970 11.362920 821.867004
441 0 1 10.305780 11.530990 822.830994
442 0 1 10.248830 11.693880 823.809998
443 0 1 9.973170 11.932550 824.679993
444 0 1 9.717720 12.516460 825.462036
445 0 1 9.665160 12.879550 826.328979
446 0 1 9.833920 13.030790 827.309021
447 0 1 9.910660 13.291679 828.270996
448 0 1 10.343420 13.584690 829.115967
449 0 1 10.730550 13.655020 830.005981
450 0 1 10.623030 13.927580 830.960022
451 0 1 10.542600 14.173679 831.903992
452 0 1 10.710250 14.213680 832.890991
453 0 1 11.006520 14.092051 833.813965
454 0 1 11.026011 13.915350 834.760986
455 0 1 10.781310 13.544800 835.591003
456 0 1 10.827790 13.151930 836.515991
457 0 1 10.687890 12.672171 837.367004
458 0 1 10.646240 12.274990 838.216003
459 0 1 10.592570 11.883850 839.125000
460 0 1 10.622499 11.231590 839.809998
461 0 1 10.393560 10.514550 840.440002
462 0 1 10.139400 10.076270 841.270996
463 0 1 9.921100 9.595020 842.114990
464 0 1 9.711250 8.725551 842.580017
465 0 1 9.380790 7.788946 842.594971
466 0 1 9.040780 6.901860 842.369019
467 0 1 8.510026 6.099790 842.088989
468 0 1 8.112962 5.436520 841.455017
469 0 1 7.712659 4.990730 840.640991
470 0 1 7.649644 4.435880 839.787964
471 0 1 7.774571 3.919770 838.966003
472 0 1 7.831590 3.644880 838.033020
473 0 1 7.892690 3.360950 837.160034
474 0 1 8.195653 3.047820 836.296997
475 0 1 8.427111 2.734960 835.380981
476 0 1 8.714471 2.441860 834.502014
477 0 1 8.923322 2.288200 833.604980
478 0 1 9.129070 2.312570 832.648987
479 0 1 9.413780 2.169230 831.716003
480 0 1 9.664820 2.403510 830.864990
481 0 1 9.950140 2.637700 829.849976
482 0 1 9.786110 2.834250 828.895996
483 0 1 9.835150 2.756430 827.916992
484 0 1 9.729510 2.978900 826.968018
485 0 1 9.703710 3.339930 826.041016
486 0 1 9.553510 3.745280 825.130005
487 0 1 9.510040 4.210960 824.228027
488 0 1 9.258980 4.514150 823.332031
489 0 1 8.899495 5.037950 822.620972
490 0 1 8.643267 5.616390 821.864990
491 0 1 8.522447 6.133610 821.068970
492 0 1 8.373885 6.714130 820.270996
493 0 1 8.057384 7.028112 819.462036
494 0 1 7.651549 7.212623 818.596008
495 0 1 7.054245 7.338204 817.851013
496 0 1 6.621040 7.271325 816.927979
497 0 1 6.337430 7.163798 816.004028
498 0 1 5.912850 7.106595 815.164978
499 0 1 5.353800 7.275472 814.393982
500 0 1 4.893960 7.428741 813.474976
501 0 1 4.600750 7.727624 812.608032
502 0 1 4.846530 7.938805 811.733032
503 0 1 5.076510 8.201018 810.837036
504 0 1 5.437460 8.785163 810.073975
505 0 1 5.642420 9.471160 809.458008
506 0 1 6.160210 10.111680 808.936035
507 0 1 6.635500 10.771709 808.362000
508 0 1 6.964580 11.251760 807.589966
509 0 1 7.248382 11.684600 806.830994
510 0 1 7.374627 12.028339 805.960022
511 0 1 7.446865 12.650660 805.110962
512 0 1 7.803395 12.903450 804.219971
513 0 1 7.731207 13.056459 803.210022
514 0 1 7.606061 13.031350 802.270996
515 0 1 7.462151 12.924170 801.278992
516 0 1 7.147495 12.819460 800.311035
517 0 1 6.925270 12.896800 799.346008
518 0 1 6.849500 13.157560 798.458984
519 0 1 6.647710 13.332170 797.580017
520 0 1 6.392420 13.219601 796.596985
521 0 1 6.152200 13.592040 795.778015
522 0 1 6.089170 13.872250 794.856995
523 0 1 6.403480 14.062260 793.937988
524 0 1 6.204330 14.281480 793.046997
525 0 1 5.939670 14.322320 792.093018
526 0 1 5.515740 14.266000 791.265015
527 0 1 5.137170 14.024600 790.393005
528 0 1 5.020450 13.723030 789.478027
529 0 1 4.923050 13.735380 788.542969
530 0 1 5.069400 13.622030 787.613037
531 0 1 4.947560 13.128860 786.783997
532 0 1 4.878220 12.669430 785.960999
533 0 1 4.909610 12.104020 785.237000
534 0 1 5.026510 11.678400 784.400024
535 0 1 5.255160 11.541480 783.490967
536 0 1 5.670360 11.198960 782.669006
537 0 1 6.184340 10.784019 782.039001
538 0 1 6.566720 10.299740 781.315002
539 0 1 6.911640 9.958540 780.544006
540 0 1 7.011472 9.444220 779.713989
541 0 1 6.940480 9.027970 778.804016
542 0 1 7.081368 8.409836 778.077026
543 0 1 7.317673 8.178179 777.167969
544 0 1 7.385936 8.104643 776.214966
545 0 1 7.081095 8.229393 775.266968
546 0 1 6.658350 8.085724 774.476990
547 0 1 6.370780 7.816215 773.651001
548 0 1 6.265740 7.784661 772.737000
549 0 1 6.277280 7.543392 771.757996
550 0 1 6.056850 7.353217 770.822998
551 0 1 5.766480 7.607704 769.896973
552 0 1 5.747490 7.800444 768.964966
553 0 1 5.274870 7.804808 768.138000
554 0 1 5.006580 7.524961 767.294983
555 0 1 4.488470 7.491023 766.507996
556 0 1 3.866120 7.635678 765.714966
557 0 1 3.467990 7.653959 764.791992
558 0 1 3.212860 7.435549 763.807007
559 0 1 3.601460 7.152606 762.895996
560 0 1 4.026160 6.893030 761.976013
561 0 1 4.238860 6.371330 761.237000
562 0 1 4.478690 5.849740 760.427979
563 0 1 4.804090 5.463680 759.591980
564 0 1 5.109890 5.171620 758.749023
565 0 1 5.496300 4.806930 757.888000
566 0 1 5.995740 4.350150 757.174988
567 0 1 6.057620 3.845880 756.358032
568 0 1 6.239660 3.381670 755.479980
569 0 1 6.343940 2.975690 754.653015
570 0 1 6.322050 2.523230 753.757996
571 0 1 6.472920 2.456970 752.843018
572 0 1 6.492440 2.264970 751.862000
573 0 1 6.589760 2.068250 750.931030
574 0 1 6.638990 2.307200 750.031006
575 0 1 6.667140 2.469710 749.135010
576 0 1 6.693370 2.446410 748.135986
577 0 1 6.510420 2.875110 747.270020
578 0 1 6.442920 3.269420 746.464966
579 0 1 6.391190 3.798980 745.671997
580 0 1 6.604590 4.075520 744.757996
581 0 1 7.105753 4.279760 743.953979
582 0 1 7.672224 4.346340 743.179016
583 0 1 8.189208 4.582930 742.427002
584 0 1 8.641804 4.944000 741.666016
585 0 1 8.926192 5.478940 740.934998
586 0 1 9.238800 6.152470 740.369019
587 0 1 9.529080 6.602790 739.535034
588 0 1 9.704900 7.035653 738.660034
589 0 1 9.885910 7.087090 737.666016
590 0 1 10.529770 7.056282 736.922974
591 0 1 11.011580 7.287636 736.091003
592 0 1 11.416270 7.410826 735.237000
593 0 1 11.490970 7.325863 734.255981
594 0 1 11.473640 7.187151 733.335022
595 0 1 11.320890 6.743490 732.516968
596 0 1 11.063360 6.411040 731.625000
597 0 1 10.961370 6.159250 730.716003
598 0 1 10.902900 6.198110 729.745972
599 0 1 10.737140 6.382600 728.747986
600 0 1 10.488920 6.874530 727.921387
601 0 1 10.091760 7.318842 727.151917
602 0 1 9.624650 7.837415 726.356384
603 0 1 9.322639 8.498257 725.738525
604 0 1 9.183350 9.101930 725.036987
605 0 1 9.080170 9.512530 724.199524
606 0 1 9.055530 9.972580 723.367981
607 0 1 9.184570 10.144260 722.393066
608 0 1 9.328770 10.217780 721.473206
609 0 1 9.296610 9.968680 720.535400
610 0 1 9.518180 9.778610 719.613708
611 0 1 9.840450 9.622430 718.647827
612 0 1 10.042910 9.424640 717.751099
613 0 1 10.092860 9.213660 716.838623
614 0 1 10.215460 8.960401 715.878723
615 0 1 9.998750 8.777524 714.992188
616 0 1 10.043370 8.631267 713.994385
617 0 1 10.147370 8.706674 713.087280
618 0 1 10.380301 8.912317 712.116516
619 0 1 10.447371 9.024300 711.201294
620 0 1 10.520870 9.036130 710.216431
621 0 1 10.440670 9.148350 709.252319
622 0 1 10.258260 9.342420 708.316711
623 0 1 10.222570 9.586190 707.401184
624 0 1 10.391520 10.162320 706.665222
625 0 1 10.971490 10.204300 705.865906
626 0 1 11.366810 10.355890 704.996399
627 0 1 11.800520 10.276760 704.127197
628 0 1 11.994450 10.143450 703.233398
629 0 1 11.773090 10.295880 702.274109
630 0 1 11.588190 10.333250 701.314819
631 0 1 11.378260 10.233410 700.404297
632 0 1 11.266590 10.382800 699.454407
633 0 1 11.168360 10.656970 698.530884
634 0 1 11.136520 10.967330 697.574890
635 0 1 11.038400 11.244940 696.658203
636 0 1 11.012850 11.466710 695.759827
637 0 1 10.889000 11.710030 694.877380
638 0 1 10.980289 11.969710 694.004578
639 0 1 11.125100 12.187300 693.110291
640 0 1 11.298150 12.308070 692.184814
641 0 1 11.698140 12.538620 691.334229
642 0 1 11.998410 12.324280 690.458496
643 0 1 12.078650 12.099080 689.545898
644 0 1 11.924000 11.748940 688.650818
645 0 1 11.781410 11.457290 687.723816
646 0 1 11.334820 11.281500 686.927307
647 0 1 10.771060 11.037900 686.200317
648 0 1 10.122090 10.787440 685.511597
649 0 1 9.723420 10.160510 684.850830
650 0 1 9.679360 9.358080 684.324524
651 0 1 9.807480 8.824164 683.570312
652 0 1 10.150040 8.164855 682.952209
653 0 1 9.888970 7.563694 682.280579
654 0 1 9.830900 7.026451 681.493713
655 0 1 9.790320 6.672980 680.593323
656 0 1 9.927320 6.591890 679.655212
657 0 1 10.157570 6.445760 678.711426
658 0 1 10.296880 6.190280 677.754578
659 0 1 10.621660 6.122530 676.807007
660 0 1 10.731000 6.477550 675.928711
661 0 1 10.896800 6.576390 674.961304
662 0 1 11.127871 7.088439 674.117676
663 0 1 11.465840 7.340896 673.265991
664 0 1 11.632230 7.619210 672.280884
665 0 1 11.779960 8.013324 671.418396
666 0 1 11.773030 8.502920 670.592407
667 0 1 11.649520 8.887102 669.688110
668 0 1 11.555980 8.821054 668.733276
669 0 1 11.382520 8.830663 667.760010
670 0 1 11.252610 8.823516 666.785583
671 0 1 11.514050 8.586150 665.928711
672 0 1 11.843840 8.601127 665.004089
673 0 1 12.086121 8.840874 664.116821
674 0 1 12.005070 9.068410 663.218079
675 0 1 11.574120 9.212660 662.381592
676 0 1 11.257380 9.573430 661.485596
677 0 1 11.478500 9.947660 660.685486
678 0 1 11.748710 10.453620 659.911316
679 0 1 12.149410 10.384090 658.937378
680 0 1 12.239270 10.129210 658.018188
681 0 1 12.194389 10.022070 656.997803
682 0 1 12.224210 9.641670 656.104980
683 0 1 12.248990 9.465380 655.129211
684 0 1 12.240720 9.242040 654.190674
685 0 1 12.095240 9.081480 653.254700
686 0 1 11.932440 8.918506 652.282288
687 0 1 11.491210 8.585164 651.481689
688 0 1 10.918520 8.680818 650.660706
689 0 1 10.220221 8.878871 649.976318
690 0 1 9.642241 9.050730 649.255127
691 0 1 9.215070 9.198790 648.438599
692 0 1 8.556484 9.088140 647.760376
693 0 1 7.714884 8.880348 647.292725
694 0 1 6.939320 8.614849 646.794128
695 0 1 6.208160 8.530796 646.202820
696 0 1 5.669200 8.314638 645.443604
697 0 1 5.094840 7.809756 644.816284
698 0 1 4.282240 7.513006 644.359924
699 0 1 3.590180 7.283665 643.837708
700 0 1 2.924960 7.312826 643.062012
701 0 1 2.424750 7.301290 642.203918
702 0 1 2.155280 7.703823 641.341187
703 0 1 2.083040 7.828205 640.386108
704 0 1 1.913970 7.884787 639.484497
705 0 1 1.762540 7.716615 638.576111
706 0 1 1.808300 7.731222 637.661011
707 0 1 1.720170 7.354558 636.793579
708 0 1 1.795310 7.320269 635.803162
709 0 1 2.060170 7.427988 634.919617
710 0 1 2.447810 7.754925 634.094116
711 0 1 2.671150 8.044518 633.230347
712 0 1 3.015090 8.363236 632.436768
713 0 1 3.393770 8.834209 631.664368
714 0 1 3.624650 9.121090 630.714233
715 0 1 3.795070 9.106359 629.760132
716 0 1 3.986880 8.672244 628.945862
717 0 1 4.073830 8.274250 628.080444
718 0 1 4.050510 7.889489 627.166870
719 0 1 4.295000 7.325765 626.432068
720 0 1 4.719400 6.756560 625.812195
721 0 1 5.174030 6.202740 625.165833
722 0 1 5.751630 5.658020 624.533325
723 0 1 6.327640 5.193770 623.956421
724 0 1 6.888270 4.936290 623.150757
725 0 1 7.485532 4.838050 622.327759
726 0 1 8.030981 4.720660 621.565369
727 0 1 8.698662 4.828560 620.863281
728 0 1 9.099360 5.002350 620.027771
729 0 1 9.742280 5.371760 619.460388
730 0 1 10.456980 5.626270 618.876221
731 0 1 11.174070 5.790850 618.262024
732 0 1 11.413720 5.876500 617.347595
733 0 1 11.661350 6.090930 616.410706
734 0 1 11.913500 6.479370 615.515320
735 0 1 12.006940 6.895100 614.658813
736 0 1 12.189290 7.270626 613.793701
737 0 1 12.575029 7.710995 612.962524
738 0 1 13.017520 8.208086 612.247009
739 0 1 13.198470 8.391617 611.361572
740 0 1 13.189190 8.570316 610.389893
741 0 1 13.115670 8.783982 609.437012
742 0 1 12.997440 8.946465 608.536621
743 0 1 12.649680 9.099300 607.631592
744 0 1 12.265690 8.894886 606.747498
745 0 1 12.175159 8.626355 605.828796
746 0 1 12.280420 8.277366 604.903625
747 0 1 12.338360 8.116934 603.960083
748 0 1 12.644120 8.025280 603.062805
749 0 1 12.707140 8.044789 602.117615
750 0 1 12.949940 8.121208 601.249084
751 0 1 13.072519 7.991076 600.336914
752 0 1 13.060300 7.891987 599.353210
753 0 1 13.036110 7.711070 598.401672
754 0 1 13.258430 7.464565 597.462524
755 0 1 13.331120 7.199892 596.474609
756 0 1 13.528160 6.949070 595.525696
757 0 1 13.501841 6.787880 594.554504
758 0 1 13.301030 6.583020 593.578369
759 0 1 13.350901 6.583550 592.543274
760 0 1 13.228230 6.591200 591.622986
761 0 1 13.065599 6.538700 590.686401
762 0 1 13.053181 6.655010 589.697632
763 0 1 13.251400 6.782680 588.737488
764 0 1 13.586660 6.968140 587.845398
765 0 1 13.851440 7.010062 586.841492
766 0 1 14.123631 7.040979 585.909302
767 0 1 14.313641 7.258404 585.010010
768 0 1 14.334970 7.499809 583.981812
769 0 1 13.843850 7.874999 583.233521
770 0 1 13.461400 8.460224 582.558105
771 0 1 13.139130 8.985063 581.765503
772 0 1 12.777920 9.525590 581.046997
773 0 1 12.508200 9.854000 580.196106
774 0 1 12.043930 10.003210 579.349121
775 0 1 11.641330 10.291420 578.509583
776 0 1 11.692050 10.569611 577.550720
777 0 1 11.661010 10.717700 576.560791
778 0 1 11.439939 10.682210 575.648010
779 0 1 11.454460 10.648230 574.658813
780 0 1 11.670600 10.560540 573.726929
781 0 1 11.836411 10.481640 572.761719
782 0 1 11.651020 10.796460 571.942871
783 0 1 11.426010 11.176929 571.086975
784 0 1 11.246460 11.522850 570.204102
785 0 1 11.244450 11.648439 569.195801
786 0 1 11.204090 11.640580 568.243896
787 0 1 11.248390 11.604060 567.288696
788 0 1 11.114300 11.598930 566.322327
789 0 1 11.441590 11.732090 565.402893
790 0 1 11.608960 12.035749 564.513916