LAMMPS data file via MDAnalysis

        1000  atoms
        1000  bonds
        1000  angles
           0  dihedrals
           0  impropers

           1  atom types
           1  bond types
           1  angle types
           0  dihedral types
           0  improper types

0.000000 16.000000 xlo xhi
0.000000 16.000000 ylo yhi
0.000000 1257.000000 zlo zhi


Masses

1 1.000000

Atoms

1 0 1 9.686950 11.526680 445.250000
2 0 1 9.195520 11.397409 446.075989
3 0 1 8.676646 10.945850 446.800995
4 0 1 8.402061 10.358000 447.537994
5 0 1 8.172069 10.000071 448.427979
6 0 1 7.912990 9.480659 449.229004
7 0 1 7.804495 9.164620 450.161987
8 0 1 7.791006 8.784888 451.062988
9 0 1 7.558378 8.204197 451.859009
10 0 1 7.469723 7.647617 452.583984
11 0 1 7.641547 6.897220 453.227997
12 0 1 7.509738 6.230070 453.937012
13 0 1 7.558581 5.516580 454.587006
14 0 1 7.703634 4.816640 455.276001
15 0 1 8.005066 4.201940 455.960022
16 0 1 8.408248 3.913400 456.781006
17 0 1 8.485111 3.814940 457.766998
18 0 1 8.557457 3.728250 458.692017
19 0 1 8.325561 3.687550 459.666992
20 0 1 8.350886 3.557250 460.622986
21 0 1 8.235712 3.233400 461.518005
22 0 1 8.031586 2.862730 462.403015
23 0 1 7.962189 2.639420 463.364990
24 0 1 7.962638 2.603830 464.307983
25 0 1 7.992788 2.771990 465.279999
26 0 1 7.956697 2.945660 466.208008
27 0 1 7.874046 3.364600 467.083008
28 0 1 7.589389 3.650390 467.947021
29 0 1 7.145301 3.817450 468.755981
30 0 1 7.034455 3.962820 469.738007
31 0 1 7.264306 4.056060 470.671997
32 0 1 7.400295 3.911710 471.682983
33 0 1 7.439950 3.813310 472.627991
34 0 1 7.508300 3.885940 473.578003
35 0 1 7.520162 4.011940 474.542999
36 0 1 7.472149 4.278860 475.473022
37 0 1 7.461881 4.669480 476.377991
38 0 1 7.630160 4.884400 477.364990
39 0 1 7.545433 5.147860 478.296021
40 0 1 7.378501 5.179810 479.231995
41 0 1 7.411314 5.042120 480.174988
42 0 1 7.546991 5.041640 481.114990
43 0 1 7.537085 5.014260 482.095001
44 0 1 7.682392 5.193330 483.026978
45 0 1 7.632899 5.292780 483.968018
46 0 1 7.255232 5.576670 484.807007
47 0 1 6.801680 5.774480 485.621002
48 0 1 6.379260 6.021530 486.447998
49 0 1 5.994670 6.225320 487.291016
50 0 1 5.700320 6.244340 488.237000
51 0 1 5.380800 6.059520 489.138000
52 0 1 5.375470 5.697130 490.002014
53 0 1 5.524350 5.539900 490.912994
54 0 1 5.526840 5.622390 491.845001
55 0 1 5.441520 5.874430 492.760986
56 0 1 5.426080 6.256380 493.752991
57 0 1 5.402870 6.671490 494.612000
58 0 1 5.397770 7.200516 495.442993
59 0 1 5.116610 7.570388 496.244019
60 0 1 5.063390 7.646705 497.223999
61 0 1 5.123200 7.788045 498.171021
62 0 1 5.058650 7.983935 499.057007
63 0 1 5.092920 8.284384 499.938995
64 0 1 5.148020 8.627621 500.889008
65 0 1 5.401520 9.263790 501.664001
66 0 1 5.878380 9.911900 502.346985
67 0 1 6.135060 10.625071 502.968018
68 0 1 6.662470 10.951310 503.694000
69 0 1 6.661630 11.415560 504.554016
70 0 1 6.637810 11.741020 505.419983
71 0 1 6.458300 12.218130 506.276001
72 0 1 6.841100 12.723490 506.998993
73 0 1 6.932320 12.996750 507.872009
74 0 1 7.001222 13.127970 508.846985
75 0 1 6.915500 13.017429 509.865997
76 0 1 6.790620 13.052930 510.863007
77 0 1 6.479080 13.013610 511.772003
78 0 1 6.004210 13.032460 512.653992
79 0 1 5.695780 12.955999 513.573975
80 0 1 5.292600 12.938590 514.513977
81 0 1 4.693880 12.566481 515.221985
82 0 1 4.466210 12.224620 516.051025
83 0 1 4.304090 11.565090 516.672974
84 0 1 4.094950 11.044010 517.437012
85 0 1 4.068340 10.647030 518.304993
86 0 1 4.106900 10.203711 519.158020
87 0 1 4.129660 9.788520 519.989014
88 0 1 4.194750 9.476380 520.913025
89 0 1 4.434400 9.070080 521.780029
90 0 1 4.490520 9.044550 522.770020
91 0 1 4.600420 8.942960 523.737976
92 0 1 4.739820 8.806935 524.713013
93 0 1 4.779250 8.784540 525.690979
94 0 1 4.541890 8.663599 526.627014
95 0 1 4.465880 8.531053 527.567993
96 0 1 4.256060 8.251424 528.442017
97 0 1 3.931080 8.273833 529.307373
98 0 1 3.658880 8.299788 530.255310
99 0 1 3.675960 8.305200 531.237793
100 0 1 3.813670 8.845917 532.038025
101 0 1 4.072620 9.350060 532.789490
102 0 1 4.342650 10.024549 533.430908
103 0 1 4.769830 10.613330 534.038086
104 0 1 5.260350 11.252860 534.529297
105 0 1 5.778640 11.887870 534.993530
106 0 1 6.433500 12.275090 535.609314
107 0 1 7.018563 12.644720 536.360596
108 0 1 7.514913 12.875720 537.138794
109 0 1 8.284080 13.023520 537.726074
110 0 1 8.932191 12.899950 538.416809
111 0 1 9.363670 12.494410 539.177368
112 0 1 10.012920 11.879380 539.850830
113 0 1 10.493900 11.306170 540.530823
114 0 1 10.785370 10.953990 541.332275
115 0 1 11.128139 10.766750 542.263428
116 0 1 11.485200 10.534790 543.174377
117 0 1 11.861610 10.329380 544.026733
118 0 1 12.038460 10.073870 544.929993
119 0 1 12.424410 9.545040 545.763000
120 0 1 12.454760 9.008900 546.493530
121 0 1 12.780500 8.823432 547.489624
122 0 1 12.830610 8.663799 548.384827
123 0 1 12.658670 8.129122 549.169922
124 0 1 12.771370 7.706196 550.047607
125 0 1 12.791290 7.229041 550.892578
126 0 1 12.755180 6.865090 551.763184
127 0 1 12.617380 6.544910 552.660400
128 0 1 12.160460 6.427600 553.472412
129 0 1 11.796940 6.208920 554.323120
130 0 1 11.501190 5.552170 554.982117
131 0 1 11.335140 5.247680 555.908325
132 0 1 11.050050 5.244650 556.811096
133 0 1 10.706310 5.337230 557.702698
134 0 1 10.396670 5.647500 558.572998
135 0 1 10.108610 5.923420 559.442200
136 0 1 10.189631 6.420500 560.316284
137 0 1 9.985430 6.896460 561.131470
138 0 1 9.715970 7.233199 561.988892
139 0 1 9.422310 7.303386 562.918579
140 0 1 9.211460 7.721373 563.799683
141 0 1 8.961355 8.037336 564.640381
142 0 1 8.513787 8.462462 565.428528
143 0 1 8.017353 8.856080 566.138306
144 0 1 7.414611 9.418040 566.568909
145 0 1 6.811550 9.991199 567.103699
146 0 1 6.513640 10.573330 567.810181
147 0 1 6.362620 11.068850 568.620728
148 0 1 6.409150 11.584820 569.473572
149 0 1 5.998520 12.059240 570.231079
150 0 1 5.604620 12.597810 570.948425
151 0 1 5.494500 13.029380 571.838989
152 0 1 5.508010 13.388260 572.819092
153 0 1 5.094080 13.625999 573.697632
154 0 1 4.658440 13.986691 574.524902
155 0 1 4.482880 13.923930 575.489075
156 0 1 4.581750 13.752470 576.424622
157 0 1 4.544180 13.284400 577.416992
158 0 1 4.648530 12.842751 578.224731
159 0 1 4.498600 12.383289 579.030396
160 0 1 4.195190 11.965230 579.872986
161 0 1 4.291810 11.653880 580.745728
162 0 1 4.190820 11.644500 581.682983
163 0 1 4.059750 11.732460 582.690186
164 0 1 4.048750 11.836860 583.649597
165 0 1 4.011240 11.848900 584.623413
166 0 1 3.871900 11.842490 585.617188
167 0 1 3.723770 11.920810 586.555115
168 0 1 3.360980 11.722090 587.434692
169 0 1 3.310080 11.591410 588.372009
170 0 1 2.957100 11.556140 589.301025
171 0 1 2.685950 11.337160 590.193481
172 0 1 2.552710 11.102470 591.060181
173 0 1 2.839650 10.681710 591.933899
174 0 1 2.985200 10.230470 592.716309
175 0 1 2.863920 9.784970 593.516602
176 0 1 2.573580 9.383420 594.361084
177 0 1 2.377540 9.335940 595.319092
178 0 1 2.357340 9.023870 596.183899
179 0 1 2.486900 9.031740 597.111023
180 0 1 2.753250 9.019680 598.030579
181 0 1 3.012160 9.206220 598.932800
182 0 1 3.494770 9.604590 599.656006
183 0 1 3.942740 9.909400 600.407104
184 0 1 4.360320 10.181060 601.221802
185 0 1 4.793910 10.477130 602.090088
186 0 1 4.972110 10.534740 603.048096
187 0 1 5.128700 10.573570 604.008911
188 0 1 5.390150 10.668750 604.918518
189 0 1 5.502190 10.628220 605.873474
190 0 1 5.692570 10.581260 606.830627
191 0 1 5.812360 10.472919 607.714722
192 0 1 6.026600 10.528260 608.684326
193 0 1 6.343620 10.496910 609.628296
194 0 1 6.626500 10.494240 610.540588
195 0 1 7.001693 10.442141 611.463196
196 0 1 7.513213 10.113700 612.217224
197 0 1 7.787289 9.847600 613.132690
198 0 1 7.993695 9.551690 614.079407
199 0 1 8.270194 9.155870 614.952576
200 0 1 8.429049 8.814469 615.814087
201 0 1 8.525677 8.475818 616.708801
202 0 1 8.681050 8.503715 617.664185
203 0 1 8.853368 8.541364 618.591980
204 0 1 8.949697 8.926676 619.461243
205 0 1 8.925619 9.245180 620.391907
206 0 1 8.781184 9.408270 621.283569
207 0 1 8.991944 9.560090 622.229431
208 0 1 9.381460 9.927950 623.024231
209 0 1 9.682520 10.383570 623.770935
210 0 1 10.113740 10.651051 624.598938
211 0 1 10.409980 10.870530 625.507019
212 0 1 10.542140 11.309190 626.343384
213 0 1 10.738180 11.397670 627.302734
214 0 1 10.988520 11.568010 628.247559
215 0 1 11.060030 11.639470 629.179199
216 0 1 11.234819 11.847110 630.103027
217 0 1 11.478450 12.122169 630.993286
218 0 1 11.565170 12.305050 631.926025
219 0 1 11.832470 12.545879 632.802612
220 0 1 11.902220 12.863649 633.694946
221 0 1 12.007060 12.980730 634.618774
222 0 1 11.551310 12.888371 635.497192
223 0 1 10.981450 12.625460 636.249023
224 0 1 10.400710 12.307711 636.984253
225 0 1 9.783190 12.132080 637.679504
226 0 1 9.086730 11.935150 638.405273
227 0 1 8.490937 11.660920 639.136414
228 0 1 7.977339 11.494030 639.871277
229 0 1 7.784237 10.991180 640.661621
230 0 1 7.750428 10.528990 641.468323
231 0 1 7.457165 10.001360 642.211609
232 0 1 7.236686 9.472680 643.031616
233 0 1 7.096719 9.100790 643.892273
234 0 1 7.068112 8.603510 644.761719
235 0 1 6.753850 8.325154 645.634399
236 0 1 6.298740 8.047001 646.416687
237 0 1 5.888630 7.721490 647.229614
238 0 1 6.093760 7.511130 648.176575
239 0 1 6.576910 7.230735 648.959595
240 0 1 7.492082 7.292807 649.343872
241 0 1 8.357397 7.142971 649.752014
242 0 1 9.146000 7.375218 650.156799
243 0 1 9.948580 7.345708 650.721619
244 0 1 10.558670 7.217758 651.468018
245 0 1 11.197430 6.955820 652.096375
246 0 1 11.725560 6.864390 652.954102
247 0 1 12.070169 6.492500 653.776489
248 0 1 12.558390 6.190680 654.533508
249 0 1 12.746080 5.842720 655.395081
250 0 1 13.170060 5.816210 656.283569
251 0 1 13.562690 6.108410 657.164307
252 0 1 13.933820 6.177140 658.060120
253 0 1 14.149590 6.485160 658.988220
254 0 1 14.184530 6.665760 659.885925
255 0 1 14.174540 6.899480 660.794617
256 0 1 13.997760 7.061246 661.743591
257 0 1 13.676240 7.063383 662.679016
258 0 1 13.104570 7.196790 663.443176
259 0 1 12.369949 7.139909 664.144104
260 0 1 11.734000 6.990320 664.973328
261 0 1 11.258260 6.734830 665.754578
262 0 1 10.888290 6.315230 666.543091
263 0 1 10.712510 6.097700 667.436584
264 0 1 10.610980 6.141510 668.377319
265 0 1 10.551870 6.349000 669.333313
266 0 1 10.371830 6.450430 670.234497
267 0 1 10.114610 6.288190 671.125610
268 0 1 9.875170 6.119510 672.069397
269 0 1 9.562580 6.213430 672.987610
270 0 1 9.658960 6.643860 673.806396
271 0 1 10.093960 7.066400 674.598022
272 0 1 10.121930 7.587544 675.433105
273 0 1 10.245760 8.069077 676.195068
274 0 1 10.192260 8.572076 676.975403
275 0 1 10.469521 9.032210 677.767578
276 0 1 10.635710 9.078990 678.671387
277 0 1 10.781300 8.947036 679.580811
278 0 1 11.051430 8.723255 680.490784
279 0 1 11.205709 8.676526 681.461914
280 0 1 11.523830 8.507553 682.285583
281 0 1 11.679630 8.131373 683.210876
282 0 1 11.775949 8.052164 684.213074
283 0 1 11.657850 8.088902 685.101929
284 0 1 11.733760 7.946284 686.068604
285 0 1 11.500220 7.704895 686.984375
286 0 1 11.401140 7.468281 687.982178
287 0 1 11.536140 7.402358 688.915100
288 0 1 11.373520 7.520768 689.890991
289 0 1 11.321320 7.876729 690.815674
290 0 1 11.378469 8.101318 691.750916
291 0 1 11.643260 8.260907 692.659180
292 0 1 11.705870 8.385985 693.602600
293 0 1 11.596291 8.577738 694.488892
294 0 1 11.477020 8.726397 695.467224
295 0 1 11.183559 8.911886 696.383423
296 0 1 10.705190 8.824889 697.225586
297 0 1 10.187930 8.914491 698.031982
298 0 1 9.707900 8.903107 698.809692
299 0 1 9.022770 8.760510 699.476807
300 0 1 8.228814 8.613597 699.999817
301 0 1 7.499343 8.406675 700.568604
302 0 1 6.954980 8.292963 701.296631
303 0 1 6.273200 8.267180 702.031372
304 0 1 5.765580 8.303620 702.814087
305 0 1 5.208280 8.488323 703.525818
306 0 1 4.574870 8.571367 704.312317
307 0 1 4.026680 8.470618 705.040771
308 0 1 3.596420 8.545039 705.855408
309 0 1 3.124020 8.412876 706.703979
310 0 1 2.973210 8.216572 707.675903
311 0 1 2.768000 7.815011 708.542725
312 0 1 2.629630 7.512357 709.445007
313 0 1 2.736400 7.212864 710.321777
314 0 1 2.915680 6.984780 711.212402
315 0 1 3.310460 6.643590 712.016479
316 0 1 3.594690 6.137410 712.826172
317 0 1 4.007050 5.617750 713.557800
318 0 1 4.474910 5.298130 714.335022
319 0 1 4.901970 5.056810 715.141724
320 0 1 5.362420 4.840530 715.965576
321 0 1 5.712620 4.706270 716.842102
322 0 1 5.694810 4.545850 717.783081
323 0 1 5.715720 4.307090 718.673828
324 0 1 6.001690 4.270040 719.594116
325 0 1 5.921610 4.333580 720.578369
326 0 1 5.693560 4.344010 721.505981
327 0 1 5.692920 4.261750 722.530518
328 0 1 5.723570 4.184500 723.484497
329 0 1 5.407910 4.383110 724.323181
330 0 1 5.208920 4.534490 725.244690
331 0 1 5.013970 4.792060 726.121399
332 0 1 5.264400 4.732180 727.090393
333 0 1 5.273960 4.626660 728.054993
334 0 1 5.296190 4.268800 728.984009
335 0 1 5.423200 4.057950 729.896973
336 0 1 5.608970 3.965670 730.853027
337 0 1 5.932280 3.877580 731.744995
338 0 1 6.033450 3.731350 732.679993
339 0 1 5.967800 3.990120 733.619995
340 0 1 5.741230 4.420450 734.443970
341 0 1 5.358270 4.844340 735.213989
342 0 1 5.051020 5.309640 735.952026
343 0 1 4.585590 5.736080 736.666016
344 0 1 3.896760 5.925920 737.314026
345 0 1 3.619490 6.420140 738.101013
346 0 1 3.521120 7.030095 738.893005
347 0 1 3.549360 7.493817 739.755005
348 0 1 3.035420 7.862487 740.487976
349 0 1 2.799220 8.331390 741.307983
350 0 1 2.762080 8.861253 742.239990
351 0 1 2.565140 9.379610 743.033020
352 0 1 2.712190 9.912000 743.812012
353 0 1 3.186600 10.312290 744.567017
354 0 1 3.729670 10.611650 745.270996
355 0 1 4.073590 10.869320 746.098022
356 0 1 4.703610 11.127220 746.794983
357 0 1 5.448840 11.364040 747.307983
358 0 1 6.306940 11.316520 747.820984
359 0 1 7.085284 11.538400 748.362000
360 0 1 7.794596 11.355240 749.067017
361 0 1 8.547055 11.049370 749.619019
362 0 1 9.141990 10.597540 750.195984
363 0 1 9.669390 10.139580 750.838013
364 0 1 10.225070 10.147990 751.630005
365 0 1 10.914780 10.339490 752.435974
366 0 1 11.565190 10.698860 753.117981
367 0 1 12.245140 11.172080 753.682007
368 0 1 12.888960 11.445650 754.354980
369 0 1 13.283421 11.385710 755.213989
370 0 1 13.455180 11.395060 756.150024
371 0 1 13.276239 11.483521 757.169006
372 0 1 13.022570 11.644510 758.073975
373 0 1 12.887920 11.711000 759.005005
374 0 1 12.642640 11.867750 759.900024
375 0 1 12.279270 11.872240 760.809998
376 0 1 11.918310 11.749220 761.781006
377 0 1 11.705490 11.678650 762.658997
378 0 1 11.415640 11.375810 763.523987
379 0 1 11.567329 11.273640 764.479004
380 0 1 11.723640 11.156480 765.429016
381 0 1 11.859310 11.122000 766.410034
382 0 1 12.320140 11.086920 767.289001
383 0 1 12.612670 10.872630 768.187988
384 0 1 12.995050 10.963710 769.085022
385 0 1 13.273710 11.121250 769.973022
386 0 1 13.284170 11.107870 770.985962
387 0 1 13.229071 11.064260 772.020996
388 0 1 13.202061 11.002069 772.989990
389 0 1 12.922239 10.741730 773.924011
390 0 1 12.723410 10.761730 774.924011
391 0 1 12.706640 10.643390 775.917969
392 0 1 12.700600 10.446000 776.813965
393 0 1 12.764891 9.912610 777.617004
394 0 1 12.797510 9.243060 778.270996
395 0 1 12.968460 8.542509 778.848022
396 0 1 13.025620 7.808643 779.434021
397 0 1 13.194190 7.420175 780.306030
398 0 1 13.349150 6.833420 781.129028
399 0 1 13.153940 6.222170 781.766968
400 0 1 12.836870 5.735660 782.531982
401 0 1 12.733530 5.172070 783.335999
402 0 1 12.443310 4.925820 784.278015
403 0 1 12.150110 4.955570 785.260010
404 0 1 11.772370 5.201100 786.056030
405 0 1 11.231050 5.487200 786.783997
406 0 1 11.007401 5.903810 787.570007
407 0 1 10.828711 6.171440 788.447021
408 0 1 10.845881 6.099630 789.447998
409 0 1 10.731510 6.063650 790.424988
410 0 1 10.662860 5.713190 791.375000
411 0 1 10.609010 5.496920 792.299988
412 0 1 10.703820 5.204170 793.153992
413 0 1 10.704010 4.882440 794.070007
414 0 1 10.862610 4.506840 794.985962
415 0 1 10.908260 4.063630 795.835022
416 0 1 11.115520 3.968220 796.764038
417 0 1 11.274170 4.019650 797.794983
418 0 1 11.697290 4.286610 798.630981
419 0 1 12.310810 4.567860 799.374023
420 0 1 12.755850 4.995610 800.143982
421 0 1 13.020090 5.193490 801.078979
422 0 1 13.122250 5.397370 802.031006
423 0 1 13.123800 5.401290 803.018005
424 0 1 12.958670 5.265460 803.926025
425 0 1 12.740110 5.217090 804.848999
426 0 1 12.631730 5.322920 805.833984
427 0 1 12.199340 5.381830 806.702026
428 0 1 11.662690 4.861130 807.354980
429 0 1 11.069870 4.530210 808.062012
430 0 1 10.611440 4.349840 808.879028
431 0 1 10.203930 4.105980 809.651001
432 0 1 9.798920 4.020110 810.489990
433 0 1 9.430060 3.759130 811.363037
434 0 1 9.068380 3.484360 812.200012
435 0 1 8.466483 3.284950 812.919983
436 0 1 7.848949 3.230340 813.705994
437 0 1 7.289716 3.184690 814.431030
438 0 1 6.914140 3.040160 815.309021
439 0 1 6.718430 2.834440 816.187012
440 0 1 6.714450 2.928050 817.136963
441 0 1 6.720100 3.114870 818.070984
442 0 1 6.485330 3.409490 818.978027
443 0 1 6.069310 3.777930 819.785034
444 0 1 5.768990 4.172680 820.601990
445 0 1 5.777280 4.898660 821.245972
446 0 1 5.803430 5.548870 821.859985
447 0 1 5.875200 6.200230 822.655029
448 0 1 6.083360 6.934570 823.315979
449 0 1 6.375130 7.580162 823.940979
450 0 1 6.850600 8.145957 824.653992
451 0 1 7.405695 8.751210 825.203003
452 0 1 7.813164 8.847079 826.148987
453 0 1 8.102022 9.031190 827.049011
454 0 1 8.465589 9.358180 827.854980
455 0 1 8.600053 9.606800 828.755981
456 0 1 8.784730 9.821870 829.645996
457 0 1 8.906355 10.106370 830.554993
458 0 1 9.382350 10.442240 831.312988
459 0 1 9.486270 10.782080 832.234009
460 0 1 9.584740 11.060880 833.140015
461 0 1 9.569830 10.857880 834.127014
462 0 1 9.527230 10.409420 835.005981
463 0 1 9.375100 9.893150 835.870972
464 0 1 9.286250 9.276220 836.636963
465 0 1 9.332479 8.418100 837.088013
466 0 1 9.237440 7.487595 837.572998
467 0 1 9.060460 6.577470 837.856018
468 0 1 8.990721 5.647540 837.688965
469 0 1 8.982551 4.945330 837.078979
470 0 1 8.886940 4.228260 836.460022
471 0 1 8.919710 3.785650 835.622986
472 0 1 8.968324 3.605440 834.653992
473 0 1 8.912478 3.486290 833.684998
474 0 1 8.969764 3.843760 832.747986
475 0 1 8.647101 4.074430 831.890015
476 0 1 8.213184 4.363890 831.088013
477 0 1 8.021782 4.592500 830.164978
478 0 1 7.636253 4.672730 829.306030
479 0 1 7.212824 4.632330 828.463013
480 0 1 6.836750 4.431360 827.587036
481 0 1 6.525200 4.198180 826.695984
482 0 1 6.262810 3.766190 825.846985
483 0 1 6.004710 3.464990 824.960022
484 0 1 6.001520 3.067650 824.101013
485 0 1 6.198860 2.487950 823.385986
486 0 1 6.706200 2.066010 822.617004
487 0 1 7.434241 1.873350 822.023987
488 0 1 8.161013 1.859470 821.421997
489 0 1 8.793744 2.047830 820.690979
490 0 1 9.204010 2.498480 819.994019
491 0 1 9.514050 3.068280 819.270996
492 0 1 10.206980 3.421540 818.630981
493 0 1 10.810431 3.936550 818.042969
494 0 1 11.380320 4.454260 817.317993
495 0 1 11.967690 4.913790 816.686035
496 0 1 12.579830 5.381510 816.110962
497 0 1 12.972370 6.069060 815.645996
498 0 1 13.053120 6.802810 815.088013
499 0 1 13.063400 7.524256 814.434021
500 0 1 12.849110 8.295677 813.952026
501 0 1 12.458530 8.999337 813.424011
502 0 1 11.950100 9.552790 812.755005
503 0 1 11.500071 10.263309 812.117981
504 0 1 11.145420 10.804590 811.356018
505 0 1 10.634350 11.072240 810.557007
506 0 1 10.216600 11.311050 809.750000
507 0 1 9.991630 11.363729 808.854980
508 0 1 9.879720 11.236470 807.867004
509 0 1 9.850870 10.880080 806.992004
510 0 1 10.064130 10.471930 806.187012
511 0 1 10.184710 10.010640 805.312012
512 0 1 10.305290 9.727020 804.450989
513 0 1 10.364380 9.431000 803.528015
514 0 1 10.321250 9.380750 802.528992
515 0 1 10.496550 9.354520 801.547974
516 0 1 10.617189 9.439770 800.557983
517 0 1 10.712870 9.639560 799.674988
518 0 1 10.814990 9.664310 798.713013
519 0 1 11.031200 9.769390 797.719971
520 0 1 11.134390 10.149150 796.792969
521 0 1 11.464730 9.962350 795.942017
522 0 1 11.672720 9.738860 795.033997
523 0 1 11.887470 9.461560 794.161011
524 0 1 12.256920 9.328820 793.283997
525 0 1 12.244170 9.455050 792.330017
526 0 1 12.182770 9.428820 791.356018
527 0 1 12.051620 9.529780 790.437012
528 0 1 12.059370 9.681340 789.484009
529 0 1 12.131050 9.737010 788.561035
530 0 1 12.043870 9.309031 787.710999
531 0 1 11.977540 8.861327 786.809998
532 0 1 11.761520 8.769883 785.875000
533 0 1 11.561140 8.705106 784.985962
534 0 1 11.292870 8.604672 784.056030
535 0 1 11.153370 8.603045 783.122009
536 0 1 11.045370 8.616985 782.203003
537 0 1 10.764811 8.551139 781.278992
538 0 1 10.698390 8.574978 780.330994
539 0 1 10.809020 8.531564 779.351990
540 0 1 10.748720 8.370031 778.382996
541 0 1 10.831000 8.266778 777.431030
542 0 1 10.787070 7.946393 776.499023
543 0 1 10.580680 7.727354 775.541992
544 0 1 10.545550 7.517944 774.559998
545 0 1 10.320030 7.100007 773.739990
546 0 1 10.105570 6.810490 772.856995
547 0 1 9.996910 6.497310 771.953979
548 0 1 9.693150 6.157910 771.171021
549 0 1 9.468010 5.605210 770.431030
550 0 1 8.950560 5.232360 769.719971
551 0 1 8.444355 4.893350 768.947998
552 0 1 8.058787 4.828560 768.112000
553 0 1 7.688659 4.806470 767.212036
554 0 1 7.414813 4.816540 766.309021
555 0 1 7.047590 5.003510 765.466980
556 0 1 6.612720 5.215770 764.640015
557 0 1 5.956080 5.181430 763.901978
558 0 1 5.511120 5.414020 763.104004
559 0 1 4.950770 5.772370 762.374023
560 0 1 4.381530 5.867720 761.648987
561 0 1 3.939220 5.750160 760.853027
562 0 1 3.872210 5.810180 759.844971
563 0 1 3.835570 5.709220 758.937988
564 0 1 4.074850 5.637160 758.016968
565 0 1 4.207540 5.517980 757.089966
566 0 1 4.401890 5.701800 756.171021
567 0 1 4.454780 6.038950 755.302979
568 0 1 4.670400 6.210070 754.398987
569 0 1 4.940560 6.433230 753.504028
570 0 1 5.332010 6.641490 752.664978
571 0 1 5.902330 6.922100 752.012024
572 0 1 6.505990 6.939330 751.266968
573 0 1 7.246640 7.101502 750.638977
574 0 1 8.172998 7.143310 750.280029
575 0 1 8.960666 7.207921 749.684021
576 0 1 9.785390 7.311578 749.112976
577 0 1 10.542800 7.489939 748.539001
578 0 1 11.015850 7.874320 747.862976
579 0 1 11.295940 8.224465 747.015015
580 0 1 11.881760 8.317609 746.193970
581 0 1 12.388810 8.427282 745.380005
582 0 1 12.537720 8.691407 744.463989
583 0 1 12.478120 8.761003 743.520020
584 0 1 12.496110 8.927850 742.546021
585 0 1 12.299140 9.082680 741.593018
586 0 1 11.984370 9.283060 740.651001
587 0 1 11.848040 9.138550 739.687988
588 0 1 11.636150 9.073980 738.778015
589 0 1 11.475060 8.930624 737.768005
590 0 1 11.283319 8.818378 736.839966
591 0 1 10.764420 8.715603 735.983032
592 0 1 10.380640 8.685807 735.119019
593 0 1 10.034990 8.487980 734.233032
594 0 1 9.794290 8.353979 733.278992
595 0 1 9.537260 8.250307 732.400024
596 0 1 9.428190 8.308544 731.385010
597 0 1 9.003870 7.817081 730.679993
598 0 1 8.452814 7.631633 729.934021
599 0 1 8.001333 7.445097 729.012024
600 0 1 7.777297 7.059643 728.205322
601 0 1 7.995716 6.644480 727.321411
602 0 1 8.472810 6.316160 726.482666
603 0 1 9.059260 6.058010 725.752014
604 0 1 9.614040 5.795890 725.041321
605 0 1 9.811069 5.638330 724.133118
606 0 1 9.809250 5.456180 723.181824
607 0 1 9.731160 5.471540 722.213989
608 0 1 9.375450 5.598330 721.316406
609 0 1 9.405810 5.677090 720.375305
610 0 1 9.499250 5.482130 719.450195
611 0 1 9.303740 5.076860 718.601624
612 0 1 8.963217 4.720460 717.684387
613 0 1 8.561190 4.566030 716.841309
614 0 1 8.111640 4.452030 716.007385
615 0 1 7.779256 4.185520 715.177673
616 0 1 7.444355 4.090480 714.310608
617 0 1 7.230210 4.280010 713.352600
618 0 1 7.325103 4.229270 712.423279
619 0 1 7.452789 4.227500 711.481323
620 0 1 6.910350 4.127780 710.672485
621 0 1 6.267520 4.471840 710.110779
622 0 1 5.562640 4.655040 709.450806
623 0 1 5.008070 4.790660 708.677002
624 0 1 4.652880 5.178910 707.889099
625 0 1 4.637060 5.640060 707.037720
626 0 1 4.518720 5.980670 706.166504
627 0 1 4.241140 6.492680 705.337280
628 0 1 3.615770 6.900710 704.700195
629 0 1 3.075530 7.301951 704.007812
630 0 1 2.525000 7.799800 703.401184
631 0 1 2.094430 8.157194 702.689392
632 0 1 1.514870 8.495797 701.949097
633 0 1 1.543980 8.728116 700.962708
634 0 1 1.518470 8.813155 699.996582
635 0 1 1.716300 9.043130 699.125122
636 0 1 2.070150 9.352750 698.272400
637 0 1 2.535450 9.751880 697.555786
638 0 1 2.960630 9.975580 696.686218
639 0 1 3.312890 10.078000 695.758484
640 0 1 3.636850 10.193541 694.892883
641 0 1 3.772300 10.440940 693.952271
642 0 1 3.918460 10.454290 693.030212
643 0 1 4.080730 10.415480 692.065918
644 0 1 4.127290 10.190770 691.138306
645 0 1 4.405070 10.003139 690.246704
646 0 1 4.668120 10.252810 689.328186
647 0 1 5.220130 10.326210 688.468872
648 0 1 5.642800 10.174350 687.631470
649 0 1 5.937790 10.086700 686.759583
650 0 1 6.065160 10.135170 685.785706
651 0 1 5.860000 10.138320 684.836487
652 0 1 5.988900 9.842740 683.913818
653 0 1 6.123600 9.795490 682.920776
654 0 1 5.887610 9.625560 681.913513
655 0 1 5.846260 9.406160 680.953613
656 0 1 5.679200 9.210510 679.972168
657 0 1 5.529120 9.247150 678.942505
658 0 1 5.562080 9.172510 677.955811
659 0 1 5.378270 9.166990 676.989014
660 0 1 5.295970 9.123020 675.971313
661 0 1 5.212440 9.178690 675.015198
662 0 1 4.880210 9.397079 674.128113
663 0 1 4.885730 9.392430 673.192627
664 0 1 4.875540 9.293450 672.172791
665 0 1 4.925320 9.386760 671.196777
666 0 1 4.533940 9.378060 670.289673
667 0 1 3.849520 9.460020 669.610901
668 0 1 3.303650 9.471581 668.824280
669 0 1 2.860520 9.390280 667.975525
670 0 1 2.483360 9.156510 667.080322
671 0 1 2.146120 8.931058 666.195679
672 0 1 1.887340 8.973095 665.294983
673 0 1 1.879710 8.877702 664.304077
674 0 1 2.010500 8.747105 663.375000
675 0 1 2.238000 8.567382 662.388000
676 0 1 2.559060 8.426907 661.509399
677 0 1 2.899410 8.221587 660.635132
678 0 1 3.375550 8.399633 659.820679
679 0 1 3.908530 8.501681 659.006470
680 0 1 4.255480 8.619934 658.157593
681 0 1 4.723000 8.958118 657.394531
682 0 1 5.332440 8.887700 656.659424
683 0 1 5.621990 8.921018 655.724792
684 0 1 5.810060 8.697161 654.795105
685 0 1 6.292140 8.936874 653.972107
686 0 1 6.803110 9.323610 653.245117
687 0 1 7.128364 9.678910 652.404114
688 0 1 7.569737 10.029490 651.666992
689 0 1 8.196098 10.347040 651.025391
690 0 1 8.711120 10.682790 650.339783
691 0 1 9.039710 11.462360 649.808716
692 0 1 9.305810 12.082050 649.190186
693 0 1 9.746870 12.557489 648.494629
694 0 1 10.096590 13.239059 647.819519
695 0 1 10.415440 13.646191 646.952026
696 0 1 10.443560 13.940650 645.943726
697 0 1 10.437990 14.128580 645.011902
698 0 1 10.448790 13.931200 644.045471
699 0 1 10.385400 13.500430 643.218689
700 0 1 10.080960 13.206659 642.355408
701 0 1 9.655250 13.212330 641.506897
702 0 1 9.149300 13.188800 640.685791
703 0 1 8.661603 12.976540 639.857178
704 0 1 8.251062 12.810830 638.976501
705 0 1 8.106848 12.144540 638.249390
706 0 1 8.014056 12.108700 637.288635
707 0 1 8.039312 12.088449 636.301392
708 0 1 8.013941 12.015841 635.323853
709 0 1 7.990121 11.974860 634.348206
710 0 1 7.723031 11.735970 633.442749
711 0 1 7.609039 11.528049 632.492920
712 0 1 7.489005 11.477840 631.545227
713 0 1 7.408273 11.787070 630.687012
714 0 1 7.162571 12.047450 629.826172
715 0 1 6.891650 12.245590 628.936584
716 0 1 6.601370 12.783910 628.221802
717 0 1 6.201270 13.202470 627.487244
718 0 1 5.917160 13.708960 626.686829
719 0 1 5.576700 13.799231 625.809814
720 0 1 5.605350 13.475110 624.810242
721 0 1 5.714610 13.034430 623.976807
722 0 1 5.947410 12.485970 623.227478
723 0 1 6.181380 12.005270 622.375122
724 0 1 6.584400 11.559361 621.671326
725 0 1 6.924890 11.196640 620.850830
726 0 1 7.215548 10.655370 620.143982
727 0 1 7.552615 10.228550 619.403503
728 0 1 7.773002 9.496950 618.736633
729 0 1 7.796948 9.120520 617.896973
730 0 1 7.610829 8.636923 617.099304
731 0 1 7.281029 8.469216 616.268799
732 0 1 6.876040 8.567051 615.399414
733 0 1 6.485010 8.715460 614.558105
734 0 1 6.290790 8.769771 613.650330
735 0 1 6.052480 8.582135 612.764404
736 0 1 5.807990 8.697623 611.772522
737 0 1 5.478280 8.701518 610.895203
738 0 1 5.197830 8.666209 609.958679
739 0 1 5.204340 8.491524 609.019531
740 0 1 5.472360 8.324722 608.098877
741 0 1 5.618660 8.286297 607.134827
742 0 1 6.233230 8.496695 606.338074
743 0 1 6.910460 8.761320 605.698730
744 0 1 7.433166 8.791187 604.861511
745 0 1 8.049453 9.021470 604.123474
746 0 1 8.600125 9.263100 603.346313
747 0 1 9.000250 9.178620 602.439880
748 0 1 9.448450 9.508950 601.637024
749 0 1 9.746040 9.987130 600.845520
750 0 1 9.989910 10.328990 599.967590
751 0 1 10.115891 10.625950 598.981873
752 0 1 10.362890 11.160140 598.156494
753 0 1 10.906290 11.693160 597.517212
754 0 1 11.491680 11.752660 596.781128
755 0 1 12.140030 11.752450 596.040771
756 0 1 12.493930 11.606560 595.197083
757 0 1 12.846530 11.262080 594.340210
758 0 1 13.009740 10.692900 593.614868
759 0 1 13.284510 10.169090 592.789307
760 0 1 12.996510 9.498900 592.236877
761 0 1 12.792440 8.872117 591.540100
762 0 1 12.630960 8.320368 590.757019
763 0 1 12.325550 7.950813 589.964111
764 0 1 11.850330 7.704336 589.197632
765 0 1 11.606920 7.450203 588.332031
766 0 1 11.390010 7.268984 587.327087
767 0 1 11.906350 7.051813 586.487183
768 0 1 12.239140 7.043266 585.531799
769 0 1 12.634160 7.211537 584.641418
770 0 1 12.493370 7.354847 583.648682
771 0 1 12.465321 7.221231 582.641968
772 0 1 12.412889 6.977720 581.650269
773 0 1 12.116850 6.684220 580.747192
774 0 1 11.898149 6.730030 579.801208
775 0 1 11.578760 7.010266 578.905090
776 0 1 11.408400 6.900400 577.905212
777 0 1 11.521270 7.158955 577.003906
778 0 1 11.503460 6.983460 576.086792
779 0 1 11.412930 6.889990 575.149475
780 0 1 11.683200 6.818130 574.259277
781 0 1 11.560400 6.884750 573.300110
782 0 1 11.173100 7.266129 572.436218
783 0 1 10.893610 7.541086 571.573914
784 0 1 10.729020 7.568622 570.663696
785 0 1 10.649080 7.485973 569.715210
786 0 1 10.504890 7.357280 568.704712
787 0 1 10.248120 7.370723 567.784790
788 0 1 10.098310 7.149216 566.841675
789 0 1 9.932110 6.724720 565.973206