LAMMPS data file via MDAnalysis

        1000  atoms
        1000  bonds
        1000  angles
           0  dihedrals
           0  impropers

           1  atom types
           1  bond types
           1  angle types
           0  dihedral types
           0  improper types

0.000000 16.000000 xlo xhi
0.000000 16.000000 ylo yhi
0.000000 1257.000000 zlo zhi


Masses

1 1.000000

Atoms

1 0 1 11.761150 9.481200 464.377991
2 0 1 11.620890 8.920458 465.234009
3 0 1 11.592290 8.447671 466.031982
4 0 1 11.519350 8.080392 466.940002
5 0 1 11.501320 7.599185 467.753998
6 0 1 11.343400 7.303035 468.759003
7 0 1 10.793730 7.289358 469.583008
8 0 1 10.535040 7.344654 470.513000
9 0 1 10.209750 7.715758 471.330994
10 0 1 9.869850 8.285047 472.033997
11 0 1 9.749770 8.730021 472.880005
12 0 1 9.400480 9.354850 473.610992
13 0 1 9.162830 9.998750 474.302002
14 0 1 9.169190 10.397540 475.212006
15 0 1 9.266109 10.691080 476.117004
16 0 1 9.555760 11.264811 476.833008
17 0 1 9.341050 11.629940 477.703979
18 0 1 9.213390 11.811230 478.609985
19 0 1 9.035660 11.992701 479.635010
20 0 1 8.484999 11.942970 480.416016
21 0 1 7.805114 11.660749 481.141998
22 0 1 7.416576 11.298590 481.901978
23 0 1 7.143805 10.929930 482.791992
24 0 1 6.760370 10.831660 483.682007
25 0 1 6.119670 11.225240 484.393982
26 0 1 5.646670 11.636130 485.145020
27 0 1 5.219530 11.879869 486.005981
28 0 1 5.304230 11.915330 486.968018
29 0 1 5.134930 11.682360 487.917999
30 0 1 5.251390 11.455550 488.859009
31 0 1 5.646930 11.162830 489.671021
32 0 1 6.115850 11.186590 490.529999
33 0 1 6.764970 11.137840 491.187988
34 0 1 7.588659 11.085850 491.726013
35 0 1 8.381570 11.262100 492.380981
36 0 1 9.030930 11.502410 493.117004
37 0 1 9.679670 11.663790 493.776001
38 0 1 10.106410 11.953960 494.567993
39 0 1 10.504350 12.271120 495.389008
40 0 1 10.679000 12.482639 496.296021
41 0 1 10.797110 12.359060 497.268005
42 0 1 11.037740 12.200040 498.179016
43 0 1 11.255760 11.926410 499.061005
44 0 1 11.427180 11.704380 499.966003
45 0 1 11.977140 11.644600 500.755005
46 0 1 12.536449 11.390020 501.507996
47 0 1 13.058400 11.210800 502.253998
48 0 1 13.383780 10.917891 503.049988
49 0 1 13.465390 10.678550 503.923004
50 0 1 13.517300 10.581630 504.845001
51 0 1 13.653999 10.396270 505.751007
52 0 1 14.011600 10.041759 506.622986
53 0 1 14.019461 9.462530 507.475006
54 0 1 13.772020 8.972387 508.273010
55 0 1 13.221399 8.411352 508.914001
56 0 1 12.608231 7.854436 509.372009
57 0 1 12.029010 7.507299 510.127014
58 0 1 11.505420 7.093938 510.799988
59 0 1 10.950730 6.771530 511.502014
60 0 1 10.528540 6.188230 512.202026
61 0 1 10.276051 5.750220 512.950989
62 0 1 9.873890 5.139290 513.551025
63 0 1 9.605760 4.440810 514.193970
64 0 1 9.540450 4.188800 515.153015
65 0 1 9.568980 4.054040 516.086975
66 0 1 9.307080 3.933190 517.039001
67 0 1 8.779821 3.702210 517.867004
68 0 1 8.428529 3.905890 518.714966
69 0 1 8.244172 3.856490 519.620972
70 0 1 8.203935 3.985210 520.562012
71 0 1 8.095243 4.368610 521.401001
72 0 1 7.909069 4.944470 522.172974
73 0 1 7.750690 5.669490 522.737000
74 0 1 7.770907 6.545410 523.262024
75 0 1 7.705244 7.401748 523.768982
76 0 1 7.447692 8.196470 524.268005
77 0 1 7.025499 8.865306 524.919983
78 0 1 6.619350 9.556890 525.362000
79 0 1 6.072870 10.032750 526.052979
80 0 1 5.586160 10.558070 526.658020
81 0 1 5.556240 10.912210 527.530029
82 0 1 5.508180 11.415570 528.327026
83 0 1 5.407700 11.892839 529.115112
84 0 1 5.435420 12.306240 529.983093
85 0 1 5.299430 12.294200 530.986877
86 0 1 5.174160 11.937160 531.908508
87 0 1 4.991540 11.310070 532.683777
88 0 1 4.897950 10.622120 533.327515
89 0 1 4.883820 10.090350 534.147888
90 0 1 5.153720 9.608960 534.931519
91 0 1 5.479450 8.966715 535.562683
92 0 1 5.727860 8.376330 536.271790
93 0 1 6.166330 7.779269 536.886780
94 0 1 6.657090 7.085000 537.295532
95 0 1 6.998860 6.548950 538.005798
96 0 1 7.097247 6.172170 538.905090
97 0 1 7.231300 5.959660 539.823120
98 0 1 7.348128 5.620830 540.696594
99 0 1 7.450495 5.494560 541.637329
100 0 1 7.852265 5.319060 542.475098
101 0 1 8.056430 5.168740 543.391907
102 0 1 8.425600 5.079220 544.254211
103 0 1 8.514413 5.497940 545.066589
104 0 1 8.818405 5.928770 545.895386
105 0 1 8.816800 6.345620 546.782104
106 0 1 8.769399 6.539430 547.718872
107 0 1 8.480718 6.879170 548.562622
108 0 1 8.224573 7.382116 549.324097
109 0 1 8.009269 7.995111 550.057312
110 0 1 7.843516 8.703269 550.672791
111 0 1 7.400674 9.408090 551.211426
112 0 1 7.051232 10.073540 551.872314
113 0 1 6.711150 10.667990 552.521790
114 0 1 6.324700 11.232150 553.262207
115 0 1 6.020260 11.954600 553.911926
116 0 1 5.700470 12.452789 554.653320
117 0 1 5.273730 12.595600 555.577515
118 0 1 4.599880 12.789040 556.309082
119 0 1 4.206410 12.765910 557.153625
120 0 1 3.787870 12.781500 557.996094
121 0 1 3.636660 12.783330 558.951599
122 0 1 3.355870 12.707840 559.878113
123 0 1 2.957610 12.303860 560.692017
124 0 1 2.553810 11.739990 561.468201
125 0 1 2.051070 11.097860 561.998718
126 0 1 2.122200 10.192060 562.411133
127 0 1 2.218070 9.434640 562.937683
128 0 1 2.118890 8.775517 563.649597
129 0 1 2.251550 8.295144 564.472595
130 0 1 2.543580 7.776505 565.271912
131 0 1 2.738880 7.603944 566.194214
132 0 1 2.672870 7.343178 567.123169
133 0 1 2.452110 7.076505 568.047424
134 0 1 2.285570 7.056750 569.010803
135 0 1 2.200950 6.680340 569.895630
136 0 1 2.108820 6.333430 570.808228
137 0 1 2.197040 5.792000 571.569702
138 0 1 2.380750 5.452880 572.439026
139 0 1 2.553160 5.324610 573.360107
140 0 1 2.618530 5.429870 574.330383
141 0 1 2.881610 5.533300 575.261292
142 0 1 3.376170 5.695070 576.068481
143 0 1 3.858670 5.801040 576.899109
144 0 1 4.416400 5.783800 577.730408
145 0 1 4.840160 5.755640 578.654602
146 0 1 5.093440 5.941720 579.540222
147 0 1 5.456810 6.160500 580.403687
148 0 1 5.773190 6.368170 581.274414
149 0 1 5.694010 6.547100 582.168823
150 0 1 5.796370 6.746010 583.143127
151 0 1 5.702460 6.835330 584.089905
152 0 1 5.558420 7.104124 584.952026
153 0 1 5.355950 7.122698 585.929993
154 0 1 5.684970 7.014676 586.901489
155 0 1 5.973770 7.186371 587.819092
156 0 1 6.074860 7.059553 588.737488
157 0 1 6.157890 6.835280 589.731384
158 0 1 5.859720 6.754250 590.660095
159 0 1 5.595830 6.701310 591.593872
160 0 1 5.461130 6.932330 592.503174
161 0 1 5.128570 7.098445 593.432190
162 0 1 5.161330 7.148305 594.354675
163 0 1 4.998850 7.290157 595.317078
164 0 1 4.583640 7.333096 596.180481
165 0 1 4.140890 7.201071 597.062073
166 0 1 3.897950 6.882830 597.898499
167 0 1 3.942940 6.581480 598.873718
168 0 1 3.932270 6.183670 599.744995
169 0 1 3.712500 5.967470 600.695374
170 0 1 3.827030 5.524470 601.552002
171 0 1 4.209430 5.003180 602.274902
172 0 1 4.348890 4.560810 603.125488
173 0 1 4.381050 4.274130 604.057312
174 0 1 4.694450 4.027870 604.920288
175 0 1 5.088580 4.018890 605.882202
176 0 1 5.273950 4.046370 606.799194
177 0 1 5.474430 3.916670 607.745178
178 0 1 5.664770 3.822580 608.630310
179 0 1 5.827350 3.843210 609.552795
180 0 1 6.332970 3.519120 610.415588
181 0 1 6.776840 3.437110 611.221313
182 0 1 7.234834 3.371370 611.997925
183 0 1 7.344939 3.343330 612.960327
184 0 1 7.461661 3.290010 613.946777
185 0 1 7.223319 3.350100 614.936829
186 0 1 7.091485 3.431640 615.881775
187 0 1 6.880530 3.645980 616.763794
188 0 1 7.018054 3.697600 617.657593
189 0 1 7.284161 3.679990 618.493225
190 0 1 7.821380 3.780680 619.264465
191 0 1 8.327436 3.406510 619.983521
192 0 1 8.573886 3.136800 620.849182
193 0 1 8.903264 3.287380 621.771179
194 0 1 9.226230 3.352990 622.628845
195 0 1 9.711460 3.385140 623.505188
196 0 1 10.445510 3.622010 624.086670
197 0 1 10.827311 4.094520 624.836304
198 0 1 11.036810 4.668140 625.673645
199 0 1 10.992090 5.089160 626.605652
200 0 1 10.839830 5.710750 627.322937
201 0 1 10.676331 6.377560 628.121521
202 0 1 10.420040 6.837290 628.944885
203 0 1 10.018230 7.321304 629.669434
204 0 1 9.747320 7.620354 630.531921
205 0 1 9.503139 8.192807 631.335693
206 0 1 9.285250 8.475683 632.230652
207 0 1 9.430340 8.707723 633.120117
208 0 1 9.262300 8.887401 634.029968
209 0 1 9.183960 8.936890 634.969604
210 0 1 9.153890 8.984844 635.940247
211 0 1 8.935820 9.170900 636.811829
212 0 1 9.051580 9.281300 637.787720
213 0 1 8.930781 9.280610 638.760681
214 0 1 8.940240 9.297100 639.708313
215 0 1 8.939414 9.385900 640.682800
216 0 1 8.800551 9.478500 641.618713
217 0 1 8.497218 9.852520 642.452515
218 0 1 7.895536 9.793400 643.235107
219 0 1 7.510900 9.771610 644.090271
220 0 1 7.378385 9.909800 645.018005
221 0 1 7.630290 10.171619 645.903687
222 0 1 7.870479 10.569640 646.776306
223 0 1 7.919929 10.891780 647.644531
224 0 1 8.115318 11.357340 648.457825
225 0 1 8.052334 11.670420 649.364014
226 0 1 8.178370 12.193020 650.223022
227 0 1 8.095229 12.295401 651.190186
228 0 1 8.315282 12.359409 652.106995
229 0 1 8.503739 12.424250 653.047424
230 0 1 8.680173 12.364100 653.991089
231 0 1 8.872060 12.354401 654.919189
232 0 1 8.857180 12.286890 655.916016
233 0 1 8.831521 12.199240 656.853088
234 0 1 8.755803 11.729470 657.760803
235 0 1 8.912907 11.251440 658.626282
236 0 1 9.305070 10.669870 659.310425
237 0 1 9.862000 10.190331 659.989624
238 0 1 10.354970 9.582370 660.587402
239 0 1 11.046680 8.926171 660.937073
240 0 1 11.599940 8.407531 661.549194
241 0 1 12.036369 7.846988 662.178894
242 0 1 12.546200 7.621458 662.919373
243 0 1 12.746110 7.142555 663.752014
244 0 1 12.709391 7.034248 664.693909
245 0 1 12.546750 6.664980 665.597717
246 0 1 12.356370 6.314130 666.514709
247 0 1 12.094231 6.020310 667.410889
248 0 1 11.722030 5.356260 668.044922
249 0 1 11.234990 4.908060 668.745178
250 0 1 10.786710 4.583080 669.547791
251 0 1 10.703260 4.235110 670.432983
252 0 1 10.632820 3.935290 671.450195
253 0 1 10.437370 3.602490 672.298096
254 0 1 10.171659 3.564070 673.198730
255 0 1 9.894110 3.751700 674.157471
256 0 1 9.408810 4.070100 674.968384
257 0 1 8.877283 4.509120 675.658020
258 0 1 8.336507 4.762080 676.495300
259 0 1 7.681646 5.267160 677.001709
260 0 1 7.178258 5.873050 677.463989
261 0 1 6.743560 6.487170 678.051208
262 0 1 6.588510 7.308950 678.592407
263 0 1 6.650100 7.985568 679.367493
264 0 1 6.666020 8.667206 680.037903
265 0 1 6.501410 9.409050 680.612000
266 0 1 6.313430 10.202520 681.211487
267 0 1 6.450260 10.860500 681.883789
268 0 1 6.330330 11.535490 682.571411
269 0 1 6.355970 12.227250 683.146973
270 0 1 6.507970 12.863370 683.869324
271 0 1 6.050780 13.264920 684.614197
272 0 1 6.000480 13.697140 685.466797
273 0 1 6.202000 13.639090 686.417480
274 0 1 6.568140 13.544559 687.284607
275 0 1 6.899120 13.446830 688.140381
276 0 1 7.216644 13.274920 688.994324
277 0 1 7.435341 13.491859 689.943481
278 0 1 7.267829 13.764000 690.880188
279 0 1 7.281752 13.577960 691.794617
280 0 1 7.017924 13.345039 692.681396
281 0 1 6.947780 13.506630 693.656128
282 0 1 6.926830 13.657539 694.604980
283 0 1 6.689770 13.448370 695.479370
284 0 1 6.599720 13.338990 696.412109
285 0 1 6.326270 13.086220 697.259216
286 0 1 6.285970 12.875760 698.229309
287 0 1 6.033060 12.643400 699.160095
288 0 1 5.784360 12.232370 700.037781
289 0 1 5.638280 11.782351 700.950684
290 0 1 5.626960 11.253280 701.833984
291 0 1 5.722620 10.704280 702.662781
292 0 1 5.769430 10.054940 703.350281
293 0 1 5.662870 9.352230 703.974426
294 0 1 5.744050 8.705099 704.669922
295 0 1 6.159000 8.095250 705.292908
296 0 1 6.688390 7.547535 705.887085
297 0 1 7.229408 7.222419 706.654175
298 0 1 7.689982 6.981990 707.432617
299 0 1 7.751293 6.555890 708.312317
300 0 1 7.574989 6.256840 709.181885
301 0 1 7.536617 6.338980 710.133484
302 0 1 7.492494 6.168880 711.065796
303 0 1 7.487461 6.247960 712.046509
304 0 1 7.386553 6.082400 713.036987
305 0 1 6.968110 6.048370 713.912292
306 0 1 6.788230 5.943640 714.887573
307 0 1 6.494300 5.794250 715.785095
308 0 1 6.141350 5.958030 716.653503
309 0 1 5.828640 6.333970 717.465576
310 0 1 5.496510 6.536310 718.417786
311 0 1 5.078240 6.754730 719.251221
312 0 1 4.732210 6.711620 720.143616
313 0 1 4.276250 6.537090 721.038574
314 0 1 3.897670 6.131620 721.837891
315 0 1 3.756240 5.823650 722.783569
316 0 1 3.523030 5.787230 723.701904
317 0 1 3.325040 5.718140 724.700623
318 0 1 3.407160 5.566880 725.698914
319 0 1 3.611380 5.590150 726.657288
320 0 1 3.695140 5.467710 727.628174
321 0 1 4.002720 5.461070 728.577026
322 0 1 4.572320 5.445810 729.387024
323 0 1 5.117990 5.462310 730.177002
324 0 1 5.137120 5.463600 731.174988
325 0 1 5.366360 5.518910 732.099976
326 0 1 5.463030 5.852810 733.041016
327 0 1 5.353230 6.019260 733.968018
328 0 1 5.520700 6.162940 734.911011
329 0 1 5.580000 6.199000 735.828003
330 0 1 5.714030 6.201840 736.839966
331 0 1 5.923680 6.111640 737.773010
332 0 1 6.219700 6.140990 738.679016
333 0 1 6.521680 5.833370 739.515015
334 0 1 6.555970 5.580700 740.466003
335 0 1 6.689560 5.468050 741.414001
336 0 1 6.540330 5.103020 742.297974
337 0 1 6.542190 4.817640 743.184998
338 0 1 6.451690 4.506200 744.150024
339 0 1 6.396650 4.289400 745.093018
340 0 1 6.531330 4.168410 746.052002
341 0 1 6.446510 3.826010 746.934021
342 0 1 6.620300 3.487740 747.827026
343 0 1 6.822980 3.270930 748.728027
344 0 1 6.720280 2.954860 749.646973
345 0 1 6.519750 3.099970 750.573975
346 0 1 6.332500 3.331400 751.507996
347 0 1 6.140680 3.595600 752.429993
348 0 1 6.231840 3.938950 753.289001
349 0 1 6.487810 4.169820 754.148987
350 0 1 6.839260 4.488490 754.971985
351 0 1 7.366681 4.990690 755.601013
352 0 1 7.918359 5.390300 756.255005
353 0 1 8.385846 6.070290 756.705994
354 0 1 8.949233 6.579230 757.296997
355 0 1 9.289730 7.116536 758.083984
356 0 1 9.515100 7.671948 758.858032
357 0 1 9.564350 8.296612 759.645996
358 0 1 9.731290 8.867033 760.427979
359 0 1 9.866529 9.232590 761.286011
360 0 1 10.289130 9.617190 762.130005
361 0 1 10.487770 10.207190 762.911987
362 0 1 10.500840 10.540260 763.804016
363 0 1 10.214670 10.547810 764.713989
364 0 1 10.076290 10.827650 765.613037
365 0 1 10.248130 11.042870 766.523987
366 0 1 10.306620 11.387480 767.398010
367 0 1 10.652121 11.526900 768.386963
368 0 1 10.554430 11.461610 769.312012
369 0 1 10.642860 11.504410 770.270996
370 0 1 10.584280 11.427160 771.238037
371 0 1 10.417770 11.587020 772.270020
372 0 1 10.200640 11.671070 773.156982
373 0 1 10.057280 11.407990 774.119995
374 0 1 9.823360 11.246830 775.023010
375 0 1 9.781070 10.925820 775.882019
376 0 1 9.538510 10.732590 776.843018
377 0 1 9.346660 10.978640 777.726013
378 0 1 9.216740 11.160840 778.712036
379 0 1 9.074280 11.517839 779.559998
380 0 1 8.900331 11.722660 780.440002
381 0 1 8.602047 11.684280 781.398987
382 0 1 8.250978 11.491360 782.301025
383 0 1 7.830303 11.307050 783.177979
384 0 1 7.838780 11.000160 784.101990
385 0 1 7.927313 10.657949 784.997009
386 0 1 8.118589 10.199600 785.877014
387 0 1 7.930458 9.976900 786.809998
388 0 1 7.721686 10.109600 787.739014
389 0 1 7.691942 10.116720 788.662964
390 0 1 7.527748 10.090509 789.601013
391 0 1 7.728837 10.263350 790.516968
392 0 1 8.064177 10.255540 791.447021
393 0 1 8.217885 10.420660 792.362000
394 0 1 8.293464 10.578580 793.335999
395 0 1 8.253989 10.390640 794.242981
396 0 1 7.621781 10.323870 795.041992
397 0 1 7.285639 10.568420 795.924011
398 0 1 7.123272 10.580790 796.859009
399 0 1 6.779760 10.863430 797.690002
400 0 1 6.340280 10.906610 798.589966
401 0 1 6.295900 10.976350 799.542969
402 0 1 6.167690 11.080650 800.481018
403 0 1 6.026680 11.445490 801.291992
404 0 1 6.122260 11.990040 802.101990
405 0 1 6.308790 12.380939 802.976990
406 0 1 6.354310 12.717740 803.869019
407 0 1 6.360590 12.903460 804.832031
408 0 1 6.221020 13.025040 805.797974
409 0 1 6.168950 13.456921 806.653992
410 0 1 6.374130 13.605659 807.541016
411 0 1 6.819490 13.635340 808.427979
412 0 1 6.840760 13.576050 809.359009
413 0 1 6.556270 13.517941 810.281982
414 0 1 6.255570 13.362209 811.192993
415 0 1 6.088570 13.183210 812.122986
416 0 1 5.833190 12.962000 813.020020
417 0 1 6.040170 12.495370 813.893005
418 0 1 6.253470 12.112289 814.707031
419 0 1 6.275000 11.742540 815.542969
420 0 1 6.073960 11.070830 816.182007
421 0 1 5.976510 10.251280 816.622986
422 0 1 5.719400 9.499530 817.132019
423 0 1 5.609640 8.726726 817.700989
424 0 1 5.462720 8.050808 818.346008
425 0 1 5.563070 7.311507 818.905029
426 0 1 5.251490 6.545760 819.393982
427 0 1 4.765340 5.852540 819.867004
428 0 1 4.512470 5.196780 820.488037
429 0 1 4.194360 4.736650 821.286011
430 0 1 3.805830 4.478110 822.078003
431 0 1 3.879860 4.327150 823.059998
432 0 1 3.691260 4.199870 823.988037
433 0 1 3.486000 3.855700 824.889038
434 0 1 3.458280 3.371230 825.752014
435 0 1 3.581420 3.144050 826.648010
436 0 1 3.745310 3.028870 827.614990
437 0 1 3.972010 3.086190 828.531006
438 0 1 4.274450 2.981490 829.469971
439 0 1 4.602450 3.133670 830.406982
440 0 1 4.936770 3.605150 831.148987
441 0 1 5.219850 3.960890 832.078003
442 0 1 5.759110 3.984780 832.838989
443 0 1 5.993330 4.150250 833.755981
444 0 1 6.273580 4.403910 834.658997
445 0 1 6.838830 4.981170 835.136963
446 0 1 7.288260 5.789870 835.346985
447 0 1 7.781635 6.589400 835.395020
448 0 1 8.302304 7.396602 835.082031
449 0 1 8.850910 8.164578 834.867981
450 0 1 9.330460 9.017130 834.744995
451 0 1 9.798060 9.799840 834.547974
452 0 1 10.437050 10.503810 834.403015
453 0 1 10.694820 11.408979 834.182007
454 0 1 11.025240 12.044411 833.537964
455 0 1 11.291360 12.603149 832.862000
456 0 1 11.662420 12.681490 831.979004
457 0 1 11.761160 12.812590 831.049988
458 0 1 12.014100 12.794980 830.129028
459 0 1 12.255520 13.003890 829.229980
460 0 1 12.015850 12.923100 828.261963
461 0 1 11.833730 12.763889 827.224976
462 0 1 11.659950 12.444571 826.328003
463 0 1 11.216730 12.094960 825.539001
464 0 1 10.722980 11.606760 824.867981
465 0 1 10.225750 11.279910 824.085999
466 0 1 9.872880 10.753710 823.317993
467 0 1 9.200300 10.498620 822.686035
468 0 1 8.595583 10.154810 822.005005
469 0 1 7.940866 10.105200 821.302002
470 0 1 7.556079 9.736490 820.523987
471 0 1 7.147858 9.337530 819.789978
472 0 1 6.994650 8.983327 818.851013
473 0 1 6.772920 8.596261 817.994995
474 0 1 6.457480 8.551027 817.093018
475 0 1 6.202460 8.403021 816.140991
476 0 1 6.244220 8.353363 815.104004
477 0 1 6.163220 8.275885 814.119995
478 0 1 6.113860 8.290900 813.187988
479 0 1 6.370310 8.517793 812.255981
480 0 1 6.378180 8.940101 811.372986
481 0 1 6.377670 9.293250 810.462036
482 0 1 6.440750 9.857240 809.724976
483 0 1 6.345170 10.380880 808.932983
484 0 1 6.020490 10.604450 808.109985
485 0 1 5.248990 10.714320 807.563965
486 0 1 4.680210 10.887990 806.858032
487 0 1 4.518420 11.020420 805.838013
488 0 1 4.251920 10.939890 804.895996
489 0 1 4.188230 10.891911 803.984985
490 0 1 4.332710 10.674191 803.098022
491 0 1 4.697240 10.508090 802.218018
492 0 1 5.044460 10.150650 801.414001
493 0 1 5.142320 9.941130 800.494019
494 0 1 5.162740 9.525730 799.601990
495 0 1 5.032870 9.306060 798.710999
496 0 1 4.906220 8.886248 797.811035
497 0 1 4.776020 8.469957 797.014038
498 0 1 4.989560 7.887907 796.311035
499 0 1 4.960110 7.270027 795.528015
500 0 1 4.943210 6.911600 794.653992
501 0 1 4.934840 6.476710 793.835999
502 0 1 4.779870 6.093910 792.872009
503 0 1 4.572150 5.501410 792.125000
504 0 1 4.345240 5.097610 791.302002
505 0 1 4.259190 4.792780 790.411987
506 0 1 4.113470 4.331310 789.554016
507 0 1 4.322450 4.024140 788.643982
508 0 1 4.410860 4.109560 787.674011
509 0 1 4.800660 4.118060 786.811035
510 0 1 4.995600 4.215960 785.864990
511 0 1 4.874640 4.421800 784.978027
512 0 1 4.583420 4.416660 784.091003
513 0 1 4.666070 4.193860 783.198975
514 0 1 4.820070 3.514090 782.437988
515 0 1 5.021840 3.123650 781.629028
516 0 1 5.180870 2.806620 780.760010
517 0 1 5.047240 2.729910 779.843994
518 0 1 4.878800 2.757170 778.896973
519 0 1 4.910900 2.804390 777.942017
520 0 1 5.154530 2.876830 777.039001
521 0 1 5.495720 3.081720 776.145996
522 0 1 6.044920 3.387530 775.434998
523 0 1 6.422200 3.596650 774.617004
524 0 1 6.887620 4.042440 773.955994
525 0 1 7.280036 4.724820 773.389038
526 0 1 7.883056 5.156870 772.833008
527 0 1 8.574602 5.723500 772.424011
528 0 1 9.136860 6.090680 771.789978
529 0 1 9.709830 6.645240 771.174011
530 0 1 10.186670 7.190045 770.606995
531 0 1 10.692910 7.728620 769.927002
532 0 1 11.105770 8.201359 769.161987
533 0 1 11.368220 8.512860 768.299011
534 0 1 11.523980 8.962197 767.494019
535 0 1 11.593850 9.406890 766.669983
536 0 1 11.779580 9.888160 765.849976
537 0 1 11.854800 10.596590 765.255981
538 0 1 11.910670 11.127780 764.445007
539 0 1 11.706700 11.596380 763.619019
540 0 1 11.446880 12.001300 762.812988
541 0 1 11.381620 12.053841 761.823975
542 0 1 11.242740 11.835150 760.886963
543 0 1 11.061480 11.724760 759.807007
544 0 1 11.013041 11.658070 758.843018
545 0 1 10.824690 11.758150 757.919983
546 0 1 10.532180 11.480860 757.011963
547 0 1 10.229300 11.499240 756.114990
548 0 1 9.954460 11.426810 755.192993
549 0 1 9.652500 11.556750 754.325989
550 0 1 9.304320 11.680780 753.388977
551 0 1 8.771111 11.153650 752.721008
552 0 1 8.524101 10.777660 751.833984
553 0 1 8.104234 10.750130 750.978027
554 0 1 7.469367 10.784389 750.229004
555 0 1 7.000472 10.917880 749.435974
556 0 1 7.074391 10.814910 748.531006
557 0 1 7.114720 10.974410 747.583008
558 0 1 7.289115 11.162310 746.708984
559 0 1 7.238208 11.284750 745.765991
560 0 1 7.206508 11.606960 744.867004
561 0 1 7.416534 11.926720 743.942017
562 0 1 7.876988 12.131371 743.122986
563 0 1 8.426440 12.456190 742.440979
564 0 1 8.961023 12.588490 741.643005
565 0 1 9.332100 12.512740 740.742981
566 0 1 9.637930 12.603920 739.799988
567 0 1 9.982370 12.694150 738.851013
568 0 1 10.383990 12.821939 737.986023
569 0 1 10.757910 12.777730 737.094971
570 0 1 11.221000 12.710340 736.239014
571 0 1 11.438470 12.577430 735.302002
572 0 1 11.886909 12.110109 734.580994
573 0 1 12.151120 11.714310 733.757996
574 0 1 11.993870 11.444640 732.739014
575 0 1 11.545340 11.049180 731.984985
576 0 1 10.950809 10.843690 731.286011
577 0 1 10.389260 10.732990 730.443970
578 0 1 10.087180 10.381110 729.601013
579 0 1 9.617670 10.235220 728.778992
580 0 1 8.986940 10.266610 728.041870
581 0 1 8.645759 9.956440 727.127502
582 0 1 8.442104 9.515500 726.306519
583 0 1 8.380145 8.963116 725.530396
584 0 1 8.415767 8.234112 724.966797
585 0 1 8.537890 7.423698 724.497620
586 0 1 8.967607 6.658080 724.161926
587 0 1 9.181440 5.814540 723.745605
588 0 1 9.706210 5.145920 723.289490
589 0 1 9.973430 4.474010 722.716003
590 0 1 9.994840 3.627390 722.232178
591 0 1 10.348310 2.855620 721.740112
592 0 1 10.681610 2.400670 720.984009
593 0 1 10.867020 2.238010 720.078796
594 0 1 11.098530 2.238560 719.138489
595 0 1 11.120680 2.020850 718.237610
596 0 1 10.991660 1.990980 717.301514
597 0 1 11.142930 2.271790 716.358704
598 0 1 11.215150 2.411890 715.480225
599 0 1 11.148090 2.705560 714.526001
600 0 1 10.993420 2.745480 713.566589
601 0 1 10.963250 2.865270 712.599487
602 0 1 11.066050 3.203810 711.695068
603 0 1 10.992820 3.459680 710.685303
604 0 1 10.702560 3.775660 709.837891
605 0 1 10.444380 4.219380 709.082825
606 0 1 10.114799 4.577670 708.292480
607 0 1 10.348230 4.893170 707.424072
608 0 1 10.670980 5.139370 706.540710
609 0 1 10.770430 5.636740 705.635315
610 0 1 10.777280 6.313540 704.895508
611 0 1 10.535040 6.815180 704.047913
612 0 1 10.238780 7.034041 703.170898
613 0 1 10.316450 7.032585 702.218872
614 0 1 10.066360 7.234379 701.279175
615 0 1 10.058550 7.224184 700.308105
616 0 1 9.990970 7.105565 699.367676
617 0 1 9.693090 7.036778 698.482178
618 0 1 9.028060 6.880160 697.752075
619 0 1 8.435628 6.973190 696.941895
620 0 1 7.684128 6.867680 696.310791
621 0 1 7.045119 6.673070 695.595276
622 0 1 6.704720 6.441410 694.749695
623 0 1 6.578680 6.001810 693.903992
624 0 1 6.632160 5.555860 693.072021
625 0 1 6.724280 5.224730 692.187073
626 0 1 6.707690 5.134630 691.199219
627 0 1 6.727360 5.362580 690.267822
628 0 1 6.643180 5.496850 689.309570
629 0 1 6.422210 5.325160 688.335693
630 0 1 6.381840 5.148420 687.383484
631 0 1 6.367770 4.716810 686.489319
632 0 1 6.179640 4.428660 685.607910
633 0 1 6.074200 4.004370 684.782715
634 0 1 5.814450 3.695640 683.844971
635 0 1 5.439240 3.443640 682.925720
636 0 1 5.077950 3.236310 682.041321
637 0 1 4.448100 2.937820 681.263977
638 0 1 4.100180 3.172570 680.335083
639 0 1 3.892680 3.365090 679.360474
640 0 1 3.454800 3.628450 678.567078
641 0 1 3.296230 4.218900 677.745300
642 0 1 3.139540 4.891550 677.089722
643 0 1 3.053460 5.401410 676.231689
644 0 1 2.832670 5.987190 675.529724
645 0 1 2.674430 6.661080 674.883911
646 0 1 2.412530 7.309379 674.192871
647 0 1 2.278290 7.937162 673.483276
648 0 1 2.093050 8.296116 672.589600
649 0 1 2.004020 8.586432 671.692017
650 0 1 1.835500 9.118520 670.961304
651 0 1 1.924510 9.849320 670.330383
652 0 1 2.260030 10.539490 669.788696
653 0 1 2.460340 11.113720 669.050720
654 0 1 2.618820 11.359489 668.106201
655 0 1 2.705410 11.377350 667.178528
656 0 1 2.834910 10.967140 666.176697
657 0 1 2.872070 10.505230 665.233093
658 0 1 2.901730 10.065780 664.414917
659 0 1 3.163820 9.658220 663.587769
660 0 1 3.252350 9.058210 662.906006
661 0 1 3.509620 8.362495 662.324585
662 0 1 3.824540 7.966822 661.476990
663 0 1 4.013860 7.977664 660.467896
664 0 1 4.135700 7.930734 659.573730
665 0 1 4.262990 7.781797 658.639221
666 0 1 4.287080 7.856420 657.629883
667 0 1 4.511860 7.878051 656.673706
668 0 1 4.806240 8.095122 655.740784
669 0 1 5.127850 8.488469 654.882080
670 0 1 5.223780 9.156190 654.094910
671 0 1 5.183010 9.818050 653.361389
672 0 1 5.329650 10.542840 652.728027
673 0 1 4.995900 10.887110 651.935608
674 0 1 4.951660 11.442980 651.044128
675 0 1 4.966150 11.892380 650.179688
676 0 1 5.217350 12.491961 649.461609
677 0 1 5.698510 12.801479 648.708130
678 0 1 6.270250 13.263950 648.068970
679 0 1 6.806880 13.513090 647.251526
680 0 1 7.424157 13.728001 646.562805
681 0 1 8.040980 13.633300 645.810669
682 0 1 8.631767 13.530040 644.931030
683 0 1 8.850771 13.119090 644.061218
684 0 1 8.986280 12.884399 643.198181
685 0 1 9.371500 12.951090 642.263977
686 0 1 9.571320 12.826130 641.288208
687 0 1 9.833490 12.614429 640.427429
688 0 1 10.151060 12.349780 639.523926
689 0 1 10.399250 11.645230 638.914490
690 0 1 10.730800 11.245710 638.125061
691 0 1 11.025890 10.848800 637.300354
692 0 1 10.927980 10.530810 636.393738
693 0 1 10.762540 10.133590 635.516541
694 0 1 10.900909 9.798000 634.486877
695 0 1 10.714470 9.506560 633.603638
696 0 1 10.325750 9.452450 632.754211
697 0 1 9.899910 9.452810 631.883179
698 0 1 9.536140 9.626340 630.980591
699 0 1 8.916940 10.039710 630.354919
700 0 1 8.097169 10.221770 629.826294
701 0 1 7.415789 10.311780 629.199829
702 0 1 6.762570 10.469390 628.526489
703 0 1 6.147240 10.578170 627.761108
704 0 1 5.541360 10.364970 627.085571
705 0 1 5.169820 10.106470 626.237549
706 0 1 4.698170 9.737580 625.422668
707 0 1 4.306470 9.488050 624.578674
708 0 1 3.889120 9.512830 623.719421
709 0 1 3.595690 9.706450 622.812622
710 0 1 3.748980 9.898990 621.876465
711 0 1 4.000950 10.092330 620.948669
712 0 1 4.142740 9.769270 620.098755
713 0 1 4.259530 9.610550 619.234924
714 0 1 4.638280 9.761690 618.293823
715 0 1 4.994090 9.822580 617.370728
716 0 1 5.562980 9.585920 616.626709
717 0 1 6.056000 9.577890 615.747498
718 0 1 6.531530 9.365840 614.870300
719 0 1 6.983400 9.262700 614.086304
720 0 1 7.329913 9.012720 613.235901
721 0 1 7.823814 9.184780 612.423523
722 0 1 8.539409 9.352060 611.690491
723 0 1 9.342800 9.680310 611.214600
724 0 1 10.011960 9.999020 610.581482
725 0 1 10.519440 10.326500 609.790588
726 0 1 10.927450 10.504829 608.906128
727 0 1 11.093840 10.688250 607.960022
728 0 1 11.039190 10.750490 606.996704
729 0 1 10.905560 10.822680 606.077087
730 0 1 10.929910 10.591460 605.141479
731 0 1 10.790461 10.247710 604.227600
732 0 1 10.560250 9.886230 603.386719
733 0 1 10.470280 9.671040 602.463989
734 0 1 10.346670 9.589360 601.476501
735 0 1 9.945601 9.449210 600.604004
736 0 1 9.361580 9.498350 599.829224
737 0 1 8.901904 9.273340 599.016602
738 0 1 8.320700 9.081910 598.216980
739 0 1 7.520795 8.906434 597.705078
740 0 1 6.622510 9.008980 597.354919
741 0 1 5.910940 9.079460 596.714905
742 0 1 5.483480 9.144210 595.906372
743 0 1 5.078960 9.274570 595.118591
744 0 1 4.758930 9.409490 594.240906
745 0 1 4.250350 9.410560 593.429932
746 0 1 3.804090 9.128630 592.630798
747 0 1 3.372380 9.026750 591.818909
748 0 1 3.068110 8.767182 590.826172
749 0 1 2.841380 8.916093 589.859009
750 0 1 2.582160 9.111340 588.937317
751 0 1 2.309510 9.211460 588.034302
752 0 1 2.205420 9.600610 587.135681
753 0 1 2.384720 9.999710 586.215576
754 0 1 2.453650 10.350800 585.266602
755 0 1 2.408420 10.584030 584.284607
756 0 1 2.408550 11.048220 583.447815
757 0 1 2.418960 11.547091 582.584412
758 0 1 2.456580 12.078920 581.781677
759 0 1 2.777210 12.405130 580.945801
760 0 1 3.081590 12.844870 580.167725
761 0 1 3.533850 12.936370 579.299805
762 0 1 3.957840 12.747470 578.434204
763 0 1 4.113650 12.562679 577.508484
764 0 1 4.258220 12.430440 576.585205
765 0 1 4.387080 12.724421 575.643188
766 0 1 4.584940 13.001390 574.762085
767 0 1 4.890820 13.064440 573.807495
768 0 1 5.252260 13.081010 572.900818
769 0 1 5.687190 12.830490 572.030701
770 0 1 6.122130 12.592540 571.224304
771 0 1 6.716760 12.086180 570.648010
772 0 1 6.831850 11.293690 570.104980
773 0 1 6.807070 10.651490 569.355896
774 0 1 7.153464 10.095310 568.586304
775 0 1 7.475887 9.385810 568.031494
776 0 1 7.577137 8.872271 567.255798
777 0 1 7.450894 8.429950 566.436707
778 0 1 7.241514 8.321774 565.551208
779 0 1 6.921400 8.173691 564.593872
780 0 1 6.976640 7.584096 563.822205
781 0 1 6.812680 7.344463 562.916504
782 0 1 6.808190 7.131416 561.925476
783 0 1 6.813160 6.772280 561.028503
784 0 1 6.532030 6.783820 560.087769
785 0 1 6.229790 6.738980 559.106934
786 0 1 5.838760 6.476700 558.313721
787 0 1 5.556290 6.224950 557.473206
788 0 1 5.188360 5.995770 556.637817
789 0 1 5.236370 5.738910 555.734192
790 0 1 5.505040 5.513160 554.881470