LAMMPS data file via MDAnalysis

        1000  atoms
        1000  bonds
        1000  angles
           0  dihedrals
           0  impropers

           1  atom types
           1  bond types
           1  angle types
           0  dihedral types
           0  improper types

0.000000 16.000000 xlo xhi
0.000000 16.000000 ylo yhi
0.000000 1257.000000 zlo zhi


Masses

1 1.000000

Atoms

1 0 1 13.148399 9.545380 440.174988
2 0 1 12.934401 9.637080 441.046021
3 0 1 13.013180 9.677480 441.981995
4 0 1 13.194560 9.831050 442.997009
5 0 1 13.346310 10.303730 443.820984
6 0 1 13.322430 10.660040 444.713989
7 0 1 13.156380 10.869770 445.627991
8 0 1 12.904480 11.095480 446.489990
9 0 1 12.578990 11.346740 447.354980
10 0 1 12.200600 11.339109 448.247986
11 0 1 11.781030 11.277330 449.140015
12 0 1 11.478559 11.427450 450.065002
13 0 1 11.457581 11.433060 451.003998
14 0 1 11.447130 11.447001 451.937012
15 0 1 11.319160 11.382930 452.901001
16 0 1 11.149680 11.269920 453.890991
17 0 1 10.968790 11.006650 454.761993
18 0 1 10.838520 10.731030 455.694000
19 0 1 10.794570 10.440180 456.591980
20 0 1 10.627310 10.116740 457.513000
21 0 1 10.462540 10.075020 458.476013
22 0 1 9.983150 9.644200 459.234985
23 0 1 9.589550 9.334260 460.091980
24 0 1 9.366840 8.719895 460.859985
25 0 1 9.252310 8.242300 461.716980
26 0 1 9.326010 7.858982 462.626007
27 0 1 9.116080 7.511990 463.502014
28 0 1 8.685203 6.960280 464.128998
29 0 1 8.217717 6.530360 464.807007
30 0 1 7.599178 6.166670 465.552979
31 0 1 6.903690 6.083080 466.266998
32 0 1 6.221790 5.845380 466.963989
33 0 1 5.926150 5.714290 467.845001
34 0 1 5.648020 5.829470 468.781982
35 0 1 5.676530 5.845700 469.789978
36 0 1 5.616990 5.542380 470.687012
37 0 1 5.264350 5.495860 471.666992
38 0 1 5.162520 5.617970 472.653015
39 0 1 5.275750 5.741790 473.588989
40 0 1 5.411060 5.883480 474.453003
41 0 1 5.774160 6.346120 475.158997
42 0 1 6.089600 6.678100 476.044983
43 0 1 6.399070 6.778520 476.890015
44 0 1 6.808100 7.024870 477.742004
45 0 1 7.280268 7.196616 478.546997
46 0 1 7.523877 7.445722 479.498993
47 0 1 7.648153 7.434897 480.494995
48 0 1 7.439478 7.218964 481.471985
49 0 1 7.144929 6.856220 482.330017
50 0 1 6.997680 6.566320 483.203003
51 0 1 6.563160 6.473150 484.065979
52 0 1 6.164640 6.658150 484.966980
53 0 1 5.575940 6.850920 485.712006
54 0 1 5.096110 6.686230 486.500000
55 0 1 4.707800 6.615070 487.320984
56 0 1 4.485150 6.584300 488.257019
57 0 1 4.286510 6.656100 489.208008
58 0 1 4.187560 6.624760 490.139008
59 0 1 4.205820 6.491860 491.031006
60 0 1 4.224050 6.501810 491.932007
61 0 1 4.448580 6.536260 492.839996
62 0 1 4.399010 6.930310 493.760010
63 0 1 4.597070 7.390644 494.563995
64 0 1 4.868530 8.003089 495.276978
65 0 1 4.976400 8.326466 496.200989
66 0 1 5.197330 8.596016 497.062012
67 0 1 5.359900 9.085920 497.848999
68 0 1 5.185690 9.592530 498.621002
69 0 1 5.047330 9.651711 499.567993
70 0 1 5.152940 9.772010 500.583984
71 0 1 5.404840 10.038340 501.484009
72 0 1 5.571000 10.147870 502.386993
73 0 1 5.729390 10.432370 503.299988
74 0 1 5.795920 10.838170 504.194000
75 0 1 5.867240 10.683280 505.130981
76 0 1 6.037710 10.617460 506.063995
77 0 1 5.984590 10.596260 507.028992
78 0 1 6.105250 10.675100 507.997986
79 0 1 6.122560 10.728210 508.973999
80 0 1 6.111720 10.436470 509.903992
81 0 1 6.310530 10.239150 510.860992
82 0 1 6.573920 10.117760 511.794983
83 0 1 6.551980 10.235991 512.806030
84 0 1 6.216530 10.442350 513.684998
85 0 1 5.975720 10.429340 514.601990
86 0 1 5.492370 10.558701 515.463013
87 0 1 4.804360 10.697230 516.094971
88 0 1 4.248560 10.852480 516.869019
89 0 1 3.914610 11.055210 517.734985
90 0 1 3.444720 11.121759 518.559021
91 0 1 3.150420 11.009050 519.499023
92 0 1 2.817850 10.726010 520.289001
93 0 1 2.940340 10.259060 521.098022
94 0 1 2.685090 9.882510 521.976013
95 0 1 2.549820 9.346380 522.796997
96 0 1 2.123110 9.209510 523.669983
97 0 1 1.952820 9.127210 524.632996
98 0 1 1.701120 8.809616 525.535034
99 0 1 1.542380 8.565504 526.466003
100 0 1 1.501310 8.223151 527.312988
101 0 1 1.388540 7.861415 528.231018
102 0 1 1.240230 7.729652 529.136414
103 0 1 1.196040 7.470229 530.055420
104 0 1 1.327960 7.429380 531.062134
105 0 1 1.625290 7.606363 531.945068
106 0 1 1.906120 7.893472 532.812866
107 0 1 1.900700 8.141735 533.719910
108 0 1 2.395470 8.145342 534.490906
109 0 1 2.613240 8.400570 535.413513
110 0 1 2.683900 8.577713 536.332703
111 0 1 2.888210 8.884101 537.269409
112 0 1 3.083330 9.536560 537.988281
113 0 1 3.265140 10.007850 538.780518
114 0 1 3.609640 10.534090 539.513672
115 0 1 4.021750 11.029510 540.216125
116 0 1 4.367660 11.373740 541.042969
117 0 1 4.412520 11.346479 541.999512
118 0 1 4.439930 11.501340 542.923218
119 0 1 4.499120 11.605021 543.886719
120 0 1 4.747190 11.803120 544.810913
121 0 1 4.633790 11.962030 545.758423
122 0 1 4.799120 12.116370 546.772400
123 0 1 4.779090 12.127840 547.755676
124 0 1 4.916180 12.217780 548.673279
125 0 1 5.074090 12.348431 549.643005
126 0 1 5.523280 12.620240 550.423218
127 0 1 5.967740 12.764640 551.309326
128 0 1 6.043070 12.960660 552.246277
129 0 1 6.278530 13.360240 553.113281
130 0 1 6.354970 13.597031 554.026123
131 0 1 6.323450 13.748250 555.013672
132 0 1 6.661660 13.589331 555.948120
133 0 1 6.471960 13.578260 556.933594
134 0 1 6.246750 13.717239 557.905518
135 0 1 6.362760 13.717850 558.854370
136 0 1 6.341470 13.839090 559.787476
137 0 1 6.197400 13.799360 560.752380
138 0 1 6.163550 13.849080 561.775818
139 0 1 6.031570 13.640261 562.671204
140 0 1 6.171020 13.264550 563.566406
141 0 1 6.133750 13.073280 564.479797
142 0 1 6.192630 13.283300 565.419617
143 0 1 6.509340 13.796640 566.201416
144 0 1 6.542410 14.077030 567.137512
145 0 1 6.274730 14.276730 568.021912
146 0 1 5.908340 14.453660 568.902588
147 0 1 5.523980 14.348169 569.755798
148 0 1 5.338370 13.886110 570.551697
149 0 1 5.165200 13.322480 571.300720
150 0 1 5.331410 13.094350 572.204407
151 0 1 5.483240 12.933790 573.154175
152 0 1 5.536030 12.928080 574.125427
153 0 1 5.658920 12.910130 575.171204
154 0 1 6.002120 12.905490 576.067810
155 0 1 6.137650 12.825220 576.976685
156 0 1 6.500490 12.727510 577.943604
157 0 1 6.689680 12.385740 578.839172
158 0 1 6.780580 12.051020 579.716309
159 0 1 7.092068 11.568650 580.554993
160 0 1 7.486673 11.072520 581.278015
161 0 1 7.569030 10.556720 582.035583
162 0 1 7.688777 10.288820 582.934082
163 0 1 7.850883 10.138520 583.874512
164 0 1 7.631395 9.887880 584.852112
165 0 1 7.300494 9.697220 585.747986
166 0 1 7.238712 9.659430 586.739014
167 0 1 7.443974 9.678780 587.701477
168 0 1 7.760231 9.382970 588.547119
169 0 1 8.252858 8.931561 589.260620
170 0 1 8.803901 8.634670 590.029297
171 0 1 9.087840 8.125909 590.838318
172 0 1 9.236800 7.591933 591.629211
173 0 1 9.283450 6.795160 592.317322
174 0 1 9.630110 6.614040 593.187012
175 0 1 9.840970 5.961210 593.917969
176 0 1 9.963490 5.533300 594.777832
177 0 1 9.909920 4.905610 595.564880
178 0 1 9.925320 4.573020 596.504272
179 0 1 9.753120 4.274580 597.364990
180 0 1 9.620080 4.009490 598.263489
181 0 1 9.362400 3.716390 599.162476
182 0 1 9.122510 3.380040 600.127930
183 0 1 8.897507 3.106260 600.971680
184 0 1 8.611891 3.008870 601.924194
185 0 1 8.263885 2.953420 602.849731
186 0 1 7.821336 2.868070 603.686584
187 0 1 7.385065 2.878330 604.582214
188 0 1 6.933080 2.988240 605.461426
189 0 1 6.567490 3.361660 606.274170
190 0 1 6.226680 3.815830 607.070801
191 0 1 5.854450 4.165010 607.920288
192 0 1 5.625220 4.691030 608.651184
193 0 1 5.625000 5.316950 609.447205
194 0 1 5.979090 5.792980 610.157776
195 0 1 6.505090 6.323740 610.852905
196 0 1 7.108968 6.941730 611.456482
197 0 1 7.592932 7.414031 612.128113
198 0 1 8.030144 8.034896 612.703674
199 0 1 8.435558 8.776353 613.250000
200 0 1 9.052580 9.235991 613.762024
201 0 1 9.628460 9.759540 614.297424
202 0 1 10.131160 10.300700 615.000977
203 0 1 10.402750 10.738400 615.792786
204 0 1 10.376190 11.001400 616.744995
205 0 1 9.916460 11.185830 617.689880
206 0 1 9.583430 11.373380 618.578369
207 0 1 9.529980 11.433590 619.537476
208 0 1 9.269300 11.756410 620.390076
209 0 1 8.993590 12.026490 621.291870
210 0 1 8.651254 12.261050 622.168274
211 0 1 8.449937 12.568991 623.037964
212 0 1 8.375118 12.588980 623.953491
213 0 1 8.416497 12.750669 624.918884
214 0 1 8.633029 12.712360 625.895996
215 0 1 8.969823 12.711000 626.833740
216 0 1 9.094590 12.741870 627.904175
217 0 1 9.285120 12.625620 628.826416
218 0 1 9.529420 12.426050 629.760620
219 0 1 9.559800 12.246190 630.802979
220 0 1 9.580150 12.117490 631.774109
221 0 1 9.571340 11.752250 632.682739
222 0 1 9.487020 11.773590 633.642029
223 0 1 9.528570 11.869010 634.679993
224 0 1 9.636990 11.632640 635.582153
225 0 1 9.657270 11.540100 636.484741
226 0 1 9.970730 11.610070 637.378723
227 0 1 10.026320 11.425730 638.343689
228 0 1 10.052800 11.188630 639.252014
229 0 1 10.380440 10.864190 640.110291
230 0 1 10.724660 10.669900 640.985474
231 0 1 10.922680 10.642960 641.929504
232 0 1 11.083150 10.562460 642.924927
233 0 1 10.993720 10.358070 643.862305
234 0 1 10.730050 9.912360 644.746399
235 0 1 10.409760 9.613890 645.653687
236 0 1 10.100460 9.314200 646.583313
237 0 1 9.740840 8.731813 647.332092
238 0 1 9.517950 8.236621 648.088623
239 0 1 9.109580 8.021246 648.970703
240 0 1 9.078530 7.894378 649.891174
241 0 1 8.886724 7.836574 650.837219
242 0 1 8.982124 8.134703 651.747009
243 0 1 8.884244 8.020704 652.686096
244 0 1 8.459463 7.836654 653.536621
245 0 1 8.355948 8.072319 654.423584
246 0 1 8.310768 8.230698 655.361816
247 0 1 8.492708 8.323777 656.263184
248 0 1 8.709715 8.504098 657.259583
249 0 1 8.567760 8.924121 658.072388
250 0 1 8.602846 9.525980 659.009399
251 0 1 8.478085 9.997869 659.849304
252 0 1 8.449017 10.067039 660.825073
253 0 1 8.415758 10.104270 661.847290
254 0 1 8.421692 10.057940 662.788513
255 0 1 8.390773 9.799720 663.722778
256 0 1 8.121918 9.707880 664.669373
257 0 1 8.080571 9.968370 665.614014
258 0 1 8.107290 10.240770 666.574890
259 0 1 8.658996 10.510469 667.332581
260 0 1 8.969132 10.947940 668.213501
261 0 1 9.262340 11.419070 668.989014
262 0 1 9.316500 11.971490 669.798889
263 0 1 9.546940 12.541389 670.571228
264 0 1 9.550420 13.088690 671.437927
265 0 1 9.927370 13.170750 672.347473
266 0 1 10.202440 13.273530 673.282288
267 0 1 10.767450 13.083230 673.998413
268 0 1 11.251540 12.833740 674.884094
269 0 1 11.450890 12.517839 675.811096
270 0 1 11.913230 12.354370 676.719971
271 0 1 12.366230 12.057720 677.492310
272 0 1 12.550830 11.511869 678.253174
273 0 1 12.739981 10.984890 679.052795
274 0 1 12.538771 10.543870 679.938904
275 0 1 12.186480 10.466400 680.768127
276 0 1 12.034220 10.181430 681.746216
277 0 1 11.964990 10.118280 682.756775
278 0 1 12.064330 10.147360 683.674194
279 0 1 12.211810 9.996770 684.656128
280 0 1 12.738950 9.892080 685.557678
281 0 1 12.977890 10.039761 686.471680
282 0 1 13.097031 10.269530 687.370422
283 0 1 13.222460 10.658319 688.275513
284 0 1 13.253640 10.798910 689.288513
285 0 1 13.123660 10.861080 690.249512
286 0 1 12.961460 10.895360 691.281006
287 0 1 12.504351 10.923180 692.174805
288 0 1 12.285570 11.005620 693.120911
289 0 1 12.166730 10.946680 694.094299
290 0 1 12.197269 10.740340 695.028503
291 0 1 12.577430 10.597350 695.951172
292 0 1 12.972919 10.707400 696.812317
293 0 1 13.517830 10.487440 697.531128
294 0 1 13.946640 10.273930 698.374390
295 0 1 14.136869 10.194780 699.286316
296 0 1 14.059990 10.223619 700.232605
297 0 1 14.172800 10.100780 701.149719
298 0 1 14.359790 10.041850 702.124634
299 0 1 14.336870 9.572140 702.994019
300 0 1 14.250259 8.866559 703.661682
301 0 1 14.059790 8.103922 704.343384
302 0 1 13.954470 7.607517 705.200317
303 0 1 13.926020 7.066399 706.003723
304 0 1 13.637270 6.689280 706.903931
305 0 1 13.104950 6.545100 707.638184
306 0 1 12.403210 6.394630 708.382019
307 0 1 11.907190 6.749960 709.184692
308 0 1 11.780910 7.228161 709.996582
309 0 1 11.826260 7.819224 710.764404
310 0 1 12.118580 8.388861 711.530273
311 0 1 12.404320 9.007220 712.194397
312 0 1 12.570860 9.484230 713.025818
313 0 1 12.825120 9.794500 713.884399
314 0 1 13.226360 10.122190 714.763123
315 0 1 13.394970 10.128180 715.648987
316 0 1 13.479100 10.315920 716.622925
317 0 1 13.218560 10.195760 717.566711
318 0 1 12.988211 10.104600 718.488281
319 0 1 12.603600 9.782790 719.266785
320 0 1 12.213200 9.394000 720.046021
321 0 1 12.224300 9.175690 720.982910
322 0 1 11.899500 8.840998 721.898193
323 0 1 11.527610 8.588550 722.762695
324 0 1 10.955709 8.434406 723.520325
325 0 1 10.383520 8.416020 724.411926
326 0 1 9.828310 8.428121 725.169617
327 0 1 9.377240 8.211357 726.028320
328 0 1 8.960374 8.206060 726.949219
329 0 1 8.336437 8.196148 727.630371
330 0 1 7.782412 8.107179 728.403503
331 0 1 7.193694 8.039771 729.101990
332 0 1 6.571450 8.232092 729.747986
333 0 1 6.221160 8.449502 730.666016
334 0 1 5.714340 8.583650 731.453003
335 0 1 5.264190 8.874240 732.250000
336 0 1 4.914630 9.153560 733.160034
337 0 1 4.827800 9.449400 734.205017
338 0 1 4.835410 9.763240 735.153992
339 0 1 5.026030 9.934720 736.046021
340 0 1 5.297300 10.279520 736.856995
341 0 1 5.461480 10.104640 737.785034
342 0 1 5.947650 9.720720 738.515015
343 0 1 6.330610 9.316970 739.273987
344 0 1 6.468680 9.036750 740.193970
345 0 1 6.624470 8.816045 741.171021
346 0 1 7.001666 8.812280 742.112000
347 0 1 7.099189 8.879827 743.054016
348 0 1 6.986020 8.993576 744.046021
349 0 1 6.722750 8.953176 744.937012
350 0 1 6.580050 8.707557 745.895996
351 0 1 6.658800 8.715919 746.856018
352 0 1 6.940180 8.529254 747.759033
353 0 1 7.247103 8.170414 748.648010
354 0 1 7.503506 7.747473 749.505981
355 0 1 7.766022 7.454882 750.369019
356 0 1 8.030903 7.031813 751.179016
357 0 1 8.036457 6.680640 752.080017
358 0 1 7.784842 6.047320 752.814026
359 0 1 7.460117 5.504780 753.572021
360 0 1 7.372556 4.827670 754.309021
361 0 1 7.136822 4.184110 754.953003
362 0 1 6.474980 3.674810 755.542969
363 0 1 5.652980 3.387490 755.945984
364 0 1 5.019390 3.463410 756.629028
365 0 1 4.404610 3.488610 757.398010
366 0 1 3.850280 3.658680 758.186035
367 0 1 3.332080 3.865990 758.968018
368 0 1 3.069440 4.230720 759.804016
369 0 1 2.890980 4.560120 760.719971
370 0 1 2.687490 4.626340 761.700012
371 0 1 2.392720 4.651140 762.583984
372 0 1 2.067000 4.983660 763.395020
373 0 1 1.699240 5.284320 764.252014
374 0 1 1.616820 5.664150 765.136963
375 0 1 1.701790 6.023970 765.945007
376 0 1 1.815420 6.430040 766.854004
377 0 1 2.106740 6.733360 767.669006
378 0 1 2.452330 7.144568 768.421021
379 0 1 2.673050 7.370116 769.349976
380 0 1 2.807100 8.006978 770.140015
381 0 1 2.851170 8.656873 770.874023
382 0 1 2.856330 9.158120 771.744019
383 0 1 2.656010 9.402110 772.671021
384 0 1 2.594510 9.642110 773.634033
385 0 1 2.608050 9.487780 774.604004
386 0 1 2.651120 9.074010 775.507019
387 0 1 2.608630 8.658123 776.380981
388 0 1 2.693050 8.121073 777.158997
389 0 1 2.691860 7.781191 778.087036
390 0 1 2.900340 7.573350 779.080994
391 0 1 3.226020 7.337690 780.056030
392 0 1 3.613300 7.058593 780.851013
393 0 1 3.939420 6.909800 781.705994
394 0 1 4.438540 6.708520 782.479004
395 0 1 4.967950 6.293330 783.205017
396 0 1 5.526820 5.957880 783.900024
397 0 1 6.156450 5.803240 784.588013
398 0 1 6.891880 5.596270 785.257019
399 0 1 7.487757 5.381550 785.966980
400 0 1 8.234337 5.182150 786.636963
401 0 1 8.797888 5.098730 787.414001
402 0 1 9.361550 5.137300 788.249023
403 0 1 9.735630 5.360430 789.106995
404 0 1 10.307710 5.808140 789.765991
405 0 1 10.836870 6.282380 790.455017
406 0 1 11.351300 6.642060 791.150024
407 0 1 11.745980 6.908450 792.010986
408 0 1 11.734740 7.229784 792.945984
409 0 1 11.928490 7.225435 793.896973
410 0 1 12.060260 7.485532 794.906982
411 0 1 12.263990 7.833042 795.775024
412 0 1 12.533051 8.571722 796.338013
413 0 1 12.663879 9.062730 797.141968
414 0 1 13.042020 9.485980 797.903015
415 0 1 13.303900 9.743020 798.771973
416 0 1 13.457880 9.713690 799.721985
417 0 1 13.567141 9.901880 800.661987
418 0 1 13.387510 10.306070 801.528015
419 0 1 13.302640 10.590110 802.440002
420 0 1 13.267500 11.023620 803.403992
421 0 1 13.192921 11.309690 804.335022
422 0 1 13.277980 11.414310 805.304016
423 0 1 13.194070 11.673120 806.263000
424 0 1 12.868111 12.040530 807.104004
425 0 1 12.325991 12.362040 807.780029
426 0 1 11.674380 12.537160 808.440979
427 0 1 11.334020 12.794001 809.291016
428 0 1 10.857750 12.755210 810.156982
429 0 1 10.479210 12.849660 811.113037
430 0 1 10.308590 12.689790 812.044006
431 0 1 9.975400 12.511789 813.002991
432 0 1 9.672640 12.508181 813.919983
433 0 1 9.379920 12.634630 814.820007
434 0 1 9.082470 12.757299 815.721985
435 0 1 8.507293 12.770000 816.578979
436 0 1 8.068790 12.788170 817.367004
437 0 1 7.393155 12.850070 818.125000
438 0 1 6.758890 12.394510 818.609009
439 0 1 6.272950 12.076620 819.363037
440 0 1 5.770010 11.773911 820.177002
441 0 1 5.370520 11.394250 821.000000
442 0 1 5.029410 11.178790 821.839966
443 0 1 4.898470 10.537590 822.632019
444 0 1 4.389330 10.079041 823.330994
445 0 1 4.475660 9.521400 824.072998
446 0 1 4.658760 8.911197 824.823975
447 0 1 4.709530 8.500552 825.698975
448 0 1 4.726160 8.367489 826.705994
449 0 1 4.546170 8.682902 827.620972
450 0 1 4.531680 8.841943 828.539978
451 0 1 4.525840 9.226330 829.455017
452 0 1 4.312910 9.290550 830.396973
453 0 1 4.435350 9.336430 831.351013
454 0 1 4.612650 9.326240 832.273010
455 0 1 4.587590 9.601610 833.166016
456 0 1 4.659110 10.273020 833.879028
457 0 1 5.109170 10.809090 834.622009
458 0 1 5.752520 11.097680 835.264038
459 0 1 6.574870 11.501270 835.507019
460 0 1 7.450363 11.962640 835.568970
461 0 1 8.346585 12.142799 835.593018
462 0 1 9.266350 12.108990 835.085022
463 0 1 10.088870 12.272810 834.674988
464 0 1 10.846870 12.508240 834.007019
465 0 1 11.678220 12.780220 833.658020
466 0 1 12.119801 12.904200 832.721985
467 0 1 12.167490 12.637810 831.755005
468 0 1 12.149981 12.329010 830.820984
469 0 1 11.978030 12.166901 829.869019
470 0 1 11.557800 12.042530 828.968018
471 0 1 11.041451 11.865540 828.136963
472 0 1 10.375470 11.830760 827.380981
473 0 1 9.766300 12.099720 826.695984
474 0 1 9.168030 12.248640 825.921021
475 0 1 8.711088 12.644930 825.125977
476 0 1 8.586790 12.735010 824.171997
477 0 1 8.478113 12.803619 823.208008
478 0 1 8.724938 12.926570 822.266968
479 0 1 9.059430 12.972950 821.367004
480 0 1 9.465060 12.926189 820.526978
481 0 1 9.782570 12.667410 819.629028
482 0 1 9.929860 12.568740 818.651001
483 0 1 10.025830 12.288600 817.755005
484 0 1 10.222460 11.824700 816.984009
485 0 1 10.307510 11.220510 816.265991
486 0 1 10.514220 10.754470 815.437988
487 0 1 10.709311 10.185830 814.661987
488 0 1 11.144070 9.499630 813.960022
489 0 1 11.251530 8.740971 813.453003
490 0 1 11.341490 7.948114 812.851990
491 0 1 11.584690 7.285992 812.187988
492 0 1 11.880960 7.080395 811.341003
493 0 1 12.241320 7.297138 810.481018
494 0 1 12.384960 7.801839 809.648987
495 0 1 12.708580 8.311689 808.817017
496 0 1 12.601100 8.653790 807.910034
497 0 1 12.320230 8.640086 807.041016
498 0 1 11.789780 8.519121 806.177002
499 0 1 11.267970 8.103139 805.377014
500 0 1 10.797520 7.609343 804.721008
501 0 1 10.310490 6.925450 804.184021
502 0 1 9.641240 6.246290 804.013000
503 0 1 8.883709 5.683580 803.962036
504 0 1 8.088943 5.326230 803.588989
505 0 1 7.460967 4.804990 803.028015
506 0 1 7.266263 4.215920 802.252014
507 0 1 7.210557 3.865280 801.343018
508 0 1 7.068040 3.572640 800.398010
509 0 1 6.783350 3.615440 799.471008
510 0 1 6.327220 3.794270 798.582031
511 0 1 5.916690 3.861720 797.739990
512 0 1 5.560860 3.973930 796.870972
513 0 1 5.281420 4.088800 795.921997
514 0 1 5.040380 4.195680 795.020020
515 0 1 4.821010 4.687860 794.223022
516 0 1 4.863550 5.363990 793.487000
517 0 1 4.987980 5.853280 792.684998
518 0 1 5.121620 6.242450 791.864014
519 0 1 4.842750 6.569190 791.026001
520 0 1 4.533520 6.722070 790.119995
521 0 1 4.458900 7.160394 789.247986
522 0 1 4.638280 7.812455 788.531982
523 0 1 4.567410 8.550451 787.841003
524 0 1 4.319990 9.290030 787.202026
525 0 1 4.361060 9.964800 786.515015
526 0 1 4.611850 10.552310 785.705017
527 0 1 4.811270 11.096260 784.957031
528 0 1 5.242750 11.304860 784.156006
529 0 1 5.669270 11.203810 783.299011
530 0 1 6.003130 11.060600 782.401978
531 0 1 6.416670 10.926110 781.546997
532 0 1 6.629660 10.395390 780.714966
533 0 1 6.838130 10.332170 779.759033
534 0 1 6.739970 10.239930 778.827026
535 0 1 6.780360 9.965530 777.924011
536 0 1 6.700430 9.576530 777.049988
537 0 1 6.716400 9.262860 776.195007
538 0 1 6.954110 9.183910 775.231995
539 0 1 6.841740 8.736462 774.374023
540 0 1 6.716730 8.147479 773.601990
541 0 1 6.883530 7.696724 772.797974
542 0 1 7.231990 7.284640 771.877991
543 0 1 7.419419 6.661480 771.083984
544 0 1 7.517745 6.012550 770.434021
545 0 1 7.670478 5.482870 769.619995
546 0 1 7.911124 5.142390 768.768005
547 0 1 8.116049 4.778900 767.859985
548 0 1 8.299507 4.548130 766.979004
549 0 1 8.377391 4.787660 766.020020
550 0 1 8.437367 5.005460 765.101990
551 0 1 8.294064 4.829190 764.143982
552 0 1 8.354761 4.921150 763.179993
553 0 1 8.509852 4.981830 762.250977
554 0 1 8.704692 5.009590 761.335999
555 0 1 8.724312 5.056190 760.354980
556 0 1 9.027990 5.216450 759.455017
557 0 1 9.289010 5.245530 758.533997
558 0 1 9.734230 5.328480 757.705017
559 0 1 10.008710 5.579260 756.809021
560 0 1 10.461130 5.578590 755.945007
561 0 1 10.844100 5.271900 755.167969
562 0 1 11.232870 5.013840 754.354980
563 0 1 11.399651 5.031710 753.315002
564 0 1 11.524850 5.061600 752.302002
565 0 1 11.542770 4.985530 751.361023
566 0 1 11.055490 4.966160 750.504028
567 0 1 10.513440 4.847160 749.697998
568 0 1 9.924210 4.904510 748.911011
569 0 1 9.223480 5.038560 748.270996
570 0 1 8.523299 5.000270 747.685974
571 0 1 7.603436 4.776440 747.460999
572 0 1 6.705540 4.667760 747.140015
573 0 1 5.903560 4.563570 746.586975
574 0 1 5.106710 4.576310 745.950012
575 0 1 4.540940 4.596950 745.172974
576 0 1 4.267730 4.608660 744.237976
577 0 1 3.950480 4.634280 743.309998
578 0 1 3.705650 4.607120 742.302002
579 0 1 3.390240 4.455570 741.416992
580 0 1 3.435500 4.158480 740.518982
581 0 1 3.492020 3.736750 739.612976
582 0 1 3.920410 3.434250 738.858032
583 0 1 4.243230 3.264420 737.934021
584 0 1 4.318460 3.043460 737.002991
585 0 1 4.719960 2.978030 736.098999
586 0 1 4.973070 2.751910 735.213013
587 0 1 5.144980 2.707650 734.268005
588 0 1 5.162640 2.843200 733.358032
589 0 1 5.221950 2.992000 732.367004
590 0 1 4.860700 3.121040 731.516968
591 0 1 4.771810 3.211370 730.556030
592 0 1 4.822030 3.628960 729.687012
593 0 1 5.022020 3.967650 728.812988
594 0 1 5.226150 3.946470 727.870728
595 0 1 5.535310 4.012420 726.959290
596 0 1 5.834170 3.994230 726.047119
597 0 1 6.065010 4.300890 725.224426
598 0 1 6.282950 4.443480 724.281311
599 0 1 6.177290 4.440710 723.293274
600 0 1 5.996240 4.408470 722.353210
601 0 1 5.679520 4.364000 721.432617
602 0 1 5.624110 4.443600 720.447327
603 0 1 5.949060 4.577930 719.567810
604 0 1 6.370320 4.738700 718.695190
605 0 1 6.700890 4.958940 717.761292
606 0 1 6.930100 5.045090 716.810120
607 0 1 6.923400 5.119840 715.862427
608 0 1 7.108081 5.274460 714.847595
609 0 1 7.350624 5.699720 714.063110
610 0 1 7.711729 6.158300 713.328308
611 0 1 8.019100 6.702190 712.611206
612 0 1 8.359661 7.017116 711.732117
613 0 1 8.499287 7.503863 710.902466
614 0 1 8.771509 7.950480 710.086792
615 0 1 8.815768 7.916751 709.127197
616 0 1 8.990785 7.827788 708.142578
617 0 1 8.917273 7.930205 707.161682
618 0 1 8.794920 8.037937 706.213318
619 0 1 8.758775 8.095602 705.166321
620 0 1 8.614742 8.348675 704.270325
621 0 1 8.180935 8.402886 703.400818
622 0 1 7.806136 8.223850 702.529724
623 0 1 7.295911 8.123734 701.773804
624 0 1 6.815100 8.003732 700.987976
625 0 1 6.106200 8.063435 700.233398
626 0 1 5.531420 8.036148 699.480774
627 0 1 5.188740 7.880906 698.623413
628 0 1 4.992870 7.731852 697.685913
629 0 1 4.930770 7.925382 696.781372
630 0 1 5.074990 8.340082 695.930176
631 0 1 5.051480 9.034560 695.251099
632 0 1 5.423620 9.832970 694.860779
633 0 1 5.538080 10.445520 694.153809
634 0 1 5.495180 10.926050 693.266479
635 0 1 5.212670 11.556030 692.476685
636 0 1 4.794290 11.907690 691.579285
637 0 1 4.554250 12.047000 690.634277
638 0 1 4.554450 12.057480 689.707275
639 0 1 4.280320 12.024099 688.813721
640 0 1 3.736290 11.663660 688.078796
641 0 1 3.183460 11.255010 687.417419
642 0 1 2.607790 10.820860 686.679016
643 0 1 2.382270 10.427770 685.827087
644 0 1 2.434210 9.925210 684.999268
645 0 1 2.299460 9.533100 684.090515
646 0 1 2.308520 9.070030 683.175720
647 0 1 2.277640 8.869269 682.205383
648 0 1 2.138040 8.651950 681.288696
649 0 1 2.176310 8.456544 680.320801
650 0 1 2.242020 8.322386 679.351624
651 0 1 2.360390 8.190919 678.406372
652 0 1 2.622370 8.238061 677.426086
653 0 1 3.350700 8.223955 676.642700
654 0 1 3.957490 8.435763 675.903931
655 0 1 4.558350 8.587969 675.139282
656 0 1 5.282430 8.438913 674.490906
657 0 1 5.992670 8.003690 674.087769
658 0 1 6.655260 7.529991 673.579468
659 0 1 7.361038 7.150848 673.075012
660 0 1 8.224112 6.903080 672.540283
661 0 1 9.117880 6.961790 672.101379
662 0 1 9.819600 7.312374 671.594971
663 0 1 10.240180 7.718790 670.811890
664 0 1 10.635890 8.437767 670.315125
665 0 1 10.955400 8.836662 669.470703
666 0 1 11.296120 9.287630 668.667480
667 0 1 11.435200 9.380510 667.666321
668 0 1 11.439310 9.292650 666.773376
669 0 1 11.496550 9.127960 665.783997
670 0 1 11.234819 8.904305 664.905212
671 0 1 10.758620 8.604964 664.131409
672 0 1 10.449220 8.213293 663.332275
673 0 1 10.346650 7.684327 662.499878
674 0 1 10.095970 7.203013 661.696228
675 0 1 10.199400 6.691520 660.825317
676 0 1 10.479450 6.364040 659.942322
677 0 1 10.638720 5.914180 659.083618
678 0 1 10.681480 5.408260 658.263000
679 0 1 11.047740 4.781240 657.600891
680 0 1 11.529000 4.535900 656.870972
681 0 1 12.280130 4.309610 656.318176
682 0 1 12.783250 3.956370 655.598389
683 0 1 13.026000 3.732980 654.715210
684 0 1 13.429340 3.808200 653.856506
685 0 1 13.554171 3.982110 652.923401
686 0 1 13.601749 4.173950 652.007019
687 0 1 13.837330 4.629780 651.212402
688 0 1 13.898300 5.207980 650.464111
689 0 1 14.010210 5.908100 649.817810
690 0 1 13.853450 6.823420 649.477478
691 0 1 13.683849 7.698507 649.073608
692 0 1 13.689080 8.390136 648.386780
693 0 1 13.699080 8.987386 647.627319
694 0 1 13.545640 9.365280 646.722473
695 0 1 13.612960 9.573980 645.800903
696 0 1 13.432859 9.625570 644.874573
697 0 1 12.939740 9.670230 644.069702
698 0 1 12.722691 9.771020 643.149475
699 0 1 12.602779 9.779080 642.218811
700 0 1 12.600750 9.786110 641.246887
701 0 1 12.224051 9.762920 640.343384
702 0 1 11.687480 9.662210 639.543274
703 0 1 11.095850 9.574300 638.807373
704 0 1 10.526670 9.605290 638.043762
705 0 1 9.902950 9.553500 637.245361
706 0 1 9.341460 9.526630 636.503967
707 0 1 8.564368 9.386909 635.930786
708 0 1 7.890492 9.437810 635.230896
709 0 1 7.223374 9.286710 634.559998
710 0 1 6.494790 9.331740 633.930969
711 0 1 5.878750 9.359840 633.198120
712 0 1 5.226450 9.415520 632.412048
713 0 1 4.579400 9.346690 631.590271
714 0 1 3.828540 9.211590 631.064941
715 0 1 3.201170 8.961189 630.356628
716 0 1 2.646490 8.584231 629.600464
717 0 1 2.252300 8.330684 628.763428
718 0 1 1.844580 7.826143 628.085205
719 0 1 1.448220 7.356646 627.248901
720 0 1 1.170590 7.426400 626.296448
721 0 1 1.199190 7.385925 625.367676
722 0 1 1.237050 7.085228 624.429565
723 0 1 1.467770 7.124605 623.393494
724 0 1 1.580830 7.360255 622.478333
725 0 1 2.074730 7.420320 621.671204
726 0 1 2.709290 7.252967 620.915344
727 0 1 3.367990 7.097900 620.191895
728 0 1 3.913610 6.946840 619.411316
729 0 1 4.298320 6.578470 618.486206
730 0 1 4.392520 6.382020 617.572205
731 0 1 4.264480 6.332160 616.605774
732 0 1 3.914840 6.226820 615.644104
733 0 1 3.637860 6.146280 614.741577
734 0 1 3.719530 6.316120 613.700378
735 0 1 3.382590 6.495350 612.742920
736 0 1 3.295260 6.581360 611.783081
737 0 1 3.467990 6.725560 610.840698
738 0 1 3.955830 6.722940 610.011902
739 0 1 4.216010 6.695990 609.055115
740 0 1 4.467160 6.661240 608.166199
741 0 1 4.499960 6.795060 607.204529
742 0 1 4.532010 6.825350 606.315491
743 0 1 4.405020 6.808210 605.403931
744 0 1 4.172660 6.715660 604.512024
745 0 1 3.825140 6.659220 603.683228
746 0 1 3.650830 6.381650 602.804810
747 0 1 3.476940 6.294860 601.823914
748 0 1 3.181720 6.097580 600.865112
749 0 1 3.059730 5.811080 599.889404
750 0 1 3.220700 5.617040 598.946899
751 0 1 3.169420 5.455450 597.999573
752 0 1 3.259970 5.249020 597.059387
753 0 1 3.343260 5.069980 596.111511
754 0 1 3.771600 5.075200 595.242676
755 0 1 4.105010 4.870590 594.274109
756 0 1 4.595360 4.900370 593.441589
757 0 1 5.049790 5.128670 592.479004
758 0 1 5.318980 5.692380 591.697632
759 0 1 5.414080 6.481610 591.174316
760 0 1 5.132970 7.053445 590.444397
761 0 1 4.817950 7.847722 589.860901
762 0 1 4.672550 8.683266 589.445007
763 0 1 4.439760 9.476270 588.980774
764 0 1 4.250690 10.306870 588.506714
765 0 1 4.074750 11.005920 587.899109
766 0 1 4.112650 11.712780 587.210815
767 0 1 4.256450 12.096120 586.304626
768 0 1 4.321140 12.107040 585.333313
769 0 1 4.595670 12.043631 584.424011
770 0 1 4.847650 11.750320 583.540283
771 0 1 5.120770 11.421420 582.703308
772 0 1 5.415270 11.069680 581.897278
773 0 1 5.649370 10.832790 581.007507
774 0 1 5.709620 10.492150 580.097717
775 0 1 6.006680 10.226950 579.182007
776 0 1 6.279530 10.221960 578.266418
777 0 1 6.425740 10.210660 577.334473
778 0 1 6.267410 10.195200 576.296082
779 0 1 5.912140 10.117940 575.415771
780 0 1 5.672510 9.677680 574.613403
781 0 1 5.492760 9.376690 573.704102
782 0 1 5.372290 9.273810 572.774292
783 0 1 5.421120 9.489750 571.784607
784 0 1 5.496610 9.821710 570.867615
785 0 1 5.329810 10.194480 569.961426
786 0 1 5.061230 10.405270 569.118225
787 0 1 5.013090 10.504150 568.122192
788 0 1 4.977200 10.674690 567.170105
789 0 1 5.051460 10.354770 566.200684
790 0 1 4.925280 9.899360 565.333130