LAMMPS data file via MDAnalysis

        1000  atoms
        1000  bonds
        1000  angles
           0  dihedrals
           0  impropers

           1  atom types
           1  bond types
           1  angle types
           0  dihedral types
           0  improper types

0.000000 16.000000 xlo xhi
0.000000 16.000000 ylo yhi
0.000000 1257.000000 zlo zhi


Masses

1 1.000000

Atoms

1 0 1 5.769450 11.860260 440.104004
2 0 1 5.900250 12.067511 441.048004
3 0 1 6.171000 12.251720 442.002014
4 0 1 6.035300 12.574940 442.882019
5 0 1 5.989960 12.806070 443.859009
6 0 1 6.092600 12.954081 444.819000
7 0 1 6.267440 12.952010 445.721008
8 0 1 6.130250 12.840670 446.681000
9 0 1 5.850130 12.557370 447.539978
10 0 1 5.948390 12.356410 448.505005
11 0 1 6.166000 12.135799 449.440002
12 0 1 6.168290 11.750230 450.339996
13 0 1 5.962780 11.217070 451.138000
14 0 1 5.958300 10.405050 451.669983
15 0 1 6.140310 9.628790 452.251007
16 0 1 6.413860 8.901728 452.875000
17 0 1 6.657370 8.426946 453.705017
18 0 1 6.976700 7.816971 454.442017
19 0 1 7.032547 7.437443 455.265015
20 0 1 7.037649 7.011881 456.104980
21 0 1 6.970720 6.410470 456.864990
22 0 1 6.886160 5.751810 457.549011
23 0 1 6.639970 5.214140 458.283020
24 0 1 6.601920 4.732240 459.126007
25 0 1 6.668300 4.170660 459.890015
26 0 1 6.705870 3.681800 460.751007
27 0 1 6.824710 3.267070 461.608002
28 0 1 6.953500 2.559110 462.213989
29 0 1 7.393649 2.193200 462.994995
30 0 1 7.725135 1.813590 463.796021
31 0 1 7.874171 1.582580 464.737000
32 0 1 7.830100 1.677880 465.699005
33 0 1 7.800758 1.816620 466.703003
34 0 1 8.003057 1.953930 467.653015
35 0 1 8.190187 2.025620 468.598999
36 0 1 8.439788 1.959890 469.520996
37 0 1 8.952033 2.071440 470.306000
38 0 1 9.067150 2.114360 471.234009
39 0 1 9.187160 2.393090 472.148010
40 0 1 9.175140 2.282290 473.127014
41 0 1 9.033940 2.294050 474.096008
42 0 1 8.856113 2.113600 475.080994
43 0 1 8.533436 2.059110 475.989014
44 0 1 8.439559 1.926820 476.937012
45 0 1 8.562800 2.049740 477.851990
46 0 1 8.779546 2.184910 478.835022
47 0 1 8.882888 2.440050 479.768005
48 0 1 8.998624 2.625740 480.708984
49 0 1 8.983079 3.105010 481.548004
50 0 1 9.099940 3.396780 482.473022
51 0 1 9.376000 3.490340 483.416016
52 0 1 9.884100 3.488340 484.332001
53 0 1 10.203310 3.739830 485.156982
54 0 1 10.207109 4.046370 486.091003
55 0 1 10.092330 4.241250 487.028015
56 0 1 10.049580 4.021770 488.007996
57 0 1 10.079260 3.861290 488.968994
58 0 1 9.957960 3.717510 489.914001
59 0 1 10.119320 3.820120 490.807007
60 0 1 10.570460 3.964010 491.643005
61 0 1 10.640390 3.859110 492.574005
62 0 1 10.766610 3.730780 493.523987
63 0 1 10.798350 3.755850 494.520020
64 0 1 10.620180 3.923940 495.449005
65 0 1 10.496469 4.057400 496.411987
66 0 1 10.523500 4.080600 497.350006
67 0 1 10.416940 4.258860 498.281006
68 0 1 10.306910 4.570290 499.179993
69 0 1 10.054860 5.042320 500.022003
70 0 1 9.561540 5.321620 500.752014
71 0 1 9.191510 5.737830 501.528015
72 0 1 8.644835 6.475080 502.035004
73 0 1 8.155141 7.035476 502.661987
74 0 1 7.688388 7.546248 503.339996
75 0 1 7.396045 8.250872 503.937988
76 0 1 7.197450 8.945453 504.583008
77 0 1 7.017245 9.522990 505.390015
78 0 1 6.841610 9.938970 506.252991
79 0 1 6.666470 10.025220 507.148987
80 0 1 6.637100 10.095330 508.091003
81 0 1 6.223270 10.219980 508.988007
82 0 1 5.986690 10.361010 509.903992
83 0 1 5.620400 10.378460 510.751007
84 0 1 5.120310 10.389600 511.593994
85 0 1 4.700830 10.106380 512.447998
86 0 1 4.222110 9.821170 513.297974
87 0 1 3.829800 9.481200 514.049988
88 0 1 3.268440 9.493070 514.910034
89 0 1 2.972370 9.254430 515.832031
90 0 1 2.567710 9.217210 516.666016
91 0 1 2.216390 8.988046 517.622986
92 0 1 2.098610 8.750619 518.585022
93 0 1 1.791760 8.517327 519.520020
94 0 1 1.897020 8.534119 520.461975
95 0 1 2.249230 8.626957 521.359985
96 0 1 2.728010 8.644338 522.323975
97 0 1 2.930460 8.882378 523.219971
98 0 1 3.024060 9.097400 524.141968
99 0 1 2.995300 9.336070 525.089966
100 0 1 2.997810 9.477250 526.082031
101 0 1 2.819210 9.588240 526.994019
102 0 1 2.627910 9.676360 527.908997
103 0 1 2.498720 9.652830 528.950317
104 0 1 2.463960 9.808320 529.953308
105 0 1 2.284970 10.143920 530.828003
106 0 1 2.000470 10.257950 531.810120
107 0 1 1.908860 10.197599 532.759033
108 0 1 1.865160 10.157210 533.719299
109 0 1 1.886890 10.087660 534.689514
110 0 1 1.833820 9.746610 535.612427
111 0 1 1.719900 9.238560 536.469788
112 0 1 2.067820 8.784559 537.264771
113 0 1 2.549120 8.231598 537.911682
114 0 1 2.791840 7.958835 538.812988
115 0 1 2.925150 7.734102 539.720276
116 0 1 2.945640 7.566850 540.706299
117 0 1 3.338220 7.357754 541.594788
118 0 1 3.494230 6.949080 542.440125
119 0 1 3.699380 6.299770 543.138123
120 0 1 3.615020 5.615600 543.830505
121 0 1 3.391330 5.355760 544.717896
122 0 1 3.358900 5.044610 545.648682
123 0 1 3.786370 4.536460 546.348389
124 0 1 4.350940 3.946110 546.842773
125 0 1 4.728880 3.533550 547.650879
126 0 1 5.016920 3.354470 548.542480
127 0 1 5.369500 3.299840 549.492920
128 0 1 5.664810 3.678790 550.328003
129 0 1 5.946620 4.045100 551.182495
130 0 1 6.212050 4.263540 552.084412
131 0 1 6.576240 4.515350 552.946777
132 0 1 6.518730 4.673400 553.857666
133 0 1 6.441140 4.525220 554.785583
134 0 1 6.807520 4.430330 555.722900
135 0 1 7.203638 4.209350 556.621521
136 0 1 7.593116 4.118290 557.502808
137 0 1 8.005156 4.028810 558.310974
138 0 1 8.616465 4.259940 559.052917
139 0 1 8.989080 4.497480 559.986023
140 0 1 9.200780 4.743160 560.904785
141 0 1 9.315910 4.909820 561.877625
142 0 1 9.578940 5.343900 562.658508
143 0 1 10.125440 5.610660 563.434998
144 0 1 10.540440 5.786360 564.245972
145 0 1 10.889441 5.904630 565.176697
146 0 1 11.098590 6.073300 566.140991
147 0 1 11.180720 6.780870 566.747803
148 0 1 11.394530 7.442552 567.480225
149 0 1 11.524380 8.018151 568.282288
150 0 1 11.492010 8.673724 569.006104
151 0 1 11.158730 9.339870 569.610474
152 0 1 10.600180 9.898680 570.158020
153 0 1 10.060760 10.573570 570.602478
154 0 1 9.577870 11.179810 571.329224
155 0 1 9.086800 11.661700 571.945007
156 0 1 8.536740 12.033210 572.705627
157 0 1 7.734483 12.180090 573.135010
158 0 1 7.232944 12.082390 573.993713
159 0 1 7.002440 11.891390 574.880493
160 0 1 6.987070 11.925940 575.811523
161 0 1 7.170411 11.912750 576.720276
162 0 1 7.549128 11.888860 577.619324
163 0 1 8.089526 12.149020 578.355408
164 0 1 8.506682 12.280010 579.205322
165 0 1 8.572109 12.114059 580.122314
166 0 1 8.650247 11.723850 581.027527
167 0 1 8.935453 11.330050 581.887695
168 0 1 9.177430 11.010611 582.781677
169 0 1 9.344481 10.554230 583.638000
170 0 1 9.465110 9.902480 584.347107
171 0 1 9.419820 9.165820 585.080505
172 0 1 9.304320 8.553311 585.817810
173 0 1 8.896291 8.262108 586.591003
174 0 1 8.402156 7.763220 587.286194
175 0 1 7.910248 7.133858 587.868774
176 0 1 7.720823 6.506730 588.628296
177 0 1 7.590253 5.837710 589.307678
178 0 1 7.320712 5.146760 589.908020
179 0 1 6.718980 4.759050 590.567322
180 0 1 6.400930 4.731270 591.511902
181 0 1 6.131310 4.834110 592.476624
182 0 1 5.640140 4.980400 593.250916
183 0 1 5.232580 5.290550 594.067078
184 0 1 4.984770 5.323830 595.020020
185 0 1 4.571020 5.393300 595.888916
186 0 1 4.136590 5.508720 596.755920
187 0 1 3.727280 5.531160 597.644775
188 0 1 3.359240 5.607410 598.507996
189 0 1 3.083310 5.831860 599.458496
190 0 1 2.865740 6.341980 600.242615
191 0 1 2.773960 6.875120 601.009583
192 0 1 2.678150 7.601258 601.627991
193 0 1 2.792130 8.407961 602.285828
194 0 1 2.890620 8.976924 603.035278
195 0 1 3.302950 9.525460 603.620483
196 0 1 3.900760 9.806730 604.271301
197 0 1 4.571330 9.769450 605.018494
198 0 1 5.319000 9.886100 605.624023
199 0 1 6.040710 9.746550 606.265381
200 0 1 6.751120 9.404740 606.879883
201 0 1 7.298366 8.994862 607.528809
202 0 1 7.754444 8.445043 608.146606
203 0 1 8.300211 8.067967 608.875793
204 0 1 8.815806 7.572427 609.661011
205 0 1 8.729273 7.282181 610.544983
206 0 1 9.052170 7.404890 611.465088
207 0 1 9.381500 7.405316 612.430908
208 0 1 9.564820 7.648471 613.332581
209 0 1 9.865780 7.839638 614.166016
210 0 1 9.941720 8.264198 615.069885
211 0 1 10.018780 8.502683 616.051392
212 0 1 10.235590 8.750143 616.966980
213 0 1 10.553270 9.127900 617.898926
214 0 1 10.975680 9.725110 618.481689
215 0 1 11.471991 10.169889 619.170654
216 0 1 11.930550 10.497210 619.983582
217 0 1 12.276960 10.706800 620.884399
218 0 1 12.481920 10.693541 621.798218
219 0 1 12.605400 10.698669 622.724792
220 0 1 12.839849 10.625240 623.669250
221 0 1 13.100040 10.570990 624.669617
222 0 1 13.070670 10.396270 625.658508
223 0 1 13.100700 9.955770 626.477783
224 0 1 13.092810 9.409630 627.269958
225 0 1 13.467871 8.870409 628.070740
226 0 1 13.637230 8.366668 628.854431
227 0 1 13.581970 7.825054 629.621216
228 0 1 13.695060 7.363861 630.478271
229 0 1 13.756430 6.919380 631.345215
230 0 1 13.987870 6.590060 632.245483
231 0 1 14.164900 6.250800 633.200012
232 0 1 14.023240 6.007000 634.105957
233 0 1 13.900970 5.597610 634.967346
234 0 1 13.769910 5.332360 635.899902
235 0 1 13.453020 5.232260 636.847595
236 0 1 13.445539 5.103330 637.792542
237 0 1 13.670950 5.241080 638.686829
238 0 1 13.908620 5.539830 639.588196
239 0 1 13.890870 5.915680 640.485718
240 0 1 13.667200 6.229890 641.339111
241 0 1 13.459391 6.767130 642.201416
242 0 1 13.165640 7.215005 642.980896
243 0 1 12.973400 7.941908 643.644897
244 0 1 12.586800 8.640212 644.237610
245 0 1 12.108510 9.108070 644.971497
246 0 1 11.760710 9.742230 645.612427
247 0 1 11.342040 10.330339 646.304016
248 0 1 10.909270 10.937780 647.060913
249 0 1 10.380530 11.399370 647.729919
250 0 1 10.271540 11.751050 648.678711
251 0 1 10.113990 12.430810 649.352417
252 0 1 10.035030 12.784660 650.249023
253 0 1 10.376110 12.905701 651.160217
254 0 1 10.816100 12.833590 651.982910
255 0 1 11.266890 12.749980 652.850586
256 0 1 11.760160 12.613340 653.711121
257 0 1 11.975620 12.338290 654.603577
258 0 1 11.920880 11.920910 655.414978
259 0 1 11.896760 11.572330 656.308594
260 0 1 11.990430 11.060980 657.080811
261 0 1 11.945130 10.501830 657.803894
262 0 1 11.933570 10.202560 658.730591
263 0 1 11.714030 9.969740 659.664307
264 0 1 11.361680 9.920920 660.517395
265 0 1 11.054560 10.128360 661.437988
266 0 1 10.788150 10.236560 662.358582
267 0 1 10.673580 10.187340 663.294617
268 0 1 10.361910 10.389510 664.184204
269 0 1 10.540730 10.742210 665.083191
270 0 1 10.551360 11.089630 666.039307
271 0 1 10.654560 11.346770 666.955505
272 0 1 10.755301 11.492290 667.858582
273 0 1 10.834260 11.632830 668.768311
274 0 1 10.809150 11.511920 669.706482
275 0 1 10.792690 11.396100 670.687805
276 0 1 10.511350 11.346330 671.579773
277 0 1 10.585711 10.954610 672.476074
278 0 1 10.589380 10.402451 673.256714
279 0 1 10.591990 9.852430 674.017273
280 0 1 10.595860 9.465880 674.874512
281 0 1 10.437590 9.038640 675.713501
282 0 1 10.334949 8.331930 676.389099
283 0 1 10.379610 7.642268 677.132507
284 0 1 10.573470 7.080628 677.814514
285 0 1 10.603889 6.543570 678.667175
286 0 1 10.559000 6.317040 679.595703
287 0 1 10.576270 6.096090 680.582031
288 0 1 10.558180 5.792850 681.477783
289 0 1 10.420840 5.328380 682.381287
290 0 1 9.888730 5.163730 683.214722
291 0 1 9.663960 5.270430 684.211487
292 0 1 9.622800 5.448690 685.185303
293 0 1 9.717280 5.865210 685.989624
294 0 1 9.963840 6.419950 686.732300
295 0 1 10.249430 6.918420 687.473877
296 0 1 10.317300 7.690160 688.072693
297 0 1 10.316330 8.560041 688.530823
298 0 1 10.288020 9.411670 688.959900
299 0 1 10.157280 10.145070 689.525879
300 0 1 10.019860 10.778690 690.216309
301 0 1 9.947010 11.129310 691.122986
302 0 1 9.951860 11.236760 692.058411
303 0 1 9.997960 11.276490 693.015503
304 0 1 9.879350 11.251600 693.992432
305 0 1 9.698840 11.228710 694.901489
306 0 1 9.522320 11.179480 695.856995
307 0 1 9.222770 10.946220 696.733093
308 0 1 9.206710 10.615700 697.654785
309 0 1 9.198250 10.398220 698.629089
310 0 1 9.110650 9.944600 699.488098
311 0 1 8.987235 9.832650 700.405823
312 0 1 9.171240 9.820890 701.371277
313 0 1 9.430120 9.552670 702.329468
314 0 1 9.549650 9.388040 703.271484
315 0 1 9.881780 9.398840 704.169006
316 0 1 10.088130 9.226080 705.037598
317 0 1 10.361589 9.001670 705.907776
318 0 1 10.518110 8.838100 706.834229
319 0 1 10.618320 8.773040 707.833191
320 0 1 10.674950 8.613580 708.793213
321 0 1 10.699930 8.327368 709.641174
322 0 1 10.666670 8.059721 710.523315
323 0 1 10.724770 7.798721 711.456726
324 0 1 11.027349 7.957475 712.332031
325 0 1 10.886120 8.185148 713.218201
326 0 1 10.627140 8.562498 714.059021
327 0 1 10.558710 9.035450 714.870789
328 0 1 10.564590 9.624700 715.642700
329 0 1 10.623890 9.953600 716.504883
330 0 1 10.601521 10.156590 717.408569
331 0 1 10.462600 9.962730 718.384827
332 0 1 10.531820 9.672421 719.298096
333 0 1 10.434920 9.170410 720.105591
334 0 1 10.240920 8.576316 720.838013
335 0 1 10.079070 7.990740 721.609985
336 0 1 10.187520 7.422388 722.383667
337 0 1 10.243880 7.117456 723.280090
338 0 1 10.389410 6.646270 724.158875
339 0 1 10.394070 6.501710 725.097168
340 0 1 10.321609 6.903490 725.917175
341 0 1 10.149830 7.238338 726.777283
342 0 1 9.698520 7.432940 727.645813
343 0 1 9.351810 7.362697 728.542969
344 0 1 9.265471 7.392925 729.518982
345 0 1 9.538210 7.459290 730.443970
346 0 1 9.878420 7.203785 731.307983
347 0 1 10.275020 6.938570 732.213989
348 0 1 10.368031 6.737890 733.164978
349 0 1 10.464581 6.497400 734.078979
350 0 1 10.646120 6.290220 735.004028
351 0 1 10.819690 6.223650 735.963013
352 0 1 10.788280 6.229510 736.924988
353 0 1 10.323750 6.174470 737.726013
354 0 1 9.802260 6.259820 738.542969
355 0 1 9.472790 6.318150 739.413025
356 0 1 9.185670 6.604660 740.223999
357 0 1 8.812487 6.831570 741.112000
358 0 1 8.263914 6.571590 741.869995
359 0 1 7.922941 6.266550 742.739014
360 0 1 7.640174 5.989610 743.635010
361 0 1 7.460664 5.823410 744.589966
362 0 1 7.350752 5.710510 745.516968
363 0 1 7.002289 5.653370 746.466980
364 0 1 6.923350 5.526850 747.432983
365 0 1 6.531010 5.426700 748.270020
366 0 1 6.086360 5.558390 749.138000
367 0 1 5.678760 5.869710 749.934021
368 0 1 5.524770 5.914440 750.867981
369 0 1 5.305460 6.013560 751.830017
370 0 1 5.011710 5.768750 752.726990
371 0 1 4.507720 5.679960 753.567993
372 0 1 3.924450 5.541120 754.362976
373 0 1 3.349590 5.446090 755.138977
374 0 1 3.090920 5.318000 756.093994
375 0 1 3.171820 5.353620 757.020996
376 0 1 3.276630 5.284400 758.021973
377 0 1 3.417130 5.796240 758.828979
378 0 1 3.489910 6.290700 759.676025
379 0 1 3.592560 6.731820 760.577026
380 0 1 3.506760 6.711720 761.511963
381 0 1 3.388060 6.944800 762.421997
382 0 1 3.340680 7.346480 763.250000
383 0 1 3.366630 7.329128 764.265991
384 0 1 3.159080 7.289492 765.250977
385 0 1 3.025910 7.191851 766.242981
386 0 1 3.002070 7.149008 767.287964
387 0 1 3.411760 7.137829 768.250977
388 0 1 3.895170 7.038249 769.041016
389 0 1 4.226270 6.986940 770.054016
390 0 1 4.742000 7.275273 770.849976
391 0 1 5.098120 7.482189 771.728027
392 0 1 5.631330 7.717722 772.510010
393 0 1 5.870130 8.206929 773.304016
394 0 1 6.054970 8.539387 774.192017
395 0 1 5.903330 9.082150 774.976990
396 0 1 5.965610 9.758750 775.643005
397 0 1 5.873440 10.164010 776.523987
398 0 1 6.056000 10.574300 777.354004
399 0 1 6.252810 10.865590 778.270020
400 0 1 6.623430 11.097600 779.132996
401 0 1 7.129530 11.020890 779.989014
402 0 1 7.605698 10.967120 780.856018
403 0 1 8.189632 11.044980 781.690979
404 0 1 8.680810 11.022360 782.494995
405 0 1 8.907187 11.203590 783.363037
406 0 1 8.856341 11.414740 784.281982
407 0 1 8.972929 11.372210 785.249023
408 0 1 8.929498 11.353189 786.218994
409 0 1 9.034410 11.305059 787.182983
410 0 1 9.121240 11.156070 788.122009
411 0 1 9.218000 11.110570 789.049988
412 0 1 9.284550 11.250970 790.007996
413 0 1 9.231530 11.175650 790.958008
414 0 1 9.332680 11.132970 791.875977
415 0 1 9.098480 11.052340 792.841980
416 0 1 8.846388 10.954490 793.846008
417 0 1 8.792883 10.583960 794.713013
418 0 1 8.516889 10.479820 795.697998
419 0 1 8.156485 10.267490 796.556030
420 0 1 7.762700 10.046790 797.382019
421 0 1 7.400486 9.688340 798.193970
422 0 1 6.800940 9.139120 798.770996
423 0 1 6.388750 8.537753 799.447021
424 0 1 6.145550 8.090704 800.263000
425 0 1 5.965130 7.502553 800.963013
426 0 1 6.240610 7.034418 801.770020
427 0 1 6.751640 6.483140 802.363037
428 0 1 7.218411 5.865140 802.997009
429 0 1 7.632663 5.163860 803.484985
430 0 1 8.000982 4.794050 804.278015
431 0 1 8.268279 4.291910 805.059021
432 0 1 8.778179 3.797480 805.721985
433 0 1 9.042790 3.664830 806.630981
434 0 1 8.996819 3.585790 807.583984
435 0 1 8.999034 3.431270 808.492981
436 0 1 9.068450 3.443150 809.419006
437 0 1 8.915546 3.621390 810.356995
438 0 1 8.383376 3.895820 811.187012
439 0 1 7.962077 4.290040 811.963989
440 0 1 7.236358 4.508210 812.587036
441 0 1 6.653350 4.854010 813.365967
442 0 1 6.273410 4.874990 814.203003
443 0 1 6.343580 5.035470 815.127991
444 0 1 6.259330 5.129540 816.051025
445 0 1 6.007740 5.285480 816.962036
446 0 1 5.755210 5.427840 817.877991
447 0 1 5.437120 5.736730 818.712036
448 0 1 5.344820 5.865960 819.655029
449 0 1 5.236980 5.842640 820.627014
450 0 1 5.109540 5.621860 821.570007
451 0 1 5.188710 5.518840 822.528015
452 0 1 5.246360 5.437310 823.434021
453 0 1 5.487900 5.242330 824.320007
454 0 1 6.024730 5.051870 825.136963
455 0 1 6.532210 4.874110 825.973022
456 0 1 7.012919 5.053400 826.791016
457 0 1 7.613704 5.072950 827.624023
458 0 1 8.074088 5.322690 828.417969
459 0 1 8.228432 5.229410 829.346985
460 0 1 8.313190 5.302880 830.354980
461 0 1 8.242779 5.542620 831.330994
462 0 1 8.286345 5.561440 832.260010
463 0 1 8.606346 5.351010 833.145996
464 0 1 8.905869 5.010020 833.969971
465 0 1 9.121570 4.822570 834.827026
466 0 1 9.159240 4.741630 835.822998
467 0 1 9.222030 4.939400 836.695007
468 0 1 9.401580 5.343540 837.536011
469 0 1 9.787520 5.979210 838.158020
470 0 1 10.223820 6.738340 838.591003
471 0 1 10.840960 7.391428 839.096008
472 0 1 11.397300 8.148952 839.148010
473 0 1 11.811410 8.875576 838.757996
474 0 1 12.137370 9.733280 838.320007
475 0 1 12.157280 10.534870 837.851990
476 0 1 12.212240 10.959970 837.007996
477 0 1 12.373590 11.280900 836.104004
478 0 1 12.720870 11.306110 835.167969
479 0 1 12.856421 11.643209 834.235962
480 0 1 12.934120 11.559090 833.242981
481 0 1 12.790860 11.638210 832.247009
482 0 1 12.746790 11.941680 831.356018
483 0 1 12.362181 12.137740 830.510986
484 0 1 11.890310 12.153260 829.697998
485 0 1 11.418340 11.973980 828.880005
486 0 1 11.035900 11.683790 828.091980
487 0 1 10.553940 11.326780 827.301025
488 0 1 10.170930 11.157500 826.398010
489 0 1 9.664620 11.283230 825.640015
490 0 1 9.038840 11.166759 824.936035
491 0 1 8.360132 10.989990 824.208984
492 0 1 7.842735 10.807350 823.389038
493 0 1 7.517922 10.744900 822.511963
494 0 1 7.208554 10.597510 821.596008
495 0 1 6.940730 10.396220 820.671997
496 0 1 6.852750 10.304630 819.684998
497 0 1 6.780890 10.455690 818.766968
498 0 1 6.717380 10.651260 817.848022
499 0 1 6.751490 10.911489 816.942017
500 0 1 6.717360 11.314790 816.108032
501 0 1 6.912290 11.739460 815.307983
502 0 1 6.996320 11.938740 814.354004
503 0 1 7.072267 11.838551 813.367004
504 0 1 6.990080 11.519820 812.460022
505 0 1 7.043943 11.090300 811.572021
506 0 1 7.057639 10.607640 810.735962
507 0 1 6.961130 10.369810 809.835022
508 0 1 6.970100 9.792170 808.966980
509 0 1 7.244717 9.284750 808.166016
510 0 1 7.732790 9.113240 807.338013
511 0 1 7.911660 9.079650 806.346008
512 0 1 8.399079 9.188550 805.546021
513 0 1 8.870399 9.648900 804.864014
514 0 1 9.377000 9.755880 804.020020
515 0 1 9.853760 9.787200 803.166992
516 0 1 10.201910 9.419900 802.365967
517 0 1 10.496099 8.828885 801.690979
518 0 1 10.765020 8.272677 801.000000
519 0 1 11.232800 7.800221 800.359009
520 0 1 11.770760 7.343160 799.721008
521 0 1 12.284620 6.920280 799.018005
522 0 1 12.446600 6.423080 798.229980
523 0 1 12.504049 5.962800 797.440002
524 0 1 12.430250 5.569780 796.481995
525 0 1 12.254180 5.315980 795.624023
526 0 1 12.213921 4.937670 794.713013
527 0 1 12.121941 4.536950 793.865967
528 0 1 11.942660 4.180930 793.023987
529 0 1 11.869240 4.062800 792.088013
530 0 1 11.849130 3.663420 791.187012
531 0 1 11.884340 3.517650 790.263000
532 0 1 11.949050 3.385880 789.344971
533 0 1 11.735700 3.198300 788.445007
534 0 1 11.536500 3.253550 787.481018
535 0 1 11.544490 3.017410 786.568970
536 0 1 11.618900 2.732960 785.629028
537 0 1 11.418810 2.422590 784.757019
538 0 1 11.344260 2.190250 783.796021
539 0 1 10.972340 2.071690 782.927979
540 0 1 10.589640 2.178760 782.044983
541 0 1 10.051720 2.591890 781.139038
542 0 1 9.944560 2.874630 780.268982
543 0 1 9.726930 3.142660 779.372009
544 0 1 9.760310 3.481520 778.489014
545 0 1 9.741140 3.523030 777.547974
546 0 1 9.731720 3.633620 776.556030
547 0 1 9.857550 4.094580 775.721985
548 0 1 9.835610 4.674930 774.910034
549 0 1 9.736800 5.366420 774.176025
550 0 1 9.469170 6.180990 773.562012
551 0 1 9.480120 6.623830 772.664001
552 0 1 9.448250 7.107710 771.832031
553 0 1 9.234900 7.860735 771.216980
554 0 1 8.675299 8.302518 770.635010
555 0 1 8.165385 8.700527 769.863037
556 0 1 7.735695 8.911265 769.013000
557 0 1 7.248405 8.981724 768.200012
558 0 1 7.013624 8.701547 767.337036
559 0 1 6.594870 8.593278 766.547974
560 0 1 6.083300 8.707467 765.712036
561 0 1 5.750230 8.722052 764.804016
562 0 1 5.498530 8.930912 763.901001
563 0 1 5.355360 9.413640 763.096985
564 0 1 5.269200 9.607990 762.195007
565 0 1 5.354710 9.822830 761.247986
566 0 1 5.397890 9.775880 760.281006
567 0 1 5.461070 9.590940 759.374023
568 0 1 5.416750 9.551590 758.411011
569 0 1 5.456320 9.464000 757.497986
570 0 1 5.675650 9.163440 756.531006
571 0 1 6.145740 8.962684 755.760010
572 0 1 6.639290 8.703661 754.976013
573 0 1 7.231709 8.463994 754.184021
574 0 1 7.656907 8.345443 753.367004
575 0 1 8.324923 8.287257 752.713989
576 0 1 8.846923 8.534076 751.953979
577 0 1 9.110910 8.746724 751.044006
578 0 1 9.534110 8.888043 750.239990
579 0 1 9.788860 9.148790 749.341003
580 0 1 9.685760 9.298690 748.312988
581 0 1 9.575430 9.246690 747.338989
582 0 1 9.432261 9.217990 746.408020
583 0 1 9.052070 9.409250 745.450989
584 0 1 8.654448 9.836500 744.713989
585 0 1 8.279799 10.540260 744.146973
586 0 1 8.281184 11.226760 743.486023
587 0 1 8.230110 11.861070 742.807007
588 0 1 8.177569 12.483459 742.018005
589 0 1 8.234077 12.901490 741.151978
590 0 1 8.112384 13.185699 740.233032
591 0 1 7.965617 13.598169 739.359985
592 0 1 7.590048 13.762230 738.450012
593 0 1 7.145940 13.759769 737.612000
594 0 1 6.356310 13.854740 736.995972
595 0 1 5.700860 13.535379 736.320984
596 0 1 5.187970 13.357010 735.500977
597 0 1 4.709770 13.131940 734.742981
598 0 1 4.387630 12.655991 733.929016
599 0 1 4.078550 12.123690 733.193970
600 0 1 3.516390 11.577390 732.721008
601 0 1 3.705550 10.770560 732.265991
602 0 1 3.883310 10.109350 731.507996
603 0 1 3.885000 9.596430 730.648987
604 0 1 3.725180 9.010030 729.898987
605 0 1 3.364380 8.560793 729.190002
606 0 1 2.991900 7.952910 728.526001
607 0 1 2.546660 7.382114 727.903503
608 0 1 2.191130 6.907940 727.111084
609 0 1 1.867930 6.261200 726.458923
610 0 1 1.933460 5.600650 725.749817
611 0 1 1.984590 5.028250 724.988281
612 0 1 2.112740 4.465350 724.188416
613 0 1 2.657200 4.113470 723.432678
614 0 1 3.405920 3.745090 722.909607
615 0 1 3.903450 3.592530 722.093079
616 0 1 4.226560 3.709500 721.225220
617 0 1 4.417060 3.800790 720.248718
618 0 1 4.770220 4.126430 719.372986
619 0 1 5.369610 4.232330 718.597900
620 0 1 5.814230 4.461690 717.825989
621 0 1 6.169870 4.340060 716.973816
622 0 1 6.311000 4.436110 715.999817
623 0 1 6.586260 4.895100 715.044495
624 0 1 6.888620 5.338390 714.294189
625 0 1 7.294064 5.835970 713.495483
626 0 1 7.750790 6.152170 712.676575
627 0 1 8.121044 6.557450 711.887878
628 0 1 7.968218 6.768700 710.996094
629 0 1 8.269232 7.088353 710.143921
630 0 1 8.069393 7.249023 709.235779
631 0 1 7.674239 7.214354 708.384277
632 0 1 7.330612 7.258409 707.426270
633 0 1 7.017130 6.941640 706.553406
634 0 1 6.578610 6.934680 705.696533
635 0 1 6.439520 7.006404 704.733887
636 0 1 6.335360 7.186292 703.815308
637 0 1 6.375790 7.507839 702.948303
638 0 1 6.465180 7.822439 702.009521
639 0 1 6.585420 8.526865 701.351990
640 0 1 6.772390 9.263630 700.696716
641 0 1 6.854260 9.870040 699.943481
642 0 1 6.687460 10.656820 699.336975
643 0 1 6.525300 11.365160 698.710388
644 0 1 6.715120 11.715160 697.857788
645 0 1 6.813860 12.076651 696.998291
646 0 1 6.954560 12.454390 696.151306
647 0 1 6.806020 12.606800 695.197021
648 0 1 6.698520 12.724910 694.250305
649 0 1 6.973530 12.714010 693.333374
650 0 1 7.333222 12.415541 692.413818
651 0 1 7.680621 12.322990 691.511780
652 0 1 7.698595 12.366620 690.596497
653 0 1 7.727680 11.978500 689.715881
654 0 1 7.798992 11.520070 688.875183
655 0 1 7.848465 11.007950 688.012085
656 0 1 7.912761 10.496440 687.263977
657 0 1 8.167473 10.315630 686.340515
658 0 1 8.233088 10.120940 685.315491
659 0 1 8.353587 10.147320 684.322083
660 0 1 8.517325 10.485340 683.452209
661 0 1 8.608888 10.492229 682.482605
662 0 1 8.517263 10.577100 681.568604
663 0 1 8.672257 10.535250 680.580994
664 0 1 8.726376 10.210060 679.670776
665 0 1 8.435176 9.748840 678.919800
666 0 1 8.328456 9.169380 678.173279
667 0 1 8.322153 8.555119 677.394714
668 0 1 8.320483 8.057193 676.593018
669 0 1 8.509605 7.832417 675.693604
670 0 1 8.479997 7.641079 674.767212
671 0 1 8.498483 7.358319 673.798584
672 0 1 8.346491 7.015227 672.911377
673 0 1 8.485929 6.791520 672.013123
674 0 1 8.882596 6.166300 671.411194
675 0 1 9.214350 5.497800 670.827209
676 0 1 9.660530 4.978190 670.156982
677 0 1 10.387740 4.635640 669.581116
678 0 1 10.740800 4.293850 668.746887
679 0 1 11.019020 3.960020 667.913391
680 0 1 11.373080 3.823750 666.969421
681 0 1 11.825730 3.783060 666.100525
682 0 1 11.665370 3.962160 665.121094
683 0 1 11.611780 4.274270 664.218384
684 0 1 11.271820 4.548680 663.328796
685 0 1 10.635060 4.685060 662.463501
686 0 1 9.916000 4.665120 661.770691
687 0 1 9.153690 4.608550 661.137329
688 0 1 8.521424 4.741050 660.453369
689 0 1 7.914361 5.010410 659.733826
690 0 1 7.696319 5.504270 658.945190
691 0 1 7.424716 5.890550 658.158508
692 0 1 6.846280 6.130530 657.384399
693 0 1 6.250040 6.484350 656.599182
694 0 1 5.760310 6.780780 655.774597
695 0 1 5.265890 7.215718 655.058899
696 0 1 4.847540 7.792183 654.492920
697 0 1 4.427140 7.943963 653.663818
698 0 1 4.099960 7.848812 652.809204
699 0 1 3.725340 8.063518 651.958679
700 0 1 3.372630 8.351553 651.052002
701 0 1 3.259250 8.662417 650.204102
702 0 1 3.155990 9.020330 649.289978
703 0 1 3.151290 9.494610 648.504395
704 0 1 3.169640 9.595290 647.526611
705 0 1 3.300520 9.329930 646.613403
706 0 1 3.399710 8.886985 645.778503
707 0 1 3.703940 8.487898 645.000977
708 0 1 3.577760 8.366129 644.034729
709 0 1 3.813890 8.660632 643.117371
710 0 1 3.993850 8.446056 642.177490
711 0 1 4.262560 8.129619 641.289185
712 0 1 4.573700 7.947864 640.347778
713 0 1 5.042120 8.020926 639.524414
714 0 1 5.253930 8.313911 638.653320
715 0 1 5.312010 8.214192 637.708130
716 0 1 5.405300 8.188796 636.741882
717 0 1 5.426240 8.206892 635.774109
718 0 1 5.425030 8.057544 634.898865
719 0 1 5.327120 8.236690 633.979187
720 0 1 5.247770 8.498523 633.117798
721 0 1 5.209470 8.670382 632.108887
722 0 1 5.198070 8.884422 631.203003
723 0 1 5.427660 9.234320 630.401489
724 0 1 5.641150 9.646470 629.535889
725 0 1 5.861850 9.919260 628.580078
726 0 1 5.947050 10.066840 627.594727
727 0 1 6.317100 9.882360 626.723938
728 0 1 6.655020 9.663830 625.855164
729 0 1 7.073541 9.432360 624.996643
730 0 1 7.252342 9.499110 624.063782
731 0 1 7.644033 9.247280 623.247437
732 0 1 8.240286 8.957172 622.516724
733 0 1 8.419394 8.650392 621.538208
734 0 1 8.543770 8.172167 620.718933
735 0 1 8.360163 7.479076 620.032898
736 0 1 8.504549 6.779450 619.426575
737 0 1 8.754215 6.044130 618.888794
738 0 1 9.088449 5.375080 618.330627
739 0 1 9.302310 4.597930 617.726074
740 0 1 9.504790 4.271240 616.890686
741 0 1 9.251570 3.898130 615.986023
742 0 1 8.996220 3.560130 615.143127
743 0 1 8.784594 3.021700 614.364502
744 0 1 8.515832 2.733730 613.499573
745 0 1 8.215539 2.568050 612.609497
746 0 1 7.567516 2.554320 611.849731
747 0 1 7.018096 2.494130 611.051880
748 0 1 6.931060 2.655520 610.110901
749 0 1 6.836630 2.853050 609.201477
750 0 1 6.959890 2.651440 608.324097
751 0 1 6.942120 2.636570 607.334717
752 0 1 7.042703 2.509940 606.334412
753 0 1 7.248402 2.539160 605.420410
754 0 1 7.323965 2.476840 604.470825
755 0 1 7.486288 2.653590 603.556213
756 0 1 7.531895 2.660700 602.560913
757 0 1 7.612697 2.502240 601.620117
758 0 1 7.808009 2.559720 600.643494
759 0 1 7.673787 2.874650 599.787720
760 0 1 7.368477 2.876110 598.901672
761 0 1 7.121762 2.930300 597.952087
762 0 1 7.018270 2.768140 597.008606
763 0 1 6.858010 2.896820 596.017700
764 0 1 6.563730 3.036910 595.064880
765 0 1 6.557320 2.914930 594.105591
766 0 1 6.800280 2.714770 593.178223
767 0 1 6.849490 2.705870 592.185608
768 0 1 6.954190 2.575310 591.261597
769 0 1 6.815350 2.548760 590.343079
770 0 1 6.881410 2.414000 589.351318
771 0 1 6.949440 2.475460 588.423401
772 0 1 6.965080 2.292040 587.529907
773 0 1 6.937640 1.985040 586.657898
774 0 1 6.818820 2.087700 585.712219
775 0 1 6.762150 2.355490 584.784485
776 0 1 6.821070 2.702590 583.911987
777 0 1 6.700430 3.133140 583.090698
778 0 1 6.590390 3.382650 582.207092
779 0 1 6.528120 3.637210 581.266724
780 0 1 6.187980 4.001310 580.482483
781 0 1 5.665240 4.628260 579.898926
782 0 1 5.083930 4.948720 579.223694
783 0 1 4.778340 5.338900 578.436218
784 0 1 4.414280 5.641730 577.630005
785 0 1 4.083300 5.888240 576.760376
786 0 1 3.639660 6.298200 575.888184
787 0 1 3.493720 6.713080 575.056274
788 0 1 3.225160 7.039337 574.194702
789 0 1 2.668570 7.387461 573.407227
790 0 1 2.281330 7.662872 572.592712
791 0 1 2.213050 8.052594 571.693970
792 0 1 2.252160 8.712456 570.931702