LAMMPS data file via MDAnalysis

        1000  atoms
        1000  bonds
        1000  angles
           0  dihedrals
           0  impropers

           1  atom types
           1  bond types
           1  angle types
           0  dihedral types
           0  improper types

0.000000 16.000000 xlo xhi
0.000000 16.000000 ylo yhi
0.000000 1257.000000 zlo zhi


Masses

1 1.000000

Atoms

1 0 1 9.902700 9.878110 443.501007
2 0 1 9.995110 10.017250 444.445007
3 0 1 9.746740 9.935330 445.356995
4 0 1 9.552190 9.837500 446.279999
5 0 1 9.223830 9.779520 447.166016
6 0 1 8.802661 9.539850 447.990997
7 0 1 8.442769 9.227730 448.787994
8 0 1 7.934255 8.998421 449.539001
9 0 1 7.546702 8.918186 450.416992
10 0 1 7.315648 8.956236 451.317993
11 0 1 7.504502 8.939439 452.261993
12 0 1 7.649779 9.069820 453.164001
13 0 1 7.658624 9.441200 454.072998
14 0 1 7.902519 9.616610 455.074005
15 0 1 8.502341 9.736340 455.848999
16 0 1 8.872355 9.691470 456.760986
17 0 1 8.809075 9.789740 457.716980
18 0 1 8.488383 9.854870 458.609009
19 0 1 7.947387 9.907120 459.432983
20 0 1 7.374024 9.695060 460.291992
21 0 1 6.768570 9.806400 460.989990
22 0 1 6.051890 9.880090 461.598022
23 0 1 5.527730 10.020090 462.367981
24 0 1 5.047720 10.162460 463.186005
25 0 1 4.907480 10.484591 464.067017
26 0 1 4.693760 10.585880 464.968994
27 0 1 4.389120 10.197411 465.812988
28 0 1 4.317280 9.790689 466.701996
29 0 1 4.336070 9.540290 467.638000
30 0 1 4.553880 9.401210 468.576996
31 0 1 4.776610 9.020230 469.490997
32 0 1 5.079690 8.829896 470.410004
33 0 1 5.352190 8.470747 471.306000
34 0 1 5.504660 7.919700 472.112000
35 0 1 5.773530 7.352984 472.940979
36 0 1 5.983540 6.732690 473.617981
37 0 1 6.156720 6.281590 474.447998
38 0 1 6.138870 6.247480 475.414978
39 0 1 6.171800 5.980170 476.390991
40 0 1 6.109960 5.913090 477.322021
41 0 1 6.153890 6.216140 478.221008
42 0 1 6.300380 6.603720 479.109985
43 0 1 6.291860 7.062412 479.957001
44 0 1 6.465610 7.269009 480.903992
45 0 1 6.669170 7.588266 481.750000
46 0 1 6.964270 7.911209 482.606018
47 0 1 7.098263 8.156317 483.544983
48 0 1 7.314294 8.207571 484.515991
49 0 1 7.437476 8.208795 485.463989
50 0 1 7.518999 8.149269 486.445984
51 0 1 7.618713 8.007567 487.378998
52 0 1 7.853290 7.988421 488.306000
53 0 1 8.419653 8.184733 489.100006
54 0 1 8.912248 8.371612 489.906982
55 0 1 9.254550 8.303822 490.787994
56 0 1 9.706960 7.907710 491.546997
57 0 1 9.975960 7.619087 492.444000
58 0 1 10.098619 7.179264 493.333008
59 0 1 10.162680 6.712270 494.199005
60 0 1 10.354760 6.300220 495.005005
61 0 1 10.411180 6.308110 495.984009
62 0 1 10.341270 6.665130 496.877014
63 0 1 10.279079 6.982910 497.760986
64 0 1 10.466190 7.409278 498.587006
65 0 1 10.371531 7.750724 499.518982
66 0 1 10.237420 7.777321 500.497009
67 0 1 10.044220 7.498317 501.414001
68 0 1 9.917440 7.223535 502.324005
69 0 1 9.818710 6.926890 503.265991
70 0 1 9.813590 6.793460 504.234985
71 0 1 10.061399 6.444240 505.126007
72 0 1 10.444839 6.268150 506.013000
73 0 1 10.386140 6.072890 506.919983
74 0 1 10.332520 5.702720 507.846008
75 0 1 10.392820 5.374990 508.739990
76 0 1 10.038840 5.020670 509.596985
77 0 1 9.697720 5.012050 510.524994
78 0 1 9.547410 4.899000 511.528015
79 0 1 9.531610 4.795380 512.492981
80 0 1 9.597860 4.747770 513.424011
81 0 1 9.315830 4.804890 514.374023
82 0 1 9.218700 5.145990 515.301025
83 0 1 9.064810 5.586500 516.169983
84 0 1 8.691691 5.958270 517.046997
85 0 1 8.462595 6.321800 517.891968
86 0 1 8.445867 6.564320 518.849976
87 0 1 8.447058 6.627580 519.776978
88 0 1 8.569661 6.752130 520.768982
89 0 1 8.733199 6.658400 521.742004
90 0 1 9.060100 6.707390 522.625000
91 0 1 9.340570 6.631920 523.609009
92 0 1 9.175460 6.316590 524.473022
93 0 1 8.779516 6.247090 525.356018
94 0 1 8.462916 6.119040 526.231995
95 0 1 8.180964 6.249060 527.185974
96 0 1 8.171965 6.475300 528.150024
97 0 1 7.999328 6.702770 529.086121
98 0 1 7.772237 7.124766 529.910217
99 0 1 7.513062 7.633167 530.695068
100 0 1 7.165115 8.033393 531.510681
101 0 1 7.014745 8.273578 532.471375
102 0 1 6.980970 8.388970 533.454285
103 0 1 7.055477 8.654087 534.388306
104 0 1 6.932430 8.860274 535.306396
105 0 1 6.757500 8.711608 536.223694
106 0 1 6.678200 8.271181 537.101318
107 0 1 6.571290 8.041512 538.047974
108 0 1 6.761840 7.788829 538.913208
109 0 1 6.806150 7.735101 539.856995
110 0 1 6.970360 7.943233 540.751282
111 0 1 6.952710 8.122412 541.710205
112 0 1 6.512020 8.370141 542.585815
113 0 1 6.197560 8.802105 543.423889
114 0 1 6.359470 9.237720 544.272827
115 0 1 6.825420 9.442250 545.065918
116 0 1 7.358625 9.728630 545.831909
117 0 1 8.025575 9.825600 546.641418
118 0 1 8.782982 9.712860 547.263000
119 0 1 9.602320 9.329570 547.764771
120 0 1 10.541700 9.322220 548.048279
121 0 1 11.392210 9.367310 548.467590
122 0 1 12.229950 9.628260 549.095093
123 0 1 12.890400 9.708210 549.742188
124 0 1 13.328310 9.668500 550.554932
125 0 1 13.606720 9.363310 551.456421
126 0 1 13.450991 8.779816 552.223267
127 0 1 13.604630 8.197562 552.969177
128 0 1 13.758750 7.609922 553.717529
129 0 1 13.766029 6.759470 554.232605
130 0 1 13.556290 5.881510 554.632385
131 0 1 13.738820 5.183250 555.240417
132 0 1 13.633070 4.649680 556.060303
133 0 1 13.572760 4.212360 556.959412
134 0 1 13.083330 3.948750 557.820374
135 0 1 12.654010 3.591070 558.568420
136 0 1 12.108360 3.345070 559.348206
137 0 1 11.662770 3.247780 560.172729
138 0 1 11.327900 3.227520 561.078186
139 0 1 10.903340 3.685930 561.860291
140 0 1 10.412310 4.047620 562.545776
141 0 1 9.839470 4.206430 563.382385
142 0 1 9.192630 4.236010 564.141174
143 0 1 8.700307 4.468350 564.887390
144 0 1 8.328103 4.611080 565.725525
145 0 1 8.010326 5.006260 566.521179
146 0 1 7.948249 5.463000 567.332214
147 0 1 7.505555 5.705060 568.164917
148 0 1 7.039731 5.832660 569.042786
149 0 1 7.017644 5.770410 570.015381
150 0 1 7.173537 5.687740 571.005188
151 0 1 7.269902 5.580320 571.987610
152 0 1 7.259360 5.345510 572.940430
153 0 1 7.478735 5.000940 573.834900
154 0 1 7.732645 5.018400 574.833984
155 0 1 7.943145 5.095280 575.767700
156 0 1 7.946665 5.010050 576.763489
157 0 1 8.107333 4.945990 577.692200
158 0 1 8.109590 4.691830 578.664917
159 0 1 7.810511 4.269910 579.487488
160 0 1 7.281831 3.983380 580.237427
161 0 1 7.056650 3.812800 581.133606
162 0 1 7.237247 3.699560 582.045227
163 0 1 7.704850 3.834330 582.857178
164 0 1 8.006914 4.468510 583.516968
165 0 1 8.322294 5.080920 584.167175
166 0 1 8.574940 5.780570 584.741089
167 0 1 8.908713 6.317480 585.428711
168 0 1 9.285450 6.753170 586.140503
169 0 1 9.764300 7.135417 586.862488
170 0 1 10.181650 7.451854 587.764282
171 0 1 10.412310 7.437191 588.668823
172 0 1 10.501570 7.568175 589.652100
173 0 1 10.485070 7.578344 590.653320
174 0 1 10.713060 7.776682 591.558228
175 0 1 10.935790 7.775337 592.487610
176 0 1 11.298640 7.914681 593.361816
177 0 1 11.777250 8.198931 594.151672
178 0 1 12.204559 8.163352 595.088196
179 0 1 12.837440 8.050179 595.778076
180 0 1 13.343370 8.054872 596.575317
181 0 1 13.606850 8.191826 597.518188
182 0 1 13.696760 8.113007 598.446472
183 0 1 13.628670 8.147294 599.405823
184 0 1 13.547410 8.139630 600.373291
185 0 1 13.136240 8.490284 601.142822
186 0 1 12.681140 8.721444 601.905579
187 0 1 12.167150 8.757841 602.710022
188 0 1 11.811069 9.118670 603.522827
189 0 1 11.439120 9.528450 604.368896
190 0 1 11.076130 10.050970 605.086487
191 0 1 10.666821 10.462550 605.824524
192 0 1 10.330120 10.875950 606.585327
193 0 1 9.907180 11.157880 607.375488
194 0 1 9.306240 11.643311 607.965698
195 0 1 8.720193 12.180030 608.600891
196 0 1 8.426695 12.710569 609.359802
197 0 1 7.993525 12.986691 610.166809
198 0 1 7.559376 13.180890 611.046692
199 0 1 7.125317 13.485149 611.826111
200 0 1 6.698810 13.415000 612.659424
201 0 1 6.198940 13.325060 613.442688
202 0 1 5.869680 13.464900 614.273682
203 0 1 5.647910 13.607100 615.272522
204 0 1 5.529180 13.514180 616.180481
205 0 1 5.292610 13.281879 617.096924
206 0 1 5.017100 13.316811 618.095093
207 0 1 5.025660 12.905680 618.948853
208 0 1 5.170110 12.566390 619.794678
209 0 1 5.404260 12.208720 620.630737
210 0 1 5.645920 11.707380 621.456177
211 0 1 5.529010 11.486031 622.407288
212 0 1 5.653380 11.166300 623.287170
213 0 1 5.517010 11.235050 624.260254
214 0 1 5.366280 11.510830 625.199524
215 0 1 5.373070 11.778730 626.128662
216 0 1 5.493650 11.803770 627.096375
217 0 1 5.513080 11.873800 628.085938
218 0 1 5.674250 11.725800 629.092712
219 0 1 5.491220 11.265480 629.925842
220 0 1 5.469550 10.729530 630.749634
221 0 1 5.551550 10.524500 631.644897
222 0 1 5.520670 10.142130 632.507507
223 0 1 5.596740 9.821880 633.379517
224 0 1 5.786930 9.632660 634.300476
225 0 1 5.783470 9.526730 635.342957
226 0 1 5.822490 9.575650 636.297241
227 0 1 5.651710 9.995620 637.132507
228 0 1 5.627570 10.436880 637.938171
229 0 1 5.609090 10.371880 638.941528
230 0 1 5.434220 10.079781 639.824219
231 0 1 5.216710 9.704180 640.740112
232 0 1 4.861410 9.365860 641.574280
233 0 1 4.819040 9.042940 642.437378
234 0 1 4.782670 8.284180 643.048523
235 0 1 4.953070 7.817720 643.852905
236 0 1 5.241880 7.529818 644.707397
237 0 1 5.432770 7.149612 645.616211
238 0 1 5.285760 6.888950 646.511475
239 0 1 5.138920 6.906920 647.432312
240 0 1 5.180160 7.114821 648.414917
241 0 1 4.791970 7.006776 649.283203
242 0 1 4.738030 7.140305 650.228821
243 0 1 4.903660 7.525809 651.070312
244 0 1 4.957320 8.111755 651.891907
245 0 1 4.877080 8.320613 652.828369
246 0 1 4.696450 8.568196 653.711975
247 0 1 4.643380 8.398278 654.652222
248 0 1 4.601000 8.295538 655.573975
249 0 1 4.186530 8.409588 656.427185
250 0 1 3.665880 8.290300 657.257019
251 0 1 3.431940 8.241367 658.183594
252 0 1 3.409590 7.861435 659.082397
253 0 1 3.195260 7.532914 659.967896
254 0 1 2.891110 7.253092 660.836426
255 0 1 2.567860 7.216050 661.709412
256 0 1 2.480280 7.313244 662.643311
257 0 1 2.363170 6.992100 663.581482
258 0 1 2.599960 6.804560 664.487793
259 0 1 3.088740 6.744910 665.322693
260 0 1 3.569300 6.571230 666.180115
261 0 1 3.967420 6.160770 666.922485
262 0 1 4.381650 5.910240 667.742310
263 0 1 4.726270 5.942570 668.683411
264 0 1 5.096350 6.089490 669.510132
265 0 1 5.163910 6.570470 670.361572
266 0 1 5.237680 7.007887 671.184326
267 0 1 5.339030 7.270952 672.094421
268 0 1 5.821570 7.564275 672.863770
269 0 1 6.342580 7.757379 673.709290
270 0 1 6.876840 7.771556 674.488708
271 0 1 7.340287 7.809107 675.339294
272 0 1 7.664399 8.046800 676.214783
273 0 1 8.023932 8.391464 677.048218
274 0 1 8.208891 8.609779 677.957520
275 0 1 8.271227 8.756082 678.940491
276 0 1 8.543619 8.787401 679.834106
277 0 1 8.921249 8.926003 680.701599
278 0 1 9.379790 8.912541 681.525208
279 0 1 9.854510 8.869488 682.325500
280 0 1 10.272900 8.732270 683.177795
281 0 1 10.620320 8.748095 684.123108
282 0 1 10.893060 8.782885 685.118286
283 0 1 11.166180 8.924040 686.085693
284 0 1 11.334070 8.877119 686.986877
285 0 1 11.313390 8.830262 687.899902
286 0 1 11.278740 9.072770 688.800781
287 0 1 11.352630 9.395041 689.702881
288 0 1 11.303810 9.641290 690.651978
289 0 1 11.370540 9.806530 691.595703
290 0 1 11.177790 10.105110 692.537231
291 0 1 11.215549 10.361300 693.469910
292 0 1 11.334500 10.584641 694.422607
293 0 1 11.637790 10.649480 695.358521
294 0 1 11.847790 10.814360 696.325623
295 0 1 11.884069 10.815480 697.318604
296 0 1 11.875830 10.845840 698.338867
297 0 1 11.997720 10.794780 699.330078
298 0 1 11.777740 10.937531 700.229797
299 0 1 11.537100 11.241780 701.209412
300 0 1 11.638010 11.546180 702.085022
301 0 1 11.630420 11.785580 703.027283
302 0 1 11.259439 11.825120 703.963013
303 0 1 10.750360 11.704720 704.725830
304 0 1 10.262470 11.423540 705.559326
305 0 1 9.792130 11.284250 706.381470
306 0 1 9.229450 11.286750 707.167786
307 0 1 8.648358 11.237650 707.933411
308 0 1 7.971784 11.027360 708.466492
309 0 1 7.191610 10.692101 708.959106
310 0 1 6.481510 10.408260 709.597900
311 0 1 5.953130 9.999420 710.297119
312 0 1 5.574060 9.713690 711.130493
313 0 1 5.162020 9.648190 712.008667
314 0 1 4.871050 9.416400 712.907471
315 0 1 4.348060 8.786685 713.564575
316 0 1 3.652470 8.444216 714.255127
317 0 1 3.039040 8.061069 714.924011
318 0 1 2.499920 7.923594 715.693420
319 0 1 2.144100 7.868107 716.543518
320 0 1 1.827870 8.030299 717.437500
321 0 1 1.737000 7.822931 718.384277
322 0 1 1.910120 8.075151 719.315186
323 0 1 2.080860 8.177700 720.240601
324 0 1 2.593170 8.063764 721.088318
325 0 1 2.984210 8.043142 721.991882
326 0 1 3.563730 8.174802 722.714783
327 0 1 4.302250 8.208020 723.274475
328 0 1 4.871230 8.634137 723.913025
329 0 1 5.443280 8.913593 724.620483
330 0 1 6.057410 9.090970 725.319885
331 0 1 6.287630 8.967658 726.232666
332 0 1 6.696800 8.896560 727.131897
333 0 1 7.212979 8.928365 727.862610
334 0 1 7.883139 9.092750 728.593018
335 0 1 8.481562 9.224340 729.356018
336 0 1 8.882523 9.283440 730.276001
337 0 1 9.146749 9.362050 731.177979
338 0 1 9.547700 9.119540 732.020020
339 0 1 9.653630 9.189500 732.974976
340 0 1 10.005770 9.185540 733.895020
341 0 1 10.275690 9.232250 734.804993
342 0 1 10.431620 9.220770 735.775024
343 0 1 10.663490 9.659550 736.619995
344 0 1 10.890630 9.920190 737.596008
345 0 1 11.147430 9.884050 738.544006
346 0 1 11.436850 9.588550 739.387024
347 0 1 11.357130 9.515210 740.408997
348 0 1 11.515050 9.418910 741.263977
349 0 1 11.782000 9.321480 742.167969
350 0 1 12.100901 9.349790 743.106018
351 0 1 12.453520 9.072750 743.942993
352 0 1 12.263790 8.990088 744.900024
353 0 1 11.964670 9.343900 745.718994
354 0 1 11.800030 9.382440 746.666992
355 0 1 11.679750 9.331880 747.591980
356 0 1 11.506360 9.188160 748.588989
357 0 1 11.096140 8.874040 749.422974
358 0 1 10.685950 8.527949 750.219971
359 0 1 10.439060 8.393521 751.138977
360 0 1 10.066510 8.335435 752.039001
361 0 1 9.843660 8.493292 752.910034
362 0 1 9.416140 8.408120 753.776978
363 0 1 8.899210 8.249812 754.531982
364 0 1 8.319094 8.295620 755.325989
365 0 1 7.841119 8.361242 756.237000
366 0 1 7.607339 8.402511 757.205017
367 0 1 7.321051 8.444629 758.161011
368 0 1 6.883230 8.495337 759.068970
369 0 1 6.405380 8.590789 759.854980
370 0 1 5.984210 8.723548 760.658997
371 0 1 5.546960 8.680806 761.469971
372 0 1 5.043410 8.682208 762.304016
373 0 1 4.738390 8.245138 763.218994
374 0 1 4.420080 7.643395 763.895020
375 0 1 4.256720 7.184897 764.693970
376 0 1 4.436020 6.640860 765.489990
377 0 1 4.673080 6.288060 766.294983
378 0 1 5.109720 6.175030 767.140015
379 0 1 5.314160 5.738450 767.971008
380 0 1 5.419500 5.313600 768.854980
381 0 1 5.402560 4.755620 769.747986
382 0 1 5.205220 4.420540 770.661987
383 0 1 5.048160 4.124020 771.580994
384 0 1 5.122570 4.012460 772.563965
385 0 1 5.072990 4.010160 773.533997
386 0 1 4.862290 4.019990 774.474976
387 0 1 4.638180 4.297620 775.315002
388 0 1 4.082270 4.681900 776.028992
389 0 1 3.694040 4.842870 776.877014
390 0 1 3.161610 5.130010 777.617004
391 0 1 2.967020 5.492440 778.434021
392 0 1 3.004440 5.789990 779.313965
393 0 1 2.946540 6.371090 780.112000
394 0 1 3.005380 6.817630 780.976990
395 0 1 3.090120 7.236023 781.872009
396 0 1 3.104440 7.429231 782.807007
397 0 1 3.141020 7.535562 783.801025
398 0 1 3.269480 7.498003 784.776001
399 0 1 3.304220 7.448310 785.729004
400 0 1 3.424810 7.423237 786.660034
401 0 1 3.222250 7.336105 787.596985
402 0 1 3.266160 7.263483 788.514038
403 0 1 3.415520 7.027469 789.432983
404 0 1 3.513710 6.680380 790.377014
405 0 1 3.741840 6.649120 791.297974
406 0 1 4.127270 6.808190 792.140991
407 0 1 4.732630 6.917570 792.927002
408 0 1 5.176230 7.141640 793.726013
409 0 1 5.495210 7.326139 794.572021
410 0 1 5.870860 7.549541 795.502014
411 0 1 6.236440 7.607523 796.379028
412 0 1 6.547230 7.818387 797.239990
413 0 1 6.983060 7.956719 798.112000
414 0 1 7.404787 7.954587 798.932007
415 0 1 7.724514 7.867319 799.776978
416 0 1 8.037025 7.737863 800.708008
417 0 1 8.524427 7.440696 801.523010
418 0 1 8.982641 7.323821 802.367981
419 0 1 9.349650 7.108117 803.273010
420 0 1 9.573450 7.136916 804.164001
421 0 1 9.619200 7.176115 805.096008
422 0 1 9.434540 7.136153 806.007019
423 0 1 9.339390 7.132128 806.948975
424 0 1 9.217560 7.034396 807.862000
425 0 1 9.302660 6.993330 808.856018
426 0 1 9.135450 6.624280 809.718994
427 0 1 8.975507 6.084870 810.570007
428 0 1 8.871565 5.681040 811.531006
429 0 1 9.237520 5.479060 812.411987
430 0 1 9.351050 5.166650 813.330994
431 0 1 9.229640 5.072740 814.325989
432 0 1 8.899299 5.166190 815.226990
433 0 1 8.289536 5.334430 816.014038
434 0 1 7.726018 5.707710 816.677002
435 0 1 7.602401 6.055510 817.575012
436 0 1 7.436707 6.457400 818.453979
437 0 1 7.059244 6.659560 819.364014
438 0 1 6.691380 6.655100 820.213989
439 0 1 6.373240 6.909340 821.077026
440 0 1 6.103000 7.302255 821.942017
441 0 1 5.481240 7.530720 822.585999
442 0 1 4.799450 7.438925 823.239990
443 0 1 4.114300 7.240928 823.932983
444 0 1 3.612710 6.941670 824.742981
445 0 1 3.237480 6.789650 825.674011
446 0 1 2.798620 6.740680 826.549988
447 0 1 2.341180 6.842620 827.476990
448 0 1 2.006980 7.067598 828.297974
449 0 1 1.695040 7.169551 829.182007
450 0 1 1.492030 7.286835 830.151978
451 0 1 1.331510 7.451221 831.028992
452 0 1 1.129210 7.630159 831.950012
453 0 1 1.144600 7.523468 832.934998
454 0 1 1.190060 7.247096 833.872009
455 0 1 1.198880 7.032605 834.820007
456 0 1 1.480900 6.657970 835.593994
457 0 1 2.036420 6.241930 836.257019
458 0 1 2.563210 5.646170 836.787964
459 0 1 3.117310 5.187560 837.401001
460 0 1 3.755440 4.648660 837.833008
461 0 1 4.546680 4.150080 838.018982
462 0 1 5.522610 3.929790 837.978027
463 0 1 6.503800 3.849170 837.890015
464 0 1 7.417719 4.051220 837.577026
465 0 1 8.045839 4.309700 836.917969
466 0 1 8.584093 4.942450 836.372009
467 0 1 9.114530 5.456440 835.770996
468 0 1 9.624790 5.899070 835.143005
469 0 1 10.122730 6.232290 834.384033
470 0 1 10.597230 6.556020 833.655029
471 0 1 11.032640 6.744200 832.809998
472 0 1 11.255160 7.330856 832.044983
473 0 1 11.331420 7.658807 831.174011
474 0 1 11.149870 7.777901 830.235962
475 0 1 11.126860 8.035262 829.261963
476 0 1 11.073339 7.945634 828.328979
477 0 1 10.964340 7.505035 827.469971
478 0 1 10.922029 7.455404 826.416992
479 0 1 11.283640 7.565988 825.502991
480 0 1 11.645041 7.727827 824.603027
481 0 1 11.690701 8.225214 823.747009
482 0 1 11.676750 8.495446 822.781006
483 0 1 11.536700 8.536851 821.815979
484 0 1 11.718980 8.714482 820.888000
485 0 1 11.771811 8.605538 819.958984
486 0 1 11.835720 8.347151 819.028015
487 0 1 11.969851 8.213908 818.101990
488 0 1 12.141790 7.947941 817.148010
489 0 1 12.124070 7.812794 816.197998
490 0 1 12.114070 7.831273 815.234985
491 0 1 12.316339 7.959504 814.286011
492 0 1 12.715760 7.992486 813.377991
493 0 1 12.792891 7.697448 812.422974
494 0 1 12.900590 7.115830 811.640015
495 0 1 13.132410 6.644070 810.859985
496 0 1 13.415210 6.339790 809.885986
497 0 1 13.430640 5.971060 808.971985
498 0 1 13.292971 5.864310 808.080017
499 0 1 13.089180 5.835560 807.161987
500 0 1 12.715429 5.689880 806.297974
501 0 1 12.316000 5.551040 805.473999
502 0 1 11.677070 5.409940 804.710022
503 0 1 10.914050 5.299230 804.135986
504 0 1 10.076520 5.189400 803.648010
505 0 1 9.218360 4.749130 803.502991
506 0 1 8.555195 4.194870 803.200012
507 0 1 7.729080 3.732030 802.860962
508 0 1 7.026700 3.435430 802.286987
509 0 1 6.404860 3.234820 801.582031
510 0 1 5.738290 3.283570 800.877991
511 0 1 5.200880 3.513360 800.151978
512 0 1 4.620480 3.431140 799.333984
513 0 1 4.099290 3.602510 798.561035
514 0 1 3.610820 4.013910 797.841003
515 0 1 3.497920 4.306070 796.889038
516 0 1 3.496380 4.726560 795.997986
517 0 1 3.716920 4.957260 795.072021
518 0 1 4.181660 5.028530 794.244995
519 0 1 4.507620 4.909340 793.363037
520 0 1 5.019400 4.723700 792.552002
521 0 1 5.596770 4.512060 791.877991
522 0 1 6.316030 4.480580 791.242004
523 0 1 7.080571 4.440030 790.650024
524 0 1 7.861518 4.552080 790.135986
525 0 1 8.786804 4.370360 789.841980
526 0 1 9.545930 4.083750 789.254028
527 0 1 10.243670 3.914000 788.620972
528 0 1 10.834080 4.140490 787.882996
529 0 1 11.185210 4.742950 787.242981
530 0 1 11.521560 5.293280 786.434021
531 0 1 11.775490 5.524010 785.559021
532 0 1 12.059999 5.665850 784.688965
533 0 1 12.296280 5.877730 783.744995
534 0 1 12.398300 5.884970 782.799988
535 0 1 12.679250 5.784070 781.921997
536 0 1 12.878901 5.744320 781.011963
537 0 1 12.938129 5.706730 780.070984
538 0 1 12.653460 5.938160 779.119019
539 0 1 12.449120 6.101880 778.192017
540 0 1 11.883590 6.054740 777.385986
541 0 1 11.403040 6.123060 776.556030
542 0 1 11.142910 6.269130 775.651001
543 0 1 11.165580 6.195060 774.671997
544 0 1 11.305901 6.084740 773.764038
545 0 1 11.399530 6.019370 772.811035
546 0 1 11.525700 5.943480 771.833008
547 0 1 11.549789 5.726210 770.914001
548 0 1 11.705280 5.315220 770.010986
549 0 1 11.856680 4.889560 769.077026
550 0 1 12.024220 4.481930 768.195007
551 0 1 11.979060 4.338310 767.250977
552 0 1 12.140079 4.260020 766.315979
553 0 1 12.085410 4.108420 765.372009
554 0 1 11.992510 4.125750 764.417969
555 0 1 11.761209 3.905110 763.539978
556 0 1 11.247610 3.595020 762.752014
557 0 1 10.909640 3.179620 762.009033
558 0 1 10.690710 3.006910 761.068970
559 0 1 10.626090 2.757270 760.164978
560 0 1 10.453880 2.459630 759.270996
561 0 1 10.275740 2.109030 758.401001
562 0 1 10.026410 1.725450 757.575012
563 0 1 10.101920 1.925170 756.635986
564 0 1 10.174129 2.286230 755.740967
565 0 1 10.181170 2.435920 754.789978
566 0 1 10.092270 2.431850 753.828979
567 0 1 10.199110 2.198920 752.856995
568 0 1 10.054090 2.088160 751.898010
569 0 1 9.825080 2.040130 750.926025
570 0 1 9.638470 2.192760 750.020996
571 0 1 9.435980 2.171840 749.057007
572 0 1 8.904489 2.328740 748.195007
573 0 1 8.631559 2.713400 747.377014
574 0 1 8.282468 3.279470 746.692017
575 0 1 8.166167 3.972730 746.085999
576 0 1 8.171189 4.723690 745.499023
577 0 1 8.148000 5.355190 744.788025
578 0 1 8.299753 5.974750 744.075989
579 0 1 8.382493 6.550610 743.338013
580 0 1 8.617543 7.272885 742.719971
581 0 1 8.623639 8.189143 742.195984
582 0 1 8.794864 8.826021 741.450989
583 0 1 8.807896 9.387030 740.573975
584 0 1 8.711535 9.897060 739.752014
585 0 1 8.943861 10.553680 739.108032
586 0 1 9.162750 11.395540 738.653015
587 0 1 9.101160 11.975760 737.861023
588 0 1 8.959676 12.513030 737.033997
589 0 1 8.680815 12.987110 736.247009
590 0 1 8.659633 13.251221 735.286011
591 0 1 8.876391 13.681720 734.432007
592 0 1 9.077960 13.777460 733.490967
593 0 1 9.207070 13.822150 732.486023
594 0 1 9.110780 13.763309 731.523010
595 0 1 8.821751 13.262569 730.708008
596 0 1 8.603286 12.738120 729.906006
597 0 1 8.745881 12.043190 729.240967
598 0 1 8.686615 11.351390 728.533020
599 0 1 8.295275 10.707340 727.908875
600 0 1 8.034784 10.043320 727.291199
601 0 1 7.746175 9.558590 726.452087
602 0 1 7.749924 9.253950 725.582214
603 0 1 7.833646 8.842277 724.714722
604 0 1 8.006633 8.602003 723.830017
605 0 1 8.005892 8.421421 722.877319
606 0 1 7.895220 8.300458 721.944702
607 0 1 7.910666 8.109799 721.015991
608 0 1 7.848920 7.729111 720.156006
609 0 1 7.796309 7.371829 719.284668
610 0 1 7.807830 7.111085 718.387695
611 0 1 7.780917 6.668590 717.425293
612 0 1 7.596789 6.042350 716.711426
613 0 1 7.195179 5.430710 716.071899
614 0 1 6.778570 4.901460 715.332092
615 0 1 6.305880 4.477950 714.593506
616 0 1 6.054530 4.018950 713.701416
617 0 1 5.767970 3.488060 713.011292
618 0 1 5.569000 3.058210 712.190430
619 0 1 5.428250 3.080870 711.235291
620 0 1 5.658510 3.034640 710.305176
621 0 1 5.817900 3.067850 709.331299
622 0 1 6.251070 3.015130 708.512817
623 0 1 6.775670 2.903910 707.671692
624 0 1 7.072445 3.137360 706.752380
625 0 1 7.130555 3.543200 705.860779
626 0 1 6.898040 4.104060 705.104675
627 0 1 7.023123 4.228460 704.194092
628 0 1 7.084150 4.190950 703.144714
629 0 1 6.921490 4.081820 702.175903
630 0 1 6.836490 4.249950 701.248474
631 0 1 6.684190 4.397580 700.251282
632 0 1 6.403290 4.616400 699.358276
633 0 1 6.425030 5.135540 698.489624
634 0 1 6.229720 5.575500 697.711426
635 0 1 5.683630 5.964040 696.979797
636 0 1 5.114690 6.283250 696.312988
637 0 1 4.885650 6.552910 695.415100
638 0 1 4.730170 6.589040 694.396912
639 0 1 4.707080 6.874570 693.395996
640 0 1 4.571900 6.982050 692.439819
641 0 1 4.435120 7.155067 691.449402
642 0 1 4.088070 7.340804 690.574097
643 0 1 3.796410 7.481805 689.669006
644 0 1 3.685300 7.570779 688.693176
645 0 1 3.638020 7.729684 687.730286
646 0 1 3.757510 7.993184 686.792480
647 0 1 3.762850 7.772093 685.885498
648 0 1 4.040440 7.624413 684.997498
649 0 1 4.370250 7.693684 684.105286
650 0 1 4.237560 7.932259 683.229126
651 0 1 4.284530 8.087515 682.288330
652 0 1 4.367160 8.167552 681.329285
653 0 1 4.542990 8.131681 680.409973
654 0 1 4.682200 8.448579 679.562988
655 0 1 4.645300 8.460818 678.637024
656 0 1 4.538070 8.480069 677.704712
657 0 1 4.472720 8.423625 676.755798
658 0 1 4.581000 8.369117 675.825989
659 0 1 4.831750 8.243095 674.896301
660 0 1 5.308410 8.306049 674.033325
661 0 1 5.313610 8.596753 673.131287
662 0 1 5.250990 8.978061 672.265625
663 0 1 5.400470 9.300120 671.345825
664 0 1 5.644870 9.779340 670.602173
665 0 1 5.987860 10.336490 669.897095
666 0 1 6.370080 10.896111 669.175171
667 0 1 6.883690 11.223240 668.383606
668 0 1 7.123018 11.113920 667.454590
669 0 1 7.493259 10.658440 666.672302
670 0 1 8.025451 10.307060 666.006714
671 0 1 8.365367 10.095470 665.145691
672 0 1 8.707702 9.750170 664.350891
673 0 1 8.923972 9.722370 663.409180
674 0 1 9.199140 9.888330 662.491394
675 0 1 9.067870 10.090580 661.536316
676 0 1 8.687695 10.188829 660.634399
677 0 1 8.432208 10.219780 659.698120
678 0 1 8.218217 10.496110 658.761230
679 0 1 7.989829 10.609720 657.876587
680 0 1 7.985466 10.608130 656.942078
681 0 1 8.250322 10.483950 656.034973
682 0 1 8.182372 10.403890 655.041199
683 0 1 8.341081 10.421640 654.107483
684 0 1 8.815921 10.481910 653.296326
685 0 1 9.094410 10.615740 652.429199
686 0 1 9.418660 10.640030 651.431030
687 0 1 9.801150 10.608419 650.515686
688 0 1 9.964581 10.613620 649.614197
689 0 1 10.099760 10.452100 648.672791
690 0 1 10.022480 10.393710 647.683105
691 0 1 10.162750 10.338730 646.723511
692 0 1 10.187260 10.386020 645.709290
693 0 1 10.364520 10.701080 644.781677
694 0 1 10.655350 10.892540 643.862488
695 0 1 10.386710 11.194320 643.001587
696 0 1 9.896850 11.785310 642.323120
697 0 1 9.144860 11.863280 641.748413
698 0 1 8.335960 11.798200 641.220398
699 0 1 7.732734 12.002020 640.438599
700 0 1 7.133585 12.038509 639.712402
701 0 1 6.638260 12.129539 638.851807
702 0 1 6.324110 12.136160 637.941284
703 0 1 6.219770 11.946860 637.006836
704 0 1 6.397150 11.610440 636.064575
705 0 1 6.787240 11.261510 635.233398
706 0 1 7.208838 11.089100 634.376465
707 0 1 7.824931 10.937790 633.620422
708 0 1 8.488781 10.632460 633.001892
709 0 1 9.026450 10.168819 632.285889
710 0 1 9.692660 9.586690 631.812805
711 0 1 10.062880 8.788943 631.453247
712 0 1 10.424610 8.055856 630.896790
713 0 1 10.876360 7.324067 630.371033
714 0 1 10.959600 6.630960 629.676086
715 0 1 11.033720 5.927720 629.031799
716 0 1 10.905530 5.502620 628.213806
717 0 1 11.165980 5.134720 627.379150
718 0 1 11.804770 4.876710 626.726624
719 0 1 12.367210 4.648920 626.019409
720 0 1 12.999310 4.524350 625.342957
721 0 1 13.683100 4.707260 624.773376
722 0 1 14.043730 5.113470 623.910828
723 0 1 14.035770 5.589040 622.967529
724 0 1 13.946671 6.251430 622.255859
725 0 1 13.789949 6.989360 621.729370
726 0 1 13.448840 7.707990 621.245667
727 0 1 12.980940 8.469649 620.910095
728 0 1 12.382250 9.067480 620.430115
729 0 1 11.657730 9.602900 620.029297
730 0 1 11.066600 10.248950 619.577209
731 0 1 10.396720 10.509950 618.986145
732 0 1 10.025780 10.791250 618.170898
733 0 1 9.432380 11.104589 617.402588
734 0 1 8.795854 10.989210 616.636597
735 0 1 8.239666 11.083460 615.870422
736 0 1 7.525999 11.367540 615.196228
737 0 1 7.023160 11.634399 614.362305
738 0 1 6.587500 11.899620 613.591797
739 0 1 6.259530 12.120530 612.671204
740 0 1 5.843470 12.240681 611.799927
741 0 1 5.473790 12.432250 610.920288
742 0 1 5.422300 12.523780 609.937073
743 0 1 5.055150 12.105560 609.126709
744 0 1 4.874730 11.598340 608.325195
745 0 1 4.761940 11.162680 607.450989
746 0 1 4.777980 10.745970 606.536804
747 0 1 5.091340 10.441110 605.655518
748 0 1 5.266880 10.201740 604.710205
749 0 1 5.167020 10.126970 603.762390
750 0 1 4.922020 10.193660 602.823425
751 0 1 4.423820 10.081300 601.952820
752 0 1 4.374490 9.844910 601.036072
753 0 1 4.173870 9.334040 600.260803
754 0 1 3.785860 8.997329 599.471008
755 0 1 3.333050 8.761772 598.635376
756 0 1 2.970910 8.932113 597.700928
757 0 1 2.603390 9.194220 596.827271
758 0 1 2.101710 9.144240 595.992126
759 0 1 1.905130 8.760948 595.087708
760 0 1 1.833180 8.506762 594.187500
761 0 1 1.771460 8.470888 593.218994
762 0 1 1.888180 8.489186 592.258484
763 0 1 1.856460 8.368871 591.278381
764 0 1 1.769330 8.261724 590.347290
765 0 1 1.848960 8.327928 589.380188
766 0 1 1.656910 8.697041 588.516602
767 0 1 1.573650 8.826809 587.558228
768 0 1 1.888130 8.838888 586.652832
769 0 1 2.036830 8.718642 585.732727
770 0 1 2.128450 8.665889 584.762695
771 0 1 2.480580 8.787047 583.863892
772 0 1 2.813770 8.827806 582.927490
773 0 1 2.912010 8.887922 581.959900
774 0 1 2.788560 8.995535 581.050415
775 0 1 2.709310 8.861591 580.027710
776 0 1 2.699140 8.905092 578.978210
777 0 1 2.457490 8.945846 578.082275
778 0 1 2.125980 9.166340 577.179810
779 0 1 1.732130 9.651350 576.381775
780 0 1 1.724540 10.069170 575.588623
781 0 1 1.700280 10.517500 574.731812
782 0 1 1.728170 10.754100 573.814697
783 0 1 1.721050 10.872350 572.827698
784 0 1 2.105240 11.026960 571.967407
785 0 1 2.902320 11.147470 571.343018
786 0 1 3.604610 11.337030 570.803101
787 0 1 4.241620 11.171989 570.108704
788 0 1 4.776900 10.933630 569.371582
789 0 1 5.326850 11.024179 568.620728
790 0 1 5.441750 11.082600 567.551880
791 0 1 5.283740 11.276180 566.620117
792 0 1 5.504540 11.253760 565.697998
793 0 1 5.952590 10.959160 564.870605