LAMMPS data file via MDAnalysis

        1000  atoms
        1000  bonds
        1000  angles
           0  dihedrals
           0  impropers

           1  atom types
           1  bond types
           1  angle types
           0  dihedral types
           0  improper types

0.000000 16.000000 xlo xhi
0.000000 16.000000 ylo yhi
0.000000 1257.000000 zlo zhi


Masses

1 1.000000

Atoms

1 0 1 11.085630 10.707270 452.945984
2 0 1 11.052980 11.186131 453.809998
3 0 1 11.242350 11.446920 454.760986
4 0 1 11.393370 11.355360 455.720001
5 0 1 11.726670 11.070420 456.609009
6 0 1 12.071760 10.959710 457.498993
7 0 1 12.100870 10.470700 458.390991
8 0 1 12.178040 10.204290 459.360992
9 0 1 12.095840 10.207050 460.351990
10 0 1 12.140800 10.235320 461.328979
11 0 1 12.355590 10.223391 462.220001
12 0 1 12.604090 9.733150 463.005981
13 0 1 12.772980 9.176820 463.740997
14 0 1 12.787371 8.824609 464.630981
15 0 1 12.717960 8.403538 465.475006
16 0 1 12.687860 7.820975 466.294006
17 0 1 12.540890 7.103288 466.911987
18 0 1 12.474580 6.512150 467.675995
19 0 1 12.472670 5.917620 468.458984
20 0 1 12.546270 5.233160 469.210999
21 0 1 12.867149 4.799960 470.048004
22 0 1 13.054680 4.447970 470.899994
23 0 1 13.346530 4.520880 471.802002
24 0 1 13.398130 4.681770 472.705994
25 0 1 13.303320 4.977670 473.723022
26 0 1 13.215230 5.246120 474.648987
27 0 1 13.129140 5.608640 475.552979
28 0 1 13.041700 5.591950 476.567993
29 0 1 12.979860 5.575040 477.531006
30 0 1 13.063760 5.467750 478.526978
31 0 1 13.089590 5.290210 479.481995
32 0 1 12.866570 5.174150 480.384003
33 0 1 12.674971 5.094890 481.330017
34 0 1 12.505751 5.288140 482.252014
35 0 1 12.171070 5.328780 483.121002
36 0 1 11.559150 5.243370 483.944000
37 0 1 11.203279 5.131870 484.789978
38 0 1 10.994160 5.121890 485.740997
39 0 1 11.086010 5.070960 486.707001
40 0 1 11.202300 5.073320 487.656006
41 0 1 11.171210 5.384240 488.585022
42 0 1 11.171170 5.556890 489.559021
43 0 1 11.138690 5.562850 490.510010
44 0 1 11.220460 5.491110 491.524994
45 0 1 11.078939 5.346790 492.479004
46 0 1 11.329041 5.158560 493.372986
47 0 1 11.492050 4.945820 494.341980
48 0 1 11.865590 4.727810 495.235992
49 0 1 12.138189 4.759640 496.145996
50 0 1 12.249860 4.869560 497.114990
51 0 1 12.212280 4.933460 498.026001
52 0 1 11.687110 5.097410 498.815979
53 0 1 11.235350 5.189900 499.692993
54 0 1 10.602700 5.161540 500.367981
55 0 1 9.865950 5.234140 501.029999
56 0 1 9.057850 5.434070 501.557007
57 0 1 8.444968 5.390450 502.285004
58 0 1 7.794244 5.577400 502.947998
59 0 1 7.110753 5.600690 503.684998
60 0 1 6.516580 5.456740 504.388000
61 0 1 5.826490 5.240420 505.039001
62 0 1 5.260100 4.826080 505.695007
63 0 1 4.635610 4.734480 506.432007
64 0 1 4.294340 4.252840 507.125000
65 0 1 4.145590 3.708180 507.890991
66 0 1 3.976070 3.436110 508.812988
67 0 1 3.655890 3.397360 509.830017
68 0 1 3.144480 3.406120 510.643005
69 0 1 2.881810 3.461410 511.584991
70 0 1 2.869590 3.469960 512.549011
71 0 1 3.074140 3.587820 513.468018
72 0 1 3.247100 3.537790 514.400024
73 0 1 3.399550 3.414840 515.458008
74 0 1 3.358040 3.464060 516.437988
75 0 1 3.206270 3.715810 517.377014
76 0 1 2.989980 4.020350 518.265991
77 0 1 2.681910 4.168070 519.179993
78 0 1 2.472860 4.225930 520.151978
79 0 1 2.600640 4.286370 521.172974
80 0 1 3.200330 4.297200 522.002991
81 0 1 3.802300 4.506560 522.797974
82 0 1 4.471170 4.713370 523.435974
83 0 1 5.307480 4.900260 523.955017
84 0 1 6.038870 4.913650 524.620972
85 0 1 6.541610 5.008710 525.432007
86 0 1 7.027243 4.897270 526.310974
87 0 1 7.426383 5.067170 527.193970
88 0 1 7.847550 5.286430 528.021973
89 0 1 8.146400 5.856450 528.794495
90 0 1 8.410091 6.308300 529.575806
91 0 1 8.991506 6.637170 530.343506
92 0 1 9.350430 7.087895 531.110229
93 0 1 9.661270 7.592671 531.882568
94 0 1 9.845630 8.066321 532.793823
95 0 1 9.865760 8.271293 533.778625
96 0 1 10.089149 8.522577 534.715210
97 0 1 10.199820 8.607507 535.748291
98 0 1 10.180050 8.228650 536.621887
99 0 1 10.544470 7.935441 537.490601
100 0 1 10.831240 7.827926 538.408997
101 0 1 10.951880 7.805901 539.405518
102 0 1 11.167940 7.638347 540.321716
103 0 1 11.165600 7.557727 541.256714
104 0 1 11.386190 7.698209 542.195496
105 0 1 11.509560 7.672088 543.115906
106 0 1 11.775030 7.578245 544.052002
107 0 1 11.970000 7.453617 544.989624
108 0 1 11.953430 7.288381 545.940979
109 0 1 11.852700 7.509622 546.897583
110 0 1 11.944130 7.628532 547.882507
111 0 1 11.844049 8.183488 548.666016
112 0 1 11.689500 8.644453 549.498901
113 0 1 11.493040 9.186720 550.286377
114 0 1 11.468090 9.707000 551.085693
115 0 1 11.295800 10.359650 551.738708
116 0 1 10.836500 11.031930 552.248413
117 0 1 10.424260 11.282200 553.148499
118 0 1 10.370780 11.460480 554.123169
119 0 1 10.451890 11.733500 555.069702
120 0 1 10.534830 11.944710 555.997009
121 0 1 10.423470 12.311710 556.933228
122 0 1 10.556740 12.546320 557.860413
123 0 1 10.745050 12.850610 558.740173
124 0 1 11.041680 13.062500 559.664001
125 0 1 11.455740 12.725260 560.444702
126 0 1 11.835920 12.433889 561.330994
127 0 1 11.929570 12.374849 562.256897
128 0 1 11.826490 12.425570 563.246704
129 0 1 11.395160 12.664660 564.128906
130 0 1 10.962730 12.990419 564.889526
131 0 1 10.310070 13.219370 565.566528
132 0 1 9.504110 13.312870 566.227600
133 0 1 8.739269 13.639420 566.762024
134 0 1 7.982542 13.886311 567.276794
135 0 1 7.452377 13.767000 568.072998
136 0 1 7.143558 13.290080 568.911011
137 0 1 6.784270 13.046090 569.736877
138 0 1 6.541000 12.807690 570.601196
139 0 1 6.523980 12.773750 571.582397
140 0 1 6.610150 12.914180 572.497620
141 0 1 6.410410 13.074650 573.489319
142 0 1 6.393690 13.127090 574.449829
143 0 1 6.489610 12.977280 575.424683
144 0 1 6.814390 13.020220 576.297180
145 0 1 7.055890 12.876400 577.239380
146 0 1 7.270521 12.994650 578.175110
147 0 1 7.633335 13.030600 579.072327
148 0 1 7.713183 13.211520 580.010681
149 0 1 7.627500 13.323060 581.001831
150 0 1 7.543576 13.603860 581.880981
151 0 1 7.691775 13.729640 582.870300
152 0 1 7.828899 13.805040 583.835876
153 0 1 7.793976 13.844640 584.783386
154 0 1 7.890063 13.576509 585.666382
155 0 1 8.344054 13.301260 586.542114
156 0 1 8.650965 13.005780 587.364868
157 0 1 8.992820 12.586290 588.214783
158 0 1 9.191280 12.532400 589.185913
159 0 1 9.515000 12.201260 590.054016
160 0 1 9.897220 11.720190 590.785400
161 0 1 10.348900 11.274270 591.459778
162 0 1 10.563180 10.640881 592.135986
163 0 1 10.476490 9.939560 592.797913
164 0 1 10.234580 9.291160 593.420898
165 0 1 9.974590 8.880880 594.253479
166 0 1 9.853000 8.891084 595.232788
167 0 1 9.834780 9.034570 596.181091
168 0 1 9.978380 9.160940 597.139526
169 0 1 10.282760 9.218260 598.064209
170 0 1 10.506310 9.626480 598.882019
171 0 1 10.933270 9.939240 599.732605
172 0 1 11.430340 9.969070 600.580200
173 0 1 11.587920 9.946660 601.534607
174 0 1 11.760830 9.830860 602.472412
175 0 1 11.741110 9.855930 603.377686
176 0 1 11.842780 9.965830 604.391296
177 0 1 11.601191 9.976110 605.321289
178 0 1 11.344740 10.066930 606.282471
179 0 1 11.153390 10.513340 607.150208
180 0 1 10.669770 10.681520 607.984619
181 0 1 10.292350 10.624350 608.843201
182 0 1 10.161660 10.820860 609.817200
183 0 1 9.904600 11.088660 610.673279
184 0 1 10.012400 11.573910 611.434692
185 0 1 10.228330 12.170940 612.191895
186 0 1 10.239491 12.556630 613.048218
187 0 1 9.937970 12.921659 613.926086
188 0 1 9.531060 13.017179 614.815613
189 0 1 9.319740 13.119329 615.716797
190 0 1 9.175510 13.016970 616.664978
191 0 1 8.860111 12.803600 617.531128
192 0 1 8.491164 12.353360 618.279297
193 0 1 8.259172 11.659420 618.928955
194 0 1 7.988526 11.053580 619.612122
195 0 1 7.819536 10.431700 620.286865
196 0 1 7.604680 10.002490 621.080505
197 0 1 7.196088 9.754160 621.870789
198 0 1 6.816390 9.542730 622.740479
199 0 1 6.457300 9.193140 623.589539
200 0 1 6.308320 8.989349 624.528992
201 0 1 6.341670 8.937870 625.516296
202 0 1 6.234720 9.129000 626.487244
203 0 1 6.187410 9.239500 627.427734
204 0 1 6.227340 9.695680 628.322754
205 0 1 6.253040 9.803020 629.259949
206 0 1 6.634380 9.546280 630.171143
207 0 1 7.015841 9.444470 630.998718
208 0 1 7.459805 9.435480 631.825256
209 0 1 7.881742 9.815600 632.594727
210 0 1 8.172572 10.040180 633.433289
211 0 1 8.610295 10.223289 634.260132
212 0 1 8.851995 10.501530 635.100281
213 0 1 9.269010 10.714820 635.998840
214 0 1 9.376050 10.874670 636.955566
215 0 1 9.547791 11.048950 637.854126
216 0 1 9.584030 11.338280 638.820496
217 0 1 9.717480 11.433160 639.793091
218 0 1 9.795430 11.179750 640.795227
219 0 1 9.846860 11.117900 641.789001
220 0 1 10.032900 11.278620 642.716980
221 0 1 9.874050 11.531670 643.661194
222 0 1 9.602740 11.713260 644.545288
223 0 1 9.284170 11.925850 645.470215
224 0 1 9.031890 12.222179 646.301086
225 0 1 8.821607 12.345240 647.270386
226 0 1 8.709692 12.339340 648.188477
227 0 1 8.625133 12.459530 649.106628
228 0 1 8.403664 12.576799 649.990295
229 0 1 8.060369 12.756430 650.965027
230 0 1 7.698364 12.818069 651.879089
231 0 1 7.603784 12.634689 652.814026
232 0 1 7.503526 12.396730 653.698608
233 0 1 7.382698 12.163150 654.624817
234 0 1 6.980860 12.068190 655.478394
235 0 1 6.575590 11.836800 656.344482
236 0 1 6.163230 11.287149 657.038696
237 0 1 5.789580 10.992340 657.824402
238 0 1 5.562830 10.546580 658.652405
239 0 1 5.494810 10.010730 659.454773
240 0 1 5.450250 9.664930 660.412598
241 0 1 5.172630 9.251560 661.334290
242 0 1 4.772920 8.922042 662.116699
243 0 1 4.527650 8.451858 662.961609
244 0 1 4.250780 7.959986 663.779480
245 0 1 4.247000 7.473192 664.598572
246 0 1 4.216450 7.070939 665.487488
247 0 1 4.148470 6.681920 666.333191
248 0 1 4.100810 6.189490 667.199890
249 0 1 3.865590 5.731970 668.058716
250 0 1 3.938250 5.451180 668.974976
251 0 1 3.870620 5.048450 669.822815
252 0 1 3.946770 4.607890 670.654785
253 0 1 3.954260 4.156190 671.525818
254 0 1 4.384110 3.920690 672.300171
255 0 1 4.549550 3.789400 673.197510
256 0 1 4.637640 3.755400 674.171204
257 0 1 4.699790 3.656720 675.116211
258 0 1 4.552900 3.796080 676.088928
259 0 1 4.681360 3.894900 677.110291
260 0 1 4.900760 3.897880 678.043518
261 0 1 5.115120 4.230040 678.942688
262 0 1 5.396900 4.483550 679.839294
263 0 1 6.002390 4.592260 680.559082
264 0 1 6.717270 4.940610 681.044617
265 0 1 7.253148 5.323260 681.799377
266 0 1 7.768311 5.675760 682.489014
267 0 1 8.033153 6.061890 683.377502
268 0 1 8.316129 6.615220 684.149414
269 0 1 8.265892 7.323609 684.829773
270 0 1 8.428267 7.981201 685.453186
271 0 1 8.527451 8.620650 686.196289
272 0 1 8.470014 9.222660 686.958191
273 0 1 8.134110 9.844720 687.680786
274 0 1 7.788361 10.427410 688.367676
275 0 1 7.502711 10.909190 689.152100
276 0 1 7.096862 11.120131 690.015808
277 0 1 6.660560 11.376120 690.788513
278 0 1 6.185060 11.401310 691.579590
279 0 1 5.573680 11.611300 692.297791
280 0 1 5.062820 11.656860 693.164307
281 0 1 4.789020 11.867010 694.047974
282 0 1 5.083880 12.143909 694.915222
283 0 1 5.327180 12.414320 695.849304
284 0 1 5.763710 12.480000 696.708191
285 0 1 6.005120 12.464160 697.669800
286 0 1 6.129090 12.203400 698.579102
287 0 1 6.158210 11.992559 699.501892
288 0 1 6.018150 11.756701 700.466675
289 0 1 5.721190 11.544540 701.415894
290 0 1 5.482670 10.986680 702.158203
291 0 1 5.328490 10.551980 702.989075
292 0 1 5.362900 10.309160 703.923523
293 0 1 5.234350 10.122900 704.875732
294 0 1 5.032100 10.152570 705.805908
295 0 1 5.039410 9.782560 706.674500
296 0 1 4.982190 9.284170 707.516296
297 0 1 5.003720 8.891494 708.380371
298 0 1 4.916870 8.164162 709.058105
299 0 1 4.845290 7.600666 709.833679
300 0 1 5.080060 7.009299 710.629883
301 0 1 5.373070 6.888230 711.535767
302 0 1 5.597130 7.186357 712.403198
303 0 1 5.524450 7.142904 713.354675
304 0 1 5.561460 6.718610 714.280090
305 0 1 5.609910 6.187870 715.053833
306 0 1 5.418590 6.191130 715.983093
307 0 1 5.462590 6.346450 716.937988
308 0 1 5.456950 6.440110 717.867310
309 0 1 5.472690 6.683110 718.821411
310 0 1 5.439320 7.020600 719.729126
311 0 1 5.298250 7.421439 720.647217
312 0 1 5.468640 7.950392 721.462097
313 0 1 5.703310 8.337742 722.278503
314 0 1 5.803310 8.701159 723.192688
315 0 1 5.891940 8.931542 724.143677
316 0 1 5.938800 9.068330 725.123169
317 0 1 6.120480 9.057660 726.114014
318 0 1 6.220470 9.076700 727.052307
319 0 1 6.519470 8.907487 727.928284
320 0 1 6.941670 8.791979 728.768982
321 0 1 7.419882 8.866726 729.582031
322 0 1 7.620160 8.961101 730.481018
323 0 1 8.023900 9.437690 731.193970
324 0 1 8.353937 9.534890 732.096985
325 0 1 8.440132 9.788000 732.971985
326 0 1 8.725726 9.694700 733.895996
327 0 1 9.021650 9.708090 734.796021
328 0 1 9.415660 9.736980 735.684021
329 0 1 9.561700 9.752910 736.663025
330 0 1 9.467100 9.816470 737.596985
331 0 1 9.472790 9.779280 738.541992
332 0 1 9.597589 9.989150 739.509033
333 0 1 9.673550 9.823570 740.442017
334 0 1 9.633350 9.389110 741.314026
335 0 1 9.837890 9.210110 742.229004
336 0 1 10.142120 9.093580 743.164001
337 0 1 10.549570 9.009480 744.035034
338 0 1 10.955790 8.988702 744.934021
339 0 1 11.399380 9.334050 745.729980
340 0 1 11.734840 9.577670 746.677979
341 0 1 11.913570 9.704770 747.594971
342 0 1 12.051270 9.719570 748.515991
343 0 1 11.701281 9.628750 749.379028
344 0 1 11.441730 9.793290 750.260010
345 0 1 11.170560 9.781730 751.140991
346 0 1 10.597120 9.673800 751.960022
347 0 1 10.053130 9.535960 752.786987
348 0 1 9.589350 9.372740 753.583008
349 0 1 9.341770 9.517770 754.512024
350 0 1 9.085290 9.348560 755.435974
351 0 1 8.730188 9.449280 756.322021
352 0 1 8.191448 9.692300 757.068970
353 0 1 7.624448 9.606570 757.864990
354 0 1 7.053779 9.835660 758.619019
355 0 1 6.343650 10.003640 759.247986
356 0 1 5.931340 10.223760 760.110962
357 0 1 5.739680 10.489660 761.044983
358 0 1 5.482360 10.814330 761.984009
359 0 1 5.329000 11.388440 762.705994
360 0 1 5.214400 12.054880 763.339966
361 0 1 5.230890 12.697451 764.078003
362 0 1 5.553620 12.880170 764.942993
363 0 1 5.990290 12.728860 765.770996
364 0 1 6.537450 12.463261 766.520996
365 0 1 7.261276 12.105511 767.205017
366 0 1 7.685246 11.630500 767.849976
367 0 1 8.298917 11.626950 768.617004
368 0 1 9.032630 11.824950 769.174988
369 0 1 9.561370 12.206210 769.838989
370 0 1 10.116400 12.503740 770.609985
371 0 1 10.490000 12.954491 771.410034
372 0 1 10.678659 13.377090 772.289978
373 0 1 10.610600 13.344360 773.255981
374 0 1 10.439140 13.250401 774.177979
375 0 1 10.093719 13.498690 775.112000
376 0 1 9.863530 13.766180 775.994995
377 0 1 9.301970 14.178550 776.632019
378 0 1 8.866947 14.648769 777.382019
379 0 1 8.371650 14.793449 778.214966
380 0 1 8.173285 14.758860 779.151978
381 0 1 8.255987 14.669420 780.089966
382 0 1 8.733851 14.294200 780.846008
383 0 1 9.210990 13.998779 781.606995
384 0 1 9.770730 13.630910 782.304993
385 0 1 10.318020 13.208920 783.062988
386 0 1 10.861950 12.845460 783.773987
387 0 1 11.162940 12.356920 784.624023
388 0 1 11.059890 11.822411 785.495972
389 0 1 11.127501 11.315890 786.247009
390 0 1 11.279020 10.903640 787.070007
391 0 1 11.091080 10.964540 788.010010
392 0 1 10.868430 10.883760 788.953003
393 0 1 10.779440 10.809540 789.874023
394 0 1 10.734819 10.775130 790.830994
395 0 1 10.802290 10.879860 791.783997
396 0 1 10.799510 10.930560 792.759033
397 0 1 10.300489 11.249620 793.589966
398 0 1 9.932530 11.484340 794.401978
399 0 1 9.272370 11.710510 795.213013
400 0 1 8.560556 11.592260 795.927002
401 0 1 7.795934 11.555210 796.604980
402 0 1 7.002139 11.318250 797.070007
403 0 1 6.216940 10.893620 797.483032
404 0 1 5.484830 10.363260 797.912964
405 0 1 5.088540 9.639970 798.375000
406 0 1 4.720850 8.921929 798.838989
407 0 1 4.633300 8.131389 799.424988
408 0 1 4.799930 7.382585 800.002991
409 0 1 5.055010 6.847850 800.724976
410 0 1 5.073620 6.239540 801.521973
411 0 1 5.055570 5.685650 802.264038
412 0 1 4.798850 5.258600 803.085022
413 0 1 4.696460 4.950200 804.037964
414 0 1 4.661910 4.718570 804.953003
415 0 1 4.750560 4.458700 805.869995
416 0 1 4.584280 4.291650 806.835999
417 0 1 4.393870 4.326310 807.860962
418 0 1 4.273470 4.600180 808.806030
419 0 1 4.030820 4.772160 809.712036
420 0 1 3.942930 4.827400 810.697021
421 0 1 3.839340 4.915280 811.651001
422 0 1 3.839970 5.209700 812.651978
423 0 1 4.147350 5.788910 813.353027
424 0 1 4.185940 6.311810 814.172974
425 0 1 3.986860 6.762320 815.041992
426 0 1 4.038430 6.914650 815.997009
427 0 1 4.142910 7.096586 816.945984
428 0 1 3.899560 7.405299 817.867004
429 0 1 4.009940 7.524023 818.794006
430 0 1 3.949100 7.758211 819.703003
431 0 1 3.747220 7.911304 820.596985
432 0 1 3.992330 7.745103 821.507996
433 0 1 4.297960 7.642928 822.414978
434 0 1 4.755900 8.019638 823.195007
435 0 1 5.293110 8.339372 823.934021
436 0 1 5.648130 8.559004 824.768982
437 0 1 5.697660 9.111150 825.593994
438 0 1 5.487670 9.590020 826.464966
439 0 1 5.208380 9.763520 827.370972
440 0 1 5.101600 9.870730 828.330994
441 0 1 5.269420 10.122250 829.250977
442 0 1 5.468200 10.439090 830.127991
443 0 1 5.803070 10.597540 831.018982
444 0 1 6.141980 10.684020 831.898987
445 0 1 6.391260 10.434430 832.830017
446 0 1 6.655810 10.265160 833.744995
447 0 1 7.032243 9.965630 834.573975
448 0 1 7.537360 9.479720 835.187988
449 0 1 8.095712 8.945796 835.734985
450 0 1 8.826644 8.361226 835.886963
451 0 1 9.413820 7.670136 835.820007
452 0 1 10.220910 7.192828 835.660034
453 0 1 10.873970 6.509800 835.343018
454 0 1 11.329230 5.962720 834.643982
455 0 1 11.644260 5.344920 834.015991
456 0 1 11.729640 4.821940 833.231995
457 0 1 11.403680 4.368800 832.458008
458 0 1 11.125280 4.185410 831.544006
459 0 1 11.046980 3.979730 830.617981
460 0 1 11.189890 3.707370 829.728027
461 0 1 11.215190 3.244920 828.817993
462 0 1 11.378030 3.050920 827.889038
463 0 1 11.323040 2.889260 826.934998
464 0 1 11.115410 2.942920 826.002991
465 0 1 10.970430 2.959050 825.054993
466 0 1 10.752390 3.304320 824.161987
467 0 1 10.500940 3.822350 823.358032
468 0 1 10.203260 4.254860 822.577026
469 0 1 10.015779 4.780040 821.755981
470 0 1 9.599500 5.354580 821.028992
471 0 1 9.283860 5.978960 820.408997
472 0 1 9.081550 6.830550 820.057983
473 0 1 9.053190 7.645771 819.479980
474 0 1 8.968437 8.427764 818.940002
475 0 1 8.694276 9.151870 818.367981
476 0 1 8.361861 9.831320 817.811035
477 0 1 7.983296 10.353600 817.088989
478 0 1 7.593357 10.797390 816.318970
479 0 1 7.290834 11.219550 815.457031
480 0 1 7.043151 11.642070 814.585999
481 0 1 6.917700 11.886090 813.648010
482 0 1 6.536410 12.225650 812.802002
483 0 1 6.156110 12.347560 811.817017
484 0 1 5.685940 12.331369 810.984985
485 0 1 5.319450 12.367270 810.169006
486 0 1 4.983270 12.545850 809.281006
487 0 1 5.133490 12.688150 808.353027
488 0 1 5.569270 12.687810 807.468994
489 0 1 6.214380 12.841311 806.838989
490 0 1 7.069362 12.733311 806.317017
491 0 1 7.886496 12.657230 805.737000
492 0 1 8.255564 12.443610 804.851013
493 0 1 8.634121 12.439110 803.934021
494 0 1 9.062560 12.194139 803.127991
495 0 1 9.516070 11.942590 802.287964
496 0 1 9.962220 11.599000 801.453003
497 0 1 10.383290 11.263660 800.693970
498 0 1 10.744820 10.904810 799.919983
499 0 1 11.464890 10.510600 799.429016
500 0 1 12.083040 10.085260 798.885986
501 0 1 12.327610 9.203030 798.364990
502 0 1 12.540239 8.470355 797.794983
503 0 1 12.807261 7.758741 797.257019
504 0 1 12.684470 7.039278 796.641968
505 0 1 12.256360 6.510640 796.015991
506 0 1 11.679790 5.877380 795.437012
507 0 1 10.917640 5.452760 795.037964
508 0 1 10.295850 5.002340 794.453979
509 0 1 9.591760 4.621000 793.971008
510 0 1 8.796591 4.357280 793.364990
511 0 1 8.303574 4.009350 792.588013
512 0 1 7.990267 3.451790 791.927979
513 0 1 7.888918 3.235370 790.927979
514 0 1 7.688338 2.975440 789.992004
515 0 1 7.576143 2.793250 789.046997
516 0 1 7.537664 2.443110 788.125000
517 0 1 7.541905 2.154740 787.177979
518 0 1 7.296259 1.865220 786.354004
519 0 1 6.790330 1.923550 785.541016
520 0 1 6.311360 2.067180 784.686035
521 0 1 5.795160 2.331110 783.885986
522 0 1 5.202120 2.511910 783.122009
523 0 1 4.841180 2.734960 782.247009
524 0 1 4.994950 3.243910 781.414978
525 0 1 5.254510 3.947950 780.799988
526 0 1 5.707830 4.389920 780.093994
527 0 1 6.123210 4.653980 779.221008
528 0 1 6.106730 5.134890 778.365967
529 0 1 6.161490 5.857140 777.705994
530 0 1 6.557070 6.537730 777.166016
531 0 1 6.979350 6.934090 776.401978
532 0 1 7.177440 7.424935 775.651001
533 0 1 7.233949 7.586602 774.744019
534 0 1 7.693822 7.759426 773.929016
535 0 1 8.160024 8.042873 773.080017
536 0 1 8.426098 8.565047 772.320007
537 0 1 8.915132 8.876312 771.565002
538 0 1 9.430250 9.379110 770.971985
539 0 1 9.745210 9.855550 770.238037
540 0 1 9.920340 10.382140 769.457031
541 0 1 10.311140 10.878930 768.640015
542 0 1 10.953120 11.025690 767.854980
543 0 1 11.529760 10.799370 767.125977
544 0 1 12.104760 10.624640 766.312012
545 0 1 12.460751 10.706320 765.429993
546 0 1 12.472170 10.503220 764.546021
547 0 1 12.408210 10.456700 763.598999
548 0 1 12.262560 10.310280 762.687988
549 0 1 12.015289 10.498150 761.754028
550 0 1 12.176630 10.628531 760.778992
551 0 1 12.249280 10.708050 759.862000
552 0 1 12.043739 10.881520 758.926025
553 0 1 11.802190 10.780581 758.026001
554 0 1 11.205630 10.607480 757.270020
555 0 1 10.644160 10.299670 756.606018
556 0 1 10.295200 10.299570 755.697998
557 0 1 10.029470 10.811590 754.914978
558 0 1 9.723450 11.021080 753.926025
559 0 1 9.527740 11.090560 752.999023
560 0 1 9.389200 10.933800 752.059021
561 0 1 9.378240 11.043740 751.088989
562 0 1 9.242260 11.236450 750.156982
563 0 1 9.193710 11.314341 749.203979
564 0 1 9.067280 11.203671 748.263000
565 0 1 9.117930 11.219151 747.336975
566 0 1 9.071390 11.186040 746.367004
567 0 1 8.871968 11.026240 745.419983
568 0 1 8.931204 10.961370 744.463013
569 0 1 9.143300 11.069880 743.520020
570 0 1 9.298220 11.389910 742.617004
571 0 1 9.668940 11.648320 741.783020
572 0 1 10.015050 11.972350 740.906006
573 0 1 10.081620 12.053570 739.966980
574 0 1 9.833290 12.033290 739.056030
575 0 1 9.629460 12.038820 738.104004
576 0 1 9.307840 11.989320 737.200989
577 0 1 8.842035 12.032949 736.348999
578 0 1 8.249667 12.153500 735.541016
579 0 1 7.818039 12.338699 734.687012
580 0 1 7.356192 12.260099 733.833984
581 0 1 6.789270 12.259020 732.997986
582 0 1 6.444090 12.301060 732.062012
583 0 1 6.310500 12.257380 731.151978
584 0 1 6.095220 12.177720 730.244019
585 0 1 6.203620 12.102819 729.283997
586 0 1 6.506120 11.669670 728.467407
587 0 1 6.907880 11.468250 727.599304
588 0 1 7.058847 11.092510 726.755920
589 0 1 7.763036 10.792960 726.182190
590 0 1 8.449792 10.172240 725.954468
591 0 1 8.953889 9.607390 725.369873
592 0 1 9.276460 9.104220 724.551086
593 0 1 9.598220 8.783355 723.708923
594 0 1 9.956380 8.529957 722.858215
595 0 1 10.032800 8.114378 721.954895
596 0 1 9.851851 8.065745 721.062683
597 0 1 9.737920 8.317292 720.156677
598 0 1 9.586210 8.392668 719.197205
599 0 1 9.139990 8.489553 718.368408
600 0 1 8.691099 8.713697 717.491333
601 0 1 8.373374 9.146940 716.694214
602 0 1 7.830922 9.663430 716.039612
603 0 1 7.503884 10.328120 715.463684
604 0 1 6.970380 10.446470 714.677185
605 0 1 6.352520 10.729160 713.863220
606 0 1 6.156250 10.997240 712.975098
607 0 1 6.311480 11.366770 712.057617
608 0 1 6.100860 11.632380 711.167419
609 0 1 6.024690 11.747730 710.165588
610 0 1 5.693660 11.880710 709.248169
611 0 1 5.236190 11.839870 708.413025
612 0 1 5.084520 11.954050 707.440002
613 0 1 4.964610 12.129430 706.538025
614 0 1 5.037870 12.261351 705.604797
615 0 1 5.264130 12.566800 704.720276
616 0 1 5.739710 12.900930 703.926575
617 0 1 6.198760 13.213921 703.038208
618 0 1 6.660920 13.582500 702.226379
619 0 1 6.952760 13.833270 701.334900
620 0 1 7.167268 14.018030 700.411804
621 0 1 7.439388 13.969709 699.472595
622 0 1 7.885302 13.981421 698.622498
623 0 1 8.247890 13.998180 697.711914
624 0 1 8.637532 13.639240 696.943726
625 0 1 8.899975 13.444050 696.016418
626 0 1 9.483320 13.307631 695.172485
627 0 1 10.183830 13.292830 694.495789
628 0 1 10.640340 13.124100 693.635681
629 0 1 11.106080 12.810480 692.739502
630 0 1 11.468770 12.094990 692.085327
631 0 1 11.796860 11.649320 691.353882
632 0 1 12.329760 11.020170 690.887817
633 0 1 12.785070 10.445971 690.295593
634 0 1 13.123751 9.670810 689.736877
635 0 1 13.535419 8.988603 689.176025
636 0 1 13.969570 8.663730 688.433289
637 0 1 14.215281 8.078292 687.709717
638 0 1 14.346830 7.528741 686.935486
639 0 1 14.377080 6.949880 686.239380
640 0 1 14.128380 6.410580 685.485413
641 0 1 13.966200 5.706430 684.804688
642 0 1 13.786170 5.327060 683.936890
643 0 1 13.550510 5.074620 683.022888
644 0 1 13.028080 4.859430 682.184814
645 0 1 12.244030 4.623820 681.601013
646 0 1 11.730350 4.422060 680.733521
647 0 1 11.268770 4.529000 679.877502
648 0 1 10.804590 4.480080 679.071777
649 0 1 10.137450 4.282320 678.401672
650 0 1 9.503410 4.395500 677.646301
651 0 1 9.215520 4.144240 676.805298
652 0 1 8.751107 4.133460 675.925110
653 0 1 8.372891 4.103290 675.101196
654 0 1 7.854401 4.215940 674.333313
655 0 1 7.607104 4.077100 673.412781
656 0 1 7.525924 4.010050 672.435486
657 0 1 7.544198 3.980320 671.427368
658 0 1 7.807272 3.821140 670.505310
659 0 1 8.173121 3.580410 669.648193
660 0 1 8.293607 3.412280 668.689575
661 0 1 8.118735 3.055730 667.809570
662 0 1 7.992245 2.644520 666.995911
663 0 1 7.915875 2.280280 666.038574
664 0 1 7.747681 2.350040 665.104126
665 0 1 7.536872 2.269820 664.164612
666 0 1 7.374435 2.395940 663.194275
667 0 1 7.315814 2.486000 662.252502
668 0 1 7.318970 2.562800 661.266479
669 0 1 7.261195 2.730170 660.355225
670 0 1 6.739890 3.032360 659.637085
671 0 1 6.253790 3.197260 658.858276
672 0 1 5.581700 3.147380 658.172424
673 0 1 5.092070 3.488960 657.424011
674 0 1 4.621060 3.750720 656.579102
675 0 1 4.194150 4.299840 655.944275
676 0 1 3.795040 4.467080 655.093384
677 0 1 3.478910 4.612500 654.228027
678 0 1 3.166710 4.954480 653.359985
679 0 1 3.129080 5.111460 652.437683
680 0 1 2.944000 4.978190 651.526184
681 0 1 2.694190 4.706320 650.632874
682 0 1 2.811580 4.406840 649.623108
683 0 1 2.863100 4.345830 648.685486
684 0 1 3.051550 4.113280 647.763000
685 0 1 2.948690 3.930460 646.807495
686 0 1 3.018710 3.725730 645.873718
687 0 1 3.041710 3.762010 644.884705
688 0 1 2.909070 3.555280 643.957397
689 0 1 2.998500 3.573580 643.039795
690 0 1 3.442900 3.693900 642.176392
691 0 1 3.768710 3.583460 641.286804
692 0 1 4.483520 3.588070 640.579407
693 0 1 5.104250 3.817290 639.894104
694 0 1 5.723260 4.034800 639.101685
695 0 1 6.184380 4.437090 638.381714
696 0 1 6.871470 4.947340 637.839417
697 0 1 7.526377 5.294970 637.259644
698 0 1 8.116323 5.555900 636.587463
699 0 1 8.720684 5.152850 635.891113
700 0 1 9.014060 4.836260 635.031372
701 0 1 9.198190 4.786460 634.042664
702 0 1 9.298470 4.674130 633.057922
703 0 1 9.440331 4.846900 632.184143
704 0 1 9.793540 4.966480 631.284485
705 0 1 10.285830 4.744900 630.415710
706 0 1 10.705720 4.656760 629.574463
707 0 1 11.088079 4.479150 628.677795
708 0 1 11.095310 4.515950 627.700562
709 0 1 10.920420 4.620810 626.732544
710 0 1 10.702470 4.456160 625.802307
711 0 1 10.768940 4.036760 624.900940
712 0 1 10.690770 3.700430 624.007080
713 0 1 10.574360 3.535770 623.027344
714 0 1 10.391990 3.377290 622.119385
715 0 1 10.245530 3.265820 621.161804
716 0 1 10.301310 3.318950 620.250671
717 0 1 10.474150 3.361660 619.295105
718 0 1 10.525640 3.584860 618.343018
719 0 1 10.275590 4.242130 617.602478
720 0 1 10.119210 4.747010 616.795288
721 0 1 10.013520 5.561350 616.286499
722 0 1 9.669180 6.420030 615.767822
723 0 1 9.429120 7.202865 615.223328
724 0 1 9.083810 7.794472 614.571777
725 0 1 8.961486 8.227462 613.783569
726 0 1 8.701403 8.555502 612.899902
727 0 1 8.412446 8.755481 611.982971
728 0 1 8.207546 9.007700 611.065308
729 0 1 7.899722 9.459140 610.275513
730 0 1 7.516284 9.853610 609.413879
731 0 1 7.188066 10.270830 608.646912
732 0 1 7.100806 10.744980 607.771606
733 0 1 6.841460 11.149290 607.011902
734 0 1 6.458680 11.415990 606.058777
735 0 1 6.368240 11.555350 605.099487
736 0 1 6.328350 11.512040 604.072815
737 0 1 6.577950 11.442920 603.187622
738 0 1 6.600880 11.206181 602.225098
739 0 1 6.452530 10.858931 601.329712
740 0 1 6.630850 10.478550 600.415100
741 0 1 7.013616 10.072670 599.651123
742 0 1 7.302095 9.856010 598.783813
743 0 1 7.312876 9.582890 597.894897
744 0 1 7.226692 9.309100 596.942200
745 0 1 7.408540 9.277700 595.981995
746 0 1 7.494464 9.289120 594.973083
747 0 1 7.353338 9.029830 594.057983
748 0 1 7.127100 9.089250 593.083618
749 0 1 7.010081 9.344150 592.131226
750 0 1 6.984260 9.360840 591.183777
751 0 1 7.105033 9.123290 590.207520
752 0 1 7.131856 8.822629 589.298218
753 0 1 7.050017 8.675615 588.345276
754 0 1 7.300094 8.478367 587.478516
755 0 1 7.204465 8.356559 586.478516
756 0 1 7.252268 8.466076 585.508728
757 0 1 7.556021 8.341676 584.609680
758 0 1 7.694364 8.241182 583.704407
759 0 1 7.698665 8.315865 582.734192
760 0 1 7.546085 8.468182 581.790283
761 0 1 7.241717 8.682320 580.829224
762 0 1 7.296892 8.903575 579.924011
763 0 1 7.291498 9.032480 578.914490
764 0 1 7.419390 9.204080 577.889893
765 0 1 7.619165 9.328400 576.905823
766 0 1 7.802179 9.377380 575.945923
767 0 1 8.040223 9.041900 575.057312
768 0 1 8.180716 9.056310 574.121887
769 0 1 8.325668 9.118850 573.185791
770 0 1 8.164060 9.219110 572.196472
771 0 1 8.044333 9.153240 571.255676
772 0 1 8.195183 9.204220 570.318115
773 0 1 8.406604 9.040400 569.373169
774 0 1 8.559462 8.686916 568.504089
775 0 1 8.482615 8.280590 567.682983
776 0 1 8.407863 7.882108 566.819519
777 0 1 8.517984 7.614962 565.914429
778 0 1 8.399444 7.484617 564.963501
779 0 1 8.519732 7.511763 563.978271
780 0 1 8.439260 7.230615 563.084290
781 0 1 8.678762 6.840720 562.243286
782 0 1 8.619487 7.070175 561.272705
783 0 1 8.520496 7.174617 560.282715
784 0 1 8.475910 7.068915 559.341125
785 0 1 8.294744 6.884200 558.455505
786 0 1 8.304758 6.867610 557.527100
787 0 1 8.393246 6.954100 556.538574
788 0 1 8.543688 7.132304 555.591797