LAMMPS data file via MDAnalysis

        1000  atoms
        1000  bonds
        1000  angles
           0  dihedrals
           0  impropers

           1  atom types
           1  bond types
           1  angle types
           0  dihedral types
           0  improper types

0.000000 16.000000 xlo xhi
0.000000 16.000000 ylo yhi
0.000000 1257.000000 zlo zhi


Masses

1 1.000000

Atoms

1 0 1 9.395340 11.355100 461.811005
2 0 1 8.873486 10.841590 462.463013
3 0 1 8.366248 10.447660 463.231018
4 0 1 7.850158 10.290830 464.016998
5 0 1 7.216523 10.511220 464.734985
6 0 1 6.908020 10.598410 465.705017
7 0 1 6.526840 10.613760 466.570007
8 0 1 5.730330 10.536030 467.153992
9 0 1 5.043450 10.306110 467.798004
10 0 1 4.374940 10.132350 468.438995
11 0 1 3.771650 9.626790 469.044006
12 0 1 3.515070 8.869618 469.562012
13 0 1 3.203250 8.111049 470.020020
14 0 1 3.446920 7.676584 470.776978
15 0 1 3.754550 7.141096 471.576996
16 0 1 4.122690 6.594630 472.281006
17 0 1 4.317990 6.026050 473.039001
18 0 1 4.579600 5.635700 473.901978
19 0 1 4.781360 5.240950 474.750000
20 0 1 5.171060 5.051600 475.614014
21 0 1 5.473190 4.936280 476.484985
22 0 1 5.740240 4.912250 477.377014
23 0 1 5.979930 5.044120 478.354004
24 0 1 6.484540 5.327540 479.085999
25 0 1 6.957930 5.448800 479.901001
26 0 1 7.370236 5.040340 480.721985
27 0 1 7.754689 4.798660 481.580017
28 0 1 7.942856 4.476330 482.450989
29 0 1 8.300252 4.404580 483.338013
30 0 1 8.516818 4.391060 484.205017
31 0 1 8.552316 4.518440 485.138000
32 0 1 8.674479 4.658150 486.088989
33 0 1 8.755184 4.878360 487.044006
34 0 1 8.689871 5.280770 487.891998
35 0 1 8.921741 5.613500 488.729980
36 0 1 9.236030 6.087960 489.483002
37 0 1 9.687940 6.697650 490.190979
38 0 1 10.496240 7.033266 490.653992
39 0 1 11.264111 7.236539 491.218018
40 0 1 11.748350 7.861723 491.713013
41 0 1 11.900209 8.539629 492.425995
42 0 1 11.994329 9.251600 493.050995
43 0 1 11.883650 9.649830 493.895020
44 0 1 11.816170 9.809790 494.923004
45 0 1 11.598960 9.576180 495.828003
46 0 1 11.304580 9.125669 496.721008
47 0 1 10.912180 8.979656 497.628998
48 0 1 10.483140 8.941039 498.507996
49 0 1 9.758180 8.978007 499.164001
50 0 1 8.849925 9.014400 499.654999
51 0 1 8.077507 8.753321 500.237000
52 0 1 7.279007 8.764284 500.786987
53 0 1 6.728600 8.924308 501.496002
54 0 1 6.317010 9.139370 502.354004
55 0 1 5.909010 9.208611 503.259003
56 0 1 5.638360 9.376230 504.173004
57 0 1 5.466330 9.650650 505.089996
58 0 1 5.034280 9.777900 505.966003
59 0 1 4.603040 9.825980 506.824005
60 0 1 4.227480 9.698930 507.713989
61 0 1 3.856160 9.533150 508.522003
62 0 1 3.331500 9.019190 509.234985
63 0 1 3.184710 8.665041 510.128998
64 0 1 3.105230 8.340350 511.058990
65 0 1 2.699030 8.004170 511.928009
66 0 1 2.548400 7.419421 512.698975
67 0 1 2.220160 7.005554 513.541016
68 0 1 1.683060 7.337598 514.266968
69 0 1 1.161000 7.704105 514.990967
70 0 1 1.117950 8.175228 515.864014
71 0 1 1.229330 8.498050 516.765991
72 0 1 1.405090 8.855587 517.695984
73 0 1 1.537330 9.128070 518.622009
74 0 1 1.855600 9.316790 519.490967
75 0 1 2.060510 9.628270 520.405029
76 0 1 2.307510 9.795321 521.346985
77 0 1 2.669240 9.631010 522.164978
78 0 1 2.947380 9.688020 523.052002
79 0 1 3.449520 9.662790 523.916992
80 0 1 3.824660 9.595500 524.786987
81 0 1 4.022600 9.447440 525.710999
82 0 1 4.332280 9.377110 526.697021
83 0 1 4.449170 9.223000 527.635986
84 0 1 4.396680 8.906423 528.587891
85 0 1 4.470410 8.705455 529.510925
86 0 1 4.416850 8.620484 530.472412
87 0 1 4.677260 8.384271 531.352417
88 0 1 4.767350 8.177745 532.342773
89 0 1 5.062480 8.139692 533.305908
90 0 1 5.270360 8.064260 534.253174
91 0 1 5.423950 7.906492 535.226013
92 0 1 5.730840 7.771457 536.195618
93 0 1 6.308320 7.657018 536.952393
94 0 1 6.634780 7.715078 537.909180
95 0 1 6.914440 7.625577 538.839233
96 0 1 7.182831 7.477332 539.761230
97 0 1 7.339519 7.130252 540.663574
98 0 1 7.374637 6.983220 541.595825
99 0 1 7.405285 6.720490 542.508911
100 0 1 7.132244 6.563290 543.446777
101 0 1 6.910150 6.238790 544.302307
102 0 1 6.530210 5.878930 545.229980
103 0 1 6.189210 5.653740 546.114014
104 0 1 6.037010 5.555150 547.142212
105 0 1 6.272330 5.228130 547.995422
106 0 1 6.758390 4.947280 548.777222
107 0 1 7.420360 4.780680 549.483093
108 0 1 7.770016 4.446340 550.328369
109 0 1 8.023469 3.830690 551.032776
110 0 1 8.156124 3.103530 551.621582
111 0 1 8.254644 2.572520 552.356079
112 0 1 8.368580 2.395440 553.300476
113 0 1 8.597521 2.461240 554.268311
114 0 1 8.647658 2.792040 555.176208
115 0 1 8.798736 2.972040 556.148315
116 0 1 8.645245 3.379710 557.016296
117 0 1 8.408405 3.760550 557.847168
118 0 1 8.312959 4.146010 558.713196
119 0 1 8.485523 4.566920 559.540710
120 0 1 8.931194 4.634110 560.401917
121 0 1 9.243650 4.817200 561.288086
122 0 1 9.337630 4.992890 562.271729
123 0 1 9.436831 5.245640 563.216797
124 0 1 9.453480 5.655820 564.130981
125 0 1 9.302980 5.883200 565.063904
126 0 1 9.133860 6.061090 566.000732
127 0 1 9.210140 6.384110 566.868591
128 0 1 9.408360 6.707340 567.800293
129 0 1 9.596420 6.864740 568.766907
130 0 1 9.547170 6.766020 569.792419
131 0 1 9.467250 6.564790 570.724121
132 0 1 9.388570 6.768710 571.638794
133 0 1 9.267890 6.742730 572.591003
134 0 1 8.918287 6.820360 573.519531
135 0 1 8.817550 6.747530 574.541992
136 0 1 8.480129 7.031628 575.409119
137 0 1 8.046677 7.402793 576.230408
138 0 1 8.001808 7.753984 577.135803
139 0 1 8.445062 7.930379 578.029175
140 0 1 9.045740 7.927247 578.800781
141 0 1 9.430020 7.711078 579.657593
142 0 1 9.954700 7.716480 580.501831
143 0 1 10.441420 7.701635 581.324585
144 0 1 11.164150 7.757809 582.014526
145 0 1 11.673280 7.953855 582.779602
146 0 1 12.184760 8.396329 583.426575
147 0 1 12.571119 8.866258 584.159302
148 0 1 13.184361 9.124340 584.960327
149 0 1 13.718810 9.055780 585.712708
150 0 1 14.182210 9.068840 586.549622
151 0 1 14.473761 9.135280 587.439392
152 0 1 14.454370 9.347330 588.394775
153 0 1 14.601450 9.332940 589.380676
154 0 1 14.552771 9.640740 590.295593
155 0 1 14.278060 10.040791 591.087708
156 0 1 14.001390 10.149250 592.023499
157 0 1 13.808680 10.172689 592.928711
158 0 1 13.833590 10.092290 593.857117
159 0 1 13.665960 10.155519 594.778931
160 0 1 13.720330 10.309150 595.773682
161 0 1 13.508150 10.501420 596.737000
162 0 1 13.218190 10.688630 597.601624
163 0 1 12.843360 10.993820 598.382202
164 0 1 12.515760 11.341460 599.335022
165 0 1 11.861660 11.619930 600.009705
166 0 1 11.146250 12.116381 600.514282
167 0 1 10.279020 12.363770 600.887329
168 0 1 9.332690 12.538990 601.129272
169 0 1 8.369628 12.612659 601.122803
170 0 1 7.532391 12.958330 601.562012
171 0 1 6.801960 13.057770 602.166077
172 0 1 6.264130 13.013411 602.961487
173 0 1 5.831810 12.722530 603.732788
174 0 1 5.337110 12.385710 604.482910
175 0 1 4.623340 12.091650 605.053284
176 0 1 3.897600 11.970819 605.789429
177 0 1 3.468860 11.925370 606.693176
178 0 1 3.307220 11.753670 607.613892
179 0 1 3.281820 11.532060 608.505310
180 0 1 3.230080 11.063100 609.407593
181 0 1 3.667250 10.874070 610.250916
182 0 1 4.239080 10.724550 611.043823
183 0 1 4.701970 10.307220 611.757202
184 0 1 5.425040 10.198780 612.353516
185 0 1 6.161760 10.450100 612.875488
186 0 1 6.925600 10.371300 613.401672
187 0 1 7.612788 10.337151 614.069092
188 0 1 8.108715 10.679430 614.773987
189 0 1 8.615617 11.167749 615.445374
190 0 1 9.150120 11.417360 616.178772
191 0 1 9.411200 11.732410 617.041809
192 0 1 9.803480 12.103109 617.868225
193 0 1 10.282010 12.457650 618.673096
194 0 1 10.730200 12.633181 619.594055
195 0 1 11.151820 12.742180 620.405884
196 0 1 11.361720 12.934200 621.291077
197 0 1 11.020340 13.336969 622.083740
198 0 1 10.630470 13.460880 622.973083
199 0 1 10.101210 13.529170 623.782288
200 0 1 9.964960 13.256990 624.697144
201 0 1 9.718870 12.863220 625.547668
202 0 1 9.596400 12.480080 626.486145
203 0 1 9.704650 11.814240 627.130432
204 0 1 9.960070 11.189230 627.835754
205 0 1 10.299030 10.636890 628.516846
206 0 1 10.614310 10.277100 629.321655
207 0 1 10.932540 10.336120 630.216431
208 0 1 11.137230 10.558969 631.081909
209 0 1 11.286070 10.760000 632.011353
210 0 1 11.334010 11.003250 632.990662
211 0 1 11.093019 11.202160 633.895020
212 0 1 10.806010 11.038840 634.819519
213 0 1 10.672040 11.002260 635.748840
214 0 1 10.741450 10.779150 636.697998
215 0 1 10.633330 10.344090 637.533203
216 0 1 10.803320 9.945330 638.395691
217 0 1 11.239161 9.677160 639.182495
218 0 1 11.462880 9.297421 640.089905
219 0 1 11.604270 9.228120 641.024475
220 0 1 11.584311 9.039130 641.962891
221 0 1 11.535220 8.753194 642.888428
222 0 1 11.433661 8.400367 643.788574
223 0 1 11.137430 8.061420 644.652710
224 0 1 10.921721 7.674239 645.486084
225 0 1 10.476880 7.126728 646.158203
226 0 1 10.109200 6.774410 647.022217
227 0 1 9.971251 6.535000 647.997681
228 0 1 10.015440 6.118380 648.865784
229 0 1 10.003130 5.769670 649.716431
230 0 1 10.055940 5.374950 650.604187
231 0 1 10.340340 5.427450 651.601929
232 0 1 10.584120 5.660360 652.502502
233 0 1 10.758890 6.162250 653.385986
234 0 1 10.966120 6.663260 654.159607
235 0 1 10.779750 7.039525 655.101318
236 0 1 10.537450 7.136015 656.084229
237 0 1 10.120410 6.976430 656.990601
238 0 1 9.973000 6.960610 657.882202
239 0 1 9.869210 6.920900 658.864929
240 0 1 10.102449 7.015421 659.794983
241 0 1 10.195601 7.126498 660.826904
242 0 1 10.168410 7.467168 661.754089
243 0 1 10.310930 7.755064 662.645813
244 0 1 10.518970 8.020130 663.525208
245 0 1 10.719220 8.430720 664.371582
246 0 1 10.750090 8.672210 665.394531
247 0 1 10.742220 8.665046 666.349731
248 0 1 10.655010 9.266880 667.126221
249 0 1 10.228230 9.790800 667.738098
250 0 1 9.606230 10.257390 668.367615
251 0 1 9.099650 10.659740 669.053406
252 0 1 8.507904 10.814210 669.824585
253 0 1 7.929945 11.149879 670.621887
254 0 1 7.256850 11.763320 670.948303
255 0 1 6.881200 12.433519 671.545898
256 0 1 6.517650 13.232000 672.098572
257 0 1 6.378000 13.592600 672.999023
258 0 1 6.049140 13.818370 673.842407
259 0 1 5.695650 13.806920 674.705872
260 0 1 5.210620 13.541950 675.510620
261 0 1 4.873510 13.362949 676.426697
262 0 1 4.725300 13.196170 677.427673
263 0 1 4.497990 13.022710 678.374084
264 0 1 4.478370 12.756430 679.313721
265 0 1 4.388930 12.547740 680.263123
266 0 1 4.437130 12.729170 681.200500
267 0 1 4.493280 12.973000 682.154297
268 0 1 4.704220 13.141541 683.058411
269 0 1 4.864580 13.539730 683.946472
270 0 1 4.996490 13.894159 684.851196
271 0 1 5.016940 14.045080 685.773010
272 0 1 4.969840 13.998840 686.769104
273 0 1 4.834320 13.882620 687.722412
274 0 1 4.436050 13.782021 688.601013
275 0 1 4.344160 13.705931 689.553223
276 0 1 3.958620 13.510660 690.379028
277 0 1 3.820290 13.166050 691.262207
278 0 1 3.794930 12.656500 692.091309
279 0 1 3.842500 11.804240 692.585327
280 0 1 3.877640 11.074511 693.227173
281 0 1 3.789100 10.528310 694.071289
282 0 1 3.877010 9.973280 694.783997
283 0 1 3.959160 9.475350 695.600220
284 0 1 4.314440 8.945276 696.433472
285 0 1 4.408700 8.755503 697.316528
286 0 1 4.530090 8.685136 698.296326
287 0 1 4.816260 8.454675 699.225403
288 0 1 5.095520 8.505107 700.117981
289 0 1 5.579900 8.570393 700.903381
290 0 1 6.063420 8.329372 701.680298
291 0 1 6.227300 8.317111 702.630615
292 0 1 6.170790 7.980511 703.572388
293 0 1 6.240300 7.675518 704.483826
294 0 1 6.511210 7.457144 705.379822
295 0 1 6.471280 7.169457 706.305420
296 0 1 6.356900 6.939780 707.238098
297 0 1 6.481410 6.325610 707.979980
298 0 1 6.666090 5.878740 708.856506
299 0 1 6.822390 5.514920 709.698608
300 0 1 7.263115 5.022170 710.466431
301 0 1 7.557665 4.963090 711.387878
302 0 1 7.934869 5.170780 712.262390
303 0 1 8.406504 5.368950 713.094421
304 0 1 8.766628 5.618140 714.006287
305 0 1 9.309750 5.590470 714.761902
306 0 1 9.835800 5.524930 715.576294
307 0 1 10.070601 5.489390 716.498413
308 0 1 10.252450 5.029430 717.334229
309 0 1 10.673580 4.422620 718.002380
310 0 1 11.195080 4.045120 718.727112
311 0 1 11.658340 3.790760 719.529114
312 0 1 11.711090 3.439390 720.455505
313 0 1 11.806170 3.352170 721.399597
314 0 1 11.802770 3.202680 722.352173
315 0 1 11.775620 3.320220 723.314331
316 0 1 11.485830 3.248460 724.164612
317 0 1 11.028880 3.289680 725.003723
318 0 1 10.297670 3.536860 725.638672
319 0 1 9.644870 3.865830 726.330994
320 0 1 8.980282 4.052990 726.976196
321 0 1 8.345482 4.414430 727.653931
322 0 1 7.870341 4.895160 728.406372
323 0 1 7.543524 5.276570 729.250977
324 0 1 7.131637 5.432130 730.085022
325 0 1 6.573600 5.482870 730.861023
326 0 1 5.934730 5.582710 731.617004
327 0 1 5.244300 5.607140 732.301025
328 0 1 4.858460 5.667690 733.151978
329 0 1 4.356390 5.895150 734.020020
330 0 1 3.817110 6.207850 734.810974
331 0 1 3.269940 6.400460 735.586975
332 0 1 2.835020 6.699560 736.424011
333 0 1 2.417050 7.064946 737.177979
334 0 1 2.193940 7.466557 738.018982
335 0 1 2.090450 7.484699 738.968994
336 0 1 1.920170 7.753437 739.924011
337 0 1 1.868440 8.097757 740.890015
338 0 1 1.794780 8.119264 741.843018
339 0 1 1.939600 8.042619 742.828979
340 0 1 1.805030 8.102661 743.705017
341 0 1 1.748990 8.375626 744.690002
342 0 1 1.932140 8.717749 745.518005
343 0 1 2.306260 9.167970 746.322021
344 0 1 2.834550 9.347720 747.091003
345 0 1 3.184120 9.222290 747.948975
346 0 1 3.684230 9.106590 748.778992
347 0 1 4.210010 8.737031 749.440002
348 0 1 4.569150 8.552246 750.260010
349 0 1 4.945250 8.432300 751.187988
350 0 1 5.459070 8.312805 751.960022
351 0 1 5.856020 8.110993 752.838989
352 0 1 6.288160 8.175680 753.768982
353 0 1 6.580650 8.252341 754.698975
354 0 1 7.119642 8.464714 755.509033
355 0 1 7.594297 8.700632 756.315979
356 0 1 7.990385 9.014870 757.167969
357 0 1 8.280428 9.283890 758.002014
358 0 1 8.798496 9.410000 758.729004
359 0 1 9.299120 9.301820 759.495972
360 0 1 9.650690 9.046810 760.360962
361 0 1 9.948530 8.892041 761.245972
362 0 1 10.168270 8.641322 762.127991
363 0 1 10.538919 8.638520 763.073975
364 0 1 10.774910 8.473308 763.968018
365 0 1 10.938250 7.898061 764.757996
366 0 1 11.090040 7.495160 765.651001
367 0 1 11.189840 7.249479 766.610962
368 0 1 11.027380 7.031746 767.533997
369 0 1 10.616480 7.138496 768.426025
370 0 1 10.209810 7.568225 769.176025
371 0 1 10.067070 7.850480 770.101013
372 0 1 10.074610 8.148700 771.070007
373 0 1 10.211860 8.225610 772.013000
374 0 1 10.222560 8.111077 772.978027
375 0 1 10.082030 7.626213 773.838013
376 0 1 10.133369 7.175636 774.664978
377 0 1 10.509730 6.902970 775.511963
378 0 1 10.703370 6.704710 776.483032
379 0 1 10.899380 6.318530 777.332031
380 0 1 11.258670 5.998380 778.270020
381 0 1 11.587460 5.762720 779.143982
382 0 1 11.784170 5.605250 780.080017
383 0 1 11.937130 5.639800 780.978027
384 0 1 11.981350 5.422880 781.901001
385 0 1 11.933120 5.238780 782.778992
386 0 1 11.694960 5.171680 783.713013
387 0 1 11.726080 5.145500 784.653992
388 0 1 11.682510 5.274850 785.582031
389 0 1 11.892820 5.429210 786.468018
390 0 1 12.074010 5.323330 787.388000
391 0 1 12.359940 5.356050 788.348999
392 0 1 12.568840 5.367310 789.261963
393 0 1 12.419610 5.599930 790.192993
394 0 1 12.350700 6.017880 791.046997
395 0 1 12.043330 6.514820 791.838013
396 0 1 11.738550 7.005619 792.613037
397 0 1 11.363990 7.444685 793.317017
398 0 1 10.837140 7.942915 793.912964
399 0 1 10.412820 8.445695 794.591003
400 0 1 10.162700 8.806054 795.416016
401 0 1 9.611920 9.341200 795.981995
402 0 1 9.280180 9.735730 796.781006
403 0 1 9.020710 9.820030 797.735962
404 0 1 8.960292 9.490870 798.664001
405 0 1 8.980952 9.024980 799.487000
406 0 1 8.790556 8.753771 800.367981
407 0 1 8.804422 8.234316 801.176025
408 0 1 8.595777 7.704669 801.988037
409 0 1 8.240335 7.557407 802.856995
410 0 1 7.943474 7.444530 803.750000
411 0 1 7.793376 7.460133 804.744995
412 0 1 7.749987 7.336520 805.674011
413 0 1 7.857718 7.227530 806.632019
414 0 1 7.877159 7.217069 807.582031
415 0 1 7.588462 7.223311 808.513000
416 0 1 7.537158 7.166019 809.489014
417 0 1 7.592797 6.933790 810.424988
418 0 1 7.363313 7.004564 811.359009
419 0 1 7.323921 6.994300 812.260986
420 0 1 7.624788 6.997760 813.117004
421 0 1 7.733386 7.244875 814.044006
422 0 1 7.697399 7.391781 814.952026
423 0 1 7.489175 7.565145 815.906982
424 0 1 7.445750 7.898351 816.885010
425 0 1 7.390287 8.284030 817.712036
426 0 1 7.042462 8.375455 818.622009
427 0 1 6.938470 8.231550 819.537964
428 0 1 6.751620 8.174541 820.479980
429 0 1 6.657230 8.016650 821.401001
430 0 1 6.266050 7.630853 822.205017
431 0 1 5.975810 7.527075 823.098999
432 0 1 5.894280 7.138990 823.987000
433 0 1 5.611900 6.863650 824.885010
434 0 1 5.386900 6.864180 825.828979
435 0 1 5.574790 6.948160 826.755005
436 0 1 5.517730 7.276197 827.656982
437 0 1 5.585060 7.964761 828.365967
438 0 1 5.604930 8.584994 829.151001
439 0 1 5.434890 8.964001 830.046997
440 0 1 5.167120 9.395770 830.895996
441 0 1 5.036130 9.638200 831.864990
442 0 1 5.092130 9.780581 832.854980
443 0 1 5.262720 9.824000 833.786011
444 0 1 5.598190 9.672440 834.635010
445 0 1 5.833530 9.513030 835.541992
446 0 1 6.199880 9.302810 836.403015
447 0 1 6.751690 9.159680 837.193970
448 0 1 7.363613 8.913431 837.971008
449 0 1 7.691453 8.783909 838.867004
450 0 1 8.106467 8.738038 839.761963
451 0 1 8.733459 8.800095 840.526001
452 0 1 9.469230 8.729353 841.113037
453 0 1 10.322930 8.802319 841.499023
454 0 1 11.271840 8.704028 841.716003
455 0 1 12.154090 8.494096 841.562012
456 0 1 12.644450 8.028399 840.825012
457 0 1 12.862230 7.755336 839.927979
458 0 1 12.576830 7.421563 839.072021
459 0 1 12.113110 6.872970 838.353027
460 0 1 11.673080 6.691820 837.546021
461 0 1 11.220840 6.490640 836.707031
462 0 1 11.246130 6.366270 835.728027
463 0 1 11.289570 6.328680 834.740967
464 0 1 11.356110 6.134820 833.783020
465 0 1 11.744820 5.969850 832.929016
466 0 1 12.014740 5.860040 831.989990
467 0 1 12.022079 5.753610 831.007019
468 0 1 12.194010 5.812860 829.999023
469 0 1 12.550750 5.843980 829.000000
470 0 1 12.889151 6.273920 828.158997
471 0 1 13.026300 6.769570 827.307007
472 0 1 13.248711 7.172391 826.476013
473 0 1 13.642950 7.631370 825.738037
474 0 1 13.978621 8.324927 825.198975
475 0 1 14.073851 8.851463 824.432007
476 0 1 14.163580 9.038530 823.510986
477 0 1 14.107600 9.025550 822.556030
478 0 1 14.037560 9.056690 821.568970
479 0 1 13.756290 8.895097 820.671021
480 0 1 13.399080 8.910132 819.785034
481 0 1 12.998140 8.962647 818.896973
482 0 1 12.644270 8.899961 817.981018
483 0 1 12.317970 8.712155 817.065979
484 0 1 11.892810 8.672059 816.127991
485 0 1 11.517740 8.398116 815.238037
486 0 1 11.516120 8.419050 814.260986
487 0 1 11.214220 8.491118 813.312988
488 0 1 11.147850 8.506375 812.335022
489 0 1 10.894910 8.440072 811.401978
490 0 1 10.379290 8.428263 810.580994
491 0 1 10.077230 8.448222 809.630005
492 0 1 9.823400 8.544918 808.747986
493 0 1 9.584700 8.794064 807.781006
494 0 1 9.602560 8.970765 806.863037
495 0 1 9.570450 8.618250 805.895020
496 0 1 9.751680 8.133464 805.122986
497 0 1 9.783751 7.632680 804.299988
498 0 1 9.516290 7.218280 803.494019
499 0 1 9.248810 6.894060 802.693970
500 0 1 9.119640 6.556450 801.815979
501 0 1 9.054380 6.117840 800.945007
502 0 1 8.837848 5.848810 800.080017
503 0 1 8.157370 5.923960 799.408997
504 0 1 7.390236 6.133460 798.981018
505 0 1 6.512780 5.885580 798.478027
506 0 1 5.809610 5.491290 797.924011
507 0 1 5.212140 4.950230 797.382996
508 0 1 4.675910 4.356180 796.813965
509 0 1 4.254290 3.880020 796.135010
510 0 1 4.169420 3.658180 795.184998
511 0 1 3.795590 3.497490 794.332031
512 0 1 3.735400 3.369900 793.333984
513 0 1 3.651850 3.050270 792.338989
514 0 1 3.686370 2.889320 791.372009
515 0 1 3.726260 3.052640 790.408020
516 0 1 3.811990 3.116390 789.389038
517 0 1 3.988980 2.815630 788.507996
518 0 1 4.282100 2.646850 787.536987
519 0 1 4.495130 2.593420 786.632019
520 0 1 4.550410 2.540100 785.643005
521 0 1 4.610400 2.893190 784.744019
522 0 1 4.253290 2.804340 783.807007
523 0 1 4.166660 2.847320 782.835022
524 0 1 4.271550 2.732270 781.893982
525 0 1 4.131680 2.666720 780.989990
526 0 1 3.957190 2.729750 780.085999
527 0 1 4.010990 2.744280 779.136963
528 0 1 4.122470 2.638650 778.177979
529 0 1 4.398860 2.548560 777.247986
530 0 1 4.538580 2.713290 776.344971
531 0 1 4.896950 2.836580 775.401001
532 0 1 5.303700 3.074570 774.585022
533 0 1 5.355810 3.296770 773.632996
534 0 1 5.388600 3.385060 772.682983
535 0 1 5.427920 3.592100 771.695007
536 0 1 5.155150 3.892460 770.825989
537 0 1 4.858230 4.195280 770.010986
538 0 1 4.539870 4.620080 769.242004
539 0 1 4.362780 5.202070 768.565002
540 0 1 4.072210 5.881080 767.888000
541 0 1 4.084570 6.522560 767.171021
542 0 1 4.367610 7.118632 766.401978
543 0 1 4.753810 7.346888 765.544006
544 0 1 5.114530 7.505635 764.624023
545 0 1 5.325410 7.561825 763.651001
546 0 1 5.366490 7.677989 762.731995
547 0 1 5.170870 7.610384 761.787964
548 0 1 5.024080 7.613406 760.817017
549 0 1 4.974280 7.461504 759.835022
550 0 1 4.823420 7.308482 758.984985
551 0 1 4.470180 7.300367 758.054993
552 0 1 4.224780 7.364265 757.138000
553 0 1 4.026050 7.570931 756.190002
554 0 1 3.931150 7.521348 755.249023
555 0 1 3.781070 7.723919 754.291016
556 0 1 3.899250 7.492387 753.384033
557 0 1 4.119230 7.165575 752.541016
558 0 1 4.252050 6.533420 751.815979
559 0 1 4.386430 6.198720 750.924988
560 0 1 4.432440 5.962340 750.030029
561 0 1 4.506380 5.938600 749.093994
562 0 1 4.828550 5.988200 748.164001
563 0 1 5.296330 6.017460 747.294983
564 0 1 5.431330 6.251650 746.344971
565 0 1 5.715090 6.492810 745.426025
566 0 1 6.070870 6.697420 744.617981
567 0 1 6.340590 6.978810 743.755005
568 0 1 6.570500 7.231973 742.776978
569 0 1 7.003054 7.233929 741.934021
570 0 1 7.275284 7.333938 740.952026
571 0 1 7.746989 7.173402 740.078003
572 0 1 8.308034 6.802880 739.349976
573 0 1 8.761077 6.318150 738.718994
574 0 1 9.241350 5.655910 738.119995
575 0 1 9.386909 5.156840 737.338989
576 0 1 9.463220 4.876420 736.437988
577 0 1 9.404090 4.804230 735.427979
578 0 1 9.281180 4.831420 734.492981
579 0 1 9.122860 4.828810 733.424011
580 0 1 9.077780 4.975600 732.445984
581 0 1 9.090870 5.321020 731.544006
582 0 1 9.191840 5.673040 730.658997
583 0 1 8.983307 6.297800 729.903992
584 0 1 8.418522 6.757000 729.181030
585 0 1 8.116020 7.217317 728.351379
586 0 1 8.027066 7.842975 727.638977
587 0 1 8.003596 8.351416 726.822388
588 0 1 8.186228 8.835650 725.979309
589 0 1 8.740479 9.026620 725.246094
590 0 1 9.453341 9.268260 724.587708
591 0 1 9.978410 9.276580 723.800903
592 0 1 10.329440 9.176340 722.911377
593 0 1 10.449180 9.265841 721.963379
594 0 1 10.634520 9.467750 721.058105
595 0 1 10.546900 9.411070 720.067627
596 0 1 10.463990 9.437840 719.144226
597 0 1 10.326550 9.554920 718.192505
598 0 1 10.330811 9.696570 717.255493
599 0 1 10.337851 10.022560 716.273987
600 0 1 10.291710 10.521851 715.427917
601 0 1 10.258430 10.881670 714.519714
602 0 1 10.048070 11.086100 713.583496
603 0 1 9.687890 10.918650 712.674011
604 0 1 9.350880 10.589660 711.841431
605 0 1 9.363550 10.347580 710.893799
606 0 1 9.176630 10.244850 709.910706
607 0 1 9.321730 10.267590 708.872192
608 0 1 9.384380 10.306380 707.928223
609 0 1 9.682020 10.335150 707.076416
610 0 1 9.864250 10.352921 706.189697
611 0 1 9.776000 10.183110 705.220520
612 0 1 10.083460 10.284750 704.294067
613 0 1 10.472970 10.449070 703.357178
614 0 1 10.865220 10.375731 702.511597
615 0 1 11.315940 10.574070 701.690796
616 0 1 11.321301 10.655840 700.676697
617 0 1 11.247850 10.362431 699.766174
618 0 1 11.679210 10.444839 698.870911
619 0 1 11.755250 10.798270 697.953186
620 0 1 11.552980 11.050370 697.097168
621 0 1 11.211170 10.917700 696.219116
622 0 1 10.789391 10.940599 695.335022
623 0 1 10.014669 11.086570 694.744019
624 0 1 9.165520 11.252550 694.256470
625 0 1 8.250901 11.398540 693.924194
626 0 1 7.496105 11.733080 693.455566
627 0 1 6.970560 12.171761 692.789001
628 0 1 6.640200 12.647150 692.005371
629 0 1 6.479100 12.849520 691.106018
630 0 1 6.336240 12.691780 690.132385
631 0 1 6.199660 12.304220 689.320312
632 0 1 5.832420 12.031130 688.455872
633 0 1 5.304840 11.956670 687.597900
634 0 1 4.970610 11.739880 686.747681
635 0 1 4.721120 11.203720 685.980896
636 0 1 4.857780 10.866990 685.002319
637 0 1 5.471300 10.869200 684.211975
638 0 1 5.760580 10.883920 683.302368
639 0 1 5.814170 11.001360 682.362305
640 0 1 5.771650 11.187970 681.438599
641 0 1 5.917440 11.287280 680.515991
642 0 1 6.283790 11.354670 679.677185
643 0 1 6.614110 11.537849 678.832886
644 0 1 7.007691 11.790359 678.020508
645 0 1 7.407201 11.806120 677.168396
646 0 1 8.040342 11.965730 676.421631
647 0 1 8.563289 12.252131 675.658508
648 0 1 9.092350 12.099131 674.851929
649 0 1 9.153940 11.612080 674.002197
650 0 1 9.142179 11.043070 673.260315
651 0 1 8.731470 10.344280 672.680298
652 0 1 8.391328 9.771190 672.076111
653 0 1 8.187516 9.430560 671.200684
654 0 1 8.057085 9.224860 670.275269
655 0 1 7.761266 9.317500 669.354614
656 0 1 7.523306 9.490760 668.487793
657 0 1 7.401549 9.733920 667.603210
658 0 1 7.563631 10.024360 666.676208
659 0 1 7.408723 10.249720 665.780823
660 0 1 7.406974 10.646151 664.893982
661 0 1 7.378985 11.193660 664.103516
662 0 1 7.144081 11.430180 663.195679
663 0 1 7.085111 11.481570 662.251831
664 0 1 7.116772 11.564380 661.277100
665 0 1 7.258533 11.318410 660.248413
666 0 1 7.468722 11.088350 659.335999
667 0 1 7.425241 11.088570 658.410522
668 0 1 7.471337 11.056380 657.458496
669 0 1 7.281881 11.136620 656.488892
670 0 1 7.206134 10.866940 655.555786
671 0 1 7.117854 10.471060 654.740906
672 0 1 7.167091 10.108660 653.903931
673 0 1 7.367446 9.448480 653.269531
674 0 1 7.444942 8.691309 652.658020
675 0 1 7.341521 8.191246 651.808899
676 0 1 7.273429 7.792876 650.907776
677 0 1 7.439589 7.547180 650.022888
678 0 1 7.311550 7.059917 649.224609
679 0 1 7.232894 6.902010 648.262085
680 0 1 6.815540 6.928480 647.419006
681 0 1 6.199630 6.969320 646.679504
682 0 1 5.884650 6.759470 645.716492
683 0 1 5.927690 6.414110 644.798401
684 0 1 5.970700 6.032250 643.899109
685 0 1 6.153810 5.648710 643.056885
686 0 1 6.562280 5.499300 642.226501
687 0 1 7.028751 5.652600 641.433105
688 0 1 7.376072 6.040520 640.651794
689 0 1 7.716661 6.428580 639.824524
690 0 1 8.349044 6.707640 639.064575
691 0 1 8.609275 6.961520 638.226868
692 0 1 8.708687 7.010206 637.276123
693 0 1 8.772743 6.760380 636.359436
694 0 1 8.561507 6.650790 635.440369
695 0 1 8.461794 6.451810 634.510010
696 0 1 8.618986 6.451320 633.531250
697 0 1 8.499120 6.408810 632.530945
698 0 1 8.277079 6.372070 631.601501
699 0 1 8.168495 6.676260 630.744507
700 0 1 7.991691 7.047080 629.871643
701 0 1 7.875986 7.066415 628.927429
702 0 1 7.838772 6.937550 627.959595
703 0 1 8.027267 6.810160 626.965515
704 0 1 8.193300 6.950060 626.013184
705 0 1 8.138039 7.151655 625.093628
706 0 1 7.987737 7.489225 624.220276
707 0 1 7.900814 7.959264 623.328613
708 0 1 7.788375 8.562836 622.549622
709 0 1 7.750861 9.137000 621.740784
710 0 1 7.800053 9.338240 620.863892
711 0 1 8.035257 9.350000 619.878296
712 0 1 8.022117 9.363310 618.894226
713 0 1 8.283278 9.164750 617.973999
714 0 1 8.500461 8.905433 617.021729
715 0 1 8.698604 9.015380 616.064209
716 0 1 8.560455 9.121180 615.111206
717 0 1 8.781458 9.018720 614.135376
718 0 1 9.193260 8.795893 613.306824
719 0 1 9.742650 8.603256 612.510986
720 0 1 10.160160 8.222115 611.760925
721 0 1 10.449980 7.743440 611.006104
722 0 1 10.663910 7.245764 610.188904
723 0 1 10.938340 6.771520 609.364685
724 0 1 11.206370 6.534630 608.483215
725 0 1 11.423620 6.135390 607.510620
726 0 1 11.549670 5.733610 606.671326
727 0 1 11.594990 5.319370 605.770874
728 0 1 11.549980 4.959480 604.814514
729 0 1 11.354140 4.783570 603.828308
730 0 1 11.130070 4.956360 602.905273
731 0 1 11.269430 5.464130 602.126831
732 0 1 11.324680 5.993060 601.332581
733 0 1 11.501820 6.454660 600.427795
734 0 1 11.523390 6.935960 599.606384
735 0 1 11.533319 7.502964 598.879883
736 0 1 11.666520 7.461275 597.871887
737 0 1 11.594550 7.515249 596.941406
738 0 1 11.657090 7.360789 596.011414
739 0 1 11.553070 7.249393 595.035583
740 0 1 11.415421 7.225306 594.062317
741 0 1 11.136680 7.251484 593.090027
742 0 1 10.787650 7.141427 592.273071
743 0 1 10.778390 7.179378 591.322693
744 0 1 10.848150 7.463289 590.393372
745 0 1 10.746550 7.503384 589.403198
746 0 1 10.601640 7.389437 588.454712
747 0 1 10.313770 7.489386 587.475281
748 0 1 9.894860 7.254697 586.646912
749 0 1 9.289010 7.258388 585.948730
750 0 1 8.435319 7.182367 585.434509
751 0 1 7.585273 7.026301 584.905396
752 0 1 7.120397 7.097116 584.061707
753 0 1 6.588060 7.312413 583.249084
754 0 1 6.240460 7.193065 582.318298
755 0 1 5.856500 7.164390 581.399109
756 0 1 5.616860 6.728500 580.502380
757 0 1 5.113450 6.692210 579.632507
758 0 1 4.875240 6.413410 578.735474
759 0 1 4.659180 6.300310 577.811707
760 0 1 4.602840 5.874320 576.893372
761 0 1 4.807400 5.586210 575.960327
762 0 1 5.057570 5.282950 575.093506
763 0 1 5.282170 5.401140 574.151184
764 0 1 5.121120 5.440060 573.161926
765 0 1 4.999820 5.388500 572.174316
766 0 1 4.790720 5.388680 571.228394
767 0 1 4.372360 5.112370 570.448730
768 0 1 4.250490 4.975720 569.507568
769 0 1 3.959700 4.973050 568.585693
770 0 1 3.893640 5.174230 567.655396
771 0 1 4.005860 5.626570 566.726074
772 0 1 4.112890 5.658930 565.776001
773 0 1 4.103590 6.034350 564.940979
774 0 1 3.952040 5.915140 563.963318
775 0 1 3.868670 6.136000 562.970093
776 0 1 3.693240 6.705770 562.209717
777 0 1 3.571820 7.218683 561.402222
778 0 1 3.348030 7.474158 560.533081
779 0 1 3.193820 7.729409 559.586121
780 0 1 3.096740 8.168631 558.712402
781 0 1 2.834370 8.576147 557.862122
782 0 1 2.812490 8.857490 556.894714
783 0 1 3.066210 8.812915 556.039978
784 0 1 3.673400 9.040080 555.260376
785 0 1 4.392630 9.204500 554.695801
786 0 1 5.112190 9.038190 554.160583
787 0 1 5.687420 8.594413 553.538330
788 0 1 6.332450 8.367795 552.779602
789 0 1 7.040424 8.097503 552.181396
790 0 1 7.862235 8.209410 551.639893
791 0 1 8.528829 8.118880 550.983093
792 0 1 8.923705 7.995658 550.172974