LAMMPS data file via MDAnalysis

        1000  atoms
        1000  bonds
        1000  angles
           0  dihedrals
           0  impropers

           1  atom types
           1  bond types
           1  angle types
           0  dihedral types
           0  improper types

0.000000 16.000000 xlo xhi
0.000000 16.000000 ylo yhi
0.000000 1257.000000 zlo zhi


Masses

1 1.000000

Atoms

1 0 1 5.856390 4.280160 441.091003
2 0 1 6.257730 4.804940 441.807007
3 0 1 6.553230 5.099890 442.720001
4 0 1 6.864230 5.348150 443.662994
5 0 1 7.094032 5.589260 444.561005
6 0 1 7.431386 5.935310 445.373993
7 0 1 7.729776 6.264230 446.195984
8 0 1 7.929428 6.286130 447.174011
9 0 1 8.091237 6.224170 448.226013
10 0 1 8.333919 6.030020 449.233002
11 0 1 8.550730 5.857190 450.095001
12 0 1 9.051470 5.835270 450.989014
13 0 1 9.180530 6.129640 451.950012
14 0 1 9.279750 6.235950 452.882996
15 0 1 9.742290 6.204620 453.708008
16 0 1 9.951470 5.872260 454.559021
17 0 1 10.450920 5.623510 455.434021
18 0 1 10.866450 5.634430 456.304016
19 0 1 11.480640 5.647330 457.059021
20 0 1 12.142941 5.845780 457.703003
21 0 1 12.634100 5.816030 458.518982
22 0 1 12.934290 5.789620 459.447998
23 0 1 13.216920 5.911810 460.372009
24 0 1 13.135759 5.655700 461.315979
25 0 1 12.579170 5.302030 461.979980
26 0 1 11.904779 5.019420 462.583008
27 0 1 11.187720 4.821910 463.201996
28 0 1 10.553280 4.588430 463.885010
29 0 1 10.237910 4.523320 464.794006
30 0 1 10.003410 4.610690 465.713013
31 0 1 9.466820 4.874180 466.471008
32 0 1 9.100870 4.951320 467.346008
33 0 1 8.661892 5.035360 468.205994
34 0 1 8.575058 4.899640 469.134003
35 0 1 8.128952 4.887690 469.994995
36 0 1 7.718044 4.740370 470.809998
37 0 1 7.246020 4.666010 471.710022
38 0 1 6.833170 4.562040 472.548004
39 0 1 6.485600 4.205180 473.408020
40 0 1 6.033590 3.963290 474.187988
41 0 1 5.615080 3.771970 474.989990
42 0 1 5.046330 3.383410 475.612000
43 0 1 4.804640 3.101550 476.537994
44 0 1 4.744410 2.715120 477.425995
45 0 1 4.872920 2.433230 478.283020
46 0 1 5.136470 2.433590 479.242004
47 0 1 5.202750 2.599660 480.248993
48 0 1 5.407710 2.419660 481.166016
49 0 1 5.681640 2.065150 482.035004
50 0 1 6.010860 1.925140 482.908020
51 0 1 6.417650 1.800170 483.755005
52 0 1 6.359800 1.620470 484.679016
53 0 1 6.710840 1.537550 485.587006
54 0 1 6.959210 1.700720 486.554993
55 0 1 7.405340 2.131530 487.311005
56 0 1 7.665149 2.710500 487.998993
57 0 1 7.767798 3.171070 488.851013
58 0 1 7.796170 3.753470 489.692993
59 0 1 7.792589 4.129370 490.570984
60 0 1 7.968508 4.568160 491.492004
61 0 1 8.211062 5.270610 492.138000
62 0 1 8.267135 5.990840 492.927002
63 0 1 8.429937 6.402590 493.723999
64 0 1 8.401562 6.716880 494.625000
65 0 1 8.471485 7.116547 495.494995
66 0 1 8.348024 7.250630 496.411987
67 0 1 8.019333 7.232474 497.335022
68 0 1 7.519046 7.216856 498.098999
69 0 1 7.160488 7.174736 498.977997
70 0 1 6.781990 7.202621 499.859009
71 0 1 6.238710 7.337586 500.682007
72 0 1 5.604620 7.327443 501.436005
73 0 1 5.106020 7.558775 502.240997
74 0 1 5.050470 7.805300 503.166992
75 0 1 4.869190 8.286873 504.024994
76 0 1 5.188180 8.861885 504.695984
77 0 1 5.183910 9.526660 505.411011
78 0 1 5.036010 10.143790 506.105011
79 0 1 5.102130 10.637580 506.919983
80 0 1 5.069150 11.015360 507.799011
81 0 1 5.053890 11.348780 508.718994
82 0 1 5.013490 11.611070 509.632019
83 0 1 5.032250 11.431880 510.565002
84 0 1 5.197400 11.425580 511.567017
85 0 1 5.294300 11.559790 512.502991
86 0 1 5.225250 11.707660 513.479980
87 0 1 5.297550 11.686470 514.443970
88 0 1 5.495980 11.829490 515.359985
89 0 1 5.804330 11.930700 516.231018
90 0 1 6.055770 11.961180 517.156006
91 0 1 6.250310 12.103170 518.056030
92 0 1 6.401530 12.192440 519.056030
93 0 1 6.231250 12.623870 519.893982
94 0 1 6.077880 12.870370 520.828003
95 0 1 6.145280 13.218309 521.822021
96 0 1 6.439970 13.268129 522.773987
97 0 1 6.708900 13.049339 523.716003
98 0 1 6.874780 12.565860 524.504028
99 0 1 6.885880 12.212880 525.364014
100 0 1 7.216713 12.099689 526.365967
101 0 1 7.209262 12.529860 527.229004
102 0 1 7.412071 12.869881 528.106018
103 0 1 7.798172 13.272340 528.818726
104 0 1 8.135454 13.659460 529.653015
105 0 1 8.055552 13.965460 530.657471
106 0 1 7.768327 13.978910 531.555908
107 0 1 7.644769 14.024720 532.545898
108 0 1 7.578684 14.181129 533.480408
109 0 1 7.815183 14.323230 534.418396
110 0 1 8.224304 14.360540 535.282471
111 0 1 8.647299 14.308170 536.124634
112 0 1 9.119330 14.360570 536.976624
113 0 1 9.286070 14.274750 537.912109
114 0 1 9.705190 14.164570 538.761108
115 0 1 10.123410 14.104811 539.628479
116 0 1 10.784349 13.871019 540.303467
117 0 1 11.389960 13.717720 540.983826
118 0 1 11.937620 13.355471 541.690308
119 0 1 12.462720 12.864611 542.401184
120 0 1 12.974720 12.298030 543.029480
121 0 1 13.526700 11.585051 543.225525
122 0 1 13.834530 10.788030 543.690125
123 0 1 13.993080 10.189850 544.433777
124 0 1 13.836880 9.716630 545.227478
125 0 1 13.298410 9.405470 546.008301
126 0 1 13.061940 9.251030 546.905212
127 0 1 12.910820 9.371060 547.890198
128 0 1 12.856720 9.382610 548.878479
129 0 1 12.613140 9.276820 549.776489
130 0 1 12.721080 9.239900 550.709900
131 0 1 12.749880 9.013500 551.629211
132 0 1 12.854970 9.015320 552.536926
133 0 1 12.934640 8.869580 553.465881
134 0 1 13.274179 8.941636 554.323914
135 0 1 13.572130 9.008730 555.255493
136 0 1 13.983231 8.778970 556.088318
137 0 1 14.042220 8.310071 556.952026
138 0 1 14.024120 7.954121 557.799377
139 0 1 13.741740 7.613755 558.590515
140 0 1 13.259310 7.163014 559.357178
141 0 1 13.062740 6.856840 560.240295
142 0 1 12.946930 6.181740 561.053223
143 0 1 12.409000 5.580310 561.607117
144 0 1 11.727430 5.081590 562.075806
145 0 1 10.987140 4.740100 562.640198
146 0 1 10.652540 4.570270 563.525879
147 0 1 10.179270 4.404820 564.393005
148 0 1 9.899930 4.469890 565.359802
149 0 1 9.388480 4.670120 566.155090
150 0 1 9.068130 5.047250 566.940430
151 0 1 8.817024 5.283920 567.829590
152 0 1 8.616585 5.386290 568.904785
153 0 1 8.283403 5.378730 569.796509
154 0 1 8.098177 5.681850 570.664917
155 0 1 8.263689 5.910860 571.595886
156 0 1 8.629156 6.314270 572.457275
157 0 1 8.900822 6.794750 573.250977
158 0 1 9.128730 7.243034 574.077026
159 0 1 9.223090 7.706694 574.920532
160 0 1 9.467880 8.078474 575.804077
161 0 1 9.679780 8.314900 576.683716
162 0 1 9.953500 8.455255 577.598389
163 0 1 10.042100 8.810840 578.479614
164 0 1 10.233620 9.226290 579.303101
165 0 1 10.334150 9.748360 580.124817
166 0 1 10.013360 9.808060 581.052002
167 0 1 9.704580 10.149940 581.870789
168 0 1 9.408670 10.444740 582.731323
169 0 1 9.239980 10.522840 583.743225
170 0 1 9.043110 10.717410 584.611084
171 0 1 8.965345 10.826000 585.533020
172 0 1 9.007260 10.811950 586.491211
173 0 1 8.978128 10.746780 587.431519
174 0 1 9.179140 10.750120 588.401917
175 0 1 9.151800 10.956130 589.378784
176 0 1 9.091970 11.479500 590.219788
177 0 1 9.086640 12.124060 590.920593
178 0 1 9.058730 12.580441 591.677917
179 0 1 8.956715 12.764610 592.653931
180 0 1 8.862984 12.668250 593.614319
181 0 1 9.044320 12.436530 594.519531
182 0 1 9.253330 11.868570 595.244995
183 0 1 9.342830 11.178900 595.900818
184 0 1 9.258330 10.681240 596.681091
185 0 1 9.360860 10.235540 597.616882
186 0 1 9.564020 9.833549 598.462585
187 0 1 9.753410 9.436320 599.276184
188 0 1 9.954070 8.861252 599.985474
189 0 1 9.933500 8.345874 600.801697
190 0 1 9.756760 7.721517 601.459778
191 0 1 9.832460 6.907200 602.044495
192 0 1 9.996850 6.311460 602.709778
193 0 1 10.234880 5.446060 603.085327
194 0 1 10.591190 4.686890 603.585876
195 0 1 10.757190 4.013200 604.247375
196 0 1 10.611290 3.431070 604.973877
197 0 1 10.364180 3.004170 605.796509
198 0 1 10.272920 2.706890 606.695007
199 0 1 10.253370 2.566970 607.648987
200 0 1 9.973040 2.620830 608.625977
201 0 1 9.691930 2.900400 609.507690
202 0 1 9.338780 3.159790 610.427490
203 0 1 9.043420 3.261480 611.340881
204 0 1 8.741002 3.355990 612.307922
205 0 1 8.548898 3.415540 613.264221
206 0 1 8.222089 3.659850 614.148010
207 0 1 8.058685 4.161230 614.969788
208 0 1 7.762205 4.748110 615.657593
209 0 1 7.185472 5.369950 616.251587
210 0 1 6.580620 5.827210 616.873413
211 0 1 6.230130 6.141710 617.708313
212 0 1 6.181020 6.394630 618.682617
213 0 1 6.031490 6.629030 619.606506
214 0 1 5.829630 6.845130 620.570435
215 0 1 5.832280 7.340748 621.444275
216 0 1 5.721890 7.740510 622.318542
217 0 1 5.220950 7.986800 623.125061
218 0 1 4.965420 8.306179 623.967468
219 0 1 4.731160 8.275627 624.961670
220 0 1 4.534230 8.010485 625.845947
221 0 1 4.415930 7.850211 626.802124
222 0 1 4.549630 7.571255 627.737122
223 0 1 4.890710 7.304421 628.612244
224 0 1 4.834930 6.778290 629.505920
225 0 1 5.108660 6.490300 630.336182
226 0 1 5.491190 6.442470 631.257629
227 0 1 5.822020 6.364240 632.157532
228 0 1 6.296970 6.330600 632.954224
229 0 1 6.637570 6.279420 633.833618
230 0 1 6.506940 6.517190 634.740540
231 0 1 6.677400 6.648890 635.686829
232 0 1 6.832800 7.061131 636.514404
233 0 1 6.667960 7.414580 637.465027
234 0 1 6.659460 7.548905 638.425537
235 0 1 6.434590 7.752365 639.312073
236 0 1 6.075960 7.862983 640.273621
237 0 1 5.690330 8.073742 641.111511
238 0 1 5.168280 8.315102 641.937927
239 0 1 5.086240 8.631233 642.831787
240 0 1 5.022600 8.803090 643.778381
241 0 1 5.149510 8.938122 644.696472
242 0 1 5.096760 9.083750 645.614807
243 0 1 5.123710 9.255320 646.616821
244 0 1 5.156540 9.177380 647.640503
245 0 1 4.823990 9.193170 648.605713
246 0 1 4.788960 9.240220 649.572815
247 0 1 4.475180 9.079910 650.526001
248 0 1 4.440160 8.978509 651.494873
249 0 1 4.452890 8.911835 652.423523
250 0 1 4.402860 8.684518 653.364990
251 0 1 4.513480 8.629667 654.378418
252 0 1 4.603980 8.779010 655.312927
253 0 1 4.685110 8.856359 656.208801
254 0 1 4.487250 8.876951 657.184998
255 0 1 4.341360 8.836088 658.241089
256 0 1 4.308230 8.883317 659.149719
257 0 1 4.364730 9.239440 660.014404
258 0 1 4.369590 9.666380 660.871704
259 0 1 4.258570 10.121531 661.704285
260 0 1 4.227530 10.540280 662.652405
261 0 1 4.196160 10.830811 663.540894
262 0 1 4.237940 11.224240 664.416199
263 0 1 4.377760 11.471140 665.340393
264 0 1 4.406190 11.633141 666.275269
265 0 1 4.267770 11.797350 667.252930
266 0 1 4.160470 11.761660 668.193787
267 0 1 3.986890 11.452480 669.064331
268 0 1 3.616510 11.077780 669.885803
269 0 1 3.372580 10.874010 670.819214
270 0 1 3.250260 10.427750 671.653992
271 0 1 3.295030 10.098940 672.554810
272 0 1 3.723090 9.917340 673.348389
273 0 1 3.960630 9.914920 674.268372
274 0 1 4.051390 10.023160 675.220581
275 0 1 4.196440 10.125190 676.167114
276 0 1 4.351670 10.335600 677.114685
277 0 1 4.455940 10.670959 678.010498
278 0 1 4.615740 10.772700 678.937317
279 0 1 4.702450 10.756390 679.872986
280 0 1 4.795940 10.676020 680.820923
281 0 1 4.867740 10.512341 681.744629
282 0 1 5.057320 10.249790 682.721069
283 0 1 5.019650 10.100730 683.656372
284 0 1 5.061050 10.054190 684.630188
285 0 1 5.164560 10.291750 685.539429
286 0 1 5.110970 10.516060 686.420593
287 0 1 4.783260 10.762550 687.303284
288 0 1 4.671780 10.714130 688.254089
289 0 1 4.742570 10.694110 689.215698
290 0 1 4.969930 10.596790 690.143494
291 0 1 5.416320 10.105630 690.919312
292 0 1 5.473570 9.459390 691.709229
293 0 1 5.446800 9.214390 692.634033
294 0 1 5.626680 9.194290 693.573120
295 0 1 5.798280 9.277230 694.499695
296 0 1 6.234720 9.257140 695.327698
297 0 1 6.719500 9.241310 696.194580
298 0 1 7.210822 9.450300 696.987671
299 0 1 7.552972 9.435550 697.890869
300 0 1 7.735264 9.087730 698.774902
301 0 1 7.768016 8.617596 699.659485
302 0 1 7.985608 8.086758 700.508118
303 0 1 8.319680 7.547995 701.224182
304 0 1 8.812945 7.240155 702.011597
305 0 1 9.258750 7.176208 702.846802
306 0 1 9.795520 6.928330 703.594604
307 0 1 10.464870 6.897060 704.291504
308 0 1 11.153160 7.124814 704.897583
309 0 1 11.650430 7.490757 705.672180
310 0 1 11.872300 7.970829 706.420532
311 0 1 12.297040 8.515876 707.218689
312 0 1 12.657030 9.126920 707.880310
313 0 1 13.030540 9.378160 708.729919
314 0 1 13.214291 9.688460 709.568115
315 0 1 13.428841 9.825560 710.535522
316 0 1 13.589360 10.094481 711.464233
317 0 1 13.461821 10.483160 712.331726
318 0 1 13.049610 10.616870 713.207397
319 0 1 12.654591 10.538240 714.074585
320 0 1 12.137730 10.233561 714.865723
321 0 1 11.671750 9.857970 715.577576
322 0 1 11.311990 9.830760 716.433899
323 0 1 10.857570 9.714460 717.304810
324 0 1 10.444330 9.537830 718.146973
325 0 1 10.253941 9.663400 718.999817
326 0 1 9.975870 9.876570 719.916687
327 0 1 9.701490 9.894320 720.874023
328 0 1 9.383620 9.817920 721.779724
329 0 1 9.040810 9.734080 722.682373
330 0 1 8.768068 9.776170 723.583496
331 0 1 8.808824 9.769279 724.547302
332 0 1 8.845934 9.542940 725.471802
333 0 1 8.675685 9.252240 726.420715
334 0 1 8.167378 9.062920 727.199219
335 0 1 7.700540 8.912663 728.015808
336 0 1 7.233651 8.827670 728.934998
337 0 1 7.132775 8.179409 729.619019
338 0 1 6.941690 7.559000 730.328979
339 0 1 6.882300 6.870020 731.026001
340 0 1 6.987300 6.461810 731.875977
341 0 1 6.844750 6.035580 732.714966
342 0 1 6.538180 5.716150 733.570984
343 0 1 6.148090 5.570830 734.476990
344 0 1 5.653490 5.256780 735.259033
345 0 1 5.271650 5.179240 736.171021
346 0 1 4.830440 5.021210 737.046997
347 0 1 4.513460 4.756710 738.002014
348 0 1 4.271550 4.311200 738.848022
349 0 1 4.472730 3.953020 739.718994
350 0 1 4.541450 3.844120 740.640015
351 0 1 4.738190 3.719120 741.638977
352 0 1 4.947730 3.443540 742.523010
353 0 1 4.978540 3.010260 743.405029
354 0 1 5.096750 2.808000 744.382019
355 0 1 5.337510 2.565870 745.262024
356 0 1 5.558840 2.101400 746.026978
357 0 1 5.548580 1.713770 746.908020
358 0 1 5.686380 1.796780 747.832031
359 0 1 5.803680 1.976340 748.781006
360 0 1 6.040840 2.322580 749.634033
361 0 1 5.938530 2.804940 750.484985
362 0 1 5.527350 3.018460 751.318970
363 0 1 5.225570 3.528470 752.093994
364 0 1 5.023790 4.237430 752.700012
365 0 1 5.165710 4.734920 753.481018
366 0 1 5.403280 5.247180 754.237000
367 0 1 5.651460 5.847560 754.937012
368 0 1 5.553040 6.489280 755.708008
369 0 1 5.123790 6.937800 756.526001
370 0 1 4.883810 7.432681 757.330017
371 0 1 4.530120 7.779608 758.184998
372 0 1 4.528000 8.001128 759.221008
373 0 1 4.221710 8.225850 760.094971
374 0 1 3.756030 8.274289 760.981995
375 0 1 3.457770 8.276295 761.890991
376 0 1 3.380670 8.321342 762.880981
377 0 1 3.278300 8.319946 763.882996
378 0 1 3.485160 8.192297 764.886963
379 0 1 3.557010 8.233192 765.854980
380 0 1 3.819800 8.310598 766.734009
381 0 1 3.979980 8.619043 767.578979
382 0 1 4.116580 8.970273 768.471008
383 0 1 4.186450 9.547840 769.195007
384 0 1 4.210880 10.168300 770.002014
385 0 1 4.266720 10.403290 770.953979
386 0 1 4.365830 10.657200 771.815979
387 0 1 4.262020 10.942650 772.789978
388 0 1 4.170620 11.263910 773.625977
389 0 1 4.370920 11.392640 774.525024
390 0 1 4.308270 11.248190 775.515015
391 0 1 4.533200 11.564780 776.440002
392 0 1 4.837130 11.555590 777.291016
393 0 1 5.073880 11.304680 778.200012
394 0 1 5.279130 10.870550 779.112000
395 0 1 5.414020 10.546770 780.075012
396 0 1 5.607280 10.217290 780.929016
397 0 1 5.925730 9.900080 781.778015
398 0 1 6.193200 9.561440 782.676025
399 0 1 6.509050 9.103000 783.440002
400 0 1 6.666110 8.632984 784.234009
401 0 1 6.586500 7.842334 784.832031
402 0 1 6.539130 7.119805 785.445984
403 0 1 6.609330 6.406500 786.117004
404 0 1 6.521030 6.117970 787.025024
405 0 1 6.253120 5.752840 787.843018
406 0 1 5.771960 5.426150 788.645996
407 0 1 5.662410 5.339630 789.635986
408 0 1 5.674680 4.998720 790.505005
409 0 1 5.905790 4.869540 791.455017
410 0 1 5.975750 5.290550 792.311035
411 0 1 5.898820 5.160270 793.198975
412 0 1 6.005670 5.319620 794.135010
413 0 1 6.591180 5.456140 794.921021
414 0 1 7.165856 5.938660 795.599976
415 0 1 7.853293 6.131980 796.268982
416 0 1 8.476699 6.469770 796.942017
417 0 1 9.168010 6.858450 797.549011
418 0 1 9.785050 7.348675 798.039978
419 0 1 10.138610 7.770676 798.848022
420 0 1 10.226390 8.278801 799.643982
421 0 1 10.440750 8.809736 800.432983
422 0 1 10.364491 9.471880 801.132019
423 0 1 10.299750 9.751880 802.052979
424 0 1 10.318980 9.948510 803.067993
425 0 1 10.385780 10.313150 803.989014
426 0 1 10.463700 10.529990 804.911011
427 0 1 10.323140 10.741920 805.804993
428 0 1 10.274520 10.929050 806.734985
429 0 1 10.282830 11.349689 807.632996
430 0 1 10.471870 11.594880 808.526978
431 0 1 10.714280 11.762910 809.471008
432 0 1 10.752860 11.826720 810.416016
433 0 1 10.793710 12.337140 811.257996
434 0 1 10.581310 12.854900 812.059998
435 0 1 10.281800 13.198170 812.901001
436 0 1 10.187730 13.419270 813.888000
437 0 1 10.131490 13.725430 814.778992
438 0 1 10.085770 13.908609 815.682007
439 0 1 9.946780 13.991070 816.669983
440 0 1 9.828100 13.883340 817.672974
441 0 1 9.515680 13.609489 818.572021
442 0 1 9.357140 13.387370 819.489990
443 0 1 9.093030 13.222000 820.388000
444 0 1 8.803484 12.885860 821.250000
445 0 1 8.369440 12.877110 822.033997
446 0 1 8.095840 12.705030 822.966980
447 0 1 7.787115 12.760180 823.882019
448 0 1 7.609729 12.906031 824.820984
449 0 1 7.719097 13.113260 825.787964
450 0 1 7.867720 13.668550 826.604980
451 0 1 7.943989 14.104780 827.421997
452 0 1 8.015395 14.246941 828.375977
453 0 1 8.062068 13.968400 829.301025
454 0 1 7.806804 13.485340 830.138000
455 0 1 7.601343 12.821819 830.893982
456 0 1 7.355634 12.176001 831.609985
457 0 1 6.831660 11.605790 832.026978
458 0 1 6.238340 11.256701 832.744019
459 0 1 5.326560 10.913430 832.896973
460 0 1 4.459960 10.433900 833.046021
461 0 1 3.898510 9.712970 833.410034
462 0 1 3.429170 8.888034 833.286011
463 0 1 2.932080 8.022872 833.141968
464 0 1 2.699900 7.087224 833.023987
465 0 1 2.826030 6.283350 832.570984
466 0 1 2.797130 5.367410 832.169983
467 0 1 3.120720 4.538800 831.916016
468 0 1 3.422760 3.643580 831.698975
469 0 1 3.923110 2.941340 831.291992
470 0 1 4.589730 2.556610 830.757996
471 0 1 5.047390 2.044070 830.094971
472 0 1 5.887680 1.639630 829.929016
473 0 1 6.601740 1.242910 829.431030
474 0 1 7.447332 1.191170 828.948975
475 0 1 8.282977 1.259030 828.455994
476 0 1 9.035190 1.541990 828.009033
477 0 1 9.602020 1.705780 827.260986
478 0 1 9.927330 2.067620 826.481018
479 0 1 10.284170 2.519390 825.710022
480 0 1 10.410010 3.269670 824.962036
481 0 1 10.414140 4.002720 824.247986
482 0 1 10.362420 4.540630 823.460022
483 0 1 10.087130 4.850840 822.568970
484 0 1 9.867450 4.761970 821.630005
485 0 1 9.914010 4.911990 820.723999
486 0 1 9.874480 5.212220 819.820984
487 0 1 9.979090 5.440870 818.856995
488 0 1 9.889270 5.855240 818.030029
489 0 1 9.441970 6.277480 817.252014
490 0 1 8.811475 6.700490 816.660034
491 0 1 8.391787 7.053362 815.849976
492 0 1 7.989353 7.285550 814.929993
493 0 1 7.569265 7.592715 814.078003
494 0 1 7.039439 7.774418 813.337036
495 0 1 6.863620 8.050961 812.476990
496 0 1 6.640980 8.305837 811.596985
497 0 1 6.315400 8.485635 810.698975
498 0 1 6.001550 8.665719 809.766968
499 0 1 5.704480 9.120010 808.916992
500 0 1 5.513540 9.332320 808.007019
501 0 1 5.341030 9.599360 807.041992
502 0 1 5.332360 9.854700 806.127014
503 0 1 5.150460 10.322520 805.268005
504 0 1 5.267880 10.604540 804.286987
505 0 1 5.238450 10.717600 803.330994
506 0 1 5.427290 11.142230 802.406006
507 0 1 5.535090 11.377050 801.481018
508 0 1 5.748330 11.332620 800.504028
509 0 1 6.023360 11.259930 799.510010
510 0 1 6.426540 11.274460 798.646973
511 0 1 6.631800 11.346840 797.684998
512 0 1 6.939010 11.463610 796.807983
513 0 1 7.226865 11.302330 795.820984
514 0 1 7.787279 10.874229 795.182983
515 0 1 8.476975 10.323299 794.721008
516 0 1 8.578522 9.557020 794.091980
517 0 1 8.718872 8.777863 793.494019
518 0 1 8.864721 7.930620 793.114990
519 0 1 8.831578 7.093607 792.734009
520 0 1 8.464060 6.174890 792.601990
521 0 1 8.289219 5.277550 792.304016
522 0 1 7.801094 4.529960 791.932007
523 0 1 7.094899 4.019300 791.705994
524 0 1 6.285170 3.432080 791.372986
525 0 1 5.426700 3.143620 791.155029
526 0 1 4.567290 3.022310 790.716003
527 0 1 3.911960 3.133730 790.033997
528 0 1 3.665660 3.369870 789.162964
529 0 1 3.474540 3.536190 788.252014
530 0 1 3.496550 3.756800 787.320984
531 0 1 3.431620 4.285510 786.518982
532 0 1 3.486020 4.902090 785.760986
533 0 1 3.683360 5.427450 784.962036
534 0 1 3.930930 6.023790 784.265991
535 0 1 4.401920 6.450610 783.502991
536 0 1 4.806060 6.640510 782.674988
537 0 1 5.098910 6.816420 781.799988
538 0 1 5.070650 6.848990 780.789978
539 0 1 5.334480 6.670200 779.841980
540 0 1 5.628510 6.941820 778.957031
541 0 1 5.988750 6.993910 778.094971
542 0 1 6.458460 7.068231 777.242004
543 0 1 6.863100 6.995480 776.330994
544 0 1 7.401014 6.664740 775.567017
545 0 1 7.739196 6.232250 774.757996
546 0 1 8.157512 5.921630 773.983032
547 0 1 8.609780 5.485870 773.182983
548 0 1 8.934851 4.921950 772.523010
549 0 1 9.182940 4.677160 771.606018
550 0 1 9.620930 4.655020 770.786011
551 0 1 10.302610 4.747440 770.091003
552 0 1 10.913140 5.118180 769.499023
553 0 1 11.403580 5.713430 768.828003
554 0 1 11.872160 6.304620 768.108032
555 0 1 12.300690 6.656590 767.317993
556 0 1 12.791840 7.001413 766.619019
557 0 1 13.297880 7.339225 765.851013
558 0 1 13.509260 7.533085 764.974976
559 0 1 13.581989 7.883802 764.104004
560 0 1 13.539560 8.175697 763.114014
561 0 1 13.345790 8.510608 762.228027
562 0 1 13.383560 8.763295 761.283997
563 0 1 13.595030 8.971816 760.401001
564 0 1 13.582140 9.175730 759.437012
565 0 1 13.728580 9.463000 758.577026
566 0 1 13.859221 9.563590 757.578979
567 0 1 13.956261 9.758840 756.666992
568 0 1 13.582320 9.709660 755.802979
569 0 1 13.310350 9.598690 754.835999
570 0 1 13.244600 9.287000 753.888000
571 0 1 13.173730 9.231440 752.836975
572 0 1 13.173820 9.253740 751.846008
573 0 1 12.853940 9.330190 750.937012
574 0 1 12.449130 9.229300 750.046021
575 0 1 12.239450 9.181530 749.059998
576 0 1 11.832360 9.245970 748.148010
577 0 1 11.296500 9.507840 747.400024
578 0 1 10.860400 9.785930 746.640991
579 0 1 10.646080 10.191820 745.854004
580 0 1 10.683920 10.742160 745.042969
581 0 1 10.836940 11.419270 744.285034
582 0 1 11.028151 11.654590 743.335022
583 0 1 10.690500 11.763870 742.422974
584 0 1 10.409010 11.718280 741.499023
585 0 1 10.112950 11.783190 740.570984
586 0 1 9.514920 11.745640 739.794983
587 0 1 8.875258 11.747340 738.979004
588 0 1 8.349793 11.716021 738.187988
589 0 1 8.078978 11.614500 737.192017
590 0 1 7.771688 11.362391 736.299011
591 0 1 7.282244 11.189560 735.484985
592 0 1 6.690350 10.989440 734.778015
593 0 1 6.099360 11.032100 733.971985
594 0 1 5.494150 10.880540 733.262024
595 0 1 5.143350 11.219020 732.484009
596 0 1 4.522410 11.295959 731.726013
597 0 1 4.228400 11.444420 730.815979
598 0 1 3.859920 11.376910 729.838989
599 0 1 3.522840 11.192520 728.910034
600 0 1 3.496150 10.848110 727.962280
601 0 1 3.367060 10.489161 727.145874
602 0 1 3.152390 10.092440 726.319519
603 0 1 3.277320 9.574140 725.448425
604 0 1 3.118500 9.391980 724.552124
605 0 1 2.970520 9.263670 723.662231
606 0 1 3.131140 8.938231 722.799683
607 0 1 3.394560 8.821199 721.847717
608 0 1 3.720130 8.457639 720.950378
609 0 1 3.712330 8.041011 720.070496
610 0 1 3.511500 7.754325 719.239014
611 0 1 3.541020 7.575869 718.173279
612 0 1 3.555050 7.571074 717.226929
613 0 1 3.522050 7.556009 716.280090
614 0 1 3.542670 7.402251 715.371582
615 0 1 3.594660 7.027242 714.507385
616 0 1 3.623480 6.785370 713.528320
617 0 1 3.947370 6.397820 712.738525
618 0 1 4.421490 5.985660 711.924622
619 0 1 4.518400 5.498940 711.103577
620 0 1 4.943160 4.977110 710.312500
621 0 1 5.213380 4.589390 709.492676
622 0 1 5.470820 4.370670 708.632019
623 0 1 5.707140 4.203420 707.707031
624 0 1 6.112870 4.062010 706.820312
625 0 1 6.831800 3.858000 706.260315
626 0 1 7.240254 3.621030 705.428711
627 0 1 7.651186 3.429780 704.587891
628 0 1 7.935710 3.165760 703.725220
629 0 1 8.145709 3.131600 702.734375
630 0 1 8.567449 3.162410 701.907898
631 0 1 9.352510 2.942100 701.334717
632 0 1 10.170570 2.696050 700.844421
633 0 1 10.763000 2.541910 700.110779
634 0 1 11.224350 2.623360 699.287903
635 0 1 11.510139 2.948490 698.461914
636 0 1 11.863100 3.219440 697.669434
637 0 1 12.041241 3.626540 696.808899
638 0 1 11.990310 4.118310 695.974426
639 0 1 11.882150 4.411870 695.046875
640 0 1 11.911360 4.588210 694.098511
641 0 1 12.025761 4.550030 693.134705
642 0 1 12.190910 4.214120 692.208374
643 0 1 12.729900 3.859340 691.507690
644 0 1 13.274260 4.119740 690.762817
645 0 1 13.455360 4.599560 689.910095
646 0 1 13.561359 5.169040 689.144592
647 0 1 13.396610 5.538800 688.336121
648 0 1 13.249030 5.440760 687.374390
649 0 1 13.234610 5.410560 686.403992
650 0 1 13.090090 5.561740 685.470581
651 0 1 12.755489 5.643590 684.598206
652 0 1 12.648170 5.998950 683.680725
653 0 1 12.631760 6.234840 682.775391
654 0 1 12.759760 6.303120 681.786011
655 0 1 12.914510 6.371440 680.841187
656 0 1 12.873030 6.331760 679.828186
657 0 1 12.785840 6.611540 678.903931
658 0 1 12.762859 7.091227 677.980225
659 0 1 12.641060 7.753678 677.236877
660 0 1 12.633600 8.107679 676.368286
661 0 1 12.582800 8.719959 675.645874
662 0 1 12.905600 9.394130 674.940002
663 0 1 12.853930 10.323270 674.501282
664 0 1 12.644430 10.970510 673.856628
665 0 1 12.145720 11.366060 673.162781
666 0 1 11.728570 11.512239 672.304688
667 0 1 11.252010 11.365580 671.485596
668 0 1 10.860950 11.413820 670.532471
669 0 1 10.614000 11.557140 669.663025
670 0 1 10.189190 11.848630 668.932800
671 0 1 9.694000 12.020610 668.100525
672 0 1 8.999583 12.072741 667.467224
673 0 1 8.396024 11.935400 666.780884
674 0 1 8.107603 11.897130 665.889526
675 0 1 7.756117 12.132450 665.098694
676 0 1 7.429263 11.993750 664.164124
677 0 1 7.191191 11.817039 663.251587
678 0 1 7.210259 11.872510 662.283203
679 0 1 7.569850 11.804359 661.418091
680 0 1 8.073098 11.775860 660.571777
681 0 1 8.552820 11.722290 659.783691
682 0 1 9.207000 11.590330 659.086121
683 0 1 9.808860 11.406820 658.253296
684 0 1 10.322170 11.482090 657.483826
685 0 1 10.921870 11.463090 656.717285
686 0 1 11.290010 11.121790 655.904785
687 0 1 11.810150 10.766500 655.178589
688 0 1 12.285971 10.502600 654.432373
689 0 1 12.691620 9.831470 653.721985
690 0 1 12.874599 9.285830 652.911621
691 0 1 13.138800 8.642122 652.311096
692 0 1 13.391020 7.871560 651.700317
693 0 1 13.495510 7.341668 650.946899
694 0 1 13.571239 6.519530 650.535706
695 0 1 13.373280 5.697850 650.147278
696 0 1 13.036210 4.904820 649.544922
697 0 1 12.884630 4.354870 648.752930
698 0 1 12.505580 3.703820 648.034302
699 0 1 12.175850 3.001760 647.450195
700 0 1 11.892930 2.362820 646.823730
701 0 1 11.293840 2.072470 646.150513
702 0 1 10.936790 1.812260 645.276123
703 0 1 10.663280 1.757060 644.356201
704 0 1 10.603670 1.891940 643.390198
705 0 1 10.517100 2.089640 642.486206
706 0 1 10.537010 2.366930 641.574402
707 0 1 10.536290 2.580410 640.655029
708 0 1 10.610820 2.589480 639.692078
709 0 1 10.584230 2.906420 638.739502
710 0 1 10.406410 3.255900 637.866333
711 0 1 10.091540 3.522880 637.053650
712 0 1 9.766570 3.931520 636.268494
713 0 1 9.393760 4.481710 635.585449
714 0 1 9.106510 5.169890 634.967102
715 0 1 8.748906 5.933010 634.465759
716 0 1 8.191309 6.412260 633.819763
717 0 1 8.094646 7.095402 633.121216
718 0 1 8.255916 7.486986 632.276611
719 0 1 8.256752 7.709490 631.331726
720 0 1 8.268601 7.859258 630.332153
721 0 1 8.194289 7.763181 629.391357
722 0 1 8.144737 7.525860 628.475159
723 0 1 8.165157 7.169628 627.497070
724 0 1 7.824177 6.962420 626.567932
725 0 1 7.338659 6.680440 625.716980
726 0 1 6.865590 6.502340 624.900940
727 0 1 6.605380 6.212260 623.957031
728 0 1 6.753830 6.037650 623.052185
729 0 1 7.045652 6.110910 622.072144
730 0 1 7.542142 6.511210 621.352539
731 0 1 8.107763 6.877070 620.634216
732 0 1 8.520193 7.177915 619.812927
733 0 1 8.942816 7.476727 618.991638
734 0 1 9.191280 7.806229 618.169800
735 0 1 9.635120 7.927730 617.306702
736 0 1 10.046360 7.936029 616.452271
737 0 1 10.812190 8.262149 615.897827
738 0 1 11.600320 8.602717 615.284180
739 0 1 12.002820 8.907897 614.490295
740 0 1 12.390910 9.280840 613.643799
741 0 1 12.726720 9.746370 612.871399
742 0 1 13.222170 10.007071 612.013489
743 0 1 13.818069 10.198500 611.218018
744 0 1 13.960020 10.227370 610.275208
745 0 1 14.048790 9.873770 609.374573
746 0 1 14.112619 9.733450 608.474609
747 0 1 14.035990 9.437980 607.546509
748 0 1 13.754520 9.311980 606.598999
749 0 1 13.505600 8.955990 605.674683
750 0 1 13.103670 8.606109 604.840698
751 0 1 12.857040 8.239795 603.980225
752 0 1 12.840680 7.571963 603.248901
753 0 1 12.426880 7.003319 602.582886
754 0 1 11.896540 6.515090 601.991699
755 0 1 11.239690 6.242120 601.343201
756 0 1 10.489280 6.287670 600.609497
757 0 1 9.750550 6.260620 600.010803
758 0 1 8.967716 6.414600 599.479370
759 0 1 8.227399 6.713550 598.931580
760 0 1 7.563240 6.879830 598.282104
761 0 1 7.134328 7.149469 597.477417
762 0 1 7.348878 7.412529 596.572327
763 0 1 7.774547 7.931347 595.861206
764 0 1 8.086868 8.196263 594.994385
765 0 1 8.372859 8.600154 594.174194
766 0 1 8.332208 9.219190 593.409607
767 0 1 8.336688 9.897760 592.632996
768 0 1 8.363694 10.304240 591.777710
769 0 1 8.161529 10.658640 590.881714
770 0 1 7.866132 11.051010 590.044922
771 0 1 7.484799 11.547029 589.262817
772 0 1 7.144282 11.993031 588.503906
773 0 1 6.831240 12.169849 587.601990
774 0 1 6.731970 12.081261 586.642517
775 0 1 6.609710 12.340120 585.702820
776 0 1 6.780160 12.448870 584.791626
777 0 1 6.686510 12.366310 583.815979
778 0 1 6.744880 12.558110 582.883423
779 0 1 6.760560 12.520969 581.934204
780 0 1 6.542610 12.749269 581.002014
781 0 1 6.460110 13.091220 580.077881
782 0 1 6.646550 13.347570 579.213318
783 0 1 7.048892 13.667150 578.406189
784 0 1 7.692588 13.705730 577.636719
785 0 1 8.295091 13.489580 576.871826
786 0 1 8.922189 13.563590 576.104919
787 0 1 9.358310 13.833860 575.272400
788 0 1 9.739950 13.884160 574.378418
789 0 1 9.509960 13.608440 573.510132
790 0 1 9.152310 13.390280 572.678711