LAMMPS data file via MDAnalysis

        1000  atoms
        1000  bonds
        1000  angles
           0  dihedrals
           0  impropers

           1  atom types
           1  bond types
           1  angle types
           0  dihedral types
           0  improper types

0.000000 16.000000 xlo xhi
0.000000 16.000000 ylo yhi
0.000000 1257.000000 zlo zhi


Masses

1 1.000000

Atoms

1 0 1 12.905550 6.931070 438.968018
2 0 1 13.044849 6.922080 439.903015
3 0 1 13.115730 6.996010 440.822021
4 0 1 13.045280 6.993630 441.737000
5 0 1 12.822889 7.060801 442.699005
6 0 1 12.660060 7.327685 443.674011
7 0 1 12.440030 7.325698 444.609009
8 0 1 12.282681 7.149848 445.546997
9 0 1 12.262239 6.704120 446.447021
10 0 1 11.948510 6.285130 447.190979
11 0 1 11.585670 6.004210 447.996002
12 0 1 11.236691 5.697770 448.802979
13 0 1 10.822140 5.239580 449.557983
14 0 1 10.590270 4.791430 450.453003
15 0 1 10.769470 4.196450 451.195984
16 0 1 10.806800 3.558900 451.924988
17 0 1 10.862470 3.354810 452.830017
18 0 1 10.501740 2.940950 453.636993
19 0 1 10.112590 2.654040 454.477997
20 0 1 9.988540 2.363160 455.382019
21 0 1 10.071700 2.368520 456.333984
22 0 1 10.264400 2.268620 457.322021
23 0 1 10.405900 2.114820 458.212006
24 0 1 10.458590 2.092190 459.145020
25 0 1 10.775949 2.478710 459.994995
26 0 1 10.700900 3.063850 460.773987
27 0 1 10.638900 3.487730 461.587006
28 0 1 10.435640 3.366840 462.556000
29 0 1 10.186020 3.360220 463.494019
30 0 1 10.060670 3.207370 464.421021
31 0 1 9.875540 3.603900 465.270020
32 0 1 9.917960 3.984390 466.171021
33 0 1 9.911030 4.318400 467.122009
34 0 1 9.912251 4.578640 468.031006
35 0 1 9.755950 4.843050 468.984009
36 0 1 9.547550 5.177070 469.958984
37 0 1 9.379880 5.441240 470.934021
38 0 1 9.139700 5.720990 471.811005
39 0 1 8.667380 5.755980 472.705994
40 0 1 8.392239 5.647940 473.622986
41 0 1 8.388301 5.523810 474.549988
42 0 1 8.577224 5.530840 475.501007
43 0 1 8.694932 5.477270 476.458008
44 0 1 8.838040 5.552900 477.463013
45 0 1 8.831640 5.856940 478.475006
46 0 1 8.997322 6.057260 479.386993
47 0 1 8.846479 6.438230 480.272003
48 0 1 9.002510 6.818670 481.093994
49 0 1 9.139700 6.916380 482.028015
50 0 1 9.209230 6.899380 483.015015
51 0 1 9.254040 7.263580 483.904999
52 0 1 9.045300 7.677087 484.770996
53 0 1 8.819925 7.848681 485.671997
54 0 1 8.579360 8.009094 486.557007
55 0 1 8.486437 7.941419 487.462006
56 0 1 8.521791 7.676976 488.390991
57 0 1 8.321077 7.225751 489.166016
58 0 1 7.844125 6.712080 489.890991
59 0 1 7.496307 6.622390 490.774994
60 0 1 7.290741 6.660560 491.739014
61 0 1 7.084737 6.715640 492.718994
62 0 1 7.033539 6.792640 493.648010
63 0 1 7.053327 7.082216 494.539001
64 0 1 7.417461 7.503550 495.356995
65 0 1 7.470527 7.885341 496.213989
66 0 1 7.337015 8.345904 497.016998
67 0 1 7.102248 9.075980 497.666016
68 0 1 7.158556 9.805220 498.273010
69 0 1 7.009558 10.416590 498.953003
70 0 1 7.056423 11.215210 499.552002
71 0 1 7.135717 12.079430 500.007996
72 0 1 7.364805 12.585850 500.834991
73 0 1 7.677874 12.776711 501.687012
74 0 1 8.396653 13.118130 502.304016
75 0 1 8.675991 13.257710 503.192993
76 0 1 8.810221 13.267780 504.143982
77 0 1 8.727466 13.160931 505.122009
78 0 1 8.635232 13.136810 506.087006
79 0 1 8.463989 13.296010 507.011993
80 0 1 8.271388 13.090890 507.958984
81 0 1 7.931675 12.950630 508.859985
82 0 1 7.517366 12.663900 509.705994
83 0 1 7.203297 12.433790 510.588989
84 0 1 6.627560 12.370251 511.355011
85 0 1 5.941270 12.408350 512.089966
86 0 1 5.209880 12.475410 512.752014
87 0 1 4.482150 12.281500 513.393982
88 0 1 3.800710 11.864950 513.833984
89 0 1 3.341980 11.263060 514.500977
90 0 1 3.035150 10.819690 515.307007
91 0 1 2.696560 10.263041 516.083984
92 0 1 2.497960 9.824830 516.911987
93 0 1 2.403460 9.570480 517.801025
94 0 1 2.666050 9.323050 518.690002
95 0 1 3.076730 8.970905 519.445984
96 0 1 3.298370 8.519603 520.288025
97 0 1 3.443280 8.143246 521.153992
98 0 1 3.651490 7.992416 522.166016
99 0 1 3.839170 7.743755 523.083008
100 0 1 3.999980 7.734880 524.018005
101 0 1 4.062860 8.055059 524.957031
102 0 1 4.038410 8.319685 525.963989
103 0 1 4.295610 8.488509 526.854980
104 0 1 4.479690 8.480884 527.841003
105 0 1 4.706510 8.715259 528.705505
106 0 1 4.497460 8.675329 529.625793
107 0 1 4.533250 8.717569 530.624268
108 0 1 4.627720 8.654613 531.603027
109 0 1 4.637650 8.458783 532.576172
110 0 1 4.758580 8.315421 533.520996
111 0 1 4.889030 8.309301 534.477478
112 0 1 4.647970 7.954727 535.319397
113 0 1 4.268280 7.897936 536.221008
114 0 1 4.053260 7.919199 537.202820
115 0 1 4.438520 7.933280 538.074707
116 0 1 4.711630 7.947414 539.042786
117 0 1 5.076030 7.877068 539.919189
118 0 1 5.483600 7.660065 540.809509
119 0 1 5.789410 7.526982 541.742004
120 0 1 6.402460 7.333945 542.505981
121 0 1 6.605450 7.181564 543.427307
122 0 1 6.706480 7.199388 544.344299
123 0 1 6.626970 7.447746 545.271301
124 0 1 6.111170 7.810998 546.083618
125 0 1 5.683730 8.351081 546.731812
126 0 1 5.492740 8.931682 547.587769
127 0 1 5.249150 9.420660 548.418701
128 0 1 5.280440 9.803090 549.319702
129 0 1 5.157060 10.189640 550.189392
130 0 1 5.295400 10.528640 551.093323
131 0 1 5.569830 10.811430 551.974182
132 0 1 5.644410 11.371920 552.742493
133 0 1 5.522910 11.894850 553.469788
134 0 1 5.656380 12.514339 554.250732
135 0 1 6.008890 12.768100 555.108521
136 0 1 6.344790 12.675520 556.020813
137 0 1 6.697570 12.385550 556.919922
138 0 1 7.143711 12.341920 557.839294
139 0 1 7.242032 12.229380 558.804199
140 0 1 7.360033 11.799110 559.649475
141 0 1 7.706013 11.388781 560.491394
142 0 1 7.722014 10.645781 561.107483
143 0 1 7.706931 10.093280 561.901123
144 0 1 7.430739 10.045290 562.783875
145 0 1 7.051800 10.051350 563.691101
146 0 1 6.875090 10.040740 564.625732
147 0 1 6.577130 9.851640 565.509216
148 0 1 6.138900 9.671021 566.358582
149 0 1 5.648500 9.449980 567.121704
150 0 1 5.206200 9.321440 567.955627
151 0 1 4.605590 8.941782 568.616577
152 0 1 4.297390 8.827755 569.532288
153 0 1 4.403800 8.690347 570.492676
154 0 1 4.298950 8.484582 571.424622
155 0 1 3.955990 8.168899 572.257812
156 0 1 3.684120 7.763449 573.095520
157 0 1 3.330260 7.727103 574.017212
158 0 1 2.955440 7.629328 574.913330
159 0 1 2.926560 7.152609 575.745300
160 0 1 2.628940 6.961590 576.728577
161 0 1 2.659110 6.836460 577.684326
162 0 1 2.833280 6.582640 578.590698
163 0 1 3.261000 6.386750 579.406189
164 0 1 3.854410 6.206710 580.136108
165 0 1 4.490050 6.091660 580.863586
166 0 1 5.232240 6.179210 581.521790
167 0 1 5.969390 6.266930 582.159607
168 0 1 6.630930 6.387910 582.887207
169 0 1 7.190410 6.491130 583.609985
170 0 1 7.515454 6.761580 584.481506
171 0 1 7.860741 7.093129 585.320923
172 0 1 7.771108 7.634630 586.146484
173 0 1 7.525666 7.926942 587.026917
174 0 1 7.058666 7.979815 587.834778
175 0 1 6.833790 8.223862 588.763672
176 0 1 6.612330 8.155019 589.730591
177 0 1 6.428530 8.156399 590.719604
178 0 1 6.329940 8.148687 591.657288
179 0 1 6.131680 8.124849 592.574524
180 0 1 5.883600 8.140124 593.554993
181 0 1 5.827980 7.954254 594.580627
182 0 1 5.612150 7.619349 595.441406
183 0 1 5.394890 7.479235 596.375977
184 0 1 5.298310 7.642068 597.316406
185 0 1 5.223320 7.760811 598.303406
186 0 1 4.900970 7.802081 599.239319
187 0 1 4.450300 7.703698 600.163208
188 0 1 4.314550 7.749820 601.120300
189 0 1 3.908420 7.532071 601.913086
190 0 1 3.789590 7.488357 602.851807
191 0 1 3.824620 7.343626 603.832886
192 0 1 4.105580 7.294690 604.723022
193 0 1 4.173830 7.081818 605.631287
194 0 1 4.316220 6.928270 606.573608
195 0 1 4.511560 6.675190 607.551208
196 0 1 4.505290 6.359690 608.461121
197 0 1 4.537840 5.969590 609.431030
198 0 1 4.580630 6.124600 610.377930
199 0 1 4.832490 6.238670 611.274902
200 0 1 5.070730 6.394180 612.263306
201 0 1 5.325620 6.472770 613.247681
202 0 1 5.560610 6.843140 614.131775
203 0 1 5.573440 7.257153 614.977783
204 0 1 5.700070 7.842417 615.780090
205 0 1 5.756540 8.478888 616.434875
206 0 1 6.149750 9.013360 617.108582
207 0 1 6.463580 9.547120 617.845093
208 0 1 6.846400 9.864760 618.700500
209 0 1 6.995120 10.204770 619.571716
210 0 1 6.988360 10.556070 620.550171
211 0 1 6.910120 10.756210 621.514221
212 0 1 6.920900 11.056420 622.506836
213 0 1 7.067448 11.593870 623.432434
214 0 1 7.379267 12.092480 624.225403
215 0 1 7.776507 12.468451 624.961182
216 0 1 7.815524 12.836969 625.822083
217 0 1 7.798647 13.107210 626.766479
218 0 1 7.551244 13.549290 627.584900
219 0 1 7.389827 13.508570 628.583862
220 0 1 7.396003 13.368031 629.528870
221 0 1 7.553411 13.286560 630.447693
222 0 1 7.674118 13.081800 631.372070
223 0 1 7.814888 12.808760 632.343628
224 0 1 8.287940 12.822710 633.177673
225 0 1 8.879140 12.585859 633.928345
226 0 1 9.498240 12.414670 634.615784
227 0 1 10.067699 11.901520 635.173645
228 0 1 10.666150 11.443450 635.839661
229 0 1 11.001660 10.985650 636.585510
230 0 1 11.491720 10.739780 637.357605
231 0 1 11.984780 10.765600 638.203613
232 0 1 12.410290 10.821671 639.055481
233 0 1 12.883490 10.721991 639.858276
234 0 1 13.179020 10.614040 640.751404
235 0 1 13.376040 10.437230 641.656616
236 0 1 13.595280 10.025110 642.448303
237 0 1 13.809811 9.841580 643.409485
238 0 1 14.019510 9.802840 644.375427
239 0 1 14.269080 9.596490 645.221985
240 0 1 14.194340 9.865800 646.141113
241 0 1 14.295860 10.225340 647.102417
242 0 1 14.237260 10.688740 647.963379
243 0 1 14.105801 10.936480 648.890991
244 0 1 13.834311 10.995610 649.809387
245 0 1 13.366060 10.598989 650.617798
246 0 1 12.794920 10.220119 651.298828
247 0 1 12.588079 9.858280 652.169495
248 0 1 12.460080 9.614540 653.177002
249 0 1 12.360880 9.445520 654.157593
250 0 1 12.042669 9.297260 655.039978
251 0 1 11.489100 9.027120 655.801880
252 0 1 10.941860 8.799071 656.539673
253 0 1 10.382960 8.516227 657.312317
254 0 1 10.165480 8.055840 658.140625
255 0 1 10.088200 7.786576 659.138428
256 0 1 9.861390 7.460631 660.000610
257 0 1 9.735450 7.129995 660.937622
258 0 1 9.876790 6.635290 661.705872
259 0 1 9.879990 6.053730 662.459900
260 0 1 9.646379 5.632500 663.328674
261 0 1 9.944650 5.307790 664.229980
262 0 1 10.284870 4.972900 665.120911
263 0 1 10.526700 4.941510 666.026123
264 0 1 10.602810 4.837910 667.021606
265 0 1 10.631190 4.612300 668.026184
266 0 1 10.515650 4.684570 669.001282
267 0 1 10.414400 4.633290 669.945679
268 0 1 10.495729 4.387840 670.870789
269 0 1 10.525949 4.362780 671.823181
270 0 1 10.653530 4.347330 672.799805
271 0 1 10.770870 4.220140 673.706787
272 0 1 10.847290 3.886260 674.620972
273 0 1 11.073660 3.539310 675.492615
274 0 1 11.075560 3.512400 676.579285
275 0 1 10.713770 3.552030 677.468018
276 0 1 10.149970 3.840260 678.225403
277 0 1 9.603490 4.029320 679.037292
278 0 1 9.257830 4.117190 679.927124
279 0 1 8.989811 4.559930 680.747986
280 0 1 8.812113 4.999250 681.616089
281 0 1 8.164922 5.258980 682.295593
282 0 1 7.818305 5.634200 683.077698
283 0 1 7.671168 6.051220 683.974487
284 0 1 7.342955 6.466880 684.776672
285 0 1 7.239571 6.856690 685.657410
286 0 1 7.081167 7.283787 686.435913
287 0 1 6.956600 7.704611 687.286377
288 0 1 7.203247 8.002975 688.160522
289 0 1 7.338940 8.424089 689.023682
290 0 1 7.675728 8.705722 689.899292
291 0 1 7.963104 8.798528 690.774475
292 0 1 8.029877 8.571970 691.711792
293 0 1 8.067915 8.381456 692.698120
294 0 1 8.327959 8.021049 693.507812
295 0 1 8.218837 8.143883 694.429199
296 0 1 8.343855 8.348184 695.410522
297 0 1 8.672896 8.526578 696.285767
298 0 1 8.808360 8.872055 697.194824
299 0 1 9.094730 9.333790 698.009094
300 0 1 9.466100 9.722600 698.797119
301 0 1 9.838530 10.090460 699.606323
302 0 1 10.214260 10.418100 700.447876
303 0 1 10.662720 10.931940 701.123291
304 0 1 10.936330 11.601270 701.762085
305 0 1 11.036510 11.942690 702.635193
306 0 1 11.258410 12.244410 703.502197
307 0 1 11.628340 12.480970 704.319885
308 0 1 12.119560 12.532630 705.088013
309 0 1 12.558910 12.288960 705.905396
310 0 1 12.908990 11.763680 706.657715
311 0 1 12.966600 11.186900 707.373596
312 0 1 13.131599 10.619380 708.162903
313 0 1 13.374840 10.152300 708.968689
314 0 1 13.629710 9.600140 709.785767
315 0 1 13.547131 9.423790 710.714905
316 0 1 13.366850 9.524580 711.625122
317 0 1 13.073690 9.520420 712.544067
318 0 1 12.759911 9.635520 713.437134
319 0 1 12.479910 9.847651 714.282898
320 0 1 12.318319 10.142580 715.197693
321 0 1 12.057680 10.502040 716.023499
322 0 1 11.719900 11.050930 716.729187
323 0 1 11.769390 11.517550 717.638977
324 0 1 12.021811 11.624760 718.578491
325 0 1 12.173890 11.342690 719.456787
326 0 1 12.307040 10.832200 720.380615
327 0 1 12.911380 10.565100 721.080200
328 0 1 13.294570 9.879000 721.631714
329 0 1 13.747271 9.330540 722.318115
330 0 1 14.149230 9.007160 723.128174
331 0 1 14.380580 8.679785 724.015076
332 0 1 14.402000 8.423491 724.950500
333 0 1 14.414380 8.131825 725.786804
334 0 1 14.419670 7.891902 726.709412
335 0 1 14.429871 7.364505 727.517334
336 0 1 14.119160 6.973950 728.398071
337 0 1 13.666241 6.864260 729.244019
338 0 1 13.210400 6.735100 730.057007
339 0 1 12.931271 6.659710 731.010010
340 0 1 12.793180 6.456240 731.919983
341 0 1 12.745820 6.390890 732.865967
342 0 1 12.524640 6.611900 733.781006
343 0 1 12.514990 6.934510 734.653015
344 0 1 12.340700 7.185986 735.567017
345 0 1 12.344070 7.357709 736.531006
346 0 1 12.456730 7.617757 737.471985
347 0 1 12.331190 7.903481 738.377014
348 0 1 12.207200 8.069865 739.343018
349 0 1 11.946950 8.405602 740.195984
350 0 1 11.653130 8.471649 741.108032
351 0 1 11.515330 8.606763 742.060974
352 0 1 11.452320 9.030130 742.942017
353 0 1 11.699360 9.564830 743.690002
354 0 1 11.927180 10.211190 744.351990
355 0 1 11.919800 10.410360 745.330994
356 0 1 11.995610 10.607880 746.309998
357 0 1 11.946939 10.764170 747.218018
358 0 1 11.758790 11.022750 748.082031
359 0 1 11.518720 11.037680 749.026001
360 0 1 11.530080 11.380870 749.888000
361 0 1 11.564130 11.624820 750.810974
362 0 1 11.600230 11.866930 751.747986
363 0 1 11.417459 11.882360 752.708008
364 0 1 11.209110 11.983750 753.664001
365 0 1 10.754350 12.269899 754.468994
366 0 1 10.593360 12.226960 755.406006
367 0 1 10.472640 11.929660 756.302002
368 0 1 10.630341 11.664970 757.229004
369 0 1 10.592900 11.557580 758.171997
370 0 1 10.584450 11.505410 759.151001
371 0 1 10.649250 11.140230 760.091003
372 0 1 10.763840 10.907190 761.052979
373 0 1 11.069030 10.639240 761.937988
374 0 1 11.434800 10.041910 762.690979
375 0 1 11.886930 9.676250 763.400024
376 0 1 12.266260 9.245831 764.114014
377 0 1 12.393789 8.657156 764.885986
378 0 1 12.271749 8.393650 765.817993
379 0 1 12.086330 7.947005 766.614014
380 0 1 11.716160 7.795826 767.473999
381 0 1 11.448820 7.454855 768.286011
382 0 1 10.894040 7.167866 769.009033
383 0 1 10.103120 6.922510 769.468018
384 0 1 9.294220 6.773230 769.950012
385 0 1 8.388428 6.612580 770.289001
386 0 1 7.672541 6.415330 770.945984
387 0 1 7.009046 5.962080 771.398987
388 0 1 6.175000 5.709170 771.838989
389 0 1 5.496990 5.362150 772.369995
390 0 1 5.117080 4.792620 773.153015
391 0 1 4.822510 4.250390 773.896973
392 0 1 4.639650 3.786870 774.733032
393 0 1 4.395600 3.737770 775.669983
394 0 1 3.963270 3.644250 776.523010
395 0 1 3.586520 3.593740 777.426025
396 0 1 3.729870 3.429880 778.349976
397 0 1 3.912280 3.645310 779.240967
398 0 1 4.180170 4.014160 780.172974
399 0 1 4.606460 4.351600 780.936035
400 0 1 4.902780 4.860820 781.641968
401 0 1 5.066430 5.228280 782.500000
402 0 1 5.118880 5.579180 783.365967
403 0 1 5.279860 5.824310 784.270996
404 0 1 5.376080 6.182810 785.139038
405 0 1 5.615070 6.451580 786.067017
406 0 1 5.813570 6.589640 787.030029
407 0 1 5.479140 6.490180 787.950012
408 0 1 5.237250 6.351730 788.890015
409 0 1 5.016330 6.406640 789.809998
410 0 1 4.724430 6.453850 790.754028
411 0 1 4.478050 6.374240 791.664978
412 0 1 4.194020 6.117410 792.575012
413 0 1 3.812750 5.986370 793.429993
414 0 1 3.513540 6.014620 794.348999
415 0 1 3.368100 5.843440 795.231018
416 0 1 3.441630 5.607200 796.136963
417 0 1 3.381630 5.167670 796.978027
418 0 1 3.412230 4.956860 797.864990
419 0 1 3.223000 4.956930 798.838013
420 0 1 3.505040 4.665690 799.703003
421 0 1 3.547720 4.326220 800.580994
422 0 1 3.817760 3.910290 801.369019
423 0 1 4.428110 3.640030 802.023987
424 0 1 4.711170 3.373790 802.906982
425 0 1 5.138560 3.411590 803.820984
426 0 1 5.603380 3.221050 804.688965
427 0 1 6.035690 2.975600 805.476990
428 0 1 6.486030 2.646340 806.341980
429 0 1 6.902700 2.660490 807.200989
430 0 1 7.199137 2.897250 808.070984
431 0 1 7.619587 3.147750 808.862000
432 0 1 8.068457 3.096600 809.761963
433 0 1 8.307014 3.197520 810.697021
434 0 1 8.456897 3.210000 811.656006
435 0 1 8.714897 3.079280 812.622009
436 0 1 8.970226 2.841830 813.489014
437 0 1 9.256010 2.817810 814.396973
438 0 1 9.208390 3.085490 815.309021
439 0 1 8.981188 3.116360 816.261963
440 0 1 9.007770 3.385260 817.171997
441 0 1 9.039351 3.859780 818.036011
442 0 1 8.738442 4.439400 818.738037
443 0 1 8.484601 5.015220 819.497986
444 0 1 7.939909 5.646270 820.049988
445 0 1 7.657171 6.468540 820.510010
446 0 1 7.145176 7.045135 821.011963
447 0 1 6.713910 7.730459 821.536987
448 0 1 6.287600 8.384430 822.049011
449 0 1 5.741200 9.021670 822.473999
450 0 1 5.140000 9.606010 822.924011
451 0 1 4.968400 10.340480 823.544983
452 0 1 4.832710 10.824590 824.354004
453 0 1 5.025500 11.128440 825.193970
454 0 1 5.157960 11.453260 826.132019
455 0 1 5.157170 11.272820 827.124023
456 0 1 5.077140 11.254210 828.044006
457 0 1 4.637490 11.220420 829.000977
458 0 1 4.383370 11.062820 829.973999
459 0 1 4.343110 10.909980 831.018005
460 0 1 4.273670 10.758560 831.934021
461 0 1 4.191670 10.758980 832.843994
462 0 1 3.870400 10.693640 833.770996
463 0 1 3.859180 10.514640 834.768982
464 0 1 4.112340 10.265260 835.645996
465 0 1 4.116030 9.678340 836.406982
466 0 1 4.258550 9.185250 837.240967
467 0 1 4.470580 8.611861 838.002014
468 0 1 5.191620 8.119667 838.372986
469 0 1 6.008290 7.726153 838.763000
470 0 1 6.898400 7.399411 838.891968
471 0 1 7.796567 7.281899 838.513000
472 0 1 8.571222 7.186439 837.851990
473 0 1 9.327530 7.365193 837.301025
474 0 1 9.991020 7.965686 836.846008
475 0 1 10.475040 8.494994 836.104004
476 0 1 11.070200 8.906960 835.544006
477 0 1 11.398070 9.447380 834.851013
478 0 1 11.629120 10.059860 834.134033
479 0 1 11.539850 10.526540 833.320007
480 0 1 11.605820 10.928460 832.442017
481 0 1 11.807859 11.119750 831.518982
482 0 1 11.864201 11.076100 830.562988
483 0 1 11.823950 10.870540 829.598022
484 0 1 11.697090 10.659770 828.686035
485 0 1 11.135870 10.481080 827.818970
486 0 1 10.490880 10.532280 827.174988
487 0 1 9.793480 10.736670 826.572998
488 0 1 9.131190 10.791540 825.903015
489 0 1 8.444481 10.971680 825.195984
490 0 1 7.697224 10.958230 824.596985
491 0 1 7.027059 10.763480 823.924011
492 0 1 6.365110 10.337180 823.278992
493 0 1 6.041300 9.986670 822.497986
494 0 1 5.733810 9.818030 821.585999
495 0 1 5.450930 9.898090 820.599976
496 0 1 5.057300 9.868250 819.734985
497 0 1 5.038780 10.084000 818.771973
498 0 1 5.177940 10.442590 817.893982
499 0 1 5.553930 10.483110 817.067993
500 0 1 5.642400 10.294300 816.190979
501 0 1 5.781170 10.061320 815.226013
502 0 1 6.217310 10.221110 814.395996
503 0 1 6.746190 10.036780 813.588989
504 0 1 7.317360 9.707900 812.820007
505 0 1 7.966070 9.500010 812.174011
506 0 1 8.376365 9.295560 811.315979
507 0 1 8.344921 9.449640 810.389038
508 0 1 8.230350 9.626210 809.460022
509 0 1 8.192013 9.820680 808.505981
510 0 1 8.175532 9.777130 807.547974
511 0 1 8.084400 9.654770 806.634033
512 0 1 8.164029 9.467520 805.718994
513 0 1 8.216235 9.285980 804.770020
514 0 1 8.255576 8.848514 803.864014
515 0 1 8.249374 8.387137 803.000977
516 0 1 8.487933 8.012296 802.122009
517 0 1 8.685707 7.782710 801.197998
518 0 1 8.976695 8.016112 800.356018
519 0 1 9.362290 8.221495 799.479980
520 0 1 9.597760 8.373369 798.502014
521 0 1 10.066390 8.547048 797.645996
522 0 1 10.245980 8.757662 796.760986
523 0 1 10.333250 8.918314 795.742004
524 0 1 10.241899 9.199409 794.765991
525 0 1 10.046070 9.671520 793.877991
526 0 1 9.811540 10.185720 793.140015
527 0 1 9.546530 10.690380 792.341980
528 0 1 9.250270 10.967890 791.474976
529 0 1 9.212410 11.055550 790.549988
530 0 1 9.330580 11.199950 789.575012
531 0 1 9.759960 11.320680 788.747986
532 0 1 10.312650 11.323590 787.955017
533 0 1 11.041850 11.199650 787.380981
534 0 1 11.830430 11.398010 786.804993
535 0 1 12.388350 11.234400 786.025024
536 0 1 12.568520 10.939140 785.156982
537 0 1 12.584510 10.396310 784.325012
538 0 1 12.887350 9.983810 783.457031
539 0 1 13.424320 9.470540 782.833008
540 0 1 13.927940 9.067880 782.080994
541 0 1 14.387210 8.744163 781.291016
542 0 1 14.371469 8.464196 780.388000
543 0 1 14.322610 8.065026 779.494995
544 0 1 14.249149 7.535018 778.702026
545 0 1 14.150080 6.987010 777.948975
546 0 1 13.893980 6.547000 777.083984
547 0 1 13.740440 6.147120 776.273010
548 0 1 13.653820 5.725700 775.414001
549 0 1 13.390100 5.507210 774.515991
550 0 1 13.134050 5.444780 773.577026
551 0 1 12.764339 5.192510 772.614990
552 0 1 12.542931 4.820790 771.763000
553 0 1 12.204700 4.564560 770.835022
554 0 1 12.224279 4.235980 769.940979
555 0 1 12.375690 4.250710 768.926025
556 0 1 12.537840 4.512610 767.952026
557 0 1 12.963090 4.403850 767.114990
558 0 1 13.139130 4.411700 766.122009
559 0 1 13.085640 4.594950 765.125977
560 0 1 12.660070 4.594910 764.301025
561 0 1 12.420120 4.296650 763.422974
562 0 1 12.001870 4.090740 762.588989
563 0 1 12.005890 3.996430 761.660034
564 0 1 11.785010 3.931290 760.661011
565 0 1 11.397930 4.013860 759.752991
566 0 1 10.964440 4.255800 758.929993
567 0 1 10.405910 4.411390 758.169983
568 0 1 9.909990 4.568000 757.367981
569 0 1 9.332650 4.865730 756.635986
570 0 1 8.907152 5.028020 755.785034
571 0 1 8.721261 5.207050 754.891968
572 0 1 8.624008 5.314900 753.945007
573 0 1 8.311572 5.166160 753.012024
574 0 1 7.950858 5.419500 752.150024
575 0 1 7.554011 5.546080 751.226013
576 0 1 7.439175 5.680320 750.263977
577 0 1 7.172505 5.656890 749.375000
578 0 1 7.243305 5.775440 748.473999
579 0 1 7.395377 6.223860 747.630005
580 0 1 7.550472 6.615850 746.695984
581 0 1 7.631858 7.319458 746.030029
582 0 1 8.002397 8.186788 745.640015
583 0 1 8.387227 8.855877 745.089966
584 0 1 8.817080 9.497330 744.554016
585 0 1 9.279210 10.104680 744.057983
586 0 1 9.357140 10.974850 743.632996
587 0 1 9.548660 11.784500 743.185974
588 0 1 10.149760 12.115000 742.457031
589 0 1 10.746490 12.547850 741.828003
590 0 1 10.877680 12.944630 740.973022
591 0 1 11.010270 13.205191 740.062012
592 0 1 11.086309 13.354480 739.129028
593 0 1 10.985480 13.522390 738.166016
594 0 1 10.877150 13.555941 737.221008
595 0 1 10.793900 13.436319 736.244019
596 0 1 10.711451 13.170080 735.341980
597 0 1 10.658920 13.148350 734.393982
598 0 1 10.373440 12.808451 733.591980
599 0 1 10.164120 12.670080 732.568970
600 0 1 10.054831 12.504230 731.601990
601 0 1 9.927910 12.500280 730.677979
602 0 1 9.376940 12.550360 729.942993
603 0 1 8.930211 12.169950 729.169983
604 0 1 8.588410 11.546650 728.418396
605 0 1 8.363213 10.991550 727.630127
606 0 1 8.218529 10.175310 727.031921
607 0 1 8.294517 9.608080 726.230286
608 0 1 8.816771 9.051980 725.561523
609 0 1 9.052470 8.704501 724.709473
610 0 1 9.154830 8.476611 723.760986
611 0 1 9.265170 8.030322 722.913818
612 0 1 9.121580 7.472082 722.128418
613 0 1 8.737041 6.778110 721.546814
614 0 1 8.491184 5.981170 721.025879
615 0 1 8.097535 5.197710 720.475708
616 0 1 7.949361 4.632000 719.767090
617 0 1 7.914203 4.186170 718.923096
618 0 1 8.005195 3.963630 717.991516
619 0 1 8.148068 4.017610 717.015381
620 0 1 8.346723 4.296680 716.133606
621 0 1 8.283240 4.417840 715.145874
622 0 1 8.105408 4.490100 714.195190
623 0 1 7.746884 4.544200 713.322876
624 0 1 7.285771 4.760420 712.499878
625 0 1 6.660690 4.789150 711.771973
626 0 1 6.130530 4.488030 710.984619
627 0 1 5.487750 4.462030 710.283997
628 0 1 4.984720 4.770930 709.485596
629 0 1 4.667730 4.870900 708.516907
630 0 1 4.538760 5.190610 707.565613
631 0 1 4.461290 5.534230 706.644897
632 0 1 4.437450 5.831520 705.744507
633 0 1 4.536800 6.148170 704.877197
634 0 1 4.646090 6.721070 704.105225
635 0 1 4.780350 7.492073 703.515015
636 0 1 4.706310 8.109801 702.789429
637 0 1 4.511780 8.676592 702.075378
638 0 1 4.252510 8.949186 701.133118
639 0 1 3.990440 8.763885 700.236389
640 0 1 3.702520 8.670806 699.319824
641 0 1 3.359160 8.571108 698.417114
642 0 1 3.174990 8.542430 697.498291
643 0 1 3.147140 8.265575 696.574402
644 0 1 3.147490 7.888911 695.723389
645 0 1 3.222430 7.693079 694.806274
646 0 1 3.683350 7.347498 694.060303
647 0 1 3.968910 6.842110 693.338196
648 0 1 4.001360 6.252510 692.601501
649 0 1 4.174250 5.436700 692.133423
650 0 1 4.558670 4.613920 691.737183
651 0 1 4.847530 3.873860 691.055298
652 0 1 4.988150 3.122810 690.467712
653 0 1 5.173660 2.643020 689.682678
654 0 1 5.618180 2.320040 688.907898
655 0 1 6.036000 2.005670 688.126221
656 0 1 6.578270 2.021500 687.311523
657 0 1 7.013833 2.117300 686.506897
658 0 1 7.108503 2.238370 685.569214
659 0 1 7.295670 2.349660 684.650879
660 0 1 7.370257 2.228510 683.665283
661 0 1 7.426084 2.502690 682.781128
662 0 1 7.325373 2.694860 681.844788
663 0 1 7.078696 2.791280 680.866516
664 0 1 7.049637 3.168310 680.026794
665 0 1 6.752960 3.360340 679.106995
666 0 1 6.736070 3.553280 678.177795
667 0 1 6.744270 3.855000 677.252319
668 0 1 6.623000 3.972590 676.269897
669 0 1 6.696400 4.223470 675.315918
670 0 1 6.929050 4.726140 674.552307
671 0 1 7.022637 5.403010 673.833374
672 0 1 7.381332 6.009620 673.257996
673 0 1 7.587047 6.526550 672.437012
674 0 1 7.598030 6.948510 671.556580
675 0 1 7.497674 7.094176 670.684875
676 0 1 7.532299 7.460397 669.804932
677 0 1 7.487736 7.717389 668.851074
678 0 1 7.455297 8.232757 668.014709
679 0 1 7.241146 8.515291 667.154419
680 0 1 7.001834 8.793077 666.142578
681 0 1 6.681330 8.709579 665.232788
682 0 1 6.386410 8.522881 664.397522
683 0 1 6.220280 8.326339 663.447083
684 0 1 6.122940 7.745574 662.667175
685 0 1 5.980130 7.361785 661.851624
686 0 1 5.661870 6.998380 661.037476
687 0 1 5.509180 6.619410 660.219421
688 0 1 5.492730 6.348600 659.248474
689 0 1 5.351030 6.217070 658.285706
690 0 1 5.190640 5.934120 657.375122
691 0 1 4.898760 5.828550 656.455322
692 0 1 4.807650 5.541130 655.535828
693 0 1 4.822410 5.269930 654.582031
694 0 1 4.708440 5.042140 653.677673
695 0 1 4.402880 4.752370 652.865417
696 0 1 4.396170 4.511480 651.933777
697 0 1 4.163870 4.491760 650.966614
698 0 1 3.987360 4.484700 650.037781
699 0 1 3.792320 4.700660 649.138000
700 0 1 3.943090 4.887660 648.213013
701 0 1 4.070730 5.161560 647.269531
702 0 1 4.250340 5.280710 646.219604
703 0 1 4.362200 5.781740 645.406616
704 0 1 4.578940 6.018410 644.507080
705 0 1 4.625940 5.883940 643.507019
706 0 1 4.380850 5.772860 642.560303
707 0 1 4.195770 5.793700 641.611816
708 0 1 4.158470 5.791720 640.660217
709 0 1 4.084710 5.658640 639.706909
710 0 1 4.155180 5.549540 638.754883
711 0 1 4.325810 5.476300 637.810730
712 0 1 4.359680 5.461320 636.886292
713 0 1 3.996330 5.828060 636.058167
714 0 1 3.808910 6.589080 635.434082
715 0 1 3.444160 7.165969 634.792847
716 0 1 2.903600 7.600142 634.128540
717 0 1 2.587620 8.005730 633.340576
718 0 1 2.416290 8.544445 632.561890
719 0 1 2.100540 8.955196 631.767212
720 0 1 2.013890 9.201680 630.877258
721 0 1 1.778700 9.355270 629.837769
722 0 1 1.732280 9.419920 628.835693
723 0 1 1.842690 9.601840 627.910400
724 0 1 2.302760 9.674290 627.074219
725 0 1 2.574870 9.656840 626.169250
726 0 1 3.028500 9.405140 625.319153
727 0 1 3.596140 9.495060 624.604919
728 0 1 4.122110 9.232090 623.844788
729 0 1 4.380940 8.873397 623.015625
730 0 1 4.643570 8.569036 622.135193
731 0 1 4.848770 8.569011 621.132874
732 0 1 4.993450 8.699398 620.218933
733 0 1 4.843030 8.932847 619.285339
734 0 1 4.661510 9.093290 618.312012
735 0 1 4.724500 9.411630 617.394287
736 0 1 4.658380 9.537010 616.484802
737 0 1 4.839500 9.924191 615.649170
738 0 1 5.120570 10.148610 614.768982
739 0 1 5.247820 9.896890 613.893616
740 0 1 5.383300 9.444901 612.980286
741 0 1 5.267740 8.954809 612.176697
742 0 1 5.327760 8.677768 611.204773
743 0 1 5.556770 8.684229 610.313171
744 0 1 5.544760 8.715245 609.367310
745 0 1 5.791430 8.951414 608.471191
746 0 1 5.843990 8.857635 607.517822
747 0 1 5.901460 8.625042 606.537476
748 0 1 6.307420 8.517389 605.647705
749 0 1 6.641610 8.530962 604.804016
750 0 1 7.009012 8.708909 603.942993
751 0 1 7.399822 8.961917 603.043579
752 0 1 7.648469 9.175610 602.165283
753 0 1 8.024124 9.547421 601.354797
754 0 1 8.409662 9.831141 600.430786
755 0 1 8.588498 9.819860 599.512207
756 0 1 8.866883 10.092690 598.631409
757 0 1 8.924673 9.951730 597.664124
758 0 1 8.866367 9.528330 596.795593
759 0 1 8.701416 8.855282 596.084778
760 0 1 8.657135 8.319396 595.270996
761 0 1 8.744166 7.802549 594.444824
762 0 1 8.784852 7.328047 593.605408
763 0 1 8.947488 6.963170 592.667725
764 0 1 8.871039 6.576870 591.853821
765 0 1 8.476669 5.907010 591.211609
766 0 1 7.922045 5.532900 590.439819
767 0 1 7.315990 5.171130 589.743591
768 0 1 6.829440 4.664510 589.059387
769 0 1 6.474460 4.340600 588.216187
770 0 1 6.169750 4.178250 587.319885
771 0 1 6.029810 4.121380 586.345703
772 0 1 5.582580 4.032200 585.480225
773 0 1 5.221480 3.850330 584.591309
774 0 1 4.693710 4.096840 583.844177
775 0 1 4.120730 4.520760 583.135315
776 0 1 3.634450 4.912990 582.340088
777 0 1 3.206660 5.124860 581.416992
778 0 1 2.992860 5.208710 580.480225
779 0 1 2.806790 5.300430 579.497620
780 0 1 2.577100 5.227570 578.518921
781 0 1 2.510550 5.307140 577.569397
782 0 1 2.728930 5.149170 576.649414
783 0 1 3.148240 4.977240 575.828613
784 0 1 3.601780 5.099740 574.965088
785 0 1 3.917680 5.305860 574.021973
786 0 1 4.560570 5.598660 573.351929
787 0 1 5.208140 5.675500 572.655396
788 0 1 5.644210 5.405200 571.834778
789 0 1 5.790320 5.797180 570.953186
790 0 1 6.186710 6.080030 570.116821
791 0 1 6.571460 6.157210 569.263123
792 0 1 6.735750 6.260240 568.315186