LAMMPS data file via MDAnalysis

        1000  atoms
        1000  bonds
        1000  angles
           0  dihedrals
           0  impropers

           1  atom types
           1  bond types
           1  angle types
           0  dihedral types
           0  improper types

0.000000 16.000000 xlo xhi
0.000000 16.000000 ylo yhi
0.000000 1257.000000 zlo zhi


Masses

1 1.000000

Atoms

1 0 1 11.495280 8.440985 455.927002
2 0 1 11.695040 8.253560 456.852997
3 0 1 11.651600 7.996820 457.809998
4 0 1 11.690680 7.459864 458.614990
5 0 1 11.674580 6.955950 459.434021
6 0 1 11.667670 6.375310 460.205994
7 0 1 11.797400 6.391090 461.151001
8 0 1 12.038310 6.515640 462.044006
9 0 1 12.130470 6.571680 463.015015
10 0 1 12.124910 6.495370 463.997986
11 0 1 12.191071 6.450240 464.963013
12 0 1 12.401199 6.853700 465.755981
13 0 1 12.380760 7.349455 466.664001
14 0 1 11.927160 7.734651 467.464996
15 0 1 11.754580 7.991939 468.350006
16 0 1 11.482759 8.110056 469.345001
17 0 1 11.035500 8.517413 470.153992
18 0 1 10.492440 8.798504 470.863007
19 0 1 9.836700 9.188660 471.416016
20 0 1 9.358840 9.671040 472.179993
21 0 1 9.172660 10.045840 473.088013
22 0 1 8.922964 10.205230 473.997009
23 0 1 8.711780 10.671770 474.779999
24 0 1 7.994869 10.797810 475.462006
25 0 1 7.533426 11.173640 476.242004
26 0 1 7.506399 11.414761 477.201996
27 0 1 7.301681 11.761980 478.059998
28 0 1 7.069483 12.122140 478.895020
29 0 1 7.288488 12.416330 479.760986
30 0 1 7.529727 12.497480 480.673004
31 0 1 7.855192 12.627660 481.653992
32 0 1 8.236108 12.693000 482.593018
33 0 1 8.739802 12.618580 483.450012
34 0 1 9.108140 12.764830 484.339996
35 0 1 9.389650 12.609221 485.226013
36 0 1 9.689310 12.604200 486.132996
37 0 1 10.021390 12.519500 487.022003
38 0 1 10.297570 12.460270 487.927002
39 0 1 10.541870 12.307270 488.828979
40 0 1 10.730900 12.129630 489.753998
41 0 1 10.715000 11.708100 490.640015
42 0 1 10.839690 11.161870 491.436005
43 0 1 11.164890 10.577260 492.263000
44 0 1 11.427340 10.135990 493.091980
45 0 1 11.436930 9.605960 493.904999
46 0 1 11.599970 9.152250 494.750000
47 0 1 11.828130 8.855996 495.567993
48 0 1 12.046490 8.538232 496.403015
49 0 1 11.846680 8.116984 497.210022
50 0 1 11.637480 7.861997 498.102997
51 0 1 11.718830 7.699017 499.057983
52 0 1 11.764669 7.726598 500.041016
53 0 1 11.638390 7.861524 501.101990
54 0 1 11.351191 8.203289 501.929993
55 0 1 11.007180 8.692087 502.664001
56 0 1 10.500130 8.822869 503.433990
57 0 1 10.427959 9.289080 504.299988
58 0 1 10.338560 9.605250 505.177002
59 0 1 10.333370 9.997530 506.022003
60 0 1 10.292730 10.482880 506.820984
61 0 1 10.367250 10.851690 507.656982
62 0 1 10.499480 10.776870 508.622009
63 0 1 10.336000 10.493210 509.575012
64 0 1 10.317090 9.864799 510.333008
65 0 1 9.892380 9.070590 510.641998
66 0 1 9.461700 8.312494 511.019989
67 0 1 9.307590 7.512227 511.571991
68 0 1 9.263530 6.836280 512.260986
69 0 1 9.347100 6.304450 513.161987
70 0 1 9.697430 5.773500 513.947998
71 0 1 9.915000 5.423070 514.763000
72 0 1 9.755660 4.936590 515.588013
73 0 1 9.569640 4.523120 516.413025
74 0 1 9.551220 4.214190 517.289001
75 0 1 9.593760 3.812000 518.140991
76 0 1 9.918159 3.526270 518.953979
77 0 1 10.176860 3.307940 519.851990
78 0 1 10.619670 3.114270 520.716980
79 0 1 11.023100 2.895050 521.523987
80 0 1 11.263120 2.696350 522.351013
81 0 1 11.216311 2.527190 523.309998
82 0 1 11.477230 2.467350 524.223022
83 0 1 11.736640 2.853200 525.023987
84 0 1 12.024520 3.332400 525.786011
85 0 1 12.198299 3.936280 526.484009
86 0 1 12.639470 4.748870 527.023010
87 0 1 12.961929 5.462450 527.549011
88 0 1 13.235760 5.966750 528.346008
89 0 1 13.231649 6.455540 529.189209
90 0 1 13.268860 6.825040 530.134521
91 0 1 13.156780 7.534866 530.700928
92 0 1 12.829340 8.108930 531.445923
93 0 1 12.522150 8.800799 532.014404
94 0 1 12.204830 9.370940 532.691284
95 0 1 11.909290 9.856570 533.420715
96 0 1 11.447100 10.244270 534.223022
97 0 1 11.003600 10.291500 535.053894
98 0 1 11.088760 10.098600 535.981018
99 0 1 11.153790 9.879260 536.926880
100 0 1 11.344049 9.764790 537.866516
101 0 1 11.363470 9.797260 538.802368
102 0 1 11.395260 9.551740 539.752502
103 0 1 11.291980 9.308760 540.708008
104 0 1 11.078970 9.026630 541.631226
105 0 1 10.919870 8.882464 542.586792
106 0 1 10.776030 8.807128 543.542297
107 0 1 10.905980 8.612243 544.479004
108 0 1 10.851730 8.752287 545.464294
109 0 1 10.640260 8.890444 546.384277
110 0 1 10.270150 8.802694 547.328369
111 0 1 9.949390 8.500431 548.153992
112 0 1 9.581540 8.269511 549.088013
113 0 1 9.492460 7.866779 549.940308
114 0 1 9.502060 7.589161 550.823730
115 0 1 9.655120 7.334572 551.736084
116 0 1 9.645260 7.036058 552.687317
117 0 1 9.796360 6.530570 553.456909
118 0 1 9.995360 6.158030 554.317627
119 0 1 10.165130 5.656900 555.110413
120 0 1 10.413870 5.386320 556.000183
121 0 1 10.560830 5.172850 556.914001
122 0 1 10.509570 5.207590 557.899719
123 0 1 10.502950 5.270290 558.892822
124 0 1 9.998620 5.372040 559.690125
125 0 1 9.308930 5.489750 560.352783
126 0 1 8.695853 5.509640 561.065796
127 0 1 7.909773 5.299850 561.721191
128 0 1 7.308632 5.106900 562.425476
129 0 1 6.722970 4.536010 563.113892
130 0 1 6.643480 4.225010 564.106201
131 0 1 6.505130 3.866750 565.004700
132 0 1 6.132390 3.466270 565.856873
133 0 1 5.643730 3.411090 566.615417
134 0 1 5.081970 3.441660 567.429321
135 0 1 4.361910 3.648930 568.046814
136 0 1 3.831290 3.960130 568.792175
137 0 1 3.379860 4.136560 569.648621
138 0 1 2.817800 4.419300 570.354492
139 0 1 2.392840 4.661380 571.139099
140 0 1 2.337640 4.851700 572.092590
141 0 1 2.147170 4.966760 573.054688
142 0 1 2.137380 5.097320 574.029175
143 0 1 2.195640 5.069560 574.970886
144 0 1 2.278620 5.030660 575.948303
145 0 1 2.241150 5.085970 576.911987
146 0 1 2.145570 5.398940 577.860291
147 0 1 2.020540 5.504720 578.774475
148 0 1 2.177240 5.750220 579.684326
149 0 1 2.468770 6.255050 580.454468
150 0 1 2.629010 6.868040 581.285217
151 0 1 2.800180 7.377600 582.109314
152 0 1 3.114060 7.403728 582.973511
153 0 1 3.782430 7.423534 583.678711
154 0 1 4.382560 7.397424 584.475220
155 0 1 4.499010 7.350220 585.424194
156 0 1 4.705140 7.466770 586.329895
157 0 1 5.046850 7.366429 587.275513
158 0 1 5.138540 7.592780 588.114075
159 0 1 5.326470 7.738596 589.030884
160 0 1 5.165740 7.900548 589.914917
161 0 1 5.060690 8.008958 590.838928
162 0 1 4.919750 8.149802 591.799377
163 0 1 4.893720 8.326976 592.738098
164 0 1 4.818310 8.721250 593.590881
165 0 1 4.797020 9.135270 594.459290
166 0 1 4.988020 9.872440 595.019287
167 0 1 5.100430 10.472300 595.710083
168 0 1 4.820820 11.066370 596.480225
169 0 1 4.799440 11.186450 597.390381
170 0 1 5.141750 11.220140 598.257385
171 0 1 5.484600 11.319630 599.127319
172 0 1 5.629230 11.571320 600.041382
173 0 1 5.505700 11.760890 600.942200
174 0 1 5.454640 12.243560 601.819519
175 0 1 5.749180 12.612190 602.687683
176 0 1 5.915670 13.025311 603.478516
177 0 1 6.134120 13.367070 604.373596
178 0 1 6.323150 13.546980 605.349304
179 0 1 6.369800 14.071980 606.165588
180 0 1 6.374120 14.207951 607.081482
181 0 1 6.430900 14.109819 608.021606
182 0 1 6.411350 14.264400 608.931030
183 0 1 6.703930 14.718500 609.702576
184 0 1 7.296069 14.737000 610.481018
185 0 1 7.708333 14.789970 611.353210
186 0 1 7.882515 14.613190 612.281616
187 0 1 8.062207 14.584410 613.210815
188 0 1 8.322294 14.268890 614.159790
189 0 1 8.730895 13.894131 614.985474
190 0 1 8.954015 13.528960 615.907227
191 0 1 9.044880 12.887130 616.558899
192 0 1 9.060640 12.914650 617.523010
193 0 1 9.146990 12.940001 618.441772
194 0 1 9.325620 12.892670 619.390442
195 0 1 9.211980 12.722810 620.375671
196 0 1 9.076420 12.504169 621.320801
197 0 1 8.766782 12.035130 622.086609
198 0 1 8.720673 11.278460 622.646240
199 0 1 8.773763 10.591710 623.341797
200 0 1 8.704266 9.944510 623.969971
201 0 1 8.386406 9.295220 624.633850
202 0 1 8.182180 8.484517 625.134888
203 0 1 8.340007 7.650398 625.757263
204 0 1 8.552875 6.762880 626.226257
205 0 1 8.815399 6.089440 626.862976
206 0 1 8.944784 5.583960 627.697754
207 0 1 9.085900 5.201790 628.636902
208 0 1 9.467560 4.736640 629.384094
209 0 1 10.056680 4.421680 630.150391
210 0 1 10.644790 4.388130 630.853027
211 0 1 11.184010 4.495700 631.632812
212 0 1 11.892130 4.492730 632.343079
213 0 1 12.315690 4.657360 633.183655
214 0 1 12.556009 4.713220 634.136353
215 0 1 13.123671 4.661910 635.007080
216 0 1 13.706980 4.897750 635.776978
217 0 1 14.079660 5.151360 636.638306
218 0 1 14.145620 5.600480 637.507324
219 0 1 14.303550 6.222290 638.303101
220 0 1 14.522390 6.578190 639.222778
221 0 1 14.705441 6.888750 640.115112
222 0 1 14.628220 7.042100 641.051025
223 0 1 14.257510 7.242884 641.888428
224 0 1 14.212851 7.705462 642.704529
225 0 1 14.135670 8.381666 643.421082
226 0 1 13.926270 9.013590 644.079712
227 0 1 13.527870 9.494540 644.828796
228 0 1 13.146259 9.753901 645.650085
229 0 1 12.525070 9.871060 646.361694
230 0 1 11.736350 9.830920 646.923218
231 0 1 10.974380 9.935230 647.548828
232 0 1 10.224600 9.771920 648.123169
233 0 1 9.829741 9.743500 648.962097
234 0 1 9.394030 9.532130 649.727722
235 0 1 9.093050 9.452840 650.655579
236 0 1 8.901626 9.061870 651.488708
237 0 1 8.536730 8.558671 652.275085
238 0 1 8.233209 8.279486 653.097107
239 0 1 8.115312 7.863387 653.992981
240 0 1 7.823125 7.858224 654.862915
241 0 1 7.659311 7.797318 655.796692
242 0 1 7.586051 7.630758 656.764771
243 0 1 7.487287 7.394640 657.723328
244 0 1 7.596637 7.025802 658.666687
245 0 1 7.745128 6.643220 659.518799
246 0 1 7.841257 6.285200 660.471191
247 0 1 7.715262 5.791930 661.254883
248 0 1 7.634452 5.455900 662.112976
249 0 1 7.395798 5.012420 663.030579
250 0 1 6.965760 4.922590 663.859314
251 0 1 6.419440 4.904800 664.633972
252 0 1 6.187830 4.867920 665.590088
253 0 1 5.872340 4.612990 666.466187
254 0 1 5.395270 4.265250 667.187805
255 0 1 5.032440 3.787630 667.998413
256 0 1 4.761840 3.658340 668.925110
257 0 1 4.572830 3.542380 669.845520
258 0 1 4.075280 3.734410 670.713501
259 0 1 3.488180 3.726180 671.519409
260 0 1 2.982440 3.775960 672.341980
261 0 1 2.638120 3.849580 673.207214
262 0 1 2.464140 4.327730 673.989624
263 0 1 2.432410 5.008690 674.628113
264 0 1 2.595030 5.880660 674.973328
265 0 1 2.594070 6.777430 675.369507
266 0 1 2.600360 7.508740 676.016785
267 0 1 2.790130 8.079971 676.803772
268 0 1 2.928870 8.714770 677.543274
269 0 1 3.088650 9.228320 678.334717
270 0 1 3.066620 9.411300 679.288208
271 0 1 2.837490 9.599540 680.241821
272 0 1 2.912240 9.616910 681.229492
273 0 1 2.956620 9.541170 682.204590
274 0 1 2.928550 9.354400 683.160889
275 0 1 2.964890 9.172290 684.033691
276 0 1 3.125720 8.833458 684.887085
277 0 1 3.582180 8.321285 685.588318
278 0 1 3.836570 7.864378 686.459778
279 0 1 4.048150 7.494385 687.320679
280 0 1 4.067130 7.235971 688.299805
281 0 1 4.009190 7.176751 689.278931
282 0 1 4.035530 7.241753 690.249268
283 0 1 4.018120 7.587940 691.192200
284 0 1 4.142620 7.737148 692.161621
285 0 1 4.623250 7.634262 692.929626
286 0 1 5.151320 7.538366 693.782288
287 0 1 5.724510 7.609510 694.528381
288 0 1 6.144160 7.895687 695.391113
289 0 1 6.629270 8.126695 696.218628
290 0 1 6.620590 8.253817 697.147583
291 0 1 6.431970 8.573422 698.026978
292 0 1 5.999010 8.550399 698.915588
293 0 1 5.766810 8.554567 699.836609
294 0 1 5.558240 8.741028 700.733032
295 0 1 5.396000 9.148240 701.659790
296 0 1 5.366830 9.319790 702.595398
297 0 1 5.286830 9.320020 703.547302
298 0 1 5.237840 9.346590 704.515381
299 0 1 5.270930 9.004640 705.397705
300 0 1 5.592310 8.918292 706.333923
301 0 1 5.759230 8.815283 707.306824
302 0 1 6.093020 8.492999 708.106018
303 0 1 6.424180 8.120336 708.916199
304 0 1 6.586970 7.722396 709.794678
305 0 1 6.824660 7.471585 710.741821
306 0 1 7.201522 7.248647 711.578796
307 0 1 7.674220 7.139679 712.428711
308 0 1 8.031056 6.881080 713.286987
309 0 1 8.535634 6.608530 714.076721
310 0 1 8.976519 6.457340 714.916626
311 0 1 9.599820 6.609690 715.609192
312 0 1 9.960660 6.418220 716.531982
313 0 1 10.226290 6.005530 717.355286
314 0 1 10.455590 5.434770 718.076172
315 0 1 10.315440 5.012510 718.895386
316 0 1 9.865870 4.987450 719.800476
317 0 1 9.276820 4.796380 720.585022
318 0 1 8.659250 4.552810 721.325928
319 0 1 8.306539 4.627380 722.247375
320 0 1 8.104537 4.739600 723.158081
321 0 1 7.968527 4.902100 724.103516
322 0 1 7.976378 5.139710 725.080933
323 0 1 7.588506 5.431850 725.979614
324 0 1 7.498579 5.722610 726.989624
325 0 1 7.443882 5.684850 727.992188
326 0 1 7.423411 5.700360 728.979980
327 0 1 7.258347 5.639740 729.957031
328 0 1 7.110438 5.574530 730.851013
329 0 1 7.087572 5.767400 731.827026
330 0 1 7.122730 6.061610 732.742004
331 0 1 7.098872 6.403530 733.643982
332 0 1 6.710280 6.446530 734.536011
333 0 1 6.331180 6.458570 735.505005
334 0 1 6.451650 6.362610 736.525024
335 0 1 6.274420 6.060900 737.440002
336 0 1 6.155340 5.922060 738.372009
337 0 1 5.976420 5.933430 739.281006
338 0 1 5.921900 6.131210 740.205994
339 0 1 5.739230 6.270800 741.203979
340 0 1 6.084030 6.673460 742.038025
341 0 1 6.202670 7.238614 742.796021
342 0 1 6.066450 7.846103 743.539001
343 0 1 5.926050 8.649045 744.031982
344 0 1 5.891120 9.546140 744.362000
345 0 1 5.915830 10.471650 744.698975
346 0 1 6.116950 11.309210 745.016968
347 0 1 6.461110 12.142420 745.309998
348 0 1 6.704690 12.906190 745.932007
349 0 1 6.475700 13.549960 746.637024
350 0 1 6.398710 13.900030 747.544006
351 0 1 6.341110 14.148090 748.445007
352 0 1 6.813700 14.173920 749.349976
353 0 1 7.098813 14.010530 750.237000
354 0 1 7.478946 13.758921 751.038025
355 0 1 7.591574 13.126150 751.729980
356 0 1 7.291016 12.860010 752.598999
357 0 1 6.883270 13.052820 753.410034
358 0 1 6.630810 13.023520 754.294983
359 0 1 6.128120 12.754330 755.046997
360 0 1 5.732010 12.491480 755.879028
361 0 1 5.685780 12.440041 756.874023
362 0 1 5.516920 12.274050 757.812988
363 0 1 5.368090 12.051790 758.802979
364 0 1 5.441590 11.671510 759.655029
365 0 1 5.616000 11.123840 760.436035
366 0 1 5.750510 10.398710 761.028015
367 0 1 5.732680 9.675950 761.781982
368 0 1 5.777400 9.025890 762.523987
369 0 1 6.339150 8.826296 763.252014
370 0 1 7.012824 8.721947 763.856995
371 0 1 7.802996 8.833120 764.462036
372 0 1 8.562024 9.092720 765.166016
373 0 1 8.928342 9.596189 765.985962
374 0 1 9.365430 9.964710 766.713013
375 0 1 9.504740 10.207370 767.606018
376 0 1 9.699050 10.618120 768.411011
377 0 1 9.635860 11.058360 769.252014
378 0 1 9.452830 11.523760 770.052002
379 0 1 9.307250 11.905920 770.912964
380 0 1 9.478090 12.113550 771.828003
381 0 1 9.605700 11.838820 772.733032
382 0 1 9.666990 11.799720 773.785034
383 0 1 9.772511 11.689520 774.719971
384 0 1 9.677840 11.829900 775.630981
385 0 1 9.491620 11.903530 776.541992
386 0 1 9.473180 12.111441 777.483032
387 0 1 9.230590 12.375830 778.369995
388 0 1 8.597392 12.248280 779.039001
389 0 1 7.920378 12.086660 779.724976
390 0 1 7.191378 11.790530 780.307007
391 0 1 6.482650 11.449220 780.839966
392 0 1 5.862770 10.960970 781.452026
393 0 1 5.273660 10.243980 781.742981
394 0 1 4.804610 9.479100 782.044983
395 0 1 4.506980 8.803114 782.640015
396 0 1 4.386180 8.208934 783.389038
397 0 1 4.511040 7.568989 784.070984
398 0 1 4.386440 6.747580 784.612000
399 0 1 4.427570 5.906500 785.117004
400 0 1 4.540510 5.019670 785.344971
401 0 1 4.591930 4.325120 786.002014
402 0 1 5.124230 3.719250 786.567993
403 0 1 5.793290 3.429460 787.268005
404 0 1 6.535570 3.186040 787.820984
405 0 1 7.226310 2.999290 788.502991
406 0 1 7.828121 2.941820 789.239990
407 0 1 8.190969 3.028600 790.166016
408 0 1 8.480311 3.424060 791.010986
409 0 1 8.628472 3.884480 791.865967
410 0 1 8.531420 4.337000 792.804016
411 0 1 8.602359 4.500960 793.802979
412 0 1 8.709092 4.477090 794.708984
413 0 1 9.070730 4.551730 795.596985
414 0 1 9.330840 4.702590 796.463989
415 0 1 9.809870 4.772910 797.385986
416 0 1 10.187080 5.085740 798.210022
417 0 1 10.723080 5.655130 798.812988
418 0 1 11.122910 5.901780 799.625977
419 0 1 11.559080 6.089180 800.479980
420 0 1 11.991020 5.927530 801.287964
421 0 1 12.079850 5.833170 802.257019
422 0 1 12.248560 5.592720 803.156006
423 0 1 12.264720 5.347930 804.088013
424 0 1 12.174810 5.126810 805.015015
425 0 1 12.181950 4.883060 805.921021
426 0 1 12.309401 4.774120 806.898010
427 0 1 12.326900 4.540910 807.854980
428 0 1 12.393140 4.661320 808.869995
429 0 1 12.452450 4.725990 809.843018
430 0 1 12.456800 4.640230 810.773010
431 0 1 12.424880 4.626440 811.682007
432 0 1 12.356560 4.493880 812.679993
433 0 1 12.276770 4.429300 813.580994
434 0 1 12.234090 3.942070 814.367981
435 0 1 11.846650 3.695360 815.218994
436 0 1 11.410180 3.936620 816.091003
437 0 1 10.865459 4.111450 816.796021
438 0 1 10.286940 4.298140 817.507996
439 0 1 9.697520 4.362460 818.247009
440 0 1 8.853522 4.127480 818.890991
441 0 1 8.140673 3.798490 819.483032
442 0 1 7.963188 3.813960 820.437988
443 0 1 8.037575 3.881160 821.442993
444 0 1 7.729619 4.196770 822.273987
445 0 1 7.617384 4.409970 823.226013
446 0 1 7.258417 4.804520 824.021973
447 0 1 6.955650 5.331700 824.702026
448 0 1 6.549420 5.668650 825.557983
449 0 1 6.310030 5.610750 826.559998
450 0 1 5.943200 5.887770 827.533997
451 0 1 5.370830 6.092700 828.224976
452 0 1 5.011940 6.622760 828.950012
453 0 1 4.780200 7.046270 829.710999
454 0 1 4.281250 7.475605 830.494019
455 0 1 4.079140 8.020846 831.287964
456 0 1 4.180100 8.214116 832.210022
457 0 1 4.565730 8.301346 833.016968
458 0 1 4.937270 8.378732 833.916016
459 0 1 5.235250 8.292732 834.862000
460 0 1 5.605680 8.003577 835.698975
461 0 1 6.144800 7.539660 836.405029
462 0 1 6.488660 6.676420 836.726013
463 0 1 6.811470 5.763140 836.510986
464 0 1 7.193908 5.129480 835.889038
465 0 1 7.147343 4.797100 834.960999
466 0 1 7.149240 4.391130 834.070984
467 0 1 7.278951 4.032580 833.216980
468 0 1 7.667656 3.664690 832.421997
469 0 1 8.364048 3.478950 831.716003
470 0 1 8.853885 3.545080 830.886963
471 0 1 8.954477 3.775470 829.994995
472 0 1 8.830580 3.747750 829.052979
473 0 1 8.503551 3.927490 828.205994
474 0 1 8.223967 4.319350 827.353027
475 0 1 8.223695 4.467780 826.405029
476 0 1 8.300002 4.786230 825.479980
477 0 1 8.337308 5.421920 824.776978
478 0 1 8.479089 5.895060 823.955994
479 0 1 8.703286 6.258060 823.073975
480 0 1 9.018590 6.322840 822.208984
481 0 1 9.329770 6.533500 821.365967
482 0 1 9.739070 6.885100 820.551025
483 0 1 10.147810 7.135702 819.723022
484 0 1 10.416460 7.502726 818.828003
485 0 1 10.869680 7.837011 818.018005
486 0 1 11.130460 7.911540 817.091003
487 0 1 11.275490 7.806136 816.122009
488 0 1 11.463960 7.653556 815.208984
489 0 1 11.827500 7.700666 814.306030
490 0 1 11.838449 7.760804 813.335022
491 0 1 11.718400 8.019330 812.386963
492 0 1 11.807180 8.129778 811.440002
493 0 1 11.701930 8.311354 810.541016
494 0 1 11.442739 8.408966 809.608032
495 0 1 11.145710 8.875196 808.789978
496 0 1 10.837650 9.035140 807.863037
497 0 1 10.295420 9.086590 807.061035
498 0 1 9.870700 9.297950 806.171021
499 0 1 9.454390 9.357620 805.333984
500 0 1 8.978254 9.211320 804.458984
501 0 1 8.607272 9.083620 803.609009
502 0 1 8.391102 8.899372 802.641968
503 0 1 8.144579 8.677269 801.786987
504 0 1 7.823569 8.397462 800.929993
505 0 1 7.675386 7.905375 800.114014
506 0 1 7.664745 7.450191 799.164001
507 0 1 7.508265 7.044464 798.278015
508 0 1 7.370145 6.507740 797.422974
509 0 1 7.150933 6.003990 796.698975
510 0 1 6.797380 5.464810 796.002014
511 0 1 6.419870 4.975980 795.286987
512 0 1 5.968580 4.424820 794.682007
513 0 1 5.519940 3.958820 793.901001
514 0 1 4.831110 3.921980 793.124023
515 0 1 4.358260 3.919350 792.278015
516 0 1 3.962060 4.116670 791.416992
517 0 1 3.696900 4.516470 790.617981
518 0 1 3.739540 5.300920 789.948975
519 0 1 3.720250 5.877330 789.179993
520 0 1 4.190930 6.450570 788.557983
521 0 1 4.900700 6.766650 788.018005
522 0 1 5.577320 6.969330 787.349976
523 0 1 6.036970 7.466590 786.674988
524 0 1 6.556400 7.914739 785.848999
525 0 1 6.858110 8.287967 785.020996
526 0 1 7.398621 8.511789 784.174988
527 0 1 7.915637 8.513798 783.388000
528 0 1 8.408239 8.260401 782.570984
529 0 1 8.858349 8.108673 781.752991
530 0 1 9.187770 7.790748 780.833008
531 0 1 9.305480 7.403336 779.906982
532 0 1 9.458890 7.060959 779.026001
533 0 1 9.570850 6.611740 778.130981
534 0 1 9.638900 6.222730 777.297974
535 0 1 9.159730 5.677480 776.686035
536 0 1 8.854580 5.194430 775.895020
537 0 1 8.707550 4.486640 775.226990
538 0 1 8.801796 4.053160 774.377991
539 0 1 9.195130 3.518310 773.679016
540 0 1 9.784070 3.490370 772.833984
541 0 1 10.276330 3.297220 771.995972
542 0 1 10.613740 3.254910 771.016968
543 0 1 10.942780 3.298970 770.103027
544 0 1 11.382900 3.137020 769.200989
545 0 1 11.530450 3.193290 768.223022
546 0 1 11.556530 3.379440 767.309998
547 0 1 11.415800 3.562650 766.384033
548 0 1 11.174210 3.689270 765.488037
549 0 1 10.728050 3.528930 764.661011
550 0 1 10.273610 3.353100 763.804993
551 0 1 9.700330 3.145170 763.021973
552 0 1 9.285310 3.109370 762.184021
553 0 1 8.855283 3.158240 761.348022
554 0 1 8.354174 3.100070 760.419983
555 0 1 7.886296 3.140930 759.568970
556 0 1 7.363717 3.077650 758.702026
557 0 1 6.913580 2.931490 757.921997
558 0 1 6.358780 3.014530 757.077026
559 0 1 6.076280 3.340800 756.203979
560 0 1 5.759200 3.795630 755.468018
561 0 1 5.249840 4.283770 754.780029
562 0 1 4.630790 4.807780 754.195984
563 0 1 4.106950 5.093440 753.495972
564 0 1 3.642960 5.270320 752.705994
565 0 1 3.074070 5.633500 751.917969
566 0 1 2.642520 6.015910 751.169006
567 0 1 2.296590 6.687400 750.505005
568 0 1 2.124710 7.295917 749.780029
569 0 1 1.899800 7.865986 749.070984
570 0 1 1.883350 8.486367 748.312988
571 0 1 2.109900 9.165740 747.679993
572 0 1 2.397700 9.583850 746.818970
573 0 1 2.695290 9.842210 745.913025
574 0 1 3.157680 10.242480 745.125000
575 0 1 3.593800 10.572460 744.312012
576 0 1 4.110090 10.913410 743.627014
577 0 1 4.649550 11.311310 742.906006
578 0 1 5.201380 11.488010 742.096985
579 0 1 5.662250 11.434830 741.296997
580 0 1 6.063930 11.587000 740.429993
581 0 1 6.320210 11.651530 739.531982
582 0 1 6.715390 11.590810 738.693970
583 0 1 6.676210 11.735060 737.752991
584 0 1 6.905940 11.972110 736.843018
585 0 1 7.053285 12.017429 735.927979
586 0 1 7.470580 12.187160 735.026001
587 0 1 7.653155 12.243570 734.091980
588 0 1 7.638719 12.007441 733.172974
589 0 1 7.643625 11.805531 732.153992
590 0 1 7.660300 11.395050 731.231995
591 0 1 7.615470 11.458410 730.250977
592 0 1 7.594598 11.533920 729.278015
593 0 1 7.356835 11.697880 728.365173
594 0 1 7.260262 12.052500 727.484131
595 0 1 7.446988 12.460740 726.656982
596 0 1 7.593617 12.881100 725.832520
597 0 1 7.439232 13.066500 724.930420
598 0 1 7.344236 13.256140 724.000000
599 0 1 7.194362 13.467300 723.039795
600 0 1 7.119663 13.682270 722.073181
601 0 1 7.268968 13.800430 721.033386
602 0 1 7.354317 13.677380 720.114624
603 0 1 7.606158 13.558001 719.112915
604 0 1 7.747480 13.562490 718.177124
605 0 1 7.741499 13.383039 717.261780
606 0 1 8.226973 13.036200 716.568298
607 0 1 8.605081 12.519060 715.803589
608 0 1 9.166690 12.065849 715.207703
609 0 1 9.779630 11.681220 714.559326
610 0 1 10.122400 11.033560 713.961914
611 0 1 10.181210 10.338890 713.296021
612 0 1 10.167850 9.669290 712.591980
613 0 1 9.972240 8.820405 712.023010
614 0 1 9.644140 8.153863 711.372009
615 0 1 9.341590 7.605605 710.659790
616 0 1 8.918653 7.211752 709.888672
617 0 1 8.665042 6.989330 708.902710
618 0 1 8.568360 6.533640 708.083984
619 0 1 8.449900 5.959010 707.251221
620 0 1 8.287207 5.333320 706.520020
621 0 1 8.069400 4.809400 705.778687
622 0 1 7.731058 4.383490 704.904297
623 0 1 7.563474 4.052020 704.032898
624 0 1 7.468040 3.643470 703.169495
625 0 1 7.595944 3.196970 702.288696
626 0 1 7.809558 2.934390 701.378479
627 0 1 7.989180 2.566690 700.547119
628 0 1 8.140864 2.463740 699.531372
629 0 1 8.061603 2.575670 698.609497
630 0 1 7.873051 2.956330 697.756409
631 0 1 7.665935 3.311790 696.895081
632 0 1 7.715294 3.457020 695.951599
633 0 1 7.527776 3.751690 695.043518
634 0 1 7.319391 4.192310 694.246216
635 0 1 7.349404 4.301600 693.287781
636 0 1 7.419380 4.274700 692.336487
637 0 1 7.687120 4.501280 691.449707
638 0 1 7.950100 4.579750 690.535095
639 0 1 8.208993 4.973800 689.645874
640 0 1 7.970749 5.468550 688.879211
641 0 1 7.845481 6.050270 688.004089
642 0 1 7.585673 6.742020 687.397217
643 0 1 7.353139 7.297854 686.602600
644 0 1 7.014600 7.697488 685.732300
645 0 1 6.775200 7.925388 684.816895
646 0 1 6.567790 7.901808 683.901428
647 0 1 6.341960 7.933806 682.990295
648 0 1 6.425130 7.971506 682.036499
649 0 1 6.408330 8.057813 681.026917
650 0 1 6.233370 8.162098 680.132324
651 0 1 5.981130 8.323763 679.204285
652 0 1 5.862160 8.277638 678.261719
653 0 1 5.520800 8.097660 677.317017
654 0 1 5.257290 7.898972 676.434387
655 0 1 5.136560 7.882924 675.412292
656 0 1 5.334860 8.160079 674.537476
657 0 1 5.335320 8.267115 673.606689
658 0 1 5.641540 8.242925 672.666504
659 0 1 6.041560 8.079899 671.814575
660 0 1 6.403100 7.701679 671.021973
661 0 1 6.611010 7.145243 670.261719
662 0 1 6.651040 6.644900 669.454468
663 0 1 6.996130 6.178970 668.685913
664 0 1 7.319773 5.669480 667.887695
665 0 1 7.513171 5.468960 666.986084
666 0 1 7.928689 5.263840 666.135498
667 0 1 8.328574 4.967810 665.358887
668 0 1 8.518067 4.724870 664.377197
669 0 1 8.572640 4.694350 663.494629
670 0 1 8.623879 4.704910 662.554077
671 0 1 8.689355 5.031410 661.640015
672 0 1 8.734302 5.084960 660.695618
673 0 1 8.872891 5.114150 659.758179
674 0 1 8.870627 5.215400 658.812500
675 0 1 9.224930 5.205240 657.922607
676 0 1 9.187100 5.099220 656.894287
677 0 1 9.058370 5.026030 655.890015
678 0 1 9.077120 4.729050 654.991028
679 0 1 9.194280 4.486780 654.042908
680 0 1 9.163651 4.107130 653.075195
681 0 1 9.387600 3.916990 652.137024
682 0 1 9.694260 3.753340 651.183472
683 0 1 9.571370 3.884280 650.250122
684 0 1 9.773930 4.358720 649.408081
685 0 1 9.828870 4.778530 648.535095
686 0 1 9.818940 4.980940 647.611511
687 0 1 9.898440 5.011320 646.635193
688 0 1 9.795490 5.186000 645.682190
689 0 1 9.584650 5.141430 644.755981
690 0 1 9.601300 5.084970 643.828491
691 0 1 9.707670 4.724200 642.997192
692 0 1 9.934160 4.280760 642.122925
693 0 1 9.913750 3.863000 641.210999
694 0 1 9.845140 3.544680 640.301392
695 0 1 9.539770 3.225370 639.442688
696 0 1 9.449490 3.014090 638.477112
697 0 1 9.241961 2.971750 637.520447
698 0 1 9.272240 2.750630 636.517517
699 0 1 9.393570 2.873010 635.648193
700 0 1 9.446130 2.814550 634.640686
701 0 1 9.761830 2.728620 633.783691
702 0 1 9.828900 2.570820 632.817078
703 0 1 9.987090 2.582370 631.854309
704 0 1 10.086470 2.861400 630.996399
705 0 1 10.363040 2.866170 630.100342
706 0 1 10.531960 2.856670 629.149963
707 0 1 10.405790 2.997980 628.204346
708 0 1 10.196510 2.964420 627.203003
709 0 1 10.101320 3.361700 626.346008
710 0 1 10.165870 3.729410 625.446167
711 0 1 9.916140 4.204510 624.645691
712 0 1 9.645410 4.503200 623.782898
713 0 1 9.306530 4.617930 622.888977
714 0 1 8.994817 4.694160 622.005615
715 0 1 8.929240 4.810880 621.040344
716 0 1 9.078940 5.256390 620.192749
717 0 1 9.136900 5.441940 619.264954
718 0 1 9.154710 5.567200 618.265869
719 0 1 8.882889 5.625120 617.335083
720 0 1 8.410889 5.792530 616.465820
721 0 1 8.003120 6.048750 615.687317
722 0 1 7.508651 6.181100 614.903015
723 0 1 7.063520 6.427690 614.051880
724 0 1 6.521080 6.406900 613.267029
725 0 1 6.089560 6.472590 612.422302
726 0 1 5.763160 6.489930 611.521790
727 0 1 5.398550 6.748920 610.633179
728 0 1 4.998890 6.756240 609.720398
729 0 1 4.646650 6.482840 608.872986
730 0 1 4.175180 6.557930 608.014526
731 0 1 4.103190 6.845160 607.151306
732 0 1 4.327110 6.683700 606.218079
733 0 1 4.247330 6.628450 605.274109
734 0 1 4.675010 6.468960 604.445679
735 0 1 4.909780 6.407090 603.531128
736 0 1 4.844420 6.084770 602.621887
737 0 1 4.899280 5.742310 601.770203
738 0 1 4.938760 5.631450 600.833191
739 0 1 4.930670 5.722540 599.883789
740 0 1 4.945220 5.858500 598.941772
741 0 1 5.256950 5.901060 598.069519
742 0 1 5.383680 5.653000 597.111877
743 0 1 5.670060 5.339240 596.262817
744 0 1 5.891840 4.986420 595.422913
745 0 1 5.927540 4.817790 594.521912
746 0 1 6.045180 4.441890 593.606384
747 0 1 6.291390 4.183100 592.629578
748 0 1 6.538660 4.063820 591.689697
749 0 1 6.714720 4.423050 590.796631
750 0 1 6.899360 4.902020 589.918884
751 0 1 7.415162 5.463770 589.348999
752 0 1 8.048287 5.946220 588.852295
753 0 1 8.559883 6.411070 588.161926
754 0 1 9.017370 7.078078 587.508301
755 0 1 9.406480 7.541194 586.769409
756 0 1 9.817010 7.647731 585.954712
757 0 1 10.194490 7.668492 585.074829
758 0 1 10.560230 7.641039 584.208923
759 0 1 10.583839 7.478440 583.228394
760 0 1 10.262630 7.112078 582.411072
761 0 1 10.093000 6.677780 581.607910
762 0 1 9.849640 6.209360 580.820190
763 0 1 9.719550 6.009570 579.877075
764 0 1 9.807670 5.768840 578.928772
765 0 1 9.448210 6.040550 577.998474
766 0 1 9.290990 6.495460 577.106628
767 0 1 9.237420 6.854340 576.252075
768 0 1 8.915846 7.344876 575.482788
769 0 1 8.334971 7.534546 574.729370
770 0 1 7.860985 7.892003 573.880920
771 0 1 7.309499 8.197628 573.103271
772 0 1 6.866600 8.400529 572.290283
773 0 1 6.264330 8.320994 571.557922
774 0 1 5.727560 8.121446 570.780396
775 0 1 5.175450 8.436939 570.042480
776 0 1 4.764660 8.519181 569.164612
777 0 1 4.527470 8.786521 568.220215
778 0 1 4.430910 9.153530 567.381409
779 0 1 4.288080 9.536330 566.453796
780 0 1 4.303420 9.810070 565.447632
781 0 1 4.456660 9.967540 564.489197
782 0 1 4.583960 10.262860 563.576721
783 0 1 4.591790 10.586590 562.594727
784 0 1 4.977260 10.819480 561.779907
785 0 1 5.122730 11.331620 561.001099
786 0 1 5.046000 11.612980 560.054993
787 0 1 5.090070 11.986760 559.170105
788 0 1 5.169760 12.263350 558.255005
789 0 1 5.222350 12.327400 557.358826
790 0 1 5.152630 12.316441 556.387329
791 0 1 4.699110 12.259700 555.497620
792 0 1 4.589890 12.367710 554.531006
793 0 1 4.604630 12.552980 553.447205
794 0 1 4.692840 12.842670 552.535400