LAMMPS data file via MDAnalysis

        1000  atoms
        1000  bonds
        1000  angles
           0  dihedrals
           0  impropers

           1  atom types
           1  bond types
           1  angle types
           0  dihedral types
           0  improper types

0.000000 16.000000 xlo xhi
0.000000 16.000000 ylo yhi
0.000000 1257.000000 zlo zhi


Masses

1 1.000000

Atoms

1 0 1 12.428320 7.109883 448.101013
2 0 1 12.629971 7.479818 449.010010
3 0 1 12.636971 7.975453 449.843994
4 0 1 12.537490 8.294305 450.776001
5 0 1 12.463690 8.522647 451.690002
6 0 1 12.491210 8.798149 452.570984
7 0 1 12.531810 9.043520 453.463989
8 0 1 12.636580 9.109150 454.447021
9 0 1 13.076120 9.128810 455.322021
10 0 1 13.218290 9.101820 456.270996
11 0 1 13.249170 9.232160 457.181000
12 0 1 13.047150 9.403570 458.085999
13 0 1 12.719240 9.851610 458.863007
14 0 1 12.414050 10.257771 459.666992
15 0 1 12.078740 10.633460 460.468994
16 0 1 12.111670 10.927990 461.410004
17 0 1 11.945110 11.127131 462.385010
18 0 1 11.670000 11.161480 463.312012
19 0 1 11.582790 10.746660 464.162994
20 0 1 11.538850 10.149770 464.890991
21 0 1 11.381701 9.602400 465.679993
22 0 1 11.131701 9.024970 466.434998
23 0 1 11.147370 8.602359 467.299011
24 0 1 10.826960 8.393286 468.195984
25 0 1 10.290980 8.286891 469.013000
26 0 1 9.368999 8.212137 469.487000
27 0 1 8.593222 8.579138 469.871002
28 0 1 7.852408 9.105090 470.390991
29 0 1 7.390064 9.447300 471.177979
30 0 1 7.314347 9.891750 472.005005
31 0 1 7.003721 10.114140 472.964996
32 0 1 6.752490 10.244180 473.843994
33 0 1 6.677620 10.332600 474.786987
34 0 1 6.623460 10.282340 475.710022
35 0 1 6.792460 10.360380 476.593018
36 0 1 7.136897 10.391780 477.463989
37 0 1 7.534235 10.404830 478.354980
38 0 1 8.050787 10.376680 479.153015
39 0 1 8.389434 10.240740 479.990997
40 0 1 8.482347 10.042720 480.979980
41 0 1 8.439084 9.505330 481.820007
42 0 1 8.146795 9.039430 482.640991
43 0 1 7.714797 8.417225 483.376007
44 0 1 7.561962 7.976293 484.218994
45 0 1 7.468330 7.498294 485.128998
46 0 1 7.632150 7.182483 486.056000
47 0 1 7.727424 6.825550 486.977997
48 0 1 7.640142 6.462810 487.862000
49 0 1 7.368034 6.177730 488.744019
50 0 1 7.366348 6.345870 489.692017
51 0 1 7.318541 6.706410 490.612000
52 0 1 7.156413 7.013368 491.485992
53 0 1 6.972900 7.338080 492.378998
54 0 1 6.679360 7.527237 493.289001
55 0 1 6.371340 7.925539 494.101990
56 0 1 6.242970 8.326159 495.007019
57 0 1 6.296820 8.330944 495.989014
58 0 1 6.294320 8.188190 496.890991
59 0 1 6.464780 8.156623 497.852997
60 0 1 6.427500 8.130433 498.825012
61 0 1 6.395140 7.881324 499.768005
62 0 1 6.496450 7.618210 500.768005
63 0 1 6.585960 7.448302 501.699005
64 0 1 6.514540 7.501634 502.648987
65 0 1 6.257510 7.664038 503.623993
66 0 1 5.986080 7.767923 504.583984
67 0 1 5.648230 8.108702 505.434998
68 0 1 5.172290 8.098967 506.266998
69 0 1 5.235160 8.255893 507.233002
70 0 1 5.485800 8.350572 508.119019
71 0 1 5.716370 8.232041 509.053009
72 0 1 5.889970 8.082617 509.992981
73 0 1 5.907790 7.861956 510.890991
74 0 1 6.076570 7.499460 511.733002
75 0 1 6.000750 7.068658 512.625977
76 0 1 5.933500 6.682460 513.437012
77 0 1 5.580020 6.290870 514.250000
78 0 1 5.434790 5.966420 515.103027
79 0 1 5.534410 5.851840 516.089966
80 0 1 5.553330 5.897730 516.971985
81 0 1 5.224050 6.078190 517.952026
82 0 1 5.057800 6.388940 518.830017
83 0 1 4.990850 6.385910 519.763977
84 0 1 4.880060 6.514030 520.716980
85 0 1 4.773750 6.599540 521.716003
86 0 1 4.618030 6.737770 522.692017
87 0 1 4.420930 6.947510 523.666992
88 0 1 4.173260 7.245278 524.541992
89 0 1 4.128400 7.552777 525.484009
90 0 1 4.065040 7.706249 526.398010
91 0 1 3.634630 8.086381 527.291016
92 0 1 3.510330 8.424195 528.145020
93 0 1 3.526440 8.426830 529.147705
94 0 1 3.364970 8.536199 530.069702
95 0 1 3.317020 8.573750 531.056519
96 0 1 3.530970 8.862606 531.966125
97 0 1 4.066570 9.249940 532.674377
98 0 1 4.552530 9.464890 533.553223
99 0 1 4.915530 9.284810 534.406006
100 0 1 5.435920 9.363729 535.193176
101 0 1 5.738750 9.329150 536.073425
102 0 1 5.927190 9.242560 536.969788
103 0 1 5.941970 9.246590 537.969910
104 0 1 5.885980 9.067830 538.913208
105 0 1 5.984960 8.823707 539.823608
106 0 1 6.267230 8.525298 540.692688
107 0 1 6.641630 8.498644 541.589233
108 0 1 6.790520 8.448285 542.541809
109 0 1 6.615830 8.051635 543.500366
110 0 1 6.652040 7.912759 544.540100
111 0 1 6.510660 7.881962 545.582092
112 0 1 6.417840 8.316329 546.462280
113 0 1 6.457410 8.662117 547.343994
114 0 1 6.433750 9.151480 548.227173
115 0 1 6.730370 9.486470 549.097168
116 0 1 6.840900 9.869050 549.959595
117 0 1 6.991410 10.300370 550.796021
118 0 1 7.075033 10.571980 551.720276
119 0 1 7.302271 10.997110 552.516724
120 0 1 7.547894 11.617610 553.266602
121 0 1 7.596841 12.165319 554.031616
122 0 1 7.421030 12.773490 554.775879
123 0 1 7.267136 13.322519 555.629578
124 0 1 7.250700 13.746140 556.501892
125 0 1 7.241395 13.842860 557.477295
126 0 1 7.190882 14.260040 558.334290
127 0 1 6.956090 14.354200 559.236572
128 0 1 7.122193 14.549720 560.178284
129 0 1 7.292103 14.519711 561.070496
130 0 1 7.331666 14.638940 562.074219
131 0 1 7.299378 14.560380 563.076477
132 0 1 7.044435 14.466249 564.058228
133 0 1 7.151871 14.160040 564.902100
134 0 1 7.074301 13.931840 565.850586
135 0 1 6.715440 13.682859 566.731018
136 0 1 6.778170 13.308220 567.587524
137 0 1 6.732610 12.983320 568.469727
138 0 1 6.535600 12.654200 569.421997
139 0 1 6.631800 12.188440 570.249878
140 0 1 6.704990 11.768260 571.159180
141 0 1 6.661630 11.335680 572.066406
142 0 1 6.888180 11.033530 572.920288
143 0 1 7.055259 10.558410 573.717896
144 0 1 7.262039 10.215770 574.557373
145 0 1 7.751879 9.966800 575.379272
146 0 1 7.992475 9.692770 576.278992
147 0 1 8.298817 9.249650 577.161987
148 0 1 8.503151 8.514619 577.865173
149 0 1 8.825077 8.037025 578.629883
150 0 1 9.332260 7.581898 579.249695
151 0 1 9.788940 7.122867 579.905823
152 0 1 10.164110 6.803230 580.792969
153 0 1 10.158840 6.467740 581.747192
154 0 1 10.145390 6.213330 582.669495
155 0 1 10.210950 5.923810 583.604797
156 0 1 10.321070 5.750910 584.598389
157 0 1 10.146950 5.758160 585.576172
158 0 1 10.172210 6.188890 586.457092
159 0 1 10.013830 6.243440 587.401672
160 0 1 10.077000 6.273640 588.396301
161 0 1 10.135580 6.595920 589.316589
162 0 1 10.308160 6.812730 590.253601
163 0 1 10.245630 6.978830 591.274780
164 0 1 10.210990 7.061997 592.213684
165 0 1 10.154860 7.070426 593.223999
166 0 1 10.043390 6.853010 594.185669
167 0 1 9.785190 6.481290 595.050415
168 0 1 9.360750 6.350340 595.839905
169 0 1 8.732468 6.238160 596.552002
170 0 1 8.288266 5.982180 597.368591
171 0 1 7.526832 5.712550 597.959717
172 0 1 6.688410 5.426670 598.337769
173 0 1 5.896700 5.250750 598.836121
174 0 1 5.231780 5.260780 599.486084
175 0 1 4.639990 5.271640 600.239380
176 0 1 4.149330 5.244830 601.072876
177 0 1 3.937140 5.038780 601.979675
178 0 1 3.792020 5.007270 602.899780
179 0 1 3.641600 5.126450 603.900574
180 0 1 3.751830 5.476910 604.841003
181 0 1 4.051010 5.891840 605.679504
182 0 1 4.570310 6.294260 606.468994
183 0 1 5.041810 6.254560 607.237122
184 0 1 5.376270 6.328600 608.149170
185 0 1 5.723700 6.655980 609.031311
186 0 1 6.021020 6.934500 609.884827
187 0 1 6.311990 7.285591 610.742615
188 0 1 6.373060 7.799710 611.595215
189 0 1 6.408460 8.445574 612.341431
190 0 1 6.430180 9.119090 613.028687
191 0 1 6.016530 9.760310 613.694519
192 0 1 5.527780 10.371420 614.260315
193 0 1 5.198650 10.648680 615.191772
194 0 1 4.741960 10.965740 615.999207
195 0 1 4.484170 11.318690 616.821411
196 0 1 4.503520 11.568210 617.724976
197 0 1 4.400340 11.906580 618.556641
198 0 1 4.236550 12.310040 619.384521
199 0 1 4.070630 12.728559 620.238586
200 0 1 4.149260 13.101400 621.078064
201 0 1 4.505730 13.388090 621.886963
202 0 1 4.886020 13.163980 622.761353
203 0 1 5.595650 12.981040 623.475830
204 0 1 6.420670 12.620960 623.780334
205 0 1 7.142971 12.193530 624.164734
206 0 1 7.714429 11.601590 624.735779
207 0 1 8.329498 11.252450 625.377075
208 0 1 8.719287 10.888041 626.229492
209 0 1 8.966567 10.743930 627.158813
210 0 1 9.232930 10.816690 628.061462
211 0 1 9.119540 10.865030 629.042480
212 0 1 9.430850 11.136510 629.984619
213 0 1 9.421970 11.285490 630.930664
214 0 1 9.571020 11.507230 631.807922
215 0 1 9.541300 11.554920 632.759155
216 0 1 9.861200 11.530581 633.712708
217 0 1 9.968220 11.619970 634.725830
218 0 1 9.772490 11.588680 635.703003
219 0 1 9.722680 11.494310 636.640503
220 0 1 9.916520 11.460910 637.601807
221 0 1 9.990610 11.485580 638.542908
222 0 1 9.977430 11.498550 639.493713
223 0 1 9.825000 11.215310 640.385620
224 0 1 10.022310 10.942850 641.259888
225 0 1 10.013920 10.822269 642.248230
226 0 1 10.220630 10.648410 643.181519
227 0 1 10.433130 10.359770 644.122192
228 0 1 10.584360 10.273320 645.042419
229 0 1 10.544020 10.150370 646.043701
230 0 1 9.986840 9.843590 646.757629
231 0 1 9.810070 9.444950 647.609497
232 0 1 9.556710 9.008120 648.507996
233 0 1 9.172840 8.681746 649.301392
234 0 1 8.939828 8.350207 650.255310
235 0 1 9.104000 8.334924 651.260193
236 0 1 9.138090 8.536153 652.211487
237 0 1 9.383590 8.560961 653.150085
238 0 1 9.746630 8.568478 654.039490
239 0 1 10.250190 8.659723 654.894714
240 0 1 10.680580 8.936323 655.691406
241 0 1 10.901751 9.103780 656.642090
242 0 1 11.046710 9.334240 657.569214
243 0 1 10.773340 9.444420 658.531006
244 0 1 10.344550 9.613550 659.381470
245 0 1 10.123560 9.967490 660.231018
246 0 1 9.818890 10.430110 661.012573
247 0 1 9.527870 10.788890 661.841431
248 0 1 9.235010 11.016860 662.766479
249 0 1 8.781984 11.164480 663.578918
250 0 1 8.328429 11.169360 664.444519
251 0 1 7.826088 11.000580 665.292175
252 0 1 7.670692 10.830950 666.197693
253 0 1 7.460097 10.496190 667.115295
254 0 1 7.461230 10.176900 668.010376
255 0 1 7.319008 10.135480 668.982483
256 0 1 7.251684 9.780280 669.856018
257 0 1 7.398292 9.347700 670.690186
258 0 1 7.571624 9.254290 671.621094
259 0 1 7.891760 8.834056 672.434082
260 0 1 8.183284 8.460833 673.253479
261 0 1 8.746702 8.355337 674.018616
262 0 1 9.384130 8.422865 674.828674
263 0 1 9.966800 8.402775 675.677490
264 0 1 10.339510 8.175248 676.537720
265 0 1 10.334460 8.333061 677.499207
266 0 1 10.239491 8.650357 678.361084
267 0 1 9.954970 9.036180 679.177185
268 0 1 10.034410 9.586330 680.021912
269 0 1 10.151230 10.083879 680.906616
270 0 1 10.443769 10.462270 681.695007
271 0 1 10.814280 10.231670 682.534424
272 0 1 11.036630 9.835900 683.431519
273 0 1 10.941970 9.622910 684.374573
274 0 1 10.762620 9.713800 685.345703
275 0 1 10.780430 9.677180 686.376099
276 0 1 10.436729 9.599890 687.267273
277 0 1 9.867100 9.762460 688.072693
278 0 1 9.420170 9.849730 688.927124
279 0 1 9.096170 10.085060 689.813782
280 0 1 8.707803 10.117170 690.715332
281 0 1 8.138565 10.142910 691.540283
282 0 1 7.463780 10.141270 692.333374
283 0 1 7.034432 9.984210 693.216919
284 0 1 6.490810 9.948510 694.061584
285 0 1 6.132120 10.171860 694.919067
286 0 1 5.850480 10.610830 695.715515
287 0 1 5.838220 11.036340 696.605408
288 0 1 5.927800 11.283570 697.545410
289 0 1 6.047770 11.290490 698.487671
290 0 1 6.134820 11.313090 699.416504
291 0 1 6.051540 11.204720 700.382202
292 0 1 6.065340 10.661420 701.235107
293 0 1 6.291490 10.406470 702.092529
294 0 1 6.382740 10.291300 703.037231
295 0 1 6.418450 10.179170 703.960693
296 0 1 6.113740 10.255530 704.867310
297 0 1 5.892710 10.396800 705.812805
298 0 1 5.714700 10.963610 706.600586
299 0 1 5.600570 11.507520 707.354797
300 0 1 5.655310 11.714621 708.260315
301 0 1 5.855130 11.945300 709.211121
302 0 1 6.139900 11.993480 710.101318
303 0 1 6.544340 11.834420 710.961304
304 0 1 7.067955 11.807850 711.802124
305 0 1 7.407599 11.681601 712.746826
306 0 1 7.648516 12.062651 713.635498
307 0 1 7.925557 12.412220 714.531189
308 0 1 8.125172 12.494920 715.475403
309 0 1 8.265654 12.419600 716.408081
310 0 1 8.653699 12.278440 717.296631
311 0 1 9.132900 11.963930 718.068481
312 0 1 9.384900 11.473490 718.865723
313 0 1 9.606180 10.911470 719.616577
314 0 1 9.816520 10.264009 720.376282
315 0 1 9.924590 9.532660 720.877686
316 0 1 9.764060 8.771623 721.434204
317 0 1 9.276620 7.877966 721.715576
318 0 1 8.902261 7.118999 722.167908
319 0 1 8.860042 6.470230 722.888916
320 0 1 8.922091 6.139420 723.820984
321 0 1 8.835019 5.880470 724.729614
322 0 1 8.667157 5.676810 725.688293
323 0 1 8.201344 5.695560 726.491882
324 0 1 7.834663 5.851220 727.308105
325 0 1 7.505728 6.129440 728.241699
326 0 1 7.197355 6.268740 729.143982
327 0 1 7.094636 6.137890 730.174011
328 0 1 7.180683 6.382860 731.077026
329 0 1 7.147696 6.654680 732.038025
330 0 1 7.091443 6.841480 733.072021
331 0 1 6.807640 7.075629 733.919983
332 0 1 6.473940 7.011801 734.843994
333 0 1 6.162160 7.232267 735.749023
334 0 1 5.730550 7.373236 736.617981
335 0 1 5.398130 7.408677 737.536987
336 0 1 5.266210 7.393804 738.494995
337 0 1 5.330700 7.719218 739.440002
338 0 1 5.482400 8.110538 740.268982
339 0 1 5.391320 8.232664 741.200989
340 0 1 5.581470 8.220294 742.104980
341 0 1 5.801790 8.214059 743.054016
342 0 1 6.021100 8.438393 744.012024
343 0 1 6.327680 8.425302 744.978027
344 0 1 6.718990 8.510251 745.926025
345 0 1 7.079392 8.333796 746.801025
346 0 1 7.375582 8.239548 747.752991
347 0 1 7.618735 7.925274 748.612976
348 0 1 7.674894 7.869085 749.577026
349 0 1 7.779287 7.859465 750.549988
350 0 1 7.949780 7.872711 751.487000
351 0 1 8.029090 8.090999 752.385986
352 0 1 8.110343 8.530765 753.205994
353 0 1 8.387165 9.086860 753.963989
354 0 1 8.550272 9.614250 754.731018
355 0 1 8.678743 10.214680 755.450012
356 0 1 8.436513 10.986750 755.971008
357 0 1 8.265767 11.659140 756.627991
358 0 1 8.458031 12.155920 757.440979
359 0 1 8.638463 12.354800 758.436035
360 0 1 8.594098 12.731140 759.358032
361 0 1 8.524427 13.014481 760.328003
362 0 1 8.583159 13.163790 761.239990
363 0 1 8.683121 13.696550 762.049988
364 0 1 8.969362 13.995300 763.015015
365 0 1 9.135900 14.131960 763.901001
366 0 1 9.312760 14.037540 764.833008
367 0 1 9.470010 13.781810 765.755005
368 0 1 9.631580 13.125910 766.437012
369 0 1 9.328970 12.474530 767.025024
370 0 1 9.170630 11.740829 767.609009
371 0 1 9.497100 10.981560 768.083008
372 0 1 9.611770 10.158350 768.468018
373 0 1 9.796230 9.494970 769.216980
374 0 1 10.295750 8.978611 769.773010
375 0 1 10.637970 8.544122 770.593994
376 0 1 10.856421 8.010561 771.354980
377 0 1 10.942280 7.781579 772.291016
378 0 1 11.219610 7.785971 773.195007
379 0 1 11.394011 7.589786 774.172974
380 0 1 11.579880 7.567503 775.101990
381 0 1 11.511890 7.616767 776.085022
382 0 1 11.576830 7.769856 777.014038
383 0 1 11.415200 8.044653 777.921997
384 0 1 11.050810 8.666289 778.565979
385 0 1 10.387560 9.224530 779.109985
386 0 1 10.105030 9.488660 780.025024
387 0 1 10.032540 9.308430 780.968994
388 0 1 10.095510 8.911281 781.860962
389 0 1 10.398940 8.428675 782.634033
390 0 1 10.913100 8.062345 783.408020
391 0 1 11.083830 7.753476 784.332031
392 0 1 11.585820 7.545369 785.179016
393 0 1 11.913430 7.454714 786.122986
394 0 1 12.034620 7.299942 787.101013
395 0 1 11.845660 7.067651 788.046021
396 0 1 11.705009 6.714820 788.940979
397 0 1 11.255560 6.375090 789.712036
398 0 1 10.712220 6.079640 790.490967
399 0 1 9.893060 6.006530 790.953003
400 0 1 9.122140 6.230290 791.541016
401 0 1 8.270548 6.204620 791.937012
402 0 1 7.600564 6.288150 792.593994
403 0 1 6.957340 6.487430 793.327026
404 0 1 6.260470 6.610590 794.010010
405 0 1 5.680180 6.626680 794.823975
406 0 1 5.300180 6.783240 795.733032
407 0 1 5.055000 6.798370 796.688965
408 0 1 5.038660 7.123383 797.625000
409 0 1 4.866850 7.379313 798.577026
410 0 1 4.751590 7.373820 799.500000
411 0 1 4.502320 7.175250 800.432983
412 0 1 4.305100 6.933850 801.255981
413 0 1 4.006540 6.723560 802.148987
414 0 1 3.788130 6.373770 802.952026
415 0 1 3.750850 6.171710 803.916016
416 0 1 3.571470 5.858800 804.827026
417 0 1 3.339300 5.698000 805.817017
418 0 1 3.023420 5.722780 806.755005
419 0 1 3.015160 5.804600 807.664001
420 0 1 3.381770 5.934830 808.562012
421 0 1 3.822050 6.218840 809.356995
422 0 1 4.087820 6.455160 810.234985
423 0 1 4.258730 6.974490 811.044983
424 0 1 4.383060 7.388472 811.924988
425 0 1 4.665410 7.991343 812.577026
426 0 1 4.882980 8.604191 813.254028
427 0 1 4.885710 9.166920 814.002014
428 0 1 4.773500 9.515841 814.882996
429 0 1 4.973900 9.687970 815.807007
430 0 1 5.249590 9.626320 816.742004
431 0 1 5.559570 9.566900 817.594971
432 0 1 5.704250 9.276840 818.497986
433 0 1 5.686350 9.069650 819.463013
434 0 1 5.760910 8.722361 820.346008
435 0 1 6.304920 8.523777 821.187988
436 0 1 6.999820 8.279763 821.875977
437 0 1 7.447204 7.669626 822.513000
438 0 1 7.869327 7.051766 823.114014
439 0 1 8.136537 6.283360 823.684998
440 0 1 8.255900 5.365810 823.932983
441 0 1 8.366907 4.515440 824.294006
442 0 1 8.521579 3.742230 824.864014
443 0 1 8.584637 3.133620 825.567017
444 0 1 8.861662 2.946890 826.450012
445 0 1 8.962218 2.704680 827.369019
446 0 1 9.231540 2.585150 828.333984
447 0 1 9.425529 2.793910 829.273987
448 0 1 9.813470 2.957960 830.200989
449 0 1 10.079580 3.215200 831.098022
450 0 1 10.296710 3.241980 832.023987
451 0 1 10.691870 3.110420 832.890991
452 0 1 11.189020 3.667540 833.594971
453 0 1 11.454300 4.365020 834.119019
454 0 1 11.687590 5.230440 834.510986
455 0 1 11.858200 6.094090 834.973022
456 0 1 11.701480 6.863060 835.452026
457 0 1 11.286730 7.609385 835.813965
458 0 1 10.770030 8.447896 835.992981
459 0 1 10.219720 9.290470 835.934021
460 0 1 9.946000 10.129400 835.661011
461 0 1 9.917130 10.969740 835.103027
462 0 1 9.580220 11.475060 834.385986
463 0 1 9.055810 11.971040 833.718994
464 0 1 8.555322 12.344009 833.078003
465 0 1 7.882580 12.682110 832.385010
466 0 1 7.228091 12.909770 831.757996
467 0 1 6.691370 13.094760 830.945984
468 0 1 6.355680 13.309780 830.014038
469 0 1 6.509130 13.388309 829.088989
470 0 1 6.703250 13.636750 828.166992
471 0 1 7.153642 13.595440 827.343994
472 0 1 7.309245 13.521430 826.395996
473 0 1 7.321011 13.658020 825.380981
474 0 1 7.162117 13.828640 824.393005
475 0 1 7.040790 13.910601 823.484985
476 0 1 7.188994 14.101680 822.552979
477 0 1 7.297101 14.169950 821.619995
478 0 1 7.496223 14.279360 820.645020
479 0 1 7.673416 14.444380 819.688965
480 0 1 7.858367 14.671740 818.851013
481 0 1 7.958768 14.638861 817.914001
482 0 1 7.831397 14.594260 816.962036
483 0 1 7.567599 14.285840 816.035034
484 0 1 7.440419 13.795850 815.184998
485 0 1 7.238339 13.257470 814.362000
486 0 1 7.088420 12.636950 813.591980
487 0 1 6.628510 12.164180 812.854004
488 0 1 6.478120 11.732930 812.007019
489 0 1 6.486850 11.210020 811.223022
490 0 1 6.703700 10.567160 810.537964
491 0 1 6.826270 9.931040 809.796021
492 0 1 7.101860 9.211580 809.245972
493 0 1 7.469230 8.567346 808.630005
494 0 1 8.006417 7.851644 808.145996
495 0 1 8.416096 7.195937 807.651978
496 0 1 9.041050 6.500570 807.315979
497 0 1 9.542310 5.916230 806.742004
498 0 1 9.865330 5.474880 805.917969
499 0 1 9.957620 4.992480 805.117004
500 0 1 9.843060 4.581100 804.169983
501 0 1 10.010320 4.228910 803.268005
502 0 1 9.869040 3.798310 802.410034
503 0 1 9.884610 3.578020 801.403015
504 0 1 9.671180 3.319330 800.531982
505 0 1 9.333190 2.973810 799.747986
506 0 1 8.867948 2.731650 798.958008
507 0 1 8.429589 2.310590 798.224976
508 0 1 7.853009 2.034380 797.500000
509 0 1 7.838769 1.588860 796.648987
510 0 1 7.914732 1.497080 795.666992
511 0 1 7.752790 1.601310 794.697998
512 0 1 7.283031 1.630540 793.895020
513 0 1 6.835410 1.560530 792.973999
514 0 1 6.504710 1.537960 792.067017
515 0 1 6.285680 1.647800 791.093994
516 0 1 6.043030 1.703430 790.187012
517 0 1 5.699260 2.061040 789.348999
518 0 1 5.229930 2.657820 788.713013
519 0 1 4.623530 2.831150 787.947998
520 0 1 4.237780 2.810900 787.028015
521 0 1 4.062760 2.937570 786.036987
522 0 1 4.228390 3.129610 785.125977
523 0 1 4.811370 3.308400 784.445984
524 0 1 5.236530 3.643360 783.708984
525 0 1 5.829030 4.024290 782.994995
526 0 1 6.534850 4.357270 782.364990
527 0 1 6.958980 4.926490 781.671997
528 0 1 7.442364 5.473550 780.976013
529 0 1 7.644289 6.231480 780.458984
530 0 1 7.965004 7.069052 780.115967
531 0 1 7.952125 8.019379 779.971985
532 0 1 7.792253 8.813385 779.445984
533 0 1 7.906832 9.606421 778.943970
534 0 1 7.917086 10.236010 778.153992
535 0 1 7.794183 10.674850 777.273987
536 0 1 7.637552 10.785670 776.338013
537 0 1 7.550292 10.927230 775.458984
538 0 1 7.271258 10.758101 774.572998
539 0 1 6.867800 10.695740 773.708008
540 0 1 6.349920 10.550350 772.839966
541 0 1 5.829860 10.371710 772.070007
542 0 1 5.285500 10.049600 771.302979
543 0 1 4.793530 9.927150 770.393005
544 0 1 4.323110 9.839780 769.513000
545 0 1 4.103070 9.376870 768.690979
546 0 1 3.514360 9.050760 767.885010
547 0 1 2.930710 8.714904 767.169006
548 0 1 2.672610 8.404623 766.299011
549 0 1 2.515640 8.073486 765.419006
550 0 1 2.400340 7.774547 764.552002
551 0 1 2.585880 7.488068 763.697998
552 0 1 2.930270 6.929850 762.966003
553 0 1 3.272710 6.466770 762.221985
554 0 1 3.514030 5.723150 761.627991
555 0 1 3.713720 5.254180 760.818970
556 0 1 3.667180 5.207050 759.862000
557 0 1 3.803490 5.267410 758.911011
558 0 1 3.649920 5.195560 757.914001
559 0 1 3.474220 5.189870 756.974976
560 0 1 3.453420 5.193870 756.013000
561 0 1 3.582360 5.082990 755.101990
562 0 1 3.600260 4.992680 754.039001
563 0 1 3.430300 5.121300 753.104980
564 0 1 3.259040 5.148890 752.176025
565 0 1 3.404350 5.315620 751.240967
566 0 1 3.818890 5.457120 750.346985
567 0 1 4.170140 5.463100 749.443970
568 0 1 4.592840 5.517410 748.591003
569 0 1 5.143650 5.538040 747.797974
570 0 1 5.805790 5.533590 747.054016
571 0 1 6.326310 5.150920 746.270996
572 0 1 6.322100 5.198040 745.304016
573 0 1 6.459610 5.311870 744.307983
574 0 1 6.517670 5.541400 743.370972
575 0 1 6.605690 5.788530 742.492004
576 0 1 6.710320 5.919580 741.476990
577 0 1 7.029425 6.157880 740.552979
578 0 1 7.265699 6.341270 739.669983
579 0 1 7.463604 6.807520 738.854980
580 0 1 7.738424 6.998920 737.901001
581 0 1 7.838815 7.203586 736.978027
582 0 1 7.890303 7.438996 736.028992
583 0 1 7.884937 7.464575 735.062988
584 0 1 7.897476 7.640089 734.033997
585 0 1 7.948388 7.912225 733.103027
586 0 1 8.234997 7.936791 732.205017
587 0 1 8.296690 8.048140 731.239014
588 0 1 8.237300 8.103004 730.294006
589 0 1 8.095490 8.442715 729.413025
590 0 1 8.326089 8.929664 728.629028
591 0 1 8.659731 9.688610 728.035034
592 0 1 8.762934 10.464990 727.551086
593 0 1 8.902699 11.221889 727.015625
594 0 1 8.674709 11.907560 726.418884
595 0 1 8.609507 12.372010 725.563110
596 0 1 8.728808 12.685540 724.568726
597 0 1 8.957592 12.965981 723.729675
598 0 1 9.373240 13.108191 722.869202
599 0 1 9.684220 13.029900 721.966309
600 0 1 9.841470 12.895140 720.990906
601 0 1 10.011580 13.020821 720.075989
602 0 1 10.319430 13.264259 719.140198
603 0 1 10.398930 13.262920 718.184998
604 0 1 10.352650 13.173300 717.147522
605 0 1 10.587940 13.191430 716.241333
606 0 1 10.619300 13.155120 715.248169
607 0 1 10.570980 13.370430 714.340332
608 0 1 10.475130 13.639080 713.471680
609 0 1 10.632811 13.836880 712.513672
610 0 1 10.875450 13.840020 711.565430
611 0 1 11.043530 13.594120 710.684204
612 0 1 11.149830 13.339180 709.774780
613 0 1 11.230840 12.912980 708.915100
614 0 1 11.373980 12.325420 708.180908
615 0 1 11.543620 11.878040 707.281006
616 0 1 11.622510 11.399070 706.497498
617 0 1 11.479650 11.026770 705.622375
618 0 1 11.413600 10.458270 704.801697
619 0 1 11.086130 10.103310 703.965576
620 0 1 10.897230 10.124430 703.016968
621 0 1 10.954460 10.216900 702.119385
622 0 1 10.747720 10.528320 701.196533
623 0 1 10.624550 10.771339 700.320679
624 0 1 10.519160 10.970210 699.434692
625 0 1 10.729400 11.207800 698.433105
626 0 1 11.053550 11.335130 697.520813
627 0 1 11.032180 11.711670 696.618530
628 0 1 11.083941 11.550550 695.691895
629 0 1 11.328850 11.362210 694.799622
630 0 1 11.512590 11.230800 693.903809
631 0 1 11.877580 11.044770 693.065796
632 0 1 12.171061 10.617100 692.243530
633 0 1 12.441870 10.273460 691.402710
634 0 1 12.716330 9.937720 690.590515
635 0 1 12.871981 9.279010 689.890869
636 0 1 12.535720 8.743306 689.148010
637 0 1 12.132470 8.285303 688.445496
638 0 1 11.496500 7.916701 687.835022
639 0 1 10.899520 7.743354 687.156982
640 0 1 10.024710 7.988302 686.591919
641 0 1 9.216000 8.095037 686.085815
642 0 1 8.629195 7.829798 685.418884
643 0 1 8.335745 7.629211 684.531311
644 0 1 8.187579 7.466809 683.524475
645 0 1 7.775926 7.450631 682.594971
646 0 1 7.519309 7.196013 681.679199
647 0 1 7.356230 6.977290 680.729919
648 0 1 7.180386 6.540080 679.900269
649 0 1 7.264473 6.160860 678.968201
650 0 1 7.118430 5.743450 678.148193
651 0 1 6.952170 5.493600 677.288818
652 0 1 7.152733 5.302350 676.409912
653 0 1 7.475318 5.268820 675.478577
654 0 1 7.906626 5.429750 674.529907
655 0 1 8.405631 5.595310 673.702820
656 0 1 8.857687 5.603880 672.863098
657 0 1 9.598320 5.822480 672.280823
658 0 1 10.143790 6.068270 671.546875
659 0 1 10.552200 6.309990 670.696289
660 0 1 10.766211 6.397270 669.735107
661 0 1 11.051460 6.307010 668.773499
662 0 1 11.334040 6.064180 667.847412
663 0 1 11.073760 5.809830 666.907104
664 0 1 10.729259 5.519310 666.064514
665 0 1 10.406740 4.943050 665.264709
666 0 1 10.294830 4.378320 664.556885
667 0 1 9.729920 4.062760 663.767517
668 0 1 9.248770 3.916390 662.911926
669 0 1 8.629458 3.852820 662.125732
670 0 1 8.084924 3.975670 661.287476
671 0 1 7.753004 3.589070 660.490723
672 0 1 7.515246 3.174040 659.629883
673 0 1 7.044132 2.852550 658.845825
674 0 1 6.662130 3.045140 657.995117
675 0 1 6.490340 3.524780 657.183289
676 0 1 6.223080 3.955510 656.416016
677 0 1 5.919900 4.356130 655.595825
678 0 1 5.809960 4.989140 654.803894
679 0 1 5.673700 5.287230 653.881714
680 0 1 5.526540 5.711280 653.072205
681 0 1 5.464650 6.035870 652.107300
682 0 1 5.674290 6.230720 651.220276
683 0 1 5.980680 6.243550 650.278015
684 0 1 6.269270 6.054270 649.376221
685 0 1 6.538490 5.755550 648.520386
686 0 1 6.674730 5.294760 647.678284
687 0 1 6.760420 5.063190 646.761292
688 0 1 6.916520 4.881550 645.837402
689 0 1 7.361896 4.806980 644.990295
690 0 1 7.961992 4.878720 644.148987
691 0 1 8.595277 4.781100 643.450623
692 0 1 9.055700 4.763580 642.632690
693 0 1 9.609340 4.791570 641.820007
694 0 1 9.875850 4.636230 640.929626
695 0 1 10.015870 4.647840 639.989685
696 0 1 10.176229 4.699180 639.073425
697 0 1 10.569130 4.937350 638.188049
698 0 1 10.984310 5.080330 637.388611
699 0 1 11.416690 5.392540 636.602234
700 0 1 11.779650 5.974880 635.925415
701 0 1 12.220620 6.694830 635.317505
702 0 1 12.422920 7.231926 634.563416
703 0 1 12.593010 7.483059 633.645508
704 0 1 12.956850 7.849820 632.857117
705 0 1 13.047461 8.153248 631.848816
706 0 1 12.565170 8.325014 630.980530
707 0 1 12.277309 8.706948 630.143738
708 0 1 12.036221 8.609883 629.220215
709 0 1 11.903760 8.370728 628.305115
710 0 1 11.834770 7.974095 627.375977
711 0 1 11.674300 7.714166 626.515625
712 0 1 11.626650 7.316101 625.516541
713 0 1 11.744870 6.999710 624.585022
714 0 1 12.046240 6.797340 623.749084
715 0 1 12.179700 6.766440 622.810547
716 0 1 12.160620 6.517130 621.887329
717 0 1 12.086810 6.522160 620.990540
718 0 1 11.956710 6.811320 620.022583
719 0 1 11.772010 7.215456 619.139465
720 0 1 11.700290 7.237281 618.228394
721 0 1 11.714109 7.093942 617.303772
722 0 1 11.795570 6.963550 616.324097
723 0 1 11.801800 6.772190 615.373901
724 0 1 11.910560 6.772170 614.439270
725 0 1 12.242840 6.817800 613.519470
726 0 1 12.727130 7.084784 612.701294
727 0 1 12.671841 7.118118 611.771912
728 0 1 12.623510 7.249665 610.794128
729 0 1 12.739510 7.440061 609.883911
730 0 1 12.926380 7.671988 608.985901
731 0 1 13.054110 7.876441 608.022583
732 0 1 13.144279 8.122589 607.084412
733 0 1 13.056789 8.615672 606.280396
734 0 1 13.063760 9.000460 605.356079
735 0 1 12.908510 9.468030 604.531311
736 0 1 12.708839 9.674910 603.632507
737 0 1 12.193120 9.787700 602.724792
738 0 1 11.885410 10.083981 601.806824
739 0 1 11.242840 10.453011 601.206726
740 0 1 10.691700 10.491280 600.404785
741 0 1 9.969570 10.428720 599.720215
742 0 1 9.326410 10.294800 599.046814
743 0 1 8.532249 10.246531 598.407715
744 0 1 7.685288 10.279570 597.919373
745 0 1 6.989200 10.097640 597.299805
746 0 1 6.308250 9.657120 596.715210
747 0 1 5.764860 9.297630 595.986328
748 0 1 5.292340 8.661406 595.409790
749 0 1 5.316070 8.045043 594.666504
750 0 1 5.612100 7.630828 593.849487
751 0 1 6.114510 7.523195 592.949219
752 0 1 6.795190 7.362447 592.243591
753 0 1 7.353810 7.277074 591.435486
754 0 1 7.766666 7.539575 590.601196
755 0 1 8.141142 7.936516 589.813110
756 0 1 8.589212 8.290606 588.993896
757 0 1 9.033680 8.691761 588.235596
758 0 1 9.578460 9.143810 587.661194
759 0 1 9.992620 9.544640 586.884888
760 0 1 10.456430 10.040870 586.245483
761 0 1 11.132800 10.062500 585.518311
762 0 1 11.379940 10.576920 584.744202
763 0 1 11.681870 11.004560 583.906006
764 0 1 11.679300 11.320250 582.940918
765 0 1 11.618959 11.459090 581.934387
766 0 1 11.401040 11.546870 580.988770
767 0 1 11.108780 11.187600 580.110901
768 0 1 10.888000 11.018060 579.217590
769 0 1 10.778230 11.035480 578.275391
770 0 1 10.918070 10.908590 577.271423
771 0 1 10.830840 11.023650 576.360474
772 0 1 10.708660 11.078290 575.441711
773 0 1 10.753410 10.925830 574.473511
774 0 1 10.977030 10.609850 573.591675
775 0 1 11.198669 10.255360 572.750488
776 0 1 11.408470 10.099980 571.840698
777 0 1 11.664110 9.910550 570.964478
778 0 1 11.602710 9.419490 570.120300
779 0 1 11.145670 9.115480 569.302795
780 0 1 10.657480 8.609829 568.575195
781 0 1 10.048491 8.101656 567.975830
782 0 1 9.467660 7.548623 567.472900
783 0 1 8.826032 6.825180 567.108032
784 0 1 8.071457 6.401980 566.654175
785 0 1 7.316959 6.138900 566.169678
786 0 1 6.805610 5.780130 565.473877
787 0 1 6.334020 5.328890 564.746887
788 0 1 5.780680 4.953320 564.084900
789 0 1 5.517570 4.720030 563.200317
790 0 1 5.113840 4.697220 562.345215