LAMMPS data file via MDAnalysis

        1000  atoms
        1000  bonds
        1000  angles
           0  dihedrals
           0  impropers

           1  atom types
           1  bond types
           1  angle types
           0  dihedral types
           0  improper types

0.000000 16.000000 xlo xhi
0.000000 16.000000 ylo yhi
0.000000 1257.000000 zlo zhi


Masses

1 1.000000

Atoms

1 0 1 10.867850 8.973372 490.636993
2 0 1 10.392710 8.294812 491.210999
3 0 1 9.907080 7.740770 491.859985
4 0 1 9.635710 7.386716 492.737000
5 0 1 9.517941 7.302556 493.660004
6 0 1 9.001760 7.068722 494.419983
7 0 1 8.346885 6.895400 495.134003
8 0 1 7.705558 6.837960 495.899994
9 0 1 7.303473 7.088057 496.757996
10 0 1 7.012686 7.394522 497.604004
11 0 1 6.992480 7.839190 498.494995
12 0 1 6.863960 8.086939 499.398987
13 0 1 6.674670 8.438349 500.244019
14 0 1 6.409690 8.635317 501.138000
15 0 1 6.033020 8.710334 502.009003
16 0 1 5.578110 8.355817 502.772003
17 0 1 5.355240 7.774849 503.583984
18 0 1 5.160830 7.323626 504.471008
19 0 1 5.324680 6.922030 505.306000
20 0 1 5.496980 6.715880 506.210999
21 0 1 5.309160 6.672010 507.182983
22 0 1 5.411490 6.286030 508.170990
23 0 1 5.248070 6.011470 509.062012
24 0 1 5.056060 5.696520 509.958984
25 0 1 4.864830 5.488940 510.865997
26 0 1 5.018990 5.332970 511.789001
27 0 1 5.561660 5.118000 512.596985
28 0 1 6.113160 4.998150 513.346985
29 0 1 6.728420 5.030480 514.065002
30 0 1 7.348958 4.899630 514.770020
31 0 1 7.974719 4.588940 515.416992
32 0 1 8.499459 4.454900 516.268982
33 0 1 8.815800 4.415190 517.164001
34 0 1 9.228650 4.548560 517.968994
35 0 1 9.815600 4.613290 518.690002
36 0 1 10.092890 4.614630 519.655029
37 0 1 10.268260 4.166060 520.474976
38 0 1 10.662650 3.670680 521.197021
39 0 1 10.914110 3.309160 522.052002
40 0 1 11.226530 3.073650 522.906982
41 0 1 11.293470 2.672340 523.802979
42 0 1 11.289730 2.616440 524.776978
43 0 1 11.052890 2.271300 525.752014
44 0 1 10.803960 2.431990 526.718018
45 0 1 10.474820 2.558980 527.641968
46 0 1 10.233060 2.971450 528.489014
47 0 1 9.780060 3.571630 529.072327
48 0 1 9.160350 4.288790 529.272095
49 0 1 8.937272 5.102940 529.655396
50 0 1 8.869666 5.840930 530.243896
51 0 1 9.028010 6.540870 531.041870
52 0 1 9.345170 7.157360 531.772400
53 0 1 9.513820 7.652812 532.596497
54 0 1 9.653020 8.213964 533.336792
55 0 1 9.890590 8.951719 533.943115
56 0 1 9.909210 9.653020 534.522095
57 0 1 9.951320 10.399509 535.118774
58 0 1 9.833040 10.969250 535.918274
59 0 1 9.610610 11.428160 536.723816
60 0 1 9.476110 11.553210 537.718384
61 0 1 9.339340 11.378890 538.655823
62 0 1 9.503930 11.123940 539.559326
63 0 1 9.830820 10.792561 540.373169
64 0 1 9.974300 10.549290 541.229187
65 0 1 9.911380 10.387520 542.182312
66 0 1 9.845220 10.116610 543.120972
67 0 1 9.829060 10.225730 544.090515
68 0 1 9.717940 10.295010 544.997070
69 0 1 9.697320 10.244040 545.947998
70 0 1 9.720490 10.330930 546.898804
71 0 1 9.534900 10.337580 547.848083
72 0 1 9.155700 10.010469 548.629211
73 0 1 8.801159 9.864030 549.536194
74 0 1 8.610926 9.753610 550.564209
75 0 1 8.728235 9.427410 551.407471
76 0 1 8.675094 9.201100 552.410706
77 0 1 8.535523 9.126610 553.329224
78 0 1 8.316477 9.447420 554.209412
79 0 1 8.262030 9.890720 555.053101
80 0 1 8.256221 10.413300 555.853516
81 0 1 8.278581 10.917360 556.687195
82 0 1 8.566851 11.218719 557.562988
83 0 1 8.750265 11.869690 558.247681
84 0 1 9.096390 12.234711 559.060974
85 0 1 9.533860 12.566820 559.850830
86 0 1 9.885600 12.853020 560.726929
87 0 1 10.094210 12.812340 561.796997
88 0 1 10.455950 12.694160 562.692017
89 0 1 10.972290 12.405420 563.522705
90 0 1 11.332610 12.034070 564.342285
91 0 1 11.335510 11.855040 565.291016
92 0 1 11.465270 11.856730 566.245911
93 0 1 11.409950 12.060500 567.223206
94 0 1 11.037330 12.015221 568.121521
95 0 1 10.901200 12.020000 569.082703
96 0 1 10.925430 12.210140 570.034668
97 0 1 10.829470 12.026490 570.952515
98 0 1 10.663840 11.778060 571.908081
99 0 1 10.432830 11.409560 572.737183
100 0 1 10.119480 10.914210 573.560974
101 0 1 10.519950 10.619150 574.398315
102 0 1 10.760000 10.411540 575.277222
103 0 1 10.849060 9.967800 576.165222
104 0 1 10.910840 9.500660 576.971924
105 0 1 11.204620 8.919366 577.652710
106 0 1 11.606580 8.374710 578.410217
107 0 1 11.970090 7.678989 579.050598
108 0 1 12.336590 7.127806 579.722168
109 0 1 12.612380 6.522790 580.469788
110 0 1 12.518180 5.753020 581.110901
111 0 1 12.289730 5.261500 581.883118
112 0 1 12.025810 4.734960 582.712585
113 0 1 11.696590 4.437830 583.533569
114 0 1 11.395790 4.162880 584.480103
115 0 1 11.118010 4.105540 585.377991
116 0 1 10.947010 3.869200 586.312988
117 0 1 10.843920 3.841720 587.263977
118 0 1 10.709160 3.922860 588.241882
119 0 1 10.492990 4.250430 589.139404
120 0 1 10.147260 4.650850 589.957581
121 0 1 9.942690 4.869430 590.953613
122 0 1 9.552890 5.096580 591.797607
123 0 1 9.290950 5.412480 592.689331
124 0 1 9.103690 5.576950 593.568909
125 0 1 8.766568 6.154250 594.231018
126 0 1 8.611703 6.780330 594.920227
127 0 1 8.043131 7.022713 595.702026
128 0 1 7.402844 7.563949 596.197327
129 0 1 7.055919 7.732382 597.153381
130 0 1 6.707920 7.757112 598.049377
131 0 1 6.206140 7.719714 598.897400
132 0 1 5.526540 7.788514 599.586609
133 0 1 4.743490 7.726105 600.074829
134 0 1 4.197790 7.845489 600.938599
135 0 1 3.663590 7.741320 601.740906
136 0 1 3.004670 7.758998 602.441711
137 0 1 2.503870 7.574937 603.225586
138 0 1 2.015920 7.470992 604.059570
139 0 1 1.685520 7.385241 604.993530
140 0 1 1.537730 7.282828 605.977722
141 0 1 1.731770 7.023923 606.917419
142 0 1 2.175100 6.835810 607.697998
143 0 1 2.755280 6.547600 608.434082
144 0 1 3.559490 6.671730 608.923584
145 0 1 4.403940 6.518930 609.210022
146 0 1 5.241080 6.266640 609.603577
147 0 1 5.898060 6.009640 610.232178
148 0 1 6.665980 5.694300 610.825989
149 0 1 7.318847 5.366230 611.391296
150 0 1 7.995650 4.907140 612.039917
151 0 1 8.614796 4.456590 612.585876
152 0 1 9.310130 4.295520 613.280884
153 0 1 9.948800 4.353600 613.959778
154 0 1 10.612900 4.584330 614.733887
155 0 1 11.286300 4.855450 615.366699
156 0 1 11.794621 5.230430 616.132812
157 0 1 11.997890 5.651210 616.964600
158 0 1 12.393641 5.956820 617.794678
159 0 1 12.852671 6.029620 618.617310
160 0 1 13.121080 6.184090 619.536621
161 0 1 13.452539 6.312250 620.453125
162 0 1 13.807290 6.624710 621.250305
163 0 1 14.100161 6.649330 622.150818
164 0 1 14.253690 6.371020 623.160706
165 0 1 14.476271 6.243200 624.094727
166 0 1 14.472099 6.235530 625.048218
167 0 1 14.472090 5.728650 625.909424
168 0 1 14.057110 5.547560 626.857666
169 0 1 13.698750 5.474340 627.765503
170 0 1 13.339029 5.502290 628.659180
171 0 1 13.357770 5.776240 629.622009
172 0 1 13.714900 6.074890 630.536377
173 0 1 13.896170 6.295830 631.470764
174 0 1 14.075900 6.548230 632.341492
175 0 1 14.169439 7.015146 633.173828
176 0 1 14.101220 7.345212 634.073547
177 0 1 13.892480 7.354332 635.001099
178 0 1 13.666121 7.449863 635.977234
179 0 1 13.649560 7.486463 636.927612
180 0 1 13.569099 7.289810 637.866028
181 0 1 13.179399 7.286032 638.718079
182 0 1 12.694950 7.261617 639.666504
183 0 1 12.107400 7.149371 640.434875
184 0 1 11.545140 6.904370 641.160583
185 0 1 11.060320 6.716400 641.954102
186 0 1 10.616100 6.772410 642.774109
187 0 1 10.130140 6.828450 643.564514
188 0 1 9.715730 6.833890 644.446289
189 0 1 9.386070 7.270586 645.236572
190 0 1 9.575520 7.701706 646.097412
191 0 1 9.261600 8.098725 646.896729
192 0 1 8.913948 8.583654 647.646912
193 0 1 9.041030 9.009171 648.500488
194 0 1 9.198200 9.637120 649.220398
195 0 1 9.131900 10.195440 650.048096
196 0 1 8.913034 10.733080 650.893677
197 0 1 8.751126 11.397230 651.673096
198 0 1 8.498935 11.919600 652.463013
199 0 1 8.210907 12.337601 653.241577
200 0 1 7.847457 12.551610 654.081116
201 0 1 7.453572 12.867001 654.912292
202 0 1 7.233710 13.226210 655.801270
203 0 1 6.863380 13.380430 656.696777
204 0 1 6.230220 13.495810 657.367798
205 0 1 5.562410 13.445890 658.052917
206 0 1 5.111590 13.294200 658.890869
207 0 1 4.688630 13.019690 659.724731
208 0 1 4.242730 12.872789 660.579285
209 0 1 3.696580 12.635920 661.394531
210 0 1 3.544130 12.208570 662.272827
211 0 1 3.278730 11.664110 662.994080
212 0 1 3.023990 10.784980 663.252991
213 0 1 2.980860 9.774200 663.360474
214 0 1 2.785790 8.969718 663.764404
215 0 1 2.649040 8.219953 664.244812
216 0 1 2.893700 7.507743 664.824524
217 0 1 3.140280 6.991780 665.605774
218 0 1 3.313190 6.446570 666.355774
219 0 1 3.434980 5.824770 667.148987
220 0 1 3.488500 5.284700 667.937195
221 0 1 3.467900 4.844230 668.794128
222 0 1 3.468260 4.605280 669.761597
223 0 1 3.416770 4.559110 670.708984
224 0 1 3.638030 4.588330 671.598328
225 0 1 3.898210 4.400210 672.481628
226 0 1 4.145840 4.129530 673.375305
227 0 1 4.353910 3.868090 674.223389
228 0 1 4.917930 3.537880 674.983704
229 0 1 5.573510 3.064790 675.436279
230 0 1 6.202420 2.494670 675.960510
231 0 1 6.598230 1.992320 676.691406
232 0 1 6.881950 1.723970 677.569275
233 0 1 7.067909 1.704230 678.529114
234 0 1 6.920360 1.804980 679.472290
235 0 1 7.061299 1.824270 680.480286
236 0 1 7.330555 2.138030 681.384399
237 0 1 7.724218 2.458110 682.209106
238 0 1 8.108490 2.908860 682.975281
239 0 1 8.354434 3.154380 683.881592
240 0 1 8.599418 3.586660 684.749207
241 0 1 9.097010 3.874650 685.494995
242 0 1 9.544150 4.228480 686.300903
243 0 1 9.685570 4.600480 687.167786
244 0 1 9.825080 4.639230 688.106323
245 0 1 9.994010 4.811100 689.074890
246 0 1 9.960850 4.936530 690.069824
247 0 1 9.857780 5.014440 691.053772
248 0 1 9.640240 5.156960 691.977478
249 0 1 9.389330 4.987510 692.918213
250 0 1 9.206060 4.899660 693.885986
251 0 1 8.791421 4.933560 694.732483
252 0 1 8.538246 4.822690 695.626099
253 0 1 8.222199 4.679210 696.512573
254 0 1 7.722955 4.555450 697.398926
255 0 1 7.227722 4.432390 698.242676
256 0 1 6.597230 4.555770 698.948303
257 0 1 6.157680 4.745940 699.836304
258 0 1 5.404800 4.755460 700.519592
259 0 1 4.858080 4.527140 701.234619
260 0 1 4.324370 4.485750 702.052673
261 0 1 4.038790 4.848400 702.863098
262 0 1 3.697850 5.160230 703.675720
263 0 1 3.332920 5.653070 704.465088
264 0 1 2.882370 6.044050 705.195801
265 0 1 2.634910 6.488080 706.007690
266 0 1 2.362070 6.743120 706.887512
267 0 1 1.864580 7.152727 707.526367
268 0 1 1.487970 7.387649 708.389099
269 0 1 1.580600 7.754543 709.338623
270 0 1 1.673820 8.119834 710.248169
271 0 1 1.842960 8.480749 711.132996
272 0 1 2.046120 8.794384 712.001221
273 0 1 2.497450 9.094590 712.786316
274 0 1 2.731040 9.152081 713.712524
275 0 1 2.929090 9.093700 714.628418
276 0 1 3.275730 9.272020 715.572815
277 0 1 3.639310 9.524000 716.490417
278 0 1 3.968760 9.679340 717.336670
279 0 1 4.529940 9.890700 718.164917
280 0 1 5.253900 10.276711 718.858521
281 0 1 5.703440 10.776910 719.726318
282 0 1 5.852770 11.223690 720.543884
283 0 1 6.170130 11.660080 721.287598
284 0 1 6.471160 12.114290 722.052979
285 0 1 6.785600 12.651190 722.827576
286 0 1 7.174038 13.037030 723.671814
287 0 1 7.321294 13.371349 724.532898
288 0 1 7.559846 13.474960 725.503906
289 0 1 7.537984 13.781460 726.409119
290 0 1 7.496896 13.680790 727.354614
291 0 1 7.445169 13.657220 728.328918
292 0 1 7.013885 13.638920 729.229004
293 0 1 6.602570 13.571910 730.143005
294 0 1 5.965990 13.512600 730.812988
295 0 1 5.483860 13.014700 731.448975
296 0 1 4.902560 12.585990 732.104004
297 0 1 4.693060 11.647010 732.460022
298 0 1 4.646340 10.855690 732.914978
299 0 1 4.593290 10.068270 733.546997
300 0 1 4.664400 9.516610 734.330994
301 0 1 4.734960 9.173990 735.182983
302 0 1 4.872170 9.078850 736.169983
303 0 1 5.101840 9.003990 737.138977
304 0 1 4.845050 8.946037 738.112000
305 0 1 4.672530 8.938767 739.117981
306 0 1 4.404980 8.990647 740.036987
307 0 1 4.374830 8.749984 740.999023
308 0 1 4.448470 8.459985 741.898987
309 0 1 4.411100 8.219335 742.818970
310 0 1 4.267640 7.793987 743.689026
311 0 1 4.163080 7.158653 744.440979
312 0 1 4.126160 6.648380 745.208008
313 0 1 4.238750 6.463080 746.125977
314 0 1 4.408900 6.484120 747.007019
315 0 1 4.532750 6.696150 748.009033
316 0 1 4.630790 6.897390 748.932007
317 0 1 4.649400 7.108487 749.891968
318 0 1 4.462550 7.262777 750.799011
319 0 1 4.301580 7.476900 751.692993
320 0 1 4.051690 7.622393 752.612000
321 0 1 3.636800 7.769239 753.466003
322 0 1 3.342080 7.856777 754.330017
323 0 1 3.174350 8.255710 755.197021
324 0 1 2.750190 8.239435 756.075989
325 0 1 2.459370 7.863790 756.877991
326 0 1 2.321030 7.280619 757.681030
327 0 1 2.317430 6.851180 758.497009
328 0 1 2.482350 6.341540 759.322998
329 0 1 2.824240 6.019780 760.172974
330 0 1 3.255380 5.815890 761.020996
331 0 1 3.598760 5.737440 761.929993
332 0 1 3.942580 5.705520 762.833984
333 0 1 4.607180 5.833920 763.614014
334 0 1 5.260680 5.910880 764.317993
335 0 1 5.944530 5.977300 765.044983
336 0 1 6.366500 6.094400 765.898010
337 0 1 6.814570 6.434590 766.708984
338 0 1 7.239220 6.910300 767.432983
339 0 1 7.692207 7.379490 768.218994
340 0 1 7.972530 7.680245 769.026001
341 0 1 8.380000 8.024016 769.841980
342 0 1 8.431854 8.621998 770.627991
343 0 1 8.580148 8.975564 771.502991
344 0 1 8.528301 9.508060 772.322021
345 0 1 8.347468 9.663320 773.264038
346 0 1 8.132047 9.872610 774.195007
347 0 1 7.821509 9.919370 775.096985
348 0 1 7.596592 10.060960 776.031006
349 0 1 7.283763 10.362050 776.853027
350 0 1 7.050054 10.763160 777.737000
351 0 1 6.889550 11.146980 778.591980
352 0 1 6.874520 11.441320 779.510010
353 0 1 6.523290 11.626770 780.380005
354 0 1 6.156310 11.864290 781.254028
355 0 1 5.718160 12.014880 782.042969
356 0 1 5.444500 12.019979 782.911011
357 0 1 4.899330 12.095460 783.721008
358 0 1 4.558780 12.303630 784.627991
359 0 1 4.280930 12.168730 785.525024
360 0 1 4.337930 11.855310 786.437988
361 0 1 4.409490 12.082331 787.440002
362 0 1 4.599130 12.463070 788.328979
363 0 1 4.853710 12.711910 789.203979
364 0 1 5.215700 12.821690 790.122009
365 0 1 5.666310 12.421920 790.872986
366 0 1 6.316480 12.104190 791.502991
367 0 1 6.788120 11.694360 792.335022
368 0 1 6.807090 11.108690 793.231018
369 0 1 6.764930 10.445570 793.943970
370 0 1 6.569070 10.153851 794.879028
371 0 1 6.437810 9.902830 795.770996
372 0 1 6.243530 9.678230 796.679016
373 0 1 6.212490 9.307550 797.567017
374 0 1 6.079430 8.852350 798.434021
375 0 1 5.787060 8.565061 799.328979
376 0 1 5.568700 8.433104 800.291016
377 0 1 5.239460 8.083158 801.153992
378 0 1 4.991910 7.799715 802.015015
379 0 1 4.651010 7.625311 802.943970
380 0 1 4.162210 7.430896 803.759033
381 0 1 3.549800 7.617937 804.487000
382 0 1 3.009270 8.140672 805.164978
383 0 1 2.373890 8.431686 805.958008
384 0 1 1.886500 8.839576 806.688965
385 0 1 1.534910 9.041160 807.523987
386 0 1 1.249640 9.431810 808.341980
387 0 1 1.238730 9.479930 809.320007
388 0 1 1.670890 9.484540 810.156982
389 0 1 2.165810 9.093570 810.880005
390 0 1 2.771850 8.660236 811.591003
391 0 1 3.241910 8.135884 812.322998
392 0 1 3.951340 7.846797 812.924988
393 0 1 4.492990 7.448339 813.661987
394 0 1 4.916540 7.367950 814.536987
395 0 1 5.365430 7.337179 815.375000
396 0 1 5.589880 7.133644 816.265991
397 0 1 5.761820 7.092009 817.247986
398 0 1 5.909910 7.017969 818.190002
399 0 1 6.002670 7.000550 819.104980
400 0 1 6.093090 7.151940 820.039978
401 0 1 6.262620 7.636028 820.879028
402 0 1 6.536410 8.252580 821.542969
403 0 1 6.819350 9.005160 822.052979
404 0 1 7.239589 9.480880 822.738037
405 0 1 7.795074 9.880260 823.411011
406 0 1 8.141242 10.414140 824.085999
407 0 1 8.553174 11.181420 824.514038
408 0 1 8.940070 11.908430 825.171021
409 0 1 9.310980 12.347910 826.000000
410 0 1 9.591380 12.829530 826.783997
411 0 1 9.714310 13.319670 827.562988
412 0 1 10.044991 13.574619 828.484009
413 0 1 10.139771 13.878759 829.419006
414 0 1 10.300760 13.902700 830.370972
415 0 1 10.214760 13.979110 831.391968
416 0 1 10.167920 13.786420 832.343018
417 0 1 10.000240 13.376260 833.198975
418 0 1 9.836400 12.963520 834.030029
419 0 1 9.608459 12.225960 834.606995
420 0 1 9.194530 11.443000 834.960999
421 0 1 8.505745 10.916240 835.343994
422 0 1 8.063639 10.209440 835.796997
423 0 1 7.366207 9.489150 835.960022
424 0 1 6.658910 8.802630 835.989990
425 0 1 6.384390 7.940248 836.166016
426 0 1 6.332890 6.962220 836.247009
427 0 1 6.119190 6.035480 836.031006
428 0 1 5.752940 5.229270 835.666016
429 0 1 5.448430 4.369130 835.292969
430 0 1 5.087990 3.910500 834.531006
431 0 1 4.998080 3.670730 833.638000
432 0 1 4.573620 3.538780 832.742981
433 0 1 4.834660 3.411610 831.872986
434 0 1 5.079310 3.596250 830.957031
435 0 1 5.561330 3.551370 830.151001
436 0 1 5.875670 3.360400 829.268982
437 0 1 6.170060 3.742140 828.445007
438 0 1 6.593710 4.376420 827.830017
439 0 1 7.083003 5.085690 827.359009
440 0 1 7.507118 5.659980 826.708008
441 0 1 8.046753 6.128790 825.943970
442 0 1 8.436642 6.647060 825.286987
443 0 1 8.915336 7.077957 824.410034
444 0 1 9.531770 7.353314 823.703003
445 0 1 10.057910 7.560978 822.837036
446 0 1 10.366890 7.936241 822.039001
447 0 1 10.404921 8.440196 821.179993
448 0 1 10.457130 8.858555 820.273010
449 0 1 10.228740 8.748725 819.333008
450 0 1 10.031740 8.855486 818.403015
451 0 1 9.778350 9.217800 817.499023
452 0 1 9.207890 9.284090 816.617004
453 0 1 8.743675 9.456200 815.697998
454 0 1 8.273312 9.034700 814.971008
455 0 1 7.799848 8.729571 814.234009
456 0 1 7.734797 8.320540 813.414001
457 0 1 7.969170 8.286049 812.429016
458 0 1 8.319032 8.060119 811.520020
459 0 1 8.691485 7.809938 810.750000
460 0 1 9.254860 7.395178 810.080017
461 0 1 9.835150 7.279881 809.257019
462 0 1 10.238210 7.361102 808.421021
463 0 1 10.644740 7.430957 807.587036
464 0 1 11.104130 7.328827 806.716003
465 0 1 11.603519 7.375973 805.848999
466 0 1 11.681180 7.631163 804.916016
467 0 1 11.712930 7.914486 803.992004
468 0 1 11.603800 8.116265 803.078979
469 0 1 11.571550 8.355497 802.171997
470 0 1 11.663651 8.238473 801.190979
471 0 1 11.711840 7.892050 800.281982
472 0 1 11.703070 7.502496 799.408997
473 0 1 11.521910 7.208722 798.502991
474 0 1 11.308430 6.912520 797.552979
475 0 1 11.103910 6.812350 796.643982
476 0 1 11.149020 7.112389 795.791992
477 0 1 11.157270 7.429772 794.882019
478 0 1 11.072690 7.528212 793.885010
479 0 1 11.243470 7.649584 792.924011
480 0 1 11.586130 7.990485 792.120972
481 0 1 12.093130 8.496777 791.385010
482 0 1 12.500259 8.690746 790.521973
483 0 1 12.505630 8.756256 789.464966
484 0 1 12.574710 8.817266 788.495972
485 0 1 12.591761 8.923282 787.601013
486 0 1 12.661360 9.236450 786.646973
487 0 1 13.001520 9.644220 785.802002
488 0 1 13.211390 10.067050 784.885010
489 0 1 13.118520 10.504180 784.059021
490 0 1 12.825980 10.862610 783.172974
491 0 1 12.820840 11.404409 782.325989
492 0 1 12.939711 11.656370 781.416016
493 0 1 13.166590 11.758710 780.447998
494 0 1 13.252890 11.891200 779.516968
495 0 1 13.337440 11.653910 778.588989
496 0 1 13.219561 11.323120 777.687012
497 0 1 13.250540 10.945520 776.802979
498 0 1 12.989110 10.354140 775.992981
499 0 1 12.799641 10.073640 775.122986
500 0 1 12.757430 9.582320 774.235962
501 0 1 12.797211 8.899035 773.588013
502 0 1 12.562590 8.245227 772.835022
503 0 1 12.183360 7.783506 772.106018
504 0 1 11.840879 7.014489 771.588989
505 0 1 11.246020 6.438700 771.015991
506 0 1 10.765930 6.058670 770.281982
507 0 1 10.077670 5.864350 769.682007
508 0 1 9.279950 5.890460 769.109985
509 0 1 8.512212 5.854930 768.554016
510 0 1 8.179540 6.106840 767.653015
511 0 1 8.064961 6.267260 766.716003
512 0 1 7.900274 6.329980 765.785034
513 0 1 8.021431 6.617020 764.903015
514 0 1 8.209816 6.847900 764.033020
515 0 1 8.499766 7.122819 763.150024
516 0 1 8.547387 7.332257 762.223999
517 0 1 8.670206 7.563071 761.348022
518 0 1 8.791203 7.915936 760.479004
519 0 1 8.801156 8.552661 759.747986
520 0 1 8.891580 9.214390 759.000977
521 0 1 9.206620 9.767910 758.304993
522 0 1 9.505800 10.240760 757.549011
523 0 1 9.645130 10.738340 756.745972
524 0 1 9.776580 11.135110 755.815979
525 0 1 9.582230 11.569580 754.942993
526 0 1 9.422720 11.968290 754.106018
527 0 1 9.249570 12.117180 753.185974
528 0 1 9.076690 12.104940 752.239990
529 0 1 8.899639 12.339530 751.333984
530 0 1 8.423277 12.292840 750.551025
531 0 1 8.288249 12.152861 749.583008
532 0 1 8.335748 12.082581 748.612000
533 0 1 8.505400 11.946220 747.663025
534 0 1 8.813903 11.954650 746.739990
535 0 1 9.069950 11.895240 745.864014
536 0 1 9.413610 11.656040 744.999023
537 0 1 9.703410 11.613501 744.047974
538 0 1 9.724140 11.420710 743.101013
539 0 1 9.737130 11.396481 742.085022
540 0 1 9.675010 11.282690 741.145996
541 0 1 9.324650 11.266880 740.259033
542 0 1 9.070350 11.161900 739.320984
543 0 1 9.089080 11.054680 738.380005
544 0 1 9.242990 11.044440 737.427002
545 0 1 9.261170 10.899190 736.509033
546 0 1 9.430240 10.959740 735.557983
547 0 1 9.661810 10.817039 734.601990
548 0 1 9.674280 10.666980 733.703003
549 0 1 9.406620 10.251220 732.877991
550 0 1 9.137650 9.842610 732.067993
551 0 1 8.946124 9.355870 731.281006
552 0 1 8.557331 8.909581 730.499023
553 0 1 8.579458 8.375111 729.713013
554 0 1 8.287924 8.125088 728.825989
555 0 1 8.223294 7.705711 727.903503
556 0 1 8.174238 7.324331 727.028992
557 0 1 8.176744 6.965040 726.170898
558 0 1 8.214144 6.546200 725.296204
559 0 1 8.088580 6.100910 724.415100
560 0 1 7.758007 5.879130 723.553223
561 0 1 7.626764 5.716660 722.625793
562 0 1 7.513642 5.398320 721.749390
563 0 1 7.500006 5.270300 720.818420
564 0 1 7.527928 5.289110 719.865417
565 0 1 7.740577 5.235910 718.855103
566 0 1 7.979746 5.325550 717.925598
567 0 1 8.161852 5.581960 716.934998
568 0 1 8.322800 5.753730 716.010803
569 0 1 8.288568 5.842800 715.091614
570 0 1 8.216856 5.821520 714.120117
571 0 1 8.329356 5.907830 713.157471
572 0 1 8.343215 5.858650 712.226685
573 0 1 8.245980 5.847230 711.228577
574 0 1 8.163272 5.811890 710.314575
575 0 1 8.090217 5.795520 709.391174
576 0 1 8.065930 6.001970 708.358826
577 0 1 8.090273 6.412880 707.370605
578 0 1 8.065769 6.482050 706.435791
579 0 1 8.166048 6.461900 705.459778
580 0 1 8.053430 6.333710 704.495300
581 0 1 7.846080 6.220230 703.522217
582 0 1 7.976796 6.231920 702.590515
583 0 1 7.990345 6.500870 701.666687
584 0 1 8.031808 7.066772 700.912415
585 0 1 8.210226 7.635130 700.166626
586 0 1 8.365815 8.362304 699.367798
587 0 1 8.811539 8.921873 698.527832
588 0 1 9.504470 9.346490 697.915710
589 0 1 10.215260 9.902200 697.578186
590 0 1 10.796070 10.210260 696.836975
591 0 1 11.240670 10.776600 696.185791
592 0 1 11.733720 11.274680 695.528503
593 0 1 11.816880 11.736460 694.699707
594 0 1 11.696290 11.848190 693.715881
595 0 1 11.436530 11.921790 692.744385
596 0 1 11.328720 12.208429 691.792114
597 0 1 11.558310 12.246960 690.809387
598 0 1 11.975220 12.118340 689.915222
599 0 1 12.324760 11.982520 688.957581
600 0 1 12.402660 11.889510 688.056702
601 0 1 12.355920 11.965730 687.141418
602 0 1 12.119750 12.295780 686.235779
603 0 1 11.998120 12.847179 685.453308
604 0 1 11.844490 13.235490 684.608582
605 0 1 11.875930 13.558001 683.715698
606 0 1 11.840870 13.722780 682.746887
607 0 1 11.605830 13.719740 681.829102
608 0 1 11.384290 13.781720 680.902588
609 0 1 11.227150 13.485600 680.000427
610 0 1 11.109819 13.294149 679.020508
611 0 1 11.305799 13.044980 678.110413
612 0 1 11.564460 12.751210 677.219971
613 0 1 12.003230 12.458981 676.421387
614 0 1 12.458321 12.204220 675.576477
615 0 1 12.932640 11.801580 674.734680
616 0 1 13.505110 11.541330 674.052185
617 0 1 14.130170 11.288770 673.331726
618 0 1 14.176400 10.966010 672.450073
619 0 1 14.188370 10.461781 671.653503
620 0 1 13.990931 10.114180 670.740173
621 0 1 13.752501 9.757800 669.897888
622 0 1 13.748730 9.527710 668.865173
623 0 1 13.441420 9.269550 667.960999
624 0 1 13.205750 8.666594 667.249390
625 0 1 13.002760 8.237258 666.417175
626 0 1 13.014940 7.871828 665.461670
627 0 1 12.976360 7.163766 664.765198
628 0 1 12.982190 6.520170 664.058289
629 0 1 12.953700 5.902520 663.330688
630 0 1 12.803490 5.187300 662.654419
631 0 1 12.353680 4.697950 661.969299
632 0 1 11.987520 4.252000 661.207214
633 0 1 11.515790 4.106160 660.418823
634 0 1 11.061440 3.579920 659.615479
635 0 1 10.380020 3.432920 658.949280
636 0 1 9.707250 3.537950 658.183228
637 0 1 9.107360 3.663240 657.364685
638 0 1 8.446282 4.082070 656.731995
639 0 1 7.768846 4.460810 656.163086
640 0 1 7.596526 4.754210 655.239990
641 0 1 7.475007 5.158970 654.337524
642 0 1 7.219452 5.701310 653.655090
643 0 1 7.100379 6.284590 652.906189
644 0 1 7.149161 6.911640 652.063171
645 0 1 7.221776 7.401227 651.266296
646 0 1 7.389710 7.913679 650.380615
647 0 1 7.466903 8.337933 649.541809
648 0 1 7.535626 8.745709 648.629822
649 0 1 7.403874 9.275780 647.784790
650 0 1 7.377969 9.885530 647.026428
651 0 1 7.390894 10.519460 646.296082
652 0 1 7.457058 11.221430 645.688477
653 0 1 7.542012 11.584110 644.778320
654 0 1 7.825956 12.021970 643.858826
655 0 1 8.068433 12.294860 642.957703
656 0 1 8.348086 12.348300 642.026428
657 0 1 8.699621 12.249870 641.108582
658 0 1 9.239630 11.992280 640.283508
659 0 1 9.495370 11.917370 639.301819
660 0 1 9.806180 11.825160 638.379639
661 0 1 10.022910 11.761110 637.476807
662 0 1 10.224421 11.598800 636.556274
663 0 1 10.381950 11.397700 635.539246
664 0 1 10.381230 11.358940 634.599426
665 0 1 10.311650 11.169490 633.660217
666 0 1 10.218610 11.522930 632.738220
667 0 1 10.127200 11.688290 631.832397
668 0 1 9.955600 11.966130 630.945496
669 0 1 9.973360 12.153530 630.011597
670 0 1 9.998100 12.571740 629.222839
671 0 1 9.866199 12.830160 628.325378
672 0 1 10.057261 12.939830 627.383301
673 0 1 10.114370 13.226231 626.456482
674 0 1 10.253660 13.276490 625.555725
675 0 1 10.273000 12.844430 624.638184
676 0 1 10.171930 12.587790 623.712708
677 0 1 10.011050 12.595580 622.784668
678 0 1 9.872430 12.982180 621.870667
679 0 1 9.520600 13.383110 621.057800
680 0 1 9.159810 13.486691 620.164673
681 0 1 8.632879 13.281560 619.285828
682 0 1 8.241708 13.028231 618.440430
683 0 1 7.929459 12.808599 617.532288
684 0 1 7.750838 12.674009 616.541077
685 0 1 7.684136 12.529750 615.633423
686 0 1 7.297929 12.138180 614.868713
687 0 1 6.972330 11.874170 613.995728
688 0 1 6.638120 11.656780 613.157227
689 0 1 6.223380 11.587910 612.319702
690 0 1 5.813360 11.543270 611.452881
691 0 1 5.625450 11.361450 610.535400
692 0 1 5.472990 11.265160 609.620911
693 0 1 5.336070 11.172330 608.721191
694 0 1 5.167500 11.204360 607.784180
695 0 1 5.411420 11.123190 606.888184
696 0 1 5.759100 10.885560 606.061279
697 0 1 6.119560 10.697150 605.224609
698 0 1 6.377350 10.612340 604.308716
699 0 1 6.165620 10.492770 603.357727
700 0 1 5.984000 10.552950 602.396301
701 0 1 6.004600 10.601730 601.472717
702 0 1 6.116190 10.641911 600.494690
703 0 1 6.253050 10.647760 599.506714
704 0 1 6.256210 10.648560 598.520081
705 0 1 6.129850 10.793290 597.604309
706 0 1 6.164300 10.868310 596.597717
707 0 1 6.180060 10.965260 595.584778
708 0 1 6.322310 10.838160 594.615112
709 0 1 6.440900 10.572190 593.642090
710 0 1 6.557040 10.209740 592.765015
711 0 1 6.614520 10.189970 591.792480
712 0 1 6.753110 9.891520 590.920288
713 0 1 7.117215 9.610910 590.089478
714 0 1 7.335796 9.279150 589.169922
715 0 1 7.592631 8.947278 588.305725
716 0 1 7.850449 8.504111 587.414429
717 0 1 8.009984 8.117719 586.576416
718 0 1 8.136273 7.583911 585.809021
719 0 1 8.352330 7.512512 584.865417
720 0 1 8.396262 7.666777 583.948303
721 0 1 8.723574 7.576889 582.993530
722 0 1 9.146950 7.481418 582.152832
723 0 1 9.373780 7.576652 581.181091
724 0 1 9.633600 7.755731 580.306396
725 0 1 9.755910 7.893216 579.342712
726 0 1 9.717190 7.837385 578.411804
727 0 1 9.637300 7.613266 577.440430
728 0 1 9.594110 7.381149 576.475525
729 0 1 9.622320 7.280188 575.528625
730 0 1 9.629150 7.151834 574.616089
731 0 1 9.779130 7.203083 573.641296
732 0 1 9.879810 7.403775 572.701172
733 0 1 10.175320 7.667496 571.846069
734 0 1 10.074720 7.680217 570.882507
735 0 1 10.155310 7.624243 569.976379
736 0 1 10.579790 7.461276 569.137024
737 0 1 11.061610 7.333758 568.262573
738 0 1 11.611980 7.118069 567.498779
739 0 1 12.248520 6.968860 566.695068
740 0 1 12.565960 6.785270 565.828796
741 0 1 12.766520 6.752670 564.912720
742 0 1 12.972099 6.787190 563.970276
743 0 1 12.993490 6.689260 563.057983
744 0 1 12.735970 6.763300 562.124695
745 0 1 12.407480 6.413950 561.310791
746 0 1 11.989830 6.324500 560.452515
747 0 1 11.480440 6.612480 559.590698
748 0 1 11.076210 6.985280 558.793213
749 0 1 10.751801 7.116338 557.928223
750 0 1 10.450911 7.393754 557.020813
751 0 1 10.261620 7.665917 556.149414
752 0 1 10.226290 7.675127 555.188477
753 0 1 10.186910 7.748252 554.254028
754 0 1 10.138741 7.630638 553.247681
755 0 1 10.067471 7.515615 552.291077
756 0 1 9.978290 7.686354 551.340393
757 0 1 9.935930 7.627686 550.367920
758 0 1 10.103730 7.685894 549.389587
759 0 1 10.250490 7.730025 548.423523
760 0 1 10.412140 7.681522 547.500183
761 0 1 10.551670 7.779450 546.558594
762 0 1 10.753050 7.943792 545.719299
763 0 1 10.922400 8.044556 544.791626
764 0 1 11.288030 7.815916 543.963318
765 0 1 11.713050 7.627381 543.166809
766 0 1 12.081760 7.572796 542.218506
767 0 1 12.448320 7.378421 541.329468
768 0 1 12.651780 7.109348 540.427917
769 0 1 12.632310 7.129886 539.386719
770 0 1 12.575920 7.090643 538.341675
771 0 1 12.350610 6.848220 537.421082
772 0 1 11.918280 6.772370 536.512085
773 0 1 11.280680 6.697290 535.778625
774 0 1 10.710490 6.361320 535.108215
775 0 1 10.058650 5.784210 534.650513
776 0 1 9.361200 5.281720 534.188110
777 0 1 8.633989 4.793390 533.683289
778 0 1 8.024131 4.322060 533.046387
779 0 1 7.537364 3.817130 532.369629
780 0 1 6.957690 3.439470 531.716675
781 0 1 6.263180 3.068930 531.079102
782 0 1 5.768800 2.765500 530.357788
783 0 1 5.332010 2.857230 529.408325
784 0 1 5.066770 3.142550 528.434998
785 0 1 4.708470 3.369460 527.559021
786 0 1 4.532030 3.790030 526.674988
787 0 1 4.390540 4.440210 525.994019
788 0 1 4.132020 5.119550 525.310974
789 0 1 4.016510 5.756990 524.542969