LAMMPS data file via MDAnalysis

        1000  atoms
        1000  bonds
        1000  angles
           0  dihedrals
           0  impropers

           1  atom types
           1  bond types
           1  angle types
           0  dihedral types
           0  improper types

0.000000 16.000000 xlo xhi
0.000000 16.000000 ylo yhi
0.000000 1257.000000 zlo zhi


Masses

1 1.000000

Atoms

1 0 1 5.133040 8.598289 455.184021
2 0 1 5.233230 7.933190 455.817993
3 0 1 4.952730 7.289196 456.539001
4 0 1 5.036080 6.581300 457.184998
5 0 1 4.817740 5.980860 457.864990
6 0 1 4.477460 5.368100 458.536011
7 0 1 4.372920 4.661960 459.186005
8 0 1 4.061660 4.019360 459.848022
9 0 1 3.808180 3.525570 460.593994
10 0 1 3.556570 3.100210 461.385010
11 0 1 3.518950 3.032410 462.330017
12 0 1 3.581390 3.029630 463.268982
13 0 1 3.970280 2.685590 464.062988
14 0 1 4.393110 2.520890 464.953003
15 0 1 4.810780 2.393450 465.804016
16 0 1 5.446340 2.428500 466.625000
17 0 1 6.017420 2.241170 467.382996
18 0 1 6.196150 2.006460 468.294983
19 0 1 6.276590 1.707920 469.213013
20 0 1 6.515640 1.675150 470.158020
21 0 1 6.770890 1.349860 470.973999
22 0 1 7.280603 1.444560 471.815979
23 0 1 7.623035 1.513140 472.671997
24 0 1 8.281813 1.682330 473.359985
25 0 1 8.951256 1.928210 474.000000
26 0 1 9.524230 2.042240 474.716003
27 0 1 9.942970 2.343760 475.528015
28 0 1 10.194440 2.715680 476.444000
29 0 1 10.530700 3.257990 477.177979
30 0 1 10.590170 3.778200 477.971985
31 0 1 10.923570 4.308310 478.734985
32 0 1 11.024200 4.771680 479.539001
33 0 1 11.018520 5.346170 480.333984
34 0 1 11.022390 5.753000 481.166016
35 0 1 10.960720 5.768220 482.102997
36 0 1 11.212870 6.141520 483.014008
37 0 1 11.432490 6.270480 483.916992
38 0 1 11.587420 6.347760 484.904999
39 0 1 11.470320 6.461350 485.873993
40 0 1 11.309350 6.724330 486.832001
41 0 1 11.240860 6.758660 487.862000
42 0 1 11.054100 6.931640 488.812012
43 0 1 11.201830 7.207424 489.710022
44 0 1 10.887780 7.572721 490.520996
45 0 1 10.693501 7.976077 491.398010
46 0 1 10.463010 8.349509 492.239990
47 0 1 10.131830 8.785774 493.119019
48 0 1 9.887600 9.255790 493.911987
49 0 1 9.398040 9.673020 494.653992
50 0 1 8.942486 9.918880 495.468994
51 0 1 8.600237 9.967970 496.304993
52 0 1 8.419810 10.125640 497.213013
53 0 1 8.279898 10.337900 498.153992
54 0 1 7.983134 10.702960 498.992004
55 0 1 8.038660 10.809401 499.929993
56 0 1 8.200918 10.861120 500.941010
57 0 1 8.513646 10.636680 501.773010
58 0 1 8.856167 10.727510 502.688995
59 0 1 9.120710 10.535230 503.553009
60 0 1 9.324690 10.343121 504.473999
61 0 1 9.126080 10.113650 505.433990
62 0 1 8.823771 9.765710 506.334991
63 0 1 8.491212 9.267150 507.023987
64 0 1 7.886072 8.748839 507.627014
65 0 1 7.609893 8.004848 508.127014
66 0 1 7.406368 7.139722 508.463013
67 0 1 6.960200 6.472520 509.007019
68 0 1 6.255140 6.038390 509.515015
69 0 1 5.661710 5.970650 510.385010
70 0 1 5.126100 5.736290 511.109985
71 0 1 4.667620 5.620040 511.906006
72 0 1 4.427580 5.432240 512.859985
73 0 1 4.480300 5.574940 513.791016
74 0 1 4.142540 5.631220 514.736023
75 0 1 3.752440 6.164550 515.492981
76 0 1 3.681820 6.916130 516.208008
77 0 1 3.610610 7.319340 517.067017
78 0 1 3.475620 7.578057 517.963013
79 0 1 3.595490 7.571932 518.911987
80 0 1 3.843750 7.434352 519.825012
81 0 1 4.183440 7.704400 520.700012
82 0 1 4.645450 7.634697 521.552002
83 0 1 5.060130 7.681646 522.461975
84 0 1 5.407700 7.910907 523.304993
85 0 1 5.785810 8.317269 524.060974
86 0 1 6.017810 8.695046 524.895020
87 0 1 6.111870 9.230760 525.643982
88 0 1 6.319760 9.522130 526.510010
89 0 1 6.435380 9.781620 527.424988
90 0 1 6.786210 10.070200 528.304993
91 0 1 7.046310 10.103760 529.298889
92 0 1 7.281636 9.785920 530.173401
93 0 1 7.571217 9.561270 531.049805
94 0 1 7.742901 9.335220 531.919189
95 0 1 8.065982 8.924660 532.738098
96 0 1 8.146949 8.590702 533.640808
97 0 1 8.107342 8.320341 534.549500
98 0 1 7.860662 8.136457 535.494507
99 0 1 7.437035 7.786102 536.254272
100 0 1 7.032317 7.718667 537.100830
101 0 1 6.622030 8.119956 537.884277
102 0 1 6.135880 8.386742 538.708130
103 0 1 5.680320 8.709839 539.546814
104 0 1 5.445790 8.615658 540.458923
105 0 1 5.069530 8.548958 541.373718
106 0 1 5.091340 8.544005 542.296204
107 0 1 4.824360 8.497309 543.162292
108 0 1 4.657520 8.651099 544.076904
109 0 1 4.618180 8.887019 545.048401
110 0 1 4.711680 9.017220 546.058105
111 0 1 4.911400 9.194300 546.971497
112 0 1 5.117160 9.105780 547.927490
113 0 1 5.391720 8.914666 548.786682
114 0 1 5.661990 8.445029 549.656677
115 0 1 6.026510 8.101427 550.461121
116 0 1 6.334560 7.538245 551.202271
117 0 1 6.423460 6.794100 551.912476
118 0 1 6.773350 6.171880 552.526489
119 0 1 7.159541 5.328790 552.866333
120 0 1 7.663288 4.613410 553.130005
121 0 1 8.360013 3.967360 553.540527
122 0 1 8.943586 3.233090 553.840210
123 0 1 9.399690 2.727720 554.549316
124 0 1 9.889050 2.264670 555.264404
125 0 1 10.314460 2.072920 556.093872
126 0 1 10.786660 1.883780 556.987976
127 0 1 11.195160 2.127620 557.891479
128 0 1 11.699750 2.489430 558.648315
129 0 1 11.752740 2.720950 559.560791
130 0 1 11.409470 2.901970 560.457886
131 0 1 11.216870 3.162430 561.386108
132 0 1 10.877490 3.389540 562.299622
133 0 1 10.651500 3.750690 563.154602
134 0 1 10.326050 4.297590 563.847717
135 0 1 9.750000 4.743740 564.411377
136 0 1 9.322470 5.137540 565.177185
137 0 1 8.982417 5.553230 565.974792
138 0 1 8.960447 5.534360 566.911987
139 0 1 8.800751 5.768920 567.831177
140 0 1 8.407394 5.692400 568.692322
141 0 1 7.895899 5.745230 569.493286
142 0 1 7.381868 5.614690 570.318298
143 0 1 6.582100 5.463480 570.795898
144 0 1 5.807250 5.428140 571.473694
145 0 1 5.113540 5.758380 572.023987
146 0 1 4.461940 6.238710 572.480896
147 0 1 3.875490 6.826710 573.008972
148 0 1 3.310510 7.495936 573.499023
149 0 1 3.143610 8.333886 573.835327
150 0 1 2.998350 9.116360 574.401917
151 0 1 3.320330 9.859990 574.967529
152 0 1 3.917890 10.523750 575.500732
153 0 1 4.594060 10.866261 576.071228
154 0 1 5.346000 11.376101 576.395508
155 0 1 6.131350 11.728080 576.791870
156 0 1 6.766120 12.282690 577.294373
157 0 1 7.328193 12.842910 577.891602
158 0 1 7.738735 13.360780 578.683594
159 0 1 8.266929 13.570499 579.464294
160 0 1 8.548363 13.534770 580.372803
161 0 1 8.624196 13.684780 581.319885
162 0 1 8.626175 13.626230 582.269409
163 0 1 8.737210 13.464350 583.225586
164 0 1 8.776212 13.437910 584.217407
165 0 1 8.819518 13.380810 585.221375
166 0 1 8.989371 13.170450 586.125610
167 0 1 8.994956 12.847490 587.002991
168 0 1 8.984551 12.559200 587.869080
169 0 1 8.806200 12.331930 588.787292
170 0 1 8.297480 11.899260 589.614319
171 0 1 7.727453 11.717970 590.357300
172 0 1 7.574086 11.223550 591.171021
173 0 1 7.473275 10.981490 592.098206
174 0 1 7.330090 10.690210 592.984497
175 0 1 7.250835 10.206570 593.861816
176 0 1 7.226656 9.647220 594.651978
177 0 1 7.209183 8.864510 595.219604
178 0 1 7.091576 8.108627 595.726685
179 0 1 7.048102 7.411058 596.395020
180 0 1 7.229578 6.566010 596.990112
181 0 1 7.490672 6.136000 597.772827
182 0 1 7.776939 5.895210 598.670776
183 0 1 7.899109 5.638190 599.550415
184 0 1 8.122466 5.622050 600.475830
185 0 1 8.209813 5.541870 601.487122
186 0 1 8.263007 5.628430 602.395081
187 0 1 8.351367 5.659850 603.388184
188 0 1 8.237330 5.804790 604.376587
189 0 1 8.144145 6.031140 605.288818
190 0 1 7.905486 6.270770 606.153320
191 0 1 7.911944 6.513060 607.044006
192 0 1 7.620596 6.313640 607.943604
193 0 1 7.193901 6.014750 608.744873
194 0 1 7.136870 5.835270 609.667725
195 0 1 7.077819 5.686610 610.640625
196 0 1 6.894790 5.813300 611.593506
197 0 1 6.656640 6.076010 612.476318
198 0 1 6.286530 6.572130 613.208984
199 0 1 5.937200 7.065954 613.975891
200 0 1 5.927150 7.688754 614.706787
201 0 1 5.883250 8.115718 615.533508
202 0 1 5.635220 8.289520 616.438782
203 0 1 5.434990 8.483112 617.364319
204 0 1 5.540930 8.623238 618.315979
205 0 1 5.724360 8.662014 619.330078
206 0 1 5.436760 8.707804 620.241699
207 0 1 5.102510 8.393262 621.083801
208 0 1 4.859070 8.268887 621.982300
209 0 1 4.878340 7.977107 622.929199
210 0 1 4.897030 7.666908 623.823608
211 0 1 5.055900 7.537885 624.756531
212 0 1 5.289530 7.448266 625.721863
213 0 1 5.363290 7.270728 626.687866
214 0 1 5.393110 7.233998 627.565735
215 0 1 5.517410 7.265243 628.515076
216 0 1 5.989950 7.263143 629.419617
217 0 1 6.103040 7.450573 630.369141
218 0 1 6.419350 7.743455 631.226257
219 0 1 6.600130 7.986323 632.107849
220 0 1 6.831090 8.296823 633.002014
221 0 1 6.980020 8.453413 633.998474
222 0 1 7.209915 8.939070 634.852722
223 0 1 7.393439 9.212310 635.748718
224 0 1 7.510270 9.494280 636.713623
225 0 1 7.996658 9.753050 637.572937
226 0 1 8.068752 9.796721 638.559509
227 0 1 7.968547 9.816990 639.560120
228 0 1 7.715053 9.496610 640.394470
229 0 1 7.786139 9.406030 641.343628
230 0 1 7.963378 9.383500 642.291199
231 0 1 8.198396 9.420670 643.253906
232 0 1 8.296288 9.548990 644.193420
233 0 1 8.303011 9.699200 645.120972
234 0 1 8.152662 9.735000 646.049377
235 0 1 8.354175 9.691930 646.990479
236 0 1 8.439697 9.464670 647.898315
237 0 1 8.693721 9.143960 648.770386
238 0 1 8.871306 9.331040 649.774414
239 0 1 9.186610 9.513160 650.662476
240 0 1 9.627150 9.805530 651.475525
241 0 1 9.840390 10.059420 652.428772
242 0 1 9.865829 10.118510 653.319214
243 0 1 10.042780 9.988660 654.243713
244 0 1 10.203930 9.738760 655.104187
245 0 1 10.461130 9.540790 655.984802
246 0 1 10.832030 9.261320 656.859192
247 0 1 11.035480 8.544636 657.520874
248 0 1 11.328430 7.896027 658.123779
249 0 1 11.464860 7.453461 658.945801
250 0 1 11.824890 7.054449 659.773499
251 0 1 12.006980 6.729830 660.673584
252 0 1 11.878270 6.785310 661.661499
253 0 1 12.162120 6.939460 662.531006
254 0 1 12.305799 7.043509 663.581787
255 0 1 12.316200 7.002192 664.525085
256 0 1 12.304340 6.896060 665.520996
257 0 1 12.351290 6.933610 666.448975
258 0 1 12.470250 6.688320 667.397400
259 0 1 12.384040 6.545460 668.334900
260 0 1 12.478540 6.553760 669.328369
261 0 1 12.926411 6.679010 670.140076
262 0 1 13.342300 6.780330 671.027283
263 0 1 13.723880 6.885580 671.968811
264 0 1 13.891100 6.930310 672.914185
265 0 1 13.827980 7.080122 673.846802
266 0 1 13.696711 7.120408 674.820190
267 0 1 13.353650 7.282697 675.728088
268 0 1 13.113780 7.437951 676.689209
269 0 1 12.896920 7.420736 677.591187
270 0 1 12.511030 7.444494 678.539124
271 0 1 12.274740 7.390339 679.481995
272 0 1 11.824160 7.118802 680.260498
273 0 1 11.617760 6.872920 681.112305
274 0 1 11.468730 6.617630 682.059082
275 0 1 11.298310 6.409400 682.939575
276 0 1 11.147120 6.292200 683.911316
277 0 1 10.832180 6.387140 684.832092
278 0 1 10.521700 6.642110 685.668518
279 0 1 10.215000 6.506410 686.607788
280 0 1 9.727970 6.624900 687.388184
281 0 1 8.961911 6.580580 687.941589
282 0 1 8.304360 6.904170 688.551208
283 0 1 7.897498 7.536331 689.185974
284 0 1 7.399820 7.901945 690.027527
285 0 1 7.072381 8.213632 690.882690
286 0 1 6.731660 8.548247 691.744629
287 0 1 6.406490 8.626293 692.734375
288 0 1 6.089250 8.629913 693.690491
289 0 1 5.633240 8.603061 694.652588
290 0 1 5.064490 8.664929 695.459290
291 0 1 4.618100 9.003050 696.326294
292 0 1 4.258920 9.145150 697.168701
293 0 1 4.235950 9.175470 698.103210
294 0 1 4.499350 8.902361 699.069580
295 0 1 4.920710 8.576855 699.946716
296 0 1 5.505390 8.705857 700.726685
297 0 1 6.041500 8.736072 701.585388
298 0 1 6.706360 8.777514 702.275391
299 0 1 7.218378 8.750771 703.089294
300 0 1 7.799434 8.691460 703.896606
301 0 1 8.182068 8.469706 704.791382
302 0 1 8.449532 7.818146 705.494202
303 0 1 8.671487 7.235402 706.203979
304 0 1 8.639908 6.668320 707.022095
305 0 1 8.492965 6.091680 707.708984
306 0 1 8.465102 5.461400 708.474304
307 0 1 8.811257 5.224220 709.369873
308 0 1 8.960953 4.740810 710.185120
309 0 1 9.045990 4.333900 711.064087
310 0 1 8.890102 3.929030 712.014893
311 0 1 8.875172 3.973900 712.937988
312 0 1 8.856713 3.993190 713.970398
313 0 1 9.028720 4.114120 714.932922
314 0 1 9.303960 4.439320 715.773315
315 0 1 9.807400 4.710110 716.566711
316 0 1 10.161530 5.036430 717.402893
317 0 1 10.379030 5.476740 718.279785
318 0 1 10.210790 6.091970 718.985779
319 0 1 9.938120 6.563220 719.700989
320 0 1 9.784670 7.184732 720.459473
321 0 1 9.528770 7.809586 721.148071
322 0 1 9.255450 8.207900 721.988586
323 0 1 9.154650 8.026380 722.978088
324 0 1 9.249120 8.101320 723.901306
325 0 1 9.350880 8.465923 724.865479
326 0 1 9.239930 8.813805 725.786499
327 0 1 9.357660 8.949030 726.746216
328 0 1 9.654070 8.988914 727.636780
329 0 1 9.709490 8.912892 728.614014
330 0 1 9.752530 8.860012 729.554016
331 0 1 9.717410 8.898101 730.556030
332 0 1 9.431860 9.013160 731.460999
333 0 1 9.221660 8.997066 732.367981
334 0 1 8.985839 9.343440 733.367004
335 0 1 8.617529 9.722020 734.146973
336 0 1 8.676045 10.290500 734.867004
337 0 1 8.898156 10.667770 735.689026
338 0 1 9.265940 11.112300 736.458984
339 0 1 9.889200 11.389380 737.192017
340 0 1 10.336610 11.590250 737.964966
341 0 1 10.547359 11.850990 738.865967
342 0 1 10.524960 11.858010 739.807007
343 0 1 10.659630 11.801229 740.733032
344 0 1 10.545710 11.503190 741.650024
345 0 1 10.473170 11.106800 742.466980
346 0 1 10.124120 10.668190 743.263977
347 0 1 9.926280 10.157440 744.064026
348 0 1 9.800650 9.726260 744.869019
349 0 1 9.982740 9.342770 745.783020
350 0 1 10.016180 8.785839 746.578979
351 0 1 10.009100 8.392920 747.424011
352 0 1 10.217130 8.088173 748.380005
353 0 1 10.417800 7.709681 749.307007
354 0 1 10.782160 7.477736 750.205994
355 0 1 11.080610 7.222836 751.060974
356 0 1 11.141470 7.187192 752.052979
357 0 1 11.078420 6.914060 752.992981
358 0 1 11.136940 6.675450 753.966980
359 0 1 11.340010 6.479130 754.872986
360 0 1 11.614600 6.452420 755.797974
361 0 1 11.923840 6.189080 756.669006
362 0 1 12.464570 5.829760 757.443970
363 0 1 12.379360 5.680050 758.364990
364 0 1 11.900560 5.406350 759.174988
365 0 1 11.303690 5.502060 759.837036
366 0 1 10.653300 5.688260 760.497986
367 0 1 10.017839 5.938970 761.146973
368 0 1 9.467480 6.445360 761.713013
369 0 1 9.146640 6.771430 762.587036
370 0 1 8.873076 6.990830 763.473999
371 0 1 8.558499 7.350336 764.322998
372 0 1 8.309640 7.596804 765.239990
373 0 1 7.877779 8.081590 765.932983
374 0 1 7.284826 8.460311 766.578979
375 0 1 6.961070 8.576570 767.476013
376 0 1 6.529470 8.803617 768.306030
377 0 1 6.328000 8.966576 769.276001
378 0 1 6.565170 9.155090 770.172974
379 0 1 6.736510 9.618740 770.978027
380 0 1 7.153550 10.077590 771.764038
381 0 1 7.705108 10.456350 772.364014
382 0 1 8.089874 11.103690 772.995972
383 0 1 8.157985 11.864590 773.589966
384 0 1 8.310538 12.229110 774.536987
385 0 1 8.449829 12.521090 775.440002
386 0 1 8.495156 12.656680 776.358032
387 0 1 8.673981 12.649130 777.261963
388 0 1 8.669778 12.782370 778.257996
389 0 1 8.471855 13.285920 779.078003
390 0 1 8.600304 13.820400 779.849976
391 0 1 8.999084 14.013010 780.713989
392 0 1 9.209260 14.068140 781.645996
393 0 1 9.574390 14.191730 782.585022
394 0 1 10.044680 14.285160 783.401978
395 0 1 10.497010 14.226430 784.261963
396 0 1 10.764580 14.028130 785.216003
397 0 1 11.128700 13.641010 786.062988
398 0 1 11.416380 13.063620 786.801025
399 0 1 11.735450 12.635530 787.630005
400 0 1 11.848300 12.017930 788.385986
401 0 1 11.902081 11.426770 789.195984
402 0 1 11.860850 10.941240 790.078979
403 0 1 11.593050 10.205890 790.643982
404 0 1 11.471840 9.465180 791.306030
405 0 1 11.292500 8.816757 792.039001
406 0 1 11.124310 8.161834 792.765991
407 0 1 11.274560 7.512566 793.396973
408 0 1 11.319180 6.987800 794.203979
409 0 1 11.557110 6.638280 795.130981
410 0 1 11.327130 6.436430 796.070984
411 0 1 11.112070 6.364620 797.007996
412 0 1 11.072380 6.332730 797.981018
413 0 1 11.076460 6.573760 798.968994
414 0 1 11.150720 6.495210 799.916992
415 0 1 11.341690 6.282590 800.807983
416 0 1 11.693940 5.914910 801.655029
417 0 1 11.901350 6.128150 802.585022
418 0 1 12.127680 6.458360 803.414001
419 0 1 12.531080 6.727960 804.268005
420 0 1 12.710780 7.273347 805.059021
421 0 1 12.816510 7.901078 805.786011
422 0 1 12.926340 8.609926 806.489014
423 0 1 13.104210 9.403320 807.113037
424 0 1 12.967730 9.985550 807.863037
425 0 1 12.710620 10.247160 808.749023
426 0 1 12.757010 10.325830 809.702026
427 0 1 12.705880 10.605600 810.635986
428 0 1 12.581350 10.605750 811.629028
429 0 1 12.483080 10.426460 812.585999
430 0 1 12.542740 10.395940 813.544006
431 0 1 12.425870 10.322320 814.489014
432 0 1 12.413450 10.239780 815.432983
433 0 1 12.651649 9.902050 816.312012
434 0 1 12.742910 9.735600 817.252014
435 0 1 12.895420 9.733750 818.200012
436 0 1 12.740240 9.615400 819.239014
437 0 1 12.555810 9.544980 820.151001
438 0 1 12.659400 9.705610 821.119019
439 0 1 12.868771 9.826240 822.020020
440 0 1 13.115829 9.939850 822.938965
441 0 1 12.691470 10.331100 823.780029
442 0 1 12.223610 10.483550 824.578979
443 0 1 11.760020 10.997690 825.270020
444 0 1 11.528390 11.388940 826.065002
445 0 1 11.296989 11.775510 826.921021
446 0 1 11.308331 12.134570 827.846008
447 0 1 11.602020 12.368930 828.757996
448 0 1 11.833810 12.194160 829.697998
449 0 1 11.933060 12.393780 830.632996
450 0 1 11.836930 12.765380 831.572998
451 0 1 11.968610 12.820880 832.537964
452 0 1 11.938020 12.744410 833.447021
453 0 1 11.634970 12.766029 834.414978
454 0 1 11.180620 12.756500 835.223022
455 0 1 10.560130 12.433519 835.859009
456 0 1 9.942730 11.869140 836.464966
457 0 1 9.299380 11.313570 836.989990
458 0 1 8.685355 10.585000 837.113037
459 0 1 8.136573 9.805799 837.088013
460 0 1 8.009834 8.875744 836.958008
461 0 1 7.658046 8.052319 836.578003
462 0 1 7.742426 7.240565 836.057983
463 0 1 7.641812 6.317760 835.739014
464 0 1 7.558999 5.614550 835.094971
465 0 1 7.269682 5.045980 834.410034
466 0 1 6.966890 4.498080 833.585999
467 0 1 6.887310 3.955100 832.747009
468 0 1 6.745460 3.332340 831.963989
469 0 1 6.734890 2.439970 831.539978
470 0 1 6.509270 1.719350 830.919983
471 0 1 6.206380 1.400010 830.030029
472 0 1 6.061000 1.405640 829.099976
473 0 1 6.093920 1.646020 828.119995
474 0 1 6.416890 1.878890 827.197021
475 0 1 6.898980 2.125220 826.299011
476 0 1 7.132075 2.140000 825.372009
477 0 1 7.206479 2.543600 824.528992
478 0 1 7.310775 3.063920 823.791016
479 0 1 7.707572 3.690180 823.181030
480 0 1 7.846790 4.425610 822.575989
481 0 1 8.145191 5.036970 821.838013
482 0 1 8.432957 5.291970 820.932007
483 0 1 8.792253 5.285690 819.997009
484 0 1 9.123670 5.204300 819.080994
485 0 1 9.395710 5.014920 818.160034
486 0 1 9.606240 4.884250 817.198975
487 0 1 9.963200 4.488220 816.374023
488 0 1 10.363010 4.463430 815.497009
489 0 1 10.268150 4.485720 814.539978
490 0 1 10.056990 4.561920 813.528015
491 0 1 9.829310 4.615380 812.632996
492 0 1 9.893470 4.929020 811.710999
493 0 1 10.040390 5.364250 810.843018
494 0 1 10.157780 5.640830 809.916992
495 0 1 10.444380 6.122930 809.082031
496 0 1 10.607280 6.262930 808.161987
497 0 1 10.534940 6.065520 807.255005
498 0 1 10.585740 5.780540 806.372986
499 0 1 10.367120 5.385900 805.500977
500 0 1 10.277770 5.029030 804.587036
501 0 1 10.049530 5.134500 803.643982
502 0 1 9.717070 5.063980 802.797974
503 0 1 9.268690 4.921290 801.940979
504 0 1 8.833269 4.796070 800.974976
505 0 1 8.282748 4.896490 800.244995
506 0 1 7.991222 5.206530 799.346008
507 0 1 7.789022 5.523520 798.515991
508 0 1 7.773194 6.053180 797.641968
509 0 1 7.968781 6.444630 796.735962
510 0 1 8.076077 6.832960 795.802002
511 0 1 8.060023 7.344775 794.942993
512 0 1 8.057471 7.605795 794.026978
513 0 1 7.999009 7.780440 793.083984
514 0 1 8.006548 7.896453 792.089966
515 0 1 8.156851 7.680896 791.176025
516 0 1 8.109908 7.805190 790.203003
517 0 1 7.936814 8.149594 789.346985
518 0 1 8.007936 8.335250 788.401978
519 0 1 7.998532 8.638259 787.500000
520 0 1 8.047671 8.826655 786.588989
521 0 1 8.271139 8.822579 785.679016
522 0 1 8.719715 8.652692 784.791992
523 0 1 8.833538 8.176809 783.901978
524 0 1 8.664162 7.625841 783.075989
525 0 1 8.563916 6.870770 782.390991
526 0 1 8.135540 6.190710 781.854004
527 0 1 7.884412 5.533650 781.182007
528 0 1 7.851022 4.738450 780.648010
529 0 1 7.888743 4.042560 780.031982
530 0 1 8.139369 3.537540 779.224976
531 0 1 8.330574 3.029280 778.427979
532 0 1 8.681345 2.758330 777.516968
533 0 1 8.896056 2.835350 776.583984
534 0 1 9.297110 3.074970 775.733032
535 0 1 9.487560 3.278220 774.812012
536 0 1 9.844170 3.795600 774.054993
537 0 1 10.150100 4.331300 773.317017
538 0 1 10.424730 4.938700 772.570007
539 0 1 10.585360 5.447570 771.797974
540 0 1 10.741590 5.956850 770.903015
541 0 1 10.999640 6.514550 770.132019
542 0 1 11.206130 6.676000 769.213013
543 0 1 11.535891 6.830550 768.317993
544 0 1 11.851700 7.033504 767.335999
545 0 1 11.863400 7.268176 766.463989
546 0 1 12.181940 7.565936 765.514038
547 0 1 12.781930 7.813683 764.835022
548 0 1 13.053300 8.275364 764.009033
549 0 1 12.859859 8.660823 763.184998
550 0 1 12.687950 8.830602 762.250977
551 0 1 12.599700 9.121130 761.338989
552 0 1 12.546220 9.462910 760.411987
553 0 1 12.621059 10.240710 759.754028
554 0 1 12.516600 10.855610 759.031982
555 0 1 12.476470 11.621490 758.455017
556 0 1 12.302380 12.323111 757.859009
557 0 1 11.991620 12.559210 756.976013
558 0 1 11.693110 12.708310 756.119019
559 0 1 11.081640 12.965799 755.453003
560 0 1 10.543710 13.254681 754.765015
561 0 1 9.916920 13.204599 754.038025
562 0 1 9.097260 13.154800 753.614990
563 0 1 8.461497 13.202721 752.825012
564 0 1 8.129827 12.855511 751.979004
565 0 1 7.872787 12.399549 751.213013
566 0 1 7.573664 11.729321 750.448975
567 0 1 7.551541 11.371901 749.586975
568 0 1 7.678880 10.813680 748.726990
569 0 1 7.833629 9.997660 748.221985
570 0 1 8.094291 9.273240 747.638000
571 0 1 8.410188 8.666327 746.867981
572 0 1 8.685078 8.417652 745.958008
573 0 1 8.556287 8.163576 745.013977
574 0 1 8.655272 8.179411 744.080017
575 0 1 8.776959 8.144088 743.125977
576 0 1 8.721247 8.147112 742.158997
577 0 1 8.741780 8.442713 741.197998
578 0 1 8.564498 8.785489 740.309021
579 0 1 8.264429 9.076720 739.431030
580 0 1 8.042005 9.284470 738.578003
581 0 1 7.674740 9.208470 737.707031
582 0 1 7.547415 9.213000 736.794983
583 0 1 7.074866 9.383390 736.042969
584 0 1 6.617360 9.490700 735.163025
585 0 1 6.532740 9.939600 734.351990
586 0 1 6.320070 10.353930 733.531982
587 0 1 6.392210 10.660560 732.583008
588 0 1 6.448940 10.854060 731.651001
589 0 1 6.414200 11.053910 730.667969
590 0 1 6.297120 11.033540 729.744995
591 0 1 6.390980 10.846180 728.796997
592 0 1 6.372140 11.010650 727.824097
593 0 1 6.648070 10.770440 726.935791
594 0 1 7.292741 10.594660 726.251709
595 0 1 7.666893 10.495399 725.330688
596 0 1 8.140111 10.334240 724.491577
597 0 1 8.403959 10.114580 723.589966
598 0 1 8.500638 9.986810 722.612183
599 0 1 8.617627 9.781120 721.664307
600 0 1 8.705503 9.726640 720.684814
601 0 1 8.893158 9.674450 719.784119
602 0 1 8.934515 9.590470 718.757874
603 0 1 9.068850 9.749080 717.836914
604 0 1 9.175591 9.934770 716.858704
605 0 1 8.895803 10.238520 716.015015
606 0 1 8.611268 10.357830 715.123413
607 0 1 8.034079 10.426390 714.310974
608 0 1 7.551659 10.620650 713.498169
609 0 1 6.963430 10.883340 712.782227
610 0 1 6.387090 10.968240 711.999878
611 0 1 5.977920 10.907351 711.176270
612 0 1 5.704910 10.772960 710.254578
613 0 1 5.549540 10.869250 709.381409
614 0 1 5.162170 10.943200 708.495728
615 0 1 5.017190 11.019200 707.506470
616 0 1 4.914040 10.901979 706.563904
617 0 1 4.878310 10.773690 705.613708
618 0 1 4.912700 10.550570 704.678833
619 0 1 4.965490 10.608910 703.700806
620 0 1 5.057650 10.763620 702.776123
621 0 1 5.101950 10.625540 701.801392
622 0 1 4.832400 10.853470 700.806396
623 0 1 4.621900 11.081920 699.897522
624 0 1 4.061850 10.985260 699.110901
625 0 1 3.485800 10.935280 698.320374
626 0 1 3.135760 10.636350 697.510681
627 0 1 2.703570 10.276381 696.752991
628 0 1 2.409440 9.810020 695.844421
629 0 1 2.301940 9.224900 695.114990
630 0 1 2.390120 8.787031 694.294312
631 0 1 2.611670 8.488183 693.376831
632 0 1 2.984600 8.072889 692.538574
633 0 1 3.468900 7.731165 691.747986
634 0 1 3.812000 7.218131 691.003296
635 0 1 4.436460 6.907830 690.367004
636 0 1 4.890830 6.669110 689.515991
637 0 1 5.328060 6.523980 688.713318
638 0 1 5.723270 6.450410 687.851685
639 0 1 6.134690 6.283830 686.891968
640 0 1 6.345930 6.054600 685.955811
641 0 1 6.848950 6.108450 685.138611
642 0 1 7.045683 6.111490 684.205811
643 0 1 6.864280 6.288630 683.276672
644 0 1 6.853840 6.365240 682.303894
645 0 1 6.780660 6.164230 681.360229
646 0 1 6.785720 6.151840 680.380127
647 0 1 6.732770 6.192320 679.451904
648 0 1 6.476640 6.390180 678.607910
649 0 1 6.242480 6.513230 677.640869
650 0 1 6.147370 6.522690 676.617615
651 0 1 6.038100 6.516770 675.713623
652 0 1 6.057250 6.663160 674.699219
653 0 1 6.349990 6.873130 673.835876
654 0 1 6.710120 7.192533 672.942322
655 0 1 6.749150 7.414203 672.002625
656 0 1 6.601960 7.808199 671.142090
657 0 1 6.515920 8.516135 670.511780
658 0 1 6.516140 9.182330 669.840393
659 0 1 6.373980 9.670990 668.999023
660 0 1 6.307280 9.789400 667.997375
661 0 1 6.500430 9.515460 667.107788
662 0 1 6.593530 9.137210 666.218811
663 0 1 6.527630 8.720821 665.359619
664 0 1 6.519880 8.162925 664.564514
665 0 1 6.335190 7.642248 663.720093
666 0 1 6.419000 7.228860 662.898193
667 0 1 6.913230 6.890640 662.081177
668 0 1 7.366931 6.707790 661.300415
669 0 1 7.500482 6.176310 660.451111
670 0 1 7.559732 6.171330 659.480225
671 0 1 7.591434 6.204000 658.555420
672 0 1 7.523872 6.478080 657.604614
673 0 1 7.677466 6.867260 656.725220
674 0 1 7.928343 7.419974 655.984985
675 0 1 8.188585 7.843631 655.146423
676 0 1 8.473962 8.428306 654.388611
677 0 1 8.639543 9.040090 653.640869
678 0 1 8.537690 9.396880 652.734192
679 0 1 8.388389 9.793830 651.866699
680 0 1 8.342318 10.302610 651.068726
681 0 1 8.017289 10.774000 650.326721
682 0 1 7.849750 11.159970 649.420593
683 0 1 7.624321 11.594010 648.553589
684 0 1 7.233338 11.788230 647.705505
685 0 1 6.749730 11.571350 646.779602
686 0 1 6.300060 11.453100 645.899292
687 0 1 6.282230 11.562910 645.003296
688 0 1 6.015850 11.733540 644.153625
689 0 1 5.812460 11.729400 643.152283
690 0 1 5.200150 11.742830 642.405823
691 0 1 4.855420 11.842310 641.534302
692 0 1 4.556660 11.995510 640.648499
693 0 1 4.224360 12.268960 639.748474
694 0 1 3.949160 12.533030 638.844482
695 0 1 4.180580 12.975320 638.021973
696 0 1 4.370540 13.418961 637.183411
697 0 1 4.527420 13.656150 636.280823
698 0 1 4.835990 13.814250 635.384521
699 0 1 5.284860 14.080740 634.579590
700 0 1 5.694830 14.345940 633.794800
701 0 1 6.278000 14.673040 633.085571
702 0 1 7.087028 14.544840 632.727356
703 0 1 7.954853 14.683620 632.416260
704 0 1 8.817830 14.689280 631.913147
705 0 1 9.631240 14.658490 631.361816
706 0 1 9.943210 14.234819 630.577759
707 0 1 10.229640 13.847830 629.804443
708 0 1 10.597370 13.531691 628.919983
709 0 1 10.633141 13.458930 627.935181
710 0 1 10.697830 13.228490 627.061523
711 0 1 10.855840 12.952300 626.117859
712 0 1 10.966170 12.646360 625.138428
713 0 1 11.011590 12.346260 624.242065
714 0 1 10.982640 11.828020 623.355408
715 0 1 11.055210 11.358920 622.508240
716 0 1 10.993090 10.906930 621.663330
717 0 1 11.112340 10.851510 620.716553
718 0 1 11.520580 11.054650 619.870850
719 0 1 11.985110 11.353110 618.922791
720 0 1 12.115931 11.336740 618.015503
721 0 1 12.063800 11.362240 617.084717
722 0 1 12.137320 11.488340 616.122681
723 0 1 12.262720 11.681499 615.187988
724 0 1 12.189130 11.865320 614.210205
725 0 1 12.099180 11.890720 613.227173
726 0 1 11.578190 12.000370 612.344604
727 0 1 10.765490 12.175090 611.870605
728 0 1 9.892120 12.279280 611.572205
729 0 1 9.096870 12.708350 611.122681
730 0 1 8.455551 13.250640 610.570496
731 0 1 7.910756 13.671909 609.906921
732 0 1 7.700397 14.140980 609.084595
733 0 1 7.397401 14.358910 608.164917
734 0 1 6.997570 14.574591 607.260925
735 0 1 6.701610 14.586330 606.327087
736 0 1 6.332250 14.649281 605.440002
737 0 1 5.785900 14.414520 604.687805
738 0 1 5.332510 14.247770 603.831116
739 0 1 4.941680 13.950930 603.038330
740 0 1 4.498260 13.477400 602.293518
741 0 1 4.314360 12.789600 601.693176
742 0 1 4.079410 12.107690 601.079407
743 0 1 3.948070 11.511830 600.364075
744 0 1 3.728640 10.817960 599.671021
745 0 1 3.502190 10.191700 598.968018
746 0 1 3.439790 9.759430 598.087524
747 0 1 3.383260 9.572570 597.098206
748 0 1 3.336920 9.647200 596.156189
749 0 1 3.622030 9.836460 595.223083
750 0 1 4.011750 10.238430 594.430420
751 0 1 4.249170 10.573930 593.517700
752 0 1 4.697400 11.129290 592.909790
753 0 1 5.152580 11.685070 592.237427
754 0 1 5.643970 11.890530 591.465332
755 0 1 6.237660 12.009490 590.695618
756 0 1 6.473990 12.103439 589.723694
757 0 1 6.795250 12.363359 588.837280
758 0 1 7.188248 12.415780 587.922607
759 0 1 7.522715 12.175970 587.061768
760 0 1 7.917613 11.784970 586.306580
761 0 1 8.213154 11.298850 585.507019
762 0 1 8.249991 10.652920 584.687195
763 0 1 8.224652 10.006860 583.936890
764 0 1 7.946308 9.363810 583.328491
765 0 1 7.754721 8.818169 582.554199
766 0 1 7.609291 8.091402 581.958984
767 0 1 7.536743 7.616822 581.120483
768 0 1 7.305411 7.019933 580.404602
769 0 1 7.168941 6.534180 579.615417
770 0 1 6.934290 6.316200 578.691895
771 0 1 6.418360 5.784440 578.155884
772 0 1 5.866840 5.347100 577.482727
773 0 1 5.622850 5.161190 576.554993
774 0 1 5.392770 4.985960 575.651001
775 0 1 5.168320 4.655120 574.736877
776 0 1 4.941490 4.421600 573.871704
777 0 1 4.769380 3.871020 573.068176
778 0 1 4.562890 3.547980 572.264221
779 0 1 4.768240 3.415460 571.242676
780 0 1 5.001400 3.578120 570.267273
781 0 1 4.983330 3.829060 569.313416
782 0 1 4.995570 4.142710 568.356323
783 0 1 5.027980 4.501680 567.454773
784 0 1 5.044320 5.101780 566.744690
785 0 1 4.910490 5.712580 566.025208
786 0 1 4.920180 6.365780 565.296997
787 0 1 4.841430 6.790540 564.438599
788 0 1 4.816460 7.001715 563.510803
789 0 1 4.888860 7.265755 562.599304
790 0 1 4.651940 7.155808 561.661621
791 0 1 4.356880 6.899000 560.795532