LAMMPS data file via MDAnalysis

        1000  atoms
        1000  bonds
        1000  angles
           0  dihedrals
           0  impropers

           1  atom types
           1  bond types
           1  angle types
           0  dihedral types
           0  improper types

0.000000 16.000000 xlo xhi
0.000000 16.000000 ylo yhi
0.000000 1257.000000 zlo zhi


Masses

1 1.000000

Atoms

1 0 1 8.852235 2.936300 438.117004
2 0 1 8.695897 3.217460 438.976013
3 0 1 8.467071 3.334070 439.903015
4 0 1 8.247749 3.218420 440.826996
5 0 1 7.974124 3.296990 441.789001
6 0 1 7.838107 3.699730 442.666992
7 0 1 7.543602 3.833850 443.701996
8 0 1 7.150891 3.771690 444.664978
9 0 1 6.719540 3.413680 445.496002
10 0 1 6.202700 3.310020 446.229980
11 0 1 5.682950 3.256510 447.101013
12 0 1 5.342950 3.185320 448.005005
13 0 1 5.015840 3.211800 448.984009
14 0 1 4.805940 2.827810 449.820984
15 0 1 4.765810 2.581790 450.712006
16 0 1 4.777960 2.449840 451.697021
17 0 1 5.000660 2.300500 452.595001
18 0 1 5.130170 2.221330 453.557007
19 0 1 5.333020 1.946550 454.412994
20 0 1 5.683640 2.037290 455.279999
21 0 1 5.988200 2.357960 456.187988
22 0 1 6.511990 2.769260 456.885986
23 0 1 7.092066 3.140650 457.559998
24 0 1 7.822545 3.277900 458.201996
25 0 1 8.475123 3.635560 458.942017
26 0 1 8.857550 4.149320 459.645996
27 0 1 9.141100 4.632460 460.408997
28 0 1 9.529540 5.100530 461.149994
29 0 1 9.738500 5.614430 461.955994
30 0 1 9.864770 5.879280 462.871002
31 0 1 10.064120 6.072310 463.792999
32 0 1 10.327610 6.436340 464.658997
33 0 1 10.480740 6.676670 465.589996
34 0 1 10.646550 6.497490 466.523010
35 0 1 10.853750 6.601950 467.429016
36 0 1 11.208839 6.741520 468.332001
37 0 1 11.631010 6.752060 469.242004
38 0 1 11.836760 6.462480 470.093994
39 0 1 12.200860 6.140020 471.016998
40 0 1 12.177790 5.775450 471.858002
41 0 1 12.280149 5.440330 472.739014
42 0 1 12.564020 5.120790 473.583008
43 0 1 12.724700 4.771570 474.481995
44 0 1 12.847651 4.620470 475.403015
45 0 1 12.882380 4.702200 476.351990
46 0 1 12.855209 4.755470 477.291016
47 0 1 12.638830 4.750780 478.213989
48 0 1 12.209450 4.829970 479.083008
49 0 1 12.406549 4.742310 479.989014
50 0 1 12.348249 4.646140 480.919006
51 0 1 11.933599 4.653840 481.785004
52 0 1 11.510150 4.944120 482.609009
53 0 1 11.228110 5.365140 483.453003
54 0 1 10.793520 5.457420 484.309021
55 0 1 10.254829 5.421490 485.049988
56 0 1 9.819580 5.380860 485.934021
57 0 1 9.386490 5.370930 486.904999
58 0 1 9.203140 5.554330 487.815002
59 0 1 8.875572 5.498050 488.661011
60 0 1 8.503215 5.466820 489.537994
61 0 1 8.078133 5.422000 490.408020
62 0 1 7.445029 5.349680 491.132019
63 0 1 7.135721 5.346560 492.088989
64 0 1 7.201184 5.348140 493.119995
65 0 1 7.203059 5.047070 494.007996
66 0 1 7.236390 4.902470 494.992981
67 0 1 7.352363 4.930870 495.937988
68 0 1 7.086773 4.908760 496.921997
69 0 1 7.140861 4.653570 497.864990
70 0 1 7.413870 4.531220 498.802979
71 0 1 7.514594 4.473560 499.806000
72 0 1 7.807661 4.320510 500.712006
73 0 1 7.927588 4.353520 501.694000
74 0 1 7.806172 4.132000 502.692993
75 0 1 7.805617 4.158290 503.696991
76 0 1 7.691961 3.945280 504.606995
77 0 1 7.622018 3.705010 505.500000
78 0 1 7.654219 3.427320 506.481995
79 0 1 7.459842 3.182430 507.427002
80 0 1 7.313670 2.989310 508.414001
81 0 1 6.858300 2.786330 509.274994
82 0 1 6.662080 2.637470 510.153992
83 0 1 6.401090 2.637810 511.042999
84 0 1 6.010350 3.164150 511.757019
85 0 1 6.067980 3.672310 512.643005
86 0 1 6.315020 3.987690 513.562988
87 0 1 6.577570 4.351620 514.377991
88 0 1 6.730190 4.916860 515.161987
89 0 1 6.865530 5.462450 515.890015
90 0 1 6.729390 6.200390 516.494019
91 0 1 6.590220 6.903170 517.184021
92 0 1 6.522240 7.287861 518.000000
93 0 1 6.339200 7.397025 518.939026
94 0 1 6.312890 7.250247 519.888977
95 0 1 6.180410 6.879180 520.734009
96 0 1 5.963140 6.633470 521.612000
97 0 1 5.697570 6.651830 522.596008
98 0 1 5.825280 6.613190 523.523987
99 0 1 5.938690 6.274200 524.513000
100 0 1 5.809150 6.138760 525.416992
101 0 1 5.705020 5.814830 526.273010
102 0 1 5.450080 5.479800 527.108032
103 0 1 5.205290 5.322040 528.035034
104 0 1 5.100630 5.404750 528.984619
105 0 1 5.273940 5.255830 529.913391
106 0 1 5.321070 5.158460 530.860229
107 0 1 5.426550 4.969960 531.780212
108 0 1 5.670490 4.840320 532.713989
109 0 1 6.292020 4.769920 533.502197
110 0 1 6.762480 4.711280 534.311768
111 0 1 7.167631 4.689740 535.187378
112 0 1 7.412306 4.886350 536.121277
113 0 1 7.705137 4.785320 537.016968
114 0 1 8.162142 4.489720 537.835510
115 0 1 8.490505 4.385340 538.756470
116 0 1 8.687241 4.317340 539.733276
117 0 1 8.967874 4.116670 540.675293
118 0 1 9.198350 3.765710 541.497314
119 0 1 9.547520 3.488540 542.357178
120 0 1 10.018840 3.492950 543.228821
121 0 1 10.540980 3.674480 544.055420
122 0 1 10.999180 3.989330 544.847778
123 0 1 11.411090 4.292700 545.645203
124 0 1 11.634480 4.684510 546.483887
125 0 1 11.806170 4.973170 547.400208
126 0 1 11.947940 5.282860 548.286926
127 0 1 11.985210 5.724270 549.067383
128 0 1 12.072210 6.055800 549.943420
129 0 1 11.758820 6.146810 550.859619
130 0 1 11.541080 6.274500 551.801880
131 0 1 11.332581 6.752510 552.602478
132 0 1 11.268590 7.409367 553.292725
133 0 1 10.872680 8.029080 553.919312
134 0 1 10.551210 8.778527 554.454102
135 0 1 9.985960 9.363530 554.916870
136 0 1 9.984610 10.248750 555.463013
137 0 1 9.971951 11.143770 555.968201
138 0 1 9.702810 11.673350 556.659119
139 0 1 9.604740 12.265490 557.351685
140 0 1 9.577550 12.640710 558.263977
141 0 1 9.428630 13.045500 559.135376
142 0 1 9.273590 13.335660 560.067688
143 0 1 9.175960 13.287270 560.952087
144 0 1 8.876413 13.280020 561.865723
145 0 1 8.626777 13.270440 562.825317
146 0 1 8.542839 13.264220 563.899475
147 0 1 8.377140 13.302130 564.812683
148 0 1 7.952392 13.495800 565.692505
149 0 1 7.606475 13.517160 566.704285
150 0 1 7.379006 13.536750 567.618591
151 0 1 6.912660 13.472530 568.410828
152 0 1 6.656910 13.007360 569.215332
153 0 1 6.333710 12.800460 570.132324
154 0 1 6.126560 12.727900 571.075623
155 0 1 5.757710 12.596920 572.010498
156 0 1 5.378400 12.344660 572.830017
157 0 1 5.192510 12.033970 573.727417
158 0 1 5.187170 12.162849 574.669617
159 0 1 5.118810 11.830510 575.563293
160 0 1 5.110680 11.386370 576.484375
161 0 1 5.200770 11.066650 577.364868
162 0 1 5.579200 10.698771 578.311768
163 0 1 5.830770 10.563510 579.210205
164 0 1 5.885370 10.574780 580.134399
165 0 1 5.805300 10.904970 581.026184
166 0 1 5.889560 11.188650 581.899414
167 0 1 5.762890 11.402130 582.907104
168 0 1 5.286120 11.420860 583.815918
169 0 1 4.820660 11.468100 584.608582
170 0 1 4.219820 11.274640 585.379822
171 0 1 3.564570 10.985100 586.022095
172 0 1 3.117330 10.543520 586.812622
173 0 1 3.098200 10.084000 587.619812
174 0 1 3.202760 9.634680 588.446899
175 0 1 3.286000 9.433350 589.444580
176 0 1 3.560390 9.271980 590.355286
177 0 1 3.565910 9.313020 591.357910
178 0 1 3.806960 9.445920 592.266724
179 0 1 3.960360 9.476890 593.290710
180 0 1 4.068400 9.429220 594.265686
181 0 1 4.198360 9.407670 595.231506
182 0 1 4.329950 9.343310 596.138428
183 0 1 4.728700 9.116440 596.952026
184 0 1 4.636560 8.778502 597.842896
185 0 1 4.564470 8.618259 598.812378
186 0 1 4.646790 8.489589 599.775696
187 0 1 4.781200 8.539779 600.753174
188 0 1 5.148840 8.601222 601.694702
189 0 1 5.728140 8.716799 602.523987
190 0 1 6.308880 8.978747 603.223022
191 0 1 6.733500 9.026930 604.130676
192 0 1 7.309050 8.919936 604.920715
193 0 1 7.735004 8.762633 605.802612
194 0 1 8.144660 8.466933 606.620300
195 0 1 8.559997 8.198924 607.433594
196 0 1 9.034389 7.936938 608.289917
197 0 1 9.350280 7.886224 609.183899
198 0 1 9.541821 7.903855 610.163330
199 0 1 9.916710 7.841845 611.115173
200 0 1 10.303090 7.320257 611.823120
201 0 1 10.731080 6.591620 612.297791
202 0 1 11.035900 6.062570 613.057495
203 0 1 11.084720 5.463130 613.798218
204 0 1 11.066650 4.921670 614.660095
205 0 1 10.646370 4.328210 615.343384
206 0 1 10.169850 3.832720 615.949890
207 0 1 9.771460 3.315220 616.666870
208 0 1 9.457479 2.695300 617.299805
209 0 1 8.771747 2.377730 617.937988
210 0 1 7.990842 2.048010 618.389099
211 0 1 7.237694 2.121040 618.961670
212 0 1 6.485330 2.349280 619.438843
213 0 1 5.765860 2.653100 620.051575
214 0 1 5.308070 2.892310 620.811157
215 0 1 4.630450 3.020040 621.474243
216 0 1 3.924980 3.374880 622.056213
217 0 1 3.383230 3.830620 622.749756
218 0 1 2.753810 3.911450 623.524353
219 0 1 2.362220 4.589520 624.025635
220 0 1 2.011510 5.238630 624.634399
221 0 1 1.811670 5.653010 625.439209
222 0 1 1.606780 5.978450 626.351685
223 0 1 1.553970 6.111840 627.276794
224 0 1 1.579250 6.235650 628.175781
225 0 1 1.662770 6.304830 629.261841
226 0 1 1.698390 6.158320 630.230347
227 0 1 1.855840 6.281680 631.212708
228 0 1 1.874670 6.432820 632.194641
229 0 1 1.589930 6.803200 633.034729
230 0 1 1.547020 7.469428 633.778870
231 0 1 1.644520 8.223799 634.423584
232 0 1 1.832980 9.044040 634.896667
233 0 1 1.719620 9.794440 635.536316
234 0 1 1.659270 10.347400 636.360535
235 0 1 1.865810 10.464050 637.285400
236 0 1 2.230680 10.377920 638.206421
237 0 1 2.357290 10.374810 639.173523
238 0 1 2.623920 9.996110 640.066528
239 0 1 2.696510 9.477630 640.918579
240 0 1 3.279750 9.082950 641.591797
241 0 1 3.780170 8.608381 642.204590
242 0 1 4.148340 8.260603 643.009399
243 0 1 4.474560 7.853508 643.786072
244 0 1 5.046680 7.414096 644.411682
245 0 1 5.471650 7.043234 645.239075
246 0 1 5.724130 6.846670 646.130188
247 0 1 5.859540 6.864340 647.088684
248 0 1 6.044170 7.040713 648.060486
249 0 1 6.021620 7.216950 648.969971
250 0 1 6.332820 7.578094 649.831604
251 0 1 6.580450 7.859617 650.728027
252 0 1 6.594310 8.190327 651.655884
253 0 1 6.628000 8.331619 652.590881
254 0 1 6.712420 8.571551 653.676880
255 0 1 6.720260 8.569211 654.657898
256 0 1 6.984020 8.601112 655.599915
257 0 1 7.364624 8.544569 656.459595
258 0 1 7.609490 8.362772 657.333374
259 0 1 7.857962 8.123360 658.313293
260 0 1 8.013493 7.807401 659.213928
261 0 1 8.330023 7.520981 660.092896
262 0 1 8.588194 7.017167 660.945923
263 0 1 8.841327 6.631690 661.765991
264 0 1 8.790995 6.384770 662.656128
265 0 1 8.868887 6.291790 663.613525
266 0 1 8.941390 6.323900 664.577271
267 0 1 8.950391 6.270510 665.500732
268 0 1 8.928273 6.148760 666.469421
269 0 1 8.886471 6.017320 667.400085
270 0 1 8.549743 6.225560 668.332214
271 0 1 8.111337 6.215900 669.130981
272 0 1 7.628775 6.501090 669.945618
273 0 1 7.093599 6.675720 670.793518
274 0 1 6.581820 6.676520 671.591919
275 0 1 6.070650 6.731820 672.389893
276 0 1 5.438820 6.551700 673.072510
277 0 1 5.049770 6.383190 673.940796
278 0 1 4.965140 6.138580 674.908691
279 0 1 5.057110 5.906410 675.833008
280 0 1 5.571370 5.603320 676.586975
281 0 1 5.893860 5.487670 677.538513
282 0 1 6.169530 5.587330 678.498596
283 0 1 6.471650 5.433860 679.400879
284 0 1 7.107913 5.387490 680.182129
285 0 1 7.737369 5.201750 680.847473
286 0 1 8.331474 5.245790 681.606873
287 0 1 9.034580 5.138260 682.229004
288 0 1 9.682190 4.949410 682.900024
289 0 1 10.339440 4.987170 683.630005
290 0 1 10.837160 5.020100 684.479614
291 0 1 11.285049 5.042090 685.443726
292 0 1 11.643539 4.999150 686.309021
293 0 1 11.319640 5.316490 687.185608
294 0 1 11.091740 5.530470 688.106628
295 0 1 11.084770 5.474130 689.153381
296 0 1 10.897840 5.504570 690.166870
297 0 1 10.751101 5.908350 691.065796
298 0 1 10.505640 6.327750 691.933899
299 0 1 10.179640 6.967640 692.512207
300 0 1 9.562450 7.396193 693.135315
301 0 1 9.185350 7.860683 693.873108
302 0 1 8.853813 8.465493 694.549805
303 0 1 8.551782 8.778725 695.421631
304 0 1 8.242413 9.110890 696.324280
305 0 1 7.892760 9.407560 697.194275
306 0 1 7.636743 9.670480 698.078613
307 0 1 7.223673 9.735780 699.017212
308 0 1 7.030275 9.489770 699.960083
309 0 1 6.802190 9.510240 700.912598
310 0 1 6.896350 9.817210 701.819824
311 0 1 7.266275 10.299770 702.561218
312 0 1 7.571195 10.785851 703.368408
313 0 1 8.196420 11.144320 704.004883
314 0 1 8.827975 11.417220 704.674988
315 0 1 9.390480 11.829670 705.394287
316 0 1 9.959530 11.614950 706.256714
317 0 1 10.499250 11.526950 706.995605
318 0 1 10.872020 11.643570 707.858826
319 0 1 11.307680 11.524450 708.686279
320 0 1 11.849751 11.396470 709.520325
321 0 1 12.173470 11.347730 710.457397
322 0 1 12.429171 11.256260 711.366394
323 0 1 12.649020 11.107260 712.364685
324 0 1 12.836269 10.852160 713.223511
325 0 1 12.575350 10.825700 714.176086
326 0 1 11.956520 10.588600 714.857422
327 0 1 11.442610 10.378760 715.651794
328 0 1 11.156710 9.929461 716.460083
329 0 1 10.809590 9.725690 717.366333
330 0 1 10.551701 9.778490 718.287598
331 0 1 10.565070 9.938090 719.250305
332 0 1 10.509200 9.863600 720.126587
333 0 1 10.328700 9.338140 720.986023
334 0 1 10.304820 8.958374 721.845825
335 0 1 10.130060 8.482391 722.667480
336 0 1 9.934150 7.889622 723.460022
337 0 1 9.696420 7.663893 724.379822
338 0 1 9.383840 7.340961 725.318970
339 0 1 9.119940 7.002786 726.239807
340 0 1 9.152670 6.592010 727.073120
341 0 1 9.461390 6.362540 727.929016
342 0 1 9.946970 6.267570 728.718994
343 0 1 10.427000 6.273160 729.559998
344 0 1 10.803880 6.061470 730.398010
345 0 1 10.937620 5.780770 731.341003
346 0 1 11.578711 5.333490 731.945984
347 0 1 12.124660 5.252870 732.707031
348 0 1 12.572100 5.006320 733.499023
349 0 1 12.767620 4.907340 734.469971
350 0 1 12.882560 4.691640 735.400024
351 0 1 12.900110 4.687760 736.375977
352 0 1 12.704950 4.620060 737.312988
353 0 1 12.345400 4.659260 738.239014
354 0 1 11.829130 4.713870 739.101013
355 0 1 11.557760 4.673090 739.968994
356 0 1 11.309220 4.814180 740.818970
357 0 1 11.046510 4.812870 741.796997
358 0 1 10.576070 4.995810 742.594971
359 0 1 9.878560 5.188800 743.140015
360 0 1 9.256390 5.074970 743.862000
361 0 1 8.839230 5.292200 744.687988
362 0 1 8.226352 5.734050 745.309021
363 0 1 7.809366 6.336700 745.895996
364 0 1 7.184711 6.744310 746.578979
365 0 1 6.537450 7.041286 747.255981
366 0 1 5.773900 7.300543 747.838989
367 0 1 5.264410 7.540863 748.589966
368 0 1 5.055270 7.581840 749.528992
369 0 1 4.705040 7.907873 750.403015
370 0 1 4.533200 8.498873 751.164978
371 0 1 4.335580 8.811951 751.987000
372 0 1 4.113860 9.173610 752.849976
373 0 1 4.119790 9.602720 753.744019
374 0 1 4.100690 9.493800 754.695984
375 0 1 4.212190 9.597580 755.661011
376 0 1 4.217120 9.682360 756.610962
377 0 1 4.000370 9.527760 757.492004
378 0 1 3.619300 9.610580 758.386963
379 0 1 3.370820 9.786680 759.323975
380 0 1 2.985100 10.139390 760.080994
381 0 1 2.605380 10.613850 760.760010
382 0 1 2.264630 10.775700 761.702026
383 0 1 2.296180 10.546310 762.645996
384 0 1 2.348470 10.497050 763.604004
385 0 1 2.729130 10.503839 764.521973
386 0 1 2.888250 10.479520 765.526001
387 0 1 3.173260 10.265030 766.405029
388 0 1 3.282010 9.987460 767.299011
389 0 1 3.305070 9.659860 768.235962
390 0 1 3.396080 9.303160 769.198975
391 0 1 3.575210 9.263460 770.210022
392 0 1 3.684480 9.055200 771.148987
393 0 1 4.054310 8.845687 771.994995
394 0 1 4.094610 8.725852 772.992981
395 0 1 4.163090 8.781675 773.942993
396 0 1 4.101540 8.713679 774.879028
397 0 1 4.495730 8.747791 775.799011
398 0 1 5.073700 8.671134 776.619995
399 0 1 5.545120 8.488039 777.515991
400 0 1 6.159910 8.576676 778.218994
401 0 1 6.611500 8.430516 779.068970
402 0 1 6.976270 8.417449 779.960999
403 0 1 7.413520 8.663276 780.809021
404 0 1 7.820052 8.924782 781.639038
405 0 1 8.210848 8.997213 782.515015
406 0 1 8.484988 9.183060 783.468018
407 0 1 8.499045 9.397610 784.382019
408 0 1 8.306255 9.597390 785.318970
409 0 1 7.857258 9.933620 786.114014
410 0 1 7.205667 10.175980 786.802979
411 0 1 6.431430 10.448811 787.422974
412 0 1 5.764060 10.599490 788.065002
413 0 1 5.152440 10.544530 788.885010
414 0 1 5.109200 10.612500 789.908020
415 0 1 5.309240 10.815030 790.843994
416 0 1 5.279390 11.102370 791.776978
417 0 1 5.400490 11.212410 792.757996
418 0 1 5.761010 11.031750 793.636963
419 0 1 6.275880 10.912700 794.429016
420 0 1 6.828190 10.893300 795.156006
421 0 1 7.160794 10.954460 796.070007
422 0 1 7.596818 10.890760 796.979004
423 0 1 8.182738 10.531190 797.702026
424 0 1 8.618901 10.257260 798.537964
425 0 1 8.701990 10.061890 799.469971
426 0 1 9.091810 9.648870 800.250977
427 0 1 9.336950 9.156120 801.002991
428 0 1 9.669990 8.584469 801.781006
429 0 1 9.963740 8.143938 802.572021
430 0 1 10.341830 7.773726 803.385986
431 0 1 10.600700 7.161958 804.130981
432 0 1 10.717200 6.426380 804.682007
433 0 1 10.539660 5.966690 805.479980
434 0 1 10.530510 5.734740 806.463989
435 0 1 10.162870 5.763630 807.457031
436 0 1 9.706970 6.008100 808.348999
437 0 1 9.070220 6.451960 808.869995
438 0 1 8.475459 6.747670 809.578979
439 0 1 7.906255 7.177428 810.203003
440 0 1 7.168885 7.507292 810.755981
441 0 1 6.397310 7.880403 811.203003
442 0 1 5.571060 8.067145 811.622986
443 0 1 4.930720 8.313942 812.339966
444 0 1 4.246600 8.064068 812.973022
445 0 1 3.745360 8.034756 813.723022
446 0 1 3.307080 8.037372 814.603027
447 0 1 3.116390 7.817400 815.468994
448 0 1 3.048610 7.841999 816.440979
449 0 1 2.911600 7.842295 817.393005
450 0 1 2.941090 7.970456 818.406006
451 0 1 3.076150 7.905709 819.332031
452 0 1 3.398230 7.983918 820.242004
453 0 1 3.945800 7.882974 821.044983
454 0 1 4.430680 8.205808 821.770996
455 0 1 4.930940 8.405184 822.536987
456 0 1 5.357040 8.641373 823.367004
457 0 1 5.347110 8.383609 824.304993
458 0 1 5.174760 8.314734 825.307983
459 0 1 5.032160 8.420660 826.244019
460 0 1 5.001940 8.497706 827.187012
461 0 1 5.036090 8.295774 828.125000
462 0 1 5.001890 7.956056 829.036011
463 0 1 4.671450 8.123105 829.906982
464 0 1 4.231610 7.848737 830.742004
465 0 1 3.679720 7.743843 831.554993
466 0 1 3.198860 7.727548 832.391968
467 0 1 2.718270 7.616811 833.174988
468 0 1 2.447720 7.380672 834.046021
469 0 1 2.424000 7.187741 835.020996
470 0 1 2.565290 6.827450 835.890991
471 0 1 2.887110 6.429310 836.692993
472 0 1 3.159650 6.212960 837.549988
473 0 1 3.871330 5.985770 838.078003
474 0 1 4.723210 5.827660 838.528015
475 0 1 5.654950 5.512690 838.648010
476 0 1 6.571070 5.627970 838.942993
477 0 1 7.441423 5.987440 839.062012
478 0 1 8.292295 6.346440 839.265015
479 0 1 9.222700 6.559420 839.481995
480 0 1 10.198350 6.700310 839.302002
481 0 1 11.004590 6.652460 838.838013
482 0 1 11.842370 6.556980 838.351990
483 0 1 12.416590 6.512990 837.585022
484 0 1 12.862420 6.877850 836.734009
485 0 1 13.392830 7.045740 835.932983
486 0 1 13.378990 7.464259 835.021973
487 0 1 13.400930 7.844590 834.130005
488 0 1 13.555340 8.133398 833.203979
489 0 1 13.677520 8.373729 832.268005
490 0 1 13.908890 8.594588 831.349976
491 0 1 13.766109 8.781417 830.380981
492 0 1 13.799459 9.051140 829.537964
493 0 1 13.622351 9.024780 828.567993
494 0 1 13.140810 9.020640 827.742981
495 0 1 12.563271 8.928612 826.976990
496 0 1 12.189930 8.872296 826.080017
497 0 1 12.156210 8.771584 825.070984
498 0 1 12.136829 8.919833 824.139038
499 0 1 12.063590 9.068130 823.203003
500 0 1 12.040319 9.158530 822.244995
501 0 1 11.772770 9.269910 821.280029
502 0 1 11.578660 9.381740 820.276978
503 0 1 11.474910 9.662960 819.291992
504 0 1 11.659950 9.993610 818.412964
505 0 1 11.885850 10.416050 817.619019
506 0 1 11.871780 10.546329 816.646973
507 0 1 11.774590 10.606190 815.690002
508 0 1 11.655109 10.822620 814.755981
509 0 1 11.625480 11.294770 813.862000
510 0 1 11.270550 11.942080 813.093994
511 0 1 10.835540 12.160030 812.242004
512 0 1 10.434910 12.317210 811.364990
513 0 1 10.309299 12.625490 810.463989
514 0 1 10.245350 12.849501 809.497986
515 0 1 10.109700 12.863110 808.507996
516 0 1 10.118570 13.082430 807.533997
517 0 1 10.103800 13.148690 806.598999
518 0 1 9.957240 13.224040 805.643982
519 0 1 10.023030 13.439819 804.740967
520 0 1 9.657410 13.638840 803.858032
521 0 1 9.176260 13.926860 803.044983
522 0 1 8.887213 13.983370 802.138000
523 0 1 8.565787 13.894110 801.257996
524 0 1 8.677503 13.953220 800.320984
525 0 1 8.421372 13.719800 799.400024
526 0 1 8.300986 13.520550 798.448975
527 0 1 8.187826 13.259720 797.502014
528 0 1 8.123197 13.311920 796.539978
529 0 1 7.751644 13.247020 795.645020
530 0 1 7.427816 13.375230 794.740967
531 0 1 7.199159 13.672260 793.780029
532 0 1 6.991090 14.039460 792.931030
533 0 1 6.971570 14.321460 791.987000
534 0 1 6.884090 14.398640 790.969971
535 0 1 6.897910 14.319050 790.023010
536 0 1 7.194790 14.205561 789.120972
537 0 1 7.291646 13.886089 788.233032
538 0 1 7.665657 13.519360 787.365967
539 0 1 7.865337 13.457291 786.422974
540 0 1 8.029782 13.411250 785.520996
541 0 1 7.654474 13.402901 784.589966
542 0 1 7.416775 13.488740 783.634033
543 0 1 7.190365 13.458310 782.682983
544 0 1 6.977170 13.213560 781.737000
545 0 1 7.069089 12.910920 780.874023
546 0 1 6.772030 12.854570 779.934021
547 0 1 6.710770 12.384920 779.057983
548 0 1 6.823140 12.227640 778.072998
549 0 1 6.784100 12.057030 777.135986
550 0 1 6.600840 11.894080 776.208008
551 0 1 6.347570 11.910310 775.242004
552 0 1 6.238310 11.982580 774.337036
553 0 1 6.213870 12.157640 773.436035
554 0 1 6.142770 12.117770 772.484009
555 0 1 6.370720 12.014540 771.562012
556 0 1 6.664900 11.777880 770.671997
557 0 1 6.803130 11.819250 769.585999
558 0 1 6.670530 11.681710 768.688965
559 0 1 6.431550 11.204850 767.942993
560 0 1 5.905150 10.740470 767.268982
561 0 1 5.453640 10.241631 766.494019
562 0 1 5.225980 10.140220 765.539978
563 0 1 5.362970 9.976400 764.612000
564 0 1 5.806880 10.003760 763.771973
565 0 1 6.376390 10.015820 763.030029
566 0 1 6.974650 9.987250 762.264038
567 0 1 7.205646 9.749770 761.359009
568 0 1 7.454626 9.555640 760.487000
569 0 1 7.709784 9.374990 759.598999
570 0 1 8.068356 9.194750 758.742981
571 0 1 8.389504 8.988157 757.846008
572 0 1 8.685288 8.836175 756.945984
573 0 1 8.940703 8.781504 756.020996
574 0 1 9.202070 8.900529 755.124023
575 0 1 9.688360 8.992094 754.291016
576 0 1 10.134860 9.079370 753.434998
577 0 1 10.593610 8.948712 752.542969
578 0 1 10.899260 8.400998 751.776978
579 0 1 11.374020 7.825140 751.125977
580 0 1 11.803770 7.658975 750.281006
581 0 1 12.075530 7.379582 749.403992
582 0 1 12.435801 7.442189 748.539978
583 0 1 12.609671 7.482724 747.625000
584 0 1 12.385040 7.676659 746.700989
585 0 1 12.158569 7.912839 745.823975
586 0 1 11.954190 8.031213 744.922974
587 0 1 11.407850 8.236355 744.080017
588 0 1 10.828120 8.239152 743.250977
589 0 1 10.262750 8.251788 742.509033
590 0 1 9.561020 8.271611 741.911011
591 0 1 8.826723 8.251486 741.275024
592 0 1 8.393658 8.465887 740.405029
593 0 1 8.027304 8.658186 739.484009
594 0 1 7.584619 8.771150 738.629028
595 0 1 7.219637 8.577988 737.778015
596 0 1 6.965350 8.245409 736.926025
597 0 1 6.661920 7.956721 736.067993
598 0 1 6.243600 7.759452 735.237000
599 0 1 5.875350 7.584611 734.372986
600 0 1 5.523760 7.746989 733.515015
601 0 1 5.400410 8.026669 732.549988
602 0 1 5.162950 8.056374 731.637024
603 0 1 4.833200 8.099398 730.711975
604 0 1 4.535610 8.204261 729.789001
605 0 1 4.251590 8.207831 728.817993
606 0 1 3.704750 8.058819 728.078125
607 0 1 3.026130 7.947578 727.346680
608 0 1 2.564790 7.660653 726.557495
609 0 1 2.192920 7.387581 725.684814
610 0 1 2.143300 6.936790 724.806824
611 0 1 2.245450 6.318720 724.124695
612 0 1 2.505390 5.976900 723.242493
613 0 1 2.752930 5.639360 722.358704
614 0 1 3.284530 5.417310 721.493591
615 0 1 3.580180 5.248870 720.557800
616 0 1 4.018110 5.355400 719.675781
617 0 1 4.447380 5.005490 718.873901
618 0 1 4.963650 4.584330 718.199402
619 0 1 5.520010 4.317660 717.429626
620 0 1 6.041070 3.859810 716.797607
621 0 1 6.383920 3.613650 715.934570
622 0 1 6.915070 3.629910 715.173889
623 0 1 7.493116 3.845840 714.413330
624 0 1 7.922762 3.847700 713.478027
625 0 1 8.221496 4.212540 712.619080
626 0 1 8.473297 4.500100 711.649414
627 0 1 8.756867 4.654090 710.644897
628 0 1 8.804691 4.771630 709.676270
629 0 1 8.764262 4.850050 708.724609
630 0 1 8.549426 5.002430 707.803589
631 0 1 8.215986 5.142400 706.920715
632 0 1 8.043441 5.066600 706.014526
633 0 1 7.877328 5.221280 705.057617
634 0 1 7.969259 5.145910 704.089294
635 0 1 7.850699 5.198180 703.191223
636 0 1 7.842192 5.281900 702.217529
637 0 1 8.210384 5.405850 701.267578
638 0 1 8.584855 5.372300 700.429688
639 0 1 8.813389 5.544720 699.490417
640 0 1 8.859140 5.488700 698.507385
641 0 1 8.895365 5.312270 697.563782
642 0 1 9.104240 5.174830 696.650269
643 0 1 9.269540 5.057980 695.621094
644 0 1 9.223240 4.817960 694.688293
645 0 1 9.604190 4.486930 693.910217
646 0 1 9.897520 4.286600 693.020630
647 0 1 10.371940 4.183060 692.148926
648 0 1 10.742690 3.932000 691.307617
649 0 1 11.191260 3.686080 690.517578
650 0 1 11.348700 3.792600 689.551086
651 0 1 11.170910 3.627010 688.589600
652 0 1 11.290060 3.491250 687.666199
653 0 1 11.081300 3.395260 686.684814
654 0 1 10.693760 3.171290 685.837402
655 0 1 10.381660 3.257460 684.915283
656 0 1 10.207100 3.469470 684.030823
657 0 1 9.761640 3.688730 683.175598
658 0 1 9.174020 3.879900 682.375488
659 0 1 8.876560 4.165480 681.556702
660 0 1 8.760878 4.173100 680.587219
661 0 1 8.719539 4.199860 679.626892
662 0 1 8.723625 4.118760 678.605469
663 0 1 8.603087 3.881380 677.706177
664 0 1 8.293757 3.831380 676.735596
665 0 1 8.214221 3.651740 675.813782
666 0 1 8.045742 3.341650 674.902405
667 0 1 7.861455 3.323270 673.992004
668 0 1 7.724823 3.207270 673.013977
669 0 1 7.737862 3.085550 672.042969
670 0 1 8.058588 2.887610 671.112976
671 0 1 8.478602 2.891940 670.134094
672 0 1 8.567362 2.968040 669.178711
673 0 1 8.797984 3.006010 668.250305
674 0 1 8.554930 2.756820 667.351074
675 0 1 8.240628 2.844630 666.461792
676 0 1 7.752780 2.929800 665.617310
677 0 1 7.653173 3.025840 664.655090
678 0 1 7.584151 3.063080 663.690430
679 0 1 7.302085 2.807750 662.781128
680 0 1 7.281667 2.932160 661.849915
681 0 1 6.988610 3.188440 660.925720
682 0 1 6.752760 3.290220 659.952820
683 0 1 6.534100 3.094510 658.975586
684 0 1 6.414760 2.739940 658.055481
685 0 1 6.149150 2.381930 657.156799
686 0 1 5.986880 2.084640 656.233887
687 0 1 5.888770 2.049200 655.279114
688 0 1 6.055590 2.186970 654.330627
689 0 1 6.429280 2.423140 653.435425
690 0 1 6.836960 2.724100 652.632324
691 0 1 7.455476 3.302250 652.119812
692 0 1 7.966950 4.003860 651.719727
693 0 1 8.452243 4.650420 651.181519
694 0 1 8.864124 5.361680 650.521423
695 0 1 9.125640 6.102950 649.895630
696 0 1 9.269350 6.740760 649.311523
697 0 1 9.257770 7.560259 648.784424
698 0 1 9.335580 8.373485 648.186401
699 0 1 9.461520 9.022200 647.496277
700 0 1 9.824250 9.405240 646.718079
701 0 1 10.253890 9.459579 645.841919
702 0 1 10.611100 9.762390 644.953308
703 0 1 10.864450 10.146250 644.092712
704 0 1 10.927190 10.763980 643.351685
705 0 1 10.934990 11.273790 642.580627
706 0 1 10.676180 11.802830 641.800598
707 0 1 10.402470 12.187719 640.993408
708 0 1 9.872090 12.429090 640.171509
709 0 1 9.519600 12.302600 639.266907
710 0 1 9.203110 12.114600 638.365173
711 0 1 8.691630 12.064119 637.593628
712 0 1 8.132432 12.067210 636.779785
713 0 1 7.592499 11.851590 635.948364
714 0 1 7.335660 11.696569 635.020203
715 0 1 7.083023 11.512090 634.093445
716 0 1 6.810200 11.010890 633.294495
717 0 1 6.809150 10.558920 632.504822
718 0 1 6.768590 10.180540 631.587646
719 0 1 6.486190 9.740020 630.781738
720 0 1 5.973570 9.414600 629.971008
721 0 1 5.468070 9.149310 629.249146
722 0 1 4.976090 8.910299 628.429016
723 0 1 4.839490 8.806565 627.518250
724 0 1 4.823310 8.760423 626.517090
725 0 1 4.559030 8.518143 625.584473
726 0 1 4.682760 8.478116 624.670349
727 0 1 4.703650 8.377329 623.724854
728 0 1 4.529460 8.828886 622.844482
729 0 1 4.266570 9.326090 622.109436
730 0 1 4.161580 9.640090 621.185059
731 0 1 4.505510 9.905960 620.264832
732 0 1 4.961230 10.172390 619.478210
733 0 1 5.415400 10.435400 618.735535
734 0 1 5.604530 10.655990 617.748108
735 0 1 5.911860 10.957370 616.839783
736 0 1 6.428860 11.276890 616.024414
737 0 1 7.220331 11.407690 615.522217
738 0 1 8.025565 11.189120 614.968323
739 0 1 8.834172 10.870230 614.642883
740 0 1 9.489100 10.643920 613.988281
741 0 1 9.743050 10.351030 613.107483
742 0 1 9.841570 10.041270 612.185120
743 0 1 9.902970 9.747960 611.227905
744 0 1 9.970700 9.612690 610.323303
745 0 1 10.152140 9.255970 609.494507
746 0 1 10.604600 8.842876 608.649414
747 0 1 11.036840 8.272689 607.990784
748 0 1 11.321320 7.709267 607.317200
749 0 1 11.541380 7.081389 606.621887
750 0 1 11.763760 6.432400 605.895081
751 0 1 11.799940 5.900430 605.047791
752 0 1 11.580260 5.275510 604.334229
753 0 1 11.438890 4.715510 603.505188
754 0 1 11.217350 4.326650 602.671814
755 0 1 10.998569 4.336880 601.685181
756 0 1 10.505660 4.415170 600.807983
757 0 1 10.208660 4.552850 599.877625
758 0 1 9.811540 4.733870 598.969177
759 0 1 9.626690 5.175850 598.080811
760 0 1 9.407750 5.593490 597.236084
761 0 1 9.277640 5.960740 596.309692
762 0 1 9.149810 6.148150 595.342102
763 0 1 9.071870 6.405500 594.391907
764 0 1 8.708717 6.707650 593.545410
765 0 1 8.243071 6.822670 592.653320
766 0 1 8.166315 6.717170 591.689514
767 0 1 7.779561 6.796970 590.809082
768 0 1 7.444890 6.876910 589.914917
769 0 1 7.219939 6.937570 589.032410
770 0 1 7.080442 6.920720 588.085205
771 0 1 7.059168 7.035311 587.177368
772 0 1 7.210687 6.926670 586.241516
773 0 1 7.490855 6.735090 585.331604
774 0 1 7.602680 6.357470 584.431274
775 0 1 7.741683 6.195480 583.486084
776 0 1 7.870053 6.130630 582.540710
777 0 1 8.044399 6.204190 581.644287
778 0 1 8.180221 6.279320 580.710815
779 0 1 8.457676 6.116160 579.784790
780 0 1 8.823102 6.034640 578.844604
781 0 1 9.384960 5.849970 578.086670
782 0 1 9.812640 5.348810 577.478699
783 0 1 10.570080 4.977510 576.927307
784 0 1 10.808580 4.885790 575.960999
785 0 1 10.869460 5.103770 575.058228
786 0 1 10.382690 5.291150 574.221375
787 0 1 10.084610 5.583320 573.337708
788 0 1 9.755120 5.832680 572.524719
789 0 1 9.417510 5.993410 571.630676
790 0 1 8.684962 5.873030 570.951477
791 0 1 8.263649 6.040660 570.102417
792 0 1 8.171911 6.301180 569.173096
793 0 1 8.144598 7.002044 568.509216