LAMMPS data file via MDAnalysis

        1000  atoms
        1000  bonds
        1000  angles
           0  dihedrals
           0  impropers

           1  atom types
           1  bond types
           1  angle types
           0  dihedral types
           0  improper types

0.000000 16.000000 xlo xhi
0.000000 16.000000 ylo yhi
0.000000 1257.000000 zlo zhi


Masses

1 1.000000

Atoms

1 0 1 11.737720 12.488100 458.158020
2 0 1 12.202070 12.180799 458.992981
3 0 1 12.629749 11.804870 459.739990
4 0 1 12.955299 11.393170 460.580017
5 0 1 13.088500 11.105340 461.487000
6 0 1 12.932370 10.841040 462.384003
7 0 1 12.781620 10.796761 463.257996
8 0 1 12.692181 10.694810 464.273010
9 0 1 12.273701 10.463620 465.190979
10 0 1 12.283569 10.305810 466.188995
11 0 1 12.416790 10.488380 467.070984
12 0 1 12.400030 10.557330 468.076996
13 0 1 12.226450 10.525330 469.015991
14 0 1 11.720510 10.306931 469.786011
15 0 1 11.497940 10.053699 470.666992
16 0 1 11.397660 9.887850 471.589996
17 0 1 11.590490 9.701490 472.533997
18 0 1 11.934540 9.613460 473.522003
19 0 1 12.313370 9.484410 474.393982
20 0 1 12.414101 9.184870 475.332001
21 0 1 12.433860 8.916298 476.265991
22 0 1 12.506280 8.776276 477.201996
23 0 1 12.617510 9.355120 477.932983
24 0 1 12.885190 9.656260 478.825012
25 0 1 12.878010 10.081680 479.692017
26 0 1 12.972210 10.657840 480.489014
27 0 1 12.878970 11.225389 481.292999
28 0 1 12.524150 11.658210 482.041016
29 0 1 12.336690 12.145451 482.899994
30 0 1 12.374250 12.495581 483.770020
31 0 1 12.078910 12.954960 484.515015
32 0 1 12.158840 13.340321 485.410004
33 0 1 11.896790 13.508830 486.356995
34 0 1 11.642580 13.453990 487.351990
35 0 1 11.358070 13.416440 488.221008
36 0 1 11.022060 13.434370 489.134003
37 0 1 10.861370 13.463150 490.041016
38 0 1 10.997550 13.573521 491.023010
39 0 1 10.749510 13.169069 491.854004
40 0 1 10.468090 12.628429 492.570984
41 0 1 10.065510 12.304340 493.390991
42 0 1 9.793570 11.921380 494.201996
43 0 1 9.345280 11.602660 495.014008
44 0 1 8.849447 10.984340 495.664001
45 0 1 8.301183 10.327271 496.199005
46 0 1 7.729395 9.858910 496.825989
47 0 1 7.087719 9.549160 497.427979
48 0 1 6.354820 9.033540 497.848022
49 0 1 5.861920 8.423113 498.416992
50 0 1 5.636370 8.023501 499.298004
51 0 1 5.466840 7.746833 500.174011
52 0 1 4.890100 7.464728 500.945007
53 0 1 4.325210 6.905400 501.494019
54 0 1 3.560930 6.534880 501.958984
55 0 1 3.003380 6.324080 502.738007
56 0 1 2.758990 6.278430 503.664001
57 0 1 2.650680 6.378660 504.614014
58 0 1 2.570170 6.549330 505.528992
59 0 1 2.856010 6.948760 506.420990
60 0 1 3.153010 7.225742 507.306000
61 0 1 3.374830 7.627144 508.101013
62 0 1 3.563850 8.120217 508.893982
63 0 1 3.662290 8.424788 509.826996
64 0 1 3.852170 8.489843 510.765015
65 0 1 4.202070 8.529089 511.674988
66 0 1 4.459530 8.520494 512.565002
67 0 1 4.753470 8.341676 513.447021
68 0 1 5.164680 8.360652 514.320984
69 0 1 5.366910 8.386270 515.299988
70 0 1 5.756070 8.435265 516.181030
71 0 1 6.245970 8.258091 517.015015
72 0 1 6.510550 8.248982 517.990967
73 0 1 6.656360 8.129739 519.025024
74 0 1 7.054919 8.091363 519.880005
75 0 1 7.227798 8.032991 520.861023
76 0 1 7.360593 7.985078 521.809998
77 0 1 7.648961 7.675553 522.658020
78 0 1 7.811147 7.401737 523.634033
79 0 1 8.066443 7.138229 524.549011
80 0 1 8.742415 6.736490 525.156982
81 0 1 9.340560 6.701790 525.986023
82 0 1 10.053630 6.717230 526.666992
83 0 1 10.635130 7.021734 527.460999
84 0 1 11.077650 7.346556 528.322998
85 0 1 11.287621 7.774258 529.248596
86 0 1 11.204430 8.208888 530.124023
87 0 1 11.195950 8.584746 531.008789
88 0 1 11.157550 8.950324 531.944824
89 0 1 11.270110 9.472870 532.805908
90 0 1 11.168680 9.857700 533.716980
91 0 1 10.971810 10.093800 534.681702
92 0 1 10.992710 10.194790 535.717102
93 0 1 11.066060 10.252940 536.705383
94 0 1 11.455680 10.310080 537.605286
95 0 1 11.824320 10.519840 538.488525
96 0 1 12.076099 10.962130 539.289673
97 0 1 11.899570 11.219720 540.180115
98 0 1 11.783470 11.398800 541.111816
99 0 1 11.684420 11.611589 542.025696
100 0 1 11.458160 11.533460 542.955994
101 0 1 11.093570 11.674280 543.891296
102 0 1 10.631070 11.963440 544.789673
103 0 1 10.152370 12.107719 545.555725
104 0 1 9.814939 12.168039 546.534485
105 0 1 9.462220 12.286341 547.402222
106 0 1 9.378960 12.381371 548.313293
107 0 1 9.184340 12.135330 549.257202
108 0 1 9.025620 11.819920 550.150208
109 0 1 8.667391 11.428120 550.945068
110 0 1 8.325088 10.986180 551.753418
111 0 1 7.765294 11.034930 552.607788
112 0 1 7.360437 10.826281 553.453979
113 0 1 7.212931 10.597720 554.422913
114 0 1 7.140399 10.287840 555.292175
115 0 1 7.220047 9.554970 555.891113
116 0 1 7.275913 8.727489 556.430481
117 0 1 7.132312 7.895927 556.867126
118 0 1 7.145207 7.019604 557.310669
119 0 1 6.902170 6.295480 557.939697
120 0 1 6.728700 5.648710 558.695068
121 0 1 6.474850 5.265080 559.592224
122 0 1 6.018490 4.987660 560.348816
123 0 1 5.713890 4.445630 561.074585
124 0 1 5.581710 3.894130 561.948730
125 0 1 5.625320 3.751330 562.844421
126 0 1 5.903980 3.830860 563.742920
127 0 1 6.296660 3.857920 564.654175
128 0 1 6.829430 3.986620 565.557007
129 0 1 7.172905 4.084320 566.388489
130 0 1 7.644942 4.126180 567.207581
131 0 1 8.035520 4.390290 568.053284
132 0 1 8.658853 4.749130 568.798096
133 0 1 9.191760 5.009610 569.549805
134 0 1 9.826840 5.438580 570.205688
135 0 1 10.152070 6.112510 570.819885
136 0 1 10.169010 6.814840 571.554077
137 0 1 10.613490 7.301627 572.154175
138 0 1 10.871010 8.043447 572.718201
139 0 1 10.956940 8.632666 573.485107
140 0 1 10.769420 9.225790 574.144531
141 0 1 10.336760 9.687550 574.977722
142 0 1 10.086040 9.865780 575.887512
143 0 1 9.799300 9.811530 576.842102
144 0 1 9.043710 9.575030 577.482483
145 0 1 8.307557 9.110100 577.937195
146 0 1 7.606240 8.675461 578.349915
147 0 1 6.971650 8.293697 579.106506
148 0 1 6.321510 7.945091 579.748291
149 0 1 5.885560 7.514495 580.488892
150 0 1 5.417960 7.351349 581.275391
151 0 1 4.752920 7.289440 581.956726
152 0 1 4.452090 6.847470 582.736572
153 0 1 4.250580 6.445640 583.602417
154 0 1 4.307920 6.436370 584.555908
155 0 1 4.385700 6.439710 585.502014
156 0 1 4.559400 6.258170 586.432373
157 0 1 4.765050 6.076330 587.345398
158 0 1 4.995910 5.993260 588.230103
159 0 1 5.173490 5.852900 589.184021
160 0 1 5.648590 5.962530 590.079407
161 0 1 6.106860 6.078030 590.908081
162 0 1 6.714190 6.089610 591.655029
163 0 1 7.333355 6.001910 592.405029
164 0 1 7.986984 5.838660 593.151306
165 0 1 8.595009 5.844450 593.882202
166 0 1 9.081950 5.963650 594.753174
167 0 1 9.512630 6.197470 595.639099
168 0 1 9.809000 6.138570 596.556213
169 0 1 10.070200 5.647990 597.345581
170 0 1 10.145081 4.794000 597.935669
171 0 1 10.637520 4.167990 598.566589
172 0 1 11.237690 3.738260 599.166809
173 0 1 11.513920 3.411380 600.148621
174 0 1 11.432170 3.082210 601.070984
175 0 1 11.454860 2.576360 601.924988
176 0 1 11.335430 2.409820 602.858276
177 0 1 10.744950 2.297880 603.609680
178 0 1 10.105420 2.144860 604.280029
179 0 1 9.451340 1.952950 605.017273
180 0 1 8.869142 1.798430 605.828186
181 0 1 8.827813 1.840390 606.801697
182 0 1 8.762655 1.866960 607.740479
183 0 1 8.343980 1.972660 608.729309
184 0 1 8.062514 2.432590 609.595520
185 0 1 8.127509 2.667510 610.630005
186 0 1 7.982185 2.869400 611.549683
187 0 1 8.015643 3.448750 612.321411
188 0 1 8.123932 4.105710 613.041687
189 0 1 8.256620 4.677850 613.850098
190 0 1 8.134331 5.152880 614.630798
191 0 1 8.033303 5.512040 615.496704
192 0 1 7.853818 6.038040 616.340515
193 0 1 8.000196 6.668140 617.042480
194 0 1 8.044120 7.172440 617.867310
195 0 1 7.947563 7.369616 618.796570
196 0 1 7.664830 7.676890 619.641724
197 0 1 7.829054 8.177940 620.541260
198 0 1 8.026057 8.399720 621.454407
199 0 1 7.996141 8.447886 622.377686
200 0 1 8.308280 8.573178 623.302734
201 0 1 8.181293 8.772126 624.274414
202 0 1 8.140028 9.089610 625.232666
203 0 1 7.760358 9.503180 626.000671
204 0 1 7.289350 9.746730 626.830383
205 0 1 7.089928 10.233620 627.614502
206 0 1 6.726540 10.659010 628.367920
207 0 1 6.413460 11.129080 629.098145
208 0 1 5.896480 11.522881 629.807495
209 0 1 5.408810 11.653130 630.639526
210 0 1 5.276590 11.953310 631.485596
211 0 1 5.311160 12.200280 632.424377
212 0 1 5.262960 12.311279 633.352417
213 0 1 5.245400 12.135241 634.280457
214 0 1 5.172810 12.078430 635.221741
215 0 1 5.179380 11.804980 636.136841
216 0 1 4.831240 11.442490 637.039185
217 0 1 4.521050 11.013690 637.892029
218 0 1 4.312530 10.734660 638.881470
219 0 1 4.266510 10.376580 639.780884
220 0 1 4.371930 10.186510 640.704407
221 0 1 4.697380 10.249750 641.639709
222 0 1 5.005680 10.581990 642.459900
223 0 1 5.374950 10.960310 643.276428
224 0 1 5.505310 11.465600 644.081421
225 0 1 5.792340 11.798140 644.915588
226 0 1 5.951260 11.889180 645.888184
227 0 1 6.145810 12.020170 646.868713
228 0 1 6.099350 11.976810 647.815918
229 0 1 6.326520 11.682400 648.706726
230 0 1 6.670820 11.523730 649.608093
231 0 1 7.255104 11.558260 650.428772
232 0 1 7.803269 11.370650 651.137207
233 0 1 8.375237 11.544830 652.006714
234 0 1 8.720493 11.603120 652.888794
235 0 1 9.009050 11.460110 653.775879
236 0 1 9.100730 11.183730 654.678528
237 0 1 9.114680 10.959490 655.603027
238 0 1 9.001730 11.051331 656.548523
239 0 1 8.574064 11.007260 657.424622
240 0 1 7.957311 11.052830 658.144104
241 0 1 7.410524 10.945641 658.995422
242 0 1 7.154807 10.837180 659.887817
243 0 1 6.801640 10.861240 660.751831
244 0 1 6.552920 10.647730 661.643921
245 0 1 6.262730 10.241700 662.550781
246 0 1 6.342390 9.950950 663.432800
247 0 1 6.352250 9.345590 664.179993
248 0 1 6.499220 8.818898 664.974792
249 0 1 6.646930 8.374325 665.811707
250 0 1 6.780180 7.837632 666.573730
251 0 1 7.057903 7.505660 667.499512
252 0 1 7.054188 7.324088 668.456604
253 0 1 7.095692 7.203172 669.483032
254 0 1 7.000567 6.997650 670.487915
255 0 1 6.951420 6.809780 671.435120
256 0 1 6.605300 6.501870 672.292480
257 0 1 6.433280 6.655210 673.262695
258 0 1 6.248340 6.499640 674.214172
259 0 1 6.121120 6.361090 675.150269
260 0 1 5.794780 6.060130 676.027832
261 0 1 5.360660 5.669760 676.816101
262 0 1 5.358470 5.396240 677.733887
263 0 1 5.441960 4.985290 678.662781
264 0 1 5.404400 4.765620 679.558289
265 0 1 5.551090 4.703730 680.533508
266 0 1 5.649670 4.845270 681.529785
267 0 1 5.780850 4.965790 682.452026
268 0 1 5.921650 5.056430 683.362000
269 0 1 5.979110 5.232260 684.260620
270 0 1 6.105830 5.545390 685.166687
271 0 1 6.467850 5.564570 686.063599
272 0 1 7.112205 5.805980 686.764404
273 0 1 7.795566 6.007650 687.465027
274 0 1 8.271433 6.386890 688.187683
275 0 1 8.488369 7.064913 688.861328
276 0 1 8.542354 7.752051 689.600281
277 0 1 8.638592 8.393418 690.306885
278 0 1 8.651130 8.805380 691.150269
279 0 1 8.741147 9.143250 692.020386
280 0 1 8.771304 9.204400 692.995972
281 0 1 8.919491 9.079670 693.986694
282 0 1 9.165500 8.896270 694.950073
283 0 1 9.418100 8.749083 695.881104
284 0 1 9.579679 8.619485 696.780212
285 0 1 9.269690 8.686498 697.709473
286 0 1 8.964066 8.755769 698.574707
287 0 1 8.690841 8.818501 699.512512
288 0 1 8.263664 9.079010 700.353577
289 0 1 7.958591 9.358380 701.243103
290 0 1 7.716386 9.916930 701.978882
291 0 1 7.434029 10.426780 702.720825
292 0 1 7.475556 10.939390 703.549316
293 0 1 7.141113 11.197320 704.451416
294 0 1 6.978720 11.521280 705.356201
295 0 1 6.530710 11.799191 706.173889
296 0 1 6.259200 12.000669 707.048889
297 0 1 5.945910 12.049271 707.961792
298 0 1 5.720370 11.975380 708.895874
299 0 1 5.663410 11.998230 709.834412
300 0 1 5.452260 12.044479 710.767517
301 0 1 5.301310 11.780070 711.687012
302 0 1 5.137960 11.515490 712.594971
303 0 1 5.146950 11.146170 713.530579
304 0 1 4.968300 10.728440 714.413330
305 0 1 4.591730 10.084860 714.989685
306 0 1 4.319870 9.725990 715.821167
307 0 1 4.533440 9.049540 716.498108
308 0 1 4.537590 8.224548 716.994873
309 0 1 4.795130 7.600532 717.671875
310 0 1 4.877610 7.104869 718.547791
311 0 1 4.775900 6.887090 719.528320
312 0 1 4.404730 6.642930 720.459595
313 0 1 3.897650 6.106770 721.214966
314 0 1 3.864460 5.546930 721.990479
315 0 1 4.086650 5.022650 722.752625
316 0 1 4.114150 4.600910 723.597595
317 0 1 4.223270 4.310720 724.516479
318 0 1 4.172830 3.816400 725.374023
319 0 1 4.417930 3.208110 726.148010
320 0 1 4.669130 2.556460 726.854980
321 0 1 4.806370 2.079950 727.707092
322 0 1 4.649840 1.954780 728.611023
323 0 1 4.607700 1.977650 729.606018
324 0 1 4.513500 2.397040 730.455017
325 0 1 4.387830 2.891210 731.291992
326 0 1 4.258020 3.367320 732.088989
327 0 1 4.350130 4.041230 732.778015
328 0 1 4.527110 4.586440 733.544983
329 0 1 4.713840 5.287020 734.130005
330 0 1 5.164730 6.076410 734.497009
331 0 1 4.991100 6.847570 735.057007
332 0 1 4.609930 7.584469 735.552979
333 0 1 4.559800 8.231573 736.312012
334 0 1 4.561380 8.695060 737.179993
335 0 1 4.633940 9.012730 738.051025
336 0 1 4.515340 9.333510 739.036987
337 0 1 4.421770 9.464840 739.955017
338 0 1 4.292180 9.685030 740.901001
339 0 1 3.962120 9.851600 741.759033
340 0 1 3.492960 9.680770 742.557983
341 0 1 3.128130 9.217720 743.367981
342 0 1 2.567490 8.515992 743.887024
343 0 1 2.174140 7.764509 744.398010
344 0 1 2.099860 6.906420 744.846008
345 0 1 2.055490 6.037630 745.266968
346 0 1 2.212770 5.157670 745.684021
347 0 1 2.586560 4.455040 746.268982
348 0 1 2.928880 4.092760 747.060974
349 0 1 3.445740 3.801260 747.817017
350 0 1 3.945980 3.470160 748.609985
351 0 1 4.386580 3.214510 749.393982
352 0 1 4.946910 2.941840 750.150024
353 0 1 5.641460 2.693180 750.776978
354 0 1 6.211150 2.379580 751.530029
355 0 1 6.838340 1.973550 752.130981
356 0 1 7.241543 1.523580 752.908997
357 0 1 7.762019 1.241790 753.719971
358 0 1 8.414402 1.195550 754.460022
359 0 1 8.974264 1.360830 755.226013
360 0 1 9.518330 1.469740 756.042969
361 0 1 9.696239 1.464460 756.973999
362 0 1 9.700400 1.377160 757.950989
363 0 1 9.848840 1.563520 758.960022
364 0 1 9.898840 1.689980 759.947998
365 0 1 9.871770 1.704340 760.911987
366 0 1 9.960680 1.622630 761.872009
367 0 1 10.128390 1.859960 762.778015
368 0 1 10.232100 2.272960 763.735962
369 0 1 10.328880 2.719850 764.589966
370 0 1 10.269530 3.133590 765.460999
371 0 1 10.311729 3.215320 766.455017
372 0 1 10.330660 3.187910 767.386963
373 0 1 10.112500 3.337910 768.296021
374 0 1 9.565630 3.813560 768.921997
375 0 1 9.182240 4.222680 769.684998
376 0 1 8.979342 4.769690 770.429993
377 0 1 8.661193 5.311690 771.156006
378 0 1 8.220071 5.663720 771.971985
379 0 1 7.574528 5.878740 772.765991
380 0 1 6.976380 6.045750 773.536987
381 0 1 6.377420 6.113380 774.363037
382 0 1 6.128250 6.036160 775.353027
383 0 1 5.908060 5.819310 776.224976
384 0 1 6.122230 5.741740 777.177979
385 0 1 6.296110 5.895700 778.114990
386 0 1 6.538860 6.026860 779.009033
387 0 1 6.578890 5.935910 779.978027
388 0 1 6.513960 5.979130 780.927979
389 0 1 6.369180 6.432080 781.764038
390 0 1 6.544250 6.581080 782.705017
391 0 1 6.430380 6.737790 783.632019
392 0 1 6.562770 6.715870 784.622009
393 0 1 7.019269 6.840400 785.489990
394 0 1 7.567950 7.154587 786.255005
395 0 1 8.379404 7.405254 786.823975
396 0 1 8.660598 7.543584 787.718994
397 0 1 9.267730 7.943567 788.364990
398 0 1 9.949250 8.321298 788.947021
399 0 1 10.534300 8.906864 789.447021
400 0 1 11.024060 9.235810 790.346985
401 0 1 11.585381 9.640180 791.077026
402 0 1 11.972130 9.892350 791.919983
403 0 1 11.924829 10.197960 792.843994
404 0 1 11.620670 9.987070 793.735962
405 0 1 10.968320 9.815080 794.450012
406 0 1 10.501841 9.673610 795.265991
407 0 1 10.261850 9.403811 796.169983
408 0 1 9.833520 9.595810 796.994019
409 0 1 9.434160 10.016211 797.754028
410 0 1 8.961506 10.053200 798.615967
411 0 1 8.387492 10.128170 799.422974
412 0 1 7.808779 10.390600 800.174988
413 0 1 7.296561 10.354589 801.016968
414 0 1 6.687720 10.381020 801.718018
415 0 1 6.287940 10.358580 802.587036
416 0 1 6.047780 10.106560 803.445007
417 0 1 5.765870 9.948130 804.328979
418 0 1 5.286060 10.157940 805.153015
419 0 1 5.109690 10.519760 805.989014
420 0 1 4.872710 10.820400 806.854980
421 0 1 4.849550 11.093300 807.796997
422 0 1 4.693380 11.161710 808.740967
423 0 1 4.317060 11.346230 809.609009
424 0 1 4.240220 11.030270 810.492004
425 0 1 4.062670 10.605100 811.398010
426 0 1 3.865020 10.179840 812.208984
427 0 1 3.738040 9.719500 813.063965
428 0 1 3.901760 9.141340 813.812988
429 0 1 4.016090 8.618387 814.554016
430 0 1 3.872340 8.145445 815.379028
431 0 1 3.933470 7.859792 816.289001
432 0 1 4.079310 7.394917 817.182007
433 0 1 4.388390 6.832070 817.919983
434 0 1 4.674290 6.113930 818.544983
435 0 1 5.386790 5.693650 819.042969
436 0 1 6.101110 5.397560 819.624023
437 0 1 6.817000 5.041760 820.245972
438 0 1 7.512135 4.555890 820.639038
439 0 1 8.282935 3.996010 820.882996
440 0 1 8.983300 3.734520 821.437012
441 0 1 9.563320 3.658660 822.129028
442 0 1 10.054600 3.577490 823.007996
443 0 1 10.561080 3.766570 823.809021
444 0 1 10.773880 3.922340 824.726990
445 0 1 11.127871 3.879390 825.656006
446 0 1 11.301460 3.898610 826.577026
447 0 1 11.477160 3.920770 827.542969
448 0 1 11.721700 3.781500 828.520996
449 0 1 12.002960 3.593350 829.416016
450 0 1 12.217070 3.625150 830.363037
451 0 1 12.398170 3.811320 831.289978
452 0 1 12.340590 4.060690 832.265991
453 0 1 12.312420 4.529490 833.091980
454 0 1 11.860790 5.171580 833.734009
455 0 1 11.300230 5.849870 834.112000
456 0 1 10.634310 6.196340 834.682983
457 0 1 9.777400 6.393710 834.990967
458 0 1 8.831915 6.684480 835.125000
459 0 1 7.952236 7.034084 835.101990
460 0 1 7.083662 7.429835 834.828979
461 0 1 6.364580 7.965299 834.484985
462 0 1 5.634070 8.276064 833.984985
463 0 1 5.211400 8.411688 833.140015
464 0 1 4.800830 8.649329 832.278015
465 0 1 4.556080 9.081790 831.414001
466 0 1 4.645770 9.493460 830.567993
467 0 1 4.761080 9.750640 829.617981
468 0 1 5.259140 9.946080 828.785034
469 0 1 5.576120 10.226880 827.900024
470 0 1 5.647260 10.452350 826.971985
471 0 1 5.618160 10.590760 826.041016
472 0 1 5.381350 10.652860 825.094971
473 0 1 5.031010 10.730610 824.223999
474 0 1 4.768640 10.739830 823.307007
475 0 1 4.739300 10.531530 822.395020
476 0 1 5.109510 10.483050 821.453003
477 0 1 5.526220 10.684480 820.610962
478 0 1 5.773670 10.859200 819.723022
479 0 1 6.137470 11.043760 818.841980
480 0 1 6.583750 11.314199 817.987000
481 0 1 6.637660 11.460790 817.070007
482 0 1 6.825820 11.632960 816.148010
483 0 1 6.804050 11.631340 815.164001
484 0 1 6.813760 11.567940 814.197021
485 0 1 6.847010 11.500550 813.153992
486 0 1 6.711930 11.352591 812.193970
487 0 1 6.666930 11.436220 811.202026
488 0 1 6.652750 11.352080 810.205017
489 0 1 6.719100 11.008150 809.322998
490 0 1 6.750430 10.506410 808.476990
491 0 1 6.449670 9.965520 807.794983
492 0 1 5.958910 9.579500 807.042969
493 0 1 5.438910 9.253490 806.322998
494 0 1 4.946030 9.128300 805.562012
495 0 1 4.563830 9.225370 804.705994
496 0 1 4.426210 9.488560 803.813965
497 0 1 4.125420 9.628901 802.931030
498 0 1 4.264690 9.717970 801.955994
499 0 1 4.538220 9.861280 801.068970
500 0 1 4.834240 10.074630 800.226013
501 0 1 5.115510 10.352921 799.309998
502 0 1 5.317670 10.539580 798.427979
503 0 1 5.638670 10.922070 797.572021
504 0 1 5.859910 11.533020 796.807007
505 0 1 6.030110 12.047700 796.026001
506 0 1 5.836460 12.550400 795.205994
507 0 1 5.860830 12.799280 794.268982
508 0 1 6.074220 12.843201 793.291992
509 0 1 6.227090 12.926320 792.296997
510 0 1 6.445840 12.941299 791.343018
511 0 1 6.426500 12.580950 790.453003
512 0 1 6.420320 12.275949 789.547974
513 0 1 6.518550 12.095301 788.601013
514 0 1 6.917900 11.785300 787.687012
515 0 1 7.307712 11.555920 786.802002
516 0 1 7.734964 11.352200 786.016968
517 0 1 8.174880 11.375970 785.151001
518 0 1 8.804672 11.390340 784.398987
519 0 1 9.442420 11.376801 783.687012
520 0 1 10.191950 11.362820 783.085999
521 0 1 10.640940 11.361290 782.271973
522 0 1 11.014220 11.521230 781.385010
523 0 1 11.208320 11.642400 780.375977
524 0 1 11.308760 11.957650 779.462036
525 0 1 11.197860 12.086540 778.468018
526 0 1 11.076100 12.349640 777.528992
527 0 1 11.003290 12.676010 776.643982
528 0 1 10.981250 12.698650 775.700012
529 0 1 10.842421 12.885080 774.804016
530 0 1 10.772920 12.995680 773.786987
531 0 1 10.900560 13.166420 772.812988
532 0 1 10.858640 13.278040 771.877991
533 0 1 10.501130 13.228170 770.945984
534 0 1 10.274500 13.023260 770.070007
535 0 1 9.746930 12.751801 769.358032
536 0 1 9.036970 12.522631 768.744019
537 0 1 8.423745 12.264280 768.025024
538 0 1 7.935274 12.221980 767.197998
539 0 1 7.535753 11.987730 766.416992
540 0 1 7.121229 11.808290 765.634033
541 0 1 6.589430 11.767250 764.817017
542 0 1 6.044920 11.742020 764.015991
543 0 1 5.553680 11.406420 763.268005
544 0 1 5.268310 11.047060 762.417969
545 0 1 4.966070 10.822120 761.557007
546 0 1 4.826270 10.359350 760.656982
547 0 1 4.640100 9.852290 759.919983
548 0 1 4.457710 9.502920 759.044006
549 0 1 4.319060 9.155260 758.140015
550 0 1 4.282990 8.796814 757.188965
551 0 1 4.219130 8.734822 756.237976
552 0 1 4.007940 8.750967 755.252014
553 0 1 3.875640 8.974510 754.323975
554 0 1 3.667390 9.226430 753.450012
555 0 1 3.380980 9.784490 752.637024
556 0 1 3.562760 10.362329 751.843018
557 0 1 3.681720 10.982050 751.166016
558 0 1 3.780600 11.624001 750.440002
559 0 1 3.932620 12.181650 749.669983
560 0 1 4.156680 12.519110 748.747986
561 0 1 4.508100 12.669519 747.839966
562 0 1 4.640200 12.494890 746.888977
563 0 1 4.871420 12.414970 745.971008
564 0 1 5.348440 12.308870 745.140015
565 0 1 5.726600 12.614719 744.187988
566 0 1 6.196310 12.712680 743.365967
567 0 1 6.687710 12.884940 742.523010
568 0 1 7.006195 12.690950 741.554016
569 0 1 7.306145 12.449820 740.692017
570 0 1 7.602715 12.357491 739.747009
571 0 1 8.129598 12.515280 738.809021
572 0 1 8.469699 12.695510 737.995972
573 0 1 8.765225 12.756660 737.062988
574 0 1 9.023149 12.937140 736.114014
575 0 1 9.253070 12.827579 735.164001
576 0 1 9.583540 12.847080 734.249023
577 0 1 9.953080 13.061979 733.387024
578 0 1 10.198020 13.206770 732.450012
579 0 1 10.441890 13.307720 731.552979
580 0 1 10.529510 13.700050 730.622986
581 0 1 10.706310 13.972670 729.700012
582 0 1 11.031430 14.124950 728.809998
583 0 1 11.271210 13.739349 727.956421
584 0 1 11.810180 13.318670 727.189880
585 0 1 12.339570 12.992661 726.451111
586 0 1 12.664120 12.725710 725.614502
587 0 1 12.694150 12.431960 724.700317
588 0 1 12.748810 12.081989 723.774170
589 0 1 12.875441 11.846540 722.881287
590 0 1 12.802509 11.581960 721.924988
591 0 1 12.647290 11.570620 720.939575
592 0 1 12.431009 11.185300 720.078308
593 0 1 12.093810 10.617180 719.373779
594 0 1 11.997880 9.911060 718.667297
595 0 1 11.791750 9.401820 717.817871
596 0 1 11.705830 9.374290 716.814880
597 0 1 11.697650 9.391320 715.855591
598 0 1 11.480780 9.399780 714.851624
599 0 1 11.306980 9.386010 713.880798
600 0 1 10.876610 9.383030 712.940186
601 0 1 10.452190 9.266470 712.105591
602 0 1 10.078900 8.969106 711.285767
603 0 1 9.568930 8.889687 710.468811
604 0 1 9.292370 8.808969 709.552979
605 0 1 8.796436 8.791707 708.705505
606 0 1 8.357303 8.606783 707.946533
607 0 1 7.677939 8.164273 707.436279
608 0 1 7.026124 7.685892 706.959778
609 0 1 6.326440 7.243909 706.535767
610 0 1 5.587250 6.947110 705.965210
611 0 1 4.864300 6.583410 705.259399
612 0 1 4.414980 6.106930 704.546814
613 0 1 3.925060 5.799560 703.762390
614 0 1 3.628020 5.540900 702.888184
615 0 1 3.250600 5.269140 701.968323
616 0 1 2.848690 5.124760 701.048706
617 0 1 2.582070 5.068320 700.150391
618 0 1 2.309560 4.979220 699.248108
619 0 1 2.337540 5.071330 698.281311
620 0 1 2.301750 5.301420 697.339783
621 0 1 2.492600 5.605780 696.424988
622 0 1 2.606660 6.067040 695.564880
623 0 1 2.800430 6.518590 694.700500
624 0 1 2.870220 6.989170 693.801514
625 0 1 2.993660 7.364242 692.907715
626 0 1 3.220980 7.999549 692.090881
627 0 1 3.744120 8.226998 691.294006
628 0 1 4.482530 8.310615 690.624512
629 0 1 5.350260 8.495028 690.194580
630 0 1 6.206510 8.896236 689.982117
631 0 1 7.112369 9.079650 689.576904
632 0 1 7.858354 9.226100 688.999207
633 0 1 8.383934 9.291180 688.174011
634 0 1 8.874813 9.131140 687.308105
635 0 1 9.436780 9.044250 686.428772
636 0 1 9.855840 8.967311 685.506287
637 0 1 9.579760 8.834819 684.618591
638 0 1 9.134780 8.941281 683.823608
639 0 1 8.783517 9.059120 682.951172
640 0 1 8.296608 9.405740 682.150574
641 0 1 7.867443 9.418990 681.307373
642 0 1 7.273661 9.643410 680.589722
643 0 1 6.843310 9.569970 679.779480
644 0 1 6.290240 9.442170 678.955200
645 0 1 5.711640 9.411780 678.042480
646 0 1 5.485120 9.207660 677.129700
647 0 1 4.972890 9.168460 676.339294
648 0 1 4.586140 8.843723 675.566284
649 0 1 3.876650 8.569652 674.978271
650 0 1 3.333060 8.180970 674.257324
651 0 1 2.917650 7.902704 673.424377
652 0 1 2.629350 7.747804 672.474609
653 0 1 2.222630 7.570017 671.575378
654 0 1 2.135480 7.082234 670.770325
655 0 1 2.423160 6.545080 670.010376
656 0 1 2.613340 6.117280 669.116211
657 0 1 2.876200 5.961570 668.179504
658 0 1 2.970060 5.580290 667.270813
659 0 1 3.146420 5.194780 666.422119
660 0 1 3.526500 4.846680 665.621277
661 0 1 3.964430 4.464580 664.865601
662 0 1 4.326990 4.445420 663.924377
663 0 1 4.595200 4.397030 662.964478
664 0 1 4.700150 4.071730 662.035278
665 0 1 4.723400 4.067980 661.011108
666 0 1 4.768430 4.286630 660.088013
667 0 1 4.890550 4.562530 659.175110
668 0 1 4.863040 4.840650 658.273010
669 0 1 5.051640 4.779340 657.275513
670 0 1 5.391400 5.070640 656.354187
671 0 1 5.614870 5.532330 655.479675
672 0 1 5.936300 6.111440 654.818604
673 0 1 6.115980 6.809960 654.102478
674 0 1 6.550260 7.223216 653.365295
675 0 1 7.027215 7.460570 652.536682
676 0 1 7.392313 8.123116 651.894531
677 0 1 7.839635 8.720635 651.218323
678 0 1 8.198557 9.265770 650.517578
679 0 1 8.612054 9.593820 649.737915
680 0 1 8.888125 9.914420 648.905823
681 0 1 9.182670 10.347070 648.117493
682 0 1 9.538850 10.441830 647.246826
683 0 1 9.950480 10.253980 646.398987
684 0 1 10.334140 9.672000 645.739685
685 0 1 10.692720 9.157200 645.005005
686 0 1 10.896900 8.725017 644.114075
687 0 1 11.364059 8.403231 643.331421
688 0 1 11.667940 8.094598 642.436707
689 0 1 11.857030 8.287569 641.502014
690 0 1 11.855450 8.412039 640.593689
691 0 1 11.624550 8.440594 639.625671
692 0 1 11.303420 8.130405 638.739990
693 0 1 10.764200 7.915752 637.897705
694 0 1 10.200370 7.620302 637.185303
695 0 1 9.632010 7.580083 636.402222
696 0 1 9.142490 7.390409 635.600769
697 0 1 8.676218 7.599146 634.824585
698 0 1 8.480873 7.826843 633.893372
699 0 1 8.319043 8.093276 633.021973
700 0 1 8.343945 8.824306 632.397522
701 0 1 8.388632 9.645850 631.764343
702 0 1 8.551868 9.785250 630.811890
703 0 1 8.752404 9.915630 629.898071
704 0 1 9.085550 10.333310 629.103027
705 0 1 9.605550 10.583450 628.175110
706 0 1 9.789930 10.868980 627.308594
707 0 1 9.637860 11.323840 626.390564
708 0 1 9.262820 11.543000 625.512390
709 0 1 9.103640 11.844800 624.569336
710 0 1 8.910737 12.016040 623.626709
711 0 1 8.844614 12.023951 622.654663
712 0 1 8.398968 11.925540 621.769043
713 0 1 7.947183 11.739830 620.916626
714 0 1 7.268981 11.515650 620.234375
715 0 1 6.532150 11.362470 619.616089
716 0 1 6.006430 11.025050 618.883606
717 0 1 5.558710 10.782300 618.069885
718 0 1 5.400070 10.358690 617.260010
719 0 1 5.182440 10.172980 616.343811
720 0 1 5.102860 9.991510 615.383301
721 0 1 4.605970 10.307340 614.558228
722 0 1 4.145180 10.394020 613.718811
723 0 1 3.766750 10.305550 612.869629
724 0 1 3.562660 10.245090 611.961121
725 0 1 3.261400 10.056390 611.053284
726 0 1 3.119730 9.887250 610.058105
727 0 1 2.998020 9.638300 609.137207
728 0 1 2.942300 9.476640 608.136780
729 0 1 2.888460 9.483680 607.113892
730 0 1 2.891390 9.390120 606.110229
731 0 1 3.002500 9.149060 605.203369
732 0 1 3.277660 8.852244 604.367676
733 0 1 3.399660 8.285915 603.579712
734 0 1 3.631940 7.704916 602.876892
735 0 1 3.848610 7.055014 602.212097
736 0 1 4.145310 6.304200 601.715698
737 0 1 4.420480 5.455310 601.256409
738 0 1 4.618130 4.716660 600.684875
739 0 1 4.876010 4.214530 599.914917
740 0 1 4.977190 3.695350 599.094177
741 0 1 5.169630 3.103710 598.314087
742 0 1 5.446210 2.485820 597.612671
743 0 1 5.498440 1.936770 596.777283
744 0 1 5.524460 1.770090 595.860596
745 0 1 5.500220 2.005170 594.941284
746 0 1 5.260250 2.385330 594.095215
747 0 1 5.039090 2.492600 593.117004
748 0 1 5.088520 2.852490 592.153625
749 0 1 4.781790 3.172010 591.316284
750 0 1 4.454320 3.365270 590.473877
751 0 1 4.248940 3.433090 589.580078
752 0 1 4.146190 3.514410 588.571594
753 0 1 4.033800 3.497780 587.588074
754 0 1 3.628020 3.425290 586.613525
755 0 1 3.390270 3.645370 585.678284
756 0 1 3.360460 3.942690 584.748901
757 0 1 3.522680 4.558960 583.963074
758 0 1 3.698470 4.964550 583.109497
759 0 1 3.732290 5.327090 582.198730
760 0 1 3.818430 5.854780 581.404175
761 0 1 3.906680 5.995120 580.424805
762 0 1 3.973490 5.927200 579.490112
763 0 1 4.223020 6.058240 578.546326
764 0 1 4.277330 6.390760 577.668213
765 0 1 4.155040 6.647150 576.736328
766 0 1 3.802770 6.794210 575.872009
767 0 1 3.578700 7.106191 575.010986
768 0 1 3.290940 7.541256 574.186218
769 0 1 3.045430 7.683445 573.244080
770 0 1 2.801450 8.085767 572.419128
771 0 1 2.504910 8.329360 571.568298
772 0 1 2.221940 8.767224 570.681396
773 0 1 1.980660 9.020840 569.763977
774 0 1 1.714440 9.425980 568.938293
775 0 1 1.632140 9.854980 568.091492
776 0 1 1.669460 10.211970 567.170593
777 0 1 2.101880 10.477420 566.340088
778 0 1 2.391970 10.334690 565.424377
779 0 1 2.889010 10.317430 564.585999
780 0 1 3.371360 10.211320 563.715698
781 0 1 3.960700 10.303580 563.014893
782 0 1 4.684010 10.552200 562.352112
783 0 1 5.551240 10.695470 561.932312
784 0 1 6.483190 10.712880 561.725586
785 0 1 7.401893 10.752029 561.636719
786 0 1 8.255997 10.626841 561.265503
787 0 1 8.950411 10.934890 560.631592
788 0 1 9.593320 11.214560 559.933899
789 0 1 10.159410 11.203180 559.164429
790 0 1 10.640960 10.782050 558.397888
791 0 1 10.880820 10.429770 557.517822