LAMMPS data file via MDAnalysis

        1000  atoms
        1000  bonds
        1000  angles
           0  dihedrals
           0  impropers

           1  atom types
           1  bond types
           1  angle types
           0  dihedral types
           0  improper types

0.000000 16.000000 xlo xhi
0.000000 16.000000 ylo yhi
0.000000 1257.000000 zlo zhi


Masses

1 1.000000

Atoms

1 0 1 7.665597 6.274150 454.213989
2 0 1 7.225078 5.935490 455.065002
3 0 1 6.836540 5.423350 455.783997
4 0 1 6.424880 4.827380 456.364990
5 0 1 6.153440 4.373210 457.203979
6 0 1 6.162160 3.984340 458.130005
7 0 1 6.035800 3.542050 458.998993
8 0 1 5.778130 3.303160 459.906982
9 0 1 5.613550 3.010810 460.843994
10 0 1 5.309340 2.792160 461.778992
11 0 1 4.829880 2.699640 462.640991
12 0 1 4.368520 2.789790 463.557007
13 0 1 4.415200 3.047070 464.489990
14 0 1 4.601040 3.337950 465.372986
15 0 1 4.840580 3.642260 466.207001
16 0 1 5.149610 3.813170 467.187012
17 0 1 5.692770 3.858390 468.023010
18 0 1 6.395470 3.862390 468.687012
19 0 1 6.953570 3.987980 469.436005
20 0 1 7.231725 4.262360 470.296021
21 0 1 7.332757 4.685430 471.151978
22 0 1 7.282869 4.462610 472.033020
23 0 1 7.303112 4.715580 472.966980
24 0 1 7.493835 4.765390 473.903015
25 0 1 7.544423 4.773690 474.820007
26 0 1 7.403493 4.691980 475.789001
27 0 1 6.995460 4.869040 476.649994
28 0 1 6.868110 4.996450 477.585999
29 0 1 6.620120 4.801830 478.483002
30 0 1 6.231710 4.492470 479.388000
31 0 1 6.026940 4.147430 480.201996
32 0 1 5.622960 3.611870 480.977997
33 0 1 5.630260 3.374570 481.899994
34 0 1 5.635040 3.043420 482.786011
35 0 1 5.634330 2.565540 483.591003
36 0 1 5.940330 2.292240 484.557007
37 0 1 6.046730 2.015520 485.444000
38 0 1 6.369920 1.699630 486.268005
39 0 1 6.794890 1.653600 487.158020
40 0 1 7.061803 1.478470 488.093994
41 0 1 7.174682 1.522220 489.028992
42 0 1 7.180112 1.923210 489.916016
43 0 1 7.186409 2.404970 490.735992
44 0 1 7.662391 2.947890 491.460999
45 0 1 7.816382 3.520540 492.208984
46 0 1 8.049632 4.099570 493.005005
47 0 1 8.246656 4.513420 493.859985
48 0 1 8.424417 4.699430 494.752014
49 0 1 8.536186 4.938920 495.635010
50 0 1 8.676800 5.421420 496.423004
51 0 1 8.889204 5.903750 497.273010
52 0 1 9.041740 6.323220 498.080994
53 0 1 8.996805 6.726110 498.966003
54 0 1 8.640049 6.733970 499.873993
55 0 1 8.321905 6.541610 500.748993
56 0 1 8.145437 6.052760 501.589996
57 0 1 7.727570 5.709990 502.372009
58 0 1 7.304948 5.573830 503.200012
59 0 1 6.900030 5.625240 504.042999
60 0 1 6.845140 5.785540 504.977997
61 0 1 6.838300 5.703130 505.987000
62 0 1 6.773220 5.660910 506.958008
63 0 1 6.783910 5.908900 507.885010
64 0 1 6.618160 6.179370 508.808990
65 0 1 6.633430 6.550300 509.678009
66 0 1 6.816700 6.917640 510.639008
67 0 1 7.207081 7.214500 511.490997
68 0 1 7.653754 7.390024 512.414978
69 0 1 7.994717 7.522521 513.283020
70 0 1 7.945353 7.610492 514.234985
71 0 1 7.908298 7.659746 515.236023
72 0 1 7.756996 7.912159 516.193970
73 0 1 7.931744 8.186370 517.057983
74 0 1 8.084130 8.403986 517.987000
75 0 1 8.431241 8.673001 518.815979
76 0 1 8.678885 9.082500 519.645996
77 0 1 8.823543 9.067010 520.572998
78 0 1 8.584391 8.921629 521.515015
79 0 1 8.308111 8.569897 522.435974
80 0 1 8.374429 8.209586 523.332031
81 0 1 8.308154 7.880931 524.301025
82 0 1 8.371309 7.522135 525.189026
83 0 1 8.624056 7.167159 526.057007
84 0 1 8.669335 7.102403 527.007996
85 0 1 8.608032 6.958280 528.013000
86 0 1 8.600679 7.095561 528.966797
87 0 1 8.466404 7.233102 529.930786
88 0 1 8.109089 7.276522 530.822815
89 0 1 7.606632 7.297933 531.587769
90 0 1 7.085632 7.262468 532.425293
91 0 1 6.647420 7.234571 533.328308
92 0 1 6.027120 7.186919 534.042908
93 0 1 5.530760 7.076236 534.901733
94 0 1 5.303340 7.089708 535.863281
95 0 1 5.168840 6.912060 536.770630
96 0 1 5.177140 6.865910 537.742126
97 0 1 5.392910 6.575110 538.615906
98 0 1 5.517080 6.180550 539.489014
99 0 1 5.984710 5.648350 540.239075
100 0 1 6.622100 5.180170 540.744019
101 0 1 7.163650 4.900190 541.454895
102 0 1 7.448500 4.716040 542.333008
103 0 1 7.732983 4.356470 543.238586
104 0 1 8.141105 4.273840 544.119995
105 0 1 8.464492 4.346200 545.012329
106 0 1 8.914568 4.343020 545.858032
107 0 1 9.263990 4.575820 546.749084
108 0 1 9.516860 4.765610 547.636902
109 0 1 9.582220 5.261900 548.482178
110 0 1 9.767160 5.341750 549.450073
111 0 1 10.145810 5.474830 550.313110
112 0 1 10.352310 5.323860 551.244690
113 0 1 10.556770 5.163790 552.176697
114 0 1 10.775760 4.915030 553.080994
115 0 1 10.904040 4.738910 553.986206
116 0 1 10.931210 4.773380 554.964905
117 0 1 10.770360 4.823980 555.875610
118 0 1 10.508670 4.988570 556.816772
119 0 1 10.238260 5.353020 557.761902
120 0 1 9.918910 5.617090 558.657715
121 0 1 9.658440 5.976580 559.528809
122 0 1 9.882830 6.548560 560.300903
123 0 1 9.877560 6.858710 561.176270
124 0 1 9.908100 6.965960 562.158325
125 0 1 10.157480 7.312501 563.049194
126 0 1 10.494070 7.510494 563.907227
127 0 1 10.447230 7.564443 564.866089
128 0 1 10.351570 7.745130 565.742493
129 0 1 10.380680 7.814036 566.739502
130 0 1 10.357850 7.583278 567.697510
131 0 1 10.399370 7.597803 568.675903
132 0 1 10.431870 7.536895 569.643677
133 0 1 10.354800 7.516778 570.539490
134 0 1 10.385740 7.113307 571.456726
135 0 1 10.513700 6.838200 572.333191
136 0 1 10.663321 6.727610 573.278503
137 0 1 10.712860 6.623210 574.238525
138 0 1 10.742070 6.310070 575.198792
139 0 1 10.549789 6.022700 576.047974
140 0 1 10.380360 5.908880 577.022400
141 0 1 9.968030 5.736520 577.891907
142 0 1 9.573680 5.423330 578.742615
143 0 1 9.033210 5.326180 579.542908
144 0 1 8.378333 5.339510 580.318420
145 0 1 7.936243 5.314480 581.175781
146 0 1 7.690526 5.180480 582.085388
147 0 1 7.372400 5.295260 582.955078
148 0 1 7.276497 5.350240 583.911682
149 0 1 7.489251 5.610170 584.808289
150 0 1 7.550386 5.918120 585.725830
151 0 1 7.665448 6.187870 586.657104
152 0 1 7.867505 6.352280 587.545593
153 0 1 8.196968 6.624350 588.440002
154 0 1 8.433884 7.095229 589.258118
155 0 1 8.736622 7.476107 590.059509
156 0 1 9.123870 8.058397 590.744324
157 0 1 9.525070 8.637612 591.428284
158 0 1 9.649190 9.064070 592.264709
159 0 1 9.756980 9.528860 593.098328
160 0 1 9.454340 9.882910 594.015198
161 0 1 9.343180 10.201230 594.958984
162 0 1 9.166580 10.585490 595.832031
163 0 1 8.742246 11.093730 596.509583
164 0 1 8.178923 11.562400 597.135010
165 0 1 7.786189 11.967070 597.913696
166 0 1 7.328443 12.420640 598.655884
167 0 1 7.374289 12.788270 599.561890
168 0 1 7.579642 12.893290 600.518372
169 0 1 7.904732 12.700300 601.421692
170 0 1 8.210444 12.747570 602.372070
171 0 1 8.309199 12.523670 603.315430
172 0 1 8.436758 12.439751 604.260925
173 0 1 8.658528 12.572010 605.149780
174 0 1 8.740647 12.651279 606.070618
175 0 1 8.763866 12.263960 607.019592
176 0 1 8.916157 11.783360 607.851196
177 0 1 8.924728 11.206280 608.592224
178 0 1 8.970612 10.851020 609.539307
179 0 1 8.953315 10.347970 610.388489
180 0 1 8.808624 9.874630 611.124207
181 0 1 8.685436 9.125120 611.900818
182 0 1 8.472043 8.466321 612.538696
183 0 1 8.329344 7.694560 613.099182
184 0 1 8.369883 7.023164 613.837280
185 0 1 8.624634 6.372250 614.524414
186 0 1 8.763219 5.890750 615.313782
187 0 1 8.560481 5.174140 616.019897
188 0 1 8.415805 4.510970 616.659180
189 0 1 8.367911 3.809520 617.306580
190 0 1 8.432292 3.140870 617.995789
191 0 1 8.642815 2.504610 618.742920
192 0 1 8.925987 1.944140 619.493713
193 0 1 9.104680 1.797690 620.455750
194 0 1 9.039180 1.675010 621.393860
195 0 1 9.091450 1.429280 622.385315
196 0 1 9.286230 1.551280 623.292480
197 0 1 9.520900 1.719680 624.227905
198 0 1 9.827940 1.847240 625.206238
199 0 1 9.799960 1.834440 626.209717
200 0 1 9.851830 1.865020 627.167969
201 0 1 9.886780 1.754790 628.162842
202 0 1 9.883490 1.726970 629.120239
203 0 1 9.961780 1.797610 630.064270
204 0 1 10.318890 1.545180 630.908569
205 0 1 10.558020 1.518670 631.854980
206 0 1 10.877420 1.755250 632.737549
207 0 1 10.969481 2.014910 633.651062
208 0 1 10.927920 2.251670 634.543213
209 0 1 10.696530 2.797950 635.288879
210 0 1 10.423610 3.400690 635.954956
211 0 1 10.304570 4.073880 636.678101
212 0 1 9.893600 4.548100 637.401855
213 0 1 9.466200 4.897300 638.174438
214 0 1 9.181180 5.310180 639.045593
215 0 1 9.020190 5.807720 639.827393
216 0 1 8.911315 6.181560 640.707581
217 0 1 8.840505 6.491420 641.597900
218 0 1 8.670614 6.884190 642.501526
219 0 1 8.809309 7.670826 643.102295
220 0 1 9.188950 8.471360 643.525879
221 0 1 9.506140 9.085970 644.317810
222 0 1 9.848090 9.481060 645.132202
223 0 1 9.948610 9.914710 645.974182
224 0 1 10.160460 10.354080 646.873108
225 0 1 10.332700 10.745540 647.848999
226 0 1 10.341390 11.031530 648.781921
227 0 1 10.302660 11.428659 649.642212
228 0 1 10.062469 11.797610 650.509888
229 0 1 9.526470 12.215590 651.192688
230 0 1 8.975139 12.504789 651.981384
231 0 1 8.374405 12.718240 652.789307
232 0 1 7.872104 13.142700 653.492004
233 0 1 7.399759 13.191219 654.343201
234 0 1 7.090533 13.077070 655.238281
235 0 1 7.018301 12.583660 656.126587
236 0 1 6.892690 12.142799 656.994080
237 0 1 6.652520 11.887530 657.851929
238 0 1 6.229930 11.496759 658.623596
239 0 1 5.872550 11.096370 659.423096
240 0 1 5.551140 10.697530 660.223694
241 0 1 5.364790 10.527930 661.175781
242 0 1 5.312170 10.532180 662.176575
243 0 1 5.154970 10.741230 663.086487
244 0 1 5.060230 10.747350 664.090881
245 0 1 5.196850 10.954430 664.983276
246 0 1 5.334030 11.206250 665.954712
247 0 1 5.456700 11.382310 666.878296
248 0 1 5.494180 11.257441 667.831726
249 0 1 5.391570 11.091670 668.764282
250 0 1 5.494190 10.875800 669.686401
251 0 1 5.845730 10.785630 670.624878
252 0 1 6.280600 10.941450 671.442688
253 0 1 6.879090 10.970520 672.279419
254 0 1 7.439857 10.716000 673.041626
255 0 1 7.894632 10.263730 673.786072
256 0 1 8.035255 9.655140 674.518372
257 0 1 7.879036 9.235470 675.355896
258 0 1 7.741882 8.986108 676.268372
259 0 1 7.523643 8.851053 677.218323
260 0 1 7.317615 8.499032 678.104309
261 0 1 7.299937 7.920827 678.889099
262 0 1 7.090679 7.281084 679.599487
263 0 1 6.583510 7.012120 680.375305
264 0 1 6.043170 6.939000 681.229797
265 0 1 5.682270 6.910930 682.129272
266 0 1 5.534110 6.626610 683.039673
267 0 1 5.602930 6.514410 683.989319
268 0 1 5.704180 6.815200 684.901184
269 0 1 5.966380 7.167634 685.687805
270 0 1 6.114930 7.464117 686.597412
271 0 1 6.498140 8.018435 687.333008
272 0 1 6.998280 7.937154 688.192200
273 0 1 7.439282 7.986792 689.103210
274 0 1 7.961458 8.009963 689.920105
275 0 1 8.516420 8.004082 690.718201
276 0 1 9.069450 8.065580 691.478699
277 0 1 9.449710 7.991335 692.383972
278 0 1 9.798380 8.085486 693.223267
279 0 1 10.193960 8.007005 694.171204
280 0 1 10.571310 7.935091 695.133484
281 0 1 11.171100 7.946444 695.889282
282 0 1 11.716619 8.021613 696.675171
283 0 1 12.122681 8.276505 697.528503
284 0 1 12.458770 8.633977 698.367126
285 0 1 12.907761 8.771328 699.146729
286 0 1 13.315620 8.795929 700.003479
287 0 1 13.748370 9.002450 700.794006
288 0 1 14.057899 9.372700 701.657104
289 0 1 14.168039 9.773430 702.531799
290 0 1 13.997920 10.258490 703.417175
291 0 1 13.600121 10.662110 704.178223
292 0 1 13.105570 10.921820 704.973389
293 0 1 12.527240 11.044360 705.737915
294 0 1 12.074240 11.198540 706.562683
295 0 1 11.520990 11.399920 707.268677
296 0 1 11.112540 11.507310 708.130188
297 0 1 10.927620 11.371270 709.054016
298 0 1 10.747860 11.366340 710.005310
299 0 1 10.383400 11.510180 710.892883
300 0 1 10.144520 11.441550 711.843994
301 0 1 9.752270 11.058250 712.604309
302 0 1 9.528170 10.524540 713.357910
303 0 1 9.305710 9.838580 714.025696
304 0 1 8.913221 9.318350 714.766602
305 0 1 8.671886 8.987400 715.596191
306 0 1 8.659225 8.687524 716.581787
307 0 1 8.855974 8.316420 717.479126
308 0 1 9.241840 8.321080 718.379578
309 0 1 9.739820 8.170584 719.198425
310 0 1 10.065639 7.951283 720.072693
311 0 1 10.398830 7.936025 720.954407
312 0 1 10.824750 7.775884 721.797424
313 0 1 10.885740 7.713594 722.740784
314 0 1 10.586810 7.639301 723.711121
315 0 1 10.412680 7.832799 724.572876
316 0 1 10.407490 8.036518 725.585083
317 0 1 10.619780 8.210096 726.512085
318 0 1 10.662840 8.553003 727.401001
319 0 1 10.477700 9.067260 728.294678
320 0 1 9.951450 9.337650 729.041992
321 0 1 9.667440 9.535000 729.940979
322 0 1 9.470620 9.884820 730.762024
323 0 1 9.522830 9.932620 731.711975
324 0 1 9.508739 9.851000 732.718018
325 0 1 9.419950 10.116110 733.611023
326 0 1 9.504720 10.320990 734.542969
327 0 1 9.288780 10.579000 735.411987
328 0 1 9.170640 10.503450 736.335022
329 0 1 9.152570 10.195010 737.283020
330 0 1 8.831712 10.065599 738.155029
331 0 1 8.578785 9.882940 739.077026
332 0 1 8.150780 9.615370 739.828003
333 0 1 7.786344 9.427110 740.740967
334 0 1 7.784273 9.193210 741.653992
335 0 1 7.574609 8.871440 742.528992
336 0 1 7.534714 8.418766 743.354004
337 0 1 7.475354 7.796799 744.130981
338 0 1 7.424129 7.245315 744.862976
339 0 1 7.221603 6.876310 745.737976
340 0 1 6.924210 6.424960 746.542969
341 0 1 6.740170 6.125770 747.393005
342 0 1 7.102890 5.563610 748.101013
343 0 1 7.503650 5.109800 748.851013
344 0 1 7.425554 4.723210 749.687012
345 0 1 7.355860 4.508090 750.596985
346 0 1 7.162611 4.532800 751.523987
347 0 1 6.888490 4.611760 752.450012
348 0 1 6.877650 4.863030 753.385010
349 0 1 7.004174 4.942680 754.291016
350 0 1 7.185334 4.985100 755.260010
351 0 1 7.092900 5.086690 756.210999
352 0 1 6.968220 5.082490 757.167969
353 0 1 7.007405 4.995430 758.135986
354 0 1 6.805730 4.912330 759.093994
355 0 1 6.390930 4.690060 759.898987
356 0 1 6.135150 4.793150 760.872009
357 0 1 5.695720 4.971510 761.716003
358 0 1 5.304970 5.154890 762.541992
359 0 1 4.848350 5.429060 763.365967
360 0 1 4.145390 5.780760 763.922974
361 0 1 3.353570 5.978420 764.485962
362 0 1 2.709060 6.129910 765.167969
363 0 1 2.277620 6.412290 765.937012
364 0 1 2.004140 6.612140 766.794006
365 0 1 1.920810 6.719480 767.724976
366 0 1 1.847940 6.707850 768.648010
367 0 1 1.766670 6.653240 769.601990
368 0 1 1.785000 6.748310 770.570007
369 0 1 1.768030 6.972390 771.489014
370 0 1 1.866600 7.157490 772.416992
371 0 1 1.941280 7.449036 773.317993
372 0 1 2.318670 7.674415 774.233032
373 0 1 2.631560 7.953463 775.158020
374 0 1 3.204300 7.859309 776.056030
375 0 1 3.740380 7.836107 776.890015
376 0 1 4.362800 7.674593 777.619995
377 0 1 4.873610 7.645076 778.448975
378 0 1 5.554990 7.779396 779.140015
379 0 1 6.242170 7.730080 779.807007
380 0 1 6.847590 7.593968 780.567017
381 0 1 7.279511 7.526469 781.466003
382 0 1 7.829131 7.384736 782.294983
383 0 1 8.245763 7.572562 783.164001
384 0 1 8.556814 7.859967 784.049011
385 0 1 8.790351 7.576402 784.952026
386 0 1 9.362020 7.412323 785.776001
387 0 1 9.747490 7.150982 786.591980
388 0 1 10.106689 6.689830 787.410034
389 0 1 10.615970 6.243130 788.042969
390 0 1 11.112610 6.060010 788.864990
391 0 1 11.543760 5.875770 789.780029
392 0 1 11.838020 5.874460 790.695007
393 0 1 12.318430 5.606120 791.473022
394 0 1 12.846240 5.338650 792.203003
395 0 1 13.251760 5.641510 793.025024
396 0 1 13.151370 5.877080 794.013000
397 0 1 13.027960 6.262360 794.891968
398 0 1 12.726210 6.636890 795.686035
399 0 1 12.449570 6.620370 796.640991
400 0 1 12.398211 6.386080 797.514038
401 0 1 12.182990 6.357810 798.411011
402 0 1 11.754750 6.303900 799.299011
403 0 1 11.464300 6.273020 800.229004
404 0 1 11.179440 6.169590 801.166992
405 0 1 10.868410 5.929780 802.083984
406 0 1 10.731950 5.525400 802.931030
407 0 1 10.603991 5.040640 803.789978
408 0 1 10.715030 4.639220 804.645996
409 0 1 10.761700 4.436940 805.559998
410 0 1 10.999850 4.317280 806.502991
411 0 1 11.393090 4.227530 807.364014
412 0 1 11.677620 4.247970 808.250000
413 0 1 11.856280 3.904770 809.124023
414 0 1 11.896490 3.674120 810.031006
415 0 1 11.928140 3.346360 810.901001
416 0 1 11.672630 3.096570 811.759033
417 0 1 11.632450 2.986140 812.671021
418 0 1 11.733891 2.693610 813.648010
419 0 1 11.812020 2.499900 814.614014
420 0 1 11.573130 2.509880 815.565002
421 0 1 10.939490 2.852040 816.287964
422 0 1 10.058490 2.996080 816.729004
423 0 1 9.349360 3.129280 817.395020
424 0 1 8.670269 3.327030 818.134033
425 0 1 8.234440 3.157430 818.921997
426 0 1 8.075819 2.875220 819.891968
427 0 1 8.012437 2.491120 820.825989
428 0 1 7.927540 2.186010 821.721985
429 0 1 7.751862 2.183810 822.693970
430 0 1 7.533279 2.153390 823.627014
431 0 1 7.361882 2.403630 824.552002
432 0 1 7.135058 2.841000 825.382996
433 0 1 6.953410 3.186830 826.286011
434 0 1 6.481530 3.456360 827.164001
435 0 1 6.093860 3.775070 828.000977
436 0 1 5.710740 3.812640 828.911987
437 0 1 5.197890 3.852160 829.745972
438 0 1 4.794900 3.538040 830.559998
439 0 1 4.606560 3.330540 831.537964
440 0 1 4.582540 3.419990 832.530029
441 0 1 4.631610 3.676670 833.386963
442 0 1 4.553120 4.331350 834.143982
443 0 1 4.761100 4.876210 834.960999
444 0 1 5.329090 5.286290 835.781006
445 0 1 5.649970 5.845140 836.580017
446 0 1 6.170250 6.171780 837.354980
447 0 1 6.534880 6.567670 838.174988
448 0 1 7.079281 6.523410 838.916016
449 0 1 7.889921 6.613480 839.414001
450 0 1 8.821404 6.817360 839.567017
451 0 1 9.736050 7.109524 839.641968
452 0 1 10.611210 7.305478 839.296997
453 0 1 11.562710 7.471243 839.234985
454 0 1 12.433530 7.521048 838.872986
455 0 1 13.138900 7.661328 838.257996
456 0 1 13.745300 7.810990 837.580017
457 0 1 14.133110 8.016162 836.763000
458 0 1 14.473820 8.138124 835.898987
459 0 1 14.636610 8.320007 834.997986
460 0 1 14.644720 8.605795 834.049011
461 0 1 14.593700 8.899637 833.150024
462 0 1 14.533820 9.013670 832.205994
463 0 1 14.309830 9.219220 831.306030
464 0 1 14.236570 9.382550 830.354004
465 0 1 14.217100 9.665990 829.440002
466 0 1 13.946751 9.719800 828.536011
467 0 1 13.508039 9.877090 827.708984
468 0 1 13.194260 9.998420 826.809021
469 0 1 12.671240 9.708360 826.080994
470 0 1 12.434600 9.408570 825.184021
471 0 1 12.432600 9.205800 824.151001
472 0 1 12.317410 8.796498 823.291016
473 0 1 12.286560 8.146204 822.575989
474 0 1 12.293620 7.301454 821.947021
475 0 1 12.452990 6.615680 821.328979
476 0 1 12.736720 5.985440 820.674988
477 0 1 12.646339 5.478790 819.905029
478 0 1 12.689480 5.294010 818.916016
479 0 1 12.639580 5.409520 817.924988
480 0 1 12.568769 5.508990 816.908997
481 0 1 12.663860 5.539750 815.973999
482 0 1 12.569110 5.552510 815.007996
483 0 1 12.260590 5.410150 814.140991
484 0 1 11.850200 5.393400 813.166016
485 0 1 11.427100 5.345780 812.333984
486 0 1 10.773360 4.829180 811.802002
487 0 1 10.248130 4.309580 811.210999
488 0 1 9.610970 3.994990 810.572021
489 0 1 9.013920 3.886750 809.786987
490 0 1 8.463451 3.773140 809.005981
491 0 1 8.173037 3.505660 808.135010
492 0 1 7.999315 3.489240 807.158997
493 0 1 7.748083 3.720750 806.296997
494 0 1 7.247258 3.834760 805.447021
495 0 1 6.535300 4.035910 804.760986
496 0 1 6.039070 4.257410 803.950012
497 0 1 5.628490 4.556990 803.161011
498 0 1 5.560920 5.019810 802.286987
499 0 1 5.967070 5.106760 801.416992
500 0 1 6.696250 5.204740 800.794983
501 0 1 6.922500 5.338280 799.830994
502 0 1 6.800780 5.093320 798.906006
503 0 1 6.560540 4.935040 798.000000
504 0 1 6.620890 4.704960 797.049011
505 0 1 6.820240 4.565760 796.132996
506 0 1 6.628280 4.710790 795.129028
507 0 1 6.464490 5.155420 794.346985
508 0 1 6.263170 5.662460 793.484985
509 0 1 6.258530 6.096710 792.603027
510 0 1 6.256620 6.521480 791.781006
511 0 1 6.237040 6.801910 790.882019
512 0 1 6.116860 7.274665 789.992981
513 0 1 5.804790 7.574066 789.127014
514 0 1 5.580230 7.893258 788.143005
515 0 1 5.492980 7.986290 787.193970
516 0 1 5.430130 7.977877 786.203003
517 0 1 5.461750 8.017275 785.200012
518 0 1 5.655500 7.983747 784.257996
519 0 1 5.513940 8.069970 783.333984
520 0 1 5.244470 8.254495 782.510986
521 0 1 4.967000 8.324177 781.601990
522 0 1 5.129190 8.570908 780.648987
523 0 1 5.279050 8.753516 779.726990
524 0 1 5.428130 9.142580 778.891968
525 0 1 5.549320 9.680350 778.089966
526 0 1 5.940970 10.298080 777.468994
527 0 1 6.566690 10.852350 777.010010
528 0 1 7.035060 11.434570 776.502014
529 0 1 7.561525 11.881880 775.802002
530 0 1 8.078188 11.873320 774.981018
531 0 1 8.538101 11.965440 774.134033
532 0 1 8.977730 11.886390 773.302002
533 0 1 9.269150 11.470200 772.414978
534 0 1 9.594880 11.316380 771.535034
535 0 1 9.907940 11.214590 770.643982
536 0 1 10.029690 11.173880 769.677002
537 0 1 10.190240 11.298389 768.742981
538 0 1 10.340770 11.408470 767.764038
539 0 1 10.831110 11.497800 766.856995
540 0 1 11.280760 11.219670 766.130005
541 0 1 11.525330 11.167749 765.210022
542 0 1 11.868600 11.336010 764.309021
543 0 1 12.008130 11.597340 763.359009
544 0 1 12.206350 11.625840 762.452026
545 0 1 12.312241 11.644810 761.474976
546 0 1 11.976240 12.145960 760.776978
547 0 1 11.477970 12.539750 760.054993
548 0 1 10.761740 12.882290 759.520996
549 0 1 10.387840 13.277580 758.754028
550 0 1 9.620220 13.506140 758.265991
551 0 1 8.877925 13.456420 757.687988
552 0 1 8.384306 13.552700 756.908997
553 0 1 8.085724 13.595380 756.010010
554 0 1 8.279582 13.555820 755.000000
555 0 1 8.643262 13.383080 754.086975
556 0 1 9.045620 13.432020 753.137024
557 0 1 9.268670 13.310600 752.244995
558 0 1 9.313570 13.187050 751.276001
559 0 1 9.178470 12.843980 750.432983
560 0 1 8.957403 12.396610 749.598999
561 0 1 8.929911 11.725310 748.833984
562 0 1 8.707261 11.167160 748.080994
563 0 1 8.792323 10.678340 747.257996
564 0 1 8.665645 9.922560 746.612000
565 0 1 8.854226 9.380939 745.877014
566 0 1 9.088160 8.978501 744.966980
567 0 1 9.007160 8.536747 744.065979
568 0 1 8.908408 8.181248 743.242981
569 0 1 8.829547 7.956134 742.323975
570 0 1 8.480956 7.618831 741.461975
571 0 1 8.222061 7.540620 740.562012
572 0 1 7.994987 7.321430 739.632019
573 0 1 7.721898 7.355280 738.733032
574 0 1 7.519791 7.345052 737.809998
575 0 1 7.198381 7.449650 736.919983
576 0 1 6.944050 7.454611 736.026001
577 0 1 6.444940 7.524040 735.171021
578 0 1 6.055870 7.615688 734.304016
579 0 1 5.734620 7.759410 733.364014
580 0 1 5.601720 7.631946 732.358032
581 0 1 5.680440 7.461173 731.437988
582 0 1 5.945260 7.474195 730.497986
583 0 1 6.380590 7.660373 729.679993
584 0 1 6.793380 7.752828 728.809998
585 0 1 6.960910 7.785437 727.857666
586 0 1 7.005238 7.806666 726.932007
587 0 1 7.211722 7.773521 726.044678
588 0 1 7.342492 7.690827 725.148315
589 0 1 7.184068 7.499885 724.185486
590 0 1 7.183645 7.106367 723.275391
591 0 1 7.443378 6.800930 722.424683
592 0 1 7.776515 6.570800 721.499634
593 0 1 8.121280 6.374440 720.652832
594 0 1 8.428780 6.534970 719.781799
595 0 1 8.487735 6.731300 718.830566
596 0 1 8.553500 6.714950 717.856934
597 0 1 8.590251 6.656260 716.927124
598 0 1 8.638533 6.620580 715.916626
599 0 1 8.866582 6.554700 714.988098
600 0 1 9.207090 6.518440 714.104309
601 0 1 9.608580 6.451080 713.226074
602 0 1 9.979850 6.531780 712.341003
603 0 1 10.312520 6.348060 711.490112
604 0 1 10.478690 6.038730 710.612427
605 0 1 10.450809 5.723390 709.647278
606 0 1 10.611240 5.545110 708.649902
607 0 1 10.672920 5.289250 707.695068
608 0 1 10.657450 4.772820 706.899109
609 0 1 10.698390 4.354210 706.049927
610 0 1 11.114450 4.019750 705.215820
611 0 1 11.172430 3.784070 704.299194
612 0 1 11.248620 3.520120 703.351929
613 0 1 10.878500 3.504940 702.466919
614 0 1 10.398740 3.480630 701.662781
615 0 1 9.903790 3.401720 700.851685
616 0 1 9.448990 3.464210 699.998779
617 0 1 8.824752 3.536080 699.268799
618 0 1 8.251104 3.791070 698.622925
619 0 1 7.722125 4.455820 698.135681
620 0 1 7.030970 4.836120 697.615723
621 0 1 6.364480 5.024530 696.917603
622 0 1 5.837180 5.493130 696.236389
623 0 1 5.449090 5.904190 695.508118
624 0 1 4.911050 6.214100 694.749878
625 0 1 4.659870 6.151470 693.809387
626 0 1 4.656990 6.188960 692.825928
627 0 1 4.668940 6.483290 691.887329
628 0 1 4.638600 7.022782 691.102295
629 0 1 4.621060 7.585077 690.345581
630 0 1 4.666130 8.247561 689.621826
631 0 1 4.592680 8.721291 688.783875
632 0 1 4.393820 9.073800 687.881714
633 0 1 4.301120 9.366860 686.964417
634 0 1 4.341270 9.776190 686.055908
635 0 1 4.454300 10.299960 685.270203
636 0 1 4.666280 10.626141 684.431213
637 0 1 5.154570 10.764980 683.596069
638 0 1 5.130440 10.849830 682.619507
639 0 1 5.406730 10.967640 681.670532
640 0 1 5.684560 11.052420 680.705078
641 0 1 5.784810 10.932040 679.712769
642 0 1 6.019450 10.511850 678.830627
643 0 1 6.064640 10.167030 677.939819
644 0 1 6.131300 9.685890 677.127930
645 0 1 6.343500 9.087520 676.393188
646 0 1 6.399600 8.571251 675.656982
647 0 1 6.317780 8.237494 674.749023
648 0 1 6.263040 8.094513 673.799805
649 0 1 6.220540 7.992948 672.766968
650 0 1 6.192470 7.867398 671.815308
651 0 1 5.969060 7.803091 670.866577
652 0 1 5.579130 7.516870 670.033997
653 0 1 5.136420 7.465933 669.189880
654 0 1 4.674280 7.435866 668.377625
655 0 1 4.248670 7.066960 667.628113
656 0 1 4.130750 6.816230 666.682617
657 0 1 3.933910 6.481430 665.832275
658 0 1 3.712750 6.198060 664.952393
659 0 1 4.023760 6.134400 664.009521
660 0 1 4.515570 6.406810 663.209473
661 0 1 4.775390 6.983830 662.427490
662 0 1 4.488190 7.645668 661.827881
663 0 1 4.272530 8.148474 661.011292
664 0 1 4.154480 8.630894 660.113770
665 0 1 4.375300 8.930338 659.273315
666 0 1 4.648860 8.907407 658.318420
667 0 1 5.027820 8.639487 657.486877
668 0 1 5.458110 8.097086 656.828369
669 0 1 6.124260 7.473004 656.347290
670 0 1 6.705210 7.107062 655.593079
671 0 1 7.360555 6.742690 654.945374
672 0 1 8.058811 6.747240 654.303711
673 0 1 8.726113 6.674330 653.670288
674 0 1 9.157190 6.535220 652.840881
675 0 1 9.570650 6.527260 651.969971
676 0 1 9.783510 6.293540 651.088684
677 0 1 10.048610 5.850720 650.278687
678 0 1 10.365530 5.646010 649.443726
679 0 1 10.468480 5.174580 648.550415
680 0 1 10.294360 4.714990 647.718323
681 0 1 10.146200 4.345750 646.857910
682 0 1 9.798840 4.109780 645.978699
683 0 1 9.595970 3.993250 645.005615
684 0 1 9.399700 3.790220 644.097900
685 0 1 9.402280 3.596670 643.144409
686 0 1 9.360740 3.587080 642.176819
687 0 1 9.125360 3.497200 641.230774
688 0 1 9.079600 3.384960 640.232727
689 0 1 8.989674 3.292800 639.262512
690 0 1 9.266230 3.051000 638.372437
691 0 1 9.247600 3.024120 637.385620
692 0 1 8.967561 3.064420 636.437073
693 0 1 8.508937 3.286800 635.654724
694 0 1 8.267991 3.731240 634.756470
695 0 1 7.819182 3.893650 633.850830
696 0 1 7.401519 4.179610 633.074036
697 0 1 7.111476 4.419430 632.190552
698 0 1 6.818300 4.756300 631.349854
699 0 1 6.639190 5.280620 630.639099
700 0 1 6.719840 5.992120 629.992493
701 0 1 6.543620 6.585720 629.288757
702 0 1 6.595000 7.466857 628.877930
703 0 1 6.785170 8.094683 628.167175
704 0 1 6.940110 8.813700 627.650513
705 0 1 6.941680 9.362020 626.823486
706 0 1 6.959620 9.863510 626.028320
707 0 1 7.030112 10.480619 625.247986
708 0 1 7.021625 10.794320 624.397949
709 0 1 7.152746 10.767690 623.508423
710 0 1 7.478736 10.715540 622.599792
711 0 1 7.884539 10.891180 621.725708
712 0 1 8.246160 11.053329 620.842529
713 0 1 8.446442 11.144040 619.978760
714 0 1 8.800433 10.814390 619.174072
715 0 1 9.420870 10.602660 618.500854
716 0 1 10.091830 10.390270 617.860718
717 0 1 10.453960 10.236430 617.007996
718 0 1 10.637850 9.975400 616.105286
719 0 1 10.817120 9.827490 615.185181
720 0 1 11.070110 9.525550 614.219421
721 0 1 11.054270 9.294060 613.308594
722 0 1 10.830250 8.776559 612.547424
723 0 1 10.559010 8.323086 611.725403
724 0 1 10.635270 8.162036 610.783386
725 0 1 10.705660 7.999125 609.848816
726 0 1 11.029500 7.901343 608.923584
727 0 1 11.632640 7.781434 608.113892
728 0 1 12.098030 7.543779 607.320190
729 0 1 12.163071 7.289152 606.374329
730 0 1 12.013940 7.133126 605.454895
731 0 1 12.036060 7.266049 604.477600
732 0 1 11.874070 7.577668 603.573486
733 0 1 11.479900 7.688883 602.713806
734 0 1 11.095000 7.623731 601.862427
735 0 1 10.692990 7.565567 600.972107
736 0 1 10.265060 7.645681 600.089478
737 0 1 10.548270 7.954656 599.174683
738 0 1 10.977859 8.380567 598.402527
739 0 1 11.097090 8.521771 597.420471
740 0 1 10.990800 8.618904 596.445496
741 0 1 11.262569 8.882549 595.548096
742 0 1 11.496810 9.234190 594.632812
743 0 1 12.024210 9.172210 593.837708
744 0 1 12.359420 9.117500 592.900085
745 0 1 12.714690 8.961316 592.018311
746 0 1 13.064580 8.782010 591.057800
747 0 1 13.387980 9.015260 590.091980
748 0 1 13.399370 9.064300 589.147583
749 0 1 13.218660 8.822144 588.194214
750 0 1 13.012440 8.562092 587.277588
751 0 1 12.909510 8.464103 586.292480
752 0 1 12.748230 8.271718 585.374817
753 0 1 12.419411 8.354201 584.471619
754 0 1 12.152090 8.210182 583.594482
755 0 1 11.864250 8.015814 582.753479
756 0 1 11.509620 7.716319 581.944092
757 0 1 10.999100 7.443668 581.124268
758 0 1 10.502720 7.232990 580.338379
759 0 1 10.154620 7.140259 579.409973
760 0 1 10.348230 7.112304 578.405701
761 0 1 10.608950 7.188207 577.514099
762 0 1 10.738700 7.411440 576.473999
763 0 1 10.502990 7.436951 575.575989
764 0 1 10.101390 7.625957 574.694580
765 0 1 9.817940 8.019004 573.841675
766 0 1 9.183300 8.256925 573.092712
767 0 1 8.849308 8.360120 572.143982
768 0 1 8.555990 8.407985 571.275818
769 0 1 8.206239 8.532685 570.351318
770 0 1 7.653122 8.689598 569.576111
771 0 1 7.305388 8.934270 568.731506
772 0 1 6.968300 9.431870 567.988403
773 0 1 6.742760 9.866760 567.130615
774 0 1 6.798410 10.277340 566.231323
775 0 1 6.662550 10.651480 565.370789
776 0 1 6.651180 11.083740 564.574585
777 0 1 6.707340 11.343270 563.610901
778 0 1 6.593410 11.862420 562.862183
779 0 1 6.337660 12.193560 561.987427
780 0 1 5.841590 12.592440 561.188599
781 0 1 5.373220 12.683331 560.314392
782 0 1 5.012280 12.800840 559.448303
783 0 1 4.842410 12.970660 558.480774
784 0 1 4.799220 13.263371 557.623413
785 0 1 4.724500 13.395861 556.631226
786 0 1 4.828480 13.425090 555.711304
787 0 1 5.165800 13.519051 554.730774
788 0 1 5.372310 13.645540 553.804626
789 0 1 5.695800 13.808540 552.927002
790 0 1 5.993340 14.030720 552.094116
791 0 1 6.158370 13.919510 551.168213
792 0 1 6.058130 13.980801 550.192078
793 0 1 5.918810 14.135389 549.271729