LAMMPS data file via MDAnalysis

        1000  atoms
        1000  bonds
        1000  angles
           0  dihedrals
           0  impropers

           1  atom types
           1  bond types
           1  angle types
           0  dihedral types
           0  improper types

0.000000 16.000000 xlo xhi
0.000000 16.000000 ylo yhi
0.000000 1257.000000 zlo zhi


Masses

1 1.000000

Atoms

1 0 1 4.263790 5.492890 454.255005
2 0 1 4.204990 5.573290 455.325012
3 0 1 4.057210 5.693190 456.322021
4 0 1 3.978610 5.675750 457.274994
5 0 1 3.848450 5.593960 458.239990
6 0 1 3.641650 5.360570 459.162994
7 0 1 3.650130 5.111620 460.100006
8 0 1 3.359030 5.077360 460.989990
9 0 1 3.097830 5.253090 461.929016
10 0 1 3.057570 5.698600 462.776001
11 0 1 2.960880 5.897760 463.707001
12 0 1 2.790150 6.244670 464.613007
13 0 1 2.782510 6.142120 465.643005
14 0 1 2.927530 6.309630 466.542999
15 0 1 3.019480 6.579930 467.489990
16 0 1 3.027980 6.762720 468.463013
17 0 1 2.974920 6.774020 469.432983
18 0 1 3.247910 7.191925 470.260986
19 0 1 3.400570 7.549896 471.138000
20 0 1 3.566210 7.593598 472.059021
21 0 1 3.796330 7.652961 473.015015
22 0 1 4.286420 8.181512 473.669006
23 0 1 4.706780 8.888568 474.167999
24 0 1 4.855220 9.709430 474.731018
25 0 1 5.071180 10.486740 475.279999
26 0 1 5.356780 11.315960 475.806000
27 0 1 5.590580 11.904119 476.483002
28 0 1 6.117630 12.418200 477.002014
29 0 1 6.930910 12.574900 477.559021
30 0 1 7.519356 12.582010 478.289001
31 0 1 8.008492 12.588930 479.091003
32 0 1 8.453002 12.719100 479.890015
33 0 1 8.586568 12.863680 480.786011
34 0 1 9.034920 13.152670 481.640991
35 0 1 9.196600 13.143810 482.641998
36 0 1 9.197420 13.336290 483.585022
37 0 1 9.127190 13.657061 484.501007
38 0 1 9.211810 13.733641 485.511993
39 0 1 9.329720 13.684080 486.507019
40 0 1 9.351980 13.683220 487.509003
41 0 1 9.167530 13.665430 488.444000
42 0 1 8.911210 13.720390 489.364990
43 0 1 8.685930 13.774130 490.328979
44 0 1 8.446954 13.659050 491.273010
45 0 1 7.983814 13.288760 491.976013
46 0 1 7.439156 12.724430 492.529999
47 0 1 6.650120 12.424040 492.983002
48 0 1 5.820910 12.044030 493.431000
49 0 1 5.149090 11.634280 493.936005
50 0 1 4.405450 11.258650 494.404999
51 0 1 3.793000 10.879880 495.104980
52 0 1 3.281220 10.499690 495.798004
53 0 1 2.783050 9.986360 496.432007
54 0 1 2.479070 9.598270 497.276978
55 0 1 2.091940 9.313590 498.121002
56 0 1 1.760750 8.948875 498.914978
57 0 1 1.620140 8.499485 499.770020
58 0 1 1.547370 8.245988 500.746002
59 0 1 1.334970 8.264974 501.662994
60 0 1 1.413510 8.367846 502.794983
61 0 1 1.463520 8.654840 503.704010
62 0 1 1.445830 9.017330 504.593018
63 0 1 1.598070 9.284060 505.502014
64 0 1 1.697010 9.701220 506.306000
65 0 1 1.957700 9.878880 507.217010
66 0 1 1.906960 10.018120 508.212006
67 0 1 1.803340 10.047710 509.221008
68 0 1 2.065470 9.883260 510.156982
69 0 1 2.414930 9.639720 511.009003
70 0 1 2.777160 9.364040 511.894989
71 0 1 3.001560 8.983155 512.755005
72 0 1 2.871130 8.261930 513.400024
73 0 1 2.616970 7.625190 514.085999
74 0 1 2.467110 7.052836 514.846985
75 0 1 2.320370 6.418230 515.562012
76 0 1 2.671250 5.792970 516.219971
77 0 1 2.830660 5.005810 516.801025
78 0 1 3.292210 4.284360 517.122009
79 0 1 3.742980 3.581960 517.586975
80 0 1 4.358200 2.979910 517.950012
81 0 1 4.895300 2.525130 518.658020
82 0 1 5.344700 2.335460 519.531982
83 0 1 5.763420 2.221610 520.457031
84 0 1 5.909140 2.350920 521.388977
85 0 1 6.199870 2.633040 522.252014
86 0 1 6.448720 2.908300 523.098999
87 0 1 6.761620 3.400200 523.926025
88 0 1 7.200494 4.069460 524.489990
89 0 1 7.811918 4.591570 525.158997
90 0 1 8.324115 5.262160 525.728027
91 0 1 8.562561 6.045930 526.270020
92 0 1 8.965121 6.708880 526.859985
93 0 1 9.295930 7.467984 527.292969
94 0 1 9.534800 8.316325 527.700012
95 0 1 9.670420 8.881966 528.481995
96 0 1 9.627630 9.543130 529.187012
97 0 1 9.366410 10.189840 529.823975
98 0 1 9.095530 10.563330 530.735474
99 0 1 8.866735 10.848320 531.644226
100 0 1 8.889978 10.903090 532.569702
101 0 1 8.729328 10.887130 533.553406
102 0 1 8.710363 10.759730 534.567627
103 0 1 8.923096 10.548050 535.460876
104 0 1 9.006450 9.938180 536.286804
105 0 1 8.879806 9.637130 537.202393
106 0 1 8.755186 9.572750 538.138000
107 0 1 8.689768 9.287000 539.023315
108 0 1 8.300750 8.962866 539.886597
109 0 1 8.172154 8.704855 540.845520
110 0 1 8.243478 8.549501 541.814026
111 0 1 7.846936 8.323951 542.681274
112 0 1 7.704381 8.252238 543.655090
113 0 1 7.465379 7.844323 544.517090
114 0 1 7.102110 7.482778 545.335205
115 0 1 6.716630 7.362060 546.282471
116 0 1 6.509920 7.317999 547.211426
117 0 1 6.031210 7.555458 548.033997
118 0 1 5.625810 7.629324 548.897583
119 0 1 5.242600 7.595449 549.766602
120 0 1 4.860410 7.995418 550.519775
121 0 1 4.463930 8.364345 551.283020
122 0 1 4.073440 8.658883 552.138000
123 0 1 4.010410 8.637004 553.074219
124 0 1 4.307380 8.711594 553.963074
125 0 1 4.716690 8.799716 554.859619
126 0 1 5.105950 8.897573 555.763123
127 0 1 5.170890 9.119620 556.711670
128 0 1 5.272220 9.232390 557.726379
129 0 1 5.268650 9.477221 558.687683
130 0 1 5.344850 9.803920 559.601685
131 0 1 5.605500 10.084920 560.480713
132 0 1 6.052820 10.226891 561.394104
133 0 1 6.529830 9.913670 562.125610
134 0 1 7.021613 9.757310 562.917969
135 0 1 7.398962 9.627390 563.830688
136 0 1 7.686574 9.530581 564.738403
137 0 1 7.861845 9.459530 565.677002
138 0 1 7.836157 9.739120 566.632019
139 0 1 7.538393 9.817900 567.550598
140 0 1 7.231484 9.767650 568.408386
141 0 1 7.153865 9.662750 569.367615
142 0 1 7.199662 9.428890 570.291199
143 0 1 7.161494 9.342690 571.306580
144 0 1 7.424097 9.273520 572.263916
145 0 1 7.706237 8.963274 573.112610
146 0 1 7.675464 8.690236 574.076599
147 0 1 7.632217 8.506943 575.047729
148 0 1 7.707910 8.485571 576.006592
149 0 1 7.717318 8.707855 577.037292
150 0 1 7.806329 8.963192 577.938293
151 0 1 8.175025 9.100570 578.805603
152 0 1 8.550286 9.478930 579.634277
153 0 1 8.966321 9.907320 580.440430
154 0 1 9.410380 10.293119 581.185181
155 0 1 9.649470 10.885860 581.873596
156 0 1 10.109280 11.423440 582.625488
157 0 1 10.452760 11.775820 583.426270
158 0 1 10.684031 11.947050 584.314575
159 0 1 10.777730 12.096280 585.275513
160 0 1 10.609760 12.213640 586.207703
161 0 1 10.617030 12.273701 587.161926
162 0 1 10.914240 12.314930 588.015869
163 0 1 11.124190 12.593081 588.936890
164 0 1 10.904340 12.696910 589.883728
165 0 1 10.526520 12.543950 590.791199
166 0 1 10.226260 12.326960 591.707581
167 0 1 9.974150 12.054581 592.617004
168 0 1 9.901300 12.148800 593.569580
169 0 1 9.582000 12.112570 594.474915
170 0 1 9.411320 12.060630 595.417419
171 0 1 9.069970 12.057330 596.297180
172 0 1 8.642166 12.148170 597.169495
173 0 1 7.940041 12.444740 597.898071
174 0 1 7.298641 12.869209 598.456604
175 0 1 6.712500 13.238270 599.163818
176 0 1 6.206130 13.399620 599.936279
177 0 1 5.504730 13.373590 600.579285
178 0 1 5.049380 13.193729 601.437805
179 0 1 4.529180 13.091000 602.292114
180 0 1 4.134180 12.754351 603.153381
181 0 1 3.656170 12.456150 603.945007
182 0 1 3.416610 12.275340 604.888184
183 0 1 3.366490 12.266520 605.912109
184 0 1 3.463440 11.805720 606.902222
185 0 1 3.819300 11.650209 607.843384
186 0 1 3.806540 11.701000 608.765320
187 0 1 3.618590 11.928110 609.662598
188 0 1 3.401670 12.180330 610.534790
189 0 1 3.542700 12.168011 611.460815
190 0 1 3.732020 12.316851 612.337280
191 0 1 4.141010 12.213840 613.163696
192 0 1 4.599780 11.883080 613.891479
193 0 1 4.916170 11.443430 614.768311
194 0 1 4.844010 11.067801 615.635681
195 0 1 4.473000 10.782420 616.507324
196 0 1 4.182620 10.551140 617.347595
197 0 1 4.139240 10.407200 618.287903
198 0 1 4.233550 10.416170 619.237671
199 0 1 4.197890 10.353849 620.222412
200 0 1 4.408920 10.217710 621.203979
201 0 1 4.614800 10.022520 622.150085
202 0 1 4.913520 9.882260 623.017395
203 0 1 5.272030 9.771320 623.872620
204 0 1 5.716000 9.741160 624.759644
205 0 1 6.020390 9.997210 625.670105
206 0 1 6.123120 10.391370 626.525696
207 0 1 6.097930 10.704020 627.465759
208 0 1 6.127460 10.947190 628.440247
209 0 1 6.313730 11.190830 629.358826
210 0 1 6.602380 11.332670 630.325378
211 0 1 6.792690 11.407430 631.293579
212 0 1 7.062679 11.558420 632.217773
213 0 1 7.338247 11.297040 633.117126
214 0 1 7.684388 11.226020 634.022339
215 0 1 7.899724 11.137760 635.001770
216 0 1 8.319713 11.268010 635.772339
217 0 1 8.651243 11.343400 636.676392
218 0 1 9.022260 11.822100 637.503479
219 0 1 9.239790 11.983360 638.463623
220 0 1 9.390950 12.211880 639.393311
221 0 1 9.478740 12.533710 640.285583
222 0 1 10.089300 12.924450 641.013489
223 0 1 10.429501 13.136620 641.890320
224 0 1 10.732010 12.962550 642.815674
225 0 1 11.138730 12.546270 643.541199
226 0 1 11.328341 12.119830 644.336792
227 0 1 11.228440 11.719870 645.212708
228 0 1 11.301620 11.293180 646.038330
229 0 1 11.451300 10.932070 646.965210
230 0 1 11.784610 10.527490 647.743896
231 0 1 12.274879 10.062690 648.416992
232 0 1 12.758730 9.549100 649.103882
233 0 1 13.290791 9.218630 649.814087
234 0 1 13.674789 9.162600 650.663391
235 0 1 13.777451 8.821652 651.605408
236 0 1 13.779280 8.551728 652.554871
237 0 1 14.044420 8.149750 653.363770
238 0 1 13.910521 7.721311 654.245789
239 0 1 13.699050 7.138087 654.971985
240 0 1 13.280820 6.665330 655.686279
241 0 1 12.788099 6.172760 656.417175
242 0 1 12.351100 5.855110 657.222595
243 0 1 11.731220 5.494560 657.927795
244 0 1 11.276190 5.133590 658.741577
245 0 1 10.617240 4.810670 659.509399
246 0 1 10.183590 4.718620 660.355408
247 0 1 9.711620 4.880570 661.174927
248 0 1 9.267160 4.996520 662.010986
249 0 1 8.690885 5.381340 662.678589
250 0 1 8.025192 5.657550 663.358093
251 0 1 7.558765 5.959620 664.217224
252 0 1 7.164876 6.182590 665.123108
253 0 1 6.616340 6.218860 665.893372
254 0 1 6.125740 6.226500 666.716675
255 0 1 5.596860 6.349800 667.532227
256 0 1 4.956640 6.206810 668.307007
257 0 1 4.332710 5.708740 668.850891
258 0 1 3.774400 5.294750 669.522705
259 0 1 3.328710 4.965500 670.308105
260 0 1 2.988410 5.005800 671.191284
261 0 1 2.843560 5.017470 672.181213
262 0 1 2.877570 4.740870 673.181091
263 0 1 3.184250 4.352830 673.972473
264 0 1 3.532550 3.990000 674.780823
265 0 1 3.951220 3.700540 675.567078
266 0 1 4.484940 3.194970 676.190918
267 0 1 5.094070 2.799910 676.794312
268 0 1 5.610800 2.241770 677.383484
269 0 1 6.167230 1.843160 678.026672
270 0 1 6.608900 1.509950 678.776001
271 0 1 7.088907 1.564140 679.637024
272 0 1 7.351135 1.581870 680.568420
273 0 1 7.517741 1.574770 681.515991
274 0 1 7.844237 1.756610 682.330078
275 0 1 8.030437 1.757600 683.302124
276 0 1 7.977964 1.751820 684.275574
277 0 1 7.683195 1.764650 685.195801
278 0 1 7.223083 1.725560 686.064209
279 0 1 6.791400 2.053320 686.844177
280 0 1 6.256240 2.231130 687.604614
281 0 1 5.869870 2.541150 688.440491
282 0 1 5.335670 3.037910 689.141785
283 0 1 4.875580 3.524970 689.837769
284 0 1 4.407100 3.678610 690.593506
285 0 1 4.296940 3.836280 691.565796
286 0 1 4.099610 4.369240 692.387024
287 0 1 3.985080 4.776870 693.269409
288 0 1 4.093030 5.039880 694.156921
289 0 1 4.335780 5.159900 695.071899
290 0 1 4.573350 5.273440 695.986816
291 0 1 4.709080 5.077800 696.901184
292 0 1 5.093530 4.852080 697.738708
293 0 1 5.195470 4.606850 698.714111
294 0 1 5.351030 4.106540 699.597412
295 0 1 5.424700 3.535300 700.396118
296 0 1 5.448990 3.186760 701.279602
297 0 1 5.595190 2.725330 702.119507
298 0 1 5.530790 2.488490 703.080078
299 0 1 5.300990 2.548030 703.992188
300 0 1 5.002500 2.794580 704.940186
301 0 1 4.667030 3.165030 705.822693
302 0 1 4.732110 3.366580 706.786682
303 0 1 4.961450 3.579120 707.701477
304 0 1 5.298920 3.699410 708.540527
305 0 1 5.669750 3.849220 709.425720
306 0 1 5.456900 3.796450 710.368896
307 0 1 5.148030 3.586530 711.255798
308 0 1 4.880680 3.484280 712.141418
309 0 1 4.975970 3.301530 713.147888
310 0 1 4.828470 3.399450 714.166016
311 0 1 4.595320 3.707410 715.073975
312 0 1 4.383500 4.048440 715.948303
313 0 1 4.145540 4.231330 716.837585
314 0 1 4.222450 4.074360 717.753479
315 0 1 4.098790 4.233890 718.693298
316 0 1 3.944440 4.355010 719.643616
317 0 1 4.232000 4.671710 720.427795
318 0 1 4.350940 5.332010 721.139771
319 0 1 4.490670 6.088430 721.714111
320 0 1 4.697430 6.876150 722.256897
321 0 1 4.994830 7.501507 722.841431
322 0 1 5.417140 8.048376 723.571899
323 0 1 5.988590 8.571870 724.140015
324 0 1 6.772890 8.993339 724.529785
325 0 1 7.359339 9.380690 725.148315
326 0 1 7.536421 9.756470 725.934875
327 0 1 7.695730 10.177000 726.777283
328 0 1 7.761992 10.535130 727.651489
329 0 1 7.630804 11.036580 728.424988
330 0 1 7.643934 11.504290 729.296021
331 0 1 7.690353 11.910070 730.150024
332 0 1 7.562723 11.928750 731.108032
333 0 1 7.823363 12.080940 732.015015
334 0 1 8.246249 12.193000 732.932983
335 0 1 8.221672 12.219370 734.033997
336 0 1 8.284722 12.365290 734.957031
337 0 1 8.501501 12.462009 735.913025
338 0 1 8.262129 12.261940 736.773010
339 0 1 7.960980 11.872950 737.692993
340 0 1 7.914148 11.906040 738.681030
341 0 1 8.121738 11.818830 739.614014
342 0 1 8.209783 11.798850 740.591003
343 0 1 8.352437 11.891940 741.528992
344 0 1 8.748718 12.282300 742.281006
345 0 1 9.074250 12.910580 743.031982
346 0 1 9.190200 13.193069 743.867004
347 0 1 9.177999 13.581200 744.781982
348 0 1 9.282600 14.010880 745.718994
349 0 1 9.317760 14.306240 746.692017
350 0 1 9.175650 14.354589 747.653015
351 0 1 8.982318 14.193350 748.617981
352 0 1 8.559792 13.924610 749.379028
353 0 1 8.313183 13.458710 750.166016
354 0 1 8.200659 13.106750 751.122009
355 0 1 8.135079 12.813910 752.009033
356 0 1 8.200641 12.763590 752.976013
357 0 1 8.228791 12.496580 753.843018
358 0 1 8.390584 11.927580 754.567017
359 0 1 8.227699 11.310450 755.320984
360 0 1 7.943128 10.567830 755.900024
361 0 1 7.707568 9.687390 756.124023
362 0 1 7.386004 9.033150 756.687012
363 0 1 7.226621 8.438814 757.505005
364 0 1 7.026776 7.944782 758.283997
365 0 1 6.996660 7.575568 759.177979
366 0 1 7.023685 7.518019 760.164001
367 0 1 7.074286 7.506641 761.096985
368 0 1 7.174520 7.692806 762.115967
369 0 1 7.545984 7.683304 762.945007
370 0 1 8.048514 7.705318 763.804016
371 0 1 8.106627 8.137456 764.635010
372 0 1 8.281948 8.493776 765.589966
373 0 1 8.327082 8.709323 766.521973
374 0 1 8.351218 9.105300 767.405029
375 0 1 8.246703 9.516230 768.252014
376 0 1 7.892640 9.811750 769.110962
377 0 1 7.846748 9.993250 770.010986
378 0 1 7.998708 9.765010 770.942993
379 0 1 8.029561 9.893530 771.890015
380 0 1 8.240038 9.695290 772.818970
381 0 1 8.019262 9.479980 773.742004
382 0 1 7.936106 9.442500 774.764038
383 0 1 8.033071 9.113870 775.658020
384 0 1 8.243636 8.712906 776.587036
385 0 1 8.181233 8.310298 777.411987
386 0 1 8.053975 7.712359 778.186035
387 0 1 7.946919 7.094733 778.960022
388 0 1 7.812307 6.885210 779.869019
389 0 1 7.732682 6.601010 780.778015
390 0 1 7.576168 6.505410 781.661987
391 0 1 7.631492 6.192740 782.606018
392 0 1 7.791390 5.964260 783.520020
393 0 1 7.646852 5.635160 784.458008
394 0 1 7.712753 5.333760 785.432007
395 0 1 7.847101 5.193550 786.374023
396 0 1 8.332338 5.114170 787.192993
397 0 1 8.810243 4.805540 787.919983
398 0 1 9.204210 4.805410 788.832031
399 0 1 9.308200 4.896080 789.796021
400 0 1 9.707850 4.872340 790.718994
401 0 1 10.055260 4.808490 791.613037
402 0 1 10.511260 4.887930 792.471008
403 0 1 10.959900 5.122380 793.297974
404 0 1 11.326640 5.109980 794.197998
405 0 1 11.593920 4.770210 795.007996
406 0 1 11.510220 4.451930 795.889038
407 0 1 11.597450 4.449060 796.884033
408 0 1 11.543320 4.180700 797.837036
409 0 1 11.438280 4.338620 798.809021
410 0 1 11.255180 4.251530 799.747009
411 0 1 11.027650 4.217880 800.714966
412 0 1 10.830800 4.033160 801.599976
413 0 1 10.672200 4.034470 802.531982
414 0 1 10.689260 4.286370 803.422974
415 0 1 10.645430 4.701190 804.294983
416 0 1 10.248760 4.705900 805.169006
417 0 1 10.191850 4.805130 806.140991
418 0 1 10.028521 4.719090 807.098999
419 0 1 9.790470 4.707460 808.014038
420 0 1 9.485270 4.632990 808.917969
421 0 1 9.409810 4.590180 809.882019
422 0 1 9.468560 4.307010 810.786987
423 0 1 9.550670 4.007790 811.710999
424 0 1 9.312970 3.368010 812.494995
425 0 1 9.247100 2.894290 813.311035
426 0 1 9.127180 2.783120 814.221985
427 0 1 9.239590 2.659200 815.117981
428 0 1 9.188360 2.589020 816.054016
429 0 1 9.112630 2.850940 816.979004
430 0 1 9.036610 2.985570 817.966003
431 0 1 8.746582 2.707610 818.880005
432 0 1 8.480948 2.350460 819.764038
433 0 1 8.468843 2.336820 820.677979
434 0 1 8.219284 2.308210 821.575012
435 0 1 7.921703 2.507080 822.488037
436 0 1 7.912068 2.765900 823.453979
437 0 1 7.970067 2.731500 824.375977
438 0 1 7.875379 2.595870 825.323975
439 0 1 7.793006 2.546300 826.294006
440 0 1 7.503285 2.547360 827.188965
441 0 1 7.035712 2.619460 828.011963
442 0 1 6.927880 2.487550 828.945007
443 0 1 6.720980 2.522790 829.995972
444 0 1 6.684540 2.497170 830.947998
445 0 1 6.215190 2.588740 831.794006
446 0 1 6.066310 2.418620 832.688965
447 0 1 6.111340 2.341770 833.635010
448 0 1 6.134570 2.469740 834.591980
449 0 1 6.338270 2.582010 835.562012
450 0 1 6.318050 2.873980 836.478027
451 0 1 6.456100 3.139400 837.403015
452 0 1 6.265120 3.454490 838.255981
453 0 1 5.925910 3.850900 839.018982
454 0 1 5.739300 4.328770 839.763000
455 0 1 5.314980 4.876640 840.419983
456 0 1 4.829260 5.222640 841.166992
457 0 1 4.389490 5.472980 841.979980
458 0 1 3.590080 5.824560 842.398010
459 0 1 2.756700 6.270010 842.063965
460 0 1 2.044390 6.917630 841.926025
461 0 1 1.659970 7.632513 841.400024
462 0 1 1.424920 8.149797 840.601013
463 0 1 1.244920 8.560873 839.749023
464 0 1 1.155840 8.565284 838.820007
465 0 1 1.183140 8.271943 837.846985
466 0 1 1.269480 8.031900 836.908997
467 0 1 1.413880 7.813246 836.007019
468 0 1 1.391420 7.353274 835.208984
469 0 1 1.529190 7.092613 834.311035
470 0 1 1.525650 6.928640 833.359009
471 0 1 1.799260 6.841290 832.395996
472 0 1 2.076390 6.837940 831.492981
473 0 1 2.327390 6.727130 830.578003
474 0 1 2.816790 6.638370 829.676025
475 0 1 3.138870 6.572980 828.763000
476 0 1 3.756350 6.450470 828.015991
477 0 1 4.374100 6.331170 827.239990
478 0 1 4.712790 6.297990 826.317017
479 0 1 4.904650 6.361220 825.393982
480 0 1 5.339450 6.706370 824.666992
481 0 1 5.377510 7.014375 823.778015
482 0 1 5.336070 7.096323 822.838989
483 0 1 5.347460 7.239015 821.841003
484 0 1 5.314900 7.108328 820.893005
485 0 1 5.284170 6.960830 819.905029
486 0 1 5.063030 6.828940 818.974976
487 0 1 4.830650 6.510010 818.072021
488 0 1 4.651580 6.199250 817.184998
489 0 1 4.251220 5.581010 816.518982
490 0 1 3.849550 5.320030 815.669983
491 0 1 3.566140 5.050550 814.794983
492 0 1 3.422780 4.838620 813.849976
493 0 1 3.392020 4.285240 813.068970
494 0 1 3.341840 3.734200 812.264038
495 0 1 3.339870 3.403430 811.313965
496 0 1 3.200290 3.623970 810.322998
497 0 1 3.170540 3.768370 809.359985
498 0 1 3.182730 3.999030 808.464966
499 0 1 3.322260 4.382890 807.533020
500 0 1 3.568100 4.548060 806.632996
501 0 1 3.919360 4.637470 805.714966
502 0 1 4.326420 4.810690 804.869995
503 0 1 4.574980 5.101750 804.035034
504 0 1 4.774990 5.558510 803.143982
505 0 1 4.655370 5.957800 802.289001
506 0 1 4.443950 6.012780 801.323975
507 0 1 4.258470 6.231030 800.443970
508 0 1 4.045630 6.685530 799.632996
509 0 1 3.827870 7.062857 798.807983
510 0 1 3.482670 7.191733 797.864014
511 0 1 3.113620 6.851890 796.994995
512 0 1 2.714340 6.749700 796.136963
513 0 1 2.471020 6.667700 795.119019
514 0 1 2.534470 6.521900 794.145996
515 0 1 2.937040 6.340310 793.172974
516 0 1 3.235830 6.371930 792.301025
517 0 1 3.577080 6.281510 791.403992
518 0 1 4.120150 6.035470 790.690979
519 0 1 4.593210 6.001380 789.820984
520 0 1 5.144600 6.264460 789.089966
521 0 1 5.778790 6.114720 788.455994
522 0 1 6.273470 5.708280 787.776978
523 0 1 6.525710 5.352920 786.900024
524 0 1 6.479930 5.150120 785.921997
525 0 1 6.681320 4.662770 785.098022
526 0 1 6.956280 4.331670 784.205017
527 0 1 7.174638 3.896860 783.280029
528 0 1 7.578467 3.554910 782.429993
529 0 1 7.828366 3.061780 781.634033
530 0 1 7.949346 2.646400 780.812012
531 0 1 8.153188 2.219520 779.916992
532 0 1 8.170493 1.930280 779.004028
533 0 1 8.171690 1.764330 778.049011
534 0 1 8.135198 1.802190 777.096008
535 0 1 8.311503 1.842530 776.130981
536 0 1 8.397282 1.874850 775.184998
537 0 1 8.524766 2.222760 774.327026
538 0 1 8.817639 2.630130 773.462036
539 0 1 9.048870 2.998030 772.559998
540 0 1 9.472730 3.113090 771.737000
541 0 1 9.731060 3.029990 770.742981
542 0 1 10.107430 2.669800 769.799988
543 0 1 10.481810 2.743800 768.932007
544 0 1 10.511820 2.859780 767.979980
545 0 1 10.525520 3.003870 767.049988
546 0 1 10.313050 3.082290 766.049988
547 0 1 10.115350 2.940160 765.125000
548 0 1 9.707840 2.590890 764.358032
549 0 1 9.214460 2.544740 763.537964
550 0 1 8.735746 2.693110 762.640015
551 0 1 8.421356 2.536060 761.742004
552 0 1 8.393809 2.933800 760.781982
553 0 1 8.407732 3.202030 759.843018
554 0 1 8.369139 3.364370 758.860962
555 0 1 8.349635 3.662170 757.953003
556 0 1 8.557053 4.187300 757.145020
557 0 1 8.815007 4.774960 756.424988
558 0 1 8.990482 5.126210 755.577026
559 0 1 9.257560 5.501810 754.773010
560 0 1 9.312030 5.760880 753.872986
561 0 1 9.538530 6.022080 752.968994
562 0 1 9.838150 6.359740 752.005005
563 0 1 9.909000 6.813730 751.200989
564 0 1 9.933930 7.495047 750.564026
565 0 1 10.215080 8.057424 749.778015
566 0 1 10.485880 8.349059 748.908997
567 0 1 10.210590 8.646646 747.995972
568 0 1 9.934560 9.059610 747.158020
569 0 1 9.809500 9.078650 746.245972
570 0 1 9.488170 8.940219 745.276978
571 0 1 9.438940 8.743418 744.294006
572 0 1 9.360430 8.664721 743.333984
573 0 1 9.310360 8.708196 742.393982
574 0 1 9.491670 8.648635 741.460999
575 0 1 9.736930 8.141202 740.588989
576 0 1 10.035610 7.767967 739.705994
577 0 1 10.215710 7.317167 738.893982
578 0 1 10.305220 7.033928 737.958984
579 0 1 10.233829 6.724470 737.057007
580 0 1 9.958720 6.406260 736.088013
581 0 1 9.516820 6.191730 735.234009
582 0 1 9.017030 5.936630 734.434021
583 0 1 8.514566 5.702170 733.635010
584 0 1 8.225158 5.307140 732.865967
585 0 1 7.771404 5.245010 731.968018
586 0 1 7.445410 5.138180 731.099976
587 0 1 7.154352 5.517690 730.236023
588 0 1 7.040188 5.940430 729.346985
589 0 1 7.103192 6.504770 728.567017
590 0 1 7.118794 7.254916 727.930786
591 0 1 7.435103 7.953684 727.391907
592 0 1 7.928154 8.592350 726.864868
593 0 1 8.349493 9.103200 726.195923
594 0 1 8.811042 9.733190 725.691589
595 0 1 9.354340 10.252769 724.981201
596 0 1 9.435110 10.553320 724.078308
597 0 1 9.690210 10.751210 723.173889
598 0 1 10.046910 11.134080 722.320984
599 0 1 10.558240 11.060940 721.465393
600 0 1 10.653090 10.938590 720.505920
601 0 1 10.544080 10.744530 719.538513
602 0 1 10.471320 10.096020 718.874512
603 0 1 10.173000 9.556760 718.065979
604 0 1 9.905830 8.960908 717.369019
605 0 1 9.855560 8.325395 716.543884
606 0 1 9.669660 7.792305 715.780212
607 0 1 9.271360 7.534650 714.941406
608 0 1 8.913130 7.522443 714.009277
609 0 1 8.535107 7.736513 713.177185
610 0 1 8.010635 7.867827 712.304810
611 0 1 7.397277 8.004646 711.575806
612 0 1 7.221792 8.273688 710.620483
613 0 1 7.022613 8.486031 709.768066
614 0 1 7.009257 8.595147 708.787720
615 0 1 7.048247 8.407396 707.705322
616 0 1 6.897200 8.330282 706.790222
617 0 1 6.422550 8.383958 705.890381
618 0 1 6.453950 8.257755 704.945312
619 0 1 6.441800 8.130657 703.952087
620 0 1 6.143260 8.205504 702.971497
621 0 1 5.649250 8.337729 702.164490
622 0 1 5.093030 8.623600 701.333008
623 0 1 4.458930 8.792807 700.645508
624 0 1 4.055340 9.075580 699.800720
625 0 1 3.916800 9.463940 698.925781
626 0 1 3.649930 9.801610 698.098694
627 0 1 3.344940 10.167250 697.278992
628 0 1 3.121970 10.661750 696.486328
629 0 1 3.158300 11.042740 695.589722
630 0 1 3.409470 11.288460 694.647217
631 0 1 3.576730 11.190599 693.749390
632 0 1 3.850030 11.255920 692.847412
633 0 1 4.394930 11.225370 692.049072
634 0 1 4.866160 11.457730 691.236816
635 0 1 5.581580 11.808220 690.607422
636 0 1 6.107680 12.062820 689.874573
637 0 1 6.802000 11.908970 689.120728
638 0 1 7.327589 11.992280 688.297607
639 0 1 7.800161 11.964360 687.471985
640 0 1 7.957289 12.265030 686.490173
641 0 1 8.147773 12.449790 685.588501
642 0 1 8.301313 12.506980 684.601013
643 0 1 8.166535 12.553220 683.679077
644 0 1 8.042883 13.017839 682.836670
645 0 1 7.638205 13.265340 681.973572
646 0 1 7.189951 13.393539 681.128113
647 0 1 6.845140 13.624580 680.199402
648 0 1 6.744130 13.766190 679.335205
649 0 1 6.589710 13.650260 678.425598
650 0 1 6.771130 13.346570 677.498169
651 0 1 6.875450 12.915770 676.718201
652 0 1 6.746560 12.471090 675.909302
653 0 1 6.582790 12.152880 674.957520
654 0 1 6.763320 11.882170 674.040894
655 0 1 6.846140 11.617470 673.154907
656 0 1 6.751980 11.382940 672.244690
657 0 1 6.807900 11.229010 671.245728
658 0 1 6.559910 11.159200 670.344604
659 0 1 6.353480 10.842860 669.443970
660 0 1 6.271300 10.331409 668.630371
661 0 1 6.308660 9.961200 667.726013
662 0 1 5.969920 9.998420 666.792175
663 0 1 5.646740 10.289500 665.943970
664 0 1 5.019510 10.426380 665.237976
665 0 1 4.362780 10.496180 664.569214
666 0 1 3.971940 10.499210 663.725586
667 0 1 3.768940 10.292220 662.773376
668 0 1 3.679380 9.750040 661.977478
669 0 1 3.708200 9.288450 661.116272
670 0 1 3.658640 8.680756 660.407715
671 0 1 3.826740 8.263664 659.586670
672 0 1 3.997260 8.039250 658.662292
673 0 1 4.009530 7.945298 657.738892
674 0 1 3.934140 7.802366 656.835815
675 0 1 3.646980 7.801876 655.891785
676 0 1 3.596890 7.798938 654.933289
677 0 1 3.528610 7.571988 654.034973
678 0 1 3.565150 7.168736 653.176575
679 0 1 3.569630 6.671280 652.383911
680 0 1 3.450690 6.402400 651.449585
681 0 1 3.532170 6.404350 650.515686
682 0 1 3.348570 6.327120 649.589783
683 0 1 3.269360 6.463720 648.610596
684 0 1 3.243110 6.627030 647.616882
685 0 1 3.037900 7.010817 646.782227
686 0 1 2.784400 7.237503 645.876221
687 0 1 2.496910 7.322168 644.958130
688 0 1 2.384160 7.524212 643.949219
689 0 1 2.294830 7.462515 642.986694
690 0 1 2.301050 7.099806 642.078796
691 0 1 2.400310 6.751690 641.212585
692 0 1 2.666630 6.542210 640.236877
693 0 1 3.036880 6.114840 639.458618
694 0 1 3.375020 5.684730 638.650330
695 0 1 3.531070 5.629240 637.656067
696 0 1 3.654570 5.586240 636.669983
697 0 1 4.034640 5.430570 635.838684
698 0 1 4.235600 5.127600 634.939209
699 0 1 4.337310 4.762330 634.026855
700 0 1 4.703160 4.346800 633.210388
701 0 1 5.099900 4.214940 632.367188
702 0 1 5.633480 4.099740 631.497925
703 0 1 6.132410 3.807770 630.657471
704 0 1 6.555200 3.420820 629.872314
705 0 1 6.515210 2.988960 629.033264
706 0 1 6.399710 2.981510 628.080200
707 0 1 6.232850 3.058860 627.155334
708 0 1 5.989280 3.283910 626.297913
709 0 1 5.442570 3.383440 625.519775
710 0 1 5.047040 3.610980 624.657104
711 0 1 4.947320 3.871620 623.670837
712 0 1 4.693260 4.421160 622.933899
713 0 1 4.833730 4.907240 622.101379
714 0 1 5.218280 5.325350 621.378357
715 0 1 5.572570 5.927650 620.701050
716 0 1 6.064030 6.606040 620.190857
717 0 1 6.629520 7.155417 619.541931
718 0 1 7.099462 7.828220 618.918518
719 0 1 7.256168 8.576259 618.203003
720 0 1 7.360206 9.205470 617.510803
721 0 1 7.619979 9.684480 616.663391
722 0 1 8.080589 9.890430 615.821106
723 0 1 8.437380 9.997310 614.956177
724 0 1 8.829448 10.053289 614.077026
725 0 1 9.290570 9.962560 613.223999
726 0 1 9.910840 9.947280 612.468811
727 0 1 10.359900 9.928430 611.659607
728 0 1 10.693720 10.101290 610.804810
729 0 1 10.735850 10.164800 609.911621
730 0 1 10.813271 10.021339 608.985413
731 0 1 10.946180 10.191960 608.111816
732 0 1 11.213390 10.647610 607.265991
733 0 1 11.589911 10.671431 606.366089
734 0 1 11.984970 10.646049 605.518616
735 0 1 12.263229 10.572490 604.554810
736 0 1 12.395491 10.706390 603.593811
737 0 1 12.443560 10.656460 602.694580
738 0 1 12.315451 10.855659 601.768616
739 0 1 12.016399 11.190610 600.906189
740 0 1 11.576300 11.396980 600.099426
741 0 1 11.038890 11.543390 599.356384
742 0 1 10.594980 11.308750 598.554077
743 0 1 10.235700 11.322940 597.646973
744 0 1 9.878350 11.235450 596.794373
745 0 1 9.622480 11.045370 595.902222
746 0 1 9.243070 10.582780 595.115906
747 0 1 8.558124 10.325109 594.501831
748 0 1 8.163660 10.307240 593.600525
749 0 1 7.915183 10.165359 592.642273
750 0 1 7.961596 9.941140 591.699097
751 0 1 7.868516 10.088210 590.780212
752 0 1 7.947463 10.382530 589.892395
753 0 1 8.221848 10.434650 588.960205
754 0 1 8.582305 10.341080 588.084106
755 0 1 9.029270 10.209650 587.304321
756 0 1 9.141360 9.878340 586.354675
757 0 1 9.348170 9.593050 585.459717
758 0 1 9.546650 9.000560 584.760681
759 0 1 9.672690 8.420357 583.955627
760 0 1 9.818439 7.743681 583.323608
761 0 1 9.853930 7.046993 582.615173
762 0 1 9.639690 6.601120 581.803589
763 0 1 9.442690 6.363110 580.913208
764 0 1 9.390940 6.008600 580.054504
765 0 1 9.339540 5.553260 579.266968
766 0 1 9.418210 5.078350 578.363770
767 0 1 9.312800 4.784990 577.407104
768 0 1 9.007920 4.287150 576.601196
769 0 1 9.026390 3.632980 575.896179
770 0 1 9.504300 3.311090 575.084290
771 0 1 9.961550 3.218630 574.259583
772 0 1 10.641080 2.947810 573.610779
773 0 1 11.310090 3.038060 572.944824
774 0 1 11.709190 2.922590 572.044312
775 0 1 11.958839 3.225690 571.112122
776 0 1 12.268040 3.184370 570.134888
777 0 1 12.334169 3.225470 569.126099
778 0 1 12.214630 3.139120 568.191772
779 0 1 12.022770 3.129780 567.239685
780 0 1 11.733220 3.065710 566.344299
781 0 1 11.584830 3.179240 565.340210
782 0 1 11.436330 3.195370 564.409912
783 0 1 11.334070 3.182270 563.414795
784 0 1 11.246571 3.415790 562.466125
785 0 1 11.080030 3.356300 561.523621
786 0 1 11.074520 3.258760 560.593994
787 0 1 10.835620 3.372450 559.629578
788 0 1 10.534670 3.830490 558.827026
789 0 1 10.110889 4.063540 557.987000
790 0 1 9.879780 4.538620 557.176392
791 0 1 9.374040 4.972790 556.482422
792 0 1 9.126170 5.581240 555.828918
793 0 1 8.712626 6.126540 555.140625
794 0 1 8.218366 6.554100 554.419312