LAMMPS data file via MDAnalysis

        1000  atoms
        1000  bonds
        1000  angles
           0  dihedrals
           0  impropers

           1  atom types
           1  bond types
           1  angle types
           0  dihedral types
           0  improper types

0.000000 16.000000 xlo xhi
0.000000 16.000000 ylo yhi
0.000000 1257.000000 zlo zhi


Masses

1 1.000000

Atoms

1 0 1 9.377250 11.125130 445.010986
2 0 1 9.207220 11.313190 445.953003
3 0 1 8.948220 11.152460 446.864014
4 0 1 9.050910 10.966130 447.824005
5 0 1 9.066800 10.955200 448.744995
6 0 1 8.733867 10.836480 449.651978
7 0 1 8.653569 10.607960 450.588989
8 0 1 8.750827 10.370080 451.510010
9 0 1 8.917263 10.278650 452.447021
10 0 1 9.054710 10.429131 453.414978
11 0 1 9.144870 10.662760 454.358002
12 0 1 9.499570 11.102250 455.212006
13 0 1 9.718120 11.360940 456.121002
14 0 1 9.719350 11.539840 457.044006
15 0 1 9.629320 11.571011 457.984009
16 0 1 9.546380 11.395350 458.997009
17 0 1 9.632830 10.778111 459.726013
18 0 1 9.701920 10.519330 460.617981
19 0 1 10.082450 10.425940 461.492004
20 0 1 10.155100 10.466530 462.470001
21 0 1 9.998260 10.480391 463.484985
22 0 1 9.962650 10.595390 464.445007
23 0 1 9.641650 10.662030 465.338989
24 0 1 9.315100 10.874850 466.223999
25 0 1 8.736870 10.990891 467.044983
26 0 1 8.272980 11.130590 467.996002
27 0 1 8.191840 11.345340 468.925995
28 0 1 8.447255 11.589160 469.822998
29 0 1 8.562892 11.423830 470.789978
30 0 1 8.549897 11.099421 471.726013
31 0 1 8.124550 10.968540 472.623993
32 0 1 7.593293 10.764590 473.343994
33 0 1 7.164143 10.662280 474.190002
34 0 1 6.898450 10.647670 475.153015
35 0 1 6.603190 10.578470 476.057983
36 0 1 6.762840 10.344710 476.911987
37 0 1 6.924630 10.029750 477.828979
38 0 1 7.010485 9.603760 478.684998
39 0 1 6.562360 9.280720 479.500000
40 0 1 6.052570 8.862772 480.247009
41 0 1 6.291800 8.492979 481.070984
42 0 1 6.263780 8.109814 481.936005
43 0 1 6.048420 7.738928 482.792999
44 0 1 5.944670 7.490718 483.765015
45 0 1 5.884670 7.082468 484.697021
46 0 1 6.033350 7.036984 485.623993
47 0 1 6.189820 6.925360 486.549011
48 0 1 6.417060 6.869330 487.437012
49 0 1 7.088603 6.698160 488.113007
50 0 1 7.518374 6.483680 488.901001
51 0 1 8.105434 6.514480 489.628998
52 0 1 8.543294 6.464160 490.485992
53 0 1 8.815710 6.098380 491.326996
54 0 1 9.071720 5.934860 492.195007
55 0 1 9.159781 5.926580 493.140991
56 0 1 9.238650 6.248680 494.059021
57 0 1 9.196671 6.506650 494.998993
58 0 1 9.083910 6.712430 495.908997
59 0 1 9.140210 7.039697 496.787994
60 0 1 9.029280 7.120344 497.714996
61 0 1 8.849223 6.988920 498.596985
62 0 1 8.515821 7.066386 499.520020
63 0 1 7.999580 6.976860 500.325989
64 0 1 7.477905 6.889630 501.203003
65 0 1 6.919310 6.473790 501.880981
66 0 1 6.549690 5.961860 502.623993
67 0 1 6.007640 5.327220 503.165009
68 0 1 5.895380 4.493700 503.580017
69 0 1 5.679690 3.900530 504.265991
70 0 1 5.579030 3.600100 505.188995
71 0 1 5.503530 3.448720 506.152008
72 0 1 5.589350 3.062610 507.041992
73 0 1 5.696780 3.065940 508.057007
74 0 1 5.762240 3.185310 508.970001
75 0 1 5.775580 3.344360 509.924011
76 0 1 5.539050 3.409230 510.842010
77 0 1 5.183830 3.450110 511.671997
78 0 1 4.967170 3.674200 512.648987
79 0 1 5.097950 3.724860 513.614990
80 0 1 5.181130 3.766190 514.546997
81 0 1 5.282330 3.789660 515.509033
82 0 1 5.113590 3.804780 516.497986
83 0 1 4.978350 3.816860 517.502991
84 0 1 4.744070 3.881480 518.440979
85 0 1 4.887560 3.527220 519.286987
86 0 1 4.869300 3.225940 520.213013
87 0 1 4.734600 3.065490 521.179993
88 0 1 4.498730 3.232730 522.160034
89 0 1 4.325110 3.375260 523.109985
90 0 1 4.504730 3.348590 524.054016
91 0 1 4.790150 3.288720 524.981995
92 0 1 5.163620 3.257220 525.943970
93 0 1 5.633990 3.362480 526.776978
94 0 1 5.995880 3.655990 527.630981
95 0 1 6.246010 3.856010 528.501221
96 0 1 6.557380 3.619730 529.426880
97 0 1 6.981750 3.675780 530.272400
98 0 1 7.185639 3.540650 531.240479
99 0 1 7.369889 3.399180 532.135010
100 0 1 7.712459 3.606200 532.994690
101 0 1 7.959541 3.834630 533.848877
102 0 1 7.949318 4.175240 534.727722
103 0 1 7.742883 4.452510 535.578613
104 0 1 7.367764 4.825550 536.407776
105 0 1 7.072428 5.258220 537.207031
106 0 1 6.998010 5.714050 538.067017
107 0 1 7.092749 6.048860 539.020691
108 0 1 7.317189 6.281940 539.990967
109 0 1 7.419446 6.340120 540.966125
110 0 1 7.673063 6.459690 541.850281
111 0 1 7.983028 6.775840 542.728577
112 0 1 8.362694 7.092790 543.596008
113 0 1 8.582394 7.458884 544.454407
114 0 1 8.585732 7.728750 545.396179
115 0 1 8.514837 8.135586 546.253479
116 0 1 8.546407 8.333341 547.173279
117 0 1 8.866908 8.240685 548.120728
118 0 1 9.142100 8.204899 549.084900
119 0 1 9.628810 8.408914 549.913330
120 0 1 9.869050 8.585412 550.802368
121 0 1 9.971430 8.510180 551.773926
122 0 1 9.791000 8.500406 552.711487
123 0 1 9.478530 8.879716 553.518311
124 0 1 9.193010 9.464840 554.242676
125 0 1 8.768678 9.998330 554.957092
126 0 1 8.641030 10.318250 555.891724
127 0 1 8.324425 10.427840 556.783875
128 0 1 8.331975 10.479680 557.746826
129 0 1 8.154797 10.821370 558.629578
130 0 1 8.119531 10.985080 559.529175
131 0 1 8.074896 11.336411 560.464783
132 0 1 8.534357 11.683220 561.275574
133 0 1 8.937808 11.832890 562.160095
134 0 1 9.444280 11.791440 563.038696
135 0 1 9.927980 11.895540 563.902100
136 0 1 10.222200 11.862061 564.784180
137 0 1 10.537170 11.663180 565.707581
138 0 1 11.096200 11.524890 566.425720
139 0 1 11.607220 11.569430 567.279114
140 0 1 12.175580 11.325290 568.063110
141 0 1 12.427200 11.190570 568.970093
142 0 1 12.461260 11.103010 569.998108
143 0 1 12.038640 11.042990 570.871521
144 0 1 11.504370 10.796120 571.648193
145 0 1 11.199350 10.778500 572.524475
146 0 1 10.774509 10.756930 573.426819
147 0 1 10.319490 10.834780 574.332031
148 0 1 9.783550 10.700510 575.173401
149 0 1 9.221750 10.524020 575.939209
150 0 1 9.112450 10.127910 576.831909
151 0 1 9.050830 9.507440 577.601379
152 0 1 8.995303 8.826411 578.278320
153 0 1 8.847501 8.163264 578.907776
154 0 1 8.611080 7.480269 579.543884
155 0 1 8.594604 6.725720 580.134705
156 0 1 8.728820 6.360400 581.037598
157 0 1 9.076630 6.114110 581.924805
158 0 1 9.135930 6.233810 582.859985
159 0 1 9.170820 6.341350 583.834106
160 0 1 9.650249 6.269610 584.761475
161 0 1 9.773800 6.115220 585.722595
162 0 1 9.981000 5.924930 586.637024
163 0 1 9.935020 5.679650 587.520020
164 0 1 9.852650 5.106460 588.297302
165 0 1 9.702960 4.631990 589.124878
166 0 1 9.635370 4.241110 590.003113
167 0 1 9.488490 4.118280 590.901123
168 0 1 9.221960 4.257520 591.877808
169 0 1 9.344840 4.448250 592.819580
170 0 1 9.361110 5.001020 593.589294
171 0 1 9.391040 5.489050 594.404419
172 0 1 9.253630 5.851840 595.279419
173 0 1 9.102160 5.831770 596.216675
174 0 1 8.947529 5.702870 597.238892
175 0 1 8.874132 6.053790 598.213318
176 0 1 8.711174 6.464300 599.063904
177 0 1 8.700801 6.665240 600.046692
178 0 1 8.639593 6.870040 601.034912
179 0 1 8.978363 6.979090 601.915405
180 0 1 9.291510 7.315552 602.748718
181 0 1 9.500180 7.603731 603.654480
182 0 1 9.621730 8.065933 604.523926
183 0 1 9.519940 8.363620 605.404602
184 0 1 9.476990 8.551080 606.334412
185 0 1 9.486880 8.786547 607.202881
186 0 1 9.661020 9.093980 608.160706
187 0 1 9.497869 9.283150 609.129700
188 0 1 9.243850 9.066401 610.061829
189 0 1 9.149060 9.050460 611.018127
190 0 1 9.172300 9.035000 611.991516
191 0 1 8.953589 9.114580 612.885010
192 0 1 8.442701 8.871109 613.651428
193 0 1 8.047108 8.846451 614.575684
194 0 1 7.628820 8.767051 615.400879
195 0 1 7.481350 8.649755 616.351501
196 0 1 7.652230 8.463226 617.279907
197 0 1 7.684337 8.590783 618.192871
198 0 1 7.670990 8.843065 619.117981
199 0 1 7.608862 9.081480 620.015625
200 0 1 7.755339 9.467940 620.879822
201 0 1 7.854760 9.719270 621.753235
202 0 1 7.742341 10.165110 622.600647
203 0 1 7.278083 10.342680 623.416016
204 0 1 6.785930 10.515260 624.250488
205 0 1 6.267170 10.996440 624.971008
206 0 1 5.930130 11.422950 625.706787
207 0 1 5.518160 11.646441 626.546997
208 0 1 5.384840 11.892090 627.497559
209 0 1 5.096920 12.156890 628.359924
210 0 1 4.896140 12.201981 629.342773
211 0 1 4.946030 12.303881 630.333069
212 0 1 5.161640 12.128860 631.279236
213 0 1 5.400670 11.812300 632.191772
214 0 1 5.627250 11.597900 633.117493
215 0 1 5.817540 11.438850 634.129639
216 0 1 6.088280 11.217760 635.083496
217 0 1 6.342050 11.079800 636.013855
218 0 1 6.482850 11.069611 636.965698
219 0 1 6.747440 10.784830 637.905273
220 0 1 7.197599 10.701230 638.727600
221 0 1 7.525959 10.643450 639.619385
222 0 1 7.551578 10.646290 640.589600
223 0 1 7.457411 10.257870 641.461304
224 0 1 7.210492 9.931570 642.339722
225 0 1 7.008963 9.797910 643.253601
226 0 1 6.716760 9.779480 644.172974
227 0 1 6.637080 9.964940 645.119385
228 0 1 6.582540 10.179200 646.093689
229 0 1 6.281710 10.234350 646.990784
230 0 1 5.940950 10.365260 647.894592
231 0 1 5.567050 10.537050 648.754028
232 0 1 5.540660 10.866631 649.679504
233 0 1 5.751930 11.003760 650.635986
234 0 1 5.979330 10.900140 651.537903
235 0 1 6.356340 10.566680 652.305908
236 0 1 6.763720 10.204130 653.124878
237 0 1 7.037345 9.987960 654.022583
238 0 1 7.612021 9.579940 654.709717
239 0 1 8.264397 9.173680 655.298218
240 0 1 8.977360 8.673309 655.712708
241 0 1 9.693120 8.096430 656.018188
242 0 1 10.266250 7.432481 656.478027
243 0 1 10.534990 6.705050 657.078491
244 0 1 10.645290 6.114090 657.807983
245 0 1 10.681750 5.696310 658.638428
246 0 1 10.459840 5.104010 659.345886
247 0 1 10.548100 4.615670 660.158813
248 0 1 10.868401 4.054750 660.864685
249 0 1 11.130980 3.633800 661.712402
250 0 1 11.425800 3.702160 662.606201
251 0 1 11.517260 3.639610 663.556213
252 0 1 11.558420 3.744810 664.493591
253 0 1 11.569860 3.784300 665.431091
254 0 1 11.570330 3.925370 666.375000
255 0 1 11.431440 4.197020 667.264709
256 0 1 11.534140 4.422850 668.240479
257 0 1 11.935750 4.619100 669.029724
258 0 1 12.118620 4.735460 670.037292
259 0 1 12.355659 5.098380 670.918091
260 0 1 12.852010 5.424050 671.697327
261 0 1 13.255060 5.845080 672.492004
262 0 1 13.528430 6.337720 673.263184
263 0 1 13.625500 6.740490 674.169128
264 0 1 13.839370 7.207532 675.007202
265 0 1 13.788260 7.495602 675.899292
266 0 1 13.663130 7.640906 676.856995
267 0 1 13.493980 7.855589 677.739990
268 0 1 13.332310 8.020944 678.651978
269 0 1 12.887360 8.243963 679.456604
270 0 1 12.389420 8.358895 680.298828
271 0 1 11.706560 8.466965 681.033997
272 0 1 11.095340 8.664567 681.835022
273 0 1 10.668921 8.401308 682.624512
274 0 1 10.511260 8.040209 683.517090
275 0 1 10.225110 7.837676 684.398987
276 0 1 9.911640 7.705963 685.281372
277 0 1 9.355820 7.770673 686.053589
278 0 1 8.609212 8.011314 686.555298
279 0 1 7.711496 8.114314 687.049500
280 0 1 6.977510 7.901732 687.760986
281 0 1 6.180390 7.861179 688.337585
282 0 1 5.627040 7.660431 689.104004
283 0 1 5.254950 7.153262 689.824585
284 0 1 5.084660 6.912300 690.710999
285 0 1 4.871210 6.899430 691.635803
286 0 1 4.425660 6.808910 692.469604
287 0 1 3.722880 6.640910 693.102417
288 0 1 3.077290 6.507040 693.748169
289 0 1 2.471510 6.571360 694.549011
290 0 1 2.220800 6.514690 695.431519
291 0 1 2.183110 6.669230 696.368530
292 0 1 1.886410 6.833240 697.365723
293 0 1 1.717540 7.006182 698.306885
294 0 1 1.775480 6.996230 699.289917
295 0 1 1.820680 7.266521 700.234619
296 0 1 2.019820 7.467697 701.204590
297 0 1 2.475400 7.614597 702.025696
298 0 1 2.822260 7.858066 702.839600
299 0 1 2.879010 8.154565 703.746399
300 0 1 2.944380 8.676128 704.634399
301 0 1 3.119290 8.660263 705.627197
302 0 1 3.418560 8.667499 706.536621
303 0 1 3.748350 8.946835 707.366516
304 0 1 3.929510 9.062690 708.363892
305 0 1 4.198500 9.125870 709.296692
306 0 1 4.639190 9.230180 710.147827
307 0 1 5.099750 9.152560 711.033386
308 0 1 5.528080 8.786660 711.771423
309 0 1 5.855310 8.108119 712.462280
310 0 1 6.307250 7.424817 712.991577
311 0 1 6.918290 6.876900 713.548401
312 0 1 7.573238 6.223660 713.879578
313 0 1 8.155574 5.537140 714.312866
314 0 1 8.553521 4.884250 714.948792
315 0 1 8.970990 4.702680 715.767883
316 0 1 9.156880 4.437850 716.678223
317 0 1 9.332310 4.102450 717.586792
318 0 1 9.330410 3.829460 718.485474
319 0 1 9.371200 3.627080 719.499817
320 0 1 9.583130 3.555280 720.450195
321 0 1 9.865870 3.684570 721.403320
322 0 1 9.977050 3.472200 722.384827
323 0 1 9.944000 3.445720 723.402832
324 0 1 10.276490 2.989360 724.140198
325 0 1 10.600780 2.905170 725.112488
326 0 1 10.653890 2.819390 726.126831
327 0 1 10.704100 2.743830 727.119690
328 0 1 11.048650 3.004100 727.972412
329 0 1 11.303580 3.303190 728.812988
330 0 1 11.625270 3.770920 729.619995
331 0 1 11.523330 4.395490 730.395996
332 0 1 11.064510 4.902290 730.994995
333 0 1 10.609250 5.594160 731.466003
334 0 1 10.228140 6.381620 731.823975
335 0 1 9.869930 6.847800 732.624023
336 0 1 9.516710 7.390858 733.416992
337 0 1 9.345810 7.867024 734.328979
338 0 1 9.025700 8.174571 735.096985
339 0 1 8.640245 8.491394 735.955017
340 0 1 8.393013 8.526777 736.937012
341 0 1 8.264321 8.624379 737.893982
342 0 1 8.233554 8.399926 738.773987
343 0 1 7.887197 8.582145 739.757019
344 0 1 7.505199 8.757117 740.692993
345 0 1 7.072613 8.901900 741.530029
346 0 1 6.424220 8.745899 742.244995
347 0 1 5.834650 8.705067 743.035034
348 0 1 5.790200 8.841170 743.971985
349 0 1 5.685720 8.882375 744.953979
350 0 1 5.629050 8.816424 745.903992
351 0 1 5.695730 8.511564 746.807983
352 0 1 5.982530 7.988879 747.539978
353 0 1 6.128150 7.679379 748.487000
354 0 1 6.102250 7.428561 749.377991
355 0 1 6.020510 7.245730 750.306030
356 0 1 6.057980 6.697330 751.098022
357 0 1 6.110150 6.400190 752.044006
358 0 1 6.254710 6.322260 753.004028
359 0 1 6.575000 6.670180 753.898987
360 0 1 7.089019 6.919470 754.650024
361 0 1 7.576551 7.322632 755.341003
362 0 1 8.131422 7.546775 756.038025
363 0 1 8.550660 7.835358 756.851990
364 0 1 8.782202 8.155453 757.719971
365 0 1 8.511130 8.001553 758.582031
366 0 1 8.214109 8.040373 759.457031
367 0 1 7.927658 7.977871 760.367981
368 0 1 7.852353 7.712775 761.335022
369 0 1 7.896954 7.376701 762.216003
370 0 1 7.950794 7.044186 763.103027
371 0 1 8.270857 7.010066 763.984009
372 0 1 8.528245 7.161246 764.968994
373 0 1 8.695936 7.386933 765.911011
374 0 1 8.885582 7.860540 766.744995
375 0 1 8.977606 8.399360 767.544006
376 0 1 9.410840 8.538012 768.485962
377 0 1 9.730610 9.119040 769.139038
378 0 1 10.136720 9.589280 769.934998
379 0 1 10.655350 9.982050 770.615967
380 0 1 11.147810 10.444300 771.250977
381 0 1 11.538919 11.004780 771.950012
382 0 1 11.738580 11.589780 772.662964
383 0 1 11.908440 11.824369 773.573975
384 0 1 12.109980 11.998870 774.499023
385 0 1 12.318029 12.006710 775.463013
386 0 1 12.388390 11.527280 776.344971
387 0 1 12.106590 11.222120 777.216980
388 0 1 11.824280 10.996890 778.098999
389 0 1 11.491290 10.944720 779.005005
390 0 1 11.289710 10.916650 779.900024
391 0 1 10.927410 10.715050 780.687988
392 0 1 10.628210 10.531570 781.596008
393 0 1 10.355950 10.775370 782.455017
394 0 1 9.732990 10.678780 783.242981
395 0 1 9.118270 10.509501 783.953979
396 0 1 8.425922 10.329411 784.679993
397 0 1 7.678553 10.315720 785.276001
398 0 1 7.090018 9.900320 785.912964
399 0 1 6.494670 9.665940 786.609009
400 0 1 5.958150 9.425910 787.382996
401 0 1 5.498020 9.191960 788.187988
402 0 1 5.345630 9.104590 789.134033
403 0 1 5.175520 8.996723 790.088989
404 0 1 5.046690 9.064620 791.044983
405 0 1 4.997260 9.012170 792.041992
406 0 1 5.068430 8.901220 793.049011
407 0 1 5.239370 8.619987 793.973022
408 0 1 5.105080 8.212703 794.848999
409 0 1 5.264510 7.551313 795.582031
410 0 1 5.377830 7.230053 796.473022
411 0 1 5.491180 6.854040 797.338989
412 0 1 5.431990 6.315720 798.140015
413 0 1 5.289260 5.843350 798.958008
414 0 1 5.073160 5.537750 799.854980
415 0 1 5.008530 5.693030 800.818970
416 0 1 5.052570 5.741120 801.794983
417 0 1 4.817240 5.965070 802.789978
418 0 1 4.629230 5.815350 803.742981
419 0 1 4.509750 5.738190 804.723999
420 0 1 4.325380 5.596260 805.700012
421 0 1 4.020270 5.352130 806.614014
422 0 1 4.021700 5.053290 807.630005
423 0 1 3.752240 4.986130 808.546021
424 0 1 3.463180 4.976660 809.424011
425 0 1 3.338280 5.025440 810.372009
426 0 1 3.242310 5.091840 811.323975
427 0 1 2.695370 5.374100 812.158020
428 0 1 2.463370 5.640660 813.085999
429 0 1 2.604130 6.212140 813.848999
430 0 1 3.175450 6.644730 814.525024
431 0 1 3.839620 6.964230 815.210022
432 0 1 4.356510 7.441689 815.890015
433 0 1 4.910470 8.007771 816.450989
434 0 1 5.509680 8.457690 817.030029
435 0 1 6.167300 8.904513 817.639038
436 0 1 6.632570 9.460490 818.254028
437 0 1 6.998290 9.863600 819.057983
438 0 1 7.645604 10.170510 819.812988
439 0 1 7.827215 10.516230 820.719971
440 0 1 7.696077 10.920520 821.648010
441 0 1 7.811859 11.225070 822.601013
442 0 1 7.984750 11.660340 823.453979
443 0 1 8.369066 11.949960 824.276978
444 0 1 8.515271 12.124880 825.226990
445 0 1 8.432592 12.334400 826.182983
446 0 1 8.402937 12.672421 827.070984
447 0 1 8.216296 12.952960 827.945984
448 0 1 7.892213 12.896749 828.838989
449 0 1 7.680050 12.566620 829.700989
450 0 1 7.463348 12.484600 830.606995
451 0 1 7.073091 12.671940 831.484985
452 0 1 6.454490 12.777710 832.216003
453 0 1 5.977310 12.969110 833.044983
454 0 1 5.785450 12.908040 833.978027
455 0 1 5.577800 12.621550 834.838013
456 0 1 5.765940 12.196390 835.718994
457 0 1 6.230050 11.557610 836.213013
458 0 1 6.639160 10.663480 836.484985
459 0 1 7.432697 10.116899 836.601990
460 0 1 8.197835 9.574890 836.594971
461 0 1 8.835876 8.986115 836.375977
462 0 1 9.605530 8.555382 835.947998
463 0 1 10.240630 8.389480 835.207031
464 0 1 10.785110 8.022657 834.561035
465 0 1 11.149450 7.700720 833.651978
466 0 1 11.575911 7.463234 832.867981
467 0 1 11.836690 7.228968 831.936035
468 0 1 12.209539 7.191973 831.015991
469 0 1 12.353210 7.230905 830.049988
470 0 1 12.682520 7.038050 829.127014
471 0 1 12.871870 6.739580 828.223022
472 0 1 13.079980 6.425910 827.313965
473 0 1 13.133181 6.336250 826.359009
474 0 1 13.341770 6.191200 825.450012
475 0 1 13.331010 5.955000 824.437012
476 0 1 13.285971 5.751400 823.473999
477 0 1 13.130270 5.688220 822.528992
478 0 1 13.107150 5.576240 821.620972
479 0 1 13.317221 5.424160 820.708008
480 0 1 13.257180 5.343590 819.761963
481 0 1 13.114590 5.251600 818.809021
482 0 1 12.896030 5.256060 817.830994
483 0 1 12.418380 5.317710 816.960022
484 0 1 12.266760 5.355000 816.051025
485 0 1 11.742770 5.504140 815.200012
486 0 1 11.441090 5.595300 814.257019
487 0 1 11.211790 5.581390 813.338989
488 0 1 11.075300 5.538080 812.411011
489 0 1 10.837049 5.330490 811.424011
490 0 1 10.553930 5.168360 810.507996
491 0 1 10.254140 4.964540 809.617981
492 0 1 9.952000 4.914550 808.692017
493 0 1 9.380120 5.016800 807.877014
494 0 1 9.034320 4.713000 807.083008
495 0 1 8.700475 4.509830 806.156006
496 0 1 8.568116 4.529290 805.182007
497 0 1 8.523836 4.415720 804.273010
498 0 1 8.560365 4.182630 803.323975
499 0 1 8.654436 4.004850 802.396973
500 0 1 8.436699 4.192220 801.535034
501 0 1 8.225480 4.481740 800.625000
502 0 1 7.824549 4.815990 799.825989
503 0 1 7.249884 4.945390 799.077026
504 0 1 6.771910 5.329650 798.354980
505 0 1 6.143840 5.539380 797.705994
506 0 1 5.376050 5.696850 797.101990
507 0 1 5.043530 5.770480 796.234009
508 0 1 4.712880 5.853430 795.372009
509 0 1 4.387720 6.069070 794.521973
510 0 1 4.050610 6.366470 793.556030
511 0 1 4.077440 6.644180 792.622009
512 0 1 4.085270 7.124285 791.787964
513 0 1 4.041130 7.111367 790.860962
514 0 1 3.657530 6.933080 790.014038
515 0 1 3.413040 6.779620 789.148010
516 0 1 3.479450 6.578850 788.212036
517 0 1 3.544360 6.293940 787.317017
518 0 1 3.622110 5.835440 786.443970
519 0 1 4.186120 5.363130 785.766968
520 0 1 4.773140 4.670310 785.317017
521 0 1 5.280040 4.306020 784.601013
522 0 1 6.070830 3.929980 784.119019
523 0 1 6.861010 3.625790 783.523010
524 0 1 7.554622 3.581070 782.766968
525 0 1 8.223168 3.853080 782.145020
526 0 1 8.980712 4.142840 781.533997
527 0 1 9.581540 4.845100 781.093018
528 0 1 10.189569 5.410710 780.662964
529 0 1 10.533820 6.128550 780.132019
530 0 1 11.047920 6.567500 779.403015
531 0 1 11.402050 6.997250 778.567017
532 0 1 11.556330 7.713091 777.963013
533 0 1 11.593910 8.395482 777.252014
534 0 1 11.523720 8.794484 776.353027
535 0 1 11.646600 8.999119 775.377991
536 0 1 11.492790 9.512970 774.565002
537 0 1 11.517300 9.947080 773.684998
538 0 1 11.951970 10.116290 772.833008
539 0 1 12.331610 10.059250 771.937012
540 0 1 12.359039 10.253960 770.989990
541 0 1 12.072189 10.072390 770.026001
542 0 1 11.626710 9.846680 769.150024
543 0 1 11.133810 9.813910 768.348999
544 0 1 11.010780 9.795880 767.393982
545 0 1 11.149690 9.761280 766.442017
546 0 1 11.397750 9.471170 765.559021
547 0 1 11.497050 9.203010 764.575989
548 0 1 11.323980 8.878101 763.705017
549 0 1 11.020600 8.655271 762.807983
550 0 1 10.635320 8.263598 762.036011
551 0 1 10.366740 7.763050 761.281982
552 0 1 10.081540 7.346190 760.401001
553 0 1 9.932180 6.991600 759.541992
554 0 1 10.004210 6.844830 758.568970
555 0 1 9.898620 6.673790 757.614014
556 0 1 9.949340 6.312800 756.731018
557 0 1 9.859510 6.051720 755.814026
558 0 1 9.782030 5.836130 754.874023
559 0 1 9.582410 5.495320 753.960999
560 0 1 9.462530 4.842090 753.233032
561 0 1 9.244550 4.191760 752.562012
562 0 1 9.120100 4.011080 751.658997
563 0 1 9.063220 3.972560 750.707031
564 0 1 9.017179 4.028090 749.695984
565 0 1 8.969446 4.504700 748.807983
566 0 1 8.741404 4.969770 748.039001
567 0 1 8.442579 5.702130 747.440979
568 0 1 8.287067 6.380980 746.733032
569 0 1 8.080079 7.070122 746.062988
570 0 1 8.238540 7.622812 745.367004
571 0 1 8.568800 8.341895 744.770020
572 0 1 8.866964 8.803574 743.945007
573 0 1 9.035020 9.411390 743.200012
574 0 1 9.022449 9.773330 742.276001
575 0 1 8.892472 9.898680 741.364014
576 0 1 8.627789 10.015640 740.411987
577 0 1 8.570675 10.243990 739.481995
578 0 1 8.590243 10.414830 738.575012
579 0 1 8.720997 10.501101 737.685974
580 0 1 8.886273 10.750150 736.781006
581 0 1 9.077860 11.130560 735.929016
582 0 1 9.299370 11.692440 735.138000
583 0 1 9.399810 12.055710 734.273010
584 0 1 9.312520 12.418159 733.455017
585 0 1 9.486150 13.032640 732.707031
586 0 1 9.373090 13.401690 731.822021
587 0 1 9.456710 13.638240 730.935974
588 0 1 9.250520 13.798580 730.031982
589 0 1 9.139250 13.610519 729.122009
590 0 1 9.097050 13.104401 728.316772
591 0 1 9.114340 12.745070 727.380615
592 0 1 9.319990 12.462851 726.481812
593 0 1 9.509890 12.154520 725.553589
594 0 1 9.742850 11.800040 724.667725
595 0 1 9.953979 11.198080 723.889771
596 0 1 10.030040 10.359859 723.334412
597 0 1 10.063710 9.616199 722.760803
598 0 1 9.945470 8.981528 722.060303
599 0 1 9.602380 8.262782 721.303589
600 0 1 9.062770 7.929690 720.537598
601 0 1 8.589188 7.977972 719.739868
602 0 1 8.114419 8.389701 719.055298
603 0 1 7.472363 8.660154 718.442627
604 0 1 6.951780 9.139220 717.693115
605 0 1 6.490160 9.788550 716.996826
606 0 1 6.318330 10.328360 716.194519
607 0 1 6.289220 10.854070 715.416687
608 0 1 6.121270 11.516880 714.682983
609 0 1 6.169380 12.001870 713.851990
610 0 1 6.173970 12.467470 713.052307
611 0 1 6.333820 12.792419 712.176025
612 0 1 6.361980 13.084810 711.203186
613 0 1 6.121280 13.385490 710.315491
614 0 1 6.242930 13.424950 709.377808
615 0 1 6.282190 13.264050 708.408508
616 0 1 6.074540 13.140141 707.544617
617 0 1 6.131640 13.000540 706.621277
618 0 1 6.355250 12.936370 705.637207
619 0 1 6.547970 12.815800 704.674988
620 0 1 6.873500 12.853400 703.765503
621 0 1 7.011706 12.892059 702.737305
622 0 1 6.927350 12.945800 701.801697
623 0 1 6.577590 13.218430 700.936523
624 0 1 6.494480 13.576290 700.109497
625 0 1 6.365890 13.819370 699.226501
626 0 1 6.154570 13.796440 698.272095
627 0 1 5.943970 13.744720 697.346924
628 0 1 5.657360 13.672160 696.473206
629 0 1 5.582130 13.494970 695.525696
630 0 1 5.559610 13.546101 694.599121
631 0 1 5.297940 13.593750 693.641113
632 0 1 4.992610 13.890471 692.843628
633 0 1 4.671070 13.788890 691.924805
634 0 1 4.585790 13.822130 690.969116
635 0 1 4.557470 13.380421 690.072693
636 0 1 4.651700 12.841909 689.271790
637 0 1 4.776710 12.361890 688.385376
638 0 1 4.919600 11.637420 687.769775
639 0 1 4.963620 10.807610 687.262878
640 0 1 4.998500 9.924210 686.879883
641 0 1 5.179280 9.096430 686.547180
642 0 1 5.420310 8.210422 686.316284
643 0 1 5.567840 7.310171 685.994629
644 0 1 5.640330 6.390290 685.582886
645 0 1 5.762810 5.596430 684.975403
646 0 1 5.889430 5.083260 684.186218
647 0 1 6.321800 4.672550 683.475586
648 0 1 7.165845 4.700700 683.121216
649 0 1 7.876354 4.952240 682.542297
650 0 1 8.682240 4.937590 681.937073
651 0 1 9.515190 5.137250 681.409607
652 0 1 10.184071 5.508650 680.826111
653 0 1 10.921780 5.682630 680.133728
654 0 1 11.379380 6.147470 679.343323
655 0 1 11.656050 6.612970 678.601624
656 0 1 11.842820 6.816830 677.688293
657 0 1 11.885500 7.110220 676.749573
658 0 1 11.823410 7.453398 675.845825
659 0 1 11.466010 7.659070 675.038818
660 0 1 11.222090 7.882428 674.158020
661 0 1 10.855320 8.232634 673.345886
662 0 1 10.655640 8.595592 672.445190
663 0 1 10.849170 8.914093 671.549377
664 0 1 10.585860 9.252560 670.702393
665 0 1 10.339070 9.902440 670.025818
666 0 1 9.877860 10.448500 669.317322
667 0 1 9.465910 10.607620 668.454773
668 0 1 9.252890 10.772079 667.502014
669 0 1 9.362210 10.772520 666.550476
670 0 1 9.109640 10.813240 665.581787
671 0 1 8.825959 10.859280 664.729187
672 0 1 8.395949 10.495020 663.914673
673 0 1 7.858649 10.299690 663.131104
674 0 1 7.383517 10.249530 662.316589
675 0 1 6.626160 10.368210 661.736694
676 0 1 5.989320 10.400050 660.892822
677 0 1 5.372700 10.479430 660.193909
678 0 1 4.860770 10.427430 659.404419
679 0 1 4.303500 10.448500 658.682800
680 0 1 3.852350 10.606610 657.795593
681 0 1 3.588320 10.613150 656.875183
682 0 1 3.487470 10.784870 655.927917
683 0 1 3.468980 10.633390 654.963928
684 0 1 3.760080 10.459080 654.109924
685 0 1 4.178450 10.535089 653.271790
686 0 1 4.549470 10.303520 652.448730
687 0 1 4.860990 10.167270 651.543701
688 0 1 5.296220 9.836790 650.735291
689 0 1 5.680580 9.211920 650.063477
690 0 1 6.081170 8.644640 649.419922
691 0 1 6.826170 8.165097 648.975281
692 0 1 7.568625 7.847544 648.374878
693 0 1 8.328596 7.803237 647.802124
694 0 1 8.851198 7.528042 647.032471
695 0 1 9.142480 7.358966 646.139526
696 0 1 9.373610 7.407456 645.158386
697 0 1 9.786250 7.606050 644.260010
698 0 1 9.973690 8.099290 643.471008
699 0 1 9.996030 8.621105 642.642029
700 0 1 9.791700 9.123010 641.648804
701 0 1 9.506370 9.498440 640.835083
702 0 1 9.372200 10.146070 640.054016
703 0 1 9.356470 10.605249 639.275513
704 0 1 9.392960 10.933880 638.368530
705 0 1 9.548270 10.658160 637.419983
706 0 1 9.363920 10.570320 636.462830
707 0 1 9.366380 10.213520 635.485779
708 0 1 9.183250 10.035970 634.547607
709 0 1 9.309910 9.920720 633.579712
710 0 1 9.730360 9.960540 632.715454
711 0 1 9.814810 9.745831 631.758789
712 0 1 10.168570 9.721410 630.885315
713 0 1 10.426701 9.574620 629.928345
714 0 1 10.636340 9.535570 628.953552
715 0 1 10.872410 9.357710 628.023743
716 0 1 10.495430 9.182261 627.064819
717 0 1 10.304399 8.980009 626.120667
718 0 1 10.089340 9.233220 625.240540
719 0 1 9.910450 9.483030 624.352478
720 0 1 9.946960 9.794700 623.474792
721 0 1 10.230490 10.112900 622.618164
722 0 1 10.537510 10.137380 621.710022
723 0 1 10.686680 10.067930 620.799805
724 0 1 10.964790 10.318590 619.895935
725 0 1 11.336030 10.444910 618.989319
726 0 1 11.502230 10.270041 618.098694
727 0 1 11.578370 10.167000 617.123779
728 0 1 11.598460 9.725840 616.300293
729 0 1 11.781040 9.342580 615.419922
730 0 1 11.717230 9.300890 614.484802
731 0 1 11.749430 8.808245 613.698792
732 0 1 11.861430 8.659689 612.789917
733 0 1 12.029449 8.833903 611.885681
734 0 1 12.025330 8.836310 610.932373
735 0 1 11.969940 8.993718 609.987122
736 0 1 11.951270 9.175640 609.044495
737 0 1 11.678329 9.506610 608.212219
738 0 1 11.352730 9.704620 607.356018
739 0 1 10.969710 10.046830 606.553772
740 0 1 10.729400 10.269120 605.673218
741 0 1 10.351700 10.467580 604.775574
742 0 1 10.051910 10.830450 603.887573
743 0 1 9.700730 11.344590 603.033691
744 0 1 9.434560 11.925230 602.340271
745 0 1 9.358540 12.423580 601.577026
746 0 1 9.553820 12.572781 600.615601
747 0 1 10.069060 12.732571 599.732483
748 0 1 10.407160 12.660980 598.838684
749 0 1 10.696040 12.324289 597.939331
750 0 1 10.773740 12.010270 597.020020
751 0 1 10.843750 11.643480 596.118591
752 0 1 10.953390 11.059959 595.322083
753 0 1 11.087690 10.509911 594.590881
754 0 1 11.155170 9.864680 593.929382
755 0 1 10.960970 9.250140 593.209778
756 0 1 10.553170 8.802099 592.483521
757 0 1 10.264990 8.161629 591.752930
758 0 1 9.918330 7.731725 590.961304
759 0 1 9.583000 7.632383 590.071899
760 0 1 9.216681 7.511966 589.214783
761 0 1 8.877472 7.246599 588.369690
762 0 1 8.343551 6.823460 587.591492
763 0 1 7.685556 6.352770 587.116089
764 0 1 7.130219 6.091430 586.331909
765 0 1 6.705370 5.844610 585.492615
766 0 1 6.171080 5.797990 584.683228
767 0 1 5.750210 5.553430 583.834290
768 0 1 5.311710 5.373510 582.984680
769 0 1 4.936480 5.337300 582.134094
770 0 1 4.703090 5.122750 581.193420
771 0 1 4.543090 4.979010 580.297424
772 0 1 4.385000 4.689780 579.408813
773 0 1 4.158490 4.391790 578.509521
774 0 1 3.902960 3.991730 577.651489
775 0 1 3.945030 3.687470 576.762817
776 0 1 4.103540 3.588780 575.822632
777 0 1 4.230380 3.460160 574.901611
778 0 1 4.710010 3.555660 574.120911
779 0 1 5.084180 3.339050 573.208191
780 0 1 5.749300 3.253520 572.382690
781 0 1 6.032210 2.982820 571.513184
782 0 1 5.951500 2.821060 570.527832
783 0 1 5.750500 2.417130 569.702271
784 0 1 5.367750 2.353590 568.827271
785 0 1 5.195250 2.232210 567.892578
786 0 1 5.255150 2.023680 566.983276
787 0 1 5.172030 2.035680 566.011292
788 0 1 5.099520 1.944040 565.043884
789 0 1 4.918650 1.935810 564.116211
790 0 1 4.854160 2.096310 563.161011
791 0 1 4.617590 2.338990 562.232178