LAMMPS data file via MDAnalysis

        1000  atoms
        1000  bonds
        1000  angles
           0  dihedrals
           0  impropers

           1  atom types
           1  bond types
           1  angle types
           0  dihedral types
           0  improper types

0.000000 16.000000 xlo xhi
0.000000 16.000000 ylo yhi
0.000000 1257.000000 zlo zhi


Masses

1 1.000000

Atoms

1 0 1 5.841760 12.663290 447.960022
2 0 1 5.239170 13.085300 448.755005
3 0 1 4.850360 13.636330 449.395996
4 0 1 4.879010 13.897810 450.307983
5 0 1 4.692490 13.796820 451.300995
6 0 1 4.500650 13.339710 452.153992
7 0 1 4.676740 12.864710 452.938995
8 0 1 4.639510 12.249229 453.675995
9 0 1 4.357550 11.771770 454.466003
10 0 1 4.156760 11.142770 455.235992
11 0 1 4.226880 10.359261 455.713013
12 0 1 4.341180 9.689690 456.424011
13 0 1 4.695510 9.218610 457.218018
14 0 1 4.800010 8.771631 458.026978
15 0 1 5.151530 8.409407 458.971985
16 0 1 5.214780 8.019320 459.825989
17 0 1 4.899650 7.659047 460.794006
18 0 1 5.037530 7.536540 461.737000
19 0 1 5.389020 7.291163 462.593994
20 0 1 5.740320 7.143907 463.460022
21 0 1 6.493880 6.905980 464.026978
22 0 1 7.119080 6.891910 464.718018
23 0 1 7.583604 6.791450 465.565002
24 0 1 8.129508 6.776900 466.356018
25 0 1 8.231294 6.534810 467.274994
26 0 1 8.389750 6.438400 468.257996
27 0 1 8.309644 6.421680 469.225006
28 0 1 8.490726 6.370470 470.223999
29 0 1 8.719955 6.390810 471.096008
30 0 1 9.074570 6.634980 471.951996
31 0 1 9.086390 6.563410 472.851990
32 0 1 9.253480 6.353700 473.813995
33 0 1 9.291400 6.224810 474.794006
34 0 1 9.350140 6.195450 475.759003
35 0 1 9.366610 6.304270 476.718994
36 0 1 9.535520 6.427180 477.658020
37 0 1 9.598840 6.712930 478.559998
38 0 1 9.276380 7.181795 479.338013
39 0 1 8.936069 7.938705 479.748993
40 0 1 9.299380 8.450086 480.513000
41 0 1 9.490240 8.924730 481.393005
42 0 1 9.202170 9.556450 482.063995
43 0 1 8.953408 9.989630 482.869019
44 0 1 8.870862 10.374580 483.710999
45 0 1 9.033400 10.789230 484.615997
46 0 1 8.994586 11.230150 485.457001
47 0 1 9.225130 11.351920 486.371002
48 0 1 9.340990 11.468050 487.281006
49 0 1 9.587170 11.509109 488.257996
50 0 1 9.576260 11.253390 489.195007
51 0 1 9.454210 10.861120 490.037994
52 0 1 9.464510 10.317250 490.854980
53 0 1 9.281340 9.612460 491.580017
54 0 1 8.850833 8.974079 492.108002
55 0 1 8.417477 8.173084 492.488007
56 0 1 8.278380 7.554629 493.175995
57 0 1 8.091561 7.294316 494.098999
58 0 1 7.865527 7.258625 494.997009
59 0 1 7.538490 7.165709 495.895996
60 0 1 7.766351 6.874740 496.817017
61 0 1 7.992699 6.588860 497.752014
62 0 1 8.233791 6.241560 498.628998
63 0 1 8.454945 5.942880 499.544006
64 0 1 8.452048 5.934010 500.476990
65 0 1 8.551494 5.572100 501.417999
66 0 1 8.632085 5.345240 502.372009
67 0 1 8.693853 5.059560 503.251007
68 0 1 8.845628 4.898360 504.161987
69 0 1 8.626125 5.010750 505.110992
70 0 1 8.384476 5.181740 506.049988
71 0 1 8.134681 5.379640 507.071991
72 0 1 7.953199 5.383890 507.989990
73 0 1 8.109161 5.563830 508.932007
74 0 1 8.333114 5.750290 509.850006
75 0 1 8.454390 5.872050 510.789001
76 0 1 8.634937 5.737180 511.766998
77 0 1 8.592779 5.619920 512.681030
78 0 1 8.351892 5.620150 513.603027
79 0 1 8.042431 5.805010 514.520020
80 0 1 7.966869 5.800630 515.476990
81 0 1 7.919007 6.047370 516.448975
82 0 1 7.778992 6.160060 517.405029
83 0 1 7.646993 6.541350 518.221008
84 0 1 7.466939 6.861650 519.106018
85 0 1 7.593238 7.278529 519.943970
86 0 1 7.399565 7.631746 520.815002
87 0 1 7.253020 7.792990 521.807007
88 0 1 6.994390 8.089843 522.723022
89 0 1 6.798770 8.433992 523.640991
90 0 1 6.411550 8.655621 524.505005
91 0 1 5.966910 8.828376 525.370972
92 0 1 5.581880 9.076470 526.239990
93 0 1 5.530950 9.233430 527.205994
94 0 1 5.421940 9.237640 528.138977
95 0 1 5.678010 9.023530 529.068420
96 0 1 5.865010 8.901393 530.044312
97 0 1 6.000910 8.431197 530.898071
98 0 1 6.334430 7.837445 531.524475
99 0 1 6.625000 7.269721 532.286194
100 0 1 6.419220 6.744520 533.075317
101 0 1 5.977970 6.273240 533.803894
102 0 1 5.543170 5.785670 534.543396
103 0 1 4.905990 5.301570 535.039490
104 0 1 4.304310 4.859420 535.694092
105 0 1 3.816190 4.409930 536.427917
106 0 1 3.654360 3.900020 537.223633
107 0 1 3.886550 3.480590 538.083923
108 0 1 4.337350 2.784200 538.692993
109 0 1 4.625030 2.286400 539.502686
110 0 1 4.855620 1.864670 540.307312
111 0 1 5.186980 1.670930 541.174194
112 0 1 5.812240 1.823500 541.902466
113 0 1 6.314260 2.100530 542.689087
114 0 1 6.755280 2.047450 543.539795
115 0 1 7.331280 2.012650 544.281799
116 0 1 7.985505 2.244820 544.948792
117 0 1 8.378489 2.497060 545.794678
118 0 1 8.896195 2.804150 546.494385
119 0 1 9.378139 3.252030 547.185486
120 0 1 9.763780 3.587410 548.013489
121 0 1 9.935040 4.024530 548.880188
122 0 1 10.176320 4.347720 549.716797
123 0 1 10.369320 4.816270 550.622314
124 0 1 10.099030 5.258030 551.417175
125 0 1 9.741070 5.723070 552.088989
126 0 1 9.054420 6.153070 552.591675
127 0 1 8.528478 6.770710 553.056824
128 0 1 8.321252 7.574992 553.512573
129 0 1 8.064965 8.187466 554.073792
130 0 1 7.980944 8.735843 554.861816
131 0 1 8.105921 9.265200 555.668213
132 0 1 8.191707 9.695160 556.556274
133 0 1 8.600877 9.886490 557.443298
134 0 1 8.997937 10.142080 558.268005
135 0 1 9.579130 10.509390 558.899902
136 0 1 10.027180 10.685170 559.752686
137 0 1 10.513741 10.721500 560.603394
138 0 1 10.916759 10.894930 561.449097
139 0 1 11.058250 11.148840 562.422607
140 0 1 11.307690 11.066490 563.371826
141 0 1 11.434900 11.088600 564.316223
142 0 1 11.477060 11.074350 565.311768
143 0 1 11.365170 11.281770 566.257019
144 0 1 11.568580 11.531281 567.183105
145 0 1 11.771640 11.943020 568.047913
146 0 1 11.658450 12.099390 568.988586
147 0 1 11.418270 12.430400 569.887512
148 0 1 11.020180 12.601709 570.741882
149 0 1 10.707800 12.875170 571.614807
150 0 1 10.627180 12.975460 572.571899
151 0 1 10.813250 12.904770 573.524109
152 0 1 11.136840 12.878651 574.422180
153 0 1 11.258410 12.466420 575.329895
154 0 1 11.124360 12.088390 576.190674
155 0 1 10.834080 11.360220 576.822205
156 0 1 10.586560 10.736380 577.519531
157 0 1 10.209710 10.197001 578.220886
158 0 1 9.503130 9.797910 578.742188
159 0 1 8.930062 9.608840 579.478882
160 0 1 8.301493 9.626520 580.214478
161 0 1 7.791977 9.836690 580.978394
162 0 1 7.425586 9.709390 581.890991
163 0 1 6.990170 9.520750 582.769104
164 0 1 6.690820 9.553240 583.665222
165 0 1 6.346570 9.291790 584.505920
166 0 1 5.920720 9.008460 585.431396
167 0 1 5.648140 8.790043 586.328125
168 0 1 5.592560 8.899224 587.292114
169 0 1 5.132740 8.969631 588.126404
170 0 1 4.398310 9.393150 588.615906
171 0 1 3.732580 9.670530 589.277405
172 0 1 3.100690 9.847710 589.924194
173 0 1 3.006550 10.082109 590.840210
174 0 1 2.986110 9.867560 591.754089
175 0 1 3.037520 9.719590 592.708801
176 0 1 2.985670 9.559999 593.604980
177 0 1 2.867190 9.505080 594.574585
178 0 1 2.940940 9.000080 595.372375
179 0 1 3.039490 8.565525 596.203491
180 0 1 3.197920 7.990965 597.007812
181 0 1 3.518960 7.351583 597.668884
182 0 1 4.114560 6.933250 598.332581
183 0 1 4.394650 6.684590 599.189514
184 0 1 4.965830 6.308180 599.890015
185 0 1 5.474660 6.413900 600.659119
186 0 1 6.053870 6.611280 601.385925
187 0 1 6.606460 6.912230 602.195679
188 0 1 6.990680 7.289742 602.973083
189 0 1 7.531994 7.397360 603.743103
190 0 1 8.132196 7.500479 604.452881
191 0 1 8.700309 7.627285 605.340820
192 0 1 9.186800 7.837302 606.139893
193 0 1 9.482380 8.321097 606.991882
194 0 1 9.753790 8.615007 607.933411
195 0 1 9.916800 8.717458 608.872375
196 0 1 10.112490 8.928444 609.740906
197 0 1 10.592500 9.085040 610.557007
198 0 1 10.940269 9.212970 611.430481
199 0 1 11.199710 9.439830 612.374817
200 0 1 11.329170 9.553650 613.322021
201 0 1 11.397620 9.618040 614.323303
202 0 1 11.550710 9.938670 615.233215
203 0 1 11.420650 10.257870 616.129578
204 0 1 11.210540 10.312290 617.047424
205 0 1 11.095430 10.049360 617.949524
206 0 1 11.388411 9.642700 618.764160
207 0 1 11.502820 9.551510 619.742432
208 0 1 11.846750 9.265720 620.527893
209 0 1 12.471430 8.716833 621.081726
210 0 1 13.098010 8.410814 621.768188
211 0 1 13.612790 8.329821 622.677734
212 0 1 13.934540 8.353071 623.516113
213 0 1 13.864719 8.074809 624.436340
214 0 1 14.143850 7.856835 625.315247
215 0 1 14.207590 7.772653 626.271912
216 0 1 13.993940 7.646722 627.261780
217 0 1 13.349990 7.630190 627.929077
218 0 1 12.679550 7.522347 628.749084
219 0 1 11.981440 7.434417 629.429199
220 0 1 11.294030 7.545100 630.053711
221 0 1 11.033100 8.033706 630.785217
222 0 1 10.566370 8.702828 631.263733
223 0 1 10.095881 9.309270 631.864807
224 0 1 9.765400 9.804060 632.669983
225 0 1 9.387210 10.083460 633.491211
226 0 1 8.704559 10.361850 634.125610
227 0 1 8.151235 10.335210 634.919067
228 0 1 7.686730 10.464450 635.750977
229 0 1 7.213675 10.062060 636.463806
230 0 1 6.863720 9.553761 637.185364
231 0 1 6.537710 9.038700 637.904114
232 0 1 6.461150 8.655640 638.761292
233 0 1 6.051920 8.473959 639.578979
234 0 1 5.649160 8.653498 640.480896
235 0 1 5.200630 8.682674 641.295593
236 0 1 4.872800 8.655420 642.188599
237 0 1 4.511530 8.936202 643.047302
238 0 1 4.392580 9.343880 643.926880
239 0 1 4.415300 9.415390 644.854980
240 0 1 4.465940 9.588370 645.765869
241 0 1 4.680210 9.826930 646.661804
242 0 1 5.374050 10.311920 647.164490
243 0 1 5.945980 10.830240 647.749817
244 0 1 6.254730 11.157130 648.609985
245 0 1 6.242850 11.429689 649.561523
246 0 1 6.208900 11.581350 650.509277
247 0 1 6.174780 11.715100 651.458984
248 0 1 6.110480 11.755470 652.432617
249 0 1 6.202820 11.618210 653.382385
250 0 1 6.214960 11.353130 654.284912
251 0 1 6.096310 11.235620 655.289917
252 0 1 5.898950 10.867290 656.106323
253 0 1 5.705150 10.371970 656.865295
254 0 1 5.336660 9.886320 657.586609
255 0 1 5.090630 9.361350 658.452087
256 0 1 5.064440 9.107560 659.355469
257 0 1 5.023190 8.671935 660.189514
258 0 1 5.353680 8.335842 661.036377
259 0 1 5.749720 7.927614 661.905823
260 0 1 5.761110 7.581141 662.848083
261 0 1 5.888930 7.392918 663.783997
262 0 1 5.831050 7.423842 664.759888
263 0 1 5.723990 7.294979 665.772888
264 0 1 5.355360 7.264752 666.758728
265 0 1 4.999370 7.204889 667.688599
266 0 1 4.674950 7.164767 668.622925
267 0 1 4.386570 7.553260 669.469116
268 0 1 4.582840 7.906099 670.352478
269 0 1 4.645170 8.000173 671.324707
270 0 1 4.567050 8.230016 672.260986
271 0 1 4.413160 8.341101 673.177307
272 0 1 4.524160 8.472007 674.117310
273 0 1 4.471990 8.412056 675.083923
274 0 1 4.364340 8.406255 676.034180
275 0 1 4.210090 8.237245 676.924988
276 0 1 4.079250 8.367286 677.870728
277 0 1 3.801120 8.690842 678.724792
278 0 1 3.407300 8.773276 679.578979
279 0 1 3.124880 8.869312 680.440125
280 0 1 3.059130 9.001210 681.373474
281 0 1 3.035210 9.440920 682.264526
282 0 1 3.013520 9.930270 683.112122
283 0 1 3.334170 10.285370 683.895813
284 0 1 3.599540 10.767210 684.649292
285 0 1 3.946380 11.508180 685.127502
286 0 1 4.402640 11.861890 685.890198
287 0 1 4.779630 12.006929 686.746826
288 0 1 4.991450 12.388610 687.623596
289 0 1 5.057860 12.437870 688.618530
290 0 1 5.124230 12.162690 689.534668
291 0 1 5.375930 11.785590 690.378174
292 0 1 5.488960 11.487080 691.339417
293 0 1 5.461660 11.173790 692.254211
294 0 1 5.688500 10.879750 693.215515
295 0 1 6.058170 10.722410 694.066223
296 0 1 6.616040 10.696170 694.812500
297 0 1 7.122097 10.603220 695.629517
298 0 1 7.412185 10.524240 696.508423
299 0 1 7.574276 10.083941 697.335510
300 0 1 7.837533 9.828400 698.228882
301 0 1 8.106318 9.429380 699.111877
302 0 1 8.253819 9.168320 700.012329
303 0 1 8.379308 8.912213 700.890686
304 0 1 8.418119 8.633510 701.827820
305 0 1 8.611439 8.635758 702.798401
306 0 1 9.086770 8.758230 703.633667
307 0 1 9.527240 8.909185 704.538574
308 0 1 9.801720 9.218630 705.349304
309 0 1 9.800520 9.975430 706.013916
310 0 1 9.328890 10.525190 706.697510
311 0 1 9.008630 11.148170 707.380371
312 0 1 8.658230 11.598370 708.097168
313 0 1 8.403116 12.377140 708.606934
314 0 1 7.816719 13.063129 708.994812
315 0 1 7.282610 13.434401 709.708618
316 0 1 6.780470 13.671440 710.439209
317 0 1 6.236320 13.863160 711.160095
318 0 1 5.696850 13.946830 711.944702
319 0 1 5.294240 14.012280 712.891968
320 0 1 4.914330 14.017530 713.723267
321 0 1 4.674550 13.851660 714.616333
322 0 1 4.709460 13.676950 715.546875
323 0 1 4.793030 13.399380 716.428894
324 0 1 5.035430 13.007959 717.261475
325 0 1 5.160000 12.487740 718.080505
326 0 1 5.359490 11.885270 718.789612
327 0 1 5.606250 11.395900 719.542725
328 0 1 5.730090 10.935790 720.301392
329 0 1 5.813570 10.420090 721.056519
330 0 1 5.802560 9.758950 721.726624
331 0 1 5.973730 9.090480 722.362915
332 0 1 6.190950 8.329331 722.994507
333 0 1 6.458150 7.685260 723.648987
334 0 1 6.899120 7.410069 724.478088
335 0 1 7.259243 7.310343 725.427673
336 0 1 7.778231 7.254486 726.252502
337 0 1 8.102395 7.401703 727.199097
338 0 1 8.426217 7.525857 728.168213
339 0 1 8.607377 7.514384 729.078979
340 0 1 8.654892 7.692511 730.009033
341 0 1 8.796027 7.581587 730.932983
342 0 1 8.555079 7.695070 731.802002
343 0 1 8.289768 7.542733 732.685974
344 0 1 8.037669 7.361635 733.591003
345 0 1 7.644153 7.321049 734.468018
346 0 1 7.488817 6.864310 735.309021
347 0 1 7.720479 6.455420 736.198975
348 0 1 7.670314 6.051900 737.042969
349 0 1 7.485473 5.887670 737.984009
350 0 1 7.258142 5.400980 738.822998
351 0 1 6.972880 5.083980 739.643005
352 0 1 6.981150 4.577300 740.437012
353 0 1 6.714710 3.906010 741.075012
354 0 1 6.259060 3.752660 741.884033
355 0 1 5.655380 3.823710 742.586975
356 0 1 5.393690 4.048050 743.505981
357 0 1 5.280610 4.307440 744.440979
358 0 1 5.265740 4.689960 745.375977
359 0 1 5.555250 5.058100 746.239990
360 0 1 5.769300 5.409710 747.109009
361 0 1 6.269700 5.652700 747.875000
362 0 1 6.783090 5.569720 748.736023
363 0 1 7.232804 5.733430 749.620972
364 0 1 7.689906 5.669890 750.455994
365 0 1 8.187136 5.923220 751.214966
366 0 1 8.612444 6.108230 752.057983
367 0 1 9.011950 6.551730 752.838989
368 0 1 9.404190 6.778430 753.630981
369 0 1 9.886390 6.987580 754.434021
370 0 1 10.025110 6.874390 755.372986
371 0 1 10.044500 6.603830 756.278015
372 0 1 10.230150 6.369880 757.250000
373 0 1 10.360889 6.356390 758.270996
374 0 1 10.393420 6.322890 759.235962
375 0 1 10.376920 6.329680 760.171997
376 0 1 10.373430 6.598060 761.075989
377 0 1 10.135820 7.031867 761.932983
378 0 1 9.913440 7.121024 762.912964
379 0 1 9.664400 6.984680 763.835999
380 0 1 9.298040 6.729000 764.729004
381 0 1 8.818128 6.451480 765.492004
382 0 1 8.245109 6.320480 766.363037
383 0 1 7.718722 6.220120 767.143005
384 0 1 7.350114 6.102100 768.010010
385 0 1 7.166907 6.440350 769.000977
386 0 1 7.108182 6.818150 769.898987
387 0 1 6.996310 7.407983 770.589966
388 0 1 7.252775 8.118624 771.148010
389 0 1 7.609233 8.810807 771.677002
390 0 1 7.793600 9.534160 772.265015
391 0 1 7.922561 10.366250 772.757019
392 0 1 8.149244 11.120990 773.333008
393 0 1 8.612947 11.676200 773.953979
394 0 1 8.530759 11.932290 774.932983
395 0 1 8.332114 11.941270 775.938965
396 0 1 8.016768 11.625260 776.869019
397 0 1 7.768561 11.369670 777.726990
398 0 1 7.416478 10.952300 778.520996
399 0 1 7.423102 10.572930 779.364014
400 0 1 7.088202 10.231740 780.161011
401 0 1 6.759300 9.657150 780.885010
402 0 1 6.328770 9.136020 781.630981
403 0 1 6.151340 8.582501 782.395996
404 0 1 5.919200 8.235067 783.202026
405 0 1 5.964430 7.920605 784.205017
406 0 1 6.190430 7.161843 784.891968
407 0 1 6.151620 6.359510 785.401001
408 0 1 6.243580 5.595740 786.080017
409 0 1 6.456710 5.061200 786.848022
410 0 1 6.897940 4.759680 787.666992
411 0 1 7.402532 4.656130 788.507996
412 0 1 7.934490 4.589980 789.364014
413 0 1 8.578523 4.439880 790.005005
414 0 1 9.134380 4.486980 790.822998
415 0 1 9.807500 4.671220 791.599976
416 0 1 10.145560 5.009200 792.405029
417 0 1 10.136480 5.148190 793.393005
418 0 1 9.779830 5.137550 794.317017
419 0 1 9.822020 5.055440 795.289978
420 0 1 10.125320 4.706080 796.132019
421 0 1 10.148640 4.671750 797.087036
422 0 1 10.255640 4.981820 797.984009
423 0 1 10.521811 5.105740 798.910034
424 0 1 10.675730 5.532360 799.764038
425 0 1 10.691040 5.758790 800.682983
426 0 1 10.842410 6.029700 801.604004
427 0 1 10.890640 6.355190 802.504028
428 0 1 10.805720 6.520910 803.417969
429 0 1 11.099470 6.910130 804.237000
430 0 1 11.367470 7.322817 805.085999
431 0 1 11.416790 7.765248 805.940002
432 0 1 11.465290 8.096730 806.900024
433 0 1 11.490740 8.222602 807.880005
434 0 1 11.621050 8.260498 808.787964
435 0 1 11.683720 8.086665 809.734985
436 0 1 11.712310 7.856657 810.625000
437 0 1 11.796310 7.940407 811.582031
438 0 1 12.146950 7.980476 812.455994
439 0 1 12.355740 8.088937 813.400024
440 0 1 12.553590 7.961843 814.374023
441 0 1 12.551830 7.847939 815.419983
442 0 1 12.591391 7.728677 816.349976
443 0 1 12.470119 7.630784 817.304993
444 0 1 12.218180 7.504831 818.203979
445 0 1 12.155371 7.526412 819.174011
446 0 1 11.794991 7.345625 820.020020
447 0 1 11.393070 7.225796 820.859985
448 0 1 11.029490 7.126610 821.757996
449 0 1 10.549630 7.019583 822.588013
450 0 1 9.842950 6.966540 823.184021
451 0 1 9.353230 7.047444 824.009033
452 0 1 8.746950 6.922930 824.752991
453 0 1 8.352486 7.182321 825.640015
454 0 1 7.705370 7.529037 826.265991
455 0 1 6.995060 7.711021 826.968018
456 0 1 6.491830 8.122507 827.687988
457 0 1 5.978480 8.350180 828.499023
458 0 1 5.509960 8.850399 829.190002
459 0 1 5.069920 9.108540 830.015015
460 0 1 4.561270 9.353840 830.823975
461 0 1 4.219890 9.591360 831.718018
462 0 1 4.055090 10.054880 832.489990
463 0 1 4.205570 10.448460 833.328003
464 0 1 4.478530 10.731930 834.184021
465 0 1 4.988760 11.214000 834.884033
466 0 1 5.764460 11.682100 835.320984
467 0 1 6.586530 11.790930 835.841003
468 0 1 7.524442 11.641460 836.091003
469 0 1 8.413809 11.236970 836.385010
470 0 1 9.252769 10.782600 836.577026
471 0 1 10.064810 10.368800 836.417969
472 0 1 10.818270 9.694201 836.239014
473 0 1 11.537189 8.973748 836.072021
474 0 1 12.176439 8.385325 835.757996
475 0 1 12.627439 7.865388 835.057007
476 0 1 13.219090 7.638344 834.382019
477 0 1 13.730630 7.378474 833.559998
478 0 1 13.826600 7.451901 832.643005
479 0 1 13.557819 7.413319 831.757996
480 0 1 13.514640 7.425804 830.789001
481 0 1 13.813890 7.405821 829.822998
482 0 1 13.974340 7.332292 828.865967
483 0 1 14.289909 6.977280 828.052002
484 0 1 14.209590 6.891490 827.056030
485 0 1 14.156080 6.581900 826.120972
486 0 1 13.891450 6.283260 825.264038
487 0 1 13.702590 5.982370 824.367981
488 0 1 13.300090 5.916770 823.460022
489 0 1 12.723970 5.770280 822.700989
490 0 1 12.145630 5.517770 821.994995
491 0 1 11.583651 5.088890 821.309021
492 0 1 11.104290 4.687880 820.599976
493 0 1 10.455080 4.423220 819.979004
494 0 1 9.861880 4.454440 819.264038
495 0 1 9.239870 4.527170 818.640015
496 0 1 8.541831 4.424370 817.903992
497 0 1 8.181705 4.197680 817.065979
498 0 1 8.215467 4.024690 816.134033
499 0 1 8.284925 3.936050 815.229980
500 0 1 8.375550 4.075270 814.296997
501 0 1 8.848601 4.334570 813.466980
502 0 1 9.140250 4.318630 812.528015
503 0 1 9.516310 3.925940 811.773010
504 0 1 9.404060 3.586620 810.841003
505 0 1 9.096850 3.262680 809.952026
506 0 1 8.666293 3.005700 809.151978
507 0 1 8.312931 2.751150 808.302979
508 0 1 7.821778 2.799300 807.445984
509 0 1 7.264129 2.762760 806.661011
510 0 1 6.662040 2.722160 805.963989
511 0 1 6.155540 2.991590 805.059021
512 0 1 5.680880 3.113360 804.239014
513 0 1 5.127740 3.472200 803.530029
514 0 1 4.554720 3.936350 802.898010
515 0 1 3.821480 4.305880 802.410034
516 0 1 3.528900 4.899200 801.718994
517 0 1 3.234470 5.387040 800.976990
518 0 1 2.983550 6.024420 800.346985
519 0 1 2.819340 6.614600 799.589966
520 0 1 2.699430 7.064113 798.747009
521 0 1 2.909640 7.729564 798.122009
522 0 1 3.239230 8.462711 797.593994
523 0 1 3.320360 9.085930 796.929993
524 0 1 3.353750 9.710640 796.192993
525 0 1 3.299650 10.296170 795.417969
526 0 1 3.510370 10.812110 794.635010
527 0 1 3.668910 11.189870 793.804016
528 0 1 3.955220 11.498930 792.929016
529 0 1 4.160430 11.745940 792.026978
530 0 1 4.487890 11.898930 791.181030
531 0 1 4.599970 11.863550 790.218018
532 0 1 4.775420 11.643579 789.304016
533 0 1 4.980630 11.636440 788.309998
534 0 1 5.338660 11.769910 787.367004
535 0 1 5.354390 11.746540 786.375977
536 0 1 5.512220 11.378340 785.473022
537 0 1 5.623160 10.974680 784.648010
538 0 1 5.665280 10.375020 783.872986
539 0 1 5.502970 10.074170 782.914978
540 0 1 5.273790 10.144210 782.002014
541 0 1 5.187510 10.076020 781.070984
542 0 1 4.973730 10.494761 780.266968
543 0 1 5.069190 11.128440 779.536011
544 0 1 5.071750 11.621310 778.752991
545 0 1 5.404110 12.081250 777.953003
546 0 1 5.878050 12.423241 777.171021
547 0 1 6.497770 12.540200 776.492004
548 0 1 7.052698 12.709810 775.794983
549 0 1 7.553951 13.090870 775.068970
550 0 1 7.483212 13.604000 774.226013
551 0 1 7.449785 14.089500 773.364014
552 0 1 7.153483 14.386050 772.479004
553 0 1 6.686870 14.449270 771.645020
554 0 1 6.123190 14.418200 770.721985
555 0 1 5.818530 14.212740 769.859985
556 0 1 5.788980 14.050650 768.947021
557 0 1 5.659570 13.793970 768.010010
558 0 1 5.739760 13.171721 767.263000
559 0 1 5.741590 12.482220 766.551025
560 0 1 5.697850 11.909330 765.734009
561 0 1 5.407000 11.378160 764.931030
562 0 1 5.357370 11.084681 764.016968
563 0 1 5.119740 10.780570 763.143982
564 0 1 5.082260 10.339911 762.281982
565 0 1 5.482230 10.133369 761.359009
566 0 1 5.959980 10.077070 760.544006
567 0 1 6.298830 10.278030 759.627014
568 0 1 6.278670 10.107580 758.614990
569 0 1 6.604560 9.954300 757.737000
570 0 1 6.540390 9.741840 756.764038
571 0 1 6.418650 9.673491 755.789978
572 0 1 6.384170 9.668360 754.846008
573 0 1 6.423900 9.753920 753.913025
574 0 1 6.420510 10.139080 753.072021
575 0 1 6.449490 10.391890 752.174011
576 0 1 6.674430 10.318910 751.247986
577 0 1 6.760020 10.369320 750.273987
578 0 1 6.963920 10.119500 749.354004
579 0 1 7.040081 9.887570 748.393005
580 0 1 7.232472 9.778450 747.437012
581 0 1 7.269223 9.248750 746.596008
582 0 1 7.439288 8.747848 745.802002
583 0 1 7.278575 8.206773 744.953979
584 0 1 7.015574 8.113464 743.968018
585 0 1 6.633710 7.970822 743.112976
586 0 1 6.032220 7.834149 742.292969
587 0 1 5.777820 7.780515 741.390015
588 0 1 5.614110 7.577441 740.481995
589 0 1 5.511230 7.457684 739.513000
590 0 1 5.255080 7.188726 738.622986
591 0 1 4.703360 6.970560 737.780029
592 0 1 4.265270 7.184535 736.924988
593 0 1 3.834860 7.080739 736.080017
594 0 1 3.537650 7.125475 735.158020
595 0 1 3.209720 7.011542 734.247009
596 0 1 2.895780 7.047300 733.359009
597 0 1 2.785940 7.085924 732.437012
598 0 1 2.762170 7.238094 731.487976
599 0 1 2.818850 7.210580 730.521973
600 0 1 2.975430 7.180550 729.612000
601 0 1 3.275590 7.270335 728.710022
602 0 1 3.607050 7.369384 727.856018
603 0 1 3.956310 7.383388 726.903625
604 0 1 4.286700 7.350147 725.998291
605 0 1 4.727070 7.511755 725.092590
606 0 1 5.147100 7.599794 724.269592
607 0 1 5.247500 7.508967 723.267334
608 0 1 5.387430 7.306272 722.356567
609 0 1 5.616500 6.845370 721.489624
610 0 1 5.939430 6.329050 720.741821
611 0 1 6.318570 6.028450 719.870178
612 0 1 6.534610 5.591510 718.994385
613 0 1 6.686400 5.414840 718.058777
614 0 1 6.729070 5.365500 717.083923
615 0 1 6.722020 5.463630 716.116821
616 0 1 6.487340 5.436570 715.151367
617 0 1 6.230240 5.476260 714.253296
618 0 1 6.318620 5.505460 713.231689
619 0 1 6.658800 5.347710 712.354309
620 0 1 7.124172 5.452660 711.539001
621 0 1 7.822829 5.481470 710.872314
622 0 1 8.536389 5.705960 710.263000
623 0 1 9.168250 5.751660 709.516418
624 0 1 9.779380 5.658650 708.788025
625 0 1 10.240410 5.852650 707.988403
626 0 1 10.782850 6.421410 707.380493
627 0 1 11.290520 7.017325 706.857788
628 0 1 11.631990 7.284100 706.023804
629 0 1 11.870560 7.379804 705.132202
630 0 1 11.939350 7.650509 704.181274
631 0 1 11.897690 7.984718 703.281006
632 0 1 11.888900 8.473263 702.492188
633 0 1 11.870180 9.085340 701.610596
634 0 1 11.731500 9.424750 700.685303
635 0 1 11.468451 9.636390 699.739868
636 0 1 11.174470 9.698030 698.867004
637 0 1 11.020540 10.143909 698.043274
638 0 1 10.796730 10.477030 697.141724
639 0 1 10.617440 10.773951 696.224487
640 0 1 10.399910 10.935450 695.297791
641 0 1 10.133660 11.356330 694.454407
642 0 1 9.875810 11.756860 693.630676
643 0 1 9.553650 12.406290 692.986572
644 0 1 9.498610 12.919331 692.189087
645 0 1 9.501160 13.234570 691.330200
646 0 1 9.262510 13.357370 690.416382
647 0 1 8.710023 13.341681 689.673828
648 0 1 8.192671 13.356640 688.888123
649 0 1 7.617529 13.222640 688.082214
650 0 1 7.071561 13.228030 687.287903
651 0 1 6.554980 13.031429 686.387085
652 0 1 6.302180 12.749730 685.545898
653 0 1 6.046600 12.340700 684.726990
654 0 1 5.955840 12.188340 683.732727
655 0 1 5.839820 11.864010 682.845520
656 0 1 5.620570 11.616820 681.920715
657 0 1 5.437320 11.384530 681.020020
658 0 1 5.112330 11.371861 680.070068
659 0 1 4.996910 11.465730 679.135803
660 0 1 5.037380 11.198560 678.228882
661 0 1 4.958170 10.834140 677.381592
662 0 1 4.828900 10.320370 676.592896
663 0 1 4.966200 10.071980 675.677795
664 0 1 5.204650 9.892320 674.776428
665 0 1 5.701500 9.518510 673.995728
666 0 1 6.139940 9.427640 673.172729
667 0 1 6.540580 9.368880 672.263977
668 0 1 6.890990 9.383700 671.356812
669 0 1 7.212819 9.676740 670.478088
670 0 1 7.455113 9.825790 669.541199
671 0 1 7.643737 9.915760 668.588501
672 0 1 7.819519 10.064470 667.667725
673 0 1 7.879957 9.866080 666.728577
674 0 1 8.171330 9.680161 665.808472
675 0 1 8.304280 9.730659 664.873901
676 0 1 8.351053 9.911530 663.850891
677 0 1 8.377753 9.850710 662.772888
678 0 1 8.500457 9.713650 661.831909
679 0 1 8.493612 9.243170 660.975098
680 0 1 8.283709 8.949403 660.015198
681 0 1 7.915359 8.741898 659.119080
682 0 1 7.773635 8.599718 658.173828
683 0 1 7.411639 8.485357 657.312012
684 0 1 7.153315 8.425977 656.388916
685 0 1 6.962300 8.348094 655.398010
686 0 1 6.941800 8.184889 654.372986
687 0 1 7.107834 7.584461 653.598572
688 0 1 7.208579 7.010479 652.801819
689 0 1 7.480319 6.551680 652.010193
690 0 1 7.595243 6.121530 651.172791
691 0 1 7.900346 5.787610 650.312988
692 0 1 8.147544 5.474020 649.465820
693 0 1 8.665233 5.423920 648.610107
694 0 1 9.152610 5.269890 647.669006
695 0 1 9.625570 5.150070 646.756470
696 0 1 9.892330 5.185910 645.742798
697 0 1 10.062990 5.306160 644.781799
698 0 1 10.075290 5.201220 643.891479
699 0 1 9.991520 4.735670 643.059998
700 0 1 10.091249 4.315580 642.179199
701 0 1 10.367790 4.006980 641.379395
702 0 1 10.512430 3.762840 640.460571
703 0 1 10.883020 3.661090 639.641602
704 0 1 11.270630 3.853190 638.806885
705 0 1 11.682920 4.199670 637.984375
706 0 1 11.936780 4.307230 636.995605
707 0 1 12.032030 4.315050 635.987610
708 0 1 11.998370 4.321380 635.061768
709 0 1 12.078381 4.052230 634.100159
710 0 1 12.343309 4.118280 633.219910
711 0 1 12.604990 4.447910 632.367859
712 0 1 12.799191 4.631190 631.449097
713 0 1 12.831910 4.830780 630.503845
714 0 1 12.843760 4.782560 629.547424
715 0 1 12.696760 4.341220 628.722778
716 0 1 12.480180 3.740670 627.962708
717 0 1 12.237420 3.530630 627.051697
718 0 1 11.733510 3.528910 626.298340
719 0 1 10.994670 3.700010 625.585693
720 0 1 10.280970 3.699720 624.946472
721 0 1 9.433150 3.730430 624.423889
722 0 1 8.853175 4.194580 623.782776
723 0 1 8.405124 4.641440 623.030579
724 0 1 8.076495 5.245240 622.384827
725 0 1 7.714659 5.835180 621.748718
726 0 1 7.075025 6.338470 621.266663
727 0 1 6.565460 6.795900 620.538025
728 0 1 6.319630 7.187747 619.724121
729 0 1 6.068710 7.601284 618.866882
730 0 1 5.934420 7.775569 617.980103
731 0 1 5.753600 8.042222 617.065613
732 0 1 5.804370 8.504549 616.167419
733 0 1 6.030430 8.869062 615.295593
734 0 1 6.221950 8.799063 614.393127
735 0 1 6.224030 8.963897 613.488281
736 0 1 6.123400 9.255890 612.608826
737 0 1 6.393710 9.625550 611.781616
738 0 1 6.729790 9.877470 610.942017
739 0 1 7.137287 10.368590 610.179993
740 0 1 7.574912 10.725140 609.414307
741 0 1 7.773212 11.421800 608.787720
742 0 1 7.895852 11.946740 607.987671
743 0 1 8.276904 12.395870 607.240295
744 0 1 8.765846 12.631350 606.391907
745 0 1 9.554710 12.855050 605.800171
746 0 1 10.140690 12.750900 605.018005
747 0 1 10.748180 12.477000 604.343506
748 0 1 11.134871 12.109190 603.558594
749 0 1 11.266850 11.789910 602.672180
750 0 1 11.341021 11.662040 601.702271
751 0 1 11.498301 11.448230 600.747803
752 0 1 11.732460 11.237580 599.822327
753 0 1 12.156810 11.061150 598.978394
754 0 1 12.669900 10.792860 598.263672
755 0 1 13.040140 10.594330 597.396790
756 0 1 13.414550 10.539750 596.504395
757 0 1 13.743071 10.455910 595.611328
758 0 1 14.086980 10.102410 594.799988
759 0 1 14.405220 9.480721 594.126709
760 0 1 14.662030 9.051690 593.327698
761 0 1 14.787490 8.667962 592.479797
762 0 1 14.522511 8.267372 591.632568
763 0 1 13.962870 8.087281 590.859924
764 0 1 13.580540 8.116869 589.940430
765 0 1 13.169650 7.987671 589.107727
766 0 1 12.837910 8.242521 588.247925
767 0 1 12.556160 8.441831 587.280212
768 0 1 12.288099 8.233814 586.370483
769 0 1 11.937740 8.237895 585.443176
770 0 1 11.606380 8.199578 584.496582
771 0 1 11.184470 8.088565 583.591614
772 0 1 10.833740 7.957435 582.683228
773 0 1 10.834190 7.913515 581.661011
774 0 1 11.078950 8.185680 580.778625
775 0 1 11.036460 8.517142 579.862488
776 0 1 11.050310 9.079560 579.071289
777 0 1 11.234070 9.675500 578.336609
778 0 1 11.413450 10.021670 577.374268
779 0 1 11.395590 10.427500 576.526184
780 0 1 11.254660 10.789880 575.644226
781 0 1 10.969170 11.074820 574.735779
782 0 1 10.778490 10.904610 573.810669
783 0 1 10.535780 10.932980 572.942627
784 0 1 10.393510 10.937370 572.004517
785 0 1 10.020140 10.856840 571.131409
786 0 1 9.639430 10.631880 570.299988
787 0 1 9.062210 10.348200 569.518616
788 0 1 8.614342 10.306190 568.648926
789 0 1 8.343745 10.248210 567.751709
790 0 1 7.796581 10.376250 566.978882
791 0 1 7.029625 10.251040 566.407410