LAMMPS data file via MDAnalysis

        1000  atoms
        1000  bonds
        1000  angles
           0  dihedrals
           0  impropers

           1  atom types
           1  bond types
           1  angle types
           0  dihedral types
           0  improper types

0.000000 16.000000 xlo xhi
0.000000 16.000000 ylo yhi
0.000000 1257.000000 zlo zhi


Masses

1 1.000000

Atoms

1 0 1 10.555799 9.793670 444.919006
2 0 1 10.233170 9.427620 445.695007
3 0 1 10.124110 9.063290 446.520020
4 0 1 10.196070 8.711633 447.432007
5 0 1 10.246740 8.233363 448.294006
6 0 1 10.548130 7.844079 449.164001
7 0 1 11.101250 7.513250 449.873993
8 0 1 11.485570 7.008941 450.654999
9 0 1 11.981510 6.421940 451.200989
10 0 1 12.358920 5.793120 451.854004
11 0 1 12.691710 5.339180 452.638000
12 0 1 13.053160 4.921980 453.421021
13 0 1 13.160540 4.907380 454.432983
14 0 1 13.210150 4.762180 455.359985
15 0 1 13.074650 4.961830 456.294983
16 0 1 12.888340 4.999860 457.208008
17 0 1 12.719170 5.092050 458.147003
18 0 1 12.432529 5.196230 459.098022
19 0 1 12.246590 5.393320 460.005981
20 0 1 11.993480 5.692210 460.832001
21 0 1 11.946970 6.013120 461.791992
22 0 1 11.748740 6.314140 462.703979
23 0 1 11.593719 6.591370 463.630005
24 0 1 11.728970 7.038106 464.510986
25 0 1 11.867661 7.582189 465.260986
26 0 1 12.081470 8.172188 466.082001
27 0 1 12.147570 8.834965 466.781006
28 0 1 11.846940 9.446301 467.450989
29 0 1 11.638440 10.039200 468.286011
30 0 1 11.594530 10.308750 469.220001
31 0 1 11.423980 10.437320 470.151978
32 0 1 11.150270 10.590780 471.049988
33 0 1 10.747980 10.355230 471.890991
34 0 1 10.192210 10.107300 472.570984
35 0 1 9.633230 10.038010 473.360992
36 0 1 9.269550 9.914670 474.299011
37 0 1 8.761310 9.685690 475.067017
38 0 1 8.594682 9.258720 475.944000
39 0 1 8.332695 8.824875 476.832001
40 0 1 7.902393 8.389289 477.687012
41 0 1 7.566556 8.246781 478.549011
42 0 1 7.482994 8.007801 479.507996
43 0 1 7.038149 7.710099 480.330017
44 0 1 6.710970 7.385111 481.233002
45 0 1 6.438150 7.242748 482.169983
46 0 1 6.327760 7.203634 483.128998
47 0 1 6.192210 7.135343 484.042999
48 0 1 6.289690 7.248770 484.985992
49 0 1 6.222180 7.541542 485.906006
50 0 1 5.973330 7.675548 486.807007
51 0 1 5.639030 7.827160 487.674011
52 0 1 5.869520 7.759465 488.703003
53 0 1 5.807960 7.802516 489.649994
54 0 1 5.865430 7.802555 490.608002
55 0 1 5.860570 7.681942 491.587006
56 0 1 5.865470 7.664360 492.569000
57 0 1 6.035660 7.717817 493.526001
58 0 1 6.004040 8.180007 494.332001
59 0 1 5.965180 8.525867 495.306000
60 0 1 5.909270 9.016150 496.122009
61 0 1 5.954080 9.166150 497.100006
62 0 1 6.058100 9.345570 498.018982
63 0 1 5.825230 9.389760 498.989014
64 0 1 5.827340 9.440180 499.979980
65 0 1 6.115550 9.620040 500.867004
66 0 1 6.222530 9.811390 501.791016
67 0 1 6.206130 9.942060 502.707001
68 0 1 6.020530 10.247490 503.669006
69 0 1 5.694050 10.370070 504.541992
70 0 1 5.248490 10.391600 505.412994
71 0 1 4.998250 10.513920 506.325989
72 0 1 4.739500 10.196990 507.192993
73 0 1 4.281510 9.947790 507.963989
74 0 1 4.185090 9.500250 508.899994
75 0 1 3.770350 9.180230 509.737000
76 0 1 3.334700 8.934448 510.548004
77 0 1 3.264160 8.723320 511.489990
78 0 1 3.445480 8.648854 512.483032
79 0 1 3.780000 8.362344 513.344971
80 0 1 4.496590 8.180015 514.026001
81 0 1 5.331180 8.148429 514.591980
82 0 1 6.098550 8.247629 515.115967
83 0 1 6.931230 8.479103 515.505005
84 0 1 7.578281 8.734883 516.134033
85 0 1 8.268596 8.694228 516.760010
86 0 1 8.934329 8.678254 517.414978
87 0 1 9.547190 9.051490 518.057983
88 0 1 10.045950 9.365060 518.799011
89 0 1 10.062620 9.748190 519.689026
90 0 1 10.209850 9.982040 520.653992
91 0 1 10.524130 10.244250 521.578003
92 0 1 10.505671 10.337580 522.551025
93 0 1 10.544810 10.331039 523.539978
94 0 1 11.012400 10.155500 524.416992
95 0 1 11.459370 10.024000 525.223999
96 0 1 12.060141 9.817430 525.960022
97 0 1 12.778820 9.654720 526.609009
98 0 1 13.275270 9.459410 527.403992
99 0 1 13.306720 9.333160 528.377014
100 0 1 13.207291 9.514880 529.254822
101 0 1 13.247980 9.458430 530.229004
102 0 1 12.678881 9.581280 531.050720
103 0 1 11.937970 9.798910 531.568298
104 0 1 11.531240 10.178101 532.371216
105 0 1 11.207330 10.481940 533.200928
106 0 1 10.638930 10.580050 533.946594
107 0 1 10.166950 10.846430 534.733582
108 0 1 9.525110 11.060760 535.440125
109 0 1 8.925669 11.435440 536.087891
110 0 1 8.461371 11.845410 536.819397
111 0 1 8.073492 11.911400 537.677185
112 0 1 7.939460 12.015240 538.647705
113 0 1 7.620919 12.060670 539.594116
114 0 1 7.273822 12.335440 540.468323
115 0 1 7.104303 12.424610 541.419189
116 0 1 6.961930 12.484100 542.355286
117 0 1 6.896110 12.626020 543.305603
118 0 1 6.866950 12.866899 544.228394
119 0 1 6.565100 12.907650 545.167175
120 0 1 6.356380 13.033000 546.099121
121 0 1 6.450860 13.258980 546.958008
122 0 1 6.562480 13.294479 547.875793
123 0 1 6.891390 13.518050 548.810974
124 0 1 7.212539 13.639060 549.659485
125 0 1 7.512596 13.476490 550.536499
126 0 1 7.602014 13.195210 551.500122
127 0 1 8.134970 12.906429 552.216919
128 0 1 8.391399 12.592930 553.132080
129 0 1 8.755436 12.427680 553.974487
130 0 1 9.041759 11.873180 554.733093
131 0 1 9.316480 11.223220 555.342712
132 0 1 9.809750 10.764580 555.990173
133 0 1 10.321520 10.362610 556.706421
134 0 1 10.866240 9.958740 557.314575
135 0 1 11.294280 9.564480 558.137817
136 0 1 11.781090 9.194500 558.881470
137 0 1 12.248950 8.774481 559.624023
138 0 1 12.802470 8.785154 560.389709
139 0 1 13.267270 8.786058 561.276184
140 0 1 13.416010 8.814236 562.296204
141 0 1 13.300819 8.746424 563.268066
142 0 1 13.109221 8.513303 564.230591
143 0 1 12.662180 7.989060 564.973083
144 0 1 12.087299 7.408150 565.603088
145 0 1 11.549110 7.041304 566.278687
146 0 1 10.776500 6.756050 566.780029
147 0 1 10.029020 6.549790 567.323486
148 0 1 9.339200 6.390690 568.013123
149 0 1 8.717432 6.382970 568.762512
150 0 1 8.043428 6.405070 569.380188
151 0 1 7.299193 6.320350 570.001526
152 0 1 6.568470 5.927310 570.524475
153 0 1 6.127540 5.776800 571.416809
154 0 1 5.794620 5.624630 572.326904
155 0 1 5.636230 5.322050 573.245605
156 0 1 5.584260 5.180840 574.204590
157 0 1 5.696810 4.827510 575.103821
158 0 1 5.523890 4.632270 575.986694
159 0 1 5.355380 4.664610 576.904602
160 0 1 5.149570 4.630010 577.823730
161 0 1 4.995460 4.621180 578.748596
162 0 1 5.070960 4.971970 579.707275
163 0 1 5.098820 5.279640 580.630005
164 0 1 5.147370 5.375370 581.573120
165 0 1 5.173150 5.537060 582.579590
166 0 1 5.545360 5.588190 583.454407
167 0 1 6.006280 5.865860 584.304199
168 0 1 6.189210 6.277710 585.138428
169 0 1 6.532070 6.398140 586.069580
170 0 1 6.792830 6.399210 586.952271
171 0 1 6.916530 6.304920 587.895020
172 0 1 6.662050 6.429710 588.802979
173 0 1 6.625740 6.537200 589.774902
174 0 1 6.622150 6.954060 590.641968
175 0 1 6.723600 7.370662 591.450623
176 0 1 6.586070 7.860027 592.242188
177 0 1 6.400680 8.287549 593.069824
178 0 1 6.253990 8.722528 593.947693
179 0 1 6.508420 8.850362 594.869995
180 0 1 6.935590 8.660736 595.733704
181 0 1 7.360712 8.449622 596.590393
182 0 1 7.656441 8.414426 597.503601
183 0 1 7.670519 8.261884 598.464783
184 0 1 7.833399 8.223210 599.468628
185 0 1 8.237913 8.320028 600.397217
186 0 1 8.358079 8.504961 601.309326
187 0 1 8.364482 8.853722 602.203125
188 0 1 8.803639 9.281890 602.987610
189 0 1 9.152960 9.557199 603.867371
190 0 1 9.478189 9.941990 604.647888
191 0 1 9.644279 10.273120 605.564209
192 0 1 9.379500 10.170820 606.461182
193 0 1 8.789535 9.937800 607.187317
194 0 1 8.052436 9.748350 607.814331
195 0 1 7.472877 9.769030 608.616089
196 0 1 7.201422 9.798880 609.551514
197 0 1 6.889670 10.078630 610.373779
198 0 1 6.556720 10.309200 611.333130
199 0 1 6.203320 10.400000 612.166504
200 0 1 5.827520 10.609780 613.076294
201 0 1 5.526890 10.651220 613.973206
202 0 1 5.218940 10.390360 614.917480
203 0 1 4.826930 10.314230 615.789490
204 0 1 4.830860 10.068910 616.799988
205 0 1 4.870280 9.732920 617.685303
206 0 1 5.125500 9.864390 618.629028
207 0 1 5.470670 9.824110 619.539001
208 0 1 6.011000 9.867730 620.453308
209 0 1 6.540510 10.259570 621.216064
210 0 1 7.186465 10.488820 621.862549
211 0 1 7.905127 10.571960 622.467346
212 0 1 8.563529 10.703300 623.257385
213 0 1 9.064930 10.668790 624.145447
214 0 1 9.413930 10.456511 625.064880
215 0 1 9.616710 10.594220 626.036377
216 0 1 9.876380 10.717060 626.947327
217 0 1 10.114230 10.801100 627.859741
218 0 1 10.277490 11.245940 628.753967
219 0 1 10.763020 11.501920 629.534302
220 0 1 11.235800 11.800900 630.331177
221 0 1 11.432990 12.082150 631.249451
222 0 1 11.851250 12.373870 632.052612
223 0 1 12.192280 12.633300 632.975220
224 0 1 12.206659 12.599770 633.970093
225 0 1 11.837920 12.110450 634.752441
226 0 1 11.450720 11.584460 635.532166
227 0 1 11.159770 11.244850 636.365173
228 0 1 11.091430 10.813390 637.205505
229 0 1 10.922760 10.342421 638.018555
230 0 1 10.638820 10.102560 638.860413
231 0 1 10.327360 9.527160 639.547485
232 0 1 9.820570 8.993760 640.121521
233 0 1 9.497460 8.717069 640.977112
234 0 1 9.472630 8.602383 641.944519
235 0 1 9.397020 8.498970 642.924988
236 0 1 9.086170 8.333714 643.802612
237 0 1 8.810566 8.374889 644.771179
238 0 1 8.403122 8.590579 645.670471
239 0 1 8.176978 8.376280 646.567871
240 0 1 7.605317 8.188975 647.327271
241 0 1 7.209520 7.906486 648.143677
242 0 1 6.962780 7.628269 649.070801
243 0 1 6.695450 7.076286 649.897888
244 0 1 6.693600 6.598360 650.718811
245 0 1 6.891320 6.350890 651.606323
246 0 1 7.071135 6.345620 652.601196
247 0 1 7.232067 6.409340 653.519531
248 0 1 7.293729 6.717560 654.459717
249 0 1 7.168131 6.766710 655.387329
250 0 1 7.058157 6.912630 656.376709
251 0 1 6.927720 7.370851 657.210388
252 0 1 6.797410 7.980740 657.992493
253 0 1 6.776460 8.412825 658.830322
254 0 1 7.085307 8.776850 659.698730
255 0 1 7.572823 8.895872 660.535278
256 0 1 8.170211 9.031840 661.210327
257 0 1 8.919640 9.102290 661.751282
258 0 1 9.666250 8.890439 662.317627
259 0 1 10.302959 8.672616 662.973694
260 0 1 10.945570 8.434472 663.666992
261 0 1 11.415390 8.390942 664.507385
262 0 1 11.523500 8.383226 665.449402
263 0 1 11.539500 8.233501 666.399475
264 0 1 11.586280 8.155609 667.349487
265 0 1 11.559560 7.966088 668.312500
266 0 1 11.362030 8.243855 669.228210
267 0 1 11.265290 8.670682 670.109802
268 0 1 10.901410 9.425470 670.522583
269 0 1 10.311280 9.992000 671.111084
270 0 1 9.772360 10.306360 671.831787
271 0 1 9.579850 10.619290 672.851196
272 0 1 9.558040 11.028640 673.684998
273 0 1 9.641030 11.305870 674.622070
274 0 1 9.638710 11.529119 675.638000
275 0 1 9.385080 11.402030 676.559204
276 0 1 9.129380 11.261940 677.475220
277 0 1 9.077920 11.085381 678.462219
278 0 1 8.969513 10.930660 679.380005
279 0 1 9.251700 10.594210 680.288391
280 0 1 9.550680 10.202900 681.157227
281 0 1 9.955200 10.110750 682.056274
282 0 1 10.096360 9.750220 682.943298
283 0 1 10.496190 9.324200 683.727295
284 0 1 10.673660 8.950639 684.589111
285 0 1 10.739780 8.568964 685.436768
286 0 1 10.981990 8.489711 686.340027
287 0 1 11.370740 8.641661 687.211182
288 0 1 11.833750 8.688834 688.174500
289 0 1 12.287280 8.887494 689.037903
290 0 1 12.698441 8.982401 689.953369
291 0 1 12.887711 9.255640 690.864197
292 0 1 12.636140 9.851400 691.712097
293 0 1 12.330680 10.005490 692.625000
294 0 1 12.227369 10.284451 693.572021
295 0 1 11.781260 10.214670 694.435974
296 0 1 11.357430 9.888080 695.231384
297 0 1 10.803560 9.714890 696.109985
298 0 1 10.418500 9.409430 696.881287
299 0 1 9.986730 8.962959 697.610291
300 0 1 9.676450 8.370636 698.368103
301 0 1 9.265409 7.935440 699.229309
302 0 1 8.720703 7.422152 699.898926
303 0 1 8.281854 6.872760 700.543701
304 0 1 7.888813 6.510440 701.357666
305 0 1 7.372285 6.145910 702.188110
306 0 1 7.059433 6.057690 703.044495
307 0 1 6.758310 5.945280 703.930603
308 0 1 6.293470 5.902730 704.786804
309 0 1 5.864990 5.716790 705.664673
310 0 1 5.772750 5.500480 706.604492
311 0 1 5.607140 5.295400 707.533997
312 0 1 5.297530 5.171170 708.451294
313 0 1 4.911970 5.184020 709.292419
314 0 1 4.513750 5.457050 710.108398
315 0 1 4.147020 5.860250 710.899780
316 0 1 3.823730 6.199930 711.776794
317 0 1 3.622830 6.720390 712.562866
318 0 1 3.434950 7.253977 713.357422
319 0 1 3.881260 7.752282 714.051575
320 0 1 4.262050 8.183685 714.836487
321 0 1 4.484670 8.129780 715.816528
322 0 1 4.767480 7.961118 716.677673
323 0 1 5.038210 7.885638 717.570374
324 0 1 5.213730 7.869869 718.519531
325 0 1 5.473630 8.017654 719.480225
326 0 1 5.703010 8.288529 720.371277
327 0 1 5.768790 8.688497 721.277283
328 0 1 5.902770 8.995678 722.221497
329 0 1 6.246170 9.194490 723.111389
330 0 1 6.481070 9.440040 723.972107
331 0 1 6.672710 9.944620 724.770325
332 0 1 6.349350 10.394690 725.617004
333 0 1 6.010430 10.831670 726.385498
334 0 1 5.778890 11.126690 727.323975
335 0 1 5.361160 11.388520 728.067078
336 0 1 4.631170 11.633101 728.677979
337 0 1 4.073260 11.954890 729.419006
338 0 1 3.655730 12.223240 730.354980
339 0 1 3.272330 12.267790 731.231995
340 0 1 2.970670 12.334920 732.158997
341 0 1 2.769860 12.131001 733.091003
342 0 1 3.011300 12.037860 734.026001
343 0 1 3.503540 11.958480 734.895020
344 0 1 3.888520 11.863091 735.750977
345 0 1 4.208570 11.447670 736.577026
346 0 1 4.585870 11.067360 737.377991
347 0 1 4.831760 10.815900 738.260986
348 0 1 4.463980 10.500650 739.096985
349 0 1 3.801250 10.362980 739.742981
350 0 1 3.587650 9.785990 740.442993
351 0 1 3.563710 9.211140 741.268982
352 0 1 3.788040 8.813082 742.109985
353 0 1 3.880980 8.321743 742.957031
354 0 1 4.166290 7.689538 743.697021
355 0 1 4.643200 7.165031 744.343018
356 0 1 5.450580 6.919650 744.875977
357 0 1 6.028850 6.598160 745.533020
358 0 1 6.732060 6.224870 746.138000
359 0 1 7.227593 5.891250 746.891968
360 0 1 7.663031 5.474800 747.703003
361 0 1 7.820660 4.674630 748.332031
362 0 1 7.993533 3.941790 748.929016
363 0 1 7.835600 3.313960 749.557983
364 0 1 7.862654 2.598110 750.200012
365 0 1 7.918021 2.153610 751.054993
366 0 1 8.132295 1.750140 751.901978
367 0 1 8.096214 1.519050 752.898987
368 0 1 8.162882 1.149660 753.830994
369 0 1 8.285273 1.196260 754.781006
370 0 1 8.655023 1.394510 755.689026
371 0 1 9.066870 1.417810 756.526001
372 0 1 9.583010 1.809350 757.195007
373 0 1 10.016350 2.356840 757.875977
374 0 1 10.474390 2.715810 758.653015
375 0 1 11.023109 3.179480 759.337036
376 0 1 11.337420 3.878320 759.886963
377 0 1 11.734529 4.580840 760.356018
378 0 1 12.052060 5.071070 761.096985
379 0 1 12.290150 5.440630 761.976013
380 0 1 12.525370 5.371190 762.921021
381 0 1 12.346069 5.508820 763.859009
382 0 1 12.396170 5.227820 764.759033
383 0 1 12.325780 4.775970 765.714966
384 0 1 12.484320 4.187580 766.518005
385 0 1 12.397970 3.878140 767.481995
386 0 1 12.091909 3.429040 768.325012
387 0 1 11.766581 3.042200 769.093994
388 0 1 11.452330 2.802990 769.971985
389 0 1 11.052280 2.695470 770.901001
390 0 1 10.410240 2.819100 771.643005
391 0 1 9.610680 2.792030 772.197998
392 0 1 8.997050 2.546220 772.957031
393 0 1 8.145074 2.516920 773.484009
394 0 1 7.332699 2.714410 774.166016
395 0 1 6.822200 3.216360 774.870972
396 0 1 6.477090 3.697720 775.625977
397 0 1 6.254240 4.201440 776.419983
398 0 1 6.037180 4.686100 777.186035
399 0 1 5.846830 5.031730 778.117981
400 0 1 5.649140 5.422620 778.971985
401 0 1 5.444530 5.602380 779.916016
402 0 1 5.579240 5.610600 780.958008
403 0 1 5.415500 5.859190 781.859985
404 0 1 5.345150 6.212460 782.747009
405 0 1 5.201050 6.261280 783.752991
406 0 1 5.111800 6.265270 784.734985
407 0 1 5.236560 6.268870 785.721008
408 0 1 5.319450 6.407390 786.686035
409 0 1 5.493190 6.345660 787.664001
410 0 1 5.741520 6.103420 788.551025
411 0 1 5.832010 5.760320 789.551025
412 0 1 6.116300 5.798190 790.453003
413 0 1 6.624960 5.549410 791.233032
414 0 1 7.311502 5.463700 791.950012
415 0 1 7.733388 5.413320 792.825989
416 0 1 8.060941 5.507200 793.744019
417 0 1 8.280045 5.564660 794.690979
418 0 1 8.240499 5.696640 795.669983
419 0 1 8.377981 5.937040 796.651978
420 0 1 8.803428 6.271090 797.375000
421 0 1 9.226140 6.577640 798.226990
422 0 1 9.580160 6.710780 799.113037
423 0 1 9.768350 6.509560 800.039978
424 0 1 9.688350 6.288420 801.026978
425 0 1 9.341681 5.814570 801.882019
426 0 1 8.972094 5.516250 802.713989
427 0 1 8.544454 5.553660 803.596985
428 0 1 8.453453 5.360980 804.542969
429 0 1 8.522137 5.352620 805.500977
430 0 1 8.657838 5.415920 806.488037
431 0 1 8.782197 5.351310 807.411987
432 0 1 8.853212 5.248640 808.382019
433 0 1 9.245640 5.038150 809.247986
434 0 1 9.700570 4.882760 810.067993
435 0 1 9.834260 4.870030 811.049988
436 0 1 9.852880 4.807200 812.065979
437 0 1 9.808180 5.079620 813.009033
438 0 1 9.720260 5.393620 813.934021
439 0 1 9.688740 5.522160 814.833984
440 0 1 9.627870 5.883480 815.738037
441 0 1 9.699750 6.108510 816.721008
442 0 1 9.521160 6.371030 817.620972
443 0 1 9.224580 6.331750 818.523987
444 0 1 9.114980 6.389340 819.544983
445 0 1 9.026950 6.706100 820.405029
446 0 1 9.024720 7.268975 821.265015
447 0 1 8.849228 7.758534 822.073975
448 0 1 8.530583 8.462776 822.640991
449 0 1 8.347310 9.293470 823.145996
450 0 1 8.157144 10.127320 823.551025
451 0 1 7.706509 10.951590 824.020020
452 0 1 7.245834 11.455060 824.627991
453 0 1 6.850850 11.913400 825.391968
454 0 1 6.590190 12.470591 826.190002
455 0 1 6.480780 12.915990 827.119019
456 0 1 6.647190 13.292339 828.000000
457 0 1 6.855060 13.397870 828.950989
458 0 1 7.087015 13.681190 829.856018
459 0 1 7.230869 13.636311 830.813965
460 0 1 7.476259 13.840910 831.666992
461 0 1 8.046659 14.092890 832.419006
462 0 1 8.499797 14.173810 833.244019
463 0 1 9.087840 14.253440 834.054993
464 0 1 9.824950 14.223200 834.684021
465 0 1 10.328330 13.877970 835.443970
466 0 1 10.936610 13.375610 835.940002
467 0 1 11.331240 12.645070 836.473999
468 0 1 11.330000 11.776381 836.987000
469 0 1 11.766720 11.008580 837.468994
470 0 1 12.332500 10.452020 837.955994
471 0 1 12.797510 9.700770 838.372009
472 0 1 13.345870 8.955435 838.556030
473 0 1 13.702420 8.039168 838.492981
474 0 1 14.024440 7.228270 838.020020
475 0 1 14.079370 6.744250 837.197021
476 0 1 13.775470 6.310610 836.369995
477 0 1 13.470130 6.196900 835.487000
478 0 1 13.331150 6.074380 834.557983
479 0 1 12.920150 6.318970 833.639038
480 0 1 12.532820 6.604370 832.839966
481 0 1 12.020599 6.852240 832.041992
482 0 1 11.544900 7.268575 831.379028
483 0 1 11.119690 7.684541 830.655029
484 0 1 10.534060 8.148367 830.004028
485 0 1 9.903570 8.484669 829.294006
486 0 1 9.550760 8.705430 828.414001
487 0 1 8.930549 9.154050 827.807983
488 0 1 8.216127 9.612720 827.354004
489 0 1 7.456575 10.017070 826.872986
490 0 1 6.800450 10.216390 826.212036
491 0 1 6.355230 10.332911 825.372986
492 0 1 5.701930 10.130780 824.679016
493 0 1 5.138450 9.950300 823.886963
494 0 1 4.959390 9.812280 822.912964
495 0 1 4.939860 9.627520 821.978027
496 0 1 5.114370 9.247610 821.091980
497 0 1 5.316250 9.060460 820.188965
498 0 1 5.660700 9.111100 819.247009
499 0 1 5.927390 9.411090 818.379028
500 0 1 5.994330 9.503950 817.429993
501 0 1 5.937750 9.509830 816.452026
502 0 1 5.713670 9.772610 815.505005
503 0 1 5.541310 9.991820 814.573975
504 0 1 5.181830 10.014230 813.650024
505 0 1 4.856670 10.289730 812.792969
506 0 1 4.363910 10.386450 811.995972
507 0 1 4.053200 10.371810 811.072998
508 0 1 3.893410 10.550180 810.117004
509 0 1 3.960860 10.671910 809.052002
510 0 1 3.846760 10.873010 808.153015
511 0 1 3.952430 10.962390 807.190979
512 0 1 3.899260 11.207320 806.208008
513 0 1 3.846230 11.420600 805.312988
514 0 1 3.545800 11.489270 804.389038
515 0 1 3.299040 11.254690 803.468018
516 0 1 3.004990 10.881080 802.658020
517 0 1 2.760650 10.541520 801.799988
518 0 1 2.845430 10.418859 800.856995
519 0 1 2.828080 10.305799 799.891968
520 0 1 2.838910 10.401011 798.934021
521 0 1 2.737480 10.431190 797.912964
522 0 1 2.592650 10.559760 796.950989
523 0 1 2.795270 10.529000 796.062988
524 0 1 2.981850 10.408190 795.135010
525 0 1 3.249600 10.283370 794.176025
526 0 1 3.387040 10.235020 793.245972
527 0 1 3.640280 10.208260 792.351013
528 0 1 3.879580 10.228330 791.416016
529 0 1 4.237020 10.402980 790.518005
530 0 1 4.535340 10.282360 789.630005
531 0 1 4.993850 10.251810 788.786011
532 0 1 5.497570 10.309310 787.906982
533 0 1 6.256130 10.472720 787.377014
534 0 1 6.793860 10.455280 786.609985
535 0 1 7.251060 10.400840 785.809021
536 0 1 7.690670 10.099760 784.984009
537 0 1 8.109052 10.010420 784.117004
538 0 1 8.229338 9.992710 783.130005
539 0 1 8.242259 10.181370 782.177002
540 0 1 8.493579 10.460590 781.233032
541 0 1 8.711592 10.638220 780.266968
542 0 1 8.808053 11.106260 779.453979
543 0 1 8.821878 11.231210 778.445984
544 0 1 8.970463 11.368290 777.488037
545 0 1 9.266340 11.420580 776.533997
546 0 1 9.404590 11.639060 775.632996
547 0 1 9.171750 11.660320 774.726990
548 0 1 8.553614 11.440360 773.921997
549 0 1 7.899945 11.109510 773.297974
550 0 1 7.795679 10.750620 772.393982
551 0 1 7.624170 10.500530 771.471008
552 0 1 7.303287 10.337650 770.546997
553 0 1 7.209319 10.284130 769.567993
554 0 1 6.950600 10.590570 768.693970
555 0 1 6.821690 10.740340 767.775024
556 0 1 6.539070 11.122030 766.932007
557 0 1 6.497120 11.761880 766.247986
558 0 1 6.546930 12.201870 765.385986
559 0 1 6.294530 12.696430 764.641968
560 0 1 6.126890 12.929380 763.761963
561 0 1 6.085560 13.033770 762.778015
562 0 1 6.124540 13.187719 761.846008
563 0 1 6.235250 13.420610 760.955017
564 0 1 6.228380 13.530690 759.979980
565 0 1 6.005700 13.611031 759.049011
566 0 1 5.797700 13.794411 758.051025
567 0 1 5.859600 13.978600 757.011963
568 0 1 6.121290 14.124840 756.088989
569 0 1 6.370870 14.377501 755.195984
570 0 1 6.491550 14.341300 754.219971
571 0 1 6.172130 14.301331 753.343018
572 0 1 5.900120 14.271510 752.468018
573 0 1 5.739740 14.315889 751.500000
574 0 1 5.928510 14.084829 750.589966
575 0 1 6.051990 13.859859 749.716003
576 0 1 6.241550 13.440730 748.823975
577 0 1 6.282710 12.913230 747.948975
578 0 1 6.414220 12.488100 747.000977
579 0 1 6.592500 12.242220 746.106995
580 0 1 7.127673 11.874040 745.440979
581 0 1 7.567757 11.607550 744.641968
582 0 1 7.985095 11.309380 743.867004
583 0 1 8.286721 11.008110 742.997009
584 0 1 8.787894 10.981200 742.187012
585 0 1 9.245200 10.928320 741.307007
586 0 1 9.641560 10.813650 740.448975
587 0 1 10.072430 10.814520 739.536011
588 0 1 10.256890 10.622760 738.625000
589 0 1 10.400090 10.470240 737.664978
590 0 1 10.460530 10.363310 736.687988
591 0 1 10.386930 10.275909 735.697998
592 0 1 10.452380 10.445869 734.768005
593 0 1 10.725100 10.170540 733.880981
594 0 1 10.964530 10.177031 732.929993
595 0 1 11.350660 10.274920 732.039001
596 0 1 11.502260 10.353160 731.112000
597 0 1 11.843640 10.234940 730.197998
598 0 1 12.083480 9.924430 729.281982
599 0 1 12.342260 9.660410 728.425903
600 0 1 12.501360 9.369140 727.519714
601 0 1 12.743600 9.008850 726.715393
602 0 1 12.992490 8.900495 725.798584
603 0 1 12.954420 8.763954 724.894897
604 0 1 13.307920 8.698393 724.016724
605 0 1 13.336710 8.699100 723.064514
606 0 1 13.258810 9.034100 722.109192
607 0 1 13.047131 9.259160 721.223389
608 0 1 13.013500 9.330420 720.275391
609 0 1 12.888610 9.137170 719.251404
610 0 1 12.679279 9.156650 718.242920
611 0 1 12.809071 8.964156 717.274475
612 0 1 12.742360 9.190710 716.316711
613 0 1 12.404670 9.476580 715.436523
614 0 1 11.979589 9.922350 714.671875
615 0 1 11.837880 10.157590 713.769104
616 0 1 11.358200 10.222589 712.815918
617 0 1 10.876270 10.123220 712.010986
618 0 1 10.506020 10.149340 711.125610
619 0 1 10.225620 10.134080 710.270813
620 0 1 9.724310 10.119659 709.484375
621 0 1 8.966781 9.969170 708.906921
622 0 1 8.157954 9.655480 708.395020
623 0 1 7.569664 9.291950 707.699280
624 0 1 6.931550 9.294410 706.990173
625 0 1 6.463240 9.285490 706.158203
626 0 1 6.359720 9.104800 705.189026
627 0 1 6.382850 9.066810 704.236877
628 0 1 6.553480 8.987015 703.301514
629 0 1 6.668820 8.995107 702.322510
630 0 1 6.744830 8.976020 701.358582
631 0 1 6.902250 8.714279 700.363708
632 0 1 6.764370 8.434179 699.371277
633 0 1 6.597470 8.049007 698.504272
634 0 1 6.365090 7.595190 697.733276
635 0 1 6.502100 6.957130 696.967285
636 0 1 6.847720 6.470230 696.099426
637 0 1 7.139254 5.778610 695.508423
638 0 1 7.435000 5.097320 694.831299
639 0 1 7.660009 4.443710 694.195984
640 0 1 7.907773 3.895410 693.474121
641 0 1 7.765722 3.635960 692.571777
642 0 1 7.826425 3.370560 691.653809
643 0 1 8.023563 3.270570 690.677368
644 0 1 8.119576 3.295140 689.717224
645 0 1 8.217174 3.116200 688.699280
646 0 1 8.460686 3.183850 687.780579
647 0 1 8.623103 3.109960 686.838806
648 0 1 8.607765 3.111600 685.902893
649 0 1 8.139618 3.364840 685.092407
650 0 1 7.646272 3.450770 684.299988
651 0 1 7.204324 3.674360 683.422424
652 0 1 6.805940 4.127600 682.652710
653 0 1 6.232960 4.616120 682.066528
654 0 1 5.426980 4.993450 681.652283
655 0 1 4.768210 5.395320 681.089417
656 0 1 4.234360 5.581940 680.338806
657 0 1 3.920570 6.031810 679.566528
658 0 1 3.543970 6.218210 678.636108
659 0 1 3.372320 6.340020 677.687805
660 0 1 3.317420 6.530690 676.758728
661 0 1 3.014750 6.780260 675.879395
662 0 1 2.897970 6.805270 674.865112
663 0 1 2.779640 6.539730 673.926025
664 0 1 3.044620 6.335570 672.997986
665 0 1 3.151750 5.819130 672.229004
666 0 1 3.256060 5.291560 671.325500
667 0 1 3.419020 4.803890 670.536316
668 0 1 3.790510 4.301480 669.787231
669 0 1 3.997510 3.628420 669.126526
670 0 1 4.214980 3.124370 668.277893
671 0 1 4.397670 2.962610 667.364807
672 0 1 4.527590 2.867590 666.310181
673 0 1 4.863820 3.075440 665.420410
674 0 1 5.431510 3.402870 664.595703
675 0 1 5.883370 3.794710 663.874817
676 0 1 6.341790 4.094370 663.067322
677 0 1 6.656050 4.183710 662.187988
678 0 1 6.619070 4.266180 661.258606
679 0 1 6.725030 4.388960 660.341309
680 0 1 6.804490 4.687840 659.457703
681 0 1 7.078652 5.029760 658.512817
682 0 1 6.804630 5.353560 657.613220
683 0 1 6.572370 5.275510 656.710327
684 0 1 6.378470 5.169190 655.779175
685 0 1 5.871210 5.203130 654.925171
686 0 1 5.338650 5.229910 654.077209
687 0 1 4.704570 5.246810 653.208679
688 0 1 4.056820 5.304010 652.433411
689 0 1 3.599170 5.510870 651.592712
690 0 1 3.123180 5.737030 650.718628
691 0 1 2.687200 5.795130 649.858398
692 0 1 2.479130 6.248800 649.038696
693 0 1 2.590470 6.496070 648.117615
694 0 1 2.561810 6.474590 647.179199
695 0 1 2.320380 6.386510 646.257507
696 0 1 1.953270 6.461640 645.305298
697 0 1 1.823640 6.696600 644.370728
698 0 1 1.638390 6.719500 643.430725
699 0 1 1.501630 6.778550 642.465515
700 0 1 1.471250 7.016047 641.574707
701 0 1 1.802980 7.337433 640.725525
702 0 1 2.036430 7.126084 639.826721
703 0 1 2.392540 6.917790 638.965576
704 0 1 3.112680 6.615480 638.366333
705 0 1 4.042300 6.466590 637.808472
706 0 1 4.809020 6.192490 637.261475
707 0 1 5.570100 5.833930 636.942627
708 0 1 6.176890 5.391020 636.270264
709 0 1 6.575680 4.978490 635.495239
710 0 1 7.019097 4.637380 634.722351
711 0 1 7.636661 4.391300 634.073364
712 0 1 8.366378 4.305870 633.465759
713 0 1 9.131070 4.601140 632.970886
714 0 1 9.836550 4.785690 632.354065
715 0 1 10.368010 5.117240 631.621826
716 0 1 11.072840 5.196000 631.019653
717 0 1 11.742290 5.505980 630.376587
718 0 1 12.182159 5.772890 629.565063
719 0 1 12.469020 5.838620 628.697327
720 0 1 12.626610 6.018960 627.796143
721 0 1 12.817699 5.715480 626.807556
722 0 1 12.668210 5.393640 625.877319
723 0 1 12.691530 5.209730 624.958679
724 0 1 12.995110 5.126080 624.024231
725 0 1 12.860910 5.192940 623.017700
726 0 1 12.983300 5.247630 622.033569
727 0 1 13.075900 5.486180 621.041199
728 0 1 13.420390 5.501340 620.214661
729 0 1 13.857630 5.395880 619.352783
730 0 1 14.025780 5.467310 618.355225
731 0 1 13.964360 5.693430 617.429199
732 0 1 13.971500 6.155970 616.542603
733 0 1 13.999030 6.828650 615.931580
734 0 1 13.845440 7.339477 615.092590
735 0 1 13.427280 7.901761 614.431702
736 0 1 12.813630 7.950528 613.692993
737 0 1 12.430880 8.134450 612.846008
738 0 1 11.974620 8.139992 611.979309
739 0 1 11.656100 7.906006 611.159302
740 0 1 11.227900 7.835004 610.323425
741 0 1 10.463280 7.809005 609.723389
742 0 1 9.736250 7.714712 609.077393
743 0 1 9.127510 7.218341 608.468994
744 0 1 8.373554 6.934890 607.999878
745 0 1 7.634804 6.969930 607.348572
746 0 1 7.147068 7.304022 606.580200
747 0 1 6.728350 7.572494 605.638977
748 0 1 6.524460 7.640846 604.691895
749 0 1 6.312880 7.827124 603.798279
750 0 1 6.368090 8.200706 602.882324
751 0 1 6.667840 8.679973 602.024597
752 0 1 6.792670 9.060610 601.182007
753 0 1 6.996940 9.670270 600.467224
754 0 1 7.138360 10.138100 599.639587
755 0 1 7.305942 10.327630 598.657471
756 0 1 7.848357 10.570160 597.844116
757 0 1 8.360250 10.516640 596.999817
758 0 1 8.828359 10.066620 596.323730
759 0 1 9.390650 9.490050 595.766602
760 0 1 9.992620 9.156360 595.143494
761 0 1 10.492889 8.926611 594.314880
762 0 1 10.545180 8.520770 593.459595
763 0 1 10.492080 8.171115 592.601074
764 0 1 10.223460 7.720025 591.722778
765 0 1 10.188400 7.722015 590.791626
766 0 1 10.036910 7.619103 589.761414
767 0 1 9.778600 7.609326 588.872803
768 0 1 9.717890 7.539318 587.937195
769 0 1 9.483860 7.532223 586.998108
770 0 1 9.198390 7.362224 586.063110
771 0 1 9.367740 6.973120 585.125488
772 0 1 9.570640 6.415650 584.356201
773 0 1 9.747700 5.920670 583.558289
774 0 1 9.849890 5.658690 582.664673
775 0 1 10.000660 5.599180 581.687622
776 0 1 9.792730 5.384740 580.798584
777 0 1 9.278060 5.079330 580.041382
778 0 1 8.909493 4.638990 579.334229
779 0 1 8.199043 4.224260 578.935669
780 0 1 7.391591 3.984510 578.436707
781 0 1 6.753850 3.886950 577.732605
782 0 1 6.299270 3.671980 576.876831
783 0 1 5.830570 3.577030 576.096497
784 0 1 5.437740 3.266200 575.298401
785 0 1 5.129900 3.206040 574.329773
786 0 1 4.769320 3.308480 573.437805
787 0 1 4.398800 3.635220 572.526184
788 0 1 4.009270 3.917440 571.661682
789 0 1 3.491160 3.974020 570.826172
790 0 1 3.175760 4.140310 569.903809