LAMMPS data file via MDAnalysis

        1000  atoms
        1000  bonds
        1000  angles
           0  dihedrals
           0  impropers

           1  atom types
           1  bond types
           1  angle types
           0  dihedral types
           0  improper types

0.000000 16.000000 xlo xhi
0.000000 16.000000 ylo yhi
0.000000 1257.000000 zlo zhi


Masses

1 1.000000

Atoms

1 0 1 10.521510 8.068361 458.197021
2 0 1 11.185900 7.874202 458.923004
3 0 1 11.680950 7.647318 459.773010
4 0 1 12.041910 7.493914 460.588013
5 0 1 12.487380 7.307272 461.397003
6 0 1 12.728010 7.195979 462.278992
7 0 1 12.860870 7.281035 463.276001
8 0 1 12.923810 7.263723 464.201996
9 0 1 12.599810 7.605608 465.080017
10 0 1 12.110680 7.751438 465.950012
11 0 1 11.864010 7.725929 466.893982
12 0 1 11.581330 7.749228 467.828979
13 0 1 11.246590 8.038338 468.648010
14 0 1 11.602750 8.555940 469.356018
15 0 1 11.754610 8.986691 470.164001
16 0 1 11.968121 9.514580 470.968994
17 0 1 12.473061 9.896700 471.725006
18 0 1 13.028720 10.264260 472.468994
19 0 1 13.086420 10.480450 473.419006
20 0 1 12.938630 10.506560 474.371002
21 0 1 12.868401 10.522590 475.309998
22 0 1 12.803540 10.461150 476.225006
23 0 1 12.528760 10.478120 477.147003
24 0 1 12.198050 10.598210 478.014008
25 0 1 11.875100 10.460320 478.940002
26 0 1 11.677210 10.329630 479.852997
27 0 1 11.604190 10.274100 480.798004
28 0 1 11.169150 10.405350 481.653992
29 0 1 10.801390 10.511490 482.552979
30 0 1 10.593170 10.331690 483.453003
31 0 1 10.198610 10.232500 484.296997
32 0 1 9.935870 9.858280 485.147003
33 0 1 9.517710 9.315280 485.914978
34 0 1 9.015930 9.028700 486.705994
35 0 1 8.536418 8.752736 487.473999
36 0 1 8.290486 8.227785 488.341003
37 0 1 8.125837 7.865279 489.255005
38 0 1 7.936237 7.579124 490.160004
39 0 1 8.045967 7.203964 491.140991
40 0 1 7.811128 6.869310 492.054016
41 0 1 7.637219 6.368830 492.838989
42 0 1 7.774055 6.185660 493.835999
43 0 1 7.813151 5.883150 494.773010
44 0 1 7.768901 5.551540 495.692993
45 0 1 7.813529 5.291820 496.596985
46 0 1 7.880481 4.822840 497.386993
47 0 1 7.906996 4.513120 498.338989
48 0 1 8.235812 4.271990 499.187988
49 0 1 8.254874 3.831200 500.033020
50 0 1 8.193147 3.540330 501.001007
51 0 1 8.561218 3.199410 501.848999
52 0 1 8.792125 2.936760 502.729004
53 0 1 8.963523 2.703610 503.705994
54 0 1 9.282170 2.460810 504.566010
55 0 1 9.490670 2.278700 505.455994
56 0 1 9.580080 2.126840 506.554993
57 0 1 9.431100 1.984250 507.537994
58 0 1 9.278111 2.051070 508.496002
59 0 1 9.416910 1.866990 509.417999
60 0 1 9.539220 1.899150 510.395996
61 0 1 9.485850 2.096980 511.326996
62 0 1 9.446570 2.191230 512.333984
63 0 1 9.468810 2.301470 513.323975
64 0 1 9.797421 2.303040 514.278015
65 0 1 9.968719 2.559900 515.177979
66 0 1 10.310440 3.043290 515.979980
67 0 1 10.609070 3.417580 516.810974
68 0 1 10.685790 3.569880 517.757019
69 0 1 10.719730 3.839840 518.661987
70 0 1 10.710080 4.104780 519.591003
71 0 1 10.336690 4.314660 520.490967
72 0 1 9.785820 4.320730 521.223999
73 0 1 9.339340 4.100830 522.023987
74 0 1 8.948335 3.743950 522.867004
75 0 1 8.252320 3.366790 523.495972
76 0 1 7.990329 2.962580 524.372986
77 0 1 7.666198 2.608460 525.240967
78 0 1 7.153197 2.388350 525.992981
79 0 1 6.625280 2.257230 526.776978
80 0 1 6.388020 2.545250 527.667969
81 0 1 6.031520 2.793870 528.490967
82 0 1 5.582100 3.158090 529.327087
83 0 1 5.030690 3.632220 529.918396
84 0 1 5.297470 4.028570 530.785278
85 0 1 5.595150 4.282540 531.708618
86 0 1 5.770510 4.842610 532.443420
87 0 1 6.096700 5.500400 532.989075
88 0 1 6.061250 6.095230 533.699524
89 0 1 6.015860 6.670800 534.522095
90 0 1 6.115350 7.004022 535.467712
91 0 1 6.336020 7.336027 536.362610
92 0 1 6.671770 7.724867 537.131897
93 0 1 6.949060 7.973873 538.039429
94 0 1 7.362791 8.079508 538.948792
95 0 1 7.739731 8.089708 539.829590
96 0 1 7.824097 7.879418 540.716431
97 0 1 7.777507 7.897050 541.653625
98 0 1 7.597865 7.843798 542.576782
99 0 1 7.322412 7.827649 543.572388
100 0 1 7.258982 7.732932 544.536682
101 0 1 7.119930 7.429530 545.426392
102 0 1 6.832950 6.853470 546.161194
103 0 1 6.659110 6.478150 547.011475
104 0 1 6.614800 6.324110 547.932373
105 0 1 6.763570 6.304950 548.838501
106 0 1 7.040138 6.468510 549.733032
107 0 1 7.129220 6.702150 550.615112
108 0 1 7.149011 7.281644 551.394287
109 0 1 7.492141 7.659464 552.218872
110 0 1 7.538342 8.149498 553.034607
111 0 1 7.546255 8.685018 553.812622
112 0 1 7.582368 9.189300 554.623779
113 0 1 7.380778 9.679690 555.376282
114 0 1 7.052472 10.108990 556.199890
115 0 1 6.819990 10.597720 557.013184
116 0 1 6.255010 11.007760 557.693298
117 0 1 5.721730 11.208580 558.396973
118 0 1 5.517870 11.403670 559.329102
119 0 1 5.069040 11.728920 560.153015
120 0 1 4.699850 11.871190 561.007812
121 0 1 4.372320 11.788830 561.936768
122 0 1 4.601160 11.836420 562.890076
123 0 1 4.915450 11.893550 563.766785
124 0 1 5.074270 12.085450 564.671021
125 0 1 5.100930 12.139130 565.636414
126 0 1 5.088610 12.014860 566.601807
127 0 1 4.978150 11.826830 567.555176
128 0 1 5.098830 11.802290 568.494080
129 0 1 5.391720 11.807750 569.432983
130 0 1 5.564780 11.774360 570.326599
131 0 1 5.814260 11.664850 571.232605
132 0 1 5.721230 11.500480 572.172302
133 0 1 5.538720 11.294910 573.088806
134 0 1 5.353600 11.425650 573.962585
135 0 1 5.543690 11.482010 574.900391
136 0 1 5.881940 11.465919 575.845520
137 0 1 6.405270 11.338990 576.620789
138 0 1 6.742040 11.115480 577.512817
139 0 1 7.249665 11.312250 578.344177
140 0 1 7.716891 11.457150 579.288391
141 0 1 8.081885 11.011570 580.074280
142 0 1 8.630610 10.521450 580.802795
143 0 1 9.104000 9.878260 581.340881
144 0 1 9.640141 9.232470 581.884216
145 0 1 10.191460 8.556082 582.112427
146 0 1 10.932140 7.915615 582.496216
147 0 1 11.553350 7.453267 583.111694
148 0 1 12.237710 7.129301 583.746399
149 0 1 13.034420 6.690110 584.267700
150 0 1 13.600380 6.767500 585.044800
151 0 1 13.939301 6.785400 585.943970
152 0 1 14.003420 6.416320 586.881714
153 0 1 13.884590 6.295520 587.828186
154 0 1 13.947200 6.371850 588.874207
155 0 1 13.958179 6.276840 589.828491
156 0 1 13.851271 6.412250 590.811584
157 0 1 13.899480 6.464000 591.787476
158 0 1 13.953910 6.481860 592.747986
159 0 1 13.947960 6.687270 593.793823
160 0 1 13.752649 7.044033 594.674927
161 0 1 13.680780 7.154723 595.698181
162 0 1 13.801240 7.525615 596.618713
163 0 1 14.116840 7.728362 597.493713
164 0 1 14.106501 8.008971 598.426514
165 0 1 13.994240 7.903265 599.428223
166 0 1 13.781240 7.758380 600.374084
167 0 1 13.580561 7.678531 601.326111
168 0 1 13.029240 7.491866 602.146912
169 0 1 12.598050 7.550716 603.019287
170 0 1 12.121389 7.481067 603.863708
171 0 1 11.583080 7.315659 604.676514
172 0 1 11.122180 7.222305 605.518127
173 0 1 10.445090 7.230452 606.267700
174 0 1 9.813310 7.448255 606.943176
175 0 1 9.212040 7.351938 607.642883
176 0 1 8.905201 7.191818 608.487793
177 0 1 8.505029 7.008572 609.400391
178 0 1 8.053981 7.141171 610.300415
179 0 1 7.719187 7.421564 611.138428
180 0 1 7.113028 7.728043 611.830811
181 0 1 6.433310 8.307957 612.398376
182 0 1 5.971950 8.880803 612.999390
183 0 1 5.488640 9.179970 613.813293
184 0 1 5.149520 9.657270 614.547729
185 0 1 4.700060 10.227660 615.283386
186 0 1 4.375380 10.739300 615.976196
187 0 1 4.060060 11.110650 616.782898
188 0 1 4.119890 11.479040 617.615784
189 0 1 4.262170 11.900060 618.467896
190 0 1 4.614160 12.255070 619.309082
191 0 1 4.924240 12.330350 620.198730
192 0 1 4.995120 12.430349 621.140137
193 0 1 4.726130 12.575390 622.004028
194 0 1 4.548040 12.737200 622.933105
195 0 1 4.215850 12.863541 623.856567
196 0 1 3.968880 12.773610 624.746033
197 0 1 3.828120 12.493430 625.611450
198 0 1 3.885480 12.153700 626.550720
199 0 1 4.227380 11.684731 627.359741
200 0 1 4.750220 11.162010 627.958557
201 0 1 5.107070 10.403780 628.516602
202 0 1 5.571410 9.560830 628.967590
203 0 1 5.994540 8.819949 629.407166
204 0 1 6.289110 8.327104 630.184082
205 0 1 6.662080 7.863618 630.974731
206 0 1 7.075434 7.438828 631.798706
207 0 1 7.695257 7.383147 632.578003
208 0 1 7.974350 7.488833 633.449890
209 0 1 8.171625 7.871653 634.313110
210 0 1 8.183485 8.206836 635.186035
211 0 1 8.125221 8.375063 636.150330
212 0 1 8.173168 8.485732 637.193237
213 0 1 8.057671 8.704946 638.131897
214 0 1 7.750467 8.635991 639.042480
215 0 1 7.090720 8.384533 639.718628
216 0 1 6.380380 8.204281 640.494812
217 0 1 6.246840 7.894490 641.420410
218 0 1 6.286480 7.533362 642.276611
219 0 1 6.202980 7.388497 643.258179
220 0 1 6.106320 7.290684 644.218506
221 0 1 6.037260 7.245857 645.235596
222 0 1 6.098530 7.166530 646.204712
223 0 1 5.872950 7.074717 647.146301
224 0 1 5.618880 7.141000 648.061279
225 0 1 5.497330 7.170241 648.999695
226 0 1 5.184230 7.291474 649.915588
227 0 1 4.900130 7.239851 650.857300
228 0 1 4.643340 6.772400 651.612793
229 0 1 4.535190 6.221970 652.359680
230 0 1 4.399870 5.958700 653.262878
231 0 1 4.414010 5.895460 654.215515
232 0 1 4.496620 5.762980 655.183228
233 0 1 4.469250 5.632680 656.153076
234 0 1 4.328450 5.481340 657.097778
235 0 1 3.963050 5.668530 657.903992
236 0 1 4.075720 5.926490 658.830811
237 0 1 4.187570 6.101210 659.784180
238 0 1 4.344870 6.107710 660.738586
239 0 1 4.804530 6.343220 661.561768
240 0 1 5.158140 6.279180 662.468994
241 0 1 5.137040 6.018990 663.354614
242 0 1 5.312880 5.607510 664.286011
243 0 1 5.362860 5.332100 665.215515
244 0 1 5.422760 5.227350 666.134888
245 0 1 5.723690 5.220190 667.061279
246 0 1 6.116640 5.009440 667.958984
247 0 1 6.579050 4.550630 668.627319
248 0 1 6.802990 4.206100 669.443909
249 0 1 7.379639 3.858330 670.178528
250 0 1 7.664042 3.712990 671.117676
251 0 1 7.759130 3.905160 672.025879
252 0 1 7.980093 4.248370 672.857178
253 0 1 7.895856 4.398750 673.736023
254 0 1 8.132602 4.646850 674.654785
255 0 1 8.430551 4.825610 675.643982
256 0 1 8.624264 4.831740 676.650818
257 0 1 8.524650 4.578910 677.552673
258 0 1 8.465447 4.552490 678.483398
259 0 1 8.742998 4.382780 679.414185
260 0 1 8.463350 4.395560 680.336121
261 0 1 8.087996 4.213680 681.281921
262 0 1 7.993663 4.096530 682.312683
263 0 1 8.265891 4.273410 683.225281
264 0 1 8.452896 4.449280 684.129700
265 0 1 8.107002 4.629610 684.996887
266 0 1 7.608942 4.581510 685.871521
267 0 1 7.455346 4.370000 686.798706
268 0 1 7.421186 4.463380 687.704468
269 0 1 7.550211 4.410040 688.689514
270 0 1 7.626056 4.595370 689.715576
271 0 1 7.492984 5.071620 690.582825
272 0 1 7.545674 5.352400 691.468323
273 0 1 7.956482 5.438710 692.317017
274 0 1 8.254193 5.369820 693.227417
275 0 1 8.387354 5.523800 694.195007
276 0 1 8.602420 5.775380 695.086121
277 0 1 8.519964 6.291450 695.889709
278 0 1 8.227592 6.934460 696.492310
279 0 1 8.152276 7.604524 697.280273
280 0 1 8.186156 8.106097 698.077271
281 0 1 7.976254 8.324519 699.026489
282 0 1 8.000854 8.527810 699.908081
283 0 1 8.208665 8.736881 700.854614
284 0 1 8.440459 8.917040 701.848022
285 0 1 8.764099 9.201800 702.737000
286 0 1 9.063620 9.070240 703.623718
287 0 1 9.196590 8.909858 704.572388
288 0 1 9.191490 8.580054 705.462524
289 0 1 9.203290 8.063887 706.338501
290 0 1 9.295900 7.468235 707.068481
291 0 1 9.463150 6.641460 707.491333
292 0 1 9.933590 5.887230 707.937317
293 0 1 10.485929 5.331270 708.415100
294 0 1 10.772280 4.676190 709.139893
295 0 1 11.012230 3.960260 709.837280
296 0 1 11.239460 3.727120 710.696899
297 0 1 11.601380 3.571810 711.580933
298 0 1 12.113850 3.621250 712.384033
299 0 1 12.464399 3.726630 713.255493
300 0 1 12.837220 4.159990 714.048218
301 0 1 12.959040 4.689420 714.820801
302 0 1 13.034590 5.365370 715.496277
303 0 1 12.851320 5.890910 716.273193
304 0 1 12.494780 6.401530 717.019897
305 0 1 12.127040 6.771870 717.853027
306 0 1 11.804090 6.690560 718.787231
307 0 1 11.675620 6.372920 719.716125
308 0 1 11.271020 5.846130 720.479614
309 0 1 10.784190 5.222540 721.010620
310 0 1 10.759760 4.458760 721.576294
311 0 1 10.891240 3.975410 722.415222
312 0 1 11.001180 3.410080 723.229919
313 0 1 11.216150 2.809340 723.966187
314 0 1 11.214830 2.477490 724.868591
315 0 1 10.987380 2.011930 725.698303
316 0 1 10.471400 1.922090 726.507690
317 0 1 10.234631 2.023320 727.425598
318 0 1 9.818480 2.173710 728.327209
319 0 1 9.304900 2.537250 729.086975
320 0 1 8.764060 3.045950 729.719971
321 0 1 8.425898 3.676460 730.398010
322 0 1 8.076262 4.295340 731.028015
323 0 1 7.674012 5.000230 731.528992
324 0 1 7.153588 5.674070 732.059998
325 0 1 6.394090 5.950280 732.549988
326 0 1 5.574320 6.155790 733.052979
327 0 1 4.738010 6.169240 733.484009
328 0 1 4.066230 6.070110 734.164001
329 0 1 3.577110 5.725180 734.932983
330 0 1 3.497610 5.283110 735.765015
331 0 1 3.662980 4.658340 736.442993
332 0 1 3.774990 4.447690 737.388977
333 0 1 3.741800 4.485130 738.348999
334 0 1 3.860540 4.873870 739.249023
335 0 1 3.846570 4.882920 740.185974
336 0 1 3.770830 4.938100 741.155029
337 0 1 3.629230 4.675170 742.125000
338 0 1 3.760820 4.551610 743.112976
339 0 1 4.116060 4.556710 744.021973
340 0 1 4.655250 4.753700 744.823975
341 0 1 5.147920 5.103330 745.614014
342 0 1 5.777930 5.162120 746.424011
343 0 1 6.133230 5.438390 747.325012
344 0 1 6.412100 5.546780 748.278992
345 0 1 6.694720 5.353580 749.210022
346 0 1 6.940300 5.310400 750.085022
347 0 1 7.434654 5.045520 751.002991
348 0 1 7.778856 4.800120 751.934021
349 0 1 8.063627 4.501110 752.788025
350 0 1 8.553333 4.410270 753.611023
351 0 1 9.031500 4.084440 754.405029
352 0 1 9.863190 3.929870 754.877014
353 0 1 10.295820 3.687400 755.759033
354 0 1 10.469170 3.503000 756.692993
355 0 1 10.295780 3.505300 757.645020
356 0 1 10.076380 3.565620 758.549011
357 0 1 9.996060 3.672800 759.487000
358 0 1 9.993240 3.714300 760.442993
359 0 1 10.073830 3.848660 761.442017
360 0 1 10.052700 3.690070 762.390991
361 0 1 10.077150 3.724850 763.390015
362 0 1 9.961180 3.712870 764.390991
363 0 1 9.690040 3.760380 765.343994
364 0 1 9.625220 3.663930 766.289978
365 0 1 9.817760 3.271330 767.200989
366 0 1 10.076300 2.907310 768.091003
367 0 1 10.546619 2.879170 768.945007
368 0 1 10.580320 2.743450 769.893982
369 0 1 10.964270 2.637440 770.740967
370 0 1 11.250600 2.510720 771.624023
371 0 1 11.048550 2.570170 772.557007
372 0 1 10.965930 2.618550 773.478027
373 0 1 10.771970 2.764650 774.410034
374 0 1 10.697250 2.840650 775.364014
375 0 1 10.612160 2.989670 776.302002
376 0 1 10.439800 3.201390 777.219971
377 0 1 10.189540 3.593760 778.075989
378 0 1 9.978260 4.157090 778.851990
379 0 1 9.850389 4.818470 779.624023
380 0 1 9.796010 5.380380 780.471008
381 0 1 9.611150 5.859020 781.268005
382 0 1 9.475410 6.514570 782.013000
383 0 1 9.239310 7.220533 782.619019
384 0 1 8.806549 7.826736 783.187988
385 0 1 8.298849 8.207729 783.947998
386 0 1 7.827216 8.679530 784.629028
387 0 1 7.304257 9.255990 785.216980
388 0 1 6.846840 9.857280 785.820984
389 0 1 6.698970 10.130899 786.757996
390 0 1 6.798940 10.330550 787.742004
391 0 1 6.953440 10.597950 788.656982
392 0 1 7.110544 10.957951 789.497009
393 0 1 7.198670 11.452900 790.309021
394 0 1 7.378808 11.658580 791.213013
395 0 1 7.426158 11.571850 792.212036
396 0 1 7.460226 11.332960 793.140015
397 0 1 7.756684 11.183570 794.082031
398 0 1 8.034104 10.640950 794.809998
399 0 1 8.628904 9.981740 795.122986
400 0 1 9.120190 9.446540 795.695984
401 0 1 9.415730 9.034900 796.489014
402 0 1 9.716140 8.415474 797.247986
403 0 1 10.040689 7.872257 798.015991
404 0 1 10.055290 7.216740 798.695007
405 0 1 10.291340 6.683240 799.466003
406 0 1 9.983120 6.076660 800.127014
407 0 1 9.550650 5.522560 800.797974
408 0 1 9.389820 5.191760 801.667969
409 0 1 9.254920 4.999710 802.585999
410 0 1 9.268900 5.082770 803.557007
411 0 1 9.093100 5.062850 804.497009
412 0 1 9.091670 5.105030 805.511963
413 0 1 9.042540 5.422040 806.406006
414 0 1 9.211720 5.599540 807.385010
415 0 1 9.320370 5.732080 808.411011
416 0 1 9.534640 5.809370 809.333008
417 0 1 9.602350 5.954540 810.252991
418 0 1 9.561550 5.910970 811.169983
419 0 1 9.744870 5.838370 812.072998
420 0 1 9.786370 5.923150 812.994019
421 0 1 9.823300 6.126440 814.011963
422 0 1 9.856310 6.379590 814.942017
423 0 1 9.799480 6.749120 815.901001
424 0 1 9.740270 6.910450 816.917969
425 0 1 9.666600 7.305285 817.764038
426 0 1 9.371690 7.600678 818.609009
427 0 1 8.822044 7.709482 819.533997
428 0 1 8.406251 7.980784 820.287964
429 0 1 8.356469 8.389565 821.130981
430 0 1 8.101240 9.060710 821.710022
431 0 1 7.769153 9.560431 822.452026
432 0 1 7.659705 9.862850 823.431030
433 0 1 7.567120 10.033550 824.372986
434 0 1 7.615727 10.221560 825.356018
435 0 1 7.769872 10.604440 826.254028
436 0 1 7.935084 10.705540 827.164001
437 0 1 7.885603 10.739880 828.166992
438 0 1 8.132794 10.663710 829.110962
439 0 1 8.383849 10.899030 830.015991
440 0 1 8.620263 11.162770 830.924011
441 0 1 8.708780 11.370110 831.859985
442 0 1 8.990404 11.245230 832.778015
443 0 1 9.207720 10.955790 833.710999
444 0 1 9.585460 10.659500 834.497986
445 0 1 9.926720 10.124160 835.240967
446 0 1 10.426889 9.485100 835.775024
447 0 1 11.150681 8.833367 835.976013
448 0 1 11.572070 8.185773 835.437012
449 0 1 11.932720 7.610314 834.700989
450 0 1 12.096331 7.046095 833.942993
451 0 1 11.749450 6.644000 833.104980
452 0 1 11.491650 6.251130 832.231995
453 0 1 11.263741 5.637040 831.484009
454 0 1 11.190890 5.104410 830.703003
455 0 1 10.940490 4.589240 829.903015
456 0 1 10.858150 4.366520 828.969971
457 0 1 10.331460 4.499470 828.072998
458 0 1 9.952520 4.680300 827.235962
459 0 1 9.387690 4.769640 826.460022
460 0 1 8.851664 4.788290 825.705017
461 0 1 8.536418 4.955340 824.789001
462 0 1 8.253469 5.020630 823.869995
463 0 1 7.954920 5.175660 823.009033
464 0 1 7.466706 5.271050 822.231995
465 0 1 7.203909 4.772480 821.450012
466 0 1 6.727420 4.297410 820.740967
467 0 1 6.108130 4.071440 820.013000
468 0 1 5.561060 3.945710 819.202026
469 0 1 5.191960 3.866230 818.292969
470 0 1 4.627580 3.693590 817.567993
471 0 1 4.018130 3.490660 816.716980
472 0 1 3.859000 3.401870 815.754028
473 0 1 4.188040 3.471010 814.848999
474 0 1 4.498170 3.463070 813.901001
475 0 1 4.905610 3.812350 813.082031
476 0 1 5.233120 3.669650 812.177979
477 0 1 5.562320 3.562740 811.283020
478 0 1 6.080870 3.326360 810.531982
479 0 1 6.865090 3.128600 809.994019
480 0 1 7.520308 3.045210 809.270996
481 0 1 7.853132 2.964350 808.414978
482 0 1 8.000978 3.027260 807.478027
483 0 1 7.949713 3.365640 806.562988
484 0 1 8.097322 3.938030 805.733032
485 0 1 8.162584 4.540240 804.964966
486 0 1 7.960847 5.164750 804.255981
487 0 1 7.654362 5.665760 803.570007
488 0 1 7.008623 6.282380 803.242981
489 0 1 6.397220 6.836790 802.827026
490 0 1 5.969660 7.458418 802.200012
491 0 1 5.511610 7.957081 801.497009
492 0 1 5.261430 8.527799 800.690979
493 0 1 5.106260 9.080700 799.889038
494 0 1 4.747850 9.578570 799.151001
495 0 1 4.588500 10.246571 798.437988
496 0 1 4.499210 10.814020 797.627991
497 0 1 4.353500 11.076670 796.733032
498 0 1 3.838360 10.868890 795.994019
499 0 1 3.454750 10.717350 795.171997
500 0 1 3.201020 10.393410 794.363037
501 0 1 3.306510 10.142660 793.386963
502 0 1 3.539290 9.985880 792.458984
503 0 1 3.738980 9.782040 791.516968
504 0 1 4.063770 9.715830 790.551025
505 0 1 4.616690 9.462950 789.813965
506 0 1 5.230570 9.177790 789.083984
507 0 1 5.882130 8.998116 788.358032
508 0 1 6.459120 8.821358 787.546021
509 0 1 6.768690 8.460633 786.627014
510 0 1 7.066275 8.315239 785.666016
511 0 1 6.775560 8.382904 784.766968
512 0 1 6.453710 8.467114 783.911011
513 0 1 6.130740 8.442281 783.023010
514 0 1 5.886270 8.347615 782.129028
515 0 1 5.757180 8.469336 781.213013
516 0 1 5.508140 8.310579 780.221008
517 0 1 5.205170 8.270086 779.299011
518 0 1 4.697990 8.442469 778.507996
519 0 1 3.923470 8.653320 777.926025
520 0 1 3.104210 8.657085 777.292969
521 0 1 2.540580 8.286605 776.572021
522 0 1 2.172760 8.121471 775.703003
523 0 1 1.889660 7.797469 774.874023
524 0 1 1.854350 7.612770 773.921021
525 0 1 1.905210 7.265508 772.979004
526 0 1 2.243760 7.253430 772.015015
527 0 1 2.318210 7.314219 771.106995
528 0 1 2.392700 7.428177 770.112000
529 0 1 2.583880 7.557925 769.226013
530 0 1 2.836240 8.141472 768.452026
531 0 1 3.464660 8.227082 767.763000
532 0 1 4.005370 8.416919 767.021973
533 0 1 4.751350 8.548263 766.429993
534 0 1 5.292660 8.366805 765.698975
535 0 1 5.945250 8.461814 764.997986
536 0 1 6.313170 8.248342 764.104004
537 0 1 6.673260 8.001759 763.244019
538 0 1 7.102287 7.473360 762.572021
539 0 1 7.390054 7.083744 761.755005
540 0 1 8.013101 6.876610 760.981995
541 0 1 8.574640 6.626550 760.263000
542 0 1 9.102970 6.514240 759.442017
543 0 1 9.397930 6.282670 758.530029
544 0 1 9.739520 6.314860 757.645020
545 0 1 10.241380 6.391650 756.838013
546 0 1 10.723540 6.299480 755.984985
547 0 1 11.080290 6.461630 755.036011
548 0 1 11.533410 6.380030 754.223022
549 0 1 11.986840 6.614710 753.421021
550 0 1 11.992040 6.900580 752.486023
551 0 1 12.157040 7.331007 751.622009
552 0 1 12.154210 7.888548 750.867981
553 0 1 11.873030 8.158089 749.943970
554 0 1 11.871560 8.021551 749.007996
555 0 1 11.904510 7.398602 748.224976
556 0 1 11.972800 6.674140 747.591980
557 0 1 11.812220 5.896970 747.080017
558 0 1 11.618401 5.376270 746.299988
559 0 1 11.348150 5.129490 745.442017
560 0 1 10.999190 4.722740 744.612976
561 0 1 10.953700 4.267850 743.814026
562 0 1 10.805450 3.923960 742.971008
563 0 1 10.529119 3.898960 742.044983
564 0 1 10.210840 3.864670 741.150024
565 0 1 9.909440 3.865780 740.276978
566 0 1 9.528970 4.114050 739.442017
567 0 1 9.132800 4.258550 738.507019
568 0 1 8.566770 4.291160 737.650024
569 0 1 8.207570 4.410320 736.698975
570 0 1 7.923519 4.460830 735.806030
571 0 1 7.836592 4.364340 734.830994
572 0 1 8.282335 4.511400 733.976013
573 0 1 8.701884 4.822940 733.160034
574 0 1 8.979074 5.366630 732.443970
575 0 1 9.120240 5.816350 731.551025
576 0 1 9.409040 6.260470 730.776001
577 0 1 9.837500 6.910160 730.155029
578 0 1 10.296721 7.256106 729.466980
579 0 1 10.612730 7.391480 728.557007
580 0 1 11.010430 7.474563 727.702271
581 0 1 11.482350 7.169687 726.961304
582 0 1 11.973310 6.837730 726.252991
583 0 1 12.297230 6.292830 725.524902
584 0 1 12.547780 6.002300 724.653503
585 0 1 12.941071 5.607260 723.838318
586 0 1 12.958879 5.232520 722.905090
587 0 1 12.709570 4.905800 722.046997
588 0 1 12.683200 4.709880 721.069397
589 0 1 12.711430 4.586660 720.166321
590 0 1 12.457479 4.385980 719.314575
591 0 1 12.040600 3.932280 718.525513
592 0 1 11.759399 3.573420 717.669434
593 0 1 11.667850 3.382650 716.747620
594 0 1 11.550870 3.093220 715.800293
595 0 1 11.150280 2.808900 714.996826
596 0 1 10.598670 2.472580 714.295776
597 0 1 10.383830 2.024110 713.440491
598 0 1 9.887760 1.726810 712.617432
599 0 1 9.416860 1.571240 711.780701
600 0 1 8.944770 1.663940 710.950500
601 0 1 8.487040 1.611690 710.174683
602 0 1 7.857165 1.724510 709.494202
603 0 1 7.063887 1.822970 708.895203
604 0 1 6.474710 1.996040 708.136719
605 0 1 5.926840 2.246560 707.484497
606 0 1 5.209910 2.622540 706.942505
607 0 1 4.572590 3.197430 706.479004
608 0 1 4.356750 4.023450 705.985229
609 0 1 4.173910 4.594080 705.257385
610 0 1 4.282530 4.931010 704.302124
611 0 1 4.225940 5.158430 703.381714
612 0 1 4.103480 5.329190 702.461914
613 0 1 4.375960 5.625810 701.627808
614 0 1 4.552820 6.195430 700.841675
615 0 1 4.645420 6.664840 699.992798
616 0 1 5.084950 6.960850 699.208374
617 0 1 5.683610 7.315013 698.598694
618 0 1 6.110190 7.715274 697.880310
619 0 1 6.189510 8.254344 697.148621
620 0 1 6.246030 8.892229 696.351990
621 0 1 6.279880 9.648810 695.749817
622 0 1 6.759090 10.190240 695.058472
623 0 1 7.375338 10.416500 694.400879
624 0 1 7.838673 10.653570 693.604797
625 0 1 7.956419 11.131990 692.812622
626 0 1 8.274351 11.622890 692.047729
627 0 1 8.547762 11.862110 691.177795
628 0 1 8.746387 12.142330 690.221802
629 0 1 9.224510 12.067270 689.418274
630 0 1 9.554760 11.877780 688.464600
631 0 1 9.873860 11.857810 687.511902
632 0 1 10.275080 11.547980 686.751831
633 0 1 10.795980 11.528540 685.893494
634 0 1 11.558440 11.249229 685.354004
635 0 1 12.173480 10.922160 684.681213
636 0 1 12.392710 10.185210 684.096619
637 0 1 12.035580 9.425260 683.514404
638 0 1 11.625920 8.527523 683.456177
639 0 1 10.942640 7.849360 683.191895
640 0 1 10.282570 7.399321 682.666626
641 0 1 9.436570 7.052446 682.330811
642 0 1 8.527171 6.979120 681.986694
643 0 1 7.683073 6.741970 681.548828
644 0 1 6.902220 6.479180 681.055481
645 0 1 6.227920 6.336300 680.429626
646 0 1 5.732040 6.045220 679.694580
647 0 1 4.954600 6.033430 679.135193
648 0 1 4.164150 6.148840 678.634216
649 0 1 3.603450 6.531200 677.902405
650 0 1 3.487100 7.053104 677.058411
651 0 1 3.592500 7.381803 676.195496
652 0 1 3.926930 7.686582 675.349121
653 0 1 4.253670 8.109761 674.581604
654 0 1 4.410530 8.679344 673.810974
655 0 1 4.521540 9.256830 673.109009
656 0 1 4.649950 9.594250 672.284973
657 0 1 4.642820 10.141360 671.517700
658 0 1 4.549300 10.361170 670.592224
659 0 1 4.567280 10.632460 669.673889
660 0 1 4.813800 10.913910 668.837097
661 0 1 4.848730 11.514000 668.032288
662 0 1 4.894810 11.948090 667.210999
663 0 1 5.013790 12.290600 666.392517
664 0 1 5.055380 12.660110 665.494690
665 0 1 4.766350 12.673040 664.554382
666 0 1 4.734080 12.434750 663.633179
667 0 1 4.768920 12.376770 662.667480
668 0 1 4.757790 12.047939 661.735779
669 0 1 4.885550 11.849600 660.786987
670 0 1 5.029340 11.743310 659.833923
671 0 1 5.340530 11.612010 658.956604
672 0 1 5.664330 11.574920 658.024475
673 0 1 6.216840 11.427160 657.207886
674 0 1 6.611560 11.337300 656.291992
675 0 1 6.999050 11.251170 655.377319
676 0 1 7.532787 11.530020 654.619873
677 0 1 7.792943 11.728390 653.729675
678 0 1 7.704581 11.821080 652.726990
679 0 1 7.609016 11.724260 651.758789
680 0 1 7.685739 11.687140 650.825989
681 0 1 7.748746 11.666389 649.807190
682 0 1 7.739835 11.862270 648.870728
683 0 1 7.524913 12.203600 647.959900
684 0 1 7.391124 12.388720 646.979309
685 0 1 7.375188 12.481939 646.004883
686 0 1 7.322282 12.550360 645.031494
687 0 1 7.553455 12.414590 644.104187
688 0 1 8.052594 12.336890 643.289429
689 0 1 8.250685 12.128759 642.338623
690 0 1 8.263557 12.066930 641.423828
691 0 1 8.258970 11.969410 640.456177
692 0 1 8.277346 11.975960 639.439392
693 0 1 8.071714 11.978090 638.478516
694 0 1 7.710632 11.771120 637.579712
695 0 1 7.449691 11.438231 636.688782
696 0 1 7.182515 11.226220 635.805786
697 0 1 6.859430 11.155430 634.875427
698 0 1 6.755470 10.882560 633.965515
699 0 1 6.847780 10.632020 632.991150
700 0 1 6.791930 10.502340 632.016113
701 0 1 6.468490 10.352460 631.068420
702 0 1 6.811960 10.188390 630.164001
703 0 1 6.899060 10.060190 629.186646
704 0 1 7.393262 9.968500 628.366882
705 0 1 7.933147 9.500940 627.742249
706 0 1 8.561251 9.215420 627.063538
707 0 1 9.073300 9.111070 626.298584
708 0 1 9.688980 9.237620 625.466431
709 0 1 10.392090 9.489740 624.902466
710 0 1 11.118640 9.821210 624.380188
711 0 1 11.600570 9.770390 623.523132
712 0 1 12.084990 9.556499 622.741760
713 0 1 12.299129 9.322350 621.822449
714 0 1 12.446600 9.021870 620.864197
715 0 1 12.221760 8.664363 619.905212
716 0 1 12.035470 8.249418 619.092957
717 0 1 11.828270 7.751438 618.287109
718 0 1 11.479440 7.363591 617.476013
719 0 1 11.246861 7.066892 616.616577
720 0 1 11.112140 6.534800 615.809204
721 0 1 11.026640 5.712530 615.247314
722 0 1 10.763790 5.010790 614.578674
723 0 1 10.469460 4.300730 613.986877
724 0 1 9.965410 3.678560 613.510376
725 0 1 9.452140 3.450450 612.719910
726 0 1 8.857281 3.366330 611.973083
727 0 1 8.422014 3.185800 611.143982
728 0 1 7.993315 3.085770 610.198303
729 0 1 7.557076 3.030290 609.328918
730 0 1 7.169992 2.874320 608.428772
731 0 1 6.952490 2.798560 607.421875
732 0 1 6.508730 2.829770 606.560120
733 0 1 5.985990 2.726130 605.744629
734 0 1 5.728530 2.673790 604.795410
735 0 1 5.471850 2.748360 603.883484
736 0 1 5.465970 3.227040 603.114502
737 0 1 5.664980 3.557680 602.192017
738 0 1 6.007440 3.601190 601.333618
739 0 1 6.354840 3.083620 600.535400
740 0 1 6.715760 2.727960 599.638916
741 0 1 7.190617 2.502690 598.862793
742 0 1 7.755804 2.536980 598.079773
743 0 1 8.211210 2.504100 597.267029
744 0 1 8.824852 2.538480 596.508301
745 0 1 9.338650 2.344050 595.734314
746 0 1 9.982070 2.449710 595.027710
747 0 1 10.515670 2.502550 594.252930
748 0 1 10.763260 2.552200 593.368774
749 0 1 11.038090 2.641160 592.458130
750 0 1 11.430570 2.788260 591.566101
751 0 1 11.649830 2.802480 590.666077
752 0 1 11.719419 2.800770 589.669128
753 0 1 11.816080 2.814790 588.636902
754 0 1 12.149190 2.951370 587.767578
755 0 1 12.346991 3.052850 586.815125
756 0 1 12.528580 3.279580 585.916504
757 0 1 12.671830 3.380840 585.043518
758 0 1 12.681020 3.566670 584.115417
759 0 1 12.796560 3.811020 583.178406
760 0 1 12.801050 4.119280 582.262512
761 0 1 12.882999 4.444760 581.371094
762 0 1 12.836520 4.843770 580.419495
763 0 1 12.604280 5.139810 579.530090
764 0 1 12.330130 5.568670 578.694824
765 0 1 12.148240 5.825740 577.753601
766 0 1 11.849080 5.876950 576.833130
767 0 1 11.530730 5.797790 575.913879
768 0 1 10.980150 5.600580 575.142883
769 0 1 10.433120 5.242950 574.425476
770 0 1 10.014660 5.050050 573.613586
771 0 1 9.905640 4.759660 572.701416
772 0 1 9.906300 4.863590 571.755493
773 0 1 9.675830 4.987450 570.826599
774 0 1 9.547120 5.020220 569.870422
775 0 1 9.541310 5.026480 568.930786
776 0 1 9.721581 4.971650 568.010193
777 0 1 9.999230 5.060400 567.061768
778 0 1 10.235140 5.199650 566.096375
779 0 1 10.372869 5.202000 565.099182
780 0 1 10.468750 5.428340 564.095886
781 0 1 10.488000 5.605050 563.175293
782 0 1 10.713420 5.985540 562.287109
783 0 1 11.060570 5.890990 561.349976
784 0 1 11.195610 5.899980 560.397888
785 0 1 10.929150 5.689790 559.514404
786 0 1 10.603370 5.373590 558.612793
787 0 1 10.011860 5.430340 557.805908
788 0 1 9.575730 5.571220 557.036682
789 0 1 9.236740 5.525540 556.108032
790 0 1 9.062670 5.797260 555.185913
791 0 1 8.973843 6.248800 554.385010
792 0 1 8.768760 6.613780 553.510010
793 0 1 8.793338 7.026493 552.611816