LAMMPS data file via MDAnalysis

        1000  atoms
        1000  bonds
        1000  angles
           0  dihedrals
           0  impropers

           1  atom types
           1  bond types
           1  angle types
           0  dihedral types
           0  improper types

0.000000 16.000000 xlo xhi
0.000000 16.000000 ylo yhi
0.000000 1257.000000 zlo zhi


Masses

1 1.000000

Atoms

1 0 1 9.130939 10.403521 449.833984
2 0 1 9.296380 10.208090 450.773987
3 0 1 9.353320 9.919710 451.716003
4 0 1 9.420780 9.521230 452.604980
5 0 1 9.248710 9.247400 453.552979
6 0 1 8.960787 8.904568 454.385010
7 0 1 8.337465 8.663639 455.184021
8 0 1 7.983851 8.222187 455.940979
9 0 1 7.704162 8.054585 456.854004
10 0 1 7.124892 8.035992 457.604004
11 0 1 6.608550 7.999296 458.388000
12 0 1 6.081180 7.836386 459.257996
13 0 1 6.106640 7.363652 460.085022
14 0 1 6.337710 6.976090 460.944000
15 0 1 6.552130 7.029321 461.848022
16 0 1 6.592220 7.131443 462.791016
17 0 1 6.458910 7.412572 463.817993
18 0 1 5.985210 7.882314 464.570007
19 0 1 5.317480 8.294081 465.263000
20 0 1 4.501460 8.508790 465.822021
21 0 1 3.812440 8.619025 466.442993
22 0 1 3.224260 8.721588 467.169006
23 0 1 2.858980 8.713014 468.109009
24 0 1 2.362720 8.847208 468.938995
25 0 1 2.095040 8.992146 469.851990
26 0 1 1.699410 9.025290 470.744019
27 0 1 1.536200 9.187040 471.660004
28 0 1 1.553740 9.415190 472.612000
29 0 1 1.677880 9.934020 473.416992
30 0 1 1.947450 10.354180 474.261993
31 0 1 2.179160 10.796480 475.096008
32 0 1 2.336760 11.393220 475.817017
33 0 1 2.790670 11.897090 476.596008
34 0 1 3.087870 12.300720 477.468018
35 0 1 3.234780 12.599160 478.333984
36 0 1 3.246120 12.812349 479.315002
37 0 1 3.700100 12.893200 480.195984
38 0 1 4.109670 13.083879 481.072021
39 0 1 4.821660 13.014009 481.846008
40 0 1 5.412660 12.584340 482.526001
41 0 1 5.765460 11.909790 483.153992
42 0 1 6.189900 11.310900 483.763000
43 0 1 6.654430 10.802150 484.348999
44 0 1 6.883090 10.072930 485.113007
45 0 1 6.851720 9.503350 485.811005
46 0 1 6.772820 8.894267 486.549011
47 0 1 6.734150 8.217602 487.207001
48 0 1 6.706450 7.547666 487.841003
49 0 1 6.471620 7.021254 488.617004
50 0 1 6.137190 6.556520 489.367004
51 0 1 6.017500 6.274300 490.250000
52 0 1 6.220900 5.825450 491.057983
53 0 1 6.588080 5.439260 491.872009
54 0 1 7.027624 4.889620 492.476013
55 0 1 7.314804 4.349550 493.197998
56 0 1 7.353113 3.477160 493.716980
57 0 1 7.271637 2.958240 494.533997
58 0 1 7.242170 2.438470 495.502014
59 0 1 7.409250 2.114910 496.346008
60 0 1 7.262501 1.887290 497.242004
61 0 1 7.441704 2.016840 498.175995
62 0 1 7.517324 2.026240 499.181000
63 0 1 7.258886 2.049330 500.093018
64 0 1 6.998840 2.203460 501.007019
65 0 1 6.740070 2.304970 501.927002
66 0 1 6.461750 2.611510 502.816010
67 0 1 6.195240 2.942230 503.725006
68 0 1 5.892840 3.275330 504.608002
69 0 1 5.949190 3.619440 505.507019
70 0 1 6.255550 4.099920 506.268982
71 0 1 6.270710 4.376200 507.200989
72 0 1 6.205880 4.333330 508.140991
73 0 1 6.129430 4.332130 509.067993
74 0 1 6.165350 4.383540 510.029999
75 0 1 5.721060 4.307180 510.885986
76 0 1 5.241270 4.357850 511.694000
77 0 1 4.646730 4.438010 512.466003
78 0 1 4.232960 4.596480 513.286011
79 0 1 3.841860 4.626020 514.177979
80 0 1 3.617200 4.678600 515.104004
81 0 1 3.194500 4.662220 516.009033
82 0 1 3.035480 4.680250 516.916016
83 0 1 3.222890 4.615370 517.861023
84 0 1 3.741640 4.316050 518.620972
85 0 1 4.041590 3.933890 519.453003
86 0 1 4.360740 3.640770 520.356018
87 0 1 4.859480 3.614410 521.202026
88 0 1 5.103290 3.745310 522.189026
89 0 1 5.384910 3.692740 523.145996
90 0 1 5.765180 3.444380 523.997986
91 0 1 6.180060 3.098610 524.763000
92 0 1 6.740880 2.715720 525.499023
93 0 1 7.068961 2.199440 526.263000
94 0 1 7.475907 1.994370 527.093994
95 0 1 7.968433 1.977440 527.976990
96 0 1 8.513057 1.880100 528.723816
97 0 1 8.942845 1.755360 529.521423
98 0 1 9.535180 1.847480 530.256226
99 0 1 9.909550 2.208000 531.109985
100 0 1 10.313271 2.605100 531.897522
101 0 1 10.633300 2.591020 532.836670
102 0 1 10.646160 2.882350 533.731079
103 0 1 10.913000 3.392270 534.553284
104 0 1 11.065570 3.756350 535.468079
105 0 1 11.198740 4.071110 536.319092
106 0 1 11.219670 4.081220 537.293396
107 0 1 10.953800 4.123110 538.263794
108 0 1 10.758110 4.176000 539.218628
109 0 1 10.156330 4.455750 539.966675
110 0 1 10.199870 4.754300 540.925415
111 0 1 10.252240 5.023900 541.862305
112 0 1 10.348600 5.051540 542.805603
113 0 1 10.350500 4.903940 543.780518
114 0 1 10.449680 4.646350 544.674622
115 0 1 10.844340 4.690270 545.550293
116 0 1 11.425130 4.747440 546.299622
117 0 1 11.880110 4.477380 547.080994
118 0 1 12.058530 4.330300 548.061890
119 0 1 12.230730 4.575900 548.965515
120 0 1 12.412750 4.791230 549.914124
121 0 1 12.645370 5.126860 550.802368
122 0 1 12.758910 5.333300 551.736511
123 0 1 12.993050 5.517750 552.703308
124 0 1 12.989389 5.906030 553.579590
125 0 1 12.878290 6.108920 554.491882
126 0 1 12.612110 6.078680 555.435120
127 0 1 11.961720 6.021540 556.237610
128 0 1 11.527590 5.492440 556.876099
129 0 1 10.775040 5.093480 557.302979
130 0 1 10.267620 4.471140 557.828796
131 0 1 9.565560 4.109170 558.411377
132 0 1 8.847180 3.769420 558.963074
133 0 1 8.324388 3.426830 559.668884
134 0 1 8.071656 3.033320 560.485901
135 0 1 7.904638 2.524580 561.282104
136 0 1 7.770787 2.141290 562.162476
137 0 1 7.464819 2.173270 563.085815
138 0 1 7.857191 2.231160 564.040710
139 0 1 7.778874 2.488100 565.010498
140 0 1 7.972284 2.681710 565.922974
141 0 1 8.229058 2.747180 566.849182
142 0 1 8.303121 2.834840 567.790405
143 0 1 7.957133 2.869420 568.761902
144 0 1 7.700193 3.165040 569.656311
145 0 1 7.647991 3.269220 570.548279
146 0 1 7.563230 3.394670 571.538818
147 0 1 7.591134 3.688240 572.469604
148 0 1 7.689740 4.086770 573.277405
149 0 1 7.861393 4.451320 574.118286
150 0 1 8.430915 4.558260 574.883728
151 0 1 8.911383 4.662600 575.670898
152 0 1 9.353770 4.639320 576.532776
153 0 1 9.836830 4.706890 577.416199
154 0 1 10.212160 5.108800 578.231873
155 0 1 10.608060 5.559230 578.978882
156 0 1 10.969151 6.018740 579.796387
157 0 1 11.375370 6.430280 580.564331
158 0 1 11.809210 6.992900 581.295105
159 0 1 11.823299 7.521059 582.150024
160 0 1 11.962550 8.037207 582.883911
161 0 1 11.864290 8.613983 583.607300
162 0 1 11.765930 9.011750 584.406616
163 0 1 11.647551 9.209100 585.337097
164 0 1 11.380970 9.604540 586.167175
165 0 1 10.969210 9.882670 586.999695
166 0 1 10.305510 10.028860 587.726990
167 0 1 9.814970 10.332310 588.468201
168 0 1 9.106200 10.598550 589.139282
169 0 1 8.464968 10.955500 589.749268
170 0 1 7.944040 11.680700 590.090210
171 0 1 7.374750 12.297550 590.549072
172 0 1 7.279324 13.008860 591.165710
173 0 1 7.287636 13.685659 591.861389
174 0 1 7.575016 13.915600 592.703491
175 0 1 7.810962 13.936300 593.668823
176 0 1 7.853353 14.112120 594.637573
177 0 1 7.778184 14.229259 595.678711
178 0 1 7.922882 14.003160 596.629578
179 0 1 8.049708 13.673820 597.493225
180 0 1 8.481959 13.354691 598.346802
181 0 1 8.755409 13.028250 599.206726
182 0 1 9.206880 12.840820 600.009399
183 0 1 9.568860 12.680300 600.831116
184 0 1 9.890070 12.097530 601.565002
185 0 1 10.371930 11.524920 602.147827
186 0 1 10.712420 10.780050 602.659790
187 0 1 10.963730 9.991740 603.049500
188 0 1 11.473860 9.429170 603.674072
189 0 1 12.131020 8.872386 604.243530
190 0 1 12.678850 8.481509 604.962402
191 0 1 12.961220 8.393508 605.860229
192 0 1 13.316280 8.444674 606.803772
193 0 1 13.600060 8.487806 607.716919
194 0 1 13.724461 8.671009 608.649719
195 0 1 13.964740 9.144450 609.424622
196 0 1 14.275160 9.630050 610.178223
197 0 1 14.243980 9.591960 611.195129
198 0 1 14.017330 9.406180 612.179504
199 0 1 13.872330 9.676830 613.122009
200 0 1 13.509380 9.991010 613.910583
201 0 1 13.296329 10.468390 614.707214
202 0 1 13.150980 10.901060 615.592590
203 0 1 12.989941 11.002210 616.546387
204 0 1 12.558320 11.164690 617.474182
205 0 1 12.292290 11.022800 618.434204
206 0 1 12.083270 11.253000 619.283508
207 0 1 12.121960 11.331850 620.255493
208 0 1 12.172860 11.181561 621.220154
209 0 1 12.183100 10.848740 622.121826
210 0 1 12.353470 10.316190 622.935425
211 0 1 12.369020 10.292749 623.892944
212 0 1 12.217990 10.026770 624.846191
213 0 1 11.941980 10.187350 625.755859
214 0 1 11.450580 10.302031 626.612000
215 0 1 11.167400 10.290720 627.509644
216 0 1 11.042220 10.414330 628.491028
217 0 1 10.911840 10.746340 629.395813
218 0 1 10.627200 10.883600 630.335327
219 0 1 10.062870 10.993710 631.052307
220 0 1 9.330390 10.979850 631.697388
221 0 1 8.838645 10.858750 632.570496
222 0 1 8.377331 10.752230 633.435547
223 0 1 8.120018 10.648211 634.400513
224 0 1 8.090841 10.784491 635.326416
225 0 1 8.114146 11.209630 636.219543
226 0 1 8.254943 11.443630 637.117859
227 0 1 8.452965 11.738120 638.015015
228 0 1 8.840272 12.182301 638.860229
229 0 1 9.091430 12.419069 639.741821
230 0 1 9.351770 12.666260 640.618774
231 0 1 9.478960 12.877560 641.559021
232 0 1 9.628970 12.845551 642.458374
233 0 1 9.730470 12.332760 643.298218
234 0 1 9.993230 11.817940 644.007629
235 0 1 9.934950 11.251490 644.815491
236 0 1 9.558430 11.010980 645.669312
237 0 1 9.146280 10.666300 646.536804
238 0 1 9.020660 10.260790 647.371277
239 0 1 8.734200 9.725720 648.135620
240 0 1 8.604482 9.266860 648.964783
241 0 1 8.297052 9.188890 649.906372
242 0 1 8.009154 9.096660 650.778076
243 0 1 7.550168 9.077140 651.693726
244 0 1 7.311046 9.015200 652.630310
245 0 1 6.846810 8.841206 653.520813
246 0 1 6.622830 8.871746 654.391907
247 0 1 6.482930 9.095500 655.355469
248 0 1 6.464630 9.242150 656.343201
249 0 1 6.503700 9.246799 657.256470
250 0 1 6.402400 9.467090 658.196106
251 0 1 6.252510 9.731410 659.099609
252 0 1 6.550800 9.832450 660.014099
253 0 1 6.625310 10.006220 660.969727
254 0 1 6.736750 9.998070 661.965088
255 0 1 6.764120 9.915751 662.869019
256 0 1 6.540860 10.087800 663.776611
257 0 1 6.345680 10.222170 664.697510
258 0 1 5.853140 10.254790 665.517700
259 0 1 5.447300 10.629440 666.380310
260 0 1 5.134170 11.036740 667.213318
261 0 1 4.778340 11.318990 668.108704
262 0 1 4.596820 11.184170 669.024414
263 0 1 4.450490 11.141550 669.984192
264 0 1 4.139360 11.122850 670.937012
265 0 1 3.747600 11.097450 671.871399
266 0 1 3.448990 11.138460 672.810425
267 0 1 3.071210 11.008130 673.772888
268 0 1 2.668990 10.985460 674.643494
269 0 1 2.498180 10.947010 675.592590
270 0 1 2.514910 10.897680 676.539001
271 0 1 2.477640 10.414480 677.424194
272 0 1 2.796100 9.760590 677.989685
273 0 1 3.069440 9.091410 678.722290
274 0 1 3.235520 8.593495 679.541809
275 0 1 3.349310 8.074891 680.292603
276 0 1 3.662600 7.780279 681.154480
277 0 1 4.305190 7.347043 681.807617
278 0 1 4.746000 6.910020 682.548584
279 0 1 5.148480 6.526860 683.381897
280 0 1 5.342860 6.156190 684.330627
281 0 1 5.645710 6.078230 685.258179
282 0 1 6.018560 6.169670 686.184570
283 0 1 6.268410 6.196690 687.097290
284 0 1 6.369550 6.271400 687.980408
285 0 1 6.410500 6.193760 688.921204
286 0 1 6.129270 6.048820 689.869995
287 0 1 5.910850 6.026680 690.794800
288 0 1 5.306310 5.698530 691.543823
289 0 1 4.884170 5.639840 692.372681
290 0 1 4.749000 5.907120 693.343018
291 0 1 4.623500 6.198200 694.221924
292 0 1 4.506010 6.703250 694.971375
293 0 1 4.554330 7.263796 695.856018
294 0 1 4.419330 7.524912 696.768616
295 0 1 4.327420 7.968261 697.606201
296 0 1 4.218350 8.332907 698.542969
297 0 1 4.076940 8.646838 699.403198
298 0 1 4.099010 8.870485 700.307922
299 0 1 4.378610 9.035080 701.288513
300 0 1 4.517700 8.976137 702.260010
301 0 1 4.707700 9.069470 703.226685
302 0 1 5.131960 8.802774 704.153076
303 0 1 5.228050 8.796221 705.097107
304 0 1 5.358510 9.062520 705.982910
305 0 1 5.514050 9.404230 706.848022
306 0 1 5.898490 9.564700 707.719421
307 0 1 5.970740 9.888660 708.645691
308 0 1 6.107220 10.046420 709.596802
309 0 1 6.129860 10.681260 710.410522
310 0 1 6.184820 11.256540 711.236023
311 0 1 6.508350 11.547680 712.045776
312 0 1 6.968870 11.857730 712.838623
313 0 1 7.675708 11.846070 713.402710
314 0 1 8.319797 11.792450 714.141907
315 0 1 8.974835 11.776510 714.788879
316 0 1 9.374130 11.363120 715.569397
317 0 1 9.597580 10.893920 716.349182
318 0 1 9.900060 10.485200 717.170898
319 0 1 9.930030 10.055820 718.028381
320 0 1 10.018820 9.706270 718.938904
321 0 1 10.144570 9.472090 719.836426
322 0 1 10.075320 9.720640 720.797729
323 0 1 9.951650 9.825650 721.755310
324 0 1 9.773120 10.242889 722.575073
325 0 1 9.757520 10.596251 723.465698
326 0 1 9.861990 10.995390 724.414185
327 0 1 9.806580 11.363110 725.261108
328 0 1 9.781860 11.898860 726.024170
329 0 1 9.506970 12.359830 726.877686
330 0 1 9.168800 12.729630 727.809814
331 0 1 8.989273 12.747260 728.794983
332 0 1 8.725719 12.837820 729.731995
333 0 1 8.649632 12.855340 730.716003
334 0 1 9.178620 12.766900 731.502991
335 0 1 9.422091 12.725269 732.443970
336 0 1 9.638000 12.358410 733.286011
337 0 1 9.722290 12.236500 734.276001
338 0 1 9.711290 12.022640 735.234009
339 0 1 9.660630 11.790421 736.146973
340 0 1 9.971300 11.506280 737.018982
341 0 1 10.144880 11.410749 737.942993
342 0 1 10.121280 11.125700 738.888977
343 0 1 9.843060 10.688060 739.820984
344 0 1 9.449770 10.225380 740.559021
345 0 1 8.922039 9.825610 741.309021
346 0 1 8.677680 9.249930 742.088989
347 0 1 8.364308 8.862388 742.974976
348 0 1 8.168235 8.611604 743.914001
349 0 1 8.081870 8.346562 744.851990
350 0 1 7.583588 7.844374 745.572021
351 0 1 7.263721 7.919055 746.490967
352 0 1 7.367709 7.732825 747.429016
353 0 1 7.717959 7.495170 748.307007
354 0 1 8.107509 7.393178 749.161011
355 0 1 8.713625 6.854650 749.771973
356 0 1 9.219320 6.263480 750.325012
357 0 1 9.792900 5.674390 750.804016
358 0 1 10.372320 5.043740 751.177002
359 0 1 10.804670 4.615970 751.911011
360 0 1 11.374640 4.244910 752.598022
361 0 1 11.796420 4.182930 753.479980
362 0 1 11.974590 4.077470 754.437012
363 0 1 11.852551 3.829860 755.384033
364 0 1 11.335970 3.530930 756.088989
365 0 1 10.857040 3.638350 756.942017
366 0 1 10.573350 3.910240 757.832031
367 0 1 10.318090 4.120210 758.761963
368 0 1 10.124730 4.293090 759.664978
369 0 1 9.934460 4.757240 760.492981
370 0 1 9.663860 5.071460 761.341980
371 0 1 9.104880 5.455460 762.028015
372 0 1 8.603147 5.600550 762.802002
373 0 1 7.923361 5.771400 763.427002
374 0 1 7.214151 6.063390 764.098022
375 0 1 6.498710 6.313700 764.651978
376 0 1 5.606920 6.564720 764.719971
377 0 1 4.802870 7.091669 765.018982
378 0 1 4.218370 7.580685 765.622986
379 0 1 3.573260 7.804172 766.328979
380 0 1 3.037810 7.794564 767.125977
381 0 1 2.705070 7.645646 767.968018
382 0 1 2.052660 7.336805 768.687012
383 0 1 1.789100 7.193829 769.585999
384 0 1 1.616060 6.939980 770.535034
385 0 1 1.566310 7.125082 771.460022
386 0 1 1.611510 7.399808 772.403992
387 0 1 1.848370 7.586160 773.281006
388 0 1 2.199990 7.623118 774.237000
389 0 1 2.508650 7.594577 775.141968
390 0 1 2.867780 7.946556 776.002014
391 0 1 3.278080 8.353062 776.718018
392 0 1 3.744790 8.744844 777.544006
393 0 1 4.214720 9.033090 778.411987
394 0 1 4.464390 9.154060 779.320007
395 0 1 4.883970 9.176660 780.171997
396 0 1 5.358750 9.252380 781.057983
397 0 1 5.635730 9.093990 781.934998
398 0 1 6.091860 8.953060 782.835999
399 0 1 6.701050 8.800798 783.619995
400 0 1 7.281668 8.742167 784.458008
401 0 1 7.831428 8.841866 785.235962
402 0 1 8.190193 8.926501 786.104980
403 0 1 8.524300 9.496510 786.844971
404 0 1 8.644694 9.821770 787.786011
405 0 1 8.484927 10.005650 788.869019
406 0 1 8.371528 10.177970 789.783997
407 0 1 8.027079 10.217190 790.705994
408 0 1 7.785395 10.199270 791.641968
409 0 1 7.439114 10.484230 792.462036
410 0 1 7.418636 10.913080 793.349976
411 0 1 7.306984 11.361770 794.195007
412 0 1 7.193028 12.017740 794.950989
413 0 1 6.971640 12.547649 795.726990
414 0 1 6.841020 12.910100 796.672974
415 0 1 6.897670 13.367519 797.526001
416 0 1 7.288659 13.661369 798.344971
417 0 1 7.553923 13.959320 799.223022
418 0 1 7.591935 14.066000 800.218994
419 0 1 7.644608 14.260630 801.200989
420 0 1 7.754776 14.365350 802.224976
421 0 1 7.802835 14.218910 803.164001
422 0 1 7.954276 13.929740 804.059998
423 0 1 7.984129 13.745810 805.033997
424 0 1 7.745823 13.684570 805.992981
425 0 1 7.485642 13.642450 806.971985
426 0 1 7.217865 13.878190 807.872986
427 0 1 6.838120 13.851419 808.679016
428 0 1 6.613340 13.791320 809.608032
429 0 1 6.452110 13.961969 810.541016
430 0 1 6.534410 13.755580 811.476013
431 0 1 6.604690 13.704580 812.531006
432 0 1 6.465210 13.631010 813.455017
433 0 1 5.999360 13.936860 814.231995
434 0 1 5.850030 13.996710 815.186035
435 0 1 5.805330 13.644060 816.070984
436 0 1 5.861390 13.428061 816.984985
437 0 1 6.016090 13.323330 817.880005
438 0 1 6.528430 12.983990 818.609985
439 0 1 6.915820 12.407520 819.197998
440 0 1 6.974710 11.609640 819.764038
441 0 1 7.297764 11.191490 820.526978
442 0 1 7.613370 10.806850 821.358032
443 0 1 7.885910 10.565701 822.208984
444 0 1 8.014205 10.268010 823.080994
445 0 1 8.002954 9.801610 823.934021
446 0 1 7.990655 9.148710 824.690979
447 0 1 7.971162 8.754598 825.567993
448 0 1 8.331537 8.228200 826.323975
449 0 1 8.793841 7.753705 827.049011
450 0 1 9.146080 7.228768 827.811035
451 0 1 9.394540 6.788650 828.617004
452 0 1 9.568640 6.150950 829.349976
453 0 1 9.625160 5.712080 830.187012
454 0 1 9.934640 5.190530 830.931030
455 0 1 10.042430 4.596550 831.729980
456 0 1 10.018570 4.210410 832.580017
457 0 1 9.980730 3.704630 833.400024
458 0 1 10.012720 3.360600 834.255005
459 0 1 10.435950 3.164120 835.070007
460 0 1 10.669390 3.315950 835.976013
461 0 1 10.775720 3.737270 836.859009
462 0 1 10.962620 4.185930 837.747009
463 0 1 11.032570 4.647520 838.603027
464 0 1 11.008220 5.412080 839.156006
465 0 1 11.259780 6.296110 839.171021
466 0 1 11.653240 7.141899 839.104004
467 0 1 11.769060 8.130465 838.976013
468 0 1 11.904779 9.081779 838.797974
469 0 1 12.046550 9.959690 838.351013
470 0 1 12.102910 10.820290 838.014038
471 0 1 12.243860 11.658300 837.476990
472 0 1 12.486710 12.304510 836.846985
473 0 1 12.354560 12.721530 836.052979
474 0 1 12.141760 12.911510 835.184998
475 0 1 11.864030 13.072189 834.315002
476 0 1 11.728559 13.099020 833.388000
477 0 1 11.547600 13.088460 832.427979
478 0 1 11.509570 12.752480 831.450989
479 0 1 11.583420 12.395110 830.549011
480 0 1 11.781760 12.101070 829.636963
481 0 1 11.735440 11.877360 828.708008
482 0 1 11.727250 11.641700 827.757996
483 0 1 11.696790 11.722080 826.734985
484 0 1 11.569910 11.465250 825.802979
485 0 1 11.445790 11.137400 824.864014
486 0 1 11.264040 10.615170 824.098022
487 0 1 10.691140 10.266490 823.411011
488 0 1 10.043080 9.969590 822.775024
489 0 1 9.260000 9.808540 822.161987
490 0 1 8.493642 9.277840 821.841980
491 0 1 8.025963 8.528558 821.309998
492 0 1 7.427872 8.032639 820.692993
493 0 1 7.213622 7.282367 820.110962
494 0 1 7.199412 6.779150 819.291016
495 0 1 7.329074 6.737960 818.323975
496 0 1 7.321391 6.774060 817.398987
497 0 1 7.156954 6.809130 816.341980
498 0 1 6.834800 6.607750 815.476990
499 0 1 6.458910 6.654710 814.614014
500 0 1 6.042500 6.697340 813.754028
501 0 1 5.447450 6.576780 813.052979
502 0 1 4.693830 6.394320 812.479980
503 0 1 4.135310 6.135600 811.739990
504 0 1 4.052540 5.683720 810.853027
505 0 1 3.737320 5.360630 809.969971
506 0 1 3.407290 4.921220 809.158020
507 0 1 3.428670 4.835330 808.161011
508 0 1 3.593230 4.648610 807.221985
509 0 1 4.095710 4.330810 806.464966
510 0 1 4.706690 4.275500 805.710022
511 0 1 5.370630 4.255120 804.994995
512 0 1 5.839900 4.206290 804.148987
513 0 1 6.457250 4.365710 803.380005
514 0 1 6.979730 4.785950 802.662964
515 0 1 7.595890 4.965160 801.864990
516 0 1 8.257979 5.001070 801.169983
517 0 1 8.893376 5.067810 800.322998
518 0 1 9.255660 5.066170 799.401978
519 0 1 9.638410 4.856640 798.520020
520 0 1 10.058599 4.785120 797.671021
521 0 1 10.556030 4.790900 796.885986
522 0 1 10.735240 4.814280 795.922974
523 0 1 10.969770 5.192010 795.046997
524 0 1 10.981060 5.462480 794.091980
525 0 1 11.171860 5.562880 793.161011
526 0 1 11.423660 5.269730 792.281982
527 0 1 11.482550 5.348840 791.296997
528 0 1 11.405490 4.985000 790.405029
529 0 1 11.353330 4.431960 789.666016
530 0 1 11.255880 3.658740 789.106995
531 0 1 11.038560 3.206290 788.309021
532 0 1 10.685130 2.965070 787.411011
533 0 1 10.268579 2.941070 786.484009
534 0 1 10.122380 3.231460 785.575989
535 0 1 10.036460 3.386850 784.630981
536 0 1 9.944100 3.804040 783.733032
537 0 1 9.851170 4.248760 782.856995
538 0 1 9.735890 4.522950 781.955017
539 0 1 9.441150 4.810500 781.117004
540 0 1 9.043290 5.175680 780.252014
541 0 1 8.694047 5.669600 779.528015
542 0 1 8.731512 5.998940 778.624023
543 0 1 8.825196 6.390600 777.763000
544 0 1 8.825299 6.956090 777.018982
545 0 1 8.967632 7.565484 776.187988
546 0 1 9.029160 8.293849 775.530029
547 0 1 8.942918 9.010630 774.854004
548 0 1 8.907212 9.526950 773.981995
549 0 1 9.078930 9.964330 773.135010
550 0 1 9.228140 10.622880 772.447998
551 0 1 9.232220 11.228910 771.705017
552 0 1 9.259501 11.518311 770.809021
553 0 1 9.395830 11.262860 769.856018
554 0 1 9.177330 11.140980 768.929016
555 0 1 8.852560 11.154720 768.073975
556 0 1 8.778935 11.017750 767.125000
557 0 1 8.814894 11.024240 766.073975
558 0 1 8.741346 10.875350 765.083008
559 0 1 8.733574 10.651580 764.155029
560 0 1 8.486195 10.419519 763.255981
561 0 1 8.314809 10.329400 762.286987
562 0 1 8.208256 10.179800 761.364990
563 0 1 8.149621 10.161800 760.438965
564 0 1 8.015624 10.187610 759.513000
565 0 1 7.857895 10.182460 758.619995
566 0 1 7.555113 9.952900 757.766968
567 0 1 7.282873 9.522840 756.937988
568 0 1 6.888550 8.896576 756.268005
569 0 1 6.928380 8.295042 755.505981
570 0 1 7.121801 7.839493 754.750000
571 0 1 7.215696 7.297816 753.968994
572 0 1 7.239910 6.929100 753.039001
573 0 1 7.601931 6.584030 752.210999
574 0 1 7.818991 6.057990 751.422974
575 0 1 7.886049 5.409260 750.629028
576 0 1 7.956014 5.100260 749.773010
577 0 1 7.997313 4.723740 748.862000
578 0 1 8.160133 4.663350 747.914001
579 0 1 8.109815 4.848050 746.968018
580 0 1 7.869538 4.988490 746.023987
581 0 1 7.232544 5.213100 745.289001
582 0 1 6.565140 5.208020 744.424011
583 0 1 6.120830 5.237450 743.539978
584 0 1 5.680920 5.004860 742.707031
585 0 1 5.509310 4.705820 741.841003
586 0 1 5.314710 4.668940 740.906006
587 0 1 4.982690 4.507490 740.031982
588 0 1 4.728490 4.225220 739.148010
589 0 1 4.668540 3.865070 738.239990
590 0 1 4.699090 3.516500 737.234985
591 0 1 4.391750 3.419520 736.309021
592 0 1 4.366550 3.127640 735.396973
593 0 1 4.661520 2.895360 734.528992
594 0 1 4.860340 2.542690 733.702026
595 0 1 5.064580 2.489380 732.755981
596 0 1 5.323960 2.635060 731.843018
597 0 1 5.397660 2.500420 730.914001
598 0 1 5.398960 2.166780 730.054016
599 0 1 5.573400 2.035210 729.145996
600 0 1 5.725390 2.065500 728.218628
601 0 1 5.839930 2.164880 727.255127
602 0 1 5.970300 2.282270 726.368286
603 0 1 6.415470 2.262690 725.524780
604 0 1 6.765750 2.283090 724.601013
605 0 1 7.214646 2.430680 723.672180
606 0 1 7.608043 2.530830 722.762390
607 0 1 7.903010 2.511800 721.860474
608 0 1 8.088245 2.311930 720.863281
609 0 1 8.407442 2.377660 719.930603
610 0 1 8.682882 2.447210 718.964417
611 0 1 8.722695 2.675490 718.070496
612 0 1 9.062280 2.554980 717.179688
613 0 1 9.168440 2.451180 716.202515
614 0 1 9.066730 2.463500 715.211914
615 0 1 9.058250 2.230620 714.309326
616 0 1 9.235020 1.936160 713.413879
617 0 1 9.164870 1.924790 712.460999
618 0 1 9.317030 1.842830 711.492798
619 0 1 9.533240 1.779180 710.560120
620 0 1 9.630330 2.068280 709.643982
621 0 1 9.450640 2.545850 708.818176
622 0 1 9.305140 3.278160 708.140015
623 0 1 9.464920 4.091540 707.631592
624 0 1 9.484529 4.891140 707.045288
625 0 1 9.559260 5.117910 706.139771
626 0 1 9.669830 5.375010 705.173096
627 0 1 9.715860 5.773140 704.266113
628 0 1 9.738820 5.975850 703.346497
629 0 1 9.753130 6.200090 702.428711
630 0 1 9.799891 6.356860 701.447998
631 0 1 9.848910 6.711770 700.491516
632 0 1 9.977530 6.754920 699.562866
633 0 1 10.201469 6.818180 698.576416
634 0 1 10.278851 6.981080 697.610413
635 0 1 10.042010 6.809520 696.699097
636 0 1 9.700270 6.719980 695.782715
637 0 1 9.230240 6.940340 694.975098
638 0 1 8.958799 7.504750 694.280396
639 0 1 8.721682 8.180115 693.679993
640 0 1 8.648338 8.993084 693.169800
641 0 1 8.680927 9.741020 692.581177
642 0 1 8.802712 10.506330 691.982117
643 0 1 8.904314 10.895041 691.098389
644 0 1 9.222720 10.966440 690.121582
645 0 1 9.366240 10.831370 689.133423
646 0 1 9.429560 10.657960 688.173889
647 0 1 9.427970 10.540380 687.185181
648 0 1 9.230570 10.126280 686.294922
649 0 1 9.279380 9.777640 685.331909
650 0 1 9.269820 9.718700 684.341797
651 0 1 9.116310 9.866360 683.395813
652 0 1 9.040421 9.922570 682.388916
653 0 1 8.903339 9.963420 681.438232
654 0 1 8.607098 10.068300 680.544983
655 0 1 8.039376 10.296940 679.765198
656 0 1 7.708068 10.591670 678.936279
657 0 1 7.680948 11.073811 678.083679
658 0 1 7.706464 11.304810 677.132996
659 0 1 8.081827 11.251500 676.207520
660 0 1 8.303246 10.877720 675.345703
661 0 1 8.237227 10.850690 674.373291
662 0 1 8.311001 10.666260 673.413025
663 0 1 8.507243 10.344650 672.547302
664 0 1 8.458853 10.192020 671.632812
665 0 1 8.503376 10.030890 670.696899
666 0 1 8.607771 9.704780 669.797913
667 0 1 9.039670 9.432100 668.979980
668 0 1 9.585880 9.024520 668.297424
669 0 1 10.010560 8.966947 667.455017
670 0 1 10.277210 8.662791 666.568909
671 0 1 10.369420 8.485900 665.601624
672 0 1 10.520990 8.148873 664.661926
673 0 1 10.733180 7.954032 663.749023
674 0 1 10.936190 7.734162 662.846680
675 0 1 11.423670 7.792132 662.039917
676 0 1 11.779140 7.810089 661.104309
677 0 1 11.913200 8.118770 660.238586
678 0 1 12.095330 8.365207 659.281799
679 0 1 12.137791 8.580787 658.370117
680 0 1 12.427481 8.375089 657.451294
681 0 1 12.355471 8.267478 656.524597
682 0 1 12.208850 8.209052 655.515503
683 0 1 11.709420 8.218479 654.654419
684 0 1 11.238430 8.181994 653.809387
685 0 1 10.866540 8.097690 652.981201
686 0 1 10.168870 8.109828 652.354919
687 0 1 9.411790 7.758283 651.849915
688 0 1 8.840261 7.544600 651.093323
689 0 1 8.301004 7.433240 650.249329
690 0 1 7.877971 7.374702 649.335815
691 0 1 7.349661 7.372462 648.486023
692 0 1 6.839840 7.390956 647.685120
693 0 1 6.402760 7.594267 646.827209
694 0 1 6.005590 7.900949 645.967224
695 0 1 5.715520 8.072075 645.102600
696 0 1 5.396750 8.222526 644.169983
697 0 1 5.124720 7.996722 643.231079
698 0 1 4.940640 8.092443 642.268494
699 0 1 4.859700 8.062725 641.366516
700 0 1 4.643450 7.712983 640.461304
701 0 1 4.294570 7.412259 639.618408
702 0 1 4.194510 7.089029 638.752686
703 0 1 4.050430 6.928260 637.840881
704 0 1 3.804940 6.953370 636.868958
705 0 1 3.398480 6.631870 636.099609
706 0 1 3.094010 6.060690 635.332520
707 0 1 2.768180 5.594390 634.550903
708 0 1 2.883020 5.092940 633.731750
709 0 1 2.863730 4.974780 632.761902
710 0 1 2.809790 5.023830 631.825012
711 0 1 2.809150 4.956840 630.935608
712 0 1 3.199750 4.668740 630.045044
713 0 1 3.432000 4.270330 629.168091
714 0 1 3.750430 4.116360 628.289124
715 0 1 4.042880 4.161660 627.386230
716 0 1 4.052690 4.339790 626.379456
717 0 1 4.296560 4.409590 625.480713
718 0 1 4.716660 4.383230 624.574707
719 0 1 5.060330 4.176380 623.672668
720 0 1 5.476170 4.325040 622.718018
721 0 1 5.588350 4.370650 621.747864
722 0 1 5.733560 4.566390 620.796814
723 0 1 5.713430 4.914050 619.915588
724 0 1 5.620300 5.216940 619.014221
725 0 1 5.578790 5.516170 618.081787
726 0 1 5.471780 5.889760 617.197876
727 0 1 5.262600 6.115690 616.270020
728 0 1 5.154920 6.604680 615.427612
729 0 1 5.411000 7.070535 614.585999
730 0 1 6.002940 7.363901 613.859680
731 0 1 6.527600 7.597418 613.096497
732 0 1 6.694780 7.730130 612.162903
733 0 1 6.653390 7.692735 611.179810
734 0 1 6.686610 7.409423 610.246704
735 0 1 6.816050 6.774210 609.515320
736 0 1 7.042265 6.347120 608.670471
737 0 1 7.140302 5.794610 607.884521
738 0 1 7.342695 5.344270 607.085083
739 0 1 7.540960 4.957530 606.167297
740 0 1 7.816575 4.735320 605.306030
741 0 1 8.063229 4.329090 604.516785
742 0 1 7.910074 3.797680 603.699280
743 0 1 7.499937 3.298810 602.918274
744 0 1 7.325127 3.097280 602.042175
745 0 1 6.940330 3.002120 601.168884
746 0 1 6.799210 3.077260 600.181030
747 0 1 6.723050 3.470550 599.289307
748 0 1 7.050966 3.799180 598.435913
749 0 1 7.311183 4.043690 597.530273
750 0 1 7.317150 4.153370 596.603271
751 0 1 7.497898 4.170770 595.587280
752 0 1 7.594558 4.116920 594.587891
753 0 1 7.434928 4.112300 593.600525
754 0 1 7.373398 4.461420 592.665283
755 0 1 7.135921 4.612480 591.737305
756 0 1 6.822700 4.682640 590.722290
757 0 1 6.588930 4.769610 589.783569
758 0 1 6.570310 4.925690 588.825317
759 0 1 6.614860 5.131820 587.890198
760 0 1 6.706710 5.622130 587.100220
761 0 1 6.299300 5.664250 586.149109
762 0 1 5.967570 5.527760 585.228271
763 0 1 6.068950 5.307960 584.316895
764 0 1 6.025350 5.250410 583.343323
765 0 1 6.184100 5.251310 582.383484
766 0 1 6.209180 5.283330 581.450989
767 0 1 6.267750 5.361560 580.457031
768 0 1 6.410210 5.675310 579.523071
769 0 1 6.804730 5.999130 578.665771
770 0 1 7.048695 6.441690 577.873169
771 0 1 7.509858 6.770540 577.034973
772 0 1 7.935255 7.057589 576.191101
773 0 1 8.503282 7.495085 575.536499
774 0 1 9.049910 8.048392 574.988525
775 0 1 9.457240 8.457221 574.223022
776 0 1 10.078160 8.787853 573.528809
777 0 1 10.557440 8.947164 572.711426
778 0 1 10.651790 9.331870 571.859131
779 0 1 10.538270 9.730540 570.970398
780 0 1 10.749780 9.887800 570.076294
781 0 1 11.258170 9.879960 569.246094
782 0 1 11.847110 9.900370 568.465881
783 0 1 12.223890 9.924990 567.582520
784 0 1 12.427970 9.926070 566.674072
785 0 1 12.628190 9.860140 565.723511
786 0 1 12.637960 10.015790 564.775269
787 0 1 12.597281 9.896790 563.835815
788 0 1 12.219629 9.500480 563.022583
789 0 1 11.777340 9.183820 562.230408
790 0 1 11.257410 8.711474 561.511902
791 0 1 10.748270 8.439809 560.751892
792 0 1 10.360710 8.211044 559.977478