LAMMPS data file via MDAnalysis

        1000  atoms
        1000  bonds
        1000  angles
           0  dihedrals
           0  impropers

           1  atom types
           1  bond types
           1  angle types
           0  dihedral types
           0  improper types

0.000000 16.000000 xlo xhi
0.000000 16.000000 ylo yhi
0.000000 1257.000000 zlo zhi


Masses

1 1.000000

Atoms

1 0 1 9.557350 6.173490 443.653992
2 0 1 9.517980 5.915430 444.662994
3 0 1 9.202540 5.637880 445.556000
4 0 1 8.803103 5.469820 446.417999
5 0 1 8.434207 5.326310 447.255981
6 0 1 7.949713 5.537670 448.089996
7 0 1 7.494781 5.664170 448.911011
8 0 1 7.050989 5.588390 449.796997
9 0 1 6.854840 5.532150 450.721985
10 0 1 6.584880 5.716440 451.617981
11 0 1 6.753790 6.110540 452.475006
12 0 1 6.835960 6.444290 453.398987
13 0 1 6.730610 6.789300 454.285004
14 0 1 6.821050 7.013077 455.226013
15 0 1 7.260973 7.471076 455.903015
16 0 1 8.058700 7.909532 456.372009
17 0 1 8.707506 8.399264 456.911011
18 0 1 9.166890 8.958235 457.583984
19 0 1 9.564250 9.468240 458.273987
20 0 1 10.023550 9.893520 458.977997
21 0 1 10.623480 9.894830 459.748993
22 0 1 11.194390 9.776300 460.479004
23 0 1 11.467580 9.596060 461.384003
24 0 1 11.523390 9.166140 462.173004
25 0 1 11.471479 8.539959 462.872009
26 0 1 11.592450 7.765148 463.401978
27 0 1 11.685110 7.105670 464.151978
28 0 1 11.728570 6.479030 464.992004
29 0 1 11.529640 5.825910 465.671021
30 0 1 11.508330 4.976100 466.083984
31 0 1 11.159040 4.230650 466.580017
32 0 1 10.873859 3.448860 467.153015
33 0 1 10.583070 2.858200 467.955017
34 0 1 10.474850 2.307670 468.726013
35 0 1 10.251680 1.948190 469.630005
36 0 1 10.038450 1.630710 470.515991
37 0 1 9.961600 1.852280 471.421997
38 0 1 9.859970 2.270280 472.281006
39 0 1 9.793680 2.404500 473.268982
40 0 1 9.487030 2.380750 474.148010
41 0 1 9.239240 2.526590 475.080017
42 0 1 8.845292 2.522550 475.929016
43 0 1 8.423276 2.402900 476.759003
44 0 1 8.035437 2.283040 477.677002
45 0 1 7.622267 2.206090 478.533997
46 0 1 7.481168 2.172630 479.494019
47 0 1 7.282115 2.406120 480.371002
48 0 1 7.199702 2.549970 481.330017
49 0 1 7.153426 2.655570 482.315002
50 0 1 7.012839 3.029700 483.169983
51 0 1 6.846760 3.491550 484.020996
52 0 1 6.744910 4.191330 484.674011
53 0 1 6.870790 4.865600 485.268982
54 0 1 7.069371 5.455450 486.015991
55 0 1 7.294525 5.918980 486.835999
56 0 1 7.614082 6.265600 487.712006
57 0 1 7.830991 6.949380 488.411011
58 0 1 8.071354 7.311775 489.335022
59 0 1 8.430968 7.611438 490.140015
60 0 1 8.753874 8.230686 490.819000
61 0 1 8.965191 8.883274 491.466003
62 0 1 9.278850 9.502690 492.279999
63 0 1 9.702960 9.875080 493.018982
64 0 1 10.003000 10.348190 493.781006
65 0 1 10.007790 10.214590 494.802002
66 0 1 10.089860 10.104010 495.747009
67 0 1 10.127090 10.220480 496.648987
68 0 1 10.099190 10.426750 497.615997
69 0 1 10.283210 10.773640 498.494019
70 0 1 10.293700 11.147790 499.377991
71 0 1 10.343440 11.091170 500.313995
72 0 1 10.336260 11.033680 501.281982
73 0 1 10.488100 10.989380 502.253998
74 0 1 10.414110 11.034140 503.204010
75 0 1 10.518740 11.257060 504.075012
76 0 1 10.578760 11.335480 505.058990
77 0 1 10.447360 11.170860 505.968018
78 0 1 10.459690 10.952880 506.903992
79 0 1 10.453220 10.807859 507.841003
80 0 1 10.581730 10.912570 508.796997
81 0 1 10.471140 10.881680 509.705017
82 0 1 10.332900 10.642750 510.614990
83 0 1 10.103010 10.148590 511.431000
84 0 1 10.095881 9.694550 512.286987
85 0 1 10.118299 9.482740 513.187988
86 0 1 10.445720 9.351630 514.059998
87 0 1 10.544460 9.200510 514.986023
88 0 1 10.623880 9.016700 515.895996
89 0 1 10.832960 8.943809 516.825989
90 0 1 11.092500 8.802938 517.799988
91 0 1 11.147790 8.758134 518.778992
92 0 1 11.208640 8.590084 519.757019
93 0 1 11.226250 8.523668 520.695984
94 0 1 10.988610 8.280004 521.594971
95 0 1 10.989180 8.473243 522.573975
96 0 1 10.776330 8.896221 523.526001
97 0 1 10.722919 9.441240 524.364990
98 0 1 10.463650 9.669050 525.260010
99 0 1 10.165700 9.921721 526.161011
100 0 1 9.892179 10.169760 527.085022
101 0 1 9.616100 10.235410 527.989990
102 0 1 9.486970 10.299990 528.913513
103 0 1 9.237430 10.456910 529.780396
104 0 1 8.652453 10.924640 530.454895
105 0 1 8.453453 11.192270 531.410095
106 0 1 8.273021 11.222691 532.339417
107 0 1 8.417515 11.302160 533.253113
108 0 1 8.817430 11.149120 534.109192
109 0 1 9.396870 10.985519 534.934387
110 0 1 9.810080 10.930740 535.790283
111 0 1 10.254940 10.843220 536.637024
112 0 1 10.945020 10.724540 537.413025
113 0 1 11.326340 10.639640 538.291687
114 0 1 11.474620 10.888340 539.211121
115 0 1 11.697110 10.864201 540.120422
116 0 1 11.866890 10.829600 541.069214
117 0 1 12.176770 10.632320 541.937622
118 0 1 12.574409 10.335640 542.789001
119 0 1 13.145630 10.118410 543.583801
120 0 1 13.631189 9.817590 544.341980
121 0 1 13.881910 9.280390 545.067810
122 0 1 13.694019 8.595147 545.663086
123 0 1 13.439880 7.976647 546.291016
124 0 1 13.373751 7.501878 547.068115
125 0 1 13.534990 6.967030 547.877930
126 0 1 13.653070 6.503440 548.798584
127 0 1 13.877541 6.186240 549.749390
128 0 1 14.017200 5.949770 550.653320
129 0 1 13.906050 5.496270 551.524719
130 0 1 14.158890 5.285300 552.429932
131 0 1 14.163589 5.476190 553.428711
132 0 1 14.285260 5.832820 554.314087
133 0 1 14.253270 6.135350 555.187866
134 0 1 14.197130 6.396210 556.128723
135 0 1 14.093130 6.467910 557.077576
136 0 1 13.903009 6.681940 558.044800
137 0 1 13.767200 6.927230 558.988403
138 0 1 13.635620 7.206321 559.887695
139 0 1 13.214820 7.271385 560.786926
140 0 1 12.651410 7.414861 561.561096
141 0 1 12.130110 7.141390 562.396912
142 0 1 11.435680 6.767350 562.996521
143 0 1 10.818890 6.426940 563.724915
144 0 1 10.228840 5.970520 564.303894
145 0 1 9.733050 5.532570 565.011597
146 0 1 9.127390 5.293250 565.676880
147 0 1 8.490118 5.006330 566.342712
148 0 1 7.958270 4.774880 567.137329
149 0 1 7.644987 4.706620 568.021729
150 0 1 7.288896 4.685040 568.881226
151 0 1 7.163772 4.804550 569.846985
152 0 1 6.961890 4.784790 570.809509
153 0 1 6.816850 4.651410 571.768677
154 0 1 6.803840 4.641810 572.718811
155 0 1 6.846310 4.896460 573.652893
156 0 1 6.682750 5.166940 574.557922
157 0 1 6.358340 5.610970 575.354187
158 0 1 5.934580 6.211900 575.916382
159 0 1 5.518780 6.580600 576.670898
160 0 1 5.122640 6.813160 577.529114
161 0 1 4.856170 6.976280 578.466003
162 0 1 4.498840 7.264422 579.286316
163 0 1 4.472830 7.798699 580.079590
164 0 1 4.269440 8.106560 580.940613
165 0 1 3.881970 8.626052 581.720398
166 0 1 3.756030 9.167190 582.503479
167 0 1 3.919320 9.659580 583.301392
168 0 1 4.103780 9.897590 584.211975
169 0 1 4.280850 10.271160 585.116272
170 0 1 4.611620 10.624660 585.957031
171 0 1 4.835170 11.139060 586.747986
172 0 1 5.054800 11.677910 587.569885
173 0 1 5.432160 11.859710 588.480408
174 0 1 6.004750 11.788330 589.248596
175 0 1 6.555360 11.501640 589.989685
176 0 1 6.898840 11.450260 590.872620
177 0 1 6.837770 11.413400 591.822205
178 0 1 6.590000 11.032140 592.685791
179 0 1 6.875430 10.701509 593.592712
180 0 1 7.199601 10.203190 594.354187
181 0 1 7.554634 9.855659 595.288513
182 0 1 7.808550 9.480721 596.127014
183 0 1 7.831234 8.804443 596.816406
184 0 1 7.841505 8.303710 597.654785
185 0 1 8.059034 7.837196 598.584412
186 0 1 8.251307 7.299918 599.352295
187 0 1 8.460987 6.579130 599.963989
188 0 1 8.594879 5.893980 600.725586
189 0 1 8.782401 5.267510 601.488098
190 0 1 9.011930 4.927650 602.326477
191 0 1 9.305560 4.841000 603.206116
192 0 1 9.406830 5.045600 604.186523
193 0 1 9.393200 5.229960 605.149292
194 0 1 9.058080 5.468400 606.074585
195 0 1 8.660432 5.471460 606.880310
196 0 1 8.216091 5.786560 607.682373
197 0 1 7.789602 6.183910 608.481506
198 0 1 7.426463 6.389120 609.293884
199 0 1 7.020310 6.635040 610.181519
200 0 1 6.541330 6.777300 611.031677
201 0 1 6.056720 6.898650 611.830200
202 0 1 5.602450 7.246953 612.662903
203 0 1 5.495680 7.576444 613.667908
204 0 1 5.475900 7.604138 614.663025
205 0 1 5.418740 7.826486 615.614685
206 0 1 5.446620 7.956230 616.599670
207 0 1 5.603640 8.197850 617.579773
208 0 1 5.572350 8.298394 618.520325
209 0 1 5.580110 8.494642 619.502258
210 0 1 5.541620 8.457772 620.481934
211 0 1 5.574610 8.338495 621.458557
212 0 1 5.775280 8.459330 622.381165
213 0 1 5.963910 8.666901 623.293030
214 0 1 5.967860 8.989042 624.202148
215 0 1 6.098190 9.329020 625.094116
216 0 1 5.945000 9.671240 625.986389
217 0 1 5.739850 10.268209 626.716064
218 0 1 5.324890 10.603951 627.550476
219 0 1 4.889480 10.530410 628.438477
220 0 1 4.333680 10.423059 629.175354
221 0 1 3.749540 10.173630 629.914917
222 0 1 3.395680 9.820560 630.780273
223 0 1 2.897960 9.554860 631.551270
224 0 1 2.392980 9.187500 632.309814
225 0 1 2.210200 8.920390 633.248718
226 0 1 2.085600 8.696259 634.209167
227 0 1 2.135380 8.533557 635.175659
228 0 1 2.084370 8.757365 636.086060
229 0 1 2.233620 9.230560 636.897339
230 0 1 2.197840 9.665620 637.702576
231 0 1 2.109260 10.193780 638.538818
232 0 1 2.155820 10.629280 639.359314
233 0 1 1.877010 11.071650 640.164124
234 0 1 2.004430 11.215130 641.135803
235 0 1 2.405990 11.236170 641.978210
236 0 1 2.344220 10.947510 642.923584
237 0 1 2.140980 10.885830 643.819702
238 0 1 2.240920 11.214600 644.703003
239 0 1 2.336240 11.260500 645.653931
240 0 1 2.471150 10.981910 646.544922
241 0 1 2.655170 10.577681 647.446228
242 0 1 2.748690 10.019450 648.252686
243 0 1 2.492640 9.479420 649.066589
244 0 1 2.240020 8.907281 649.816223
245 0 1 2.042190 8.332383 650.582214
246 0 1 2.140500 7.889571 651.393799
247 0 1 2.268530 7.291687 652.142395
248 0 1 2.459140 6.438380 652.537476
249 0 1 2.832780 5.765220 653.078003
250 0 1 3.140930 5.051460 653.663025
251 0 1 3.360910 4.579970 654.455994
252 0 1 3.704390 4.190130 655.296814
253 0 1 4.154000 3.934540 656.112976
254 0 1 4.344150 3.622160 656.992371
255 0 1 4.484140 3.480620 657.907776
256 0 1 4.593410 3.503660 658.910400
257 0 1 4.637240 3.809200 659.760986
258 0 1 4.779000 4.055450 660.687927
259 0 1 4.857390 4.530080 661.574829
260 0 1 5.280670 4.788640 662.444702
261 0 1 5.552850 5.029340 663.352722
262 0 1 5.890210 5.352530 664.220703
263 0 1 6.125530 5.648730 665.071106
264 0 1 6.046260 5.813840 666.031799
265 0 1 6.301270 5.866880 666.950195
266 0 1 6.416180 6.018120 667.872925
267 0 1 6.876580 6.317680 668.635193
268 0 1 7.399449 6.764810 669.269287
269 0 1 7.881239 7.102728 670.056580
270 0 1 8.416987 7.541463 670.747803
271 0 1 9.002330 7.880420 671.369080
272 0 1 9.577940 8.139099 672.112488
273 0 1 10.397670 8.458553 672.471619
274 0 1 11.026490 8.850750 673.055298
275 0 1 11.678140 9.248720 673.645996
276 0 1 11.886810 9.733360 674.442688
277 0 1 11.907930 10.283220 675.298218
278 0 1 11.544920 10.626471 676.152588
279 0 1 10.990129 10.790280 676.949707
280 0 1 10.680270 10.800230 677.859497
281 0 1 10.586210 10.767030 678.859192
282 0 1 10.273420 10.875820 679.704224
283 0 1 10.203341 10.909719 680.627808
284 0 1 10.162110 10.515170 681.530273
285 0 1 10.367520 10.060720 682.394226
286 0 1 10.515070 9.743180 683.260498
287 0 1 10.585649 9.655540 684.208984
288 0 1 10.505170 9.757060 685.203186
289 0 1 10.676830 9.868150 686.165710
290 0 1 10.817720 10.071590 687.118103
291 0 1 10.597120 10.231461 688.001526
292 0 1 10.238091 10.464190 688.866821
293 0 1 10.204510 10.879700 689.735596
294 0 1 10.327040 11.395850 690.609375
295 0 1 10.340680 12.093531 691.340027
296 0 1 10.251050 12.420480 692.260803
297 0 1 10.042780 12.613310 693.197021
298 0 1 9.782880 12.436399 694.071411
299 0 1 9.490670 12.547340 695.040710
300 0 1 9.220250 12.513580 696.032410
301 0 1 9.012650 12.401220 696.992615
302 0 1 8.970579 12.401290 697.949219
303 0 1 8.811823 12.351789 698.963806
304 0 1 8.847826 12.646080 699.874695
305 0 1 9.134260 13.138269 700.672729
306 0 1 9.334700 13.650810 701.524902
307 0 1 9.397320 14.082200 702.373413
308 0 1 9.386110 14.217660 703.338318
309 0 1 9.114950 14.259090 704.301086
310 0 1 8.658098 14.066219 705.085815
311 0 1 8.186870 13.886660 705.965332
312 0 1 7.525633 13.842840 706.698608
313 0 1 7.035104 13.786020 707.488708
314 0 1 6.584980 13.633300 708.330200
315 0 1 6.246100 13.536860 709.185486
316 0 1 5.793990 13.230770 710.031311
317 0 1 5.667170 13.111179 710.967590
318 0 1 5.733970 12.821220 711.972107
319 0 1 5.625850 12.454360 712.799194
320 0 1 5.482950 11.912860 713.623169
321 0 1 5.231600 11.329810 714.320618
322 0 1 4.977960 10.658270 714.993225
323 0 1 4.833430 10.031140 715.771179
324 0 1 4.833100 9.348720 716.483398
325 0 1 5.070740 8.831799 717.210693
326 0 1 5.301890 8.440821 718.058105
327 0 1 5.763800 7.874599 718.790100
328 0 1 6.139890 7.436941 719.573608
329 0 1 6.263810 7.008429 720.496826
330 0 1 6.309470 6.681960 721.391174
331 0 1 6.184010 6.624880 722.413391
332 0 1 6.016370 6.799040 723.313782
333 0 1 5.807480 6.882030 724.195496
334 0 1 5.658670 6.761440 725.134033
335 0 1 5.582630 6.515390 726.057312
336 0 1 5.237130 6.733160 726.940979
337 0 1 4.776710 7.030088 727.785034
338 0 1 4.399750 7.307880 728.653015
339 0 1 4.219000 7.462887 729.552002
340 0 1 3.807640 7.677069 730.437012
341 0 1 3.870390 8.053148 731.346985
342 0 1 3.748300 8.398460 732.278015
343 0 1 3.270050 8.589764 733.130981
344 0 1 3.332010 8.735467 734.101990
345 0 1 3.200820 9.010900 735.036987
346 0 1 3.260190 9.251800 735.953003
347 0 1 3.304480 9.500770 736.905029
348 0 1 3.476070 9.732930 737.830017
349 0 1 3.673460 9.797300 738.734009
350 0 1 3.805310 9.762630 739.653015
351 0 1 3.744890 9.623450 740.612000
352 0 1 3.900310 9.615060 741.526001
353 0 1 3.888950 9.414380 742.476990
354 0 1 3.796990 9.152920 743.388000
355 0 1 3.893440 8.845107 744.296021
356 0 1 4.055250 8.690305 745.229980
357 0 1 4.474450 8.518054 746.065979
358 0 1 4.974990 8.551408 746.841980
359 0 1 5.490040 8.315547 747.679016
360 0 1 5.875860 8.091829 748.551025
361 0 1 6.140170 8.133097 749.453979
362 0 1 6.552720 8.246950 750.278992
363 0 1 7.126340 8.566165 750.976990
364 0 1 7.476359 8.822678 751.820984
365 0 1 7.850827 9.059960 752.697021
366 0 1 8.262182 9.210430 753.620972
367 0 1 8.466157 9.385070 754.526001
368 0 1 8.830027 9.379810 755.382996
369 0 1 9.142070 9.539940 756.268982
370 0 1 9.658760 9.598540 757.150024
371 0 1 9.884480 9.353910 758.062988
372 0 1 10.116660 8.970295 758.896973
373 0 1 10.372829 8.502352 759.658997
374 0 1 10.415980 8.023480 760.403015
375 0 1 10.430360 7.434062 761.212036
376 0 1 10.063260 6.945840 761.950989
377 0 1 9.846310 6.451080 762.898987
378 0 1 9.917840 5.758040 763.667969
379 0 1 10.003970 5.578410 764.634033
380 0 1 9.840480 5.408350 765.536011
381 0 1 9.852830 5.200090 766.485962
382 0 1 9.839990 4.940420 767.372009
383 0 1 9.984330 4.575410 768.292969
384 0 1 10.452290 4.347490 769.108032
385 0 1 10.878340 4.073100 769.891968
386 0 1 10.885270 3.828800 770.812012
387 0 1 11.008369 3.672590 771.851013
388 0 1 10.921420 3.575820 772.773987
389 0 1 10.601089 3.406050 773.658997
390 0 1 10.303080 3.581000 774.541992
391 0 1 9.791870 3.832710 775.346008
392 0 1 9.560200 4.152960 776.245972
393 0 1 9.596100 4.687060 777.049988
394 0 1 9.624230 4.945360 777.927002
395 0 1 9.505470 5.225550 778.856018
396 0 1 9.278990 5.853510 779.565002
397 0 1 8.885718 6.559590 780.151001
398 0 1 8.661221 7.212028 780.882996
399 0 1 8.126891 7.831926 781.481995
400 0 1 7.725246 8.623864 781.895020
401 0 1 7.859950 9.314450 782.578003
402 0 1 8.115039 9.846100 783.318970
403 0 1 8.054934 10.412160 784.087036
404 0 1 7.995201 10.744160 785.020020
405 0 1 7.959743 11.022120 785.854980
406 0 1 8.012361 11.255600 786.809998
407 0 1 7.876795 11.702550 787.612000
408 0 1 7.765278 12.256350 788.403992
409 0 1 7.686214 13.048260 788.948975
410 0 1 7.346787 13.650790 789.619995
411 0 1 7.011974 14.033160 790.521973
412 0 1 6.804980 14.074750 791.458008
413 0 1 6.914530 14.121850 792.509033
414 0 1 7.175021 14.366529 793.443970
415 0 1 7.437405 14.335870 794.353027
416 0 1 7.804921 14.042550 795.257996
417 0 1 8.205748 13.496480 795.981018
418 0 1 8.593417 13.067760 796.802002
419 0 1 9.158340 12.672541 797.546021
420 0 1 9.487430 11.907721 798.065002
421 0 1 9.790570 11.143960 798.636963
422 0 1 10.127620 10.740670 799.386963
423 0 1 10.239610 10.394570 800.327026
424 0 1 10.422820 9.837790 801.020020
425 0 1 10.400660 9.291121 801.877991
426 0 1 10.174300 9.297500 802.828003
427 0 1 10.057560 9.534680 803.773987
428 0 1 10.092660 9.740230 804.750000
429 0 1 10.132811 9.778310 805.718994
430 0 1 9.977120 9.854890 806.645020
431 0 1 9.906840 10.025320 807.588989
432 0 1 9.607370 10.188030 808.504028
433 0 1 9.542440 10.245300 809.452026
434 0 1 9.779119 10.369190 810.468994
435 0 1 10.111219 10.262810 811.364990
436 0 1 10.572090 10.287470 812.192017
437 0 1 11.081530 9.884510 812.901001
438 0 1 11.688150 9.568300 813.570984
439 0 1 12.367849 9.449580 814.218018
440 0 1 12.646009 9.119761 815.036011
441 0 1 12.793980 8.862999 815.964966
442 0 1 12.873870 8.740205 816.863037
443 0 1 12.916201 8.479569 817.804993
444 0 1 13.166059 8.445936 818.695007
445 0 1 13.413589 8.433876 819.674011
446 0 1 13.657640 8.605763 820.578979
447 0 1 13.840270 9.005280 821.406982
448 0 1 13.962210 9.560220 822.221008
449 0 1 14.269450 10.032600 823.155029
450 0 1 14.432940 10.270830 824.117981
451 0 1 14.175360 10.496090 825.030029
452 0 1 14.102160 10.680450 825.942993
453 0 1 14.124030 10.788570 826.919983
454 0 1 14.000200 10.808229 827.869019
455 0 1 13.704720 10.639220 828.867981
456 0 1 13.423630 10.585930 829.745972
457 0 1 13.120630 10.567890 830.726990
458 0 1 12.689100 10.809040 831.516968
459 0 1 12.386230 11.181610 832.393982
460 0 1 11.906700 11.480070 833.115967
461 0 1 11.180059 11.710150 833.754028
462 0 1 10.405430 11.936230 834.244995
463 0 1 9.589911 11.812490 834.744019
464 0 1 8.827275 11.447630 835.117981
465 0 1 8.162466 11.085730 835.648010
466 0 1 7.457640 10.540440 835.989014
467 0 1 6.823210 9.908260 836.242004
468 0 1 6.097120 9.282600 836.263000
469 0 1 5.468790 8.603030 835.966980
470 0 1 4.750000 8.042176 835.640015
471 0 1 4.159220 7.515000 835.140015
472 0 1 3.429350 7.148948 834.610962
473 0 1 2.701230 6.985990 833.978027
474 0 1 2.158170 6.795200 833.266968
475 0 1 1.743510 6.392640 832.453979
476 0 1 1.646390 6.151900 831.593018
477 0 1 1.916090 6.097720 830.687012
478 0 1 2.400720 6.182210 829.898987
479 0 1 2.965660 6.212750 829.101990
480 0 1 3.419080 6.063340 828.294983
481 0 1 3.698370 5.930720 827.419006
482 0 1 4.246380 5.915070 826.562012
483 0 1 4.826490 5.838110 825.785034
484 0 1 5.367470 5.982660 825.035034
485 0 1 5.668120 6.272980 824.125000
486 0 1 6.038510 6.351420 823.244995
487 0 1 6.069810 6.297020 822.257019
488 0 1 5.633980 6.277500 821.304016
489 0 1 5.107190 6.125020 820.523987
490 0 1 4.815130 6.154910 819.591980
491 0 1 4.780700 6.112630 818.672974
492 0 1 4.295630 5.986120 817.801025
493 0 1 3.870270 5.890960 816.985962
494 0 1 3.424200 5.686150 816.087036
495 0 1 3.216940 5.379400 815.172974
496 0 1 3.070300 4.982010 814.278015
497 0 1 3.410700 4.806880 813.369019
498 0 1 3.891900 4.843320 812.587036
499 0 1 4.376070 4.724520 811.744995
500 0 1 4.943710 4.452700 811.070984
501 0 1 5.360900 4.239050 810.202026
502 0 1 5.859470 4.229280 809.273987
503 0 1 6.491720 4.022230 808.533997
504 0 1 7.088540 4.123520 807.757019
505 0 1 7.582786 4.349690 806.937988
506 0 1 7.850219 4.753830 806.049011
507 0 1 7.838697 5.189580 805.203979
508 0 1 8.076338 5.647220 804.367004
509 0 1 7.943901 6.158860 803.554016
510 0 1 7.631937 6.756710 802.820984
511 0 1 7.358693 7.324435 802.046021
512 0 1 6.979690 7.835608 801.304016
513 0 1 6.853440 8.338780 800.453003
514 0 1 6.397880 8.977509 799.874023
515 0 1 6.271360 9.562490 799.119995
516 0 1 6.022330 10.079520 798.289978
517 0 1 5.677730 10.462720 797.509033
518 0 1 5.533860 10.545350 796.591003
519 0 1 5.512450 10.813390 795.651001
520 0 1 5.389220 11.202650 794.794983
521 0 1 5.527470 11.315440 793.759033
522 0 1 5.648720 11.286750 792.755005
523 0 1 5.871920 11.407030 791.759033
524 0 1 6.206960 11.642550 790.875977
525 0 1 6.265730 11.961190 789.914001
526 0 1 6.266510 12.201560 788.885986
527 0 1 6.058280 12.225161 787.962036
528 0 1 5.624720 12.434010 787.110962
529 0 1 5.138350 12.126710 786.280029
530 0 1 4.646120 12.037149 785.458008
531 0 1 4.006590 11.887850 784.739014
532 0 1 3.335090 11.714260 784.098022
533 0 1 3.105120 11.928240 783.161011
534 0 1 2.758840 12.113080 782.260986
535 0 1 2.780890 12.161720 781.278015
536 0 1 2.797160 12.242420 780.322998
537 0 1 2.869640 12.000219 779.403015
538 0 1 2.761930 11.676490 778.445984
539 0 1 2.775160 11.564500 777.505981
540 0 1 2.801800 11.215840 776.648987
541 0 1 2.852420 10.819910 775.833008
542 0 1 2.835780 10.408880 774.973022
543 0 1 2.966530 9.926320 774.130981
544 0 1 3.107230 9.559260 773.158020
545 0 1 3.537100 9.217620 772.302979
546 0 1 4.039860 8.738781 771.589966
547 0 1 4.485120 8.434649 770.766968
548 0 1 4.802530 8.008860 769.953979
549 0 1 5.084760 7.764749 769.070984
550 0 1 5.248780 7.271988 768.240967
551 0 1 5.432790 6.965230 767.393982
552 0 1 5.659920 6.862950 766.460022
553 0 1 5.579960 6.970900 765.438965
554 0 1 5.221020 7.282180 764.559998
555 0 1 5.032070 7.490253 763.619995
556 0 1 4.979040 7.393186 762.601013
557 0 1 5.190900 7.376337 761.674011
558 0 1 5.694100 7.210104 760.906006
559 0 1 6.241240 7.333647 760.093994
560 0 1 6.857700 7.400646 759.304993
561 0 1 7.472698 7.244444 758.559021
562 0 1 8.330786 7.168597 758.031006
563 0 1 9.068820 6.848400 757.526978
564 0 1 9.930900 6.449450 757.057007
565 0 1 10.799080 6.575550 756.563965
566 0 1 11.603240 6.717630 756.035034
567 0 1 12.047080 7.111757 755.297974
568 0 1 12.686380 7.656041 754.716003
569 0 1 13.117770 8.217164 754.018982
570 0 1 13.454679 8.757320 753.226990
571 0 1 13.706079 9.130590 752.426025
572 0 1 13.895229 9.735450 751.606018
573 0 1 13.707769 10.218790 750.825012
574 0 1 13.424220 11.020710 750.145996
575 0 1 13.212851 11.743750 749.512024
576 0 1 12.785610 11.930980 748.690002
577 0 1 12.368179 11.889970 747.910034
578 0 1 11.906420 11.664130 747.132996
579 0 1 11.452630 11.601290 746.181030
580 0 1 11.009630 11.818850 745.330017
581 0 1 10.540150 11.752750 744.481018
582 0 1 9.917720 11.656260 743.708008
583 0 1 9.273170 11.356540 743.054016
584 0 1 8.554587 11.231461 742.466980
585 0 1 7.731517 11.151620 741.958984
586 0 1 7.059603 11.153500 741.299988
587 0 1 6.505370 10.869940 740.547974
588 0 1 6.020460 10.637310 739.771973
589 0 1 5.716650 10.559071 738.835999
590 0 1 5.529920 10.630770 737.877014
591 0 1 5.262380 10.609921 736.978027
592 0 1 5.062330 10.632020 735.901001
593 0 1 4.891860 10.611390 734.987976
594 0 1 4.905550 10.657949 734.000977
595 0 1 5.338900 10.691950 733.070984
596 0 1 5.810630 10.626580 732.239014
597 0 1 6.031470 10.771780 731.353027
598 0 1 6.184410 10.789021 730.364990
599 0 1 6.290240 11.038900 729.424011
600 0 1 6.454230 10.864610 728.468811
601 0 1 6.292720 10.772739 727.531982
602 0 1 6.616780 10.383250 726.713623
603 0 1 6.805670 10.037260 725.845276
604 0 1 7.042538 9.978720 724.892700
605 0 1 7.292104 10.012880 723.979675
606 0 1 7.641195 9.913670 723.068481
607 0 1 7.769604 9.655810 722.161499
608 0 1 7.530304 9.182610 721.382202
609 0 1 7.370552 8.770534 720.568481
610 0 1 7.173927 8.367657 719.756287
611 0 1 7.216465 7.983562 718.855591
612 0 1 7.584300 7.583800 718.051575
613 0 1 7.672024 7.642442 717.144409
614 0 1 7.847305 7.470402 716.208923
615 0 1 8.220066 7.037745 715.414978
616 0 1 8.273375 6.430740 714.690308
617 0 1 8.284106 5.821720 713.948792
618 0 1 7.977850 5.417700 713.082886
619 0 1 7.569384 5.236980 712.221802
620 0 1 7.557358 5.337220 711.298828
621 0 1 7.445815 5.307220 710.362671
622 0 1 7.192424 5.492860 709.402832
623 0 1 6.926630 5.941160 708.558777
624 0 1 6.562440 6.381750 707.690613
625 0 1 6.477930 6.758810 706.817993
626 0 1 6.260110 7.379318 706.139282
627 0 1 5.700450 7.600214 705.339905
628 0 1 5.304200 7.860669 704.530090
629 0 1 5.213740 8.325504 703.718079
630 0 1 4.979190 8.450488 702.724182
631 0 1 4.906800 8.666028 701.823120
632 0 1 5.371120 8.654339 700.858521
633 0 1 5.800370 8.105120 700.159668
634 0 1 6.370330 7.607968 699.512207
635 0 1 6.514920 7.267150 698.625793
636 0 1 6.724310 7.085204 697.699829
637 0 1 7.097592 7.039328 696.819702
638 0 1 7.156144 6.804810 695.921326
639 0 1 7.006940 6.603640 694.991394
640 0 1 6.576320 6.527680 694.114502
641 0 1 6.198930 6.551440 693.126831
642 0 1 5.889660 6.966080 692.305298
643 0 1 5.343240 7.314297 691.567383
644 0 1 5.184090 7.542540 690.625916
645 0 1 4.962780 8.090467 689.880188
646 0 1 4.576650 8.427244 689.083984
647 0 1 4.343710 8.919361 688.292419
648 0 1 4.352540 9.358980 687.322021
649 0 1 4.501270 10.032120 686.585815
650 0 1 4.614920 10.525311 685.789917
651 0 1 4.533230 11.074940 685.007874
652 0 1 4.531400 11.474910 684.139099
653 0 1 4.579760 11.877310 683.267395
654 0 1 4.689060 12.110130 682.334290
655 0 1 4.833660 11.944010 681.395874
656 0 1 4.917530 11.907870 680.385315
657 0 1 5.193080 11.788040 679.400269
658 0 1 5.126730 11.790430 678.504578
659 0 1 5.337660 11.927510 677.589111
660 0 1 5.201840 12.005030 676.671387
661 0 1 5.574350 12.120050 675.689209
662 0 1 6.077750 12.255720 674.855103
663 0 1 6.525330 12.504780 673.988525
664 0 1 6.980000 12.729050 673.210022
665 0 1 7.122940 12.958110 672.312805
666 0 1 7.522298 13.226630 671.460083
667 0 1 7.964194 13.364420 670.626709
668 0 1 8.030005 13.140989 669.677795
669 0 1 8.224874 12.897800 668.788208
670 0 1 7.917106 12.622300 667.864624
671 0 1 7.599095 12.038910 667.075989
672 0 1 7.303813 11.632710 666.206787
673 0 1 6.933580 11.155849 665.466980
674 0 1 6.819080 10.927390 664.504028
675 0 1 6.922350 10.478910 663.612427
676 0 1 7.039235 10.142740 662.647095
677 0 1 7.265908 9.878990 661.706421
678 0 1 7.703048 9.453600 660.938599
679 0 1 8.031245 8.880928 660.225891
680 0 1 8.432716 8.347707 659.618408
681 0 1 8.927894 7.947018 658.908508
682 0 1 9.397120 7.451900 658.258118
683 0 1 9.638830 6.979140 657.421326
684 0 1 9.961660 6.611930 656.478882
685 0 1 10.371980 6.323250 655.666809
686 0 1 10.510560 5.994640 654.727722
687 0 1 10.708120 5.614240 653.841919
688 0 1 10.726040 5.605360 652.866516
689 0 1 10.828950 5.321690 651.985229
690 0 1 10.769711 5.125650 651.072327
691 0 1 10.761710 5.224940 650.077026
692 0 1 10.801740 4.997810 649.156006
693 0 1 11.009340 4.940340 648.234619
694 0 1 11.090200 4.788610 647.261597
695 0 1 10.939440 4.933490 646.222412
696 0 1 10.611300 5.238210 645.354614
697 0 1 10.236710 5.665170 644.520386
698 0 1 10.271040 6.202570 643.710510
699 0 1 10.265570 6.740220 642.891724
700 0 1 10.216410 7.340304 642.100525
701 0 1 10.242360 7.912610 641.266113
702 0 1 10.378370 8.064944 640.337097
703 0 1 10.170410 7.951520 639.438599
704 0 1 10.252180 8.040952 638.508728
705 0 1 10.032260 7.912027 637.604492
706 0 1 9.796860 7.440489 636.813904
707 0 1 9.383860 7.319803 635.985229
708 0 1 8.955627 7.117497 635.191101
709 0 1 8.574584 7.179504 634.348145
710 0 1 8.105256 7.203786 633.449951
711 0 1 7.626186 7.270185 632.680298
712 0 1 7.062047 7.197793 631.882324
713 0 1 6.699170 6.830020 631.091492
714 0 1 6.202170 6.335410 630.321533
715 0 1 5.590350 5.982020 629.630676
716 0 1 5.078500 5.586410 628.867798
717 0 1 4.737210 4.933680 628.157776
718 0 1 4.524880 4.699360 627.238953
719 0 1 4.306670 4.572870 626.319946
720 0 1 3.796490 4.610060 625.434875
721 0 1 3.144570 4.460490 624.820862
722 0 1 2.860910 4.298080 623.937500
723 0 1 2.888900 4.360460 623.037048
724 0 1 2.918100 4.371860 622.110901
725 0 1 2.715780 4.476940 621.214966
726 0 1 2.633520 4.870150 620.306152
727 0 1 2.484530 5.089440 619.357422
728 0 1 2.426650 5.247240 618.383606
729 0 1 2.492840 5.576730 617.450073
730 0 1 2.550100 5.723070 616.531128
731 0 1 2.604620 5.917630 615.598816
732 0 1 2.748610 5.931970 614.616516
733 0 1 2.810550 6.342990 613.705383
734 0 1 2.736840 6.532430 612.793396
735 0 1 2.793330 6.925690 611.915405
736 0 1 3.165480 7.341097 611.111877
737 0 1 3.696460 7.753562 610.380310
738 0 1 4.122310 7.849305 609.513428
739 0 1 4.596920 7.966164 608.606201
740 0 1 5.407880 7.968377 608.146606
741 0 1 6.331370 8.026207 608.034180
742 0 1 7.236132 8.084079 607.892090
743 0 1 8.162657 8.318339 607.825989
744 0 1 9.024710 8.682312 607.644287
745 0 1 9.856310 8.928634 607.294128
746 0 1 10.456260 9.467470 606.783813
747 0 1 11.180660 9.735730 606.168213
748 0 1 11.881260 9.979570 605.587708
749 0 1 12.275721 10.225220 604.777771
750 0 1 12.696950 10.600970 603.964294
751 0 1 13.096490 10.781981 603.132996
752 0 1 13.419390 10.810540 602.266785
753 0 1 13.698570 10.730700 601.335999
754 0 1 13.507880 10.564280 600.410278
755 0 1 13.316940 10.266920 599.503601
756 0 1 12.773920 10.315340 598.757629
757 0 1 12.264730 10.116680 597.937622
758 0 1 11.704020 10.095210 597.080200
759 0 1 11.137030 10.241500 596.361816
760 0 1 10.642410 10.311010 595.518677
761 0 1 10.310471 10.008230 594.660278
762 0 1 10.026880 9.771379 593.777283
763 0 1 9.529090 9.274970 593.005005
764 0 1 8.949600 8.806277 592.273499
765 0 1 8.504617 8.165062 591.659912
766 0 1 8.090614 7.571145 591.003296
767 0 1 7.784986 6.811990 590.532471
768 0 1 7.604493 5.961920 590.004700
769 0 1 7.730525 5.301560 589.300781
770 0 1 8.255811 5.042080 588.484314
771 0 1 8.511706 4.916720 587.577026
772 0 1 8.858931 4.913980 586.620483
773 0 1 9.226840 5.096020 585.710388
774 0 1 9.284560 5.209620 584.746399
775 0 1 9.221251 5.867020 584.040710
776 0 1 8.873789 6.635980 583.566406
777 0 1 8.312355 7.296333 583.069580
778 0 1 7.908215 8.080584 582.587280
779 0 1 7.362342 8.644777 582.090027
780 0 1 6.804320 8.850722 581.305908
781 0 1 6.293690 8.916880 580.536377
782 0 1 5.960420 9.404790 579.866028
783 0 1 5.321790 9.762850 579.278503
784 0 1 4.806120 9.841080 578.453003
785 0 1 4.476110 9.879200 577.582825
786 0 1 4.226470 10.258300 576.728699
787 0 1 4.332410 10.669140 575.870972
788 0 1 4.578890 10.796740 574.965515
789 0 1 4.753570 10.745420 573.989990
790 0 1 5.401820 10.594360 573.251099