LAMMPS data file via MDAnalysis

        1000  atoms
        1000  bonds
        1000  angles
           0  dihedrals
           0  impropers

           1  atom types
           1  bond types
           1  angle types
           0  dihedral types
           0  improper types

0.000000 16.000000 xlo xhi
0.000000 16.000000 ylo yhi
0.000000 1257.000000 zlo zhi


Masses

1 1.000000

Atoms

1 0 1 12.655050 9.545850 448.862000
2 0 1 12.779140 10.390120 449.317993
3 0 1 13.055651 11.166660 449.864990
4 0 1 13.349180 11.600690 450.661987
5 0 1 13.518789 11.818810 451.664978
6 0 1 13.198930 11.821840 452.585022
7 0 1 13.151110 11.782070 453.561005
8 0 1 13.359000 11.541850 454.464996
9 0 1 13.478270 11.156160 455.309021
10 0 1 13.188049 11.034560 456.205017
11 0 1 12.792100 10.986790 457.156006
12 0 1 11.995359 11.040230 457.781982
13 0 1 11.229170 11.177731 458.369019
14 0 1 10.350861 11.428930 458.768005
15 0 1 9.423530 11.400600 459.039001
16 0 1 8.674993 11.405760 459.774994
17 0 1 8.014160 11.226851 460.476013
18 0 1 7.292925 11.097960 461.171021
19 0 1 6.780790 10.749800 461.973999
20 0 1 6.507620 10.402320 462.846008
21 0 1 6.421900 9.793720 463.661011
22 0 1 6.424860 9.076870 464.264008
23 0 1 6.568870 8.332154 464.859009
24 0 1 6.493620 7.779329 465.692993
25 0 1 6.162240 7.280585 466.434021
26 0 1 5.870190 7.021062 467.286011
27 0 1 5.453150 6.853370 468.125000
28 0 1 4.967690 6.418800 468.820007
29 0 1 4.755230 6.315980 469.726990
30 0 1 4.733880 5.839290 470.627014
31 0 1 5.095580 5.331230 471.359985
32 0 1 5.502170 4.878430 472.194000
33 0 1 5.844240 4.359590 472.908997
34 0 1 6.263400 4.337370 473.804016
35 0 1 6.726220 4.296330 474.674988
36 0 1 7.237938 4.510140 475.498993
37 0 1 7.784043 4.810230 476.164978
38 0 1 8.526648 5.257660 476.601013
39 0 1 9.018380 5.721620 477.330017
40 0 1 9.430500 5.933590 478.216003
41 0 1 9.517460 5.849870 479.156982
42 0 1 9.645150 5.537790 480.022003
43 0 1 9.741560 5.341610 480.981995
44 0 1 10.211510 5.161610 481.729004
45 0 1 10.393390 5.165590 482.710999
46 0 1 10.562910 5.285060 483.687012
47 0 1 10.780660 5.024940 484.632996
48 0 1 10.810010 5.016120 485.580017
49 0 1 10.594450 4.658380 486.437012
50 0 1 10.383970 4.632940 487.414978
51 0 1 10.500830 4.633510 488.372009
52 0 1 10.573550 4.592560 489.320984
53 0 1 10.846970 4.518550 490.289001
54 0 1 11.143820 4.442740 491.218018
55 0 1 11.339211 4.345400 492.110992
56 0 1 11.536790 4.327910 493.018982
57 0 1 11.955610 4.279600 493.851990
58 0 1 12.269770 4.070830 494.789001
59 0 1 12.600850 3.943140 495.701996
60 0 1 12.692300 3.768640 496.690002
61 0 1 12.533840 3.766710 497.661987
62 0 1 12.693900 3.701050 498.666016
63 0 1 12.458920 3.857750 499.549988
64 0 1 11.896481 4.039940 500.311005
65 0 1 11.563220 4.270220 501.158997
66 0 1 11.469270 4.070870 502.065002
67 0 1 11.146811 4.016320 502.970001
68 0 1 11.000020 4.199370 503.891998
69 0 1 10.700820 4.488880 504.713989
70 0 1 10.584500 5.065610 505.498993
71 0 1 10.456530 5.504880 506.335999
72 0 1 10.636240 5.958020 507.138000
73 0 1 10.891420 6.350500 507.966003
74 0 1 11.130500 6.600560 508.898010
75 0 1 11.513860 6.749250 509.778015
76 0 1 11.875700 6.992910 510.598999
77 0 1 12.158910 7.066225 511.507996
78 0 1 12.490191 7.461553 512.367004
79 0 1 12.782040 8.059735 513.052979
80 0 1 13.017820 8.565988 513.755005
81 0 1 13.157920 9.238610 514.476013
82 0 1 13.341539 9.656090 515.281006
83 0 1 13.424829 9.835480 516.216980
84 0 1 13.480900 9.961610 517.111023
85 0 1 13.488300 9.714040 518.035034
86 0 1 13.451680 9.336400 518.914978
87 0 1 13.627410 8.974042 519.815002
88 0 1 13.800510 8.242129 520.450989
89 0 1 13.719009 7.763973 521.302979
90 0 1 13.370800 7.224789 522.057007
91 0 1 13.044710 6.627080 522.752014
92 0 1 12.789270 6.484560 523.640015
93 0 1 12.461020 6.839960 524.479980
94 0 1 12.122670 7.530247 525.078003
95 0 1 11.682380 7.982063 525.806030
96 0 1 11.636499 8.178807 526.728027
97 0 1 11.414930 8.356800 527.707031
98 0 1 11.208281 8.539120 528.621521
99 0 1 10.869280 8.583162 529.522217
100 0 1 10.646210 8.769646 530.434570
101 0 1 10.457310 8.762847 531.354309
102 0 1 10.298590 8.714689 532.351929
103 0 1 10.022050 8.632411 533.285034
104 0 1 10.030500 8.742902 534.300110
105 0 1 10.057800 8.906166 535.300781
106 0 1 10.269230 8.897414 536.223083
107 0 1 10.320590 8.673749 537.134216
108 0 1 10.063680 8.649946 538.038025
109 0 1 10.003400 8.974584 538.956787
110 0 1 9.739890 9.261870 539.838318
111 0 1 9.592530 9.732190 540.598389
112 0 1 9.255930 10.240940 541.335510
113 0 1 8.827464 10.816140 541.953369
114 0 1 8.397058 11.231540 542.701477
115 0 1 7.933900 11.804470 543.440796
116 0 1 7.462583 12.233550 544.092773
117 0 1 7.011714 12.804230 544.763184
118 0 1 6.900990 13.522400 545.387695
119 0 1 6.960080 13.966050 546.279724
120 0 1 6.942230 14.146980 547.175293
121 0 1 6.965540 14.021330 548.109680
122 0 1 6.897840 13.889060 549.031189
123 0 1 6.643790 13.709290 549.975220
124 0 1 6.596580 13.682440 550.958374
125 0 1 6.410870 13.709539 551.895996
126 0 1 6.078010 13.750441 552.779419
127 0 1 5.862730 13.696620 553.728027
128 0 1 5.357600 13.563010 554.522827
129 0 1 5.351720 13.548010 555.474121
130 0 1 5.408700 13.348520 556.425293
131 0 1 5.498080 13.139570 557.373108
132 0 1 5.852340 12.796350 558.137390
133 0 1 6.219590 12.309490 558.909668
134 0 1 6.709460 12.044320 559.691406
135 0 1 7.327483 11.927410 560.440002
136 0 1 7.911215 11.826160 561.176819
137 0 1 8.498843 11.868780 561.958008
138 0 1 8.903752 11.731410 562.786682
139 0 1 9.345740 11.607380 563.633301
140 0 1 9.753139 11.325240 564.452209
141 0 1 9.948350 11.004610 565.370117
142 0 1 10.094770 10.389111 566.073303
143 0 1 10.064550 9.893250 566.860779
144 0 1 9.710720 9.380180 567.624695
145 0 1 9.347620 8.897247 568.463074
146 0 1 9.034030 8.434281 569.229187
147 0 1 8.811571 8.040155 570.079224
148 0 1 8.957374 7.597575 570.943298
149 0 1 9.092990 7.367027 571.849304
150 0 1 9.253580 7.017881 572.733887
151 0 1 9.663320 6.833700 573.568604
152 0 1 10.059580 6.660300 574.472412
153 0 1 10.633570 6.343850 575.231079
154 0 1 11.278970 6.210440 575.896301
155 0 1 11.773520 5.967850 576.708008
156 0 1 11.884270 5.829760 577.689331
157 0 1 12.010509 5.778810 578.671204
158 0 1 11.941970 5.611470 579.615601
159 0 1 12.063040 5.539290 580.570496
160 0 1 12.423950 5.754820 581.405396
161 0 1 12.894899 5.813720 582.286499
162 0 1 13.050280 5.815640 583.284973
163 0 1 12.989740 5.927790 584.279297
164 0 1 12.839240 6.055270 585.258972
165 0 1 12.439800 6.186930 586.144592
166 0 1 12.165030 6.504220 587.029907
167 0 1 12.039970 6.683160 587.973816
168 0 1 11.562950 6.952410 588.760498
169 0 1 11.256820 7.291998 589.605896
170 0 1 10.969151 7.746723 590.403503
171 0 1 10.522370 8.027879 591.250000
172 0 1 9.927400 8.178960 591.999512
173 0 1 9.328290 8.310570 592.740601
174 0 1 8.750794 8.410786 593.583923
175 0 1 8.346285 8.445560 594.428284
176 0 1 8.041934 8.536986 595.347473
177 0 1 7.988218 8.275523 596.308472
178 0 1 8.093972 7.646794 597.031189
179 0 1 8.120208 7.166458 597.880615
180 0 1 8.015466 6.598350 598.639404
181 0 1 8.206661 6.328850 599.579773
182 0 1 8.415479 6.030860 600.464905
183 0 1 8.306335 5.708370 601.337891
184 0 1 8.483529 5.547450 602.278381
185 0 1 8.748811 5.304920 603.162476
186 0 1 9.184350 4.988320 604.019775
187 0 1 9.532140 5.049920 604.916870
188 0 1 9.855070 4.876950 605.847595
189 0 1 10.153790 4.816430 606.753601
190 0 1 10.297131 4.850320 607.789001
191 0 1 10.291980 4.593380 608.747070
192 0 1 10.281870 4.294920 609.632812
193 0 1 9.987440 3.827210 610.431824
194 0 1 9.854330 3.281360 611.259277
195 0 1 9.692890 2.954540 612.203979
196 0 1 9.360190 2.976070 613.168518
197 0 1 9.085730 3.135450 614.087830
198 0 1 8.782739 3.693540 614.765686
199 0 1 8.670258 4.518140 615.249390
200 0 1 8.675062 5.212460 615.884705
201 0 1 8.563487 5.951640 616.509583
202 0 1 8.598333 6.264970 617.383606
203 0 1 8.590197 6.400180 618.388794
204 0 1 8.725306 6.807330 619.258179
205 0 1 8.640542 7.269204 620.099609
206 0 1 8.516779 7.543813 621.036926
207 0 1 8.253903 7.638863 621.971130
208 0 1 8.177916 7.867837 622.969116
209 0 1 8.124947 8.352860 623.821594
210 0 1 8.503061 8.930824 624.525146
211 0 1 9.110900 9.464700 625.146484
212 0 1 9.717850 9.573110 625.828430
213 0 1 10.342290 9.957150 626.535278
214 0 1 10.975400 10.399370 627.062317
215 0 1 11.544500 10.908920 627.570129
216 0 1 12.080220 11.486210 628.165710
217 0 1 12.328529 12.062040 628.902466
218 0 1 12.572420 12.515770 629.673096
219 0 1 12.603180 12.790400 630.614014
220 0 1 12.528790 12.806810 631.606995
221 0 1 12.338890 12.878700 632.522278
222 0 1 12.261600 12.977779 633.496216
223 0 1 12.174089 12.647020 634.384155
224 0 1 11.860980 11.970580 635.013062
225 0 1 11.671280 11.180340 635.509644
226 0 1 11.367680 10.414670 635.998474
227 0 1 11.113630 9.807000 636.695862
228 0 1 10.900720 9.220110 637.402954
229 0 1 10.498310 8.851101 638.245605
230 0 1 10.130630 8.260967 639.046021
231 0 1 9.980960 7.654578 639.852905
232 0 1 9.844150 6.863630 640.434387
233 0 1 9.559720 6.179180 641.056213
234 0 1 9.452890 5.345090 641.503784
235 0 1 9.407450 4.643440 642.153015
236 0 1 9.677280 3.899910 642.732300
237 0 1 9.757770 3.285810 643.535095
238 0 1 9.761930 2.804770 644.406494
239 0 1 9.676220 2.306550 645.254395
240 0 1 9.545259 1.730990 645.960388
241 0 1 9.674640 1.549180 646.906982
242 0 1 9.815050 1.724460 647.880676
243 0 1 10.062140 1.943390 648.720886
244 0 1 10.449360 2.305310 649.538025
245 0 1 10.902040 2.729400 650.244385
246 0 1 11.093121 3.272380 650.994507
247 0 1 11.278630 3.815970 651.728821
248 0 1 11.356950 4.103820 652.672607
249 0 1 11.213190 4.412530 653.534180
250 0 1 10.778790 4.509050 654.407715
251 0 1 10.034870 4.563680 655.064209
252 0 1 9.278450 4.556080 655.733093
253 0 1 8.517164 4.551580 656.316223
254 0 1 7.957649 4.577470 657.164612
255 0 1 7.394647 4.796980 657.934021
256 0 1 6.905680 4.922350 658.786499
257 0 1 6.723510 5.103960 659.673096
258 0 1 6.474180 4.903530 660.594971
259 0 1 6.381470 4.655710 661.531982
260 0 1 6.315660 4.541630 662.440186
261 0 1 6.024520 4.727440 663.372070
262 0 1 5.778870 5.091140 664.302673
263 0 1 5.294210 5.396810 665.082397
264 0 1 4.989960 5.723070 665.965820
265 0 1 4.841460 6.260440 666.759888
266 0 1 4.406270 6.584010 667.575806
267 0 1 3.924560 6.943830 668.426270
268 0 1 3.740930 7.431650 669.249817
269 0 1 3.849690 7.636599 670.181519
270 0 1 3.925240 8.070296 671.130188
271 0 1 3.862270 8.548500 671.924194
272 0 1 3.698910 9.011130 672.725281
273 0 1 3.320050 9.453080 673.500916
274 0 1 3.055890 9.760120 674.393921
275 0 1 3.099610 9.951030 675.344910
276 0 1 3.112050 10.235300 676.306396
277 0 1 3.339930 10.404340 677.228027
278 0 1 3.782340 10.530800 678.093689
279 0 1 4.118470 10.444080 678.977722
280 0 1 4.523400 10.536350 679.825073
281 0 1 5.145680 10.756620 680.615784
282 0 1 5.693840 10.728830 681.359985
283 0 1 6.050710 10.616920 682.257019
284 0 1 6.442050 10.208780 683.102173
285 0 1 6.377440 9.613660 683.860413
286 0 1 6.537510 9.043950 684.690491
287 0 1 6.352030 8.531331 685.419495
288 0 1 6.190610 8.205835 686.279602
289 0 1 5.870020 7.631189 687.114319
290 0 1 5.590790 7.008242 687.749023
291 0 1 5.189870 6.691940 688.545898
292 0 1 4.851700 6.380060 689.431519
293 0 1 4.798380 6.284450 690.428406
294 0 1 4.842240 6.367250 691.427673
295 0 1 4.657690 6.590320 692.357178
296 0 1 4.360100 6.884950 693.257385
297 0 1 4.223750 6.929350 694.217712
298 0 1 4.154410 6.756080 695.153015
299 0 1 4.256270 6.581590 696.049377
300 0 1 4.288820 6.619630 697.048584
301 0 1 4.188450 6.615830 697.982178
302 0 1 4.109020 6.839210 698.933594
303 0 1 4.057010 6.852420 699.935486
304 0 1 3.932090 6.838510 700.922913
305 0 1 3.853350 6.635460 701.997070
306 0 1 3.911000 6.441330 702.933411
307 0 1 3.821950 5.981580 703.842102
308 0 1 4.053020 5.479440 704.695312
309 0 1 4.454310 4.916510 705.330505
310 0 1 4.769780 4.206140 705.893188
311 0 1 5.320610 3.624200 706.411621
312 0 1 5.909400 3.472160 707.153625
313 0 1 6.467780 3.444850 707.867981
314 0 1 6.884720 3.755100 708.608704
315 0 1 7.326614 4.311330 709.289795
316 0 1 7.613319 4.905740 710.092896
317 0 1 7.961637 5.401840 710.830811
318 0 1 8.353054 5.862170 711.621216
319 0 1 8.619386 6.339500 712.429077
320 0 1 8.945283 6.706840 713.270996
321 0 1 9.070710 7.012145 714.148193
322 0 1 9.171470 6.929800 715.039490
323 0 1 9.024350 7.112169 715.994324
324 0 1 8.748276 7.117227 716.876709
325 0 1 8.329475 7.133495 717.801575
326 0 1 8.242174 7.164176 718.810608
327 0 1 8.191387 7.140693 719.817505
328 0 1 8.423566 7.196888 720.724731
329 0 1 8.473589 7.356156 721.682190
330 0 1 8.612724 7.337210 722.718811
331 0 1 8.639692 7.632530 723.610901
332 0 1 8.449490 7.659413 724.580994
333 0 1 8.238638 7.616810 725.523193
334 0 1 8.016521 7.425208 726.469177
335 0 1 8.093428 7.204614 727.401611
336 0 1 8.333851 7.198535 728.383484
337 0 1 8.554875 7.186824 729.341003
338 0 1 8.954047 7.182445 730.187988
339 0 1 9.266330 6.956070 731.049988
340 0 1 9.448170 6.934730 732.002991
341 0 1 9.239100 6.961300 732.927979
342 0 1 8.834961 7.089380 733.827026
343 0 1 8.495457 7.508433 734.643982
344 0 1 8.177040 7.649412 735.565002
345 0 1 7.908906 7.737685 736.523010
346 0 1 7.812803 7.917339 737.469971
347 0 1 7.410640 7.962358 738.325989
348 0 1 7.203163 8.005140 739.262024
349 0 1 6.836360 7.763827 740.098999
350 0 1 6.646380 7.283551 740.957031
351 0 1 6.671580 6.667710 741.645020
352 0 1 6.573180 6.029950 742.426025
353 0 1 6.536350 5.506790 743.255981
354 0 1 6.650020 5.271840 744.213013
355 0 1 6.650150 5.160400 745.166992
356 0 1 6.795780 5.374860 746.068970
357 0 1 7.160519 5.455340 746.940002
358 0 1 7.629076 5.505610 747.885010
359 0 1 7.944027 5.605790 748.836975
360 0 1 8.247893 5.845940 749.744019
361 0 1 8.125675 5.999440 750.702026
362 0 1 7.883197 6.058510 751.641968
363 0 1 7.508015 6.263320 752.492981
364 0 1 7.197937 6.628550 753.346008
365 0 1 6.989120 6.877910 754.242981
366 0 1 6.752980 6.993350 755.252014
367 0 1 6.494150 7.289032 756.078979
368 0 1 6.119660 7.639497 756.856018
369 0 1 5.859380 8.158533 757.627014
370 0 1 5.631880 8.598290 758.468018
371 0 1 5.178250 8.744062 759.338013
372 0 1 4.730640 8.866443 760.156006
373 0 1 4.247570 9.002570 760.971008
374 0 1 3.707380 8.702559 761.703979
375 0 1 3.385300 8.171764 762.455994
376 0 1 3.143720 7.570335 763.138000
377 0 1 2.796220 7.156803 763.922974
378 0 1 2.434020 6.807870 764.747986
379 0 1 2.247580 6.635250 765.650024
380 0 1 2.229980 6.577230 766.598022
381 0 1 2.337760 6.746030 767.526978
382 0 1 2.420880 6.561880 768.552979
383 0 1 2.629510 6.267930 769.447021
384 0 1 3.063730 6.040590 770.276978
385 0 1 3.491210 6.093820 771.205017
386 0 1 3.981020 6.211440 772.083984
387 0 1 4.370040 6.052480 772.989990
388 0 1 4.744160 5.835470 773.885010
389 0 1 5.173260 5.946790 774.721008
390 0 1 5.733450 6.149600 775.500000
391 0 1 6.156890 6.430230 776.411987
392 0 1 6.660600 6.448380 777.212036
393 0 1 6.901950 6.258320 778.082031
394 0 1 7.196550 6.066640 778.971008
395 0 1 7.341942 6.281500 779.917969
396 0 1 7.801640 6.014490 780.705017
397 0 1 8.220734 5.974220 781.549011
398 0 1 8.710825 5.996360 782.436035
399 0 1 9.054480 6.045530 783.333008
400 0 1 9.519470 6.002860 784.166992
401 0 1 9.899190 6.097540 785.046997
402 0 1 10.309680 6.211490 785.924988
403 0 1 10.763680 6.152740 786.776978
404 0 1 11.037940 6.227730 787.716003
405 0 1 11.095881 6.509760 788.645996
406 0 1 11.131730 6.875600 789.606018
407 0 1 11.175610 7.359754 790.452026
408 0 1 11.004271 7.905988 791.197021
409 0 1 10.957660 8.585763 791.846985
410 0 1 10.969880 9.051020 792.615967
411 0 1 10.682350 9.786260 793.192017
412 0 1 10.416059 10.475349 793.924988
413 0 1 10.334090 10.897720 794.713013
414 0 1 10.188120 11.146870 795.744995
415 0 1 10.176430 11.347430 796.648987
416 0 1 10.301490 11.536410 797.587036
417 0 1 10.511030 11.922421 798.457031
418 0 1 10.867490 12.078890 799.408997
419 0 1 11.108050 12.179461 800.382019
420 0 1 11.425961 12.436480 801.261963
421 0 1 11.618210 12.568090 802.177002
422 0 1 11.769880 12.706470 803.146973
423 0 1 12.000549 12.516640 804.171997
424 0 1 12.321690 12.304070 805.094971
425 0 1 12.368151 12.289600 806.091003
426 0 1 12.125830 12.073390 807.026978
427 0 1 11.563980 12.043039 807.837036
428 0 1 10.961060 11.936050 808.515015
429 0 1 10.650170 12.016200 809.437988
430 0 1 10.122670 12.139191 810.216003
431 0 1 9.446020 12.155690 810.860962
432 0 1 9.070310 12.034781 811.744019
433 0 1 8.732914 11.872060 812.674988
434 0 1 8.318466 11.547180 813.476990
435 0 1 7.900693 11.013570 814.231995
436 0 1 7.662718 10.321250 814.849976
437 0 1 7.285630 9.648260 815.541992
438 0 1 7.236153 8.864188 816.088989
439 0 1 7.554700 8.132957 816.645996
440 0 1 8.063334 7.554435 817.240967
441 0 1 8.839142 7.476027 817.804016
442 0 1 9.742770 7.390296 818.261963
443 0 1 10.416250 7.359174 818.968994
444 0 1 10.828210 7.479814 819.830017
445 0 1 11.281520 7.932813 820.622986
446 0 1 11.798120 8.468014 821.380005
447 0 1 12.409410 8.792196 822.077026
448 0 1 13.009100 9.230190 822.697021
449 0 1 13.349100 9.775600 823.500000
450 0 1 13.699630 10.192170 824.370972
451 0 1 13.948900 10.760170 825.166992
452 0 1 13.863560 11.039100 826.015015
453 0 1 13.648470 11.189820 826.969971
454 0 1 13.501921 11.450520 827.858032
455 0 1 13.511169 11.830000 828.848022
456 0 1 13.376740 11.996870 829.721008
457 0 1 13.256229 11.705080 830.708008
458 0 1 13.072010 11.537510 831.612000
459 0 1 12.705550 11.454030 832.521973
460 0 1 12.648769 11.630520 833.497986
461 0 1 12.688510 11.509069 834.440002
462 0 1 12.423170 11.394210 835.390991
463 0 1 12.142220 11.084430 836.244019
464 0 1 11.536960 10.883450 836.906982
465 0 1 10.820280 10.535470 837.476013
466 0 1 10.287630 9.878630 837.969971
467 0 1 9.831079 9.118650 838.250977
468 0 1 9.395530 8.357827 838.682983
469 0 1 8.786751 7.657845 838.896973
470 0 1 8.107776 6.973440 838.802979
471 0 1 7.517401 6.290360 838.468994
472 0 1 6.905290 5.573660 838.421997
473 0 1 6.450410 4.853820 838.067017
474 0 1 5.816990 4.370190 837.580994
475 0 1 5.478980 3.753970 836.917969
476 0 1 5.406450 3.163230 836.193970
477 0 1 5.302050 2.544150 835.356018
478 0 1 5.198300 2.197040 834.458008
479 0 1 5.113190 2.095270 833.466003
480 0 1 5.040290 1.957230 832.495972
481 0 1 5.023350 1.807170 831.523987
482 0 1 4.637580 2.109350 830.648987
483 0 1 4.449010 2.549890 829.781982
484 0 1 4.140420 2.994870 828.929993
485 0 1 4.051940 3.519140 828.129028
486 0 1 3.884980 3.975540 827.228027
487 0 1 3.926220 4.322670 826.257996
488 0 1 3.946200 4.751370 825.422974
489 0 1 3.966060 5.199080 824.567993
490 0 1 3.866690 5.662530 823.702026
491 0 1 3.956160 6.278600 823.033997
492 0 1 4.106750 6.897040 822.306030
493 0 1 4.128830 7.318156 821.447998
494 0 1 4.067010 7.886072 820.679016
495 0 1 3.841710 8.270802 819.844971
496 0 1 3.504980 8.486039 818.924988
497 0 1 3.367820 8.636427 817.955994
498 0 1 3.135830 8.435296 817.039001
499 0 1 2.958350 8.410381 816.104980
500 0 1 2.921100 8.563228 815.093994
501 0 1 2.906280 8.534496 814.151978
502 0 1 3.033740 8.321244 813.177002
503 0 1 3.318840 7.964989 812.367004
504 0 1 3.150500 7.597927 811.509033
505 0 1 2.945380 7.157618 810.619019
506 0 1 2.844690 6.623110 809.729980
507 0 1 3.134250 6.190420 808.981018
508 0 1 3.141440 5.744880 808.139038
509 0 1 3.436810 5.705010 807.192017
510 0 1 3.770500 5.529250 806.332031
511 0 1 4.228940 5.116340 805.533997
512 0 1 4.646420 4.760470 804.776978
513 0 1 4.829210 4.124460 804.103027
514 0 1 5.177810 3.572820 803.266968
515 0 1 5.803590 3.124790 802.677002
516 0 1 6.300780 2.767660 801.924988
517 0 1 6.606680 2.477760 801.104980
518 0 1 6.748760 1.996040 800.254028
519 0 1 6.526970 2.036760 799.273010
520 0 1 6.508350 1.781790 798.375977
521 0 1 6.595570 1.731960 797.335999
522 0 1 6.890220 1.693930 796.440002
523 0 1 6.910920 1.925520 795.468994
524 0 1 7.015394 2.106020 794.572021
525 0 1 7.328531 2.041560 793.620972
526 0 1 7.419367 1.988010 792.651001
527 0 1 7.667526 1.956350 791.726990
528 0 1 8.016212 1.887120 790.864014
529 0 1 8.395843 1.896630 790.007019
530 0 1 8.491690 2.037210 789.052979
531 0 1 8.385348 2.299260 788.161011
532 0 1 8.419461 2.662190 787.257996
533 0 1 8.358910 3.145840 786.367004
534 0 1 8.275088 3.383770 785.429016
535 0 1 8.050482 3.829060 784.572021
536 0 1 8.071796 4.247880 783.750977
537 0 1 8.074831 4.419150 782.787964
538 0 1 8.049640 4.645990 781.833008
539 0 1 7.762041 4.944000 781.007019
540 0 1 7.705727 5.047380 780.072998
541 0 1 7.790430 4.957080 779.099976
542 0 1 7.905423 4.702940 778.156982
543 0 1 7.775751 4.327550 777.192993
544 0 1 7.654065 4.157370 776.221985
545 0 1 7.439733 3.934280 775.311035
546 0 1 7.114387 4.133350 774.351990
547 0 1 6.816420 4.437420 773.511963
548 0 1 6.766200 4.755200 772.624023
549 0 1 6.793060 5.241780 771.778992
550 0 1 6.961760 5.896830 771.077026
551 0 1 7.199458 6.770090 770.677002
552 0 1 7.137756 7.608990 770.296021
553 0 1 6.836160 8.273592 769.723999
554 0 1 6.855620 8.856791 768.960022
555 0 1 6.842180 9.420780 768.252014
556 0 1 6.765040 10.135400 767.684998
557 0 1 6.882380 10.977780 767.063965
558 0 1 7.123138 11.595800 766.343994
559 0 1 7.417526 12.069281 765.471985
560 0 1 7.700687 12.531630 764.632996
561 0 1 7.738003 13.079660 763.825989
562 0 1 7.623282 13.657410 763.119019
563 0 1 7.758281 13.788380 762.198975
564 0 1 7.876558 13.842990 761.270996
565 0 1 7.778157 13.924009 760.273987
566 0 1 7.704089 13.767710 759.335022
567 0 1 7.601781 13.617310 758.438965
568 0 1 7.787414 13.568750 757.505981
569 0 1 8.071449 13.506041 756.593994
570 0 1 8.045929 13.473130 755.606018
571 0 1 8.016451 13.490840 754.658020
572 0 1 7.981691 13.002860 753.833008
573 0 1 7.800026 12.686670 752.952026
574 0 1 7.530250 12.326000 752.091980
575 0 1 7.422916 11.920430 751.229980
576 0 1 7.270898 11.585751 750.309021
577 0 1 7.086602 11.145860 749.434998
578 0 1 6.863070 10.795440 748.568970
579 0 1 6.421660 10.640110 747.695007
580 0 1 5.690760 10.752340 747.075012
581 0 1 5.213220 10.867430 746.280029
582 0 1 4.706760 10.866670 745.483032
583 0 1 3.926240 10.910920 744.859009
584 0 1 3.268980 11.166870 744.150024
585 0 1 2.786910 11.285191 743.336975
586 0 1 2.257250 11.123380 742.528992
587 0 1 2.217050 10.780200 741.585022
588 0 1 2.612330 10.337360 740.828979
589 0 1 2.890290 10.032619 739.957031
590 0 1 3.540510 9.691870 739.276001
591 0 1 3.982050 9.375970 738.481018
592 0 1 4.154690 8.787147 737.708984
593 0 1 4.543320 8.393867 736.908997
594 0 1 4.801220 8.056880 736.020020
595 0 1 5.011460 7.689836 735.172974
596 0 1 5.368780 7.687236 734.276001
597 0 1 5.346010 7.812564 733.315979
598 0 1 5.330510 7.714418 732.339966
599 0 1 5.341760 7.714912 731.362000
600 0 1 5.351020 7.947063 730.422974
601 0 1 5.566340 8.102895 729.520996
602 0 1 5.588610 8.050494 728.549011
603 0 1 5.696940 8.106538 727.537415
604 0 1 5.838180 8.008043 726.570984
605 0 1 6.027480 7.726959 725.704224
606 0 1 5.968100 7.519373 724.773193
607 0 1 5.814410 7.374126 723.812195
608 0 1 5.746970 7.259760 722.854309
609 0 1 5.869140 7.312064 721.894714
610 0 1 5.733130 7.555809 720.934692
611 0 1 5.443970 7.697770 720.029602
612 0 1 5.408180 7.890413 719.088379
613 0 1 5.647430 7.983162 718.116089
614 0 1 6.036390 7.792478 717.172485
615 0 1 6.432240 7.850704 716.334900
616 0 1 6.790070 8.074389 715.462402
617 0 1 7.127728 8.198731 714.612305
618 0 1 7.323508 8.475932 713.674805
619 0 1 7.231003 8.564770 712.706116
620 0 1 7.158539 8.194003 711.827026
621 0 1 6.644080 7.814321 710.998779
622 0 1 6.218590 7.821876 710.222412
623 0 1 5.797970 8.239916 709.390625
624 0 1 5.327280 8.641957 708.712219
625 0 1 4.961720 8.749844 707.777283
626 0 1 4.788280 8.824226 706.879272
627 0 1 4.888330 8.753716 705.897888
628 0 1 5.022390 8.693596 704.925110
629 0 1 4.974700 8.640687 703.917603
630 0 1 4.754920 8.745022 703.004517
631 0 1 4.819300 8.919074 702.068115
632 0 1 4.958170 9.513140 701.282104
633 0 1 5.126400 9.802410 700.372314
634 0 1 5.474090 9.931960 699.456787
635 0 1 5.548860 10.171850 698.555115
636 0 1 5.949770 10.243999 697.697632
637 0 1 6.309130 10.239389 696.790222
638 0 1 6.813300 10.368020 695.927307
639 0 1 7.183292 10.472500 695.043274
640 0 1 7.465006 10.489590 694.158508
641 0 1 7.742969 10.722540 693.270020
642 0 1 8.286676 10.751530 692.514893
643 0 1 8.584932 10.945680 691.637329
644 0 1 9.118960 10.977330 690.824280
645 0 1 9.357430 11.016450 689.849792
646 0 1 9.626570 10.971910 688.914795
647 0 1 9.941480 10.748310 687.986328
648 0 1 10.194970 10.197130 687.252502
649 0 1 10.388960 9.774500 686.352722
650 0 1 10.611130 9.464050 685.485596
651 0 1 10.676170 9.364850 684.547424
652 0 1 10.611660 8.930261 683.623718
653 0 1 10.556410 8.630281 682.736023
654 0 1 10.348351 8.167377 681.898682
655 0 1 10.204660 7.798502 681.037231
656 0 1 9.881600 7.616167 680.169983
657 0 1 9.890700 7.324474 679.258118
658 0 1 9.930050 7.339919 678.307129
659 0 1 9.834470 7.367226 677.330872
660 0 1 9.697820 7.428253 676.394592
661 0 1 9.670090 7.339574 675.422485
662 0 1 9.480540 7.361345 674.464722
663 0 1 9.288150 7.395163 673.484924
664 0 1 9.332720 7.207838 672.562012
665 0 1 9.531090 6.929680 671.651306
666 0 1 9.529440 6.837570 670.711182
667 0 1 9.574480 7.235469 669.800781
668 0 1 9.489200 7.332397 668.917480
669 0 1 9.391840 7.712492 668.052490
670 0 1 9.531390 8.014570 667.133179
671 0 1 9.505850 8.333588 666.240112
672 0 1 9.713130 8.354294 665.297913
673 0 1 9.659081 8.549495 664.292603
674 0 1 9.497710 8.987826 663.469788
675 0 1 9.242380 9.252910 662.604614
676 0 1 9.062450 9.304080 661.651123
677 0 1 8.791272 9.357200 660.679199
678 0 1 8.728845 9.099390 659.741516
679 0 1 8.734915 9.115470 658.744812
680 0 1 8.506896 9.453410 657.834412
681 0 1 8.160875 9.629190 656.918884
682 0 1 7.928187 9.474920 655.997986
683 0 1 7.499035 9.274710 655.143127
684 0 1 6.932740 9.268780 654.307800
685 0 1 6.636680 9.566360 653.444214
686 0 1 6.167150 10.196600 652.854797
687 0 1 6.090570 10.733870 652.070923
688 0 1 5.810220 11.169240 651.272278
689 0 1 5.369480 11.029730 650.432983
690 0 1 5.318160 10.857950 649.452393
691 0 1 5.286810 10.615710 648.560120
692 0 1 5.180620 9.921270 647.808411
693 0 1 5.084220 9.648860 646.860779
694 0 1 4.831060 9.500440 645.975403
695 0 1 4.524600 9.395310 645.093689
696 0 1 4.007630 9.412450 644.256104
697 0 1 3.321260 9.354110 643.608521
698 0 1 2.729980 9.182320 642.852783
699 0 1 2.393950 8.780990 642.096008
700 0 1 2.106990 8.120471 641.495422
701 0 1 1.813850 7.569540 640.768311
702 0 1 1.685040 7.364056 639.794983
703 0 1 1.708590 7.317020 638.874695
704 0 1 1.823380 7.268200 637.931763
705 0 1 2.130980 7.308773 637.031555
706 0 1 2.566700 7.460291 636.141235
707 0 1 2.695210 7.678852 635.105896
708 0 1 2.891630 7.890742 634.215698
709 0 1 3.011790 8.326541 633.332764
710 0 1 3.033860 8.431407 632.381470
711 0 1 3.135270 8.438377 631.450745
712 0 1 3.016790 8.281794 630.483521
713 0 1 2.694720 8.176617 629.622498
714 0 1 2.804390 8.273957 628.667297
715 0 1 2.796990 8.284084 627.640381
716 0 1 3.198050 8.168442 626.728149
717 0 1 3.606750 7.848588 625.860413
718 0 1 3.918400 7.603671 625.025146
719 0 1 4.146490 7.469656 624.062561
720 0 1 4.233500 7.234946 623.113708
721 0 1 4.432650 7.011058 622.254761
722 0 1 4.590530 6.710620 621.384094
723 0 1 4.535890 6.413940 620.437988
724 0 1 4.634930 6.227290 619.521790
725 0 1 4.595990 6.423650 618.580566
726 0 1 4.830600 6.392280 617.669983
727 0 1 5.300330 6.192550 616.857300
728 0 1 5.900930 6.412900 616.177124
729 0 1 6.285810 6.549030 615.292480
730 0 1 6.518260 6.737410 614.396729
731 0 1 6.927210 7.068062 613.565430
732 0 1 7.556732 7.482918 613.007690
733 0 1 8.291534 7.795710 612.528625
734 0 1 9.097010 8.119343 612.013489
735 0 1 9.755370 8.468711 611.467712
736 0 1 10.587930 8.839465 611.036011
737 0 1 11.076139 9.232930 610.277222
738 0 1 11.193660 9.846880 609.458801
739 0 1 11.065460 10.326930 608.614807
740 0 1 11.209830 10.857531 607.850098
741 0 1 11.611000 11.229959 607.013916
742 0 1 11.532270 11.672029 606.165771
743 0 1 11.774870 11.967810 605.290771
744 0 1 11.922180 12.093000 604.334900
745 0 1 12.123550 12.125200 603.381287
746 0 1 12.272810 12.473110 602.440918
747 0 1 12.068020 12.729910 601.531311
748 0 1 11.824320 13.111691 600.688721
749 0 1 11.501220 13.632780 599.953613
750 0 1 11.187060 13.898860 599.148193
751 0 1 11.051200 13.860550 598.180908
752 0 1 10.959690 13.881189 597.209900
753 0 1 10.948030 13.721690 596.172119
754 0 1 11.089750 13.366270 595.226196
755 0 1 11.185550 12.693550 594.590515
756 0 1 10.952410 12.111500 593.873596
757 0 1 10.376260 11.664560 593.231018
758 0 1 9.840219 10.955680 592.798401
759 0 1 9.524120 10.148180 592.383606
760 0 1 9.456820 9.512460 591.677490
761 0 1 9.511010 9.018280 590.805298
762 0 1 9.542010 8.668489 589.911377
763 0 1 9.624050 8.290602 588.997803
764 0 1 9.569130 7.916299 588.090515
765 0 1 9.262320 7.750082 587.136414
766 0 1 8.949084 7.266596 586.302917
767 0 1 8.591223 6.978560 585.439331
768 0 1 8.139749 6.654660 584.592896
769 0 1 7.901277 6.180000 583.747986
770 0 1 7.878416 5.838030 582.859131
771 0 1 8.063138 5.801610 581.927795
772 0 1 8.385643 5.679590 580.999390
773 0 1 8.745569 5.657670 580.091492
774 0 1 8.855173 5.556510 579.163086
775 0 1 8.797145 5.362890 578.234802
776 0 1 8.851724 5.593020 577.258301
777 0 1 8.752087 5.982540 576.394409
778 0 1 8.428790 6.534860 575.589111
779 0 1 8.212800 6.944300 574.760498
780 0 1 7.884073 7.327142 573.979492
781 0 1 7.659698 7.647988 573.168518
782 0 1 7.499975 7.950346 572.210815
783 0 1 7.174527 8.232315 571.418701
784 0 1 6.508390 8.466398 570.768982
785 0 1 5.838040 8.618762 569.971924
786 0 1 5.464660 8.577067 569.081909
787 0 1 4.977290 8.408396 568.286011
788 0 1 4.668530 8.498861 567.374268
789 0 1 4.430080 8.696744 566.471802
790 0 1 4.391840 9.166900 565.632324
791 0 1 4.366630 9.661880 564.769714
792 0 1 4.191490 10.210220 564.023621