LAMMPS data file via MDAnalysis

        1000  atoms
        1000  bonds
        1000  angles
           0  dihedrals
           0  impropers

           1  atom types
           1  bond types
           1  angle types
           0  dihedral types
           0  improper types

0.000000 16.000000 xlo xhi
0.000000 16.000000 ylo yhi
0.000000 1257.000000 zlo zhi


Masses

1 1.000000

Atoms

1 0 1 4.877680 10.512650 448.062012
2 0 1 4.714970 10.135060 448.911987
3 0 1 4.527650 9.814850 449.815979
4 0 1 4.401100 9.511370 450.839996
5 0 1 4.297660 9.411380 451.739014
6 0 1 4.347380 9.539570 452.735992
7 0 1 4.408350 9.426380 453.669983
8 0 1 4.554930 9.535990 454.645996
9 0 1 4.669610 9.596650 455.580994
10 0 1 5.023130 9.661870 456.458984
11 0 1 5.299420 9.645840 457.354004
12 0 1 5.390310 9.230300 458.143005
13 0 1 5.295880 8.682641 458.984009
14 0 1 5.555730 8.153449 459.760010
15 0 1 5.800640 7.603081 460.531982
16 0 1 6.021820 7.555573 461.451996
17 0 1 6.346420 7.209619 462.338989
18 0 1 6.509060 6.988050 463.252991
19 0 1 6.652380 6.606430 464.181000
20 0 1 6.830720 6.090090 465.014008
21 0 1 7.064341 5.602460 465.824005
22 0 1 7.366143 5.425860 466.705017
23 0 1 7.320129 5.377370 467.648987
24 0 1 7.384600 5.474910 468.546021
25 0 1 7.470537 5.335920 469.510010
26 0 1 7.780790 4.993100 470.346985
27 0 1 8.341414 4.960270 471.174011
28 0 1 8.659536 4.847170 472.050995
29 0 1 9.079550 4.691120 472.924011
30 0 1 9.286240 4.486000 473.867981
31 0 1 9.153160 4.208920 474.815979
32 0 1 9.113700 3.755180 475.638000
33 0 1 9.210870 3.332710 476.572021
34 0 1 9.289680 2.967650 477.451996
35 0 1 9.194450 2.763710 478.399994
36 0 1 9.165530 2.922660 479.348022
37 0 1 9.303130 2.952850 480.300995
38 0 1 9.399030 2.962130 481.257019
39 0 1 9.599840 3.194990 482.265991
40 0 1 9.825880 3.468680 483.145020
41 0 1 10.024690 3.695220 484.028992
42 0 1 10.351060 3.857890 484.944000
43 0 1 10.299310 4.034740 485.932007
44 0 1 10.033649 4.057580 486.837006
45 0 1 9.452450 4.129180 487.606018
46 0 1 8.961150 4.403560 488.466003
47 0 1 8.744333 4.722650 489.278015
48 0 1 8.560658 4.901250 490.218018
49 0 1 8.333131 5.325160 491.110992
50 0 1 8.104850 5.854850 491.932983
51 0 1 8.031050 6.121530 492.882019
52 0 1 7.996907 6.310870 493.882019
53 0 1 7.781743 6.055160 494.789978
54 0 1 7.331879 5.872500 495.614990
55 0 1 6.849400 5.638150 496.395996
56 0 1 6.442240 5.263240 497.205994
57 0 1 6.480230 4.890610 498.104980
58 0 1 6.409980 4.505820 498.976990
59 0 1 6.518740 4.064270 499.800995
60 0 1 6.777700 3.899820 500.753998
61 0 1 7.059669 3.900430 501.699005
62 0 1 6.997730 4.279370 502.545990
63 0 1 7.025178 4.397280 503.540009
64 0 1 6.684880 4.189410 504.436005
65 0 1 6.414540 3.935860 505.346008
66 0 1 5.752040 3.689930 506.036987
67 0 1 5.290450 3.386690 506.825989
68 0 1 4.787100 3.331160 507.737000
69 0 1 4.824430 3.213620 508.644989
70 0 1 5.016950 2.952050 509.540009
71 0 1 5.003990 2.826720 510.466003
72 0 1 5.066840 2.772930 511.438995
73 0 1 5.051700 2.695880 512.349976
74 0 1 5.005780 2.777660 513.317017
75 0 1 5.100150 3.241430 514.129028
76 0 1 5.411330 3.789900 514.817993
77 0 1 5.694270 4.191610 515.614990
78 0 1 6.052360 4.439640 516.505005
79 0 1 6.344840 4.895550 517.288025
80 0 1 6.891180 5.327420 518.117004
81 0 1 7.352940 5.620170 518.950012
82 0 1 7.659814 5.731710 519.862976
83 0 1 8.232189 5.636630 520.695984
84 0 1 8.662778 5.678860 521.552979
85 0 1 9.224300 5.798690 522.315002
86 0 1 9.860540 5.991390 523.067017
87 0 1 10.383850 6.277130 523.862000
88 0 1 10.853880 6.401050 524.711975
89 0 1 11.020520 6.350410 525.737000
90 0 1 11.223600 6.615800 526.656006
91 0 1 11.408920 6.998700 527.614990
92 0 1 11.838600 7.415575 528.322021
93 0 1 12.471750 7.722327 528.970093
94 0 1 12.764339 8.062481 529.752808
95 0 1 13.048420 8.018410 530.668579
96 0 1 13.266230 8.130625 531.606995
97 0 1 13.670040 8.245039 532.477173
98 0 1 13.907619 8.227972 533.395081
99 0 1 14.171420 7.997832 534.291321
100 0 1 14.086650 7.748837 535.221497
101 0 1 13.619989 7.771884 536.043701
102 0 1 13.187820 7.574113 536.858582
103 0 1 12.672580 7.433977 537.688904
104 0 1 12.035330 7.356799 538.388489
105 0 1 11.613940 7.361409 539.301086
106 0 1 11.179831 7.166386 540.155396
107 0 1 10.660320 6.840330 540.962219
108 0 1 10.173670 6.434690 541.738403
109 0 1 10.103790 5.804270 542.476990
110 0 1 10.055270 5.122230 543.167480
111 0 1 9.712960 4.426350 543.759033
112 0 1 9.445930 3.702010 544.390808
113 0 1 9.339820 3.004950 545.041504
114 0 1 9.180250 2.510070 545.845703
115 0 1 9.077220 2.300390 546.800781
116 0 1 9.207270 2.175080 547.716614
117 0 1 9.314730 2.129680 548.781982
118 0 1 9.263280 1.935140 549.704590
119 0 1 9.093250 1.710420 550.654602
120 0 1 9.053170 1.650060 551.603394
121 0 1 9.022250 2.052360 552.455994
122 0 1 9.096770 2.435710 553.362793
123 0 1 9.120440 2.918910 554.192017
124 0 1 9.137680 3.490380 554.990173
125 0 1 8.999723 4.224880 555.648071
126 0 1 9.144740 4.841880 556.335083
127 0 1 9.295250 5.517930 556.988770
128 0 1 9.578070 6.166610 557.693970
129 0 1 9.654400 6.666760 558.490967
130 0 1 9.935640 7.407454 558.993530
131 0 1 9.968960 8.156113 559.561768
132 0 1 9.815240 8.755784 560.306030
133 0 1 9.583850 9.233270 561.157227
134 0 1 9.344950 9.713120 561.942383
135 0 1 9.086860 10.072110 562.814392
136 0 1 8.837791 10.344370 563.704407
137 0 1 8.471126 10.672480 564.535828
138 0 1 7.880156 11.003500 565.280579
139 0 1 7.234981 11.251820 565.978210
140 0 1 6.794380 11.516450 566.761780
141 0 1 6.775850 11.705360 567.685303
142 0 1 6.729550 12.281740 568.492188
143 0 1 6.717190 12.681020 569.362488
144 0 1 6.938380 13.026440 570.178711
145 0 1 7.265483 13.334800 570.999573
146 0 1 7.645052 13.570380 571.830811
147 0 1 7.979627 13.874519 572.664185
148 0 1 8.380013 13.906450 573.512329
149 0 1 8.712797 14.045130 574.444092
150 0 1 9.196650 13.861710 575.216980
151 0 1 9.630860 13.614130 576.059387
152 0 1 10.018190 13.301781 576.935791
153 0 1 10.428230 13.132050 577.767578
154 0 1 10.750350 13.150660 578.666809
155 0 1 10.983231 13.361050 579.629089
156 0 1 11.170080 13.271200 580.533020
157 0 1 11.513560 13.337580 581.471497
158 0 1 11.827330 13.534140 582.361023
159 0 1 11.955720 13.696011 583.297913
160 0 1 11.811501 13.583310 584.299072
161 0 1 11.754780 13.691970 585.230896
162 0 1 11.997220 13.514561 586.111511
163 0 1 12.261580 13.437400 586.999695
164 0 1 12.464510 13.158279 587.872070
165 0 1 12.438590 12.978200 588.833191
166 0 1 12.393730 12.868210 589.753479
167 0 1 12.467480 12.735010 590.689026
168 0 1 12.784480 12.315170 591.491089
169 0 1 12.810249 11.850480 592.345398
170 0 1 12.791389 11.206060 593.049194
171 0 1 12.807350 10.546880 593.727295
172 0 1 13.002520 10.027710 594.497803
173 0 1 13.101390 9.928550 595.459717
174 0 1 13.188080 9.665410 596.418579
175 0 1 13.596430 9.548240 597.216187
176 0 1 14.006580 9.635540 598.126526
177 0 1 14.079180 9.452130 599.072327
178 0 1 13.980240 8.867116 599.835022
179 0 1 13.644700 8.572720 600.665222
180 0 1 13.421761 8.217491 601.502197
181 0 1 13.177090 7.733610 602.315308
182 0 1 12.640480 7.454360 603.087097
183 0 1 12.006580 7.328083 603.752075
184 0 1 11.193820 7.415344 604.305420
185 0 1 10.358210 7.338427 604.820190
186 0 1 9.521250 7.447802 605.340088
187 0 1 8.681184 7.767285 605.664612
188 0 1 7.857786 8.087958 605.993408
189 0 1 7.155745 8.255926 606.543213
190 0 1 6.372020 8.396969 607.123779
191 0 1 5.758430 8.547572 607.853516
192 0 1 5.412750 8.394751 608.708618
193 0 1 5.498190 7.926116 609.583374
194 0 1 5.790870 7.724155 610.417725
195 0 1 6.265510 7.656885 611.272705
196 0 1 6.678700 7.714108 612.059692
197 0 1 7.181926 7.685479 612.875671
198 0 1 7.529912 7.599383 613.732910
199 0 1 7.931043 7.255165 614.555908
200 0 1 8.391329 6.930820 615.368591
201 0 1 8.660635 6.409630 616.154114
202 0 1 8.726994 6.069880 617.073730
203 0 1 8.923846 5.767370 618.010498
204 0 1 8.961760 5.587810 618.965759
205 0 1 8.761600 5.417010 619.903198
206 0 1 8.529898 5.294520 620.857117
207 0 1 8.582342 5.062770 621.809631
208 0 1 8.794195 4.974440 622.736572
209 0 1 8.879088 4.982910 623.638794
210 0 1 8.651500 5.422530 624.528198
211 0 1 8.315378 5.945920 625.216125
212 0 1 7.915572 6.374310 626.016724
213 0 1 7.530649 6.588550 626.900208
214 0 1 7.402878 6.685830 627.864319
215 0 1 7.613999 6.806550 628.770447
216 0 1 7.854215 7.183528 629.550781
217 0 1 8.041908 7.643719 630.363892
218 0 1 8.301841 8.046936 631.209656
219 0 1 8.612986 8.230236 632.055054
220 0 1 9.167090 8.503360 632.826050
221 0 1 9.770910 8.366651 633.643372
222 0 1 10.168159 7.996282 634.394226
223 0 1 10.650970 7.776375 635.177734
224 0 1 11.118130 7.595030 635.997498
225 0 1 11.313890 7.389266 636.949463
226 0 1 11.511680 7.490055 637.848816
227 0 1 11.654740 7.601851 638.769592
228 0 1 11.699930 7.679691 639.752625
229 0 1 11.652260 7.672823 640.673523
230 0 1 11.309190 7.743423 641.582397
231 0 1 10.939330 7.777930 642.479919
232 0 1 10.473480 7.851416 643.354187
233 0 1 9.989810 7.750417 644.140869
234 0 1 9.714810 7.715041 645.054626
235 0 1 9.763090 7.829186 646.019104
236 0 1 9.656200 8.097701 646.930176
237 0 1 9.469920 8.360226 647.846619
238 0 1 9.216150 8.527055 648.800903
239 0 1 8.943295 8.705544 649.733704
240 0 1 8.739566 8.774166 650.666992
241 0 1 8.331964 8.932003 651.500610
242 0 1 8.232003 9.201840 652.407104
243 0 1 8.016357 9.525510 653.239624
244 0 1 7.975693 9.654430 654.178101
245 0 1 8.187580 9.818000 655.100891
246 0 1 8.351963 10.318980 655.923584
247 0 1 8.769934 10.453630 656.816589
248 0 1 8.996307 10.530810 657.706726
249 0 1 9.139560 10.250940 658.622009
250 0 1 9.312840 10.192660 659.582275
251 0 1 9.434120 9.949660 660.518616
252 0 1 9.532440 10.114980 661.419128
253 0 1 9.531900 10.021620 662.365295
254 0 1 9.420310 9.623500 663.239075
255 0 1 8.981715 9.384930 664.025818
256 0 1 8.536740 9.446090 664.937012
257 0 1 8.120507 9.499160 665.826477
258 0 1 8.041980 9.893100 666.710327
259 0 1 8.106348 10.444550 667.525208
260 0 1 8.147749 10.934330 668.343079
261 0 1 8.485861 11.384060 669.205078
262 0 1 8.425273 11.672850 670.135803
263 0 1 8.158656 11.886020 671.020813
264 0 1 7.556503 11.903180 671.777283
265 0 1 7.488450 11.883550 672.702820
266 0 1 7.264933 11.882640 673.718506
267 0 1 7.289097 11.600460 674.638916
268 0 1 7.374165 11.400670 675.608215
269 0 1 7.646529 11.052310 676.436401
270 0 1 8.229017 10.795570 677.161377
271 0 1 8.714577 10.775270 677.980225
272 0 1 8.669937 10.619280 678.993225
273 0 1 8.692858 10.432850 679.888794
274 0 1 8.585327 10.497470 680.844971
275 0 1 8.738135 10.897720 681.740784
276 0 1 8.578244 10.856350 682.722412
277 0 1 8.163979 10.825670 683.652588
278 0 1 8.006110 10.966351 684.632568
279 0 1 8.043386 11.261820 685.607605
280 0 1 8.401025 11.494920 686.495605
281 0 1 8.656670 11.617820 687.416382
282 0 1 9.003110 11.646290 688.312500
283 0 1 9.330460 11.697570 689.236816
284 0 1 9.692670 11.860310 690.122803
285 0 1 10.122150 11.824190 691.022278
286 0 1 10.416451 11.607380 691.900208
287 0 1 10.874130 11.349319 692.747498
288 0 1 11.216090 11.137750 693.606812
289 0 1 11.628490 10.897560 694.509521
290 0 1 12.109970 11.010839 695.381226
291 0 1 12.590290 11.060020 696.247620
292 0 1 12.867189 11.293230 697.107910
293 0 1 13.176479 11.485380 697.987488
294 0 1 13.069450 11.594870 698.990173
295 0 1 13.065490 11.605420 699.963074
296 0 1 13.091030 11.578609 700.883606
297 0 1 12.833460 11.413440 701.829468
298 0 1 12.621840 11.007830 702.684875
299 0 1 12.292740 10.554010 703.451416
300 0 1 12.022699 10.162750 704.331787
301 0 1 11.617331 9.897930 705.232178
302 0 1 11.466030 9.626330 706.145325
303 0 1 10.957270 9.415700 706.931030
304 0 1 10.562720 8.961133 707.662292
305 0 1 10.166220 8.677176 708.483704
306 0 1 9.686400 8.480650 709.284180
307 0 1 9.450100 8.287741 710.186768
308 0 1 9.173970 8.374363 711.087585
309 0 1 9.129230 8.492765 712.078308
310 0 1 9.186240 8.612681 713.030701
311 0 1 9.140610 8.577304 713.976929
312 0 1 9.233160 8.179443 714.910583
313 0 1 9.181070 7.818260 715.794434
314 0 1 9.010960 7.399792 716.645325
315 0 1 9.073750 7.342736 717.580566
316 0 1 9.086120 7.408161 718.527405
317 0 1 9.045890 7.456039 719.510620
318 0 1 8.942227 8.043487 720.323792
319 0 1 9.004120 8.500160 721.177124
320 0 1 9.024710 8.858330 722.046692
321 0 1 9.113250 9.300000 722.957214
322 0 1 9.374300 9.448210 723.911133
323 0 1 9.626550 9.850970 724.800171
324 0 1 9.776620 9.989060 725.764221
325 0 1 10.174750 9.950040 726.729675
326 0 1 10.592430 10.131630 727.560608
327 0 1 10.909719 10.447180 728.481934
328 0 1 11.153930 10.689671 729.395996
329 0 1 11.496810 11.245540 730.134033
330 0 1 11.772720 11.702330 730.908020
331 0 1 11.711679 11.917789 731.815002
332 0 1 11.374371 12.024600 732.666016
333 0 1 10.968040 11.921800 733.486023
334 0 1 10.300950 11.914500 734.134033
335 0 1 9.702740 11.591850 734.830994
336 0 1 9.194260 11.070350 735.575989
337 0 1 8.993809 10.704130 736.474976
338 0 1 8.899377 10.289670 737.312012
339 0 1 8.816384 9.703190 738.109009
340 0 1 8.499386 9.163050 738.869019
341 0 1 8.213898 8.550225 739.516968
342 0 1 7.902651 7.731142 740.141968
343 0 1 7.584613 7.160613 740.865967
344 0 1 7.324627 6.525850 741.615967
345 0 1 7.059925 5.989780 742.408020
346 0 1 6.745670 5.780600 743.288025
347 0 1 6.556360 5.762010 744.226013
348 0 1 6.483770 5.562190 745.187012
349 0 1 6.559000 5.406520 746.155029
350 0 1 6.450410 5.454810 747.160034
351 0 1 6.347760 5.612530 748.101990
352 0 1 6.248030 5.595920 749.039978
353 0 1 6.197390 5.420780 749.942017
354 0 1 6.222070 5.420320 750.880005
355 0 1 6.010670 5.417630 751.895996
356 0 1 5.712090 5.295910 752.835999
357 0 1 5.587570 5.057370 753.796021
358 0 1 5.602540 4.729690 754.682007
359 0 1 5.825900 4.474540 755.606995
360 0 1 5.535630 4.567740 756.526001
361 0 1 5.356750 4.436850 757.515015
362 0 1 5.179640 3.782760 758.164001
363 0 1 5.154180 3.356630 759.026978
364 0 1 5.184310 2.972930 759.891968
365 0 1 5.217590 2.760490 760.893005
366 0 1 5.349040 2.393200 761.765015
367 0 1 5.515190 2.318760 762.664001
368 0 1 6.034910 2.128420 763.549988
369 0 1 6.312260 2.050790 764.468018
370 0 1 6.222220 2.060020 765.457031
371 0 1 6.452070 2.087990 766.416992
372 0 1 6.739930 2.010900 767.403015
373 0 1 6.703600 2.030000 768.395020
374 0 1 6.687890 2.220090 769.362000
375 0 1 6.813050 2.495310 770.270996
376 0 1 6.963770 2.808390 771.219971
377 0 1 6.857320 3.339960 772.028015
378 0 1 6.801110 3.908440 772.832031
379 0 1 6.733350 4.281440 773.723022
380 0 1 6.556580 4.387430 774.635010
381 0 1 6.578650 4.789850 775.539001
382 0 1 6.488470 5.438570 776.264038
383 0 1 6.852230 6.001400 776.953003
384 0 1 7.242726 6.629970 777.575989
385 0 1 7.580929 7.274636 778.169006
386 0 1 7.980629 7.797983 778.893005
387 0 1 8.353892 8.192524 779.724976
388 0 1 8.441720 8.309734 780.636963
389 0 1 8.390565 8.411746 781.557007
390 0 1 8.581278 8.645735 782.526978
391 0 1 8.597271 8.853431 783.500000
392 0 1 8.589615 9.419260 784.286987
393 0 1 8.668492 9.852270 785.139038
394 0 1 8.817520 10.316360 785.969971
395 0 1 8.778904 10.356620 786.978027
396 0 1 8.640265 10.483380 787.955994
397 0 1 8.541007 10.751101 788.879028
398 0 1 8.621592 10.628170 789.929016
399 0 1 8.964481 10.271540 790.811035
400 0 1 9.580510 10.257650 791.656982
401 0 1 10.198600 10.400450 792.359985
402 0 1 10.828220 10.504780 793.124023
403 0 1 11.246170 10.673019 794.035034
404 0 1 11.318130 10.857690 794.927002
405 0 1 11.531780 10.784760 795.916992
406 0 1 11.664680 10.907450 796.906982
407 0 1 11.959790 11.121350 797.832031
408 0 1 12.226950 11.363220 798.763000
409 0 1 12.503170 11.767640 799.587036
410 0 1 12.610380 12.073000 800.497009
411 0 1 12.561150 12.303120 801.432007
412 0 1 12.896481 12.428110 802.372009
413 0 1 12.935130 12.088181 803.255981
414 0 1 12.981630 11.656520 804.143982
415 0 1 12.927380 11.575720 805.044006
416 0 1 12.601810 11.322890 805.924988
417 0 1 12.453130 10.931960 806.734009
418 0 1 12.107830 10.440890 807.473999
419 0 1 11.724350 10.092110 808.260010
420 0 1 11.559790 9.518410 809.018982
421 0 1 11.503510 8.928601 809.738037
422 0 1 11.404360 8.352550 810.479004
423 0 1 11.029700 7.680091 811.130981
424 0 1 10.651550 7.115103 811.867981
425 0 1 10.212430 6.844000 812.630981
426 0 1 9.436540 6.681500 813.091003
427 0 1 8.599439 6.737210 813.578979
428 0 1 7.949115 7.077136 814.276001
429 0 1 7.389656 7.241220 815.070007
430 0 1 6.881520 7.441614 815.932007
431 0 1 6.326290 7.683616 816.664978
432 0 1 6.056670 8.182069 817.478027
433 0 1 5.873200 8.749263 818.332031
434 0 1 5.536370 9.251030 819.138000
435 0 1 5.185580 9.462080 820.020996
436 0 1 4.821150 9.475140 820.983032
437 0 1 4.357410 9.350520 821.815002
438 0 1 3.973140 9.105700 822.620972
439 0 1 3.448350 8.953057 823.393982
440 0 1 2.905200 8.754116 824.259033
441 0 1 2.494400 8.407888 825.098022
442 0 1 2.248880 8.045494 825.968018
443 0 1 2.055430 7.577065 826.806030
444 0 1 2.041820 7.323033 827.776978
445 0 1 2.180680 7.039504 828.700989
446 0 1 2.428600 6.528970 829.453979
447 0 1 2.630550 5.798780 830.046997
448 0 1 3.016550 5.319690 830.823975
449 0 1 3.298470 4.822430 831.679993
450 0 1 3.815060 4.569580 832.455017
451 0 1 4.142950 4.277960 833.362000
452 0 1 4.515510 4.329960 834.270020
453 0 1 4.988030 4.516030 835.113037
454 0 1 5.349410 4.847100 835.945984
455 0 1 5.837690 5.105670 836.802002
456 0 1 6.301810 5.168970 837.739014
457 0 1 7.141099 5.136520 838.164978
458 0 1 8.047669 5.132500 838.575989
459 0 1 8.968855 5.298530 838.606995
460 0 1 9.914351 5.292470 838.351013
461 0 1 10.674590 5.358910 837.747986
462 0 1 11.348040 5.300800 837.085022
463 0 1 11.987450 5.297840 836.333008
464 0 1 12.621660 5.301160 835.606018
465 0 1 13.095650 5.323270 834.729004
466 0 1 13.518250 5.360660 833.905029
467 0 1 13.605700 5.753540 832.985962
468 0 1 13.661369 6.268720 832.113037
469 0 1 13.723391 6.911600 831.419006
470 0 1 13.747561 7.444599 830.610962
471 0 1 13.704889 7.893236 829.733032
472 0 1 13.515961 8.596691 829.015015
473 0 1 13.196280 9.159880 828.341980
474 0 1 13.121600 9.796580 827.664001
475 0 1 12.964380 10.163570 826.794006
476 0 1 12.497900 10.314060 825.932983
477 0 1 11.922400 10.076530 825.135986
478 0 1 11.598710 9.980260 824.177002
479 0 1 11.275150 9.984670 823.291016
480 0 1 11.038750 9.809000 822.372009
481 0 1 10.610140 9.789600 821.567993
482 0 1 10.248020 9.767790 820.655029
483 0 1 9.983760 9.538900 819.724976
484 0 1 9.623910 9.364150 818.797974
485 0 1 9.339530 9.065220 817.953003
486 0 1 9.038310 8.956493 816.984985
487 0 1 8.579297 9.067920 816.156982
488 0 1 8.301298 9.110970 815.273010
489 0 1 8.130019 9.294390 814.346985
490 0 1 7.937950 9.824380 813.533020
491 0 1 7.750184 10.369710 812.839966
492 0 1 7.562853 10.737830 811.997986
493 0 1 7.045646 10.979250 811.219971
494 0 1 6.610860 10.478730 810.484985
495 0 1 6.350670 9.990520 809.655029
496 0 1 5.951400 9.308420 809.028015
497 0 1 5.347350 9.011140 808.322021
498 0 1 4.644480 8.468230 807.867004
499 0 1 4.132320 7.976516 807.263000
500 0 1 3.704170 7.420293 806.565002
501 0 1 3.359610 6.730490 806.000000
502 0 1 3.268260 5.944350 805.483032
503 0 1 3.340210 5.085590 805.026978
504 0 1 3.240220 4.352480 804.367981
505 0 1 3.121790 3.753520 803.636963
506 0 1 3.504400 3.364480 802.759033
507 0 1 4.091580 3.104050 801.924011
508 0 1 4.399040 3.078630 801.028992
509 0 1 4.814480 3.201970 800.143005
510 0 1 5.238130 3.120680 799.297974
511 0 1 5.472520 3.158970 798.403992
512 0 1 5.607900 2.980360 797.463989
513 0 1 5.644170 3.250990 796.514038
514 0 1 5.782920 3.578440 795.624023
515 0 1 5.841110 3.813680 794.724976
516 0 1 5.889260 4.022690 793.781006
517 0 1 5.722420 4.165200 792.809998
518 0 1 5.840310 4.340970 791.841003
519 0 1 5.649120 4.576480 790.890015
520 0 1 5.662280 4.735190 789.971008
521 0 1 5.794030 4.853850 788.984009
522 0 1 5.826140 4.817990 788.018005
523 0 1 5.968940 4.874310 787.037964
524 0 1 6.317500 4.935030 786.091980
525 0 1 6.909910 4.934510 785.325989
526 0 1 7.588818 5.122170 784.660034
527 0 1 7.928668 5.184070 783.749023
528 0 1 8.232735 5.319470 782.809998
529 0 1 8.732422 5.151130 781.976990
530 0 1 9.180850 4.984920 781.169983
531 0 1 9.483730 4.936170 780.143982
532 0 1 9.912080 4.895900 779.233032
533 0 1 10.255220 4.734370 778.297974
534 0 1 10.777180 4.668160 777.471985
535 0 1 10.979990 4.822220 776.536987
536 0 1 11.275110 4.938750 775.629028
537 0 1 11.737150 4.927210 774.789978
538 0 1 12.379930 5.083060 773.963013
539 0 1 12.716770 5.012460 773.016968
540 0 1 13.035700 5.009680 772.110962
541 0 1 13.119619 5.415870 771.273987
542 0 1 13.242599 5.823020 770.335022
543 0 1 12.981840 6.237310 769.504028
544 0 1 12.529560 6.663210 768.766968
545 0 1 11.926540 7.120513 768.073975
546 0 1 11.263160 7.681421 767.578003
547 0 1 10.778670 8.315900 766.900024
548 0 1 10.209840 8.729086 766.197021
549 0 1 9.702950 9.208030 765.490967
550 0 1 9.059470 9.684250 764.947998
551 0 1 8.352636 10.102970 764.367981
552 0 1 7.769531 10.208210 763.653992
553 0 1 7.445857 10.240480 762.734009
554 0 1 6.943800 10.309880 761.880005
555 0 1 6.422280 10.183200 761.010010
556 0 1 6.070010 10.293380 760.067017
557 0 1 5.743290 10.482940 759.160034
558 0 1 5.449990 10.778100 758.294983
559 0 1 5.321280 11.188610 757.406982
560 0 1 5.707610 11.625510 756.695007
561 0 1 6.205150 12.004040 755.992004
562 0 1 6.699560 12.031090 755.151978
563 0 1 7.341110 12.128030 754.401001
564 0 1 7.733907 12.491961 753.625000
565 0 1 8.329678 12.828569 752.957031
566 0 1 8.944102 12.644400 752.263977
567 0 1 9.555360 12.663879 751.443970
568 0 1 10.183470 12.805360 750.672974
569 0 1 10.696210 12.515970 749.901978
570 0 1 11.110910 12.148920 749.078003
571 0 1 11.318110 11.781670 748.130981
572 0 1 11.349470 11.614740 747.176025
573 0 1 11.814500 11.424940 746.365967
574 0 1 12.353490 11.179620 745.596008
575 0 1 12.718340 10.937780 744.714966
576 0 1 13.042860 10.685440 743.888977
577 0 1 13.250460 10.435680 742.947021
578 0 1 13.563271 10.132980 742.036987
579 0 1 13.776840 9.605150 741.307983
580 0 1 14.017941 8.975435 740.606995
581 0 1 14.189730 8.531346 739.726990
582 0 1 14.342630 8.216952 738.825012
583 0 1 14.344700 7.883635 737.939026
584 0 1 14.155849 7.633025 737.009033
585 0 1 14.086010 7.236515 736.205994
586 0 1 13.925070 6.848990 735.343994
587 0 1 13.785510 6.527200 734.442017
588 0 1 14.097240 6.278490 733.526978
589 0 1 14.158160 5.977470 732.539978
590 0 1 13.890079 5.971030 731.603027
591 0 1 13.613140 6.006680 730.708008
592 0 1 13.467950 6.165110 729.768005
593 0 1 13.171690 6.194220 728.890991
594 0 1 12.842080 6.508560 728.037231
595 0 1 12.336380 6.854560 727.282593
596 0 1 11.760450 6.894320 726.546387
597 0 1 11.425920 6.783190 725.593079
598 0 1 11.434650 6.743440 724.581116
599 0 1 11.327750 6.626450 723.551819
600 0 1 11.132299 6.753150 722.631775
601 0 1 10.952830 7.131226 721.758667
602 0 1 10.716450 7.446545 720.937012
603 0 1 10.499830 7.764870 720.038025
604 0 1 10.183300 8.350606 719.297180
605 0 1 9.880120 8.986989 718.599121
606 0 1 9.486290 9.656610 717.892334
607 0 1 8.972206 10.106230 717.223816
608 0 1 8.293943 10.277070 716.426514
609 0 1 7.912620 10.541210 715.582703
610 0 1 7.453891 10.801390 714.757019
611 0 1 7.351874 11.331370 713.972595
612 0 1 7.441529 11.789940 713.127075
613 0 1 7.376927 12.064529 712.226196
614 0 1 6.928420 12.220640 711.349487
615 0 1 6.626530 12.223220 710.435425
616 0 1 6.500670 12.361910 709.451111
617 0 1 6.733990 12.371080 708.506897
618 0 1 7.077791 12.356939 707.619690
619 0 1 7.166757 12.353860 706.636475
620 0 1 7.352474 12.354401 705.674805
621 0 1 7.453442 12.211599 704.751831
622 0 1 7.660168 11.810590 703.819824
623 0 1 7.872328 11.467950 702.939209
624 0 1 7.771335 11.555980 701.957520
625 0 1 7.574431 11.788540 701.086304
626 0 1 7.266202 11.812740 700.135803
627 0 1 7.195869 12.012930 699.176025
628 0 1 7.323614 12.137250 698.247803
629 0 1 7.183438 12.227940 697.255127
630 0 1 7.256864 12.212870 696.341675
631 0 1 6.979040 12.165100 695.414795
632 0 1 6.849870 11.672560 694.555603
633 0 1 6.632000 11.195420 693.722290
634 0 1 6.255450 10.627190 693.100403
635 0 1 5.721150 10.369910 692.330811
636 0 1 5.228210 10.037050 691.604187
637 0 1 4.953030 9.954220 690.685425
638 0 1 4.773720 9.416580 689.859375
639 0 1 4.720020 8.760307 689.118286
640 0 1 4.174660 8.400603 688.438721
641 0 1 3.548730 7.986883 687.883301
642 0 1 3.082180 7.564165 687.146179
643 0 1 2.678010 7.225191 686.374573
644 0 1 2.664060 6.914300 685.451294
645 0 1 2.530500 6.929600 684.479614
646 0 1 2.520300 6.976300 683.519592
647 0 1 2.530300 6.357710 682.749023
648 0 1 2.392250 5.710740 682.047729
649 0 1 2.571700 5.039900 681.350403
650 0 1 2.842150 4.638450 680.437012
651 0 1 2.828920 4.340730 679.514893
652 0 1 2.942750 4.145620 678.582092
653 0 1 2.854690 4.119690 677.654724
654 0 1 2.805900 4.214480 676.677124
655 0 1 2.551970 4.579680 675.845276
656 0 1 2.587650 4.799730 674.898804
657 0 1 2.811790 4.980230 673.981995
658 0 1 3.247280 4.973190 673.152405
659 0 1 3.571970 4.671050 672.318970
660 0 1 4.146630 4.557620 671.583496
661 0 1 4.657540 4.336110 670.781372
662 0 1 4.961250 4.492130 669.884583
663 0 1 5.134730 4.465400 668.923279
664 0 1 5.292840 4.354860 667.953186
665 0 1 5.605500 4.353010 667.013794
666 0 1 5.963540 4.281230 666.117126
667 0 1 6.390040 4.689400 665.342285
668 0 1 7.182678 4.901640 664.769409
669 0 1 7.986801 4.922420 664.385925
670 0 1 8.900667 4.985040 664.050598
671 0 1 9.845950 4.895690 663.931213
672 0 1 10.781540 5.110080 663.460510
673 0 1 11.318600 5.299010 662.738770
674 0 1 11.630180 5.534910 661.871887
675 0 1 12.098050 5.771210 661.078979
676 0 1 12.585360 6.230060 660.383118
677 0 1 12.925240 6.338220 659.474792
678 0 1 13.001440 6.486420 658.496277
679 0 1 12.804200 6.820290 657.596191
680 0 1 12.705170 6.972720 656.679199
681 0 1 12.434401 7.192180 655.830200
682 0 1 12.175880 7.388073 654.930298
683 0 1 12.030060 7.585631 653.966431
684 0 1 11.890580 7.409092 653.018127
685 0 1 11.706920 7.113412 652.089111
686 0 1 11.535590 6.987100 651.146729
687 0 1 11.030160 6.870850 650.320312
688 0 1 10.454411 6.741370 649.559326
689 0 1 9.805500 6.518140 648.863525
690 0 1 9.215360 6.466600 648.140320
691 0 1 8.518696 6.863820 647.549377
692 0 1 7.797776 6.914350 646.922913
693 0 1 7.108646 6.999810 646.276123
694 0 1 6.530340 7.142669 645.521301
695 0 1 5.968000 7.067659 644.731201
696 0 1 5.529310 7.107416 643.895020
697 0 1 5.041660 7.529557 643.097107
698 0 1 4.637370 8.073410 642.345520
699 0 1 4.110930 8.214159 641.576721
700 0 1 3.862360 8.506786 640.753113
701 0 1 3.899680 8.408825 639.789978
702 0 1 3.682030 8.041860 638.914612
703 0 1 3.707080 7.766195 637.935669
704 0 1 3.745550 7.454460 636.983887
705 0 1 3.758330 7.287798 636.041260
706 0 1 3.877730 7.097620 635.127136
707 0 1 4.117710 6.917790 634.248535
708 0 1 4.306050 6.742720 633.326904
709 0 1 4.449430 6.579690 632.422424
710 0 1 4.631660 6.550460 631.426453
711 0 1 4.667050 6.439550 630.468018
712 0 1 4.993220 6.412070 629.571716
713 0 1 5.250420 6.348020 628.591309
714 0 1 5.449920 6.454920 627.637634
715 0 1 5.381130 6.470190 626.713135
716 0 1 5.636640 6.553740 625.781860
717 0 1 6.270630 6.401140 625.054626
718 0 1 6.591420 6.580870 624.152466
719 0 1 7.091484 7.021462 623.330811
720 0 1 7.475629 7.320565 622.532104
721 0 1 7.637660 7.522991 621.658447
722 0 1 8.019149 7.646237 620.800842
723 0 1 8.440388 7.652909 619.884888
724 0 1 8.899317 7.450274 619.049500
725 0 1 9.045060 7.429936 618.089783
726 0 1 9.328790 7.128369 617.143127
727 0 1 9.724440 7.176138 616.281677
728 0 1 9.919760 6.986850 615.391418
729 0 1 9.825460 6.392660 614.446411
730 0 1 9.968340 5.993380 613.622375
731 0 1 9.966630 5.587450 612.695312
732 0 1 9.985870 5.317110 611.716919
733 0 1 10.208270 5.179030 610.793091
734 0 1 9.889610 4.905140 609.935120
735 0 1 9.572520 4.745080 609.010071
736 0 1 9.191570 4.741930 608.124512
737 0 1 8.656590 4.774130 607.309326
738 0 1 8.318027 5.043470 606.472717
739 0 1 8.100584 5.331690 605.580078
740 0 1 7.946669 5.514790 604.637085
741 0 1 7.531774 5.447220 603.759521
742 0 1 7.131447 5.470460 602.821289
743 0 1 6.888110 5.498140 601.819824
744 0 1 6.828500 5.739130 600.871582
745 0 1 6.964800 6.046910 599.921997
746 0 1 7.022598 6.389780 599.009705
747 0 1 7.298007 6.657550 598.172974
748 0 1 7.568780 6.777060 597.249329
749 0 1 7.741435 6.798720 596.290588
750 0 1 7.994078 6.793260 595.345093
751 0 1 8.417094 6.755600 594.470520
752 0 1 8.907753 6.756680 593.626282
753 0 1 9.422900 6.677950 592.839905
754 0 1 10.047510 6.765250 592.141968
755 0 1 10.745890 6.926010 591.454590
756 0 1 11.592680 7.027853 590.941772
757 0 1 12.260070 7.250708 590.274292
758 0 1 12.810780 7.560468 589.565613
759 0 1 13.225280 7.972522 588.864502
760 0 1 13.572580 8.445159 588.134583
761 0 1 13.885970 8.816646 587.331909
762 0 1 13.909830 9.199720 586.484314
763 0 1 13.950171 9.654500 585.704712
764 0 1 14.150980 10.051540 584.865173
765 0 1 14.096530 10.373940 583.961121
766 0 1 14.078330 10.557230 583.097900
767 0 1 13.828770 10.765810 582.249878
768 0 1 13.807051 10.749040 581.328491
769 0 1 13.742540 10.670520 580.354675
770 0 1 13.875860 10.855470 579.395996
771 0 1 14.039270 10.923820 578.502197
772 0 1 14.028020 10.963511 577.547424
773 0 1 13.854650 11.085970 576.561401
774 0 1 13.764891 11.320150 575.567993
775 0 1 13.563410 11.644290 574.704895
776 0 1 13.351830 12.028260 573.778076
777 0 1 13.158030 12.107870 572.778320
778 0 1 12.804590 11.833520 571.892578
779 0 1 12.684410 11.828080 570.872803
780 0 1 12.440451 11.814800 569.901489
781 0 1 11.933170 11.814020 569.083618
782 0 1 11.475790 11.885850 568.187927
783 0 1 11.116520 11.906330 567.258972
784 0 1 10.889771 11.838530 566.309387
785 0 1 11.110870 11.845230 565.377075
786 0 1 11.124260 11.648190 564.391174
787 0 1 11.060550 11.611350 563.355225
788 0 1 10.779670 11.576850 562.497620
789 0 1 10.099490 11.447290 561.765198
790 0 1 9.549540 11.185340 560.951111