# Helical polymer in a cylinder

2000 atoms
1999 bonds

2 atom types
1 bond types

-5.0 5.0 xlo xhi
-5.0 5.0 ylo yhi
-39.5575 39.5575 zlo zhi

Atoms

1 1 1 1.941594693942549 0.4798020888388665 -38.518942499999994 0 0 0
2 1 1 1.7697899555458605 0.9315811898320947 -38.480385 0 0 0
3 1 1 1.4946200931381135 1.328951006315815 -38.441827499999995 0 0 0
4 1 1 1.1321564867510188 1.6487030325403027 -38.40327 0 0 0
5 1 1 0.7035689342503023 1.8721620535514263 -38.364712499999996 0 0 0
6 1 1 0.23388922281218247 1.9862768768357328 -38.326155 0 0 0
7 1 1 -0.24945086026782176 1.9843825912136106 -38.2875975 0 0 0
8 1 1 -0.7182216895075902 1.8665898330165795 -38.24904 0 0 0
9 1 1 -1.1450445611545683 1.6397783243384887 -38.2104825 0 0 0
10 1 1 -1.5049907547578938 1.3171950607610343 -38.171924999999995 0 0 0
11 1 1 -1.77703750271595 0.9176806165224699 -38.1333675 0 0 0
12 1 1 -1.9452958314523132 0.46456875501291867 -38.094809999999995 0 0 0
13 1 1 -1.9999385617804202 -0.015676386817890256 -38.0562525 0 0 0
14 1 1 -1.9377742683116437 -0.4950059444787245 -38.017694999999996 0 0 0
15 1 1 -1.762433675631872 -0.9454245284520228 -37.9791375 0 0 0
16 1 1 -1.4841576047208624 -1.3406253034868587 -37.94058 0 0 0
17 1 1 -1.119198854668638 -1.6575264473631814 -37.9020225 0 0 0
18 1 1 -0.6888729529703419 -1.8776192517829384 -37.863465 0 0 0
19 1 1 -0.2183132156191147 -1.98804912914295 -37.824907499999995 0 0 0
20 1 1 0.26499717190673483 -1.9823663886581189 -37.78635 0 0 0
21 1 1 0.732830318503011 -1.860902932525707 -37.747792499999996 0 0 0
22 1 1 1.1578622860589396 -1.6307528710759231 -37.709235 0 0 0
23 1 1 1.5152689524252172 -1.3053581890868822 -37.6706775 0 0 0
24 1 1 1.7841758718657468 -0.9037236625496217 -37.63212 0 0 0
25 1 1 1.9488774534496374 -0.44930687890978965 -37.5935625 0 0 0
26 1 1 1.999754250896336 0.03135181050648498 -37.555004999999994 0 0 0
27 1 1 1.9338347892797452 0.510179387834675 -37.5164475 0 0 0
28 1 1 1.7549691149307258 0.9592097818721744 -37.477889999999995 0 0 0
29 1 1 1.4736039323028025 1.352217235026132 -37.4393325 0 0 0
30 1 1 1.1061724610012704 1.666248026712228 -37.400774999999996 0 0 0
31 1 1 0.6741346485626366 1.8829610924305713 -37.3622175 0 0 0
32 1 1 0.20272379565076817 1.9896992392512356 -37.32366 0 0 0
33 1 1 -0.2805272025912115 1.9802283930411535 -37.2851025 0 0 0
34 1 1 -0.7473939237084092 1.855101701471849 -37.246545 0 0 0
35 1 1 -1.170608873965941 1.621627227260381 -37.207987499999994 0 0 0
36 1 1 -1.5254540546659212 1.2934411185296766 -37.16943 0 0 0
37 1 1 -1.7912046244265587 0.8897111854039551 -37.130872499999995 0 0 0
38 1 1 -1.952339339886042 0.4340173981919781 -37.092315 0 0 0
39 1 1 -1.9994470786714795 -0.047025307995659814 -37.053757499999996 0 0 0
40 1 1 -1.9297764988814323 -0.5253214866773687 -37.0152 0 0 0
41 1 1 -1.7473967320517394 -0.9729361031511274 -36.9766425 0 0 0
42 1 1 -1.4629597242827754 -1.363726088746001 -36.938085 0 0 0
43 1 1 -1.0930781060673491 -1.6748672347491358 -36.8995275 0 0 0
44 1 1 -0.6593549265223665 -1.8881872473011474 -36.860969999999995 0 0 0
45 1 1 -0.18712192069335037 -1.9912271057807625 -36.8224125 0 0 0
46 1 1 0.2960399981838155 -1.9779687357173588 -36.783854999999996 0 0 0
47 1 1 0.7619116103618117 -1.8491864962723124 -36.7452975 0 0 0
48 1 1 1.1832835417478975 -1.6124019535551772 -36.706739999999996 0 0 0
49 1 1 1.5355454357254532 -1.28144458125302 -36.6681825 0 0 0
50 1 1 1.7981233285643436 -0.8756440459871155 -36.629625 0 0 0
51 1 1 1.955681278069389 -0.41870125221795157 -36.591067499999994 0 0 0
52 1 1 1.9990170639779654 0.06269591633363975 -36.55251 0 0 0
53 1 1 1.9255996464508411 0.5404313107032159 -36.513952499999995 0 0 0
54 1 1 1.7397169922286364 0.986602648968138 -36.475395 0 0 0
55 1 1 1.4522256346219704 1.3751511575629842 -36.436837499999996 0 0 0
56 1 1 1.0799165943607356 1.6833835419251046 -36.39828 0 0 0
57 1 1 0.6445346948893363 1.8932973953090175 -36.3597225 0 0 0
58 1 1 0.17150854929828263 1.992632634862131 -36.321165 0 0 0
59 1 1 -0.31153460560600665 1.9755875555160571 -36.2826075 0 0 0
60 1 1 -0.7763824865223932 1.8431576803467755 -36.24405 0 0 0
61 1 1 -1.195885510695791 1.6030776167446998 -36.2054925 0 0 0
62 1 1 -1.5455424756073306 1.2693693143028015 -36.166934999999995 0 0 0
63 1 1 -1.8049315592062352 0.8615231085591081 -36.1283775 0 0 0
64 1 1 -1.9589030626769457 0.40335938198445637 -36.089819999999996 0 0 0
65 1 1 -1.9984642332351312 -0.07836267274614524 -36.0512625 0 0 0
66 1 1 -1.9213044886063493 -0.5555079315915249 -36.012705 0 0 0
67 1 1 -1.7319303672909598 -1.00020857967496 -35.9741475 0 0 0
68 1 1 -1.4414023228037487 -1.386491739541191 -35.93559 0 0 0
69 1 1 -1.066688734501258 -1.6917964250133952 -35.897032499999995 0 0 0
70 1 1 -0.6296748641921914 -1.898291222495786 -35.858475 0 0 0
71 1 1 -0.15588464072329622 -1.9939157401421377 -35.819917499999995 0 0 0
72 1 1 0.3270100728966989 -1.9730849987327195 -35.78136 0 0 0
73 1 1 0.7908056631252866 -1.8370156240949547 -35.742802499999996 0 0 0
74 1 1 1.2084140065670892 -1.5936547896995996 -35.704245 0 0 0
75 1 1 1.555444560111224 -1.25721605956192 -35.6656875 0 0 0
76 1 1 1.811628898066666 -0.8473492406851839 -35.62713 0 0 0
77 1 1 1.9620044957680018 -0.3879927300686813 -35.5885725 0 0 0
78 1 1 1.9977886204079134 0.09402461469554857 -35.550014999999995 0 0 0
79 1 1 1.9168912892348062 0.5705504230615579 -35.5114575 0 0 0
80 1 1 1.724037335635079 1.0137530593474418 -35.472899999999996 0 0 0
81 1 1 1.4304904537931131 1.3977471379354611 -35.4343425 0 0 0
82 1 1 1.0533953391850988 1.7001053671414341 -35.395785 0 0 0
83 1 1 0.6147763473924865 1.903168422049597 -35.3572275 0 0 0
84 1 1 0.1402511548735345 1.9950763427890772 -35.31867 0 0 0
85 1 1 -0.34246544927072425 1.9704612191199808 -35.2801125 0 0 0
86 1 1 -0.805180254036217 1.8307607048738437 -35.241555 0 0 0
87 1 1 -1.2208682596333085 1.5841340513415956 -35.202997499999995 0 0 0
88 1 1 -1.5652510808706848 1.2449855637047176 -35.16444 0 0 0
89 1 1 -1.8182149336730618 0.8331233131825466 -35.125882499999996 0 0 0
90 1 1 -1.9649853867960314 0.37260224057035746 -35.087325 0 0 0
91 1 1 -1.9969902670047608 -0.10968077994003544 -35.0487675 0 0 0
92 1 1 -1.9123603194753265 -0.5855578609294108 -35.01021 0 0 0
93 1 1 -1.7160383821948115 -1.0272352558368574 -34.9716525 0 0 0
94 1 1 -1.419490697995871 -1.4089166612341537 -34.933094999999994 0 0 0
95 1 1 -1.0400372251347805 -1.7083098578226217 -34.8945375 0 0 0
96 1 1 -0.5998400598285516 -1.907928694323999 -34.855979999999995 0 0 0
97 1 1 -0.12460905224251634 -1.9961143714975909 -34.8174225 0 0 0
98 1 1 0.3578997851772719 -1.9677163778781896 -34.778864999999996 0 0 0
99 1 1 0.8195053761058856 -1.8243933069745544 -34.7403075 0 0 0
100 1 1 1.2332475047273144 -1.5745159866079013 -34.70175 0 0 0
101 1 1 1.5749614353905503 -1.2326785781510674 -34.6631925 0 0 0
102 1 1 1.8246892613911194 -0.8188462000668572 -34.624635 0 0 0
103 1 1 1.9678455526203962 -0.35718885905376146 -34.586077499999995 0 0 0
104 1 1 1.9960692220750853 0.12533020659268068 -34.54752 0 0 0
105 1 1 1.9077118577026213 0.6005293231648338 -34.508962499999996 0 0 0
106 1 1 1.7079339984116042 1.040654340821077 -34.470405 0 0 0
107 1 1 1.4084037312174387 1.419999623201639 -34.431847499999996 0 0 0
108 1 1 1.0266152130490531 1.716409392987654 -34.39329 0 0 0
109 1 1 0.5848669191593148 1.9125717468563348 -34.3547325 0 0 0
110 1 1 0.10895929385318484 1.997029762493042 -34.316175 0 0 0
111 1 1 -0.3733121323582372 1.9648506436455027 -34.2776175 0 0 0
112 1 1 -0.8337801492243103 1.8179138215986717 -34.239059999999995 0 0 0
113 1 1 -1.2455509812903234 1.5648011864152944 -34.2005025 0 0 0
114 1 1 -1.58457502708391 1.2202958590202728 -34.161944999999996 0 0 0
115 1 1 -1.8310514834496707 0.8045187784985258 -34.1233875 0 0 0
116 1 1 -1.9705848175175986 0.3417535324896186 -34.08483 0 0 0
117 1 1 -1.9950255422062475 -0.14097193318057336 -34.0462725 0 0 0
118 1 1 -1.90294618950991 -0.6154638899478296 -34.007715 0 0 0
119 1 1 -1.699724682204382 -1.0540094898553867 -33.969157499999994 0 0 0
120 1 1 -1.397230234621306 -1.4309953429204758 -33.9306 0 0 0
121 1 1 -1.0131301275524427 -1.7244034750155113 -33.892042499999995 0 0 0
122 1 1 -0.5698578453078669 -1.9170972943857272 -33.853485 0 0 0
123 1 1 -0.09330284119883235 -1.9978224595354377 -33.814927499999996 0 0 0
124 1 1 0.38870154390643596 -1.9618641924875313 -33.77637 0 0 0
125 1 1 0.8480036963748587 -1.8113226468342343 -33.7378125 0 0 0
126 1 1 1.2577779334186514 -1.5549902476237933 -33.699255 0 0 0
127 1 1 1.594091265308824 -1.2078381670845282 -33.6606975 0 0 0
128 1 1 1.8373012089651175 -0.7901419287288316 -33.62214 0 0 0
129 1 1 1.973203013192083 -0.3262972091968974 -33.5835825 0 0 0
130 1 1 1.9938592915200806 0.15660499870388064 -33.545024999999995 0 0 0
131 1 1 1.8980636076913568 0.6303606437252182 -33.5064675 0 0 0
132 1 1 1.6914109379389057 1.0672998824232256 -33.467909999999996 0 0 0
133 1 1 1.3859708946872205 1.4419031448332116 -33.4293525 0 0 0
134 1 1 0.9995827971445992 1.7322916127640229 -33.390795 0 0 0
135 1 1 0.5548137604049966 1.9215050588705893 -33.3522375 0 0 0
136 1 1 0.07764065618404196 1.9984924139228828 -33.31368 0 0 0
137 1 1 -0.40406707432384315 1.9587572078865134 -33.275122499999995 0 0 0
138 1 1 -0.8621751436881048 1.804620187631291 -33.236565 0 0 0
139 1 1 -1.2699276099101235 1.5450837730000149 -33.198007499999996 0 0 0
140 1 1 -1.6035095654045453 1.195306267722263 -33.15945 0 0 0
141 1 1 -1.8434380539654565 0.7757165340458144 -33.1208925 0 0 0
142 1 1 -1.9756999787865688 0.3108208387845824 -33.082335 0 0 0
143 1 1 -1.9925705416689505 -0.1722284426948832 -33.0437775 0 0 0
144 1 1 -1.8930644122240956 -0.6452186692669697 -33.005219999999994 0 0 0
145 1 1 -1.6829932763968287 -1.0805247019865247 -32.9666625 0 0 0
146 1 1 -1.3746264031689759 -1.4527223587839226 -32.928105 0 0 0
147 1 1 -0.9859740541493763 -1.7400733216000535 -32.8895475 0 0 0
148 1 1 -0.5397355887324751 -1.925794769505725 -32.850989999999996 0 0 0
149 1 1 -0.061973701065554436 -1.9990395844945736 -32.8124325 0 0 0
150 1 1 0.41940777957959907 -1.955529880730057 -32.773875 0 0 0
151 1 1 0.8762936204955438 -1.797806855777008 -32.7353175 0 0 0
152 1 1 1.2819992643102422 -1.5350823711801258 -32.69676 0 0 0
153 1 1 1.6128293487274847 -1.1827009308710623 -32.6582025 0 0 0
154 1 1 1.8494616414138514 -0.7612434807200534 -32.619645 0 0 0
155 1 1 1.978075560891932 -0.2953253720933381 -32.581087499999995 0 0 0
156 1 1 1.9911593718313536 0.1878413052770056 -32.54253 0 0 0
157 1 1 1.8879489102498024 0.6600370537224285 -32.503972499999996 0 0 0
158 1 1 1.6744722147442774 1.0936831360359338 -32.465415 0 0 0
159 1 1 1.3631974570519128 1.4634523200593859 -32.4268575 0 0 0
160 1 1 0.9723047346637024 1.7477481234292735 -32.3883 0 0 0
161 1 1 0.5246242566663517 1.9299661627389424 -32.3497425 0 0 0
162 1 1 0.04630293839322687 1.999463937633323 -32.311184999999995 0 0 0
163 1 1 -0.43472271716809985 1.9521824092993934 -32.2726275 0 0 0
164 1 1 -0.8903582593831105 1.790883069870358 -32.234069999999996 0 0 0
165 1 1 -1.293992154958059 1.5249866566324435 -32.1955125 0 0 0
166 1 1 -1.6220500426867526 1.1700229309803736 -32.156954999999996 0 0 0
167 1 1 -1.855371601231817 0.7467236579501706 -32.1183975 0 0 0
168 1 1 -1.98032961355664 0.2798117611370357 -32.07984 0 0 0
169 1 1 -1.9896258687070505 -0.2034426272237824 -32.0412825 0 0 0
170 1 1 -1.882717416055801 -0.6748148866764633 -32.002725 0 0 0
171 1 1 -1.6658482765001241 -1.1067743761406685 -31.9641675 0 0 0
172 1 1 -1.3516847585101732 -1.4740923694298451 -31.92561 0 0 0
173 1 1 -0.9585756785062541 -1.7553155467255095 -31.8870525 0 0 0
174 1 1 -0.5094806926199367 -1.9340189822872758 -31.848495 0 0 0
175 1 1 -0.030629330950803113 -1.9997654472676305 -31.809937499999997 0 0 0
176 1 1 0.45001094616684695 -1.9487149992572077 -31.77138 0 0 0
177 1 1 0.9043681962444328 -1.7838492552964198 -31.732822499999997 0 0 0
178 1 1 1.3059055450317363 -1.5147972496196855 -31.694264999999998 0 0 0
179 1 1 1.631171080779337 -1.1572730469639263 -31.6557075 0 0 0
180 1 1 1.8611675703219495 -0.7321579578082118 -31.61715 0 0 0
181 1 1 1.9824619982957117 -0.26428095904429755 -31.5785925 0 0 0
182 1 1 1.9879701265117455 0.2190314500177418 -31.540035 0 0 0
183 1 1 1.8773702510557901 0.6895512602053014 -31.5014775 0 0 0
184 1 1 1.657121991503773 1.1197976179982567 -31.462919999999997 0 0 0
185 1 1 1.340089014863438 1.4846418531896308 -31.424362499999997 0 0 0
186 1 1 0.944787729165786 1.7627751265597542 -31.385804999999998 0 0 0
187 1 1 0.4943058269868705 1.9379529791527002 -31.347247499999998 0 0 0
188 1 1 0.014953841696804615 1.999944094873281 -31.30869 0 0 0
189 1 1 -0.4652715272942978 1.945127863634993 -31.2701325 0 0 0
190 1 1 -0.9183225703339458 1.7767058442002308 -31.231575 0 0 0
191 1 1 -1.317738702593787 1.5045147761608866 -31.193017499999996 0 0 0
192 1 1 -1.6401919026248797 1.1444520621519179 -31.15446 0 0 0
193 1 1 -1.8668491925902166 0.7175472751848874 -31.115902499999997 0 0 0
194 1 1 -1.984472584099222 0.24873391999998093 -31.077344999999998 0 0 0
195 1 1 -1.98619224697129 -0.23460681590938018 -31.038787499999998 0 0 0
196 1 1 -1.8719077437700626 -0.7042452689324036 -31.00023 0 0 0
197 1 1 -1.6482938958826374 -1.1327520614839053 -30.9616725 0 0 0
198 1 1 -1.328410938533551 -1.4951001231972425 -30.923115 0 0 0
199 1 1 -0.9309417337493447 -1.7701264046287102 -30.8845575 0 0 0
200 1 1 -0.4791005920838526 -1.9417679116374598 -30.845999999999997 0 0 0
201 1 1 0.0007225662945894027 -1.9999998694744832 -30.8074425 0 0 0
202 1 1 0.48050352296746296 -1.9414212228199879 -30.768884999999997 0 0 0
203 1 1 0.9322205243197251 -1.7694532754602639 -30.730327499999998 0 0 0
204 1 1 1.3294909006360687 -1.494139867992918 -30.691769999999998 0 0 0
205 1 1 1.6491119540001562 -1.1315607642428163 -30.6532125 0 0 0
206 1 1 1.872416118967872 -0.7028925077344981 -30.614655 0 0 0
207 1 1 1.9863612474403602 -0.23317159918647046 -30.5760975 0 0 0
208 1 1 1.984292339315436 0.25016776797596185 -30.53754 0 0 0
209 1 1 1.8663302298053353 0.7188960100840485 -30.498982499999997 0 0 0
210 1 1 1.6393645320191865 1.1456369106996829 -30.460425 0 0 0
211 1 1 1.3166512470007303 1.505466536915192 -30.421867499999998 0 0 0
212 1 1 0.9170385429302493 1.7773689292829347 -30.383309999999998 0 0 0
213 1 1 0.46386592209347133 1.945463545358888 -30.3447525 0 0 0
214 1 1 -0.016398929892796753 1.9999327676445453 -30.306195 0 0 0
215 1 1 -0.4957059973596614 1.937595304541602 -30.2676375 0 0 0
216 1 1 -0.946061204336247 1.7620919946614166 -30.229079999999996 0 0 0
217 1 1 -1.3411614171244677 1.4836731625316575 -30.1905225 0 0 0
218 1 1 -1.6579306868730916 1.1185999452550133 -30.151964999999997 0 0 0
219 1 1 -1.8778680074328609 0.688194555819891 -30.1134075 0 0 0
220 1 1 -1.9881278722830154 0.2175949527250353 -30.074849999999998 0 0 0
221 1 1 -1.9822705202711284 -0.2657133501802829 -30.0362925 0 0 0
222 1 1 -1.860638051834146 -0.7335025835447574 -29.997735 0 0 0
223 1 1 -1.6303344485176545 -1.1584513740233706 -29.9591775 0 0 0
224 1 1 -1.3048106627594867 -1.5157404574494768 -29.92062 0 0 0
225 1 1 -0.903079010895803 -1.7845022555546008 -29.882062499999996 0 0 0
226 1 1 -0.4486027530067129 -1.9490396532638319 -29.843505 0 0 0
227 1 1 0.03207428596994848 -1.9997427935060843 -29.804947499999997 0 0 0
228 1 1 0.5108780164579746 -1.9336503438574322 -29.76639 0 0 0
229 1 1 0.9598437600367485 -1.7546224540676882 -29.727832499999998 0 0 0
230 1 1 1.3527495350432401 -1.4731153028328428 -29.689275 0 0 0
231 1 1 1.6666475594364467 -1.10557040147814 -29.6507175 0 0 0
232 1 1 1.8832045230308672 -0.6734543224570497 -29.61216 0 0 0
233 1 1 1.9897723500889004 -0.20200493761711516 -29.5736025 0 0 0
234 1 1 1.980126914055332 0.28124260742943624 -29.535044999999997 0 0 0
235 1 1 1.8548315595737699 0.7480640919126763 -29.4964875 0 0 0
236 1 1 1.621204200170286 1.1711946641571689 -29.457929999999998 0 0 0
237 1 1 1.2928899132742129 1.525921253588729 -29.419372499999998 0 0 0
238 1 1 0.8890639952947873 1.79152594518485 -29.380815 0 0 0
239 1 1 0.4333120225654973 1.9524960156425923 -29.3422575 0 0 0
240 1 1 -0.047747671460090124 1.9994299587307727 -29.3037 0 0 0
241 1 1 -0.5260186481205205 1.9295865831388495 -29.2651425 0 0 0
242 1 1 -0.973567344645571 1.7470451125943405 -29.226585 0 0 0
243 1 1 -1.3642545424390315 1.462466937552596 -29.188027499999997 0 0 0
244 1 1 -1.6752620361410753 1.0924729334241918 -29.14947 0 0 0
245 1 1 -1.8884253378958742 0.6586727132596686 -29.110912499999998 0 0 0
246 1 1 -1.9912945798242254 0.18640251168549563 -29.072354999999998 0 0 0
247 1 1 -1.977861652367394 -0.2967545856335191 -29.0337975 0 0 0
248 1 1 -1.848911109764753 -0.7625796405546567 -28.99524 0 0 0
249 1 1 -1.6119743479232755 -1.1838659981760313 -28.9566825 0 0 0
250 1 1 -1.2808897309345766 -1.5360082998429234 -28.918124999999996 0 0 0
251 1 1 -0.8749943571847956 -1.7984395666507025 -28.8795675 0 0 0
252 1 1 -0.41799467020510667 -1.955832420142412 -28.841009999999997 0 0 0
253 1 1 0.06341812341829399 -1.9989942825386224 -28.8024525 0 0 0
254 1 1 0.5411269621338874 -1.9254042720560662 -28.763894999999998 0 0 0
255 1 1 0.987231115010085 -1.7393604357797565 -28.7253375 0 0 0
256 1 1 1.375675732464682 -1.451728720907512 -28.68678 0 0 0
257 1 1 1.6837735877288738 -1.079308345778275 -28.6482225 0 0 0
258 1 1 1.893530131270316 -0.6438506363834855 -28.609665 0 0 0
259 1 1 1.9926944679659075 -0.17078863351543294 -28.571107499999997 0 0 0
260 1 1 1.9754748743809576 0.31224833176422256 -28.53255 0 0 0
261 1 1 1.8428770661489857 0.7770483376612466 -28.493992499999997 0 0 0
262 1 1 1.6026454588423287 1.1964645975757335 -28.455435 0 0 0
263 1 1 1.2688108530103825 1.546000976481925 -28.4168775 0 0 0
264 1 1 0.8608709609793688 1.805242695191552 -28.37832 0 0 0
265 1 1 0.40265163699637085 1.9590486617805447 -28.3397625 0 0 0
266 1 1 -0.07908467907990593 1.9984357916968032 -28.301205 0 0 0
267 1 1 -0.5562020302701206 1.9211036675628403 -28.2626475 0 0 0
268 1 1 -1.0008342316525793 1.7315688957567907 -28.224089999999997 0 0 0
269 1 1 -1.3870124034226212 1.4409013126344927 -28.1855325 0 0 0
270 1 1 -1.692181691265267 1.066077447349216 -28.146974999999998 0 0 0
271 1 1 -1.8985185895247767 0.6289890024705143 -28.108417499999998 0 0 0
272 1 1 -1.9939719285073114 0.15516426239580264 -28.06986 0 0 0
273 1 1 -1.9729667267354167 -0.32772289391334164 -28.0313025 0 0 0
274 1 1 -1.83672979944737 -0.7914692943014433 -27.992745 0 0 0
275 1 1 -1.593218106077773 -1.2089896883207705 -27.9541875 0 0 0
276 1 1 -1.256654021606396 -1.555898669573463 -27.91563 0 0 0
277 1 1 -0.8466946743948116 -1.8119349128352993 -27.877072499999997 0 0 0
278 1 1 -0.38728386558796113 -1.9621445429568245 -27.838515 0 0 0
279 1 1 0.09474637591963919 -1.9977545205179976 -27.799957499999998 0 0 0
280 1 1 0.5712429263438736 -1.9166850338806551 -27.7614 0 0 0
281 1 1 1.0143758588217864 -1.7236709712237899 -27.7228425 0 0 0
282 1 1 1.3982638588079488 -1.429985377950245 -27.684285 0 0 0
283 1 1 1.7004858301713435 -1.0527810510198579 -27.6457275 0 0 0
284 1 1 1.9033904061772486 -0.6140887245931229 -27.607169999999996 0 0 0
285 1 1 1.9951268829635358 -0.13953035826014834 -27.5686125 0 0 0
286 1 1 1.9703373635268953 0.3431773213513432 -27.530054999999997 0 0 0
287 1 1 1.8304696873370325 0.8058416244773329 -27.4914975 0 0 0
288 1 1 1.5836928688293608 1.2214405008918892 -27.452939999999998 0 0 0
289 1 1 1.2444199836167054 1.5657007710208866 -27.4143825 0 0 0
290 1 1 0.8324663683969321 1.818515808424008 -27.375825 0 0 0
291 1 1 0.37189230014837765 1.9651198734658273 -27.3372675 0 0 0
292 1 1 -0.11040225171072429 1.9969505108582941 -27.29871 0 0 0
293 1 1 -0.5862487262692846 1.9121486424824932 -27.260152499999997 0 0 0
294 1 1 -1.0278551645442429 1.7156671474151761 -27.221595 0 0 0
295 1 1 -1.4094294073512885 1.4189815875103509 -27.183037499999998 0 0 0
296 1 1 -1.7086854942556085 1.0394199736970937 -27.14448 0 0 0
297 1 1 -1.9081452819120002 0.5991507181978286 -27.1059225 0 0 0
298 1 1 -1.9961592603762373 0.12388788162767685 -27.067365 0 0 0
299 1 1 -1.9675869462987874 -0.3586106645857209 -27.0288075 0 0 0
300 1 1 -1.8240971144281104 -0.8201644451785514 -26.99025 0 0 0
301 1 1 -1.5740703323107434 -1.233816270333288 -26.9516925 0 0 0
302 1 1 -1.232109490678812 -1.5754066786005443 -26.913134999999997 0 0 0
303 1 1 -0.8181869171475181 -1.8249849776391696 -26.8745775 0 0 0
304 1 1 -0.3564778863079977 -1.9679744705085436 -26.836019999999998 0 0 0
305 1 1 0.1260513445840551 -1.996023812114613 -26.7974625 0 0 0
306 1 1 0.6012185081167227 -1.9074947720761655 -26.758905 0 0 0
307 1 1 1.0412713206754283 -1.7075579160716188 -26.7203475 0 0 0
308 1 1 1.4205083630612176 -1.4078906173681036 -26.68179 0 0 0
309 1 1 1.71678017974527 -1.025995036261774 -26.6432325 0 0 0
310 1 1 1.9127829245979313 -0.5841759010491483 -26.604675 0 0 0
311 1 1 1.9970689973179816 -0.10823779354435902 -26.566117499999997 0 0 0
312 1 1 1.9647156440318307 0.374021975419344 -26.52756 0 0 0
313 1 1 1.8176124722401374 0.8344368764364957 -26.489002499999998 0 0 0
314 1 1 1.564351087713416 1.246116236299749 -26.450445 0 0 0
315 1 1 1.2197232991274838 1.5850157959987548 -26.4118875 0 0 0
316 1 1 0.8038571979506053 1.8313420230265567 -26.37333 0 0 0
317 1 1 0.34104157110096345 1.9707081587036135 -26.3347725 0 0 0
318 1 1 -0.14169269308719898 1.9949744812216763 -26.296214999999997 0 0 0
319 1 1 -0.6161513521694438 1.9027237085871838 -26.2576575 0 0 0
320 1 1 -1.0546235029505475 1.6993437754098837 -26.219099999999997 0 0 0
321 1 1 -1.431500045266422 1.3967131489329627 -26.1805425 0 0 0
322 1 1 -1.724769389317278 1.0125070635181288 -26.141985 0 0 0
323 1 1 -1.917303049306533 0.5691651931731861 -26.1034275 0 0 0
324 1 1 -1.997856037896153 0.09258105552371457 -26.06487 0 0 0
325 1 1 -1.961723633133719 -0.38941030700874163 -26.0263125 0 0 0
326 1 1 -1.8110161591779843 -0.8486580413784 -25.987755 0 0 0
327 1 1 -1.554535732170444 -1.2583396431032845 -25.949197499999997 0 0 0
328 1 1 -1.2072621699482775 -1.5945275328484536 -25.91064 0 0 0
329 1 1 -0.78947809119868 -1.837586554020596 -25.872082499999998 0 0 0
330 1 1 -0.32558430290699814 -1.9733207700981015 -25.833525 0 0 0
331 1 1 0.15732533624352377 -1.9938025826485084 -25.7949675 0 0 0
332 1 1 0.631046340980096 -1.8978357451411945 -25.75641 0 0 0
333 1 1 1.0679108910353186 -1.6910252300921331 -25.7178525 0 0 0
334 1 1 1.4424037786575168 -1.3854498689286876 -25.679295 0 0 0
335 1 1 1.732652632128835 -0.9989568841431646 -25.6407375 0 0 0
336 1 1 1.9217053783293905 -0.5541195168011087 -25.602179999999997 0 0 0
337 1 1 1.9985203337563795 -0.07691862948785194 -25.5636225 0 0 0
338 1 1 1.958611097428285 0.4047747139221627 -25.525064999999998 0 0 0
339 1 1 1.804308580507381 0.86282706628121 -25.486507500000002 0 0 0
340 1 1 1.544624868719832 1.270485739759499 -25.44795 0 0 0
341 1 1 1.1947268687307837 1.6039413047654631 -25.4093925 0 0 0
342 1 1 0.7750504803184342 1.8437181869684327 -25.370835 0 0 0
343 1 1 0.31010703139313905 1.975812144177815 -25.3322775 0 0 0
344 1 1 -0.17294831361129498 1.992508188394469 -25.29372 0 0 0
345 1 1 -0.6459025594270861 1.892831182045969 -25.255162499999997 0 0 0
346 1 1 -1.0811326685762745 1.6826027911949817 -25.216605 0 0 0
347 1 1 -1.4532188933285555 1.3741014693511278 -25.178047499999998 0 0 0
348 1 1 -1.7404294238475098 0.9853453306358262 -25.13949 0 0 0
349 1 1 -1.9259896411952544 0.5390397963124575 -25.1009325 0 0 0
350 1 1 -1.9990618440855061 0.061251477708341065 -25.062375 0 0 0
351 1 1 -1.9553782281441763 -0.4201142521978295 -25.0238175 0 0 0
352 1 1 -1.7974901483300192 -0.8769430806252625 -24.98526 0 0 0
353 1 1 -1.5346191062673675 -1.2825537800338613 -24.9467025 0 0 0
354 1 1 -1.182118165621591 -1.6132565333843978 -24.908144999999998 0 0 0
355 1 1 -0.7605752517165933 -1.8497365451534553 -24.8695875 0 0 0
356 1 1 -0.29461070745536394 -1.9781821278771705 -24.83103 0 0 0
357 1 1 0.18856066534259858 -1.991091377984837 -24.7924725 0 0 0
358 1 1 0.6607190947708298 -1.887710326772944 -24.753915 0 0 0
359 1 1 1.094288023250944 -1.6740769761780792 -24.7153575 0 0 0
360 1 1 1.4639447248181088 -1.3626686474257899 -24.6768 0 0 0
361 1 1 1.748099286681079 -0.9716732392657024 -24.638242499999997 0 0 0
362 1 1 1.9301555746866264 -0.5239269581784652 -24.599685 0 0 0
363 1 1 1.9994805356141025 -0.04558056274709317 -24.561127499999998 0 0 0
364 1 1 1.9520252239031255 0.4354279794018212 -24.52257 0 0 0
365 1 1 1.7905612815582193 0.8910052171477941 -24.4840125 0 0 0
366 1 1 1.5245190595492806 1.2945430224874632 -24.445455 0 0 0
367 1 1 1.1694368352769466 1.6224726463942125 -24.4068975 0 0 0
368 1 1 0.7460532947254306 1.855641258818452 -24.36834 0 0 0
369 1 1 0.27909628316028173 1.9804305755885805 -24.3297825 0 0 0
370 1 1 -0.20416143224234082 1.9895522384659208 -24.291224999999997 0 0 0
371 1 1 -0.6754950367097216 1.8824734939383694 -24.2526675 0 0 0
372 1 1 -1.1073761468177574 1.665448308852321 -24.214109999999998 0 0 0
373 1 1 -1.4745806141502062 1.3511521055648772 -24.175552500000002 0 0 0
374 1 1 -1.755661749406826 0.9579414500217449 -24.136995 0 0 0
375 1 1 -1.9342029228559778 0.5087819309049728 -24.0984375 0 0 0
376 1 1 -1.9997763826185069 0.029906847397194233 -24.05988 0 0 0
377 1 1 -1.9485522907077433 -0.45071495468600337 -24.0213225 0 0 0
378 1 1 -1.7835224058892314 -0.9050126118961478 -23.982765 0 0 0
379 1 1 -1.51432534909446 -1.3064527305225941 -23.944207499999997 0 0 0
380 1 1 -1.1566836568152552 -1.631589077573299 -23.90565 0 0 0
381 1 1 -0.7314855015481283 -1.8614319651883287 -23.8670925 0 0 0
382 1 1 -0.2635647116864427 -1.9825573491714288 -23.828535 0 0 0
383 1 1 0.21974965582717923 -1.9878908643997126 -23.7899775 0 0 0
384 1 1 0.690229477436223 -1.8771210052839211 -23.75142 0 0 0
385 1 1 1.120396235165705 -1.6567173193476652 -23.7128625 0 0 0
386 1 1 1.4851259078747434 -1.339552551324217 -23.674305 0 0 0
387 1 1 1.7631163474005054 -0.9441508065606364 -23.6357475 0 0 0
388 1 1 1.938131437041443 -0.4936056449754913 -23.597189999999998 0 0 0
389 1 1 1.999949366922405 -0.014231294623866386 -23.5586325 0 0 0
390 1 1 1.9449596419288622 0.4659742388458316 -23.520075 0 0 0
391 1 1 1.7763739537790582 0.918964404280904 -23.4815175 0 0 0
392 1 1 1.5040386011863265 1.3182821724279967 -23.44296 0 0 0
393 1 1 1.1438594137690719 1.640605266824374 -23.4044025 0 0 0
394 1 1 0.7168727672039626 1.8671083084923952 -23.365845 0 0 0
395 1 1 0.2480169472660017 1.9845623179605254 -23.327287499999997 0 0 0
396 1 1 -0.23532437838441034 1.9861073578580768 -23.28873 0 0 0
397 1 1 -0.7049215116925294 1.8716531896569726 -23.250172499999998 0 0 0
398 1 1 -1.133347488363764 1.6478845440805456 -23.211615000000002 0 0 0
399 1 1 -1.495579958107668 1.3278706973597487 -23.1730575 0 0 0
400 1 1 -1.7704626226649018 0.930302156154933 -23.1345 0 0 0
401 1 1 -1.941940875882105 0.47839903279400803 -23.0959425 0 0 0
402 1 1 -1.99999947789795 -0.0014451324948654663 -23.057385 0 0 0
403 1 1 -1.9412474982924266 -0.48120489437805514 -23.0188275 0 0 0
404 1 1 -1.7691163644158567 -0.932859737128804 -22.980269999999997 0 0 0
405 1 1 -1.493659447824357 -1.3300306214238216 -22.9417125 0 0 0
406 1 1 -1.130964894037057 -1.6495206602088222 -22.903154999999998 0 0 0
407 1 1 -0.7022159894732881 -1.8726699399862354 -22.864597500000002 0 0 0
408 1 1 -0.23245394512589512 -1.9864453587741615 -22.82604 0 0 0
409 1 1 0.250884643030838 -1.9842018284164766 -22.7874825 0 0 0
410 1 1 0.7195702368262139 -1.8660703829903809 -22.748925 0 0 0
411 1 1 1.1462291107099492 -1.6389505257209807 -22.7103675 0 0 0
412 1 1 1.5059421225707086 -1.3161072613838238 -22.67181 0 0 0
413 1 1 1.777700123857916 -0.9163963496411094 -22.633252499999998 0 0 0
414 1 1 1.945631005332824 -0.46316302862770115 -22.594695 0 0 0
415 1 1 1.9999267124664122 0.0171214708272582 -22.5561375 0 0 0
416 1 1 1.9374160878659252 0.4964059855383426 -22.51758 0 0 0
417 1 1 1.7617500836929965 0.9466977567353372 -22.4790225 0 0 0
418 1 1 1.4831885266852356 1.3416973557063008 -22.440465 0 0 0
419 1 1 1.1180008898355454 1.658334709980747 -22.4019075 0 0 0
420 1 1 0.6875160688424865 1.8781165179730925 -22.36335 0 0 0
421 1 1 0.21687666142929402 1.9882063559216592 -22.3247925 0 0 0
422 1 1 -0.26642949377142167 1.9821743931472589 -22.286235 0 0 0
423 1 1 -0.7341747528457117 1.8603729282818373 -22.247677499999998 0 0 0
424 1 1 -1.1590403107803653 1.6299158131591196 -22.20912 0 0 0
425 1 1 -1.5162117646309483 1.3042629661209837 -22.1705625 0 0 0
426 1 1 -1.7848284063203737 0.9024342413671343 -22.132005 0 0 0
427 1 1 -1.9492015986786224 0.44789856854951265 -22.0934475 0 0 0
428 1 1 -1.9997310750983712 -0.03279675724690988 -22.05489 0 0 0
429 1 1 -1.9334656460444073 -0.5115765783986623 -22.0163325 0 0 0
430 1 1 -1.7542755641816634 -0.9604776129171917 -21.977775 0 0 0
431 1 1 -1.4726264810837528 -1.3532816584920093 -21.939217499999998 0 0 0
432 1 1 -1.10496819764985 -1.6670468746206395 -21.90066 0 0 0
433 1 1 -0.6727739084484561 -1.8834477078249314 -21.8621025 0 0 0
434 1 1 -0.20128605321668977 -1.9898452012104981 -21.823545 0 0 0
435 1 1 0.2819579755583207 -1.9800251766124222 -21.7849875 0 0 0
436 1 1 0.7487341624754814 -1.8545611755728468 -21.74643 0 0 0
437 1 1 1.1717803014776194 -1.6207809614716664 -21.7078725 0 0 0
438 1 1 1.526388253339863 -1.2923385392636413 -21.669315 0 0 0
439 1 1 1.7918470321032791 -0.8884166891401075 -21.6307575 0 0 0
440 1 1 1.9526524365485896 -0.4326065903807477 -21.5922 0 0 0
441 1 1 1.9994125778134368 0.048470028692245155 -21.5536425 0 0 0
442 1 1 1.9293964155359704 0.526715740904854 -21.515085 0 0 0
443 1 1 1.7466932651029876 0.974198459064612 -21.4765275 0 0 0
444 1 1 1.4619739599331663 1.3647828180620303 -21.43797 0 0 0
445 1 1 1.0918676181854463 1.6756566188685678 -21.3994125 0 0 0
446 1 1 0.6579904140233643 1.8886631820029112 -21.360855 0 0 0
447 1 1 0.1856830783473779 1.9913617939529324 -21.3222975 0 0 0
448 1 1 -0.29746913434914896 1.9777543108560194 -21.28374 0 0 0
449 1 1 -0.7632475712114228 1.848635481927106 -21.2451825 0 0 0
450 1 1 -1.1844483000794583 1.6115465318875783 -21.206625 0 0 0