LAMMPS data file via write_data, version 29 Sep 2021, timestep = 102000000

405 atoms
3 atom types
405 bonds
2 bond types

-15.5 15.5 xlo xhi
-15.5 15.5 ylo yhi
-113 113 zlo zhi

Atoms # bond

1 1 2 -3.8896039603960397 -3.8896039603960397 -1.9448019801980199
2 1 1 -2.91720297029703 -3.8896039603960397 -1.9448019801980199
3 1 1 -1.9448019801980199 -3.8896039603960397 -1.9448019801980199
4 1 1 -0.9724009900990099 -3.8896039603960397 -1.9448019801980199
5 1 1 0.0 -3.8896039603960393 -1.9448019801980199
6 1 1 0.9724009900990099 -3.8896039603960397 -1.9448019801980199
7 1 1 1.9448019801980199 -3.8896039603960397 -1.9448019801980199
8 1 1 2.91720297029703 -3.8896039603960397 -1.9448019801980199
9 1 1 3.8896039603960393 -3.8896039603960397 -1.9448019801980199
10 1 1 3.8896039603960397 -2.91720297029703 -1.9448019801980199
11 1 1 2.91720297029703 -2.91720297029703 -1.9448019801980199
12 1 1 1.9448019801980199 -2.91720297029703 -1.9448019801980199
13 1 1 0.9724009900990099 -2.91720297029703 -1.9448019801980199
14 1 1 0.0 -2.91720297029703 -1.9448019801980199
15 1 1 -0.9724009900990099 -2.91720297029703 -1.9448019801980199
16 1 1 -1.9448019801980199 -2.91720297029703 -1.9448019801980199
17 1 1 -2.91720297029703 -2.91720297029703 -1.9448019801980199
18 1 1 -3.8896039603960397 -2.91720297029703 -1.9448019801980199
19 1 1 -3.8896039603960397 -1.9448019801980199 -1.9448019801980199
20 1 1 -2.91720297029703 -1.9448019801980199 -1.9448019801980199
21 1 1 -1.9448019801980199 -1.9448019801980199 -1.9448019801980199
22 1 1 -0.9724009900990099 -1.9448019801980196 -1.9448019801980199
23 1 1 0.0 -1.9448019801980196 -1.9448019801980199
24 1 1 0.9724009900990099 -1.9448019801980199 -1.9448019801980199
25 1 1 1.9448019801980199 -1.9448019801980199 -1.9448019801980199
26 1 1 2.91720297029703 -1.9448019801980199 -1.9448019801980199
27 1 1 3.8896039603960393 -1.9448019801980199 -1.9448019801980199
28 1 1 3.8896039603960397 -0.9724009900990099 -1.9448019801980199
29 1 1 2.91720297029703 -0.9724009900990099 -1.9448019801980199
30 1 1 1.9448019801980199 -0.9724009900990099 -1.9448019801980199
31 1 1 0.9724009900990099 -0.9724009900990099 -1.9448019801980199
32 1 1 0.0 -0.9724009900990099 -1.9448019801980199
33 1 1 -0.9724009900990099 -0.9724009900990099 -1.9448019801980199
34 1 1 -1.9448019801980199 -0.9724009900990098 -1.9448019801980199
35 1 1 -2.91720297029703 -0.9724009900990099 -1.9448019801980199
36 1 1 -3.8896039603960397 -0.9724009900990099 -1.9448019801980199
37 1 1 -3.8896039603960397 0.0 -1.9448019801980199
38 1 1 -2.91720297029703 0.0 -1.9448019801980199
39 1 1 -1.9448019801980199 0.0 -1.9448019801980199
40 1 1 -0.9724009900990099 0.0 -1.9448019801980199
41 1 1 0.0 0.0 -1.9448019801980199
42 1 1 0.9724009900990099 0.0 -1.9448019801980199
43 1 1 1.9448019801980199 0.0 -1.9448019801980199
44 1 1 2.91720297029703 0.0 -1.9448019801980199
45 1 1 3.8896039603960397 0.0 -1.9448019801980199
46 1 1 3.8896039603960397 0.9724009900990099 -1.9448019801980199
47 1 1 2.91720297029703 0.9724009900990099 -1.9448019801980199
48 1 1 1.9448019801980199 0.9724009900990098 -1.9448019801980199
49 1 1 0.9724009900990099 0.9724009900990099 -1.9448019801980199
50 1 1 0.0 0.9724009900990099 -1.9448019801980199
51 1 1 -0.9724009900990099 0.9724009900990099 -1.9448019801980199
52 1 1 -1.9448019801980199 0.9724009900990099 -1.9448019801980199
53 1 1 -2.91720297029703 0.9724009900990099 -1.9448019801980199
54 1 1 -3.8896039603960397 0.9724009900990099 -1.9448019801980199
55 1 1 -3.8896039603960397 1.9448019801980199 -1.9448019801980199
56 1 1 -2.91720297029703 1.9448019801980199 -1.9448019801980199
57 1 1 -1.9448019801980199 1.9448019801980199 -1.9448019801980196
58 1 1 -0.9724009900990099 1.9448019801980199 -1.9448019801980199
59 1 1 0.0 1.9448019801980196 -1.9448019801980196
60 1 1 0.9724009900990099 1.9448019801980196 -1.9448019801980199
61 1 1 1.9448019801980199 1.9448019801980199 -1.9448019801980199
62 1 1 2.91720297029703 1.9448019801980199 -1.9448019801980199
63 1 1 3.8896039603960397 1.9448019801980199 -1.9448019801980199
64 1 1 3.8896039603960397 2.91720297029703 -1.9448019801980199
65 1 1 2.91720297029703 2.91720297029703 -1.9448019801980199
66 1 1 1.9448019801980199 2.91720297029703 -1.9448019801980199
67 1 1 0.9724009900990099 2.91720297029703 -1.9448019801980199
68 1 1 0.0 2.91720297029703 -1.9448019801980199
69 1 1 -0.9724009900990099 2.91720297029703 -1.9448019801980199
70 1 1 -1.9448019801980199 2.91720297029703 -1.9448019801980199
71 1 1 -2.91720297029703 2.91720297029703 -1.9448019801980199
72 1 1 -3.8896039603960397 2.91720297029703 -1.9448019801980199
73 1 1 -3.8896039603960397 3.8896039603960397 -1.9448019801980199
74 1 1 -2.91720297029703 3.8896039603960397 -1.9448019801980199
75 1 1 -1.9448019801980199 3.8896039603960397 -1.9448019801980196
76 1 1 -0.9724009900990099 3.8896039603960397 -1.9448019801980199
77 1 1 0.0 3.8896039603960397 -1.9448019801980199
78 1 1 0.9724009900990099 3.8896039603960397 -1.9448019801980199
79 1 1 1.9448019801980199 3.8896039603960397 -1.9448019801980199
80 1 1 2.91720297029703 3.8896039603960397 -1.9448019801980199
81 1 1 3.8896039603960397 3.8896039603960397 -1.9448019801980199
82 1 2 3.8896039603960397 3.8896039603960397 -0.9724009900990099
83 1 1 2.91720297029703 3.8896039603960397 -0.9724009900990099
84 1 1 1.9448019801980199 3.8896039603960397 -0.9724009900990099
85 1 1 0.9724009900990099 3.8896039603960397 -0.9724009900990098
86 1 1 0.0 3.8896039603960397 -0.9724009900990099
87 1 1 -0.9724009900990099 3.8896039603960397 -0.9724009900990099
88 1 1 -1.9448019801980199 3.8896039603960397 -0.9724009900990099
89 1 1 -2.91720297029703 3.8896039603960397 -0.9724009900990099
90 1 1 -3.8896039603960397 3.8896039603960397 -0.9724009900990099
91 1 1 -3.8896039603960397 2.91720297029703 -0.9724009900990099
92 1 1 -2.91720297029703 2.91720297029703 -0.9724009900990099
93 1 1 -1.9448019801980199 2.91720297029703 -0.9724009900990099
94 1 1 -0.9724009900990099 2.91720297029703 -0.9724009900990099
95 1 1 0.0 2.91720297029703 -0.9724009900990099
96 1 1 0.9724009900990099 2.91720297029703 -0.9724009900990099
97 1 1 1.9448019801980199 2.91720297029703 -0.9724009900990099
98 1 1 2.91720297029703 2.91720297029703 -0.9724009900990099
99 1 1 3.8896039603960397 2.91720297029703 -0.9724009900990099
100 1 1 3.8896039603960397 1.9448019801980199 -0.9724009900990099
101 1 1 2.91720297029703 1.9448019801980199 -0.9724009900990099
102 1 1 1.9448019801980199 1.9448019801980199 -0.9724009900990099
103 1 1 0.9724009900990099 1.9448019801980196 -0.9724009900990099
104 1 1 0.0 1.9448019801980196 -0.9724009900990099
105 1 1 -0.9724009900990099 1.9448019801980199 -0.9724009900990098
106 1 1 -1.9448019801980199 1.9448019801980199 -0.9724009900990099
107 1 1 -2.91720297029703 1.9448019801980199 -0.9724009900990098
108 1 1 -3.8896039603960397 1.9448019801980199 -0.9724009900990099
109 1 1 -3.8896039603960397 0.9724009900990099 -0.9724009900990099
110 1 1 -2.91720297029703 0.9724009900990099 -0.9724009900990099
111 1 1 -1.9448019801980199 0.9724009900990099 -0.9724009900990099
112 1 1 -0.9724009900990099 0.9724009900990099 -0.9724009900990099
113 1 1 0.0 0.9724009900990099 -0.9724009900990099
114 1 1 0.9724009900990099 0.9724009900990099 -0.9724009900990099
115 1 1 1.9448019801980199 0.9724009900990098 -0.9724009900990099
116 1 1 2.91720297029703 0.9724009900990099 -0.9724009900990099
117 1 1 3.8896039603960397 0.9724009900990099 -0.9724009900990099
118 1 1 3.8896039603960397 0.0 -0.9724009900990099
119 1 1 2.91720297029703 0.0 -0.9724009900990099
120 1 1 1.9448019801980199 0.0 -0.9724009900990099
121 1 1 0.9724009900990099 0.0 -0.9724009900990099
122 1 1 0.0 0.0 -0.9724009900990099
123 1 1 -0.9724009900990099 0.0 -0.9724009900990099
124 1 1 -1.9448019801980199 0.0 -0.9724009900990099
125 1 1 -2.91720297029703 0.0 -0.9724009900990099
126 1 1 -3.8896039603960397 0.0 -0.9724009900990099
127 1 1 -3.8896039603960397 -0.9724009900990099 -0.9724009900990099
128 1 1 -2.91720297029703 -0.9724009900990099 -0.9724009900990099
129 1 1 -1.9448019801980199 -0.9724009900990098 -0.9724009900990099
130 1 1 -0.9724009900990099 -0.9724009900990099 -0.9724009900990099
131 1 1 0.0 -0.9724009900990099 -0.9724009900990099
132 1 1 0.9724009900990099 -0.9724009900990099 -0.9724009900990099
133 1 1 1.9448019801980199 -0.9724009900990099 -0.9724009900990099
134 1 1 2.91720297029703 -0.9724009900990099 -0.9724009900990099
135 1 1 3.8896039603960397 -0.9724009900990099 -0.9724009900990099
136 1 1 3.8896039603960397 -1.9448019801980199 -0.9724009900990099
137 1 1 2.91720297029703 -1.9448019801980199 -0.9724009900990099
138 1 1 1.9448019801980199 -1.9448019801980199 -0.9724009900990099
139 1 1 0.9724009900990099 -1.9448019801980199 -0.9724009900990099
140 1 1 0.0 -1.9448019801980196 -0.9724009900990099
141 1 1 -0.9724009900990099 -1.9448019801980196 -0.9724009900990099
142 1 1 -1.9448019801980199 -1.9448019801980199 -0.9724009900990099
143 1 1 -2.91720297029703 -1.9448019801980199 -0.9724009900990099
144 1 1 -3.8896039603960397 -1.9448019801980199 -0.9724009900990099
145 1 1 -3.8896039603960397 -2.91720297029703 -0.9724009900990099
146 1 1 -2.91720297029703 -2.91720297029703 -0.9724009900990098
147 1 1 -1.9448019801980199 -2.91720297029703 -0.9724009900990099
148 1 1 -0.9724009900990099 -2.91720297029703 -0.9724009900990099
149 1 1 0.0 -2.91720297029703 -0.9724009900990099
150 1 1 0.9724009900990099 -2.91720297029703 -0.9724009900990098
151 1 1 1.9448019801980199 -2.91720297029703 -0.9724009900990099
152 1 1 2.91720297029703 -2.91720297029703 -0.9724009900990099
153 1 1 3.8896039603960397 -2.91720297029703 -0.9724009900990099
154 1 1 3.8896039603960397 -3.8896039603960397 -0.9724009900990099
155 1 1 2.91720297029703 -3.8896039603960397 -0.9724009900990099
156 1 1 1.9448019801980199 -3.8896039603960397 -0.9724009900990099
157 1 1 0.9724009900990099 -3.8896039603960397 -0.9724009900990099
158 1 1 0.0 -3.8896039603960397 -0.9724009900990099
159 1 1 -0.9724009900990099 -3.8896039603960397 -0.9724009900990099
160 1 1 -1.9448019801980199 -3.8896039603960397 -0.9724009900990099
161 1 1 -2.91720297029703 -3.8896039603960397 -0.9724009900990099
162 1 1 -3.8896039603960397 -3.8896039603960397 -0.9724009900990099
163 1 2 -3.8896039603960397 -3.8896039603960397 0.0
164 1 1 -2.91720297029703 -3.8896039603960397 0.0
165 1 1 -1.9448019801980199 -3.8896039603960397 0.0
166 1 1 -0.9724009900990099 -3.8896039603960397 0.0
167 1 1 0.0 -3.8896039603960397 0.0
168 1 1 0.9724009900990099 -3.8896039603960397 0.0
169 1 1 1.9448019801980199 -3.8896039603960397 0.0
170 1 1 2.91720297029703 -3.8896039603960397 0.0
171 1 1 3.8896039603960397 -3.8896039603960397 0.0
172 1 1 3.8896039603960397 -2.91720297029703 0.0
173 1 1 2.91720297029703 -2.91720297029703 0.0
174 1 1 1.9448019801980199 -2.91720297029703 0.0
175 1 1 0.9724009900990099 -2.91720297029703 0.0
176 1 1 0.0 -2.91720297029703 0.0
177 1 1 -0.9724009900990099 -2.91720297029703 0.0
178 1 1 -1.9448019801980199 -2.91720297029703 0.0
179 1 1 -2.91720297029703 -2.91720297029703 0.0
180 1 1 -3.8896039603960397 -2.91720297029703 0.0
181 1 1 -3.8896039603960397 -1.9448019801980199 0.0
182 1 1 -2.91720297029703 -1.9448019801980199 0.0
183 1 1 -1.9448019801980199 -1.9448019801980199 0.0
184 1 1 -0.9724009900990099 -1.9448019801980196 0.0
185 1 1 0.0 -1.9448019801980196 0.0
186 1 1 0.9724009900990099 -1.9448019801980199 0.0
187 1 1 1.9448019801980199 -1.9448019801980199 0.0
188 1 1 2.91720297029703 -1.9448019801980199 0.0
189 1 1 3.8896039603960397 -1.9448019801980199 0.0
190 1 1 3.8896039603960397 -0.9724009900990099 0.0
191 1 1 2.91720297029703 -0.9724009900990099 0.0
192 1 1 1.9448019801980199 -0.9724009900990099 0.0
193 1 1 0.9724009900990099 -0.9724009900990099 0.0
194 1 1 0.0 -0.9724009900990099 0.0
195 1 1 -0.9724009900990099 -0.9724009900990099 0.0
196 1 1 -1.9448019801980199 -0.9724009900990098 0.0
197 1 1 -2.91720297029703 -0.9724009900990099 0.0
198 1 1 -3.8896039603960397 -0.9724009900990099 0.0
199 1 1 -3.8896039603960397 0.0 0.0
200 1 1 -2.91720297029703 0.0 0.0
201 1 1 -1.9448019801980199 0.0 0.0
202 1 1 -0.9724009900990099 0.0 0.0
203 1 1 0.0 0.0 0.0
204 1 1 0.9724009900990099 0.0 0.0
205 1 1 1.9448019801980199 0.0 0.0
206 1 1 2.91720297029703 0.0 0.0
207 1 1 3.8896039603960397 0.0 0.0
208 1 1 3.8896039603960397 0.9724009900990099 0.0
209 1 1 2.91720297029703 0.9724009900990099 0.0
210 1 1 1.9448019801980199 0.9724009900990098 0.0
211 1 1 0.9724009900990099 0.9724009900990099 0.0
212 1 1 0.0 0.9724009900990099 0.0
213 1 1 -0.9724009900990099 0.9724009900990099 0.0
214 1 1 -1.9448019801980199 0.9724009900990099 0.0
215 1 1 -2.91720297029703 0.9724009900990099 0.0
216 1 1 -3.8896039603960397 0.9724009900990099 0.0
217 1 1 -3.8896039603960397 1.9448019801980199 0.0
218 1 1 -2.91720297029703 1.9448019801980199 0.0
219 1 1 -1.9448019801980199 1.9448019801980199 0.0
220 1 1 -0.9724009900990099 1.9448019801980199 0.0
221 1 1 0.0 1.9448019801980196 0.0
222 1 1 0.9724009900990099 1.9448019801980196 0.0
223 1 1 1.9448019801980199 1.9448019801980199 0.0
224 1 1 2.91720297029703 1.9448019801980199 0.0
225 1 1 3.8896039603960397 1.9448019801980199 0.0
226 1 1 3.8896039603960397 2.91720297029703 0.0
227 1 1 2.91720297029703 2.91720297029703 0.0
228 1 1 1.9448019801980199 2.91720297029703 0.0
229 1 1 0.9724009900990099 2.91720297029703 0.0
230 1 1 0.0 2.91720297029703 0.0
231 1 1 -0.9724009900990099 2.91720297029703 0.0
232 1 1 -1.9448019801980199 2.91720297029703 0.0
233 1 1 -2.91720297029703 2.91720297029703 0.0
234 1 1 -3.8896039603960397 2.91720297029703 0.0
235 1 1 -3.8896039603960397 3.8896039603960397 0.0
236 1 1 -2.91720297029703 3.8896039603960397 0.0
237 1 1 -1.9448019801980199 3.8896039603960397 0.0
238 1 1 -0.9724009900990099 3.8896039603960397 0.0
239 1 1 0.0 3.8896039603960397 0.0
240 1 1 0.9724009900990099 3.8896039603960397 0.0
241 1 1 1.9448019801980199 3.8896039603960397 0.0
242 1 1 2.91720297029703 3.8896039603960397 0.0
243 1 1 3.8896039603960397 3.8896039603960397 0.0
244 1 2 3.8896039603960397 3.8896039603960397 0.9724009900990099
245 1 1 2.91720297029703 3.8896039603960397 0.9724009900990099
246 1 1 1.9448019801980199 3.8896039603960397 0.9724009900990098
247 1 1 0.9724009900990099 3.8896039603960397 0.9724009900990099
248 1 1 0.0 3.8896039603960397 0.9724009900990099
249 1 1 -0.9724009900990099 3.8896039603960397 0.9724009900990099
250 1 1 -1.9448019801980199 3.8896039603960397 0.9724009900990099
251 1 1 -2.91720297029703 3.8896039603960397 0.9724009900990099
252 1 1 -3.8896039603960397 3.8896039603960397 0.9724009900990099
253 1 1 -3.8896039603960397 2.91720297029703 0.9724009900990099
254 1 1 -2.91720297029703 2.91720297029703 0.9724009900990099
255 1 1 -1.9448019801980199 2.91720297029703 0.9724009900990099
256 1 1 -0.9724009900990099 2.91720297029703 0.9724009900990098
257 1 1 0.0 2.91720297029703 0.9724009900990099
258 1 1 0.9724009900990099 2.91720297029703 0.9724009900990099
259 1 1 1.9448019801980199 2.91720297029703 0.9724009900990099
260 1 1 2.91720297029703 2.91720297029703 0.9724009900990098
261 1 1 3.8896039603960397 2.91720297029703 0.9724009900990099
262 1 1 3.8896039603960397 1.9448019801980199 0.9724009900990099
263 1 1 2.91720297029703 1.9448019801980199 0.9724009900990099
264 1 1 1.9448019801980199 1.9448019801980199 0.9724009900990099
265 1 1 0.9724009900990099 1.9448019801980196 0.9724009900990099
266 1 1 0.0 1.9448019801980196 0.9724009900990099
267 1 1 -0.9724009900990099 1.9448019801980199 0.9724009900990099
268 1 1 -1.9448019801980199 1.9448019801980199 0.9724009900990099
269 1 1 -2.91720297029703 1.9448019801980199 0.9724009900990099
270 1 1 -3.8896039603960397 1.9448019801980199 0.9724009900990099
271 1 1 -3.8896039603960397 0.9724009900990099 0.9724009900990099
272 1 1 -2.91720297029703 0.9724009900990099 0.9724009900990099
273 1 1 -1.9448019801980199 0.9724009900990099 0.9724009900990099
274 1 1 -0.9724009900990099 0.9724009900990099 0.9724009900990099
275 1 1 0.0 0.9724009900990099 0.9724009900990099
276 1 1 0.9724009900990099 0.9724009900990099 0.9724009900990099
277 1 1 1.9448019801980199 0.9724009900990098 0.9724009900990099
278 1 1 2.91720297029703 0.9724009900990099 0.9724009900990099
279 1 1 3.8896039603960397 0.9724009900990099 0.9724009900990099
280 1 1 3.8896039603960397 0.0 0.9724009900990099
281 1 1 2.91720297029703 0.0 0.9724009900990099
282 1 1 1.9448019801980199 0.0 0.9724009900990099
283 1 1 0.9724009900990099 0.0 0.9724009900990099
284 1 1 0.0 0.0 0.9724009900990099
285 1 1 -0.9724009900990099 0.0 0.9724009900990099
286 1 1 -1.9448019801980199 0.0 0.9724009900990099
287 1 1 -2.91720297029703 0.0 0.9724009900990099
288 1 1 -3.8896039603960397 0.0 0.9724009900990099
289 1 1 -3.8896039603960397 -0.9724009900990099 0.9724009900990099
290 1 1 -2.91720297029703 -0.9724009900990099 0.9724009900990099
291 1 1 -1.9448019801980199 -0.9724009900990098 0.9724009900990099
292 1 1 -0.9724009900990099 -0.9724009900990099 0.9724009900990099
293 1 1 0.0 -0.9724009900990099 0.9724009900990099
294 1 1 0.9724009900990099 -0.9724009900990099 0.9724009900990099
295 1 1 1.9448019801980199 -0.9724009900990099 0.9724009900990099
296 1 1 2.91720297029703 -0.9724009900990099 0.9724009900990099
297 1 1 3.8896039603960397 -0.9724009900990099 0.9724009900990099
298 1 1 3.8896039603960397 -1.9448019801980199 0.9724009900990099
299 1 1 2.91720297029703 -1.9448019801980199 0.9724009900990098
300 1 1 1.9448019801980199 -1.9448019801980199 0.9724009900990099
301 1 1 0.9724009900990099 -1.9448019801980199 0.9724009900990098
302 1 1 0.0 -1.9448019801980196 0.9724009900990099
303 1 1 -0.9724009900990099 -1.9448019801980196 0.9724009900990099
304 1 1 -1.9448019801980199 -1.9448019801980199 0.9724009900990099
305 1 1 -2.91720297029703 -1.9448019801980199 0.9724009900990099
306 1 1 -3.8896039603960397 -1.9448019801980199 0.9724009900990099
307 1 1 -3.8896039603960397 -2.91720297029703 0.9724009900990099
308 1 1 -2.91720297029703 -2.91720297029703 0.9724009900990099
309 1 1 -1.9448019801980199 -2.91720297029703 0.9724009900990099
310 1 1 -0.9724009900990099 -2.91720297029703 0.9724009900990099
311 1 1 0.0 -2.91720297029703 0.9724009900990099
312 1 1 0.9724009900990099 -2.91720297029703 0.9724009900990099
313 1 1 1.9448019801980199 -2.91720297029703 0.9724009900990099
314 1 1 2.91720297029703 -2.91720297029703 0.9724009900990099
315 1 1 3.8896039603960397 -2.91720297029703 0.9724009900990099
316 1 1 3.8896039603960397 -3.8896039603960397 0.9724009900990099
317 1 1 2.91720297029703 -3.8896039603960397 0.9724009900990099
318 1 1 1.9448019801980199 -3.8896039603960397 0.9724009900990099
319 1 1 0.9724009900990099 -3.8896039603960397 0.9724009900990099
320 1 1 0.0 -3.8896039603960397 0.9724009900990099
321 1 1 -0.9724009900990099 -3.8896039603960397 0.9724009900990098
322 1 1 -1.9448019801980199 -3.8896039603960397 0.9724009900990099
323 1 1 -2.91720297029703 -3.8896039603960397 0.9724009900990099
324 1 1 -3.8896039603960397 -3.8896039603960397 0.9724009900990099
325 1 2 -3.8896039603960397 -3.8896039603960397 1.9448019801980199
326 1 1 -2.91720297029703 -3.8896039603960397 1.9448019801980199
327 1 1 -1.9448019801980199 -3.8896039603960397 1.9448019801980199
328 1 1 -0.9724009900990099 -3.8896039603960397 1.9448019801980199
329 1 1 0.0 -3.8896039603960397 1.9448019801980199
330 1 1 0.9724009900990099 -3.8896039603960397 1.9448019801980199
331 1 1 1.9448019801980199 -3.8896039603960397 1.9448019801980196
332 1 1 2.91720297029703 -3.8896039603960397 1.9448019801980199
333 1 1 3.8896039603960397 -3.8896039603960397 1.9448019801980199
334 1 1 3.8896039603960397 -2.91720297029703 1.9448019801980199
335 1 1 2.91720297029703 -2.91720297029703 1.9448019801980199
336 1 1 1.9448019801980199 -2.91720297029703 1.9448019801980199
337 1 1 0.9724009900990099 -2.91720297029703 1.9448019801980199
338 1 1 0.0 -2.91720297029703 1.9448019801980199
339 1 1 -0.9724009900990099 -2.91720297029703 1.9448019801980199
340 1 1 -1.9448019801980199 -2.91720297029703 1.9448019801980199
341 1 1 -2.91720297029703 -2.91720297029703 1.9448019801980199
342 1 1 -3.8896039603960397 -2.91720297029703 1.9448019801980199
343 1 1 -3.8896039603960397 -1.9448019801980199 1.9448019801980199
344 1 1 -2.91720297029703 -1.9448019801980199 1.9448019801980199
345 1 1 -1.9448019801980199 -1.9448019801980199 1.9448019801980199
346 1 1 -0.9724009900990099 -1.9448019801980196 1.9448019801980199
347 1 1 0.0 -1.9448019801980196 1.9448019801980196
348 1 1 0.9724009900990099 -1.9448019801980199 1.9448019801980199
349 1 1 1.9448019801980199 -1.9448019801980199 1.9448019801980196
350 1 1 2.91720297029703 -1.9448019801980199 1.9448019801980199
351 1 1 3.8896039603960397 -1.9448019801980199 1.9448019801980199
352 1 1 3.8896039603960397 -0.9724009900990099 1.9448019801980199
353 1 1 2.91720297029703 -0.9724009900990099 1.9448019801980199
354 1 1 1.9448019801980199 -0.9724009900990099 1.9448019801980199
355 1 1 0.9724009900990099 -0.9724009900990099 1.9448019801980199
356 1 1 0.0 -0.9724009900990099 1.9448019801980199
357 1 1 -0.9724009900990099 -0.9724009900990099 1.9448019801980199
358 1 1 -1.9448019801980199 -0.9724009900990098 1.9448019801980199
359 1 1 -2.91720297029703 -0.9724009900990099 1.9448019801980199
360 1 1 -3.8896039603960397 -0.9724009900990099 1.9448019801980199
361 1 1 -3.8896039603960397 0.0 1.9448019801980199
362 1 1 -2.91720297029703 0.0 1.9448019801980199
363 1 1 -1.9448019801980199 0.0 1.9448019801980199
364 1 1 -0.9724009900990099 0.0 1.9448019801980199
365 1 1 0.0 0.0 1.9448019801980199
366 1 1 0.9724009900990099 0.0 1.9448019801980199
367 1 1 1.9448019801980199 0.0 1.9448019801980199
368 1 1 2.91720297029703 0.0 1.9448019801980199
369 1 1 3.8896039603960397 0.0 1.9448019801980199
370 1 1 3.8896039603960397 0.9724009900990099 1.9448019801980199
371 1 1 2.91720297029703 0.9724009900990099 1.9448019801980199
372 1 1 1.9448019801980199 0.9724009900990098 1.9448019801980199
373 1 1 0.9724009900990099 0.9724009900990099 1.9448019801980199
374 1 1 0.0 0.9724009900990099 1.9448019801980199
375 1 1 -0.9724009900990099 0.9724009900990099 1.9448019801980199
376 1 1 -1.9448019801980199 0.9724009900990099 1.9448019801980199
377 1 1 -2.91720297029703 0.9724009900990099 1.9448019801980199
378 1 1 -3.8896039603960397 0.9724009900990099 1.9448019801980199
379 1 1 -3.8896039603960393 1.9448019801980199 1.9448019801980199
380 1 1 -2.91720297029703 1.9448019801980199 1.9448019801980199
381 1 1 -1.9448019801980199 1.9448019801980199 1.9448019801980199
382 1 1 -0.9724009900990099 1.9448019801980199 1.9448019801980199
383 1 1 0.0 1.9448019801980196 1.9448019801980199
384 1 1 0.9724009900990099 1.9448019801980199 1.9448019801980199
385 1 1 1.9448019801980199 1.9448019801980199 1.9448019801980199
386 1 1 2.91720297029703 1.9448019801980196 1.9448019801980199
387 1 1 3.8896039603960393 1.9448019801980199 1.9448019801980199
388 1 1 3.8896039603960393 2.91720297029703 1.9448019801980199
389 1 1 2.91720297029703 2.91720297029703 1.9448019801980199
390 1 1 1.9448019801980199 2.91720297029703 1.9448019801980199
391 1 1 0.9724009900990099 2.91720297029703 1.9448019801980199
392 1 1 0.0 2.91720297029703 1.9448019801980199
393 1 1 -0.9724009900990099 2.91720297029703 1.9448019801980199
394 1 1 -1.9448019801980196 2.91720297029703 1.9448019801980199
395 1 1 -2.91720297029703 2.91720297029703 1.9448019801980199
396 1 1 -3.8896039603960397 2.91720297029703 1.9448019801980199
397 1 1 -3.8896039603960397 3.8896039603960397 1.9448019801980199
398 1 1 -2.91720297029703 3.8896039603960397 1.9448019801980199
399 1 1 -1.9448019801980199 3.8896039603960397 1.9448019801980199
400 1 1 -0.9724009900990099 3.8896039603960397 1.9448019801980199
401 1 1 0.0 3.8896039603960397 1.9448019801980199
402 1 1 0.9724009900990098 3.8896039603960397 1.9448019801980199
403 1 1 1.9448019801980199 3.8896039603960397 1.9448019801980199
404 1 1 2.91720297029703 3.8896039603960397 1.9448019801980199
405 1 1 3.8896039603960397 3.8896039603960393 1.9448019801980199

Velocities

1 0.0 0.0 0.0
2 0.0 0.0 0.0
3 0.0 0.0 0.0
4 0.0 0.0 0.0
5 0.0 0.0 0.0
6 0.0 0.0 0.0
7 0.0 0.0 0.0
8 0.0 0.0 0.0
9 0.0 0.0 0.0
10 0.0 0.0 0.0
11 0.0 0.0 0.0
12 0.0 0.0 0.0
13 0.0 0.0 0.0
14 0.0 0.0 0.0
15 0.0 0.0 0.0
16 0.0 0.0 0.0
17 0.0 0.0 0.0
18 0.0 0.0 0.0
19 0.0 0.0 0.0
20 0.0 0.0 0.0
21 0.0 0.0 0.0
22 0.0 0.0 0.0
23 0.0 0.0 0.0
24 0.0 0.0 0.0
25 0.0 0.0 0.0
26 0.0 0.0 0.0
27 0.0 0.0 0.0
28 0.0 0.0 0.0
29 0.0 0.0 0.0
30 0.0 0.0 0.0
31 0.0 0.0 0.0
32 0.0 0.0 0.0
33 0.0 0.0 0.0
34 0.0 0.0 0.0
35 0.0 0.0 0.0
36 0.0 0.0 0.0
37 0.0 0.0 0.0
38 0.0 0.0 0.0
39 0.0 0.0 0.0
40 0.0 0.0 0.0
41 0.0 0.0 0.0
42 0.0 0.0 0.0
43 0.0 0.0 0.0
44 0.0 0.0 0.0
45 0.0 0.0 0.0
46 0.0 0.0 0.0
47 0.0 0.0 0.0
48 0.0 0.0 0.0
49 0.0 0.0 0.0
50 0.0 0.0 0.0
51 0.0 0.0 0.0
52 0.0 0.0 0.0
53 0.0 0.0 0.0
54 0.0 0.0 0.0
55 0.0 0.0 0.0
56 0.0 0.0 0.0
57 0.0 0.0 0.0
58 0.0 0.0 0.0
59 0.0 0.0 0.0
60 0.0 0.0 0.0
61 0.0 0.0 0.0
62 0.0 0.0 0.0
63 0.0 0.0 0.0
64 0.0 0.0 0.0
65 0.0 0.0 0.0
66 0.0 0.0 0.0
67 0.0 0.0 0.0
68 0.0 0.0 0.0
69 0.0 0.0 0.0
70 0.0 0.0 0.0
71 0.0 0.0 0.0
72 0.0 0.0 0.0
73 0.0 0.0 0.0
74 0.0 0.0 0.0
75 0.0 0.0 0.0
76 0.0 0.0 0.0
77 0.0 0.0 0.0
78 0.0 0.0 0.0
79 0.0 0.0 0.0
80 0.0 0.0 0.0
81 0.0 0.0 0.0
82 0.0 0.0 0.0
83 0.0 0.0 0.0
84 0.0 0.0 0.0
85 0.0 0.0 0.0
86 0.0 0.0 0.0
87 0.0 0.0 0.0
88 0.0 0.0 0.0
89 0.0 0.0 0.0
90 0.0 0.0 0.0
91 0.0 0.0 0.0
92 0.0 0.0 0.0
93 0.0 0.0 0.0
94 0.0 0.0 0.0
95 0.0 0.0 0.0
96 0.0 0.0 0.0
97 0.0 0.0 0.0
98 0.0 0.0 0.0
99 0.0 0.0 0.0
100 0.0 0.0 0.0
101 0.0 0.0 0.0
102 0.0 0.0 0.0
103 0.0 0.0 0.0
104 0.0 0.0 0.0
105 0.0 0.0 0.0
106 0.0 0.0 0.0
107 0.0 0.0 0.0
108 0.0 0.0 0.0
109 0.0 0.0 0.0
110 0.0 0.0 0.0
111 0.0 0.0 0.0
112 0.0 0.0 0.0
113 0.0 0.0 0.0
114 0.0 0.0 0.0
115 0.0 0.0 0.0
116 0.0 0.0 0.0
117 0.0 0.0 0.0
118 0.0 0.0 0.0
119 0.0 0.0 0.0
120 0.0 0.0 0.0
121 0.0 0.0 0.0
122 0.0 0.0 0.0
123 0.0 0.0 0.0
124 0.0 0.0 0.0
125 0.0 0.0 0.0
126 0.0 0.0 0.0
127 0.0 0.0 0.0
128 0.0 0.0 0.0
129 0.0 0.0 0.0
130 0.0 0.0 0.0
131 0.0 0.0 0.0
132 0.0 0.0 0.0
133 0.0 0.0 0.0
134 0.0 0.0 0.0
135 0.0 0.0 0.0
136 0.0 0.0 0.0
137 0.0 0.0 0.0
138 0.0 0.0 0.0
139 0.0 0.0 0.0
140 0.0 0.0 0.0
141 0.0 0.0 0.0
142 0.0 0.0 0.0
143 0.0 0.0 0.0
144 0.0 0.0 0.0
145 0.0 0.0 0.0
146 0.0 0.0 0.0
147 0.0 0.0 0.0
148 0.0 0.0 0.0
149 0.0 0.0 0.0
150 0.0 0.0 0.0
151 0.0 0.0 0.0
152 0.0 0.0 0.0
153 0.0 0.0 0.0
154 0.0 0.0 0.0
155 0.0 0.0 0.0
156 0.0 0.0 0.0
157 0.0 0.0 0.0
158 0.0 0.0 0.0
159 0.0 0.0 0.0
160 0.0 0.0 0.0
161 0.0 0.0 0.0
162 0.0 0.0 0.0
163 0.0 0.0 0.0
164 0.0 0.0 0.0
165 0.0 0.0 0.0
166 0.0 0.0 0.0
167 0.0 0.0 0.0
168 0.0 0.0 0.0
169 0.0 0.0 0.0
170 0.0 0.0 0.0
171 0.0 0.0 0.0
172 0.0 0.0 0.0
173 0.0 0.0 0.0
174 0.0 0.0 0.0
175 0.0 0.0 0.0
176 0.0 0.0 0.0
177 0.0 0.0 0.0
178 0.0 0.0 0.0
179 0.0 0.0 0.0
180 0.0 0.0 0.0
181 0.0 0.0 0.0
182 0.0 0.0 0.0
183 0.0 0.0 0.0
184 0.0 0.0 0.0
185 0.0 0.0 0.0
186 0.0 0.0 0.0
187 0.0 0.0 0.0
188 0.0 0.0 0.0
189 0.0 0.0 0.0
190 0.0 0.0 0.0
191 0.0 0.0 0.0
192 0.0 0.0 0.0
193 0.0 0.0 0.0
194 0.0 0.0 0.0
195 0.0 0.0 0.0
196 0.0 0.0 0.0
197 0.0 0.0 0.0
198 0.0 0.0 0.0
199 0.0 0.0 0.0
200 0.0 0.0 0.0
201 0.0 0.0 0.0
202 0.0 0.0 0.0
203 0.0 0.0 0.0
204 0.0 0.0 0.0
205 0.0 0.0 0.0
206 0.0 0.0 0.0
207 0.0 0.0 0.0
208 0.0 0.0 0.0
209 0.0 0.0 0.0
210 0.0 0.0 0.0
211 0.0 0.0 0.0
212 0.0 0.0 0.0
213 0.0 0.0 0.0
214 0.0 0.0 0.0
215 0.0 0.0 0.0
216 0.0 0.0 0.0
217 0.0 0.0 0.0
218 0.0 0.0 0.0
219 0.0 0.0 0.0
220 0.0 0.0 0.0
221 0.0 0.0 0.0
222 0.0 0.0 0.0
223 0.0 0.0 0.0
224 0.0 0.0 0.0
225 0.0 0.0 0.0
226 0.0 0.0 0.0
227 0.0 0.0 0.0
228 0.0 0.0 0.0
229 0.0 0.0 0.0
230 0.0 0.0 0.0
231 0.0 0.0 0.0
232 0.0 0.0 0.0
233 0.0 0.0 0.0
234 0.0 0.0 0.0
235 0.0 0.0 0.0
236 0.0 0.0 0.0
237 0.0 0.0 0.0
238 0.0 0.0 0.0
239 0.0 0.0 0.0
240 0.0 0.0 0.0
241 0.0 0.0 0.0
242 0.0 0.0 0.0
243 0.0 0.0 0.0
244 0.0 0.0 0.0
245 0.0 0.0 0.0
246 0.0 0.0 0.0
247 0.0 0.0 0.0
248 0.0 0.0 0.0
249 0.0 0.0 0.0
250 0.0 0.0 0.0
251 0.0 0.0 0.0
252 0.0 0.0 0.0
253 0.0 0.0 0.0
254 0.0 0.0 0.0
255 0.0 0.0 0.0
256 0.0 0.0 0.0
257 0.0 0.0 0.0
258 0.0 0.0 0.0
259 0.0 0.0 0.0
260 0.0 0.0 0.0
261 0.0 0.0 0.0
262 0.0 0.0 0.0
263 0.0 0.0 0.0
264 0.0 0.0 0.0
265 0.0 0.0 0.0
266 0.0 0.0 0.0
267 0.0 0.0 0.0
268 0.0 0.0 0.0
269 0.0 0.0 0.0
270 0.0 0.0 0.0
271 0.0 0.0 0.0
272 0.0 0.0 0.0
273 0.0 0.0 0.0
274 0.0 0.0 0.0
275 0.0 0.0 0.0
276 0.0 0.0 0.0
277 0.0 0.0 0.0
278 0.0 0.0 0.0
279 0.0 0.0 0.0
280 0.0 0.0 0.0
281 0.0 0.0 0.0
282 0.0 0.0 0.0
283 0.0 0.0 0.0
284 0.0 0.0 0.0
285 0.0 0.0 0.0
286 0.0 0.0 0.0
287 0.0 0.0 0.0
288 0.0 0.0 0.0
289 0.0 0.0 0.0
290 0.0 0.0 0.0
291 0.0 0.0 0.0
292 0.0 0.0 0.0
293 0.0 0.0 0.0
294 0.0 0.0 0.0
295 0.0 0.0 0.0
296 0.0 0.0 0.0
297 0.0 0.0 0.0
298 0.0 0.0 0.0
299 0.0 0.0 0.0
300 0.0 0.0 0.0
301 0.0 0.0 0.0
302 0.0 0.0 0.0
303 0.0 0.0 0.0
304 0.0 0.0 0.0
305 0.0 0.0 0.0
306 0.0 0.0 0.0
307 0.0 0.0 0.0
308 0.0 0.0 0.0
309 0.0 0.0 0.0
310 0.0 0.0 0.0
311 0.0 0.0 0.0
312 0.0 0.0 0.0
313 0.0 0.0 0.0
314 0.0 0.0 0.0
315 0.0 0.0 0.0
316 0.0 0.0 0.0
317 0.0 0.0 0.0
318 0.0 0.0 0.0
319 0.0 0.0 0.0
320 0.0 0.0 0.0
321 0.0 0.0 0.0
322 0.0 0.0 0.0
323 0.0 0.0 0.0
324 0.0 0.0 0.0
325 0.0 0.0 0.0
326 0.0 0.0 0.0
327 0.0 0.0 0.0
328 0.0 0.0 0.0
329 0.0 0.0 0.0
330 0.0 0.0 0.0
331 0.0 0.0 0.0
332 0.0 0.0 0.0
333 0.0 0.0 0.0
334 0.0 0.0 0.0
335 0.0 0.0 0.0
336 0.0 0.0 0.0
337 0.0 0.0 0.0
338 0.0 0.0 0.0
339 0.0 0.0 0.0
340 0.0 0.0 0.0
341 0.0 0.0 0.0
342 0.0 0.0 0.0
343 0.0 0.0 0.0
344 0.0 0.0 0.0
345 0.0 0.0 0.0
346 0.0 0.0 0.0
347 0.0 0.0 0.0
348 0.0 0.0 0.0
349 0.0 0.0 0.0
350 0.0 0.0 0.0
351 0.0 0.0 0.0
352 0.0 0.0 0.0
353 0.0 0.0 0.0
354 0.0 0.0 0.0
355 0.0 0.0 0.0
356 0.0 0.0 0.0
357 0.0 0.0 0.0
358 0.0 0.0 0.0
359 0.0 0.0 0.0
360 0.0 0.0 0.0
361 0.0 0.0 0.0
362 0.0 0.0 0.0
363 0.0 0.0 0.0
364 0.0 0.0 0.0
365 0.0 0.0 0.0
366 0.0 0.0 0.0
367 0.0 0.0 0.0
368 0.0 0.0 0.0
369 0.0 0.0 0.0
370 0.0 0.0 0.0
371 0.0 0.0 0.0
372 0.0 0.0 0.0
373 0.0 0.0 0.0
374 0.0 0.0 0.0
375 0.0 0.0 0.0
376 0.0 0.0 0.0
377 0.0 0.0 0.0
378 0.0 0.0 0.0
379 0.0 0.0 0.0
380 0.0 0.0 0.0