ITEM: TIMESTEP
0
ITEM: NUMBER OF ATOMS
2
ITEM: BOX BOUNDS pp pp pp
-1.2500000000000000e+01 1.2500000000000000e+01
-1.2500000000000000e+01 1.2500000000000000e+01
-1.2500000000000000e+01 1.2500000000000000e+01
ITEM: ATOMS id type x y z
1 1 -2.13618 8.16004 -1.21152
2 1 -2.12701 8.09419 3.91315
ITEM: TIMESTEP
2000
ITEM: NUMBER OF ATOMS
2
ITEM: BOX BOUNDS pp pp pp
-1.2500000000000000e+01 1.2500000000000000e+01
-1.2500000000000000e+01 1.2500000000000000e+01
-1.2500000000000000e+01 1.2500000000000000e+01
ITEM: ATOMS id type x y z
1 1 -2.1498 8.17508 -1.21253
2 1 -2.24566 8.10237 3.84739
ITEM: TIMESTEP
4000
ITEM: NUMBER OF ATOMS
2
ITEM: BOX BOUNDS pp pp pp
-1.2500000000000000e+01 1.2500000000000000e+01
-1.2500000000000000e+01 1.2500000000000000e+01
-1.2500000000000000e+01 1.2500000000000000e+01
ITEM: ATOMS id type x y z
1 1 -2.22002 8.14683 -1.2718
2 1 -2.2798 8.10678 3.81094
ITEM: TIMESTEP
6000
ITEM: NUMBER OF ATOMS
2
ITEM: BOX BOUNDS pp pp pp
-1.2500000000000000e+01 1.2500000000000000e+01
-1.2500000000000000e+01 1.2500000000000000e+01
-1.2500000000000000e+01 1.2500000000000000e+01
ITEM: ATOMS id type x y z
1 1 -2.32038 8.05235 -1.25955
2 1 -2.27981 8.07782 3.80383
ITEM: TIMESTEP
8000
ITEM: NUMBER OF ATOMS
2
ITEM: BOX BOUNDS pp pp pp
-1.2500000000000000e+01 1.2500000000000000e+01
-1.2500000000000000e+01 1.2500000000000000e+01
-1.2500000000000000e+01 1.2500000000000000e+01
ITEM: ATOMS id type x y z
1 1 -2.40589 7.98345 -1.32718
2 1 -2.32494 8.08612 3.83122
ITEM: TIMESTEP
10000
ITEM: NUMBER OF ATOMS
2
ITEM: BOX BOUNDS pp pp pp
-1.2500000000000000e+01 1.2500000000000000e+01
-1.2500000000000000e+01 1.2500000000000000e+01
-1.2500000000000000e+01 1.2500000000000000e+01
ITEM: ATOMS id type x y z
1 1 -2.45114 8.05431 -1.32849
2 1 -2.4425 8.07057 3.83729
ITEM: TIMESTEP
12000
ITEM: NUMBER OF ATOMS
2
ITEM: BOX BOUNDS pp pp pp
-1.2500000000000000e+01 1.2500000000000000e+01
-1.2500000000000000e+01 1.2500000000000000e+01
-1.2500000000000000e+01 1.2500000000000000e+01
ITEM: ATOMS id type x y z
1 1 -2.46714 8.1097 -1.23722
2 1 -2.51644 8.05158 3.84043
ITEM: TIMESTEP
14000
ITEM: NUMBER OF ATOMS
2
ITEM: BOX BOUNDS pp pp pp
-1.2500000000000000e+01 1.2500000000000000e+01
-1.2500000000000000e+01 1.2500000000000000e+01
-1.2500000000000000e+01 1.2500000000000000e+01
ITEM: ATOMS id type x y z
1 1 -2.49028 8.12032 -1.17963
2 1 -2.59577 8.07144 3.90583
ITEM: TIMESTEP
16000
ITEM: NUMBER OF ATOMS
2
ITEM: BOX BOUNDS pp pp pp
-1.2500000000000000e+01 1.2500000000000000e+01
-1.2500000000000000e+01 1.2500000000000000e+01
-1.2500000000000000e+01 1.2500000000000000e+01
ITEM: ATOMS id type x y z
1 1 -2.58044 8.13966 -1.16945
2 1 -2.56503 8.13646 3.96689
ITEM: TIMESTEP
18000
ITEM: NUMBER OF ATOMS
2
ITEM: BOX BOUNDS pp pp pp
-1.2500000000000000e+01 1.2500000000000000e+01
-1.2500000000000000e+01 1.2500000000000000e+01
-1.2500000000000000e+01 1.2500000000000000e+01
ITEM: ATOMS id type x y z
1 1 -2.65588 8.22424 -1.13416
2 1 -2.51731 8.24581 3.97996
ITEM: TIMESTEP
20000
ITEM: NUMBER OF ATOMS
2
ITEM: BOX BOUNDS pp pp pp
-1.2500000000000000e+01 1.2500000000000000e+01
-1.2500000000000000e+01 1.2500000000000000e+01
-1.2500000000000000e+01 1.2500000000000000e+01
ITEM: ATOMS id type x y z
1 1 -2.6487 8.39944 -1.12898
2 1 -2.68746 8.35441 4.0081
ITEM: TIMESTEP
22000
ITEM: NUMBER OF ATOMS
2
ITEM: BOX BOUNDS pp pp pp
-1.2500000000000000e+01 1.2500000000000000e+01
-1.2500000000000000e+01 1.2500000000000000e+01
-1.2500000000000000e+01 1.2500000000000000e+01
ITEM: ATOMS id type x y z
1 1 -2.66068 8.52825 -1.06334
2 1 -2.72982 8.39231 3.98282
ITEM: TIMESTEP
24000
ITEM: NUMBER OF ATOMS
2
ITEM: BOX BOUNDS pp pp pp
-1.2500000000000000e+01 1.2500000000000000e+01
-1.2500000000000000e+01 1.2500000000000000e+01
-1.2500000000000000e+01 1.2500000000000000e+01
ITEM: ATOMS id type x y z
1 1 -2.71868 8.52363 -1.09337
2 1 -2.70881 8.54322 4.01211
ITEM: TIMESTEP
26000
ITEM: NUMBER OF ATOMS
2
ITEM: BOX BOUNDS pp pp pp
-1.2500000000000000e+01 1.2500000000000000e+01
-1.2500000000000000e+01 1.2500000000000000e+01
-1.2500000000000000e+01 1.2500000000000000e+01
ITEM: ATOMS id type x y z
1 1 -2.71219 8.54458 -1.03045
2 1 -2.712 8.66696 4.07024
ITEM: TIMESTEP
28000
ITEM: NUMBER OF ATOMS
2
ITEM: BOX BOUNDS pp pp pp
-1.2500000000000000e+01 1.2500000000000000e+01
-1.2500000000000000e+01 1.2500000000000000e+01
-1.2500000000000000e+01 1.2500000000000000e+01
ITEM: ATOMS id type x y z
1 1 -2.6686 8.64243 -0.973367
2 1 -2.71216 8.69612 4.21622
ITEM: TIMESTEP
30000
ITEM: NUMBER OF ATOMS
2
ITEM: BOX BOUNDS pp pp pp
-1.2500000000000000e+01 1.2500000000000000e+01
-1.2500000000000000e+01 1.2500000000000000e+01
-1.2500000000000000e+01 1.2500000000000000e+01
ITEM: ATOMS id type x y z
1 1 -2.68747 8.79135 -0.904062
2 1 -2.72533 8.6872 4.28875
ITEM: TIMESTEP
32000
ITEM: NUMBER OF ATOMS
2
ITEM: BOX BOUNDS pp pp pp
-1.2500000000000000e+01 1.2500000000000000e+01
-1.2500000000000000e+01 1.2500000000000000e+01
-1.2500000000000000e+01 1.2500000000000000e+01
ITEM: ATOMS id type x y z
1 1 -2.75193 8.84903 -0.861558
2 1 -2.66406 8.75968 4.2858
ITEM: TIMESTEP
34000
ITEM: NUMBER OF ATOMS
2
ITEM: BOX BOUNDS pp pp pp
-1.2500000000000000e+01 1.2500000000000000e+01
-1.2500000000000000e+01 1.2500000000000000e+01
-1.2500000000000000e+01 1.2500000000000000e+01
ITEM: ATOMS id type x y z
1 1 -2.75229 8.79644 -0.80602
2 1 -2.71715 8.80227 4.28106
ITEM: TIMESTEP
36000
ITEM: NUMBER OF ATOMS
2
ITEM: BOX BOUNDS pp pp pp
-1.2500000000000000e+01 1.2500000000000000e+01
-1.2500000000000000e+01 1.2500000000000000e+01
-1.2500000000000000e+01 1.2500000000000000e+01
ITEM: ATOMS id type x y z
1 1 -2.67599 8.76217 -0.772552
2 1 -2.75083 8.83806 4.28374
ITEM: TIMESTEP
38000
ITEM: NUMBER OF ATOMS
2
ITEM: BOX BOUNDS pp pp pp
-1.2500000000000000e+01 1.2500000000000000e+01
-1.2500000000000000e+01 1.2500000000000000e+01
-1.2500000000000000e+01 1.2500000000000000e+01
ITEM: ATOMS id type x y z
1 1 -2.63111 8.77766 -0.819477
2 1 -2.79022 8.81985 4.25277
ITEM: TIMESTEP
40000
ITEM: NUMBER OF ATOMS
2
ITEM: BOX BOUNDS pp pp pp
-1.2500000000000000e+01 1.2500000000000000e+01
-1.2500000000000000e+01 1.2500000000000000e+01
-1.2500000000000000e+01 1.2500000000000000e+01
ITEM: ATOMS id type x y z
1 1 -2.66811 8.77788 -0.811495
2 1 -2.72942 8.76855 4.1707
ITEM: TIMESTEP
42000
ITEM: NUMBER OF ATOMS
2
ITEM: BOX BOUNDS pp pp pp
-1.2500000000000000e+01 1.2500000000000000e+01
-1.2500000000000000e+01 1.2500000000000000e+01
-1.2500000000000000e+01 1.2500000000000000e+01
ITEM: ATOMS id type x y z
1 1 -2.77033 8.73504 -0.836019
2 1 -2.64679 8.74886 4.15429
ITEM: TIMESTEP
44000
ITEM: NUMBER OF ATOMS
2
ITEM: BOX BOUNDS pp pp pp
-1.2500000000000000e+01 1.2500000000000000e+01
-1.2500000000000000e+01 1.2500000000000000e+01
-1.2500000000000000e+01 1.2500000000000000e+01
ITEM: ATOMS id type x y z
1 1 -2.77675 8.73278 -0.937962
2 1 -2.64465 8.71083 4.19128
ITEM: TIMESTEP
46000
ITEM: NUMBER OF ATOMS
2
ITEM: BOX BOUNDS pp pp pp
-1.2500000000000000e+01 1.2500000000000000e+01
-1.2500000000000000e+01 1.2500000000000000e+01
-1.2500000000000000e+01 1.2500000000000000e+01
ITEM: ATOMS id type x y z
1 1 -2.71862 8.78052 -1.01145
2 1 -2.69621 8.73945 4.20554
ITEM: TIMESTEP
48000
ITEM: NUMBER OF ATOMS
2
ITEM: BOX BOUNDS pp pp pp
-1.2500000000000000e+01 1.2500000000000000e+01
-1.2500000000000000e+01 1.2500000000000000e+01
-1.2500000000000000e+01 1.2500000000000000e+01
ITEM: ATOMS id type x y z
1 1 -2.57493 8.75161 -0.989031
2 1 -2.74329 8.74666 4.21373
ITEM: TIMESTEP
50000
ITEM: NUMBER OF ATOMS
2
ITEM: BOX BOUNDS pp pp pp
-1.2500000000000000e+01 1.2500000000000000e+01
-1.2500000000000000e+01 1.2500000000000000e+01
-1.2500000000000000e+01 1.2500000000000000e+01
ITEM: ATOMS id type x y z
1 1 -2.56935 8.77023 -0.991045
2 1 -2.70186 8.80505 4.28741
ITEM: TIMESTEP
52000
ITEM: NUMBER OF ATOMS
2
ITEM: BOX BOUNDS pp pp pp
-1.2500000000000000e+01 1.2500000000000000e+01
-1.2500000000000000e+01 1.2500000000000000e+01
-1.2500000000000000e+01 1.2500000000000000e+01
ITEM: ATOMS id type x y z
1 1 -2.69685 8.7332 -0.883291
2 1 -2.61369 8.90511 4.22281
ITEM: TIMESTEP
54000
ITEM: NUMBER OF ATOMS
2
ITEM: BOX BOUNDS pp pp pp
-1.2500000000000000e+01 1.2500000000000000e+01
-1.2500000000000000e+01 1.2500000000000000e+01
-1.2500000000000000e+01 1.2500000000000000e+01
ITEM: ATOMS id type x y z
1 1 -2.72461 8.76493 -0.80999
2 1 -2.54753 8.8836 4.22916
ITEM: TIMESTEP
56000
ITEM: NUMBER OF ATOMS
2
ITEM: BOX BOUNDS pp pp pp
-1.2500000000000000e+01 1.2500000000000000e+01
-1.2500000000000000e+01 1.2500000000000000e+01
-1.2500000000000000e+01 1.2500000000000000e+01
ITEM: ATOMS id type x y z
1 1 -2.60266 8.86637 -0.790434
2 1 -2.59419 8.77531 4.37458
ITEM: TIMESTEP
58000
ITEM: NUMBER OF ATOMS
2
ITEM: BOX BOUNDS pp pp pp
-1.2500000000000000e+01 1.2500000000000000e+01
-1.2500000000000000e+01 1.2500000000000000e+01
-1.2500000000000000e+01 1.2500000000000000e+01
ITEM: ATOMS id type x y z
1 1 -2.40209 8.89573 -0.741057
2 1 -2.62393 8.75201 4.45884
ITEM: TIMESTEP
60000
ITEM: NUMBER OF ATOMS
2
ITEM: BOX BOUNDS pp pp pp
-1.2500000000000000e+01 1.2500000000000000e+01
-1.2500000000000000e+01 1.2500000000000000e+01
-1.2500000000000000e+01 1.2500000000000000e+01
ITEM: ATOMS id type x y z
1 1 -2.39727 8.82553 -0.611093
2 1 -2.49356 8.87864 4.39791
ITEM: TIMESTEP
62000
ITEM: NUMBER OF ATOMS
2
ITEM: BOX BOUNDS pp pp pp
-1.2500000000000000e+01 1.2500000000000000e+01
-1.2500000000000000e+01 1.2500000000000000e+01
-1.2500000000000000e+01 1.2500000000000000e+01
ITEM: ATOMS id type x y z
1 1 -2.5121 8.8175 -0.557532
2 1 -2.30164 8.91427 4.41244
ITEM: TIMESTEP
64000
ITEM: NUMBER OF ATOMS
2
ITEM: BOX BOUNDS pp pp pp
-1.2500000000000000e+01 1.2500000000000000e+01
-1.2500000000000000e+01 1.2500000000000000e+01
-1.2500000000000000e+01 1.2500000000000000e+01
ITEM: ATOMS id type x y z
1 1 -2.44776 8.90607 -0.653324
2 1 -2.27976 8.8802 4.563
ITEM: TIMESTEP
66000
ITEM: NUMBER OF ATOMS
2
ITEM: BOX BOUNDS pp pp pp
-1.2500000000000000e+01 1.2500000000000000e+01
-1.2500000000000000e+01 1.2500000000000000e+01
-1.2500000000000000e+01 1.2500000000000000e+01
ITEM: ATOMS id type x y z
1 1 -2.28782 9.00383 -0.663009
2 1 -2.38475 8.87838 4.64255
ITEM: TIMESTEP
68000
ITEM: NUMBER OF ATOMS
2
ITEM: BOX BOUNDS pp pp pp
-1.2500000000000000e+01 1.2500000000000000e+01
-1.2500000000000000e+01 1.2500000000000000e+01
-1.2500000000000000e+01 1.2500000000000000e+01
ITEM: ATOMS id type x y z
1 1 -2.21573 9.0389 -0.525776
2 1 -2.50839 8.99719 4.5926
ITEM: TIMESTEP
70000
ITEM: NUMBER OF ATOMS
2
ITEM: BOX BOUNDS pp pp pp
-1.2500000000000000e+01 1.2500000000000000e+01
-1.2500000000000000e+01 1.2500000000000000e+01
-1.2500000000000000e+01 1.2500000000000000e+01
ITEM: ATOMS id type x y z
1 1 -2.25836 9.11267 -0.419754
2 1 -2.5059 9.16631 4.54676
ITEM: TIMESTEP
72000
ITEM: NUMBER OF ATOMS
2
ITEM: BOX BOUNDS pp pp pp
-1.2500000000000000e+01 1.2500000000000000e+01
-1.2500000000000000e+01 1.2500000000000000e+01
-1.2500000000000000e+01 1.2500000000000000e+01
ITEM: ATOMS id type x y z
1 1 -2.37692 9.18883 -0.449644
2 1 -2.41659 9.33116 4.63093
ITEM: TIMESTEP
74000
ITEM: NUMBER OF ATOMS
2
ITEM: BOX BOUNDS pp pp pp
-1.2500000000000000e+01 1.2500000000000000e+01
-1.2500000000000000e+01 1.2500000000000000e+01
-1.2500000000000000e+01 1.2500000000000000e+01
ITEM: ATOMS id type x y z
1 1 -2.43768 9.34796 -0.440618
2 1 -2.31561 9.38007 4.73178
ITEM: TIMESTEP
76000
ITEM: NUMBER OF ATOMS
2
ITEM: BOX BOUNDS pp pp pp
-1.2500000000000000e+01 1.2500000000000000e+01
-1.2500000000000000e+01 1.2500000000000000e+01
-1.2500000000000000e+01 1.2500000000000000e+01
ITEM: ATOMS id type x y z
1 1 -2.43801 9.45522 -0.380516
2 1 -2.25671 9.3946 4.79361
ITEM: TIMESTEP
78000
ITEM: NUMBER OF ATOMS
2
ITEM: BOX BOUNDS pp pp pp
-1.2500000000000000e+01 1.2500000000000000e+01
-1.2500000000000000e+01 1.2500000000000000e+01
-1.2500000000000000e+01 1.2500000000000000e+01
ITEM: ATOMS id type x y z
1 1 -2.43699 9.52136 -0.268057
2 1 -2.31994 9.44691 4.82956
ITEM: TIMESTEP
80000
ITEM: NUMBER OF ATOMS
2
ITEM: BOX BOUNDS pp pp pp
-1.2500000000000000e+01 1.2500000000000000e+01
-1.2500000000000000e+01 1.2500000000000000e+01
-1.2500000000000000e+01 1.2500000000000000e+01
ITEM: ATOMS id type x y z
1 1 -2.41003 9.58324 -0.129018
2 1 -2.5377 9.58456 4.88956
ITEM: TIMESTEP
82000
ITEM: NUMBER OF ATOMS
2
ITEM: BOX BOUNDS pp pp pp
-1.2500000000000000e+01 1.2500000000000000e+01
-1.2500000000000000e+01 1.2500000000000000e+01
-1.2500000000000000e+01 1.2500000000000000e+01
ITEM: ATOMS id type x y z
1 1 -2.42145 9.6198 -0.0352335
2 1 -2.64376 9.68743 5.05601
ITEM: TIMESTEP
84000
ITEM: NUMBER OF ATOMS
2
ITEM: BOX BOUNDS pp pp pp
-1.2500000000000000e+01 1.2500000000000000e+01
-1.2500000000000000e+01 1.2500000000000000e+01
-1.2500000000000000e+01 1.2500000000000000e+01
ITEM: ATOMS id type x y z
2 1 -2.60659 9.7688 5.14433
1 1 -2.59135 9.68579 0.00188426
ITEM: TIMESTEP
86000
ITEM: NUMBER OF ATOMS
2
ITEM: BOX BOUNDS pp pp pp
-1.2500000000000000e+01 1.2500000000000000e+01
-1.2500000000000000e+01 1.2500000000000000e+01
-1.2500000000000000e+01 1.2500000000000000e+01
ITEM: ATOMS id type x y z
1 1 -2.6821 9.8196 0.0801697
2 1 -2.60859 9.80202 5.26938
ITEM: TIMESTEP
88000
ITEM: NUMBER OF ATOMS
2
ITEM: BOX BOUNDS pp pp pp
-1.2500000000000000e+01 1.2500000000000000e+01
-1.2500000000000000e+01 1.2500000000000000e+01
-1.2500000000000000e+01 1.2500000000000000e+01
ITEM: ATOMS id type x y z
1 1 -2.66325 9.99597 0.192403
2 1 -2.5931 9.85345 5.41588
ITEM: TIMESTEP
90000
ITEM: NUMBER OF ATOMS
2
ITEM: BOX BOUNDS pp pp pp
-1.2500000000000000e+01 1.2500000000000000e+01
-1.2500000000000000e+01 1.2500000000000000e+01
-1.2500000000000000e+01 1.2500000000000000e+01
ITEM: ATOMS id type x y z
1 1 -2.55813 10.0316 0.344337
2 1 -2.64292 9.95709 5.43275
ITEM: TIMESTEP
92000
ITEM: NUMBER OF ATOMS
2
ITEM: BOX BOUNDS pp pp pp
-1.2500000000000000e+01 1.2500000000000000e+01
-1.2500000000000000e+01 1.2500000000000000e+01
-1.2500000000000000e+01 1.2500000000000000e+01
ITEM: ATOMS id type x y z
1 1 -2.56552 9.98949 0.362456
2 1 -2.63186 10.093 5.40865
ITEM: TIMESTEP
94000
ITEM: NUMBER OF ATOMS
2
ITEM: BOX BOUNDS pp pp pp
-1.2500000000000000e+01 1.2500000000000000e+01
-1.2500000000000000e+01 1.2500000000000000e+01
-1.2500000000000000e+01 1.2500000000000000e+01
ITEM: ATOMS id type x y z
1 1 -2.61364 10.0068 0.292477
2 1 -2.67726 10.2169 5.34726
ITEM: TIMESTEP
96000
ITEM: NUMBER OF ATOMS
2
ITEM: BOX BOUNDS pp pp pp
-1.2500000000000000e+01 1.2500000000000000e+01
-1.2500000000000000e+01 1.2500000000000000e+01
-1.2500000000000000e+01 1.2500000000000000e+01
ITEM: ATOMS id type x y z
1 1 -2.68854 10.0715 0.13684
2 1 -2.71454 10.2254 5.32648
ITEM: TIMESTEP
98000
ITEM: NUMBER OF ATOMS
2
ITEM: BOX BOUNDS pp pp pp
-1.2500000000000000e+01 1.2500000000000000e+01
-1.2500000000000000e+01 1.2500000000000000e+01
-1.2500000000000000e+01 1.2500000000000000e+01
ITEM: ATOMS id type x y z
1 1 -2.72001 10.1726 -0.0121246
2 1 -2.69228 10.1644 5.21738
ITEM: TIMESTEP
100000
ITEM: NUMBER OF ATOMS
2
ITEM: BOX BOUNDS pp pp pp
-1.2500000000000000e+01 1.2500000000000000e+01
-1.2500000000000000e+01 1.2500000000000000e+01
-1.2500000000000000e+01 1.2500000000000000e+01
ITEM: ATOMS id type x y z
1 1 -2.76157 10.2482 -0.132186
2 1 -2.70403 10.1217 5.07424
ITEM: TIMESTEP
102000
ITEM: NUMBER OF ATOMS
2
ITEM: BOX BOUNDS pp pp pp
-1.2500000000000000e+01 1.2500000000000000e+01
-1.2500000000000000e+01 1.2500000000000000e+01
-1.2500000000000000e+01 1.2500000000000000e+01
ITEM: ATOMS id type x y z
1 1 -2.69615 10.2672 -0.150486
2 1 -2.81843 10.1729 4.93093
ITEM: TIMESTEP
104000
ITEM: NUMBER OF ATOMS
2
ITEM: BOX BOUNDS pp pp pp
-1.2500000000000000e+01 1.2500000000000000e+01
-1.2500000000000000e+01 1.2500000000000000e+01
-1.2500000000000000e+01 1.2500000000000000e+01
ITEM: ATOMS id type x y z
1 1 -2.70248 10.2149 -0.141916
2 1 -2.7849 10.2805 4.79808
ITEM: TIMESTEP
106000
ITEM: NUMBER OF ATOMS
2
ITEM: BOX BOUNDS pp pp pp
-1.2500000000000000e+01 1.2500000000000000e+01
-1.2500000000000000e+01 1.2500000000000000e+01
-1.2500000000000000e+01 1.2500000000000000e+01
ITEM: ATOMS id type x y z
1 1 -2.81754 10.2652 -0.308958
2 1 -2.71814 10.3758 4.76523
ITEM: TIMESTEP
108000
ITEM: NUMBER OF ATOMS
2
ITEM: BOX BOUNDS pp pp pp
-1.2500000000000000e+01 1.2500000000000000e+01
-1.2500000000000000e+01 1.2500000000000000e+01
-1.2500000000000000e+01 1.2500000000000000e+01
ITEM: ATOMS id type x y z
1 1 -2.91669 10.4359 -0.417167
2 1 -2.7136 10.4565 4.68466
ITEM: TIMESTEP
110000
ITEM: NUMBER OF ATOMS
2
ITEM: BOX BOUNDS pp pp pp
-1.2500000000000000e+01 1.2500000000000000e+01
-1.2500000000000000e+01 1.2500000000000000e+01
-1.2500000000000000e+01 1.2500000000000000e+01
ITEM: ATOMS id type x y z
1 1 -2.96905 10.6245 -0.55712
2 1 -2.89166 10.4669 4.66888
ITEM: TIMESTEP
112000
ITEM: NUMBER OF ATOMS
2
ITEM: BOX BOUNDS pp pp pp
-1.2500000000000000e+01 1.2500000000000000e+01
-1.2500000000000000e+01 1.2500000000000000e+01
-1.2500000000000000e+01 1.2500000000000000e+01
ITEM: ATOMS id type x y z
1 1 -3.01411 10.6289 -0.686549
2 1 -3.0934 10.5627 4.54135
ITEM: TIMESTEP
114000
ITEM: NUMBER OF ATOMS
2
ITEM: BOX BOUNDS pp pp pp
-1.2500000000000000e+01 1.2500000000000000e+01
-1.2500000000000000e+01 1.2500000000000000e+01
-1.2500000000000000e+01 1.2500000000000000e+01
ITEM: ATOMS id type x y z
1 1 -3.09841 10.6002 -0.704121
2 1 -3.2753 10.7038 4.36355
ITEM: TIMESTEP
116000
ITEM: NUMBER OF ATOMS
2
ITEM: BOX BOUNDS pp pp pp
-1.2500000000000000e+01 1.2500000000000000e+01
-1.2500000000000000e+01 1.2500000000000000e+01
-1.2500000000000000e+01 1.2500000000000000e+01
ITEM: ATOMS id type x y z
1 1 -3.20706 10.6765 -0.763357
2 1 -3.26823 10.7352 4.24693
ITEM: TIMESTEP
118000
ITEM: NUMBER OF ATOMS
2
ITEM: BOX BOUNDS pp pp pp
-1.2500000000000000e+01 1.2500000000000000e+01
-1.2500000000000000e+01 1.2500000000000000e+01
-1.2500000000000000e+01 1.2500000000000000e+01
ITEM: ATOMS id type x y z
1 1 -3.33149 10.7434 -0.898703
2 1 -3.28054 10.7763 4.22395
ITEM: TIMESTEP
120000
ITEM: NUMBER OF ATOMS
2
ITEM: BOX BOUNDS pp pp pp
-1.2500000000000000e+01 1.2500000000000000e+01
-1.2500000000000000e+01 1.2500000000000000e+01
-1.2500000000000000e+01 1.2500000000000000e+01
ITEM: ATOMS id type x y z
1 1 -3.44177 10.7139 -1.03529
2 1 -3.27882 10.7211 4.22445
ITEM: TIMESTEP
122000
ITEM: NUMBER OF ATOMS
2
ITEM: BOX BOUNDS pp pp pp
-1.2500000000000000e+01 1.2500000000000000e+01
-1.2500000000000000e+01 1.2500000000000000e+01
-1.2500000000000000e+01 1.2500000000000000e+01
ITEM: ATOMS id type x y z
1 1 -3.37745 10.7847 -1.04114
2 1 -3.30048 10.7369 4.15459
ITEM: TIMESTEP
124000
ITEM: NUMBER OF ATOMS
2
ITEM: BOX BOUNDS pp pp pp
-1.2500000000000000e+01 1.2500000000000000e+01
-1.2500000000000000e+01 1.2500000000000000e+01
-1.2500000000000000e+01 1.2500000000000000e+01
ITEM: ATOMS id type x y z
1 1 -3.23622 10.7553 -0.929043
2 1 -3.30821 10.7449 4.03333
ITEM: TIMESTEP
126000
ITEM: NUMBER OF ATOMS
2
ITEM: BOX BOUNDS pp pp pp
-1.2500000000000000e+01 1.2500000000000000e+01
-1.2500000000000000e+01 1.2500000000000000e+01
-1.2500000000000000e+01 1.2500000000000000e+01
ITEM: ATOMS id type x y z
1 1 -3.2294 10.6477 -0.975733
2 1 -3.29353 10.7275 4.07788
ITEM: TIMESTEP
128000
ITEM: NUMBER OF ATOMS
2
ITEM: BOX BOUNDS pp pp pp
-1.2500000000000000e+01 1.2500000000000000e+01
-1.2500000000000000e+01 1.2500000000000000e+01
-1.2500000000000000e+01 1.2500000000000000e+01
ITEM: ATOMS id type x y z
1 1 -3.26816 10.5944 -1.06464
2 1 -3.25398 10.6901 4.12575
ITEM: TIMESTEP
130000
ITEM: NUMBER OF ATOMS
2
ITEM: BOX BOUNDS pp pp pp
-1.2500000000000000e+01 1.2500000000000000e+01
-1.2500000000000000e+01 1.2500000000000000e+01
-1.2500000000000000e+01 1.2500000000000000e+01
ITEM: ATOMS id type x y z
1 1 -3.27204 10.6376 -1.09432
2 1 -3.27466 10.5928 4.17901
ITEM: TIMESTEP
132000
ITEM: NUMBER OF ATOMS
2
ITEM: BOX BOUNDS pp pp pp
-1.2500000000000000e+01 1.2500000000000000e+01
-1.2500000000000000e+01 1.2500000000000000e+01
-1.2500000000000000e+01 1.2500000000000000e+01
ITEM: ATOMS id type x y z
1 1 -3.22437 10.5961 -1.06266
2 1 -3.30517 10.5169 4.07358
ITEM: TIMESTEP
134000
ITEM: NUMBER OF ATOMS
2
ITEM: BOX BOUNDS pp pp pp
-1.2500000000000000e+01 1.2500000000000000e+01
-1.2500000000000000e+01 1.2500000000000000e+01
-1.2500000000000000e+01 1.2500000000000000e+01
ITEM: ATOMS id type x y z
1 1 -3.16606 10.5674 -1.001
2 1 -3.24781 10.4838 4.01588
ITEM: TIMESTEP
136000
ITEM: NUMBER OF ATOMS
2
ITEM: BOX BOUNDS pp pp pp
-1.2500000000000000e+01 1.2500000000000000e+01
-1.2500000000000000e+01 1.2500000000000000e+01
-1.2500000000000000e+01 1.2500000000000000e+01
ITEM: ATOMS id type x y z
1 1 -3.23783 10.4569 -0.966299
2 1 -3.21914 10.548 4.02173
ITEM: TIMESTEP
138000
ITEM: NUMBER OF ATOMS
2
ITEM: BOX BOUNDS pp pp pp
-1.2500000000000000e+01 1.2500000000000000e+01
-1.2500000000000000e+01 1.2500000000000000e+01
-1.2500000000000000e+01 1.2500000000000000e+01
ITEM: ATOMS id type x y z
1 1 -3.29385 10.3392 -1.06887
2 1 -3.24521 10.473 4.10242
ITEM: TIMESTEP
140000
ITEM: NUMBER OF ATOMS
2
ITEM: BOX BOUNDS pp pp pp
-1.2500000000000000e+01 1.2500000000000000e+01
-1.2500000000000000e+01 1.2500000000000000e+01
-1.2500000000000000e+01 1.2500000000000000e+01
ITEM: ATOMS id type x y z
1 1 -3.31155 10.2914 -1.14114
2 1 -3.25789 10.4143 4.15716
ITEM: TIMESTEP
142000
ITEM: NUMBER OF ATOMS
2
ITEM: BOX BOUNDS pp pp pp
-1.2500000000000000e+01 1.2500000000000000e+01
-1.2500000000000000e+01 1.2500000000000000e+01
-1.2500000000000000e+01 1.2500000000000000e+01
ITEM: ATOMS id type x y z
1 1 -3.32783 10.2931 -1.03213
2 1 -3.31324 10.2809 4.05731
ITEM: TIMESTEP
144000
ITEM: NUMBER OF ATOMS
2
ITEM: BOX BOUNDS pp pp pp
-1.2500000000000000e+01 1.2500000000000000e+01
-1.2500000000000000e+01 1.2500000000000000e+01
-1.2500000000000000e+01 1.2500000000000000e+01
ITEM: ATOMS id type x y z
1 1 -3.40066 10.3043 -0.92664
2 1 -3.41084 10.1685 3.95944
ITEM: TIMESTEP
146000
ITEM: NUMBER OF ATOMS
2
ITEM: BOX BOUNDS pp pp pp
-1.2500000000000000e+01 1.2500000000000000e+01
-1.2500000000000000e+01 1.2500000000000000e+01
-1.2500000000000000e+01 1.2500000000000000e+01
ITEM: ATOMS id type x y z
1 1 -3.47362 10.2665 -1.01846
2 1 -3.46058 10.1947 4.03964
ITEM: TIMESTEP
148000
ITEM: NUMBER OF ATOMS
2
ITEM: BOX BOUNDS pp pp pp
-1.2500000000000000e+01 1.2500000000000000e+01
-1.2500000000000000e+01 1.2500000000000000e+01
-1.2500000000000000e+01 1.2500000000000000e+01
ITEM: ATOMS id type x y z
1 1 -3.5452 10.1539 -1.17444
2 1 -3.52241 10.2071 4.1347
ITEM: TIMESTEP
150000
ITEM: NUMBER OF ATOMS
2
ITEM: BOX BOUNDS pp pp pp
-1.2500000000000000e+01 1.2500000000000000e+01
-1.2500000000000000e+01 1.2500000000000000e+01
-1.2500000000000000e+01 1.2500000000000000e+01
ITEM: ATOMS id type x y z
1 1 -3.61823 10.1016 -1.27696
2 1 -3.65739 10.1618 4.07338
ITEM: TIMESTEP
152000
ITEM: NUMBER OF ATOMS
2
ITEM: BOX BOUNDS pp pp pp
-1.2500000000000000e+01 1.2500000000000000e+01
-1.2500000000000000e+01 1.2500000000000000e+01
-1.2500000000000000e+01 1.2500000000000000e+01
ITEM: ATOMS id type x y z
1 1 -3.70027 10.0111 -1.24577
2 1 -3.73972 10.0633 3.85772
ITEM: TIMESTEP
154000
ITEM: NUMBER OF ATOMS
2
ITEM: BOX BOUNDS pp pp pp
-1.2500000000000000e+01 1.2500000000000000e+01
-1.2500000000000000e+01 1.2500000000000000e+01
-1.2500000000000000e+01 1.2500000000000000e+01
ITEM: ATOMS id type x y z
1 1 -3.77593 9.96554 -1.23626
2 1 -3.7356 9.9222 3.71669
ITEM: TIMESTEP
156000
ITEM: NUMBER OF ATOMS
2
ITEM: BOX BOUNDS pp pp pp
-1.2500000000000000e+01 1.2500000000000000e+01
-1.2500000000000000e+01 1.2500000000000000e+01
-1.2500000000000000e+01 1.2500000000000000e+01
ITEM: ATOMS id type x y z
1 1 -3.87833 9.89661 -1.29699
2 1 -3.79498 9.86927 3.7198
ITEM: TIMESTEP
158000
ITEM: NUMBER OF ATOMS
2
ITEM: BOX BOUNDS pp pp pp
-1.2500000000000000e+01 1.2500000000000000e+01
-1.2500000000000000e+01 1.2500000000000000e+01
-1.2500000000000000e+01 1.2500000000000000e+01
ITEM: ATOMS id type x y z
1 1 -3.9121 9.85618 -1.3847
2 1 -3.94719 9.7901 3.81863
ITEM: TIMESTEP
160000
ITEM: NUMBER OF ATOMS
2
ITEM: BOX BOUNDS pp pp pp
-1.2500000000000000e+01 1.2500000000000000e+01
-1.2500000000000000e+01 1.2500000000000000e+01
-1.2500000000000000e+01 1.2500000000000000e+01
ITEM: ATOMS id type x y z
1 1 -3.99327 9.74311 -1.3621
2 1 -4.07645 9.7688 3.84744
ITEM: TIMESTEP
162000
ITEM: NUMBER OF ATOMS
2
ITEM: BOX BOUNDS pp pp pp
-1.2500000000000000e+01 1.2500000000000000e+01
-1.2500000000000000e+01 1.2500000000000000e+01
-1.2500000000000000e+01 1.2500000000000000e+01
ITEM: ATOMS id type x y z
1 1 -4.1095 9.67348 -1.25732
2 1 -4.08857 9.72011 3.8158
ITEM: TIMESTEP
164000
ITEM: NUMBER OF ATOMS
2
ITEM: BOX BOUNDS pp pp pp
-1.2500000000000000e+01 1.2500000000000000e+01
-1.2500000000000000e+01 1.2500000000000000e+01
-1.2500000000000000e+01 1.2500000000000000e+01
ITEM: ATOMS id type x y z
1 1 -4.19407 9.62782 -1.1966
2 1 -4.14454 9.6157 3.77504
ITEM: TIMESTEP
166000
ITEM: NUMBER OF ATOMS
2
ITEM: BOX BOUNDS pp pp pp
-1.2500000000000000e+01 1.2500000000000000e+01
-1.2500000000000000e+01 1.2500000000000000e+01
-1.2500000000000000e+01 1.2500000000000000e+01
ITEM: ATOMS id type x y z
1 1 -4.29765 9.62974 -1.18546
2 1 -4.27788 9.50788 3.82464
ITEM: TIMESTEP
168000
ITEM: NUMBER OF ATOMS
2
ITEM: BOX BOUNDS pp pp pp
-1.2500000000000000e+01 1.2500000000000000e+01
-1.2500000000000000e+01 1.2500000000000000e+01
-1.2500000000000000e+01 1.2500000000000000e+01
ITEM: ATOMS id type x y z
1 1 -4.32205 9.58357 -1.21031
2 1 -4.40785 9.47106 3.95893
ITEM: TIMESTEP
170000
ITEM: NUMBER OF ATOMS
2
ITEM: BOX BOUNDS pp pp pp
-1.2500000000000000e+01 1.2500000000000000e+01
-1.2500000000000000e+01 1.2500000000000000e+01
-1.2500000000000000e+01 1.2500000000000000e+01
ITEM: ATOMS id type x y z
1 1 -4.43607 9.47234 -1.23532
2 1 -4.39303 9.47466 4.0242
ITEM: TIMESTEP
172000
ITEM: NUMBER OF ATOMS
2
ITEM: BOX BOUNDS pp pp pp
-1.2500000000000000e+01 1.2500000000000000e+01
-1.2500000000000000e+01 1.2500000000000000e+01
-1.2500000000000000e+01 1.2500000000000000e+01
ITEM: ATOMS id type x y z
1 1 -4.48423 9.41349 -1.15182
2 1 -4.38981 9.55211 3.99806
ITEM: TIMESTEP
174000
ITEM: NUMBER OF ATOMS
2
ITEM: BOX BOUNDS pp pp pp
-1.2500000000000000e+01 1.2500000000000000e+01
-1.2500000000000000e+01 1.2500000000000000e+01
-1.2500000000000000e+01 1.2500000000000000e+01
ITEM: ATOMS id type x y z
1 1 -4.48029 9.46444 -1.09133
2 1 -4.51627 9.58552 3.92094
ITEM: TIMESTEP
176000
ITEM: NUMBER OF ATOMS
2
ITEM: BOX BOUNDS pp pp pp
-1.2500000000000000e+01 1.2500000000000000e+01
-1.2500000000000000e+01 1.2500000000000000e+01
-1.2500000000000000e+01 1.2500000000000000e+01
ITEM: ATOMS id type x y z
1 1 -4.47142 9.65708 -1.16845
2 1 -4.68647 9.55673 3.91162
ITEM: TIMESTEP
178000
ITEM: NUMBER OF ATOMS
2
ITEM: BOX BOUNDS pp pp pp
-1.2500000000000000e+01 1.2500000000000000e+01
-1.2500000000000000e+01 1.2500000000000000e+01
-1.2500000000000000e+01 1.2500000000000000e+01
ITEM: ATOMS id type x y z
1 1 -4.61577 9.71266 -1.28334
2 1 -4.70033 9.62716 3.93259
ITEM: TIMESTEP
180000
ITEM: NUMBER OF ATOMS
2
ITEM: BOX BOUNDS pp pp pp
-1.2500000000000000e+01 1.2500000000000000e+01
-1.2500000000000000e+01 1.2500000000000000e+01
-1.2500000000000000e+01 1.2500000000000000e+01
ITEM: ATOMS id type x y z
1 1 -4.78477 9.73183 -1.33456
2 1 -4.61741 9.73498 3.98044
ITEM: TIMESTEP
182000
ITEM: NUMBER OF ATOMS
2
ITEM: BOX BOUNDS pp pp pp
-1.2500000000000000e+01 1.2500000000000000e+01
-1.2500000000000000e+01 1.2500000000000000e+01
-1.2500000000000000e+01 1.2500000000000000e+01
ITEM: ATOMS id type x y z
1 1 -4.73468 9.78376 -1.28268
2 1 -4.65742 9.81806 3.90594
ITEM: TIMESTEP
184000
ITEM: NUMBER OF ATOMS
2
ITEM: BOX BOUNDS pp pp pp
-1.2500000000000000e+01 1.2500000000000000e+01
-1.2500000000000000e+01 1.2500000000000000e+01
-1.2500000000000000e+01 1.2500000000000000e+01
ITEM: ATOMS id type x y z
1 1 -4.74055 9.80922 -1.20619
2 1 -4.73813 9.92875 3.76046
ITEM: TIMESTEP
186000
ITEM: NUMBER OF ATOMS
2
ITEM: BOX BOUNDS pp pp pp
-1.2500000000000000e+01 1.2500000000000000e+01
-1.2500000000000000e+01 1.2500000000000000e+01
-1.2500000000000000e+01 1.2500000000000000e+01
ITEM: ATOMS id type x y z
1 1 -4.85123 9.85441 -1.21627
2 1 -4.7948 9.95644 3.76258
ITEM: TIMESTEP
188000
ITEM: NUMBER OF ATOMS
2
ITEM: BOX BOUNDS pp pp pp
-1.2500000000000000e+01 1.2500000000000000e+01
-1.2500000000000000e+01 1.2500000000000000e+01
-1.2500000000000000e+01 1.2500000000000000e+01
ITEM: ATOMS id type x y z
1 1 -4.9449 9.94815 -1.37438
2 1 -4.87726 9.91502 3.81709
ITEM: TIMESTEP
190000
ITEM: NUMBER OF ATOMS
2
ITEM: BOX BOUNDS pp pp pp
-1.2500000000000000e+01 1.2500000000000000e+01
-1.2500000000000000e+01 1.2500000000000000e+01
-1.2500000000000000e+01 1.2500000000000000e+01
ITEM: ATOMS id type x y z
1 1 -4.92794 10.0274 -1.47124
2 1 -5.00867 10.0057 3.78409
ITEM: TIMESTEP
192000
ITEM: NUMBER OF ATOMS
2
ITEM: BOX BOUNDS pp pp pp
-1.2500000000000000e+01 1.2500000000000000e+01
-1.2500000000000000e+01 1.2500000000000000e+01
-1.2500000000000000e+01 1.2500000000000000e+01
ITEM: ATOMS id type x y z
1 1 -4.91768 10.1248 -1.42926
2 1 -5.12612 10.1643 3.71937
ITEM: TIMESTEP
194000
ITEM: NUMBER OF ATOMS
2
ITEM: BOX BOUNDS pp pp pp
-1.2500000000000000e+01 1.2500000000000000e+01
-1.2500000000000000e+01 1.2500000000000000e+01
-1.2500000000000000e+01 1.2500000000000000e+01
ITEM: ATOMS id type x y z
1 1 -5.10401 10.2464 -1.34006
2 1 -5.02431 10.3181 3.59795
ITEM: TIMESTEP
196000
ITEM: NUMBER OF ATOMS
2
ITEM: BOX BOUNDS pp pp pp
-1.2500000000000000e+01 1.2500000000000000e+01
-1.2500000000000000e+01 1.2500000000000000e+01
-1.2500000000000000e+01 1.2500000000000000e+01
ITEM: ATOMS id type x y z
1 1 -5.20981 10.359 -1.38688
2 1 -5.01075 10.4107 3.60886
ITEM: TIMESTEP
198000
ITEM: NUMBER OF ATOMS
2
ITEM: BOX BOUNDS pp pp pp
-1.2500000000000000e+01 1.2500000000000000e+01
-1.2500000000000000e+01 1.2500000000000000e+01
-1.2500000000000000e+01 1.2500000000000000e+01
ITEM: ATOMS id type x y z
1 1 -5.2243 10.5475 -1.56026
2 1 -5.0933 10.4695 3.70099
ITEM: TIMESTEP
200000
ITEM: NUMBER OF ATOMS
2
ITEM: BOX BOUNDS pp pp pp
-1.2500000000000000e+01 1.2500000000000000e+01
-1.2500000000000000e+01 1.2500000000000000e+01
-1.2500000000000000e+01 1.2500000000000000e+01
ITEM: ATOMS id type x y z
1 1 -5.11681 10.6466 -1.63072