LAMMPS data file via MDAnalysis

        2000  atoms
        1999  bonds
           0  angles
           0  dihedrals
           0  impropers

           1  atom types
           1  bond types
           0  angle types
           0  dihedral types
           0  improper types

-30.5 30.5 xlo xhi
-30.5 30.5 ylo yhi
-233.5 233.5 zlo zhi


Masses

1 1.000000

Atoms

1 0 1 -5.819647 19.201046 60.215210
2 0 1 -6.205118 19.729343 59.456116
3 0 1 -6.910658 20.095646 58.909393
4 0 1 -7.093517 19.248245 58.354004
5 0 1 -7.017897 19.511745 57.371307
6 0 1 -6.444427 18.677647 57.586700
7 0 1 -6.894638 17.835743 57.451813
8 0 1 -6.482607 16.950745 57.660797
9 0 1 -6.840307 16.299046 57.049011
10 0 1 -6.890688 15.598145 56.279297
11 0 1 -7.110647 14.872242 56.832886
12 0 1 -6.975378 13.849945 56.834106
13 0 1 -6.923326 14.356846 57.705688
14 0 1 -7.836557 13.975346 57.742706
15 0 1 -7.678389 13.150444 58.291992
16 0 1 -7.400019 12.647644 59.093109
17 0 1 -7.123898 11.828846 59.593811
18 0 1 -6.449839 11.301346 60.113586
19 0 1 -7.261679 10.817944 60.385986
20 0 1 -7.811268 10.620644 59.586792
21 0 1 -8.598387 10.967144 59.157898
22 0 1 -8.076658 11.324642 58.339905
23 0 1 -7.641388 11.970745 57.827087
24 0 1 -8.529589 12.284645 57.644989
25 0 1 -8.817709 13.173046 57.950287
26 0 1 -8.957848 12.834145 58.763397
27 0 1 -9.977968 12.786747 58.774597
28 0 1 -10.902868 12.860645 59.285889
29 0 1 -10.912867 13.843044 59.256989
30 0 1 -10.366167 14.587543 59.543701
31 0 1 -10.236668 14.926144 60.451294
32 0 1 -9.470018 14.388447 60.248199
33 0 1 -9.326899 15.115444 59.611206
34 0 1 -8.661907 14.767044 59.022583
35 0 1 -8.062458 15.089344 58.337585
36 0 1 -7.125217 15.284245 58.402496
37 0 1 -6.859028 16.104343 58.199799
38 0 1 -5.949848 15.894947 58.380402
39 0 1 -5.781088 15.946045 57.358887
40 0 1 -5.840708 16.800343 56.859497
41 0 1 -6.324148 17.302444 56.247406
42 0 1 -7.072798 17.500244 55.594604
43 0 1 -8.047796 17.267345 55.846313
44 0 1 -8.535658 16.812645 55.196411
45 0 1 -7.830397 17.109844 54.651306
46 0 1 -7.813757 18.030247 54.380493
47 0 1 -8.630848 17.574047 54.164307
48 0 1 -9.171238 18.131344 53.582886
49 0 1 -9.044367 18.927242 53.046692
50 0 1 -9.682169 19.036846 53.748810
51 0 1 -10.273567 19.243046 54.496002
52 0 1 -11.214968 18.988842 54.381012
53 0 1 -11.448969 19.274746 55.345795
54 0 1 -12.134768 19.230343 54.652893
55 0 1 -13.006567 18.863945 54.497894
56 0 1 -13.767467 19.163445 53.837799
57 0 1 -14.020267 19.840244 54.429993
58 0 1 -14.866868 20.156044 54.624908
59 0 1 -15.471667 19.573742 54.029907
60 0 1 -15.568968 19.721943 53.028503
61 0 1 -15.129868 18.899544 52.793213
62 0 1 -15.556368 18.816647 51.898895
63 0 1 -15.044667 18.605343 51.088989
64 0 1 -15.803968 18.860546 50.574005
65 0 1 -16.425068 18.227345 50.864899
66 0 1 -15.923767 17.430244 50.992096
67 0 1 -15.062267 17.304142 51.455505
68 0 1 -15.880068 17.114845 51.977600
69 0 1 -16.078167 16.352543 52.537292
70 0 1 -15.302668 15.813644 52.470886
71 0 1 -14.867968 15.551445 51.667511
72 0 1 -15.300467 15.400345 50.780090
73 0 1 -15.487468 14.796844 50.158203
74 0 1 -15.934568 15.532543 49.679596
75 0 1 -15.390568 15.824444 48.931610
76 0 1 -15.732368 16.147644 47.969299
77 0 1 -16.295168 16.195347 48.716888
78 0 1 -16.833467 15.300846 48.740997
79 0 1 -16.449667 14.445545 48.876587
80 0 1 -16.226667 14.088844 49.746307
81 0 1 -16.540367 13.433247 49.186493
82 0 1 -15.902168 12.927044 49.774414
83 0 1 -15.086468 13.386944 49.519592
84 0 1 -14.149967 13.285946 49.601807
85 0 1 -13.856968 12.507542 50.033295
86 0 1 -13.083067 12.560047 50.626709
87 0 1 -12.622667 11.928844 50.144592
88 0 1 -11.948467 11.861046 50.904510
89 0 1 -11.592068 12.780445 50.915100
90 0 1 -11.211866 13.683643 51.022888
91 0 1 -11.826166 14.374943 51.281097
92 0 1 -11.477367 15.143642 51.723389
93 0 1 -10.552366 15.592747 51.748596
94 0 1 -10.981867 16.358547 52.101013
95 0 1 -10.997868 15.761745 52.786102
96 0 1 -11.377768 16.282444 53.516388
97 0 1 -11.235968 15.548847 54.140991
98 0 1 -11.338469 14.752346 54.803101
99 0 1 -10.931168 14.572044 55.620605
100 0 1 -10.356968 14.760746 56.465515
101 0 1 -10.998468 14.392544 57.061584
102 0 1 -11.842968 14.126144 56.724213
103 0 1 -12.696867 13.654743 56.654388
104 0 1 -13.127268 14.468044 56.276917
105 0 1 -13.200369 14.431145 57.211609
106 0 1 -13.242868 13.674046 57.861908
107 0 1 -13.464067 12.760342 57.637604
108 0 1 -13.742369 12.999744 58.534912
109 0 1 -13.676569 12.308044 59.166901
110 0 1 -13.269968 11.815346 59.875397
111 0 1 -12.941668 11.024544 60.271301
112 0 1 -11.987568 10.850143 60.592010
113 0 1 -11.112967 10.508446 60.478790
114 0 1 -10.683268 9.644543 60.440094
115 0 1 -10.866266 8.854645 60.973389
116 0 1 -11.203466 8.609245 61.843903
117 0 1 -11.601267 7.914944 61.303192
118 0 1 -12.177069 7.841847 60.517212
119 0 1 -12.394667 7.210244 61.307709
120 0 1 -12.529167 6.580346 60.627289
121 0 1 -12.848167 6.396245 59.692200
122 0 1 -12.949469 5.456894 59.749603
123 0 1 -13.450167 4.632763 59.631195
124 0 1 -14.141368 3.985425 59.487610
125 0 1 -13.234367 3.536484 59.597504
126 0 1 -13.665167 2.728955 59.885895
127 0 1 -13.221067 2.794625 60.752289
128 0 1 -13.686369 3.587727 61.122589
129 0 1 -13.934868 4.457356 60.889099
130 0 1 -14.811268 4.646386 61.269287
131 0 1 -14.441567 4.341454 62.110504
132 0 1 -14.210868 3.910965 62.937592
133 0 1 -14.309367 2.972786 62.759491
134 0 1 -13.671968 2.401925 63.211609
135 0 1 -13.759768 1.894894 63.976807
136 0 1 -14.654367 1.882946 63.700684
137 0 1 -15.533268 1.465634 63.889008
138 0 1 -15.356467 0.539364 64.036987
139 0 1 -14.970867 0.865143 64.829010
140 0 1 -14.237468 0.297986 64.447083
141 0 1 -14.194568 0.193547 65.387909
142 0 1 -14.104068 0.251553 66.359711
143 0 1 -14.971468 0.561215 66.200989
144 0 1 -15.100267 1.233223 67.012085
145 0 1 -15.846567 1.145756 66.412109
146 0 1 -15.565468 2.033196 66.279999
147 0 1 -16.279667 2.698514 66.192108
148 0 1 -16.116667 2.630925 67.101593
149 0 1 -15.238068 2.959794 66.952087
150 0 1 -14.330667 2.946293 67.327515
151 0 1 -14.119167 3.501465 66.620483
152 0 1 -13.934267 4.220356 67.283691
153 0 1 -14.770867 4.040604 67.740784
154 0 1 -14.886268 4.790745 68.371399
155 0 1 -15.819967 5.049656 68.369995
156 0 1 -16.847767 4.913434 68.325317
157 0 1 -16.546467 5.637635 67.722504
158 0 1 -16.607267 6.434845 68.148804
159 0 1 -17.120268 6.533844 68.914703
160 0 1 -17.375467 6.646744 69.867889
161 0 1 -16.949568 5.812077 69.903809
162 0 1 -16.944668 5.782673 70.841400
163 0 1 -17.847569 5.672905 70.601501
164 0 1 -17.689667 6.478047 71.141205
165 0 1 -17.029968 6.517445 71.870209
166 0 1 -16.270967 6.517544 72.522797
167 0 1 -16.744467 7.315644 72.572906
168 0 1 -16.515167 7.150544 73.499207
169 0 1 -15.843468 6.689343 73.940491
170 0 1 -15.313667 6.150944 74.467712
171 0 1 -15.316467 6.626446 75.336487
172 0 1 -14.953068 6.231446 76.140198
173 0 1 -14.707968 5.596455 76.797791
174 0 1 -15.226768 5.150406 76.118591
175 0 1 -15.136468 4.210896 76.013916
176 0 1 -15.108368 3.317093 75.664703
177 0 1 -15.731468 2.666935 76.122711
178 0 1 -15.338267 2.194787 76.829895
179 0 1 -15.737667 1.741704 77.550201
180 0 1 -15.111668 2.313725 77.995697
181 0 1 -15.950367 2.211716 78.437408
182 0 1 -15.863068 2.977135 78.992889
183 0 1 -16.637367 3.214936 79.688904
184 0 1 -16.151768 4.004006 79.596008
185 0 1 -16.740068 4.828274 79.525391
186 0 1 -16.690668 5.270276 78.640594
187 0 1 -16.217468 5.651734 79.363190
188 0 1 -15.638268 5.658486 78.571411
189 0 1 -15.054368 6.228646 78.122711
190 0 1 -14.549667 5.943146 78.917114
191 0 1 -14.367067 6.866044 79.235504
192 0 1 -13.556768 7.239445 78.921295
193 0 1 -12.982367 7.591046 78.259216
194 0 1 -12.309668 7.301846 77.642212
195 0 1 -11.699167 6.897645 77.068207
196 0 1 -11.310167 6.723946 77.989319
197 0 1 -11.386667 5.990746 77.370789
198 0 1 -10.869066 5.414486 76.772003
199 0 1 -10.833067 4.779866 76.046814
200 0 1 -11.056768 5.367806 75.307190
201 0 1 -10.588667 4.826954 74.677490
202 0 1 -11.037867 3.940224 74.503906
203 0 1 -11.285769 4.147686 73.595093
204 0 1 -10.632467 4.315186 72.884308
205 0 1 -10.089369 3.597764 73.208191
206 0 1 -10.112568 2.629456 73.207611
207 0 1 -10.440668 1.804966 72.864105
208 0 1 -10.541468 1.929123 71.961182
209 0 1 -10.538467 2.760716 71.515503
210 0 1 -11.373266 3.140854 71.395508
211 0 1 -11.481367 3.977887 71.012299
212 0 1 -11.810368 4.591267 71.638397
213 0 1 -12.710169 4.315316 71.672791
214 0 1 -12.796667 5.043217 70.959991
215 0 1 -12.440866 5.937844 70.698486
216 0 1 -12.518368 6.604245 71.343994
217 0 1 -12.497168 7.034344 70.422791
218 0 1 -12.655668 7.195843 69.465302
219 0 1 -13.203669 7.523446 68.723999
220 0 1 -13.037767 8.418243 68.788208
221 0 1 -12.418867 9.105343 68.720581
222 0 1 -11.614069 9.077442 69.202789
223 0 1 -10.951567 9.365044 69.868408
224 0 1 -11.079268 8.400246 70.026917
225 0 1 -10.473867 8.198845 70.767090
226 0 1 -9.728167 8.209347 70.173401
227 0 1 -9.033838 7.788346 69.679382
228 0 1 -9.301157 7.461445 68.800598
229 0 1 -9.220098 8.263245 68.220093
230 0 1 -8.721968 7.776345 67.549194
231 0 1 -7.905027 8.176445 67.519592
232 0 1 -7.519768 7.402447 67.003906
233 0 1 -7.633448 6.772847 66.269104
234 0 1 -7.439827 6.460946 65.429108
235 0 1 -7.466967 5.660325 65.951782
236 0 1 -7.942507 4.816735 66.035400
237 0 1 -7.768019 4.329655 66.804688
238 0 1 -7.180637 4.729485 67.358704
239 0 1 -6.287687 4.532086 67.786011
240 0 1 -5.779007 4.519436 66.959991
241 0 1 -4.958128 4.080754 66.822083
242 0 1 -4.446537 4.290375 67.562317
243 0 1 -4.829708 4.800663 68.369904
244 0 1 -4.265547 5.266724 68.952393
245 0 1 -5.195147 5.511826 69.072388
246 0 1 -5.491898 5.328076 69.927307
247 0 1 -5.526897 4.770264 70.783997
248 0 1 -5.254017 4.137944 70.078796
249 0 1 -5.203367 3.407906 70.607208
250 0 1 -4.819696 2.549687 70.506104
251 0 1 -3.953577 2.805165 70.334717
252 0 1 -3.885128 2.305874 71.172302
253 0 1 -3.946917 1.676083 71.864319
254 0 1 -3.614138 0.689076 71.621094
255 0 1 -3.933848 0.589283 70.667694
256 0 1 -4.811567 0.489613 71.026703
257 0 1 -4.693918 -0.501514 70.821106
258 0 1 -4.097637 -1.202114 71.121490
259 0 1 -4.431007 -1.837436 70.488586
260 0 1 -4.813978 -2.469627 71.110107
261 0 1 -4.479807 -2.426105 72.008209
262 0 1 -4.395428 -3.223238 72.588989
263 0 1 -4.461548 -3.470531 73.529297
264 0 1 -4.164127 -2.586074 73.779205
265 0 1 -4.529097 -2.463603 74.664917
266 0 1 -5.515547 -2.344856 74.602295
267 0 1 -5.431517 -3.035455 73.829895
268 0 1 -5.857267 -3.363468 73.052094
269 0 1 -5.872408 -4.077621 72.360107
270 0 1 -5.346338 -4.377889 73.149811
271 0 1 -5.100187 -5.318454 73.398407
272 0 1 -6.020708 -5.149866 73.200195
273 0 1 -6.160398 -5.847776 72.544891
274 0 1 -5.819677 -5.122415 71.906189
275 0 1 -4.923107 -5.370035 71.639587
276 0 1 -3.949497 -5.308826 71.694519
277 0 1 -4.187567 -5.410055 70.773590
278 0 1 -4.196947 -5.487995 69.808411
279 0 1 -4.720978 -5.973615 69.122009
280 0 1 -4.350418 -5.473455 68.383118
281 0 1 -3.503199 -5.698566 67.976318
282 0 1 -3.139038 -4.955423 67.473694
283 0 1 -3.290709 -5.629625 66.811401
284 0 1 -2.539858 -5.832574 66.223511
285 0 1 -2.760828 -6.071405 65.277710
286 0 1 -1.829197 -6.464756 65.371002
287 0 1 -1.265747 -6.117525 66.069000
288 0 1 -0.626587 -5.790966 65.469604
289 0 1 0.242779 -5.922136 65.878510
290 0 1 1.220899 -5.879714 65.870392
291 0 1 0.967111 -5.690814 66.751190
292 0 1 1.633602 -5.066833 67.018707
293 0 1 0.993801 -4.368087 66.932709
294 0 1 1.447721 -3.756103 67.524811
295 0 1 2.008192 -3.310979 66.860596
296 0 1 2.210932 -2.813526 67.675690
297 0 1 2.194441 -2.908096 68.678284
298 0 1 1.940292 -3.518510 69.392700
299 0 1 2.567133 -4.166456 69.046906
300 0 1 2.810343 -4.033384 69.984009
301 0 1 3.604181 -4.544734 69.561890
302 0 1 4.517614 -4.301219 69.148102
303 0 1 4.052744 -3.830076 68.457886
304 0 1 4.232393 -3.310461 67.555389
305 0 1 5.008791 -3.862298 67.833893
306 0 1 5.290464 -4.112823 66.975708
307 0 1 5.909323 -4.092512 66.255402
308 0 1 6.669874 -4.681587 66.172913
309 0 1 6.269781 -5.385314 66.751007
310 0 1 6.706911 -6.297065 66.915710
311 0 1 6.876623 -7.037826 66.383301
312 0 1 6.056761 -6.715475 65.992188
313 0 1 6.594992 -6.086616 65.384094
314 0 1 7.098021 -6.822315 65.024811
315 0 1 6.232294 -7.254135 65.140594
316 0 1 6.453444 -7.905586 65.883911
317 0 1 5.565634 -8.163036 65.919403
318 0 1 5.914904 -8.890066 66.476990
319 0 1 5.814394 -9.271626 65.630890
320 0 1 5.789984 -9.781836 64.838593
321 0 1 5.913584 -10.766396 64.789185
322 0 1 5.757521 -11.743946 64.824219
323 0 1 5.132273 -12.130386 64.175690
324 0 1 4.565813 -12.722546 64.670288
325 0 1 4.928423 -13.499214 64.411011
326 0 1 5.668283 -12.968176 64.653900
327 0 1 6.489122 -13.447906 64.644287
328 0 1 7.178461 -13.587305 65.301086
329 0 1 7.476751 -14.462654 65.069397
330 0 1 8.269781 -14.136555 64.548401
331 0 1 8.117083 -15.081455 64.460297
332 0 1 8.727720 -15.855354 64.404419
333 0 1 9.075762 -15.083454 64.033813
334 0 1 9.583731 -14.937256 63.270203
335 0 1 10.100683 -14.639256 62.487091
336 0 1 10.337393 -15.116655 61.656708
337 0 1 9.533300 -14.587856 61.615509
338 0 1 10.259813 -14.389956 60.955597
339 0 1 10.180891 -13.545336 61.449585
340 0 1 11.143732 -13.312496 61.257996
341 0 1 10.554132 -12.733496 60.806305
342 0 1 9.670492 -12.696236 60.481293
343 0 1 9.818193 -12.398327 59.585388
344 0 1 10.539633 -11.756336 59.588196
345 0 1 11.367132 -12.085167 59.338196
346 0 1 11.594233 -13.003136 59.118408
347 0 1 11.819834 -13.950035 58.947510
348 0 1 11.449732 -14.813156 58.575287
349 0 1 11.666533 -15.724754 58.845703
350 0 1 11.045935 -16.419655 58.715698
351 0 1 11.063334 -16.584955 57.783813
352 0 1 11.491430 -16.962055 56.947296
353 0 1 12.208433 -16.670055 56.358307
354 0 1 11.695730 -17.321957 55.877808
355 0 1 11.335333 -17.604555 55.059204
356 0 1 12.027132 -18.171555 54.652893
357 0 1 12.341734 -18.359055 55.590088
358 0 1 11.826433 -19.184956 55.365112
359 0 1 12.166433 -19.116655 56.247986
360 0 1 12.687933 -19.449755 56.994812
361 0 1 11.878931 -19.160656 57.555511
362 0 1 11.011435 -19.075054 57.112305
363 0 1 11.187433 -18.072155 57.176605
364 0 1 10.355463 -17.572956 57.006195
365 0 1 9.569712 -17.159355 56.548584
366 0 1 8.724154 -17.109856 57.064911
367 0 1 7.934164 -17.443954 56.472900
368 0 1 7.514963 -17.550455 55.660492
369 0 1 7.876234 -18.389956 55.204407
370 0 1 7.409174 -18.759356 55.927185
371 0 1 6.896513 -18.753756 55.164490
372 0 1 6.093431 -18.740055 55.641998
373 0 1 6.089281 -19.125256 54.717010
374 0 1 6.210714 -19.099255 53.780792
375 0 1 6.601591 -18.774555 52.923889
376 0 1 6.235762 -19.372656 52.282806
377 0 1 5.803461 -18.869255 51.603790
378 0 1 5.224630 -19.655954 51.778900
379 0 1 4.815954 -19.080355 52.454407
380 0 1 3.911184 -18.664354 52.315491
381 0 1 4.458532 -17.945156 52.247803
382 0 1 4.283213 -17.310356 52.950897
383 0 1 3.338522 -17.350056 53.298401
384 0 1 2.504781 -16.895756 53.568390
385 0 1 2.253641 -16.001556 53.593903
386 0 1 1.331524 -15.886955 53.650208
387 0 1 0.797993 -15.162855 53.217194
388 0 1 0.020145 -15.714455 53.503296
389 0 1 -0.645437 -15.321957 52.980988
390 0 1 -0.728447 -14.505356 53.613586
391 0 1 -1.464447 -15.092356 53.730194
392 0 1 -1.916477 -15.877356 53.901184
393 0 1 -2.729658 -16.278755 53.689392
394 0 1 -3.714278 -16.440857 53.663513
395 0 1 -4.244297 -16.468857 54.480499
396 0 1 -5.137228 -16.442455 54.967896
397 0 1 -5.498377 -17.204556 55.403290
398 0 1 -5.920248 -17.700054 54.695007
399 0 1 -6.218367 -17.005257 54.020905
400 0 1 -6.609568 -16.186256 53.787506
401 0 1 -7.453407 -16.500557 54.162598
402 0 1 -7.644848 -15.510956 54.169617
403 0 1 -7.614027 -14.907757 54.869110
404 0 1 -7.602978 -13.983175 55.132385
405 0 1 -7.008638 -14.061756 54.327789
406 0 1 -6.829157 -13.064356 54.269806
407 0 1 -7.439299 -12.411366 54.591492
408 0 1 -7.193388 -12.624756 55.466797
409 0 1 -6.252308 -12.544624 55.635986
410 0 1 -5.873108 -12.090706 56.384216
411 0 1 -5.220457 -11.461685 56.060394
412 0 1 -5.228767 -12.190975 55.365509
413 0 1 -4.282257 -12.554375 55.344788
414 0 1 -3.721789 -12.359646 54.581390
415 0 1 -2.981287 -12.735085 54.042114
416 0 1 -2.690138 -11.791466 54.241302
417 0 1 -2.062147 -11.230145 53.813995
418 0 1 -1.205248 -11.125095 54.312683
419 0 1 -1.128187 -11.092026 53.342102
420 0 1 -0.300442 -10.523235 53.560211
421 0 1 -0.075598 -10.271906 54.408813
422 0 1 0.420917 -10.319746 55.231384
423 0 1 0.771362 -10.835476 54.492188
424 0 1 1.272636 -11.658606 54.136505
425 0 1 0.877001 -12.477736 53.705902
426 0 1 0.354662 -13.243984 53.456116
427 0 1 -0.023852 -13.889767 52.810699
428 0 1 -0.226414 -13.659817 51.929504
429 0 1 0.639879 -13.552036 51.545105
430 0 1 0.949768 -12.803156 50.961212
431 0 1 0.153955 -12.282866 51.268707
432 0 1 0.320053 -12.479136 52.206390
433 0 1 0.984711 -11.896456 51.957214
434 0 1 0.947235 -11.052706 52.404205
435 0 1 1.320856 -10.205215 52.307404
436 0 1 2.253351 -9.901917 52.437317
437 0 1 1.593002 -9.262646 52.241394
438 0 1 1.697512 -8.687796 52.989105
439 0 1 2.379522 -7.973236 53.115387
440 0 1 3.210562 -7.635194 53.491089
441 0 1 3.417162 -8.144016 54.205383
442 0 1 2.863691 -7.992275 55.023804
443 0 1 1.983713 -7.577646 55.016113
444 0 1 2.415193 -6.875865 54.481903
445 0 1 1.675142 -7.315765 54.048187
446 0 1 2.175634 -6.896116 53.315002
447 0 1 3.148142 -6.607305 53.117706
448 0 1 3.171854 -6.593835 52.197296
449 0 1 2.756704 -7.121734 51.514709
450 0 1 2.024801 -7.706834 51.318390
451 0 1 1.720522 -6.832294 51.558197
452 0 1 1.107279 -6.923055 50.841888
453 0 1 1.071609 -6.190855 50.225311
454 0 1 1.577701 -6.463365 49.464600
455 0 1 0.914535 -5.781515 49.288086
456 0 1 0.039741 -6.270565 49.262909
457 0 1 -0.880518 -6.389305 49.216309
458 0 1 -1.645258 -5.843275 49.220886
459 0 1 -2.280348 -5.631296 50.001587
460 0 1 -2.622137 -5.352914 50.848816
461 0 1 -2.824438 -4.442092 51.176910
462 0 1 -1.997578 -4.456705 51.567688
463 0 1 -1.634468 -4.316888 50.696594
464 0 1 -1.196518 -3.487129 50.926392
465 0 1 -0.611628 -2.668846 50.784485
466 0 1 0.030035 -2.096607 51.255310
467 0 1 0.537208 -1.383464 50.773804
468 0 1 1.323360 -1.310466 51.345612
469 0 1 2.221342 -1.195323 51.491302
470 0 1 2.009451 -0.552104 50.727203
471 0 1 2.363252 -0.051586 51.486694
472 0 1 2.342481 0.867924 51.864899
473 0 1 2.924894 1.484326 51.301392
474 0 1 2.554464 1.097935 50.516388
475 0 1 2.198641 0.974175 49.627686
476 0 1 2.087812 1.066037 48.674591
477 0 1 2.748670 0.658093 48.103912
478 0 1 3.617563 0.585946 47.881409
479 0 1 4.413084 1.182423 47.798401
480 0 1 4.595201 1.501275 46.985291
481 0 1 5.529051 1.491505 47.233093
482 0 1 6.426504 1.370144 47.463287
483 0 1 6.162233 1.904835 48.220795
484 0 1 6.509264 2.420407 47.540405
485 0 1 6.677122 3.343834 47.403809
486 0 1 6.966894 2.826325 46.694397
487 0 1 6.057001 2.622166 46.628204
488 0 1 5.305700 2.550286 46.025391
489 0 1 6.114393 2.272446 45.605408
490 0 1 5.847151 2.555886 44.683899
491 0 1 5.643011 2.888276 43.778412
492 0 1 5.046671 2.920907 42.937500
493 0 1 5.847933 3.452584 42.856110
494 0 1 5.883482 4.418774 42.946106
495 0 1 5.132402 4.662644 42.384705
496 0 1 4.853971 4.339283 41.570984
497 0 1 4.837954 4.091855 40.642883
498 0 1 5.489733 4.154683 39.899902
499 0 1 6.522604 4.015736 39.723816
500 0 1 7.418112 4.343655 39.787689
501 0 1 8.279272 4.008255 39.353699
502 0 1 8.493864 3.197564 38.820801
503 0 1 7.810373 3.667714 38.345703
504 0 1 6.944323 3.511685 38.132111
505 0 1 7.527182 3.017815 37.545410
506 0 1 7.809893 3.785824 36.949585
507 0 1 7.444063 4.613625 36.819305
508 0 1 6.493940 4.357964 37.022095
509 0 1 6.322504 4.408703 36.101410
510 0 1 6.404711 3.742684 35.430115
511 0 1 6.700701 3.094605 36.082886
512 0 1 5.783552 3.020073 36.458801
513 0 1 5.411413 3.806416 36.804291
514 0 1 4.929003 4.663205 36.683502
515 0 1 5.189062 5.353657 36.087891
516 0 1 5.102034 6.038746 35.413788
517 0 1 4.812311 5.460885 34.727905
518 0 1 3.933302 5.823147 34.924103
519 0 1 4.027052 4.950627 35.280609
520 0 1 3.974352 4.366745 34.420502
521 0 1 3.618131 3.780476 33.798187
522 0 1 4.168432 4.484925 33.450592
523 0 1 5.036982 4.131367 33.412994
524 0 1 4.745253 4.067955 32.401306
525 0 1 5.675100 3.995015 32.276703
526 0 1 5.247633 3.463543 31.541901
527 0 1 4.780062 3.986386 30.832489
528 0 1 3.989481 3.552247 30.477112
529 0 1 3.885923 4.305607 29.896210
530 0 1 3.555631 5.292275 29.768616
531 0 1 2.574163 5.388676 29.709595
532 0 1 2.374780 6.355244 29.829102
533 0 1 3.069593 6.976643 29.747803
534 0 1 2.711801 7.190445 28.813599
535 0 1 1.733093 7.353047 29.187592
536 0 1 1.154278 6.896847 28.514404
537 0 1 0.545746 6.810544 29.306000
538 0 1 0.445967 7.649144 29.692810
539 0 1 -0.366411 7.679547 29.226990
540 0 1 -0.013956 7.578747 28.325897
541 0 1 0.386968 8.412746 28.748199
542 0 1 1.141708 8.600044 28.048798
543 0 1 1.704962 8.999443 27.357391
544 0 1 1.286844 9.095745 26.437012
545 0 1 0.816610 9.376244 25.654999
546 0 1 0.011635 9.918945 25.642303
547 0 1 -0.726927 10.559044 25.478912
548 0 1 -1.513058 10.337643 25.942902
549 0 1 -1.576828 9.878742 25.141907
550 0 1 -1.873978 9.334347 24.355804
551 0 1 -2.849718 9.559044 24.475708
552 0 1 -3.730799 9.566345 23.963898
553 0 1 -4.044527 8.778942 24.427612
554 0 1 -4.571478 8.009544 24.764191
555 0 1 -5.149359 7.738945 25.485291
556 0 1 -5.647917 7.182244 26.139404
557 0 1 -6.540537 6.844845 26.177185
558 0 1 -7.252308 6.241147 26.100494
559 0 1 -7.606188 5.392346 25.804901
560 0 1 -7.137978 5.031376 26.537109
561 0 1 -6.999508 4.203465 26.059998
562 0 1 -7.572847 4.417775 25.358307
563 0 1 -7.428158 3.444664 25.588409
564 0 1 -8.240957 3.653405 26.139008
565 0 1 -8.386618 4.500184 26.577606
566 0 1 -9.107656 3.896817 26.693909
567 0 1 -10.009867 3.868886 26.276794
568 0 1 -9.686869 3.003396 26.612091
569 0 1 -10.108267 2.903626 25.659485
570 0 1 -10.102468 3.575444 24.975189
571 0 1 -10.068666 3.604725 23.993103
572 0 1 -10.345867 2.646367 23.816193
573 0 1 -9.478968 2.460465 24.283905
574 0 1 -8.584677 2.173275 23.853394
575 0 1 -8.684557 1.210824 24.014801
576 0 1 -8.578756 0.629426 24.784485
577 0 1 -7.951197 0.012845 25.163788
578 0 1 -7.789448 -0.917606 25.592896
579 0 1 -8.129568 -1.156486 24.739685
580 0 1 -7.323868 -1.441257 24.316895
581 0 1 -7.488108 -2.369934 24.480713
582 0 1 -6.711287 -2.619565 25.075989
583 0 1 -6.610468 -3.497594 24.612396
584 0 1 -6.822687 -3.659904 25.478790
585 0 1 -6.567266 -2.917255 26.063599
586 0 1 -6.120308 -2.069015 25.836304
587 0 1 -5.639008 -1.323764 26.145599
588 0 1 -5.365938 -1.255554 27.042389
589 0 1 -5.457067 -2.201416 26.983887
590 0 1 -5.245028 -2.886264 27.613892
591 0 1 -5.663279 -3.587808 27.155212
592 0 1 -4.844637 -3.925815 27.559692
593 0 1 -4.075747 -3.711715 27.079102
594 0 1 -4.040178 -3.045286 26.437592
595 0 1 -3.907158 -3.351755 25.467896
596 0 1 -3.018658 -3.553281 25.412903
597 0 1 -2.504648 -2.924964 24.885010
598 0 1 -2.690398 -2.131584 24.395386
599 0 1 -3.512238 -2.640766 24.554901
600 0 1 -3.395838 -3.480068 24.200409
601 0 1 -3.073258 -2.880556 23.542206
602 0 1 -3.491907 -3.028514 22.635712
603 0 1 -2.665049 -2.751874 22.281799
604 0 1 -1.948868 -2.470375 22.826996
605 0 1 -1.294397 -1.924476 23.396393
606 0 1 -0.808188 -1.487613 24.105591
607 0 1 -0.627907 -1.225814 24.987396
608 0 1 -0.997927 -0.776245 25.755096
609 0 1 -1.430607 -0.343345 26.519897
610 0 1 -0.988348 -0.899173 27.169403
611 0 1 -0.760668 -0.628067 28.063202
612 0 1 -1.232157 -1.010784 28.855988
613 0 1 -1.399918 -1.552314 28.058197
614 0 1 -1.128208 -2.411205 28.242706
615 0 1 -0.288475 -2.117176 27.808807
616 0 1 -0.442635 -1.917064 26.836212
617 0 1 -1.293997 -2.439334 26.835388
618 0 1 -1.796568 -3.181783 26.463104
619 0 1 -2.320278 -3.461669 27.226196
620 0 1 -2.645258 -4.260406 27.592194
621 0 1 -3.294918 -4.310377 28.304901
622 0 1 -3.222338 -3.563112 28.849487
623 0 1 -3.287487 -4.312133 29.424988
624 0 1 -3.574377 -3.898872 30.259491
625 0 1 -3.816967 -4.531044 30.964813
626 0 1 -3.252207 -5.207984 30.659088
627 0 1 -2.737137 -6.029565 30.511688
628 0 1 -3.692877 -6.183416 30.569000
629 0 1 -4.403769 -6.825786 30.709686
630 0 1 -3.483568 -7.212526 30.693115
631 0 1 -3.276879 -8.007626 31.212494
632 0 1 -2.542208 -7.806665 30.706604
633 0 1 -2.234389 -7.787855 29.772186
634 0 1 -1.896387 -7.265964 29.067291
635 0 1 -1.008867 -6.956464 29.342712
636 0 1 -0.358837 -7.227834 30.042694
637 0 1 -0.188719 -7.944385 30.697388
638 0 1 0.054264 -8.751015 30.273407
639 0 1 -0.428320 -8.448635 29.523590
640 0 1 -1.009497 -8.578775 30.298584
641 0 1 -1.415018 -9.011536 31.056488
642 0 1 -2.055708 -9.706766 30.893616
643 0 1 -2.725647 -9.845625 31.594604
644 0 1 -2.031758 -10.143345 32.131195
645 0 1 -1.702007 -10.699286 32.862610
646 0 1 -1.697397 -11.488705 33.345093
647 0 1 -1.416178 -11.707985 32.436401
648 0 1 -0.745697 -12.380726 32.186401
649 0 1 -0.043083 -12.662666 31.610504
650 0 1 0.387897 -13.323265 31.087799
651 0 1 1.352198 -13.394016 31.023102
652 0 1 1.767422 -14.237255 31.123413
653 0 1 2.547582 -14.172256 31.643616
654 0 1 2.928392 -14.425356 30.766785
655 0 1 2.173151 -14.875656 30.394592
656 0 1 2.761282 -15.564754 29.975891
657 0 1 3.046293 -14.949955 29.324005
658 0 1 3.842382 -14.647755 29.811707
659 0 1 4.394224 -15.363056 29.625916
660 0 1 4.641401 -15.015156 30.484985
661 0 1 5.119112 -14.209557 30.640106
662 0 1 5.758631 -13.970345 29.933411
663 0 1 6.490812 -13.745636 30.545502
664 0 1 7.046541 -13.230015 31.151184
665 0 1 6.534941 -12.648094 31.713501
666 0 1 6.787931 -11.780216 31.683289
667 0 1 7.401293 -11.516935 32.368988
668 0 1 8.173933 -10.950975 32.192596
669 0 1 8.996714 -11.464535 32.233002
670 0 1 9.816610 -10.921896 32.362701
671 0 1 10.546034 -11.205486 31.799103
672 0 1 9.935362 -10.731035 31.139099
673 0 1 9.883764 -9.773846 31.221588
674 0 1 9.445223 -9.662016 30.360199
675 0 1 9.854094 -9.094925 29.670593
676 0 1 10.702032 -8.683704 29.522095
677 0 1 10.955332 -7.962736 28.844696
678 0 1 11.244230 -7.205684 29.320984
679 0 1 12.178232 -7.144836 29.214111
680 0 1 13.032133 -7.538225 28.926392
681 0 1 13.427233 -6.825786 29.411102
682 0 1 13.610033 -5.950195 29.104004
683 0 1 13.925932 -5.277835 28.508484
684 0 1 14.778032 -5.658836 28.462494
685 0 1 14.294134 -6.441745 28.196198
686 0 1 15.125032 -6.858585 28.445801
687 0 1 14.833132 -7.626806 27.925415
688 0 1 14.262533 -8.172756 28.435486
689 0 1 13.647932 -8.220924 27.635986
690 0 1 13.512632 -7.976085 26.709686
691 0 1 13.206232 -8.878605 26.824188
692 0 1 12.573332 -9.297735 27.351807
693 0 1 11.931833 -9.203106 26.513702
694 0 1 12.293333 -9.733446 25.774902
695 0 1 11.830030 -10.415825 26.260406
696 0 1 12.116430 -11.196566 25.743713
697 0 1 12.141932 -10.625996 24.948090
698 0 1 12.676832 -10.223816 24.229614
699 0 1 12.999033 -9.356544 23.889313
700 0 1 13.632631 -10.000635 23.582397
701 0 1 14.171331 -10.195557 22.808411
702 0 1 14.370432 -10.599615 21.994293
703 0 1 13.625235 -11.193155 21.758392
704 0 1 13.501432 -10.209187 21.595306
705 0 1 12.869932 -10.055195 20.885406
706 0 1 12.364134 -9.252806 21.288406
707 0 1 12.237234 -8.583645 21.966202
708 0 1 12.264235 -7.653385 22.437698
709 0 1 12.101332 -6.813144 22.020401
710 0 1 11.690432 -6.624105 21.206299
711 0 1 11.039232 -7.025486 21.714706
712 0 1 11.175932 -6.951826 22.730103
713 0 1 10.931833 -6.721235 23.561096
714 0 1 10.057383 -7.040775 23.879395
715 0 1 9.337511 -7.140834 24.549194
716 0 1 9.182783 -7.953294 25.006195
717 0 1 9.484930 -8.643005 24.398590
718 0 1 10.389364 -8.758884 24.067505
719 0 1 9.822294 -9.307646 23.400208
720 0 1 9.215742 -10.067236 23.352997
721 0 1 8.526663 -10.808596 23.333099
722 0 1 8.272821 -11.636305 22.935913
723 0 1 7.342123 -11.422195 22.885803
724 0 1 7.095312 -10.556665 23.144409
725 0 1 7.505095 -11.102806 23.863892
726 0 1 7.662802 -10.277815 24.420410
727 0 1 6.741964 -10.489376 24.377594
728 0 1 6.378401 -9.666176 24.148407
729 0 1 7.163191 -9.334795 23.630890
730 0 1 6.983854 -8.926155 22.797791
731 0 1 7.279154 -9.553856 22.115997
732 0 1 7.289743 -9.456146 21.146698
733 0 1 6.688013 -8.720097 21.550003
734 0 1 7.411783 -8.149895 21.243698
735 0 1 7.814653 -7.239536 21.143204
736 0 1 8.315722 -6.482605 20.878601
737 0 1 9.226553 -6.757406 20.620193
738 0 1 9.442274 -6.239835 19.900101
739 0 1 8.672430 -5.882875 19.415298
740 0 1 8.848871 -5.177286 18.806396
741 0 1 9.244970 -4.845378 19.697998
742 0 1 10.013601 -4.173162 19.653992
743 0 1 10.571032 -3.441440 19.694000
744 0 1 11.072832 -2.636745 19.909500
745 0 1 11.593233 -2.717655 20.752899
746 0 1 12.312033 -2.585454 21.390701
747 0 1 13.250132 -2.859375 21.444794
748 0 1 13.489832 -1.948055 21.685898
749 0 1 13.906832 -1.436996 21.057495
750 0 1 13.560431 -0.735263 20.507507
751 0 1 13.343332 -1.381145 19.763397
752 0 1 12.902731 -1.968936 19.116104
753 0 1 12.803133 -2.520256 18.264404
754 0 1 12.115732 -3.071186 17.882797
755 0 1 11.694334 -3.539436 17.141495
756 0 1 11.278730 -4.275754 16.663605
757 0 1 12.082132 -4.581163 17.228394
758 0 1 11.469931 -5.288955 17.395706
759 0 1 11.725531 -6.126066 16.901199
760 0 1 10.782534 -5.936025 17.049500
761 0 1 10.054083 -5.668596 17.607605
762 0 1 10.623934 -6.283405 18.154999
763 0 1 9.971853 -6.671436 18.713104
764 0 1 10.393805 -7.346525 18.071594
765 0 1 11.081533 -7.618564 17.428802
766 0 1 11.873632 -8.080715 17.098297
767 0 1 12.459932 -8.881035 17.122696
768 0 1 12.066732 -9.501755 16.460403
769 0 1 12.415033 -8.947495 15.807907
770 0 1 11.854933 -8.323256 15.455597
771 0 1 11.421133 -8.394466 14.535904
772 0 1 10.682932 -7.900146 14.858200
773 0 1 10.277452 -8.020086 15.750305
774 0 1 9.455435 -7.942405 15.155792
775 0 1 8.791372 -8.660606 15.254196
776 0 1 8.589964 -8.117867 14.460205
777 0 1 8.572500 -8.072065 13.449402
778 0 1 9.496103 -8.062695 13.205704
779 0 1 9.741140 -7.616106 14.110596
780 0 1 9.582323 -6.727294 13.700500
781 0 1 9.396582 -6.003625 14.257401
782 0 1 8.652151 -6.662315 14.291306
783 0 1 8.078463 -6.324955 13.559006
784 0 1 7.246752 -6.061096 14.080307
785 0 1 6.797102 -5.334686 13.603897
786 0 1 6.500212 -5.650896 12.706696