LAMMPS data file via MDAnalysis

        2000  atoms
        1999  bonds
           0  angles
           0  dihedrals
           0  impropers

           1  atom types
           1  bond types
           0  angle types
           0  dihedral types
           0  improper types

-30.5 30.5 xlo xhi
-30.5 30.5 ylo yhi
-233.5 233.5 zlo zhi


Masses

1 1.000000

Atoms

1 0 1 -3.744127 4.473418 44.908112
2 0 1 -3.950776 4.442858 45.843384
3 0 1 -4.240728 4.741087 46.654785
4 0 1 -3.996196 4.078440 47.296387
5 0 1 -3.492217 3.431700 46.785400
6 0 1 -3.268089 2.704379 47.346710
7 0 1 -2.710454 2.586089 48.115509
8 0 1 -3.666764 2.404570 48.225586
9 0 1 -4.358387 1.812621 48.288910
10 0 1 -4.885097 1.683730 47.397583
11 0 1 -5.779188 1.873671 47.191498
12 0 1 -6.771226 2.107920 46.970093
13 0 1 -7.233316 2.198519 46.177704
14 0 1 -6.374567 2.298129 45.804199
15 0 1 -6.487047 3.083460 46.368988
16 0 1 -6.025367 3.445460 47.088287
17 0 1 -5.849447 4.180480 46.488586
18 0 1 -5.562948 4.345091 45.539703
19 0 1 -5.999307 5.238711 45.623505
20 0 1 -6.366148 5.415881 44.677704
21 0 1 -5.434938 5.146090 44.755615
22 0 1 -5.293077 5.951540 44.223999
23 0 1 -4.569797 5.769770 43.636200
24 0 1 -4.254278 5.273390 42.895111
25 0 1 -4.251527 6.280039 42.618896
26 0 1 -3.382425 5.733229 42.553497
27 0 1 -2.919112 5.307238 41.766907
28 0 1 -3.176727 5.825888 40.977600
29 0 1 -3.958177 5.724898 40.426392
30 0 1 -3.913976 6.704188 40.173492
31 0 1 -4.793977 6.373770 40.002594
32 0 1 -5.410577 6.847041 40.602112
33 0 1 -6.243047 7.312338 40.600006
34 0 1 -5.910757 8.217279 40.384705
35 0 1 -6.858057 8.266508 40.346588
36 0 1 -7.738678 7.853899 40.194794
37 0 1 -7.888406 6.969061 40.174805
38 0 1 -8.673217 7.150050 40.664185
39 0 1 -9.266276 7.395468 41.411316
40 0 1 -8.766446 8.162439 40.979797
41 0 1 -8.954396 9.086138 41.189087
42 0 1 -9.249036 9.622839 40.462097
43 0 1 -8.702586 10.252039 41.041412
44 0 1 -9.275086 10.355139 41.842590
45 0 1 -10.163526 10.400240 41.282196
46 0 1 -10.385907 9.576838 41.744202
47 0 1 -10.848157 10.185240 42.310791
48 0 1 -11.232167 11.036238 41.932007
49 0 1 -11.242427 10.452337 41.100403
50 0 1 -11.953927 11.081240 41.065186
51 0 1 -12.570848 11.638441 40.576416
52 0 1 -12.300317 11.907339 41.523590
53 0 1 -12.264356 12.728941 42.029297
54 0 1 -12.205426 13.566740 42.471710
55 0 1 -11.390466 13.440741 42.980408
56 0 1 -10.728717 13.697840 43.635193
57 0 1 -11.512366 13.134741 44.007812
58 0 1 -12.432147 13.281740 44.268707
59 0 1 -12.377076 14.190138 44.328613
60 0 1 -11.801236 14.863638 44.910889
61 0 1 -11.862197 15.235937 45.779388
62 0 1 -11.585847 16.189039 45.803802
63 0 1 -10.755586 16.468840 45.427887
64 0 1 -10.469546 17.392538 45.584290
65 0 1 -10.421556 17.105436 46.587585
66 0 1 -10.826377 16.899641 47.479187
67 0 1 -11.809587 16.794737 47.254913
68 0 1 -11.830117 15.862936 47.087585
69 0 1 -11.171468 15.453138 47.710388
70 0 1 -11.290498 15.642839 48.626801
71 0 1 -10.656537 16.307138 48.481110
72 0 1 -9.760226 16.262938 48.202087
73 0 1 -9.880446 15.627737 47.498413
74 0 1 -9.460588 14.758337 47.649689
75 0 1 -9.188916 13.892736 47.858795
76 0 1 -9.917296 13.175238 47.749603
77 0 1 -10.679557 12.821638 47.195587
78 0 1 -10.044806 12.481539 46.544617
79 0 1 -10.973096 12.076239 46.618286
80 0 1 -10.853646 11.186739 46.412689
81 0 1 -9.853326 11.211138 46.291901
82 0 1 -9.864547 10.420740 45.783691
83 0 1 -8.982186 10.691538 45.669983
84 0 1 -8.509646 10.149641 46.329712
85 0 1 -7.884847 9.576338 45.919708
86 0 1 -6.919878 9.502840 45.910492
87 0 1 -6.227737 9.231939 46.583984
88 0 1 -7.171167 9.188139 46.958008
89 0 1 -6.753778 8.421938 47.409088
90 0 1 -6.766447 8.165831 48.458008
91 0 1 -7.541276 7.936430 48.897217
92 0 1 -6.790527 7.900618 49.539917
93 0 1 -6.601987 7.009989 49.266907
94 0 1 -6.470268 6.734969 48.337402
95 0 1 -5.993677 7.079020 47.458313
96 0 1 -5.142658 7.493250 47.360504
97 0 1 -4.526517 6.932921 46.843903
98 0 1 -5.238388 6.369990 47.237213
99 0 1 -5.514247 5.430758 47.416595
100 0 1 -5.197048 5.583159 48.373901
101 0 1 -4.579637 6.245989 48.170410
102 0 1 -3.858947 5.754920 47.648590
103 0 1 -3.222867 6.469889 47.764099
104 0 1 -2.509752 6.411799 48.492706
105 0 1 -1.866500 7.054121 48.699707
106 0 1 -1.669486 7.539889 49.485809
107 0 1 -2.551229 7.672030 49.886200
108 0 1 -3.385242 7.223330 49.758789
109 0 1 -3.275756 6.338690 49.458801
110 0 1 -3.224557 5.638381 50.062592
111 0 1 -2.544183 4.993308 49.752808
112 0 1 -1.801807 4.392840 49.342407
113 0 1 -1.112626 4.127028 49.977509
114 0 1 -1.265567 3.890570 50.953705
115 0 1 -1.917480 3.240019 50.589691
116 0 1 -1.871022 2.350001 50.474091
117 0 1 -1.167806 1.788630 50.871399
118 0 1 -1.109887 2.686060 51.285492
119 0 1 -0.313047 2.574248 51.769012
120 0 1 -0.104326 3.403281 52.297699
121 0 1 -0.966539 3.585078 52.796997
122 0 1 -0.911317 2.814089 53.360687
123 0 1 -1.569726 2.313868 53.843109
124 0 1 -1.528217 3.238158 54.139099
125 0 1 -2.113008 4.147490 54.208710
126 0 1 -1.624057 4.507880 54.881195
127 0 1 -1.997445 5.385970 54.881012
128 0 1 -2.851094 5.546740 55.363708
129 0 1 -3.389722 6.322360 55.204102
130 0 1 -2.688968 6.704348 55.726196
131 0 1 -2.347848 6.732359 54.826202
132 0 1 -1.856178 7.343192 54.253998
133 0 1 -1.165418 6.737658 54.271393
134 0 1 -1.054609 5.900401 53.891388
135 0 1 -0.108178 5.719969 53.910309
136 0 1 0.561194 4.993887 54.117096
137 0 1 1.445433 5.342688 54.180603
138 0 1 1.179595 6.239401 54.037201
139 0 1 0.560752 6.513480 54.748810
140 0 1 0.956275 6.710879 55.636902
141 0 1 1.323203 7.209052 56.283203
142 0 1 0.927561 6.545649 56.785309
143 0 1 1.137732 5.672518 56.458099
144 0 1 0.702304 5.483061 57.251404
145 0 1 0.076113 6.100810 57.708801
146 0 1 -0.179426 6.497321 56.833801
147 0 1 -0.790048 5.779559 56.962708
148 0 1 -1.114328 5.946478 57.900513
149 0 1 -1.438457 6.898741 57.881104
150 0 1 -0.992227 7.049239 58.737915
151 0 1 -0.303579 6.665907 59.352997
152 0 1 0.475013 6.074858 59.627991
153 0 1 0.974692 6.082221 58.761108
154 0 1 1.604594 5.768519 58.053101
155 0 1 1.873072 5.149859 57.347900
156 0 1 2.432414 4.623530 57.902008
157 0 1 2.893752 4.097449 57.225494
158 0 1 3.781874 4.048651 57.575287
159 0 1 4.544291 4.018019 58.108490
160 0 1 4.860373 3.414320 58.823395
161 0 1 5.150824 2.720240 59.420807
162 0 1 5.704401 3.444838 59.763916
163 0 1 6.553805 3.841898 59.497894
164 0 1 6.976332 4.545271 59.050110
165 0 1 7.658801 4.034899 59.569702
166 0 1 7.835902 3.414309 58.924713
167 0 1 8.196403 3.202441 58.054993
168 0 1 8.848605 3.290400 58.769012
169 0 1 9.694003 3.044447 59.054108
170 0 1 10.415301 3.464438 59.591705
171 0 1 10.526904 2.574088 60.000305
172 0 1 10.647403 2.634791 59.025909
173 0 1 10.018802 1.893340 58.779114
174 0 1 10.131804 2.479239 58.059509
175 0 1 9.400104 2.029257 57.625183
176 0 1 9.465205 3.036559 57.519196
177 0 1 8.863204 3.741827 57.040283
178 0 1 8.508403 3.524519 56.144012
179 0 1 8.684604 3.334700 55.192017
180 0 1 8.618804 3.267119 54.282898
181 0 1 8.703403 3.140509 53.321594
182 0 1 7.825903 2.669280 53.297211
183 0 1 8.206405 2.101080 53.930389
184 0 1 8.432303 1.226000 54.324402
185 0 1 8.967803 2.023280 54.647491
186 0 1 9.747905 2.007700 55.180786
187 0 1 9.909701 1.524409 56.000000
188 0 1 10.821002 1.151530 56.289185
189 0 1 10.829501 0.629149 55.415588
190 0 1 11.399402 0.025168 55.949890
191 0 1 10.766902 -0.657661 55.968903
192 0 1 10.748405 -1.379062 55.291107
193 0 1 10.400504 -2.282922 55.174713
194 0 1 10.472102 -2.856071 54.345398
195 0 1 11.405002 -2.719890 54.570587
196 0 1 12.366702 -2.663961 54.697693
197 0 1 12.146304 -2.984411 53.820801
198 0 1 12.798804 -2.277420 53.806000
199 0 1 13.698504 -1.798057 53.808899
200 0 1 14.503303 -1.315841 53.840515
201 0 1 15.021804 -1.355117 52.893890
202 0 1 15.850001 -0.965578 53.028595
203 0 1 16.180704 -1.137914 52.142090
204 0 1 15.985503 -0.489101 51.454803
205 0 1 15.273906 -0.520551 50.666687
206 0 1 15.050906 -0.990045 49.872894
207 0 1 15.709102 -1.678255 49.662994
208 0 1 16.460100 -1.767688 50.284485
209 0 1 16.940104 -0.995092 50.595703
210 0 1 17.803301 -1.127243 51.042603
211 0 1 18.472403 -0.815012 50.482697
212 0 1 18.144602 -1.162304 49.661011
213 0 1 17.496302 -1.870279 49.804504
214 0 1 17.028002 -1.134927 49.379395
215 0 1 17.620203 -0.513462 48.929199
216 0 1 17.729403 0.524290 48.776489
217 0 1 16.772203 0.732809 48.770691
218 0 1 16.611403 1.435198 48.066498
219 0 1 17.188803 2.201468 47.893616
220 0 1 17.643305 2.068228 48.685791
221 0 1 17.873301 1.306918 48.139008
222 0 1 18.640505 1.748839 48.498596
223 0 1 19.021502 1.180079 47.865601
224 0 1 18.606104 0.317080 47.929199
225 0 1 19.177805 -0.332061 47.538696
226 0 1 19.959902 -0.800993 47.191406
227 0 1 19.519602 -0.578062 46.422211
228 0 1 19.771105 0.011870 45.737305
229 0 1 20.446203 -0.656002 45.838104
230 0 1 20.461000 -1.561859 46.146393
231 0 1 21.219400 -2.119760 46.234100
232 0 1 21.894800 -2.863380 46.433807
233 0 1 21.245600 -3.516641 46.181702
234 0 1 21.171503 -4.075420 45.382202
235 0 1 20.292803 -3.807260 45.584991
236 0 1 19.482500 -4.326391 45.588898
237 0 1 18.663202 -4.207380 46.051697
238 0 1 17.812502 -4.131620 46.570007
239 0 1 17.719805 -4.372011 45.602600
240 0 1 16.871401 -4.119192 46.087006
241 0 1 16.297503 -3.453920 46.551086
242 0 1 16.102201 -2.560417 46.779999
243 0 1 15.302302 -2.082813 46.592194
244 0 1 15.596301 -1.845533 45.738403
245 0 1 15.929706 -0.877990 45.626495
246 0 1 16.189104 0.011320 45.537811
247 0 1 16.470602 0.274710 44.660889
248 0 1 16.324900 1.093039 44.063599
249 0 1 16.516703 1.365248 43.204193
250 0 1 16.846704 1.852511 42.483887
251 0 1 17.470201 1.812868 41.765198
252 0 1 17.161501 2.684981 41.351196
253 0 1 17.182901 3.670531 41.502014
254 0 1 16.560503 3.971369 40.855591
255 0 1 15.954703 4.010138 40.044983
256 0 1 15.377505 4.391810 39.405609
257 0 1 16.327501 4.398188 39.003906
258 0 1 16.567301 4.514128 38.023407
259 0 1 17.411901 4.292380 37.632996
260 0 1 17.362001 3.694819 38.369812
261 0 1 16.878801 3.227889 37.579193
262 0 1 16.118902 2.767519 37.963501
263 0 1 15.310306 2.664069 37.455109
264 0 1 14.400302 2.344611 37.560211
265 0 1 13.883006 3.153868 37.464111
266 0 1 13.572001 3.039568 36.598206
267 0 1 12.891204 3.723650 36.882111
268 0 1 12.115203 4.226481 37.271698
269 0 1 11.940803 4.515849 38.230194
270 0 1 11.945003 5.513159 38.341400
271 0 1 11.331504 6.064818 37.984497
272 0 1 10.570304 6.356741 37.395508
273 0 1 9.726703 6.749220 37.103790
274 0 1 9.691504 5.889410 36.601593
275 0 1 9.704303 5.047190 36.147583
276 0 1 8.714503 5.026591 35.873505
277 0 1 7.760203 5.284468 36.080811
278 0 1 7.693804 4.336981 36.298584
279 0 1 8.031001 3.554678 36.688293
280 0 1 8.341304 2.869849 37.291595
281 0 1 9.164905 3.276610 37.789703
282 0 1 10.068805 3.220488 37.542114
283 0 1 9.981006 3.224970 36.578186
284 0 1 10.595904 3.862849 36.411896
285 0 1 11.027102 3.327368 35.744598
286 0 1 10.889403 3.844950 34.953094
287 0 1 11.372504 4.103610 34.188507
288 0 1 10.454104 3.927718 34.014008
289 0 1 9.657104 3.409300 33.689301
290 0 1 9.278605 2.611041 33.472107
291 0 1 8.727103 1.918238 33.700989
292 0 1 8.468204 1.803641 32.834198
293 0 1 8.481704 2.402861 32.023315
294 0 1 9.108401 2.740878 31.290894
295 0 1 8.492602 2.571768 30.501312
296 0 1 9.324103 2.215128 30.321594
297 0 1 10.117305 1.715227 30.575409
298 0 1 10.982402 1.978838 30.235504
299 0 1 11.003303 2.698168 29.596893
300 0 1 10.033305 2.887099 29.602814
301 0 1 9.905803 3.254469 30.494202
302 0 1 9.738902 3.955218 29.834503
303 0 1 9.274402 3.577960 29.101410
304 0 1 8.507903 3.097380 29.155396
305 0 1 8.041602 2.344420 28.798309
306 0 1 7.996005 2.125189 27.852692
307 0 1 7.158114 1.650248 27.763489
308 0 1 7.204772 1.345259 26.816803
309 0 1 6.358912 1.180609 27.234894
310 0 1 6.643885 0.261698 27.180206
311 0 1 7.613001 0.272108 27.099609
312 0 1 7.513304 0.371390 26.177185
313 0 1 8.339004 0.925990 26.258392
314 0 1 9.290504 0.955428 26.494598
315 0 1 9.577304 0.810809 27.381897
316 0 1 10.415301 0.202128 27.487213
317 0 1 10.320704 -0.755163 27.824005
318 0 1 10.996303 -1.012958 28.480408
319 0 1 11.421103 -0.076940 28.617096
320 0 1 11.912501 -0.623851 28.004089
321 0 1 11.855502 -1.643077 27.942413
322 0 1 11.788505 -1.128204 27.124908
323 0 1 11.633002 -1.743478 26.495300
324 0 1 12.207503 -1.088340 26.092712
325 0 1 12.720302 -0.616630 25.374603
326 0 1 13.421405 -0.538900 26.041290
327 0 1 13.796004 -0.777622 26.914490
328 0 1 14.118003 0.062380 26.982086
329 0 1 13.622504 0.588889 26.416809
330 0 1 14.228206 1.198569 25.948792
331 0 1 14.843802 1.367278 25.225494
332 0 1 15.120803 0.449358 25.475189
333 0 1 15.295104 -0.460250 25.281189
334 0 1 14.717704 -1.011207 25.879303
335 0 1 14.754001 -1.863510 26.294189
336 0 1 14.670104 -1.721866 27.291687
337 0 1 14.470504 -1.488905 28.210907
338 0 1 14.768901 -1.202476 28.979004
339 0 1 13.878703 -1.259435 29.342194
340 0 1 13.365802 -1.862276 29.828186
341 0 1 13.003203 -2.122554 30.751404
342 0 1 13.014705 -1.167129 31.082214
343 0 1 12.052802 -1.050777 31.198914
344 0 1 11.216804 -0.758739 31.011597
345 0 1 10.692702 -0.145830 30.554199
346 0 1 10.372005 0.224978 31.332794
347 0 1 10.979102 1.082251 31.465912
348 0 1 11.923305 0.770129 31.397186
349 0 1 12.651404 0.123179 31.687103
350 0 1 13.033504 0.776759 31.106689
351 0 1 13.682506 1.440298 30.777191
352 0 1 14.008903 1.724100 29.942810
353 0 1 13.587802 1.263510 29.185211
354 0 1 13.599204 2.027640 28.560211
355 0 1 12.695003 2.348719 28.627594
356 0 1 12.207503 1.749838 28.051605
357 0 1 11.863303 1.666548 27.111298
358 0 1 11.114104 2.269598 27.205414
359 0 1 10.950004 1.710749 26.440399
360 0 1 11.448901 1.630209 25.618896
361 0 1 10.797603 2.113200 25.115906
362 0 1 11.322303 2.111968 24.360504
363 0 1 11.028605 2.835288 23.800690
364 0 1 11.985904 2.700350 23.597412
365 0 1 12.885905 2.861548 23.891388
366 0 1 12.685802 2.642718 24.818207
367 0 1 11.956805 3.312239 24.922913
368 0 1 12.426204 4.135359 24.758911
369 0 1 12.690703 5.076319 24.725189
370 0 1 12.233806 5.898528 24.687897
371 0 1 11.925704 5.894660 23.828796
372 0 1 11.196902 5.913859 24.542603
373 0 1 10.402705 6.140769 24.002899
374 0 1 9.877402 6.659998 23.369202
375 0 1 10.771205 6.473780 23.095093
376 0 1 10.191005 5.740939 22.798706
377 0 1 9.299205 5.634020 23.070984
378 0 1 8.989505 5.882788 22.165100
379 0 1 8.353004 6.498961 22.475296
380 0 1 7.526003 6.979071 22.379807
381 0 1 8.207904 7.529768 21.913498
382 0 1 7.686903 6.890318 21.375198
383 0 1 7.712801 6.772017 20.461395
384 0 1 7.413302 7.397151 19.815598
385 0 1 6.853514 8.227499 19.780594
386 0 1 6.438471 8.833540 19.177795
387 0 1 5.857672 8.925539 18.472397
388 0 1 6.317065 9.362040 17.763794
389 0 1 6.307494 8.602140 17.173096
390 0 1 5.451914 8.840639 16.864304
391 0 1 5.295271 9.793039 16.649094
392 0 1 5.454401 10.689638 16.419998
393 0 1 5.039134 11.120237 17.183304
394 0 1 4.581683 11.653540 16.544800
395 0 1 4.701045 12.193438 15.707901
396 0 1 5.353484 11.611937 15.297607
397 0 1 5.410044 12.476038 14.920395
398 0 1 4.561804 12.827436 14.633606
399 0 1 4.669093 13.507940 13.922195
400 0 1 3.747714 13.275438 13.854202
401 0 1 3.241435 13.172140 13.050507
402 0 1 2.378112 12.996138 13.090195
403 0 1 1.718592 13.618738 13.415802
404 0 1 0.990153 13.205641 12.937500
405 0 1 1.370562 12.575941 13.564606
406 0 1 1.447104 11.600340 13.698807
407 0 1 1.657614 10.700338 13.975296
408 0 1 1.101893 10.232840 14.677399
409 0 1 1.874755 9.865240 15.064606
410 0 1 2.401412 9.585539 15.752808
411 0 1 2.692382 9.709040 16.687500
412 0 1 3.074565 9.279139 17.486694
413 0 1 2.703192 8.904539 18.264694
414 0 1 2.092074 8.640940 17.586304
415 0 1 1.213362 8.376837 17.891693
416 0 1 0.418143 7.826090 17.737900
417 0 1 0.636893 6.861178 17.925995
418 0 1 -0.046598 6.972250 18.626495
419 0 1 0.037715 6.333228 19.360596
420 0 1 -0.949975 6.523428 19.547607
421 0 1 -1.331067 7.386511 19.412201
422 0 1 -2.038869 7.504981 18.735703
423 0 1 -2.520103 6.891509 18.153305
424 0 1 -3.239270 7.301650 18.607605
425 0 1 -3.857547 8.062788 18.544998
426 0 1 -4.737617 8.412237 18.535202
427 0 1 -5.165807 8.627939 19.363892
428 0 1 -5.821348 9.312738 19.203400
429 0 1 -5.893266 10.064638 19.717499
430 0 1 -6.301507 10.906538 19.746597
431 0 1 -6.881828 11.085440 20.510803
432 0 1 -6.070596 11.374640 20.853394
433 0 1 -6.117097 10.661737 21.497192
434 0 1 -5.502227 9.948538 21.679199
435 0 1 -5.089277 9.800337 22.556488
436 0 1 -4.887928 8.883638 22.785889
437 0 1 -5.182098 8.448637 23.563904
438 0 1 -4.885807 8.893339 24.323486
439 0 1 -4.116098 9.035238 24.892914
440 0 1 -3.988357 8.147291 25.148315
441 0 1 -4.255487 8.409338 26.016785
442 0 1 -5.072088 7.995989 26.235413
443 0 1 -5.661617 7.921538 25.515411
444 0 1 -6.042617 7.852129 26.372101
445 0 1 -6.940677 7.735980 26.582397
446 0 1 -7.361637 6.923289 26.860687
447 0 1 -7.980907 7.475340 26.262085
448 0 1 -8.803178 7.724200 25.799408
449 0 1 -9.665177 7.231879 26.030884
450 0 1 -10.607017 7.342871 25.865112
451 0 1 -10.385627 7.979838 25.100189
452 0 1 -11.061717 8.030069 24.464111
453 0 1 -11.942048 7.873541 24.075287
454 0 1 -12.497758 7.108687 24.350891
455 0 1 -12.504706 6.113650 24.046295
456 0 1 -11.818566 5.799628 24.669495
457 0 1 -10.937947 5.504080 24.507385
458 0 1 -10.924275 4.513808 24.553314
459 0 1 -11.204076 4.162978 25.353210
460 0 1 -11.894906 4.714648 25.698792
461 0 1 -11.668717 3.927088 26.229889
462 0 1 -12.288938 3.218260 26.600311
463 0 1 -13.043696 3.541358 27.027802
464 0 1 -13.352197 2.813239 26.463409
465 0 1 -12.762597 2.089198 26.124908
466 0 1 -12.406466 1.953398 27.020691
467 0 1 -13.386497 2.055930 27.266205
468 0 1 -13.898297 1.305399 26.940796
469 0 1 -14.456496 1.308188 27.797302
470 0 1 -14.082597 1.021330 28.572693
471 0 1 -13.546296 0.493941 28.025696
472 0 1 -13.059396 0.155180 27.288696
473 0 1 -12.607327 -0.593200 27.653198
474 0 1 -12.040578 0.095908 28.123413
475 0 1 -12.424027 1.028189 28.148590
476 0 1 -12.235036 1.728720 28.799408
477 0 1 -11.600766 1.860011 29.471802
478 0 1 -11.595487 0.926318 29.316284
479 0 1 -10.629846 0.804011 29.582489
480 0 1 -9.674527 0.933478 29.704712
481 0 1 -8.955527 0.455229 29.226410
482 0 1 -8.559186 0.603690 30.087097
483 0 1 -7.677167 0.943400 30.355988
484 0 1 -6.810586 0.533450 30.124512
485 0 1 -6.618448 1.548190 30.181213
486 0 1 -5.697286 1.106497 30.204010
487 0 1 -4.950557 0.903258 29.705109
488 0 1 -5.134838 0.534468 28.779785
489 0 1 -5.911176 0.271288 28.265686
490 0 1 -6.109657 -0.237550 27.470490
491 0 1 -5.908468 0.556589 27.000916
492 0 1 -6.377717 1.143210 27.665100
493 0 1 -5.900016 2.076251 27.715302
494 0 1 -5.785577 2.810778 27.067596
495 0 1 -6.530887 3.336157 26.721405
496 0 1 -7.139537 3.034781 27.452606
497 0 1 -7.407657 3.918818 27.117188
498 0 1 -7.012136 4.784541 27.221710
499 0 1 -6.943277 5.725897 26.979004
500 0 1 -6.039068 5.372557 26.943207
501 0 1 -6.027217 5.534750 27.904510
502 0 1 -5.677436 5.084639 28.676392
503 0 1 -5.761787 5.871520 29.278412
504 0 1 -4.920787 5.493098 29.540588
505 0 1 -4.068847 5.062239 29.185699
506 0 1 -4.516918 4.664679 28.378784
507 0 1 -3.686048 4.196799 28.345093
508 0 1 -3.177505 3.358630 28.321106
509 0 1 -2.476911 3.978117 28.143494
510 0 1 -2.801461 4.026289 27.309509
511 0 1 -2.396060 4.827319 27.517914
512 0 1 -1.406987 5.032259 27.417603
513 0 1 -0.577257 4.531451 27.272095
514 0 1 0.207064 5.095221 27.053314
515 0 1 -0.650155 5.335719 26.582489
516 0 1 -0.373006 5.896269 25.835297
517 0 1 -0.624696 6.681460 26.438904
518 0 1 0.233782 7.154952 26.476196
519 0 1 1.024295 7.485579 25.965698
520 0 1 1.164233 8.487837 25.847595
521 0 1 1.866343 8.222639 26.478210
522 0 1 2.085662 8.973341 25.881195
523 0 1 2.826113 8.587141 26.399994
524 0 1 3.518843 8.064249 25.933105
525 0 1 4.035365 7.925742 25.177704
526 0 1 4.874384 7.950228 24.706299
527 0 1 4.917761 8.909739 24.786987
528 0 1 4.057944 8.874640 24.360809
529 0 1 3.327964 9.205439 23.851501
530 0 1 2.419833 9.213739 23.556702
531 0 1 1.764083 9.328840 24.294189
532 0 1 1.327643 10.079237 24.602386
533 0 1 0.603423 9.858240 24.000000
534 0 1 0.870913 10.358641 23.216492
535 0 1 0.657572 11.217638 22.786316
536 0 1 -0.112207 11.761339 22.874786
537 0 1 -0.394498 12.688437 23.172211
538 0 1 -0.020116 13.490141 23.680206
539 0 1 0.635504 13.834139 22.993500
540 0 1 0.945643 14.294939 22.214905
541 0 1 1.499903 14.761137 22.871613
542 0 1 0.710932 15.165640 23.323914
543 0 1 1.239493 15.831438 22.926788
544 0 1 0.513774 16.340738 23.287292
545 0 1 0.959735 17.072241 23.629608
546 0 1 1.868521 17.223238 23.445984
547 0 1 2.637904 17.475241 24.012787
548 0 1 3.433913 17.352636 24.545990
549 0 1 2.831084 16.821737 25.066193
550 0 1 2.931094 15.941839 25.459106
551 0 1 3.396254 15.122438 25.812805
552 0 1 4.194884 15.637239 25.816803
553 0 1 4.464003 15.728941 26.682709
554 0 1 5.077891 16.247038 26.112213
555 0 1 5.694735 16.583036 25.444489
556 0 1 6.609454 16.745741 25.784607
557 0 1 6.520152 16.988241 24.903809
558 0 1 7.443202 16.721441 24.807587
559 0 1 8.276404 16.697439 24.259888
560 0 1 8.506103 17.532537 23.862000
561 0 1 8.212203 17.081038 23.056793
562 0 1 8.745902 17.820440 22.675690
563 0 1 8.287105 18.690039 22.532990
564 0 1 8.081702 18.950438 21.639603
565 0 1 8.156505 18.685839 20.716293
566 0 1 7.272242 19.084341 20.624496
567 0 1 6.574252 18.475439 20.331207
568 0 1 5.764254 18.198839 19.808197
569 0 1 5.579062 18.414137 18.868805
570 0 1 5.921744 18.262339 17.942200
571 0 1 5.475085 18.106539 17.132095
572 0 1 5.406664 19.017839 17.485504
573 0 1 5.931765 19.369741 16.748398
574 0 1 6.170992 18.775938 16.000900
575 0 1 6.035594 18.154940 15.214600
576 0 1 5.073332 18.121740 15.502197
577 0 1 5.017073 17.782740 14.602402
578 0 1 4.757563 17.981539 13.716293
579 0 1 5.125384 18.199240 12.804108
580 0 1 5.288561 18.275236 11.869400
581 0 1 5.658671 19.105337 12.121002
582 0 1 6.257193 18.841040 11.359497
583 0 1 6.738623 18.039038 11.703400
584 0 1 7.237002 18.343939 12.453094
585 0 1 7.185801 17.812040 13.259598
586 0 1 6.268012 17.516340 13.332901
587 0 1 6.100001 17.010038 14.123795
588 0 1 5.776564 16.165136 13.863297
589 0 1 5.599082 15.291639 14.233902
590 0 1 5.035353 15.341940 13.443893
591 0 1 4.064993 15.225439 13.622101
592 0 1 3.310012 15.506338 13.098404
593 0 1 2.920382 14.917639 12.403107
594 0 1 2.315295 15.642141 12.487793
595 0 1 1.407393 15.853437 12.035797
596 0 1 1.983012 16.457338 11.520996
597 0 1 1.680724 17.311041 11.213303
598 0 1 2.173003 17.934736 11.770294
599 0 1 2.416114 18.827940 11.643204
600 0 1 2.380294 19.612238 12.224396
601 0 1 2.726245 20.153639 11.496597
602 0 1 3.081122 21.016836 11.429901
603 0 1 4.033682 21.348539 11.483597
604 0 1 4.283034 22.307039 11.704498
605 0 1 4.425204 22.676741 10.861206
606 0 1 5.020014 22.388739 10.186600
607 0 1 5.894972 22.230841 10.564804
608 0 1 6.041613 21.304441 10.299500
609 0 1 6.962161 21.130636 9.886475
610 0 1 6.542994 20.578440 9.193298
611 0 1 6.081431 20.067938 8.545990
612 0 1 6.284983 19.153738 8.767822
613 0 1 5.604392 19.242041 8.105835
614 0 1 6.536234 19.062941 7.799957
615 0 1 7.211752 18.336039 7.647766
616 0 1 8.059505 17.871038 7.495163
617 0 1 8.314403 18.047838 6.580536
618 0 1 8.176204 18.652937 5.809570
619 0 1 8.533504 19.380438 6.306747
620 0 1 9.129802 19.583937 6.988342
621 0 1 9.067405 19.782339 7.935181
622 0 1 9.877002 19.143839 8.175308
623 0 1 10.469203 19.489538 8.881836
624 0 1 10.565604 18.843840 9.616837
625 0 1 11.544803 18.596540 9.818192
626 0 1 10.930102 18.232740 10.510605
627 0 1 10.314204 17.612139 10.270996
628 0 1 9.391704 17.411139 10.532104
629 0 1 8.481704 17.586439 10.463104
630 0 1 8.130103 18.268538 9.875565
631 0 1 8.295302 18.097738 8.952179
632 0 1 8.961505 17.678137 9.477905
633 0 1 9.531604 17.561636 8.722168
634 0 1 10.130004 16.802439 8.676605
635 0 1 9.446002 16.275541 9.100449
636 0 1 8.653102 16.013838 9.467255
637 0 1 8.046603 15.967840 8.739487
638 0 1 7.214961 15.529242 8.947983
639 0 1 6.707503 14.872137 8.432739
640 0 1 6.314372 14.185240 8.895493
641 0 1 6.397944 13.239439 8.711884
642 0 1 6.667292 12.484240 8.282379
643 0 1 6.761103 13.078539 7.534576
644 0 1 6.127463 12.494238 7.112976
645 0 1 5.462222 12.785940 7.772598
646 0 1 5.001631 12.007738 7.491211
647 0 1 5.352465 11.405138 6.830917
648 0 1 4.920302 11.999338 6.186279
649 0 1 4.081263 11.448038 5.999329
650 0 1 3.241492 11.419138 6.436554
651 0 1 3.017085 10.837938 5.784119
652 0 1 3.352935 9.906839 5.915497
653 0 1 4.249533 9.695440 5.561584
654 0 1 4.968852 9.988138 4.995422
655 0 1 5.451083 10.565840 5.805084
656 0 1 5.364871 9.679739 6.175888
657 0 1 4.933642 8.869139 6.422073
658 0 1 5.007533 8.042547 5.971756
659 0 1 5.044344 7.254000 6.565506
660 0 1 5.592791 6.353949 6.661835
661 0 1 6.483683 6.504839 6.933868
662 0 1 6.869322 7.336447 6.760376
663 0 1 7.058642 6.797820 5.994034
664 0 1 6.515063 6.483439 5.203064
665 0 1 7.264952 6.235098 4.609055
666 0 1 7.558104 7.139349 4.887604
667 0 1 8.162803 7.331561 4.149109
668 0 1 8.993403 7.400618 3.614624
669 0 1 8.876304 6.962851 2.753006
670 0 1 8.917201 5.951140 2.712265
671 0 1 9.882102 6.047141 2.429626
672 0 1 9.894004 5.984511 3.391876
673 0 1 10.667403 6.306868 3.911133
674 0 1 10.137004 6.042109 4.628906
675 0 1 10.837405 5.387511 4.635574
676 0 1 11.666102 5.002829 4.305313
677 0 1 11.724505 5.922678 4.442459
678 0 1 11.516402 6.885870 4.756348
679 0 1 12.081405 6.676970 5.463104
680 0 1 11.554805 6.280089 6.127457
681 0 1 12.019603 5.407218 6.266357
682 0 1 12.062903 4.861819 5.434814
683 0 1 12.174903 3.891860 5.672913
684 0 1 13.080401 3.676760 5.391586
685 0 1 13.232402 3.770388 4.461807
686 0 1 13.147902 4.737380 4.339157
687 0 1 12.555602 4.673308 3.591019
688 0 1 12.119304 4.976840 2.783630
689 0 1 12.977103 4.954070 2.312424
690 0 1 12.349803 5.621909 2.086838
691 0 1 12.282702 6.642508 2.180725
692 0 1 11.351203 6.748938 1.884659
693 0 1 11.778605 7.311759 1.275360
694 0 1 12.675803 7.273760 1.017975
695 0 1 12.882003 8.193518 1.351395
696 0 1 13.660403 8.689440 1.008026
697 0 1 13.141002 9.194738 0.360916
698 0 1 12.213103 8.835939 0.235046
699 0 1 11.529902 9.357840 0.760422
700 0 1 12.141902 10.056540 0.584564
701 0 1 12.487304 10.184141 1.462189
702 0 1 12.351203 10.435637 2.438034
703 0 1 11.387202 10.437040 2.434937
704 0 1 11.220805 10.526937 1.537155
705 0 1 11.635303 11.091639 0.901626
706 0 1 12.068202 11.697538 0.269714
707 0 1 11.337405 12.112638 0.749405
708 0 1 10.432403 12.197538 1.121216
709 0 1 10.014606 12.670740 1.809723
710 0 1 10.961902 12.433538 2.039352
711 0 1 11.671306 13.114038 1.991104
712 0 1 11.547503 14.008440 2.130981
713 0 1 11.977603 14.843138 2.211273
714 0 1 12.858104 15.169340 1.812317
715 0 1 13.119105 14.337839 2.362305
716 0 1 13.162402 13.564539 1.796249
717 0 1 12.498504 13.983038 1.284683
718 0 1 11.901702 14.184637 0.567276
719 0 1 12.174003 15.060339 0.893051
720 0 1 12.432902 15.934141 0.433624
721 0 1 11.719504 15.699041 -0.181534
722 0 1 11.974505 15.014837 -0.790299
723 0 1 11.558402 15.748137 -1.255005
724 0 1 10.694705 15.911638 -0.880264
725 0 1 9.986705 16.446737 -0.592087
726 0 1 10.141204 16.883741 -1.495087
727 0 1 9.242904 17.197939 -1.522446
728 0 1 8.388904 17.359339 -1.985108
729 0 1 8.019603 16.785238 -2.622574
730 0 1 8.001605 15.782240 -2.562347
731 0 1 8.566703 15.619139 -3.410858
732 0 1 8.016803 14.797537 -3.780731
733 0 1 7.836104 13.936338 -4.201126
734 0 1 6.935191 14.167540 -4.381454
735 0 1 7.197085 15.133741 -4.466049
736 0 1 6.601073 14.909140 -5.145950
737 0 1 6.514304 15.453337 -5.977173
738 0 1 7.425002 15.107336 -6.104431
739 0 1 7.226054 15.466436 -6.978180
740 0 1 6.527152 16.130140 -7.153656
741 0 1 5.959593 15.409140 -6.962814
742 0 1 5.492514 14.691839 -7.445923
743 0 1 4.643832 14.411337 -7.046387
744 0 1 4.672553 13.463140 -7.246445
745 0 1 4.220164 12.605337 -6.980576
746 0 1 5.018904 11.981638 -7.134644
747 0 1 5.226683 11.266340 -7.712845
748 0 1 5.742934 11.951437 -8.149734
749 0 1 5.552645 12.451838 -8.988937
750 0 1 5.512564 12.232340 -9.959686
751 0 1 5.054083 12.959040 -10.326797
752 0 1 5.082572 13.865339 -10.626099
753 0 1 6.026034 13.806639 -10.502808
754 0 1 6.486102 14.620638 -10.292206
755 0 1 6.259043 15.009939 -11.141006
756 0 1 5.963343 15.135138 -12.035599
757 0 1 5.267512 14.871038 -12.595200
758 0 1 4.931773 14.044241 -13.210403
759 0 1 4.715121 13.161440 -12.903503
760 0 1 4.180361 12.423838 -13.244507
761 0 1 5.065104 12.234838 -13.661102
762 0 1 5.226843 11.307440 -13.713699
763 0 1 4.794463 10.441538 -13.806702
764 0 1 5.287184 9.651339 -13.883102
765 0 1 6.018412 9.200941 -14.277603
766 0 1 5.908972 8.712240 -13.515106
767 0 1 6.705473 8.468840 -12.955505
768 0 1 7.337603 7.909201 -12.653793
769 0 1 7.726103 7.203528 -13.289703
770 0 1 8.522601 7.463858 -12.696304
771 0 1 9.107802 8.145987 -12.320404
772 0 1 8.805102 8.245729 -11.381393
773 0 1 7.908003 8.300039 -11.007797
774 0 1 7.092005 8.337141 -10.575500
775 0 1 7.273531 8.024580 -9.659790
776 0 1 7.897402 8.634539 -9.241486
777 0 1 8.368403 8.370939 -8.419998
778 0 1 8.693103 7.771410 -7.751175
779 0 1 8.458304 6.884390 -7.940323
780 0 1 7.644904 7.197638 -8.350967
781 0 1 6.772173 6.900328 -8.560150
782 0 1 6.105093 6.984618 -7.901749
783 0 1 5.247984 6.595809 -8.054794
784 0 1 4.492693 6.397608 -8.657639
785 0 1 3.840293 6.883379 -9.302414
786 0 1 4.268843 7.341658 -10.037201
787 0 1 4.491293 6.485709 -10.438004
788 0 1 5.057143 6.254057 -11.175903
789 0 1 4.650671 5.653677 -11.970001
790 0 1 4.475253 6.305220 -12.713303
791 0 1 5.383994 6.586268 -12.479797
792 0 1 6.162531 7.205378 -12.030304
793 0 1 6.674754 6.843600 -11.338501
794 0 1 7.201464 6.155879 -11.824402
795 0 1 7.489802 5.243918 -11.462906
796 0 1 7.817404 4.412119 -11.938904
797 0 1 7.491305 3.899718 -12.699707
798 0 1 7.027403 3.789900 -13.534805
799 0 1 7.715102 3.450690 -14.128799
800 0 1 7.445204 4.241370 -14.594406
801 0 1 8.239505 4.788168 -14.913101
802 0 1 9.137004 4.574667 -15.181793
803 0 1 9.496203 5.022940 -14.445694
804 0 1 9.266002 5.051730 -13.520294