LAMMPS data file via MDAnalysis

        2000  atoms
        1999  bonds
           0  angles
           0  dihedrals
           0  impropers

           1  atom types
           1  bond types
           0  angle types
           0  dihedral types
           0  improper types

-30.5 30.5 xlo xhi
-30.5 30.5 ylo yhi
-233.5 233.5 zlo zhi


Masses

1 1.000000

Atoms

1 0 1 4.182700 27.165167 64.384583
2 0 1 4.143652 26.233164 64.208496
3 0 1 5.002272 25.970964 63.932007
4 0 1 5.745970 25.708067 63.373199
5 0 1 5.837569 25.059069 63.994904
6 0 1 6.698973 24.689669 63.703705
7 0 1 7.103671 23.935465 63.261108
8 0 1 6.420672 24.056864 62.553894
9 0 1 5.966570 23.223764 62.743713
10 0 1 5.480570 23.975367 63.080902
11 0 1 5.187670 23.148569 63.449890
12 0 1 4.505171 23.091364 64.241394
13 0 1 4.188601 22.911066 65.151184
14 0 1 3.448073 23.496267 64.865784
15 0 1 3.161292 24.134867 65.516998
16 0 1 2.206122 24.447966 65.637512
17 0 1 1.723002 24.102564 64.805908
18 0 1 1.690020 23.182169 65.051392
19 0 1 1.423812 22.438364 64.530304
20 0 1 0.548171 21.876966 64.549011
21 0 1 -0.074380 22.546968 64.818115
22 0 1 0.120101 22.779367 65.710205
23 0 1 0.506602 23.483568 66.262299
24 0 1 0.961722 22.647364 66.517212
25 0 1 1.256411 21.767466 66.341614
26 0 1 2.003871 21.565466 66.902283
27 0 1 2.014292 21.027964 67.733704
28 0 1 1.325061 21.707964 67.866516
29 0 1 1.045230 21.975069 68.755402
30 0 1 1.800563 22.350767 69.240204
31 0 1 1.211962 22.699564 70.004791
32 0 1 0.975882 23.632467 69.656006
33 0 1 0.311022 23.605364 68.945099
34 0 1 -0.009027 22.906565 69.475403
35 0 1 -0.933729 22.581366 69.475494
36 0 1 -1.020917 21.850367 70.099701
37 0 1 -0.774087 22.340868 70.915009
38 0 1 -1.516408 23.003969 70.861816
39 0 1 -1.746080 23.795969 71.386505
40 0 1 -1.777128 24.415865 72.114990
41 0 1 -2.673837 24.137468 71.771698
42 0 1 -3.255498 24.902266 71.649200
43 0 1 -3.418920 25.844767 71.846802
44 0 1 -2.516919 25.762964 72.066895
45 0 1 -2.266870 26.679567 72.025909
46 0 1 -1.614370 26.466467 71.416382
47 0 1 -1.264550 26.974268 72.129303
48 0 1 -0.809358 26.580866 72.812408
49 0 1 -0.044790 25.986967 72.981110
50 0 1 0.286471 26.296465 73.875397
51 0 1 0.196410 26.298464 74.842712
52 0 1 -0.656789 25.981367 74.647705
53 0 1 -1.464360 26.319468 74.161011
54 0 1 -2.308641 26.753466 74.276093
55 0 1 -2.246598 26.348066 75.141785
56 0 1 -1.965139 25.535166 75.544312
57 0 1 -1.047899 25.260267 75.748810
58 0 1 -0.476968 25.985765 75.816498
59 0 1 -0.535688 25.465666 76.724182
60 0 1 -0.542638 24.521265 76.496887
61 0 1 0.374030 24.554167 76.088501
62 0 1 0.608283 25.458166 75.912994
63 0 1 1.344561 25.232767 76.506897
64 0 1 1.920172 25.048464 77.248596
65 0 1 2.246890 25.195967 78.130096
66 0 1 2.450320 24.262964 78.493805
67 0 1 2.996482 23.500666 78.933990
68 0 1 3.067420 22.956568 78.099609
69 0 1 2.729792 22.128267 77.859894
70 0 1 2.208701 22.359369 77.065094
71 0 1 1.392340 22.500067 76.608215
72 0 1 1.058200 23.118166 77.211304
73 0 1 0.462882 23.937868 76.948181
74 0 1 -0.236070 23.782465 77.586090
75 0 1 -0.835229 22.993666 77.839203
76 0 1 -0.656198 22.965265 78.740417
77 0 1 -1.182840 23.151667 79.597992
78 0 1 -1.194448 23.282068 80.555786
79 0 1 -0.511659 23.853968 80.760101
80 0 1 -0.225930 24.655764 80.348083
81 0 1 -0.119848 25.246767 81.142700
82 0 1 -0.181199 25.172167 82.126282
83 0 1 0.264922 25.090769 82.973999
84 0 1 0.938601 25.608267 83.518707
85 0 1 1.392581 25.715166 84.314911
86 0 1 2.070372 25.256365 83.784607
87 0 1 1.993361 24.340067 83.581909
88 0 1 1.929412 23.511568 83.055786
89 0 1 2.393363 22.767969 82.633484
90 0 1 1.714171 22.164164 82.744385
91 0 1 1.981459 22.053568 81.815491
92 0 1 2.674102 22.360964 81.109497
93 0 1 3.654082 22.006769 80.889282
94 0 1 3.818579 22.643465 80.223389
95 0 1 3.868941 23.341967 79.559814
96 0 1 4.103133 22.580866 79.013000
97 0 1 3.635199 21.693369 78.827789
98 0 1 4.359572 21.622568 79.458801
99 0 1 4.334570 21.412867 80.384796
100 0 1 4.026541 20.506868 80.506897
101 0 1 3.075572 20.644365 80.315796
102 0 1 3.057780 20.836168 79.373596
103 0 1 3.097403 19.897669 79.417511
104 0 1 2.532141 20.123167 78.693787
105 0 1 1.551562 20.090265 79.036407
106 0 1 0.555270 19.943064 79.119202
107 0 1 0.764731 19.955366 78.168304
108 0 1 1.356433 19.243769 77.956116
109 0 1 0.597872 18.953165 77.252014
110 0 1 0.756499 18.514967 76.397400
111 0 1 0.958373 18.472864 75.492188
112 0 1 0.878001 18.342367 74.531006
113 0 1 0.017722 17.926668 74.357391
114 0 1 0.611792 17.770166 73.572998
115 0 1 1.573203 17.357065 73.637512
116 0 1 1.816840 17.095865 72.733398
117 0 1 2.490599 16.659967 72.268097
118 0 1 2.056102 15.957468 72.787109
119 0 1 1.186000 16.051466 73.051300
120 0 1 1.003119 15.467966 73.752197
121 0 1 0.312842 15.217768 74.368591
122 0 1 -0.527391 14.869665 74.825806
123 0 1 -0.736379 14.119665 75.334106
124 0 1 -1.278890 14.244265 74.528900
125 0 1 -1.488168 14.781267 73.744690
126 0 1 -2.239099 14.217867 73.665009
127 0 1 -2.057378 13.541166 73.073700
128 0 1 -2.306749 13.680765 72.124603
129 0 1 -3.206830 13.359667 72.256287
130 0 1 -3.186807 13.391367 71.309204
131 0 1 -3.870000 12.758368 71.119019
132 0 1 -3.256810 12.204165 71.595001
133 0 1 -2.585878 11.904867 72.231384
134 0 1 -3.024511 11.118265 72.392609
135 0 1 -3.909749 10.926565 72.631104
136 0 1 -3.436319 11.145567 73.441101
137 0 1 -3.295587 10.259066 73.560699
138 0 1 -2.609998 9.829275 74.088318
139 0 1 -2.829057 8.864985 74.322601
140 0 1 -2.377580 8.024736 74.499298
141 0 1 -1.397020 8.190935 74.421509
142 0 1 -0.945558 8.959585 74.689209
143 0 1 -0.686979 9.781435 74.017883
144 0 1 0.143393 9.757257 73.478607
145 0 1 -0.011461 10.667368 73.507904
146 0 1 -0.410089 10.588167 72.582092
147 0 1 -0.990110 9.980337 72.877197
148 0 1 -1.280210 9.106638 72.648590
149 0 1 -0.716920 8.318007 72.601196
150 0 1 0.212081 8.488417 72.687500
151 0 1 0.635993 8.403727 71.858398
152 0 1 0.831790 8.989885 71.085510
153 0 1 0.419779 8.342527 70.427490
154 0 1 0.781260 8.067537 69.648895
155 0 1 0.297801 7.332765 69.303589
156 0 1 0.410941 6.380956 69.489502
157 0 1 1.002379 6.055406 68.743805
158 0 1 0.650450 5.502527 67.993500
159 0 1 1.464782 5.125497 67.674500
160 0 1 2.369742 5.378618 67.351318
161 0 1 2.975581 6.113298 67.215302
162 0 1 3.807219 6.310525 67.614197
163 0 1 4.134741 5.426668 67.942993
164 0 1 3.758921 5.594587 68.841095
165 0 1 3.480120 5.879396 69.736389
166 0 1 4.447669 6.025556 69.919800
167 0 1 4.672671 6.385305 70.781799
168 0 1 4.505469 5.564706 71.308716
169 0 1 3.900592 5.947595 71.993286
170 0 1 3.666171 5.356145 72.691711
171 0 1 2.808680 4.803415 72.521393
172 0 1 2.714850 4.124414 71.893616
173 0 1 2.806243 3.351755 72.431213
174 0 1 3.335402 2.723047 71.913818
175 0 1 3.186610 1.907205 71.428009
176 0 1 3.323542 1.172445 70.865204
177 0 1 2.378730 1.041177 70.571716
178 0 1 2.296481 1.084343 69.560791
179 0 1 2.142092 1.978487 69.119598
180 0 1 1.894629 2.372965 68.276184
181 0 1 2.499110 2.912775 67.723694
182 0 1 2.717261 3.316496 66.818390
183 0 1 2.906543 3.985166 66.178192
184 0 1 2.957282 3.662958 65.264801
185 0 1 2.199202 3.502355 64.732391
186 0 1 2.127013 4.053495 63.879089
187 0 1 2.518260 4.332178 63.039307
188 0 1 2.893992 4.723855 62.196808
189 0 1 2.218550 4.248598 61.675598
190 0 1 1.630973 3.783216 62.228088
191 0 1 1.475692 3.119467 61.521912
192 0 1 0.688040 3.620668 61.766998
193 0 1 0.222411 3.044096 62.299103
194 0 1 0.516440 2.259207 62.756195
195 0 1 0.806391 1.457086 63.140015
196 0 1 0.265910 0.841194 63.754608
197 0 1 0.759593 0.233413 64.328796
198 0 1 0.759932 -0.087130 63.399994
199 0 1 0.160109 -0.006216 62.626190
200 0 1 0.112220 -0.944443 62.217896
201 0 1 -0.154367 -0.475548 61.416107
202 0 1 0.257182 0.157741 60.802887
203 0 1 0.879241 -0.359530 60.279297
204 0 1 0.551932 -0.895045 59.617004
205 0 1 -0.158609 -0.234516 59.488495
206 0 1 0.230719 0.022749 58.561584
207 0 1 0.739543 0.282793 57.797791
208 0 1 1.551993 -0.237837 57.984192
209 0 1 2.133582 -0.026867 58.764404
210 0 1 2.184172 0.291465 59.672394
211 0 1 3.051780 -0.180302 59.716095
212 0 1 3.467280 -0.979874 60.061493
213 0 1 2.701209 -1.486075 59.799316
214 0 1 1.937072 -1.792904 59.299988
215 0 1 1.589122 -1.955584 58.368286
216 0 1 0.647280 -2.163714 58.655396
217 0 1 1.011721 -2.871294 59.162292
218 0 1 1.599242 -3.025164 58.455017
219 0 1 1.950892 -3.732334 57.920502
220 0 1 2.768321 -3.974224 58.332703
221 0 1 2.917910 -3.639364 57.417999
222 0 1 3.662780 -3.912974 57.941193
223 0 1 4.094080 -4.159655 57.084595
224 0 1 3.324042 -4.702975 57.012787
225 0 1 2.809382 -5.492175 56.887787
226 0 1 3.194262 -6.061015 57.518890
227 0 1 4.106291 -5.685225 57.570190
228 0 1 4.413672 -6.361544 56.976410
229 0 1 4.028841 -6.213774 56.044189
230 0 1 4.681571 -5.547684 55.946716
231 0 1 5.092070 -6.218054 55.477783
232 0 1 5.189772 -6.550953 54.532501
233 0 1 4.670672 -7.319045 54.315704
234 0 1 3.861590 -6.996964 53.871094
235 0 1 3.671439 -6.040764 53.977783
236 0 1 4.137240 -5.342144 53.537689
237 0 1 3.757460 -4.482653 53.732910
238 0 1 4.004462 -4.480864 54.641998
239 0 1 3.818442 -3.581993 54.813599
240 0 1 4.419272 -3.319754 54.000702
241 0 1 5.045973 -2.757933 53.596802
242 0 1 6.022673 -2.925104 53.583008
243 0 1 6.024771 -2.480734 54.516602
244 0 1 5.756072 -1.596203 54.808411
245 0 1 5.407271 -1.619494 55.731995
246 0 1 6.113070 -1.521624 56.409088
247 0 1 6.798872 -2.146223 56.607300
248 0 1 7.304072 -2.311404 57.371887
249 0 1 8.044772 -2.300284 57.985199
250 0 1 8.082973 -1.776904 58.751190
251 0 1 7.831370 -2.062304 59.657196
252 0 1 8.690372 -2.463064 59.482910
253 0 1 9.427173 -2.957363 59.708099
254 0 1 9.721972 -3.563984 60.381714
255 0 1 10.001571 -3.931214 59.528809
256 0 1 9.972571 -4.907034 59.685089
257 0 1 9.401370 -4.913085 58.844208
258 0 1 9.116370 -5.367114 58.027191
259 0 1 8.598971 -4.576884 57.962494
260 0 1 7.906672 -4.956395 57.372498
261 0 1 8.394370 -4.872624 56.588196
262 0 1 9.114570 -4.539275 55.871490
263 0 1 9.810271 -5.136565 55.585907
264 0 1 9.672271 -6.028325 55.192596
265 0 1 9.376571 -6.405135 54.388397
266 0 1 10.244872 -6.767603 54.595215
267 0 1 9.722770 -7.420844 54.105713
268 0 1 10.211173 -8.043413 53.435089
269 0 1 10.258971 -7.938954 52.450500
270 0 1 10.809974 -7.891825 51.652496
271 0 1 11.451270 -7.511593 51.059814
272 0 1 12.080970 -7.286404 50.356598
273 0 1 12.925872 -7.330344 50.902100
274 0 1 13.884772 -7.353514 50.727905
275 0 1 13.959472 -8.199444 50.260712
276 0 1 14.834373 -7.725113 50.050995
277 0 1 15.277671 -8.438164 50.481384
278 0 1 15.281772 -8.513403 51.423889
279 0 1 14.531371 -9.084454 51.354095
280 0 1 14.473971 -9.875235 50.853394
281 0 1 15.310672 -10.332933 51.178192
282 0 1 14.539271 -10.505632 51.753784
283 0 1 14.413672 -11.367132 51.583008
284 0 1 14.347571 -11.475733 52.506104
285 0 1 15.324771 -11.433434 52.411102
286 0 1 15.896674 -11.993134 52.912994
287 0 1 16.267870 -11.061132 52.879211
288 0 1 16.318670 -10.080732 52.820099
289 0 1 15.786773 -9.347843 53.224396
290 0 1 14.787070 -9.123854 53.235992
291 0 1 14.080970 -9.841333 53.358612
292 0 1 14.455169 -10.121935 54.208099
293 0 1 14.705871 -10.350332 55.122192
294 0 1 13.938872 -10.481134 55.652588
295 0 1 13.508571 -11.226034 56.038696
296 0 1 12.805972 -10.576933 55.920593
297 0 1 11.907973 -10.804335 55.731995
298 0 1 11.458770 -10.820635 54.860687
299 0 1 12.001273 -11.617533 54.685913
300 0 1 11.631873 -12.233232 54.091187
301 0 1 10.697173 -12.406233 54.070312
302 0 1 10.075873 -13.118032 53.821716
303 0 1 9.235869 -13.462233 53.598694
304 0 1 8.578273 -13.494135 52.882111
305 0 1 8.636771 -14.339133 52.544891
306 0 1 8.330573 -14.414233 53.435913
307 0 1 7.819869 -14.381034 54.240295
308 0 1 8.742770 -14.328533 54.493408
309 0 1 8.836173 -15.324734 54.266693
310 0 1 9.590774 -15.725433 54.667908
311 0 1 9.427371 -15.816233 55.584412
312 0 1 9.297172 -14.908334 55.795105
313 0 1 8.811671 -14.432834 56.493500
314 0 1 8.408572 -14.362034 55.658508
315 0 1 7.694670 -13.770634 55.384003
316 0 1 8.436370 -13.220234 55.233795
317 0 1 8.925170 -12.540934 55.648804
318 0 1 8.831771 -12.668333 56.584900
319 0 1 7.878569 -12.941534 56.803192
320 0 1 7.549071 -13.395433 57.595215
321 0 1 7.219969 -12.553633 57.786896
322 0 1 6.243170 -12.559233 57.677399
323 0 1 6.372473 -13.377234 58.091187
324 0 1 6.670073 -13.639833 58.913696
325 0 1 6.268572 -12.796333 59.010010
326 0 1 5.675772 -12.112932 59.256195
327 0 1 5.501769 -12.055134 60.242798
328 0 1 4.994673 -11.237833 60.377502
329 0 1 4.778170 -10.628233 61.043213
330 0 1 3.916182 -10.266134 60.912415
331 0 1 4.036341 -9.411154 60.455811
332 0 1 3.148062 -9.531414 60.747803
333 0 1 2.245921 -9.311064 60.833710
334 0 1 2.650702 -8.426634 60.609497
335 0 1 2.920233 -7.653103 61.203186
336 0 1 2.680091 -7.985873 62.116699
337 0 1 1.819983 -8.188025 62.527496
338 0 1 1.337870 -8.755283 63.156799
339 0 1 1.235411 -7.923674 63.673492
340 0 1 1.440730 -8.002375 64.594696
341 0 1 1.212680 -8.889584 64.361694
342 0 1 2.077212 -9.204115 64.162689
343 0 1 2.510710 -8.383774 64.467712
344 0 1 3.323291 -8.173452 65.058807
345 0 1 3.588332 -7.600104 64.373291
346 0 1 3.921363 -7.232363 63.474609
347 0 1 3.941603 -6.594485 62.735687
348 0 1 4.146132 -5.923924 63.452606
349 0 1 4.064600 -6.267485 64.389404
350 0 1 3.509940 -6.474234 65.136719
351 0 1 2.995120 -5.834063 64.733093
352 0 1 2.337783 -5.985684 64.071899
353 0 1 2.224433 -6.548075 63.210815
354 0 1 1.606543 -6.530604 62.546509
355 0 1 2.089530 -6.071093 61.806488
356 0 1 2.447860 -5.199515 61.889587
357 0 1 2.637259 -4.250685 61.843506
358 0 1 1.925532 -4.024683 62.539795
359 0 1 2.251960 -3.373354 63.185303
360 0 1 3.142943 -3.609244 63.469208
361 0 1 4.028441 -3.841063 63.004211
362 0 1 4.877970 -4.372784 62.849792
363 0 1 4.336771 -5.223303 62.654114
364 0 1 4.757071 -4.902464 61.836212
365 0 1 4.607169 -4.809214 60.852905
366 0 1 4.327471 -5.844504 60.787415
367 0 1 4.080542 -5.447594 59.949005
368 0 1 4.276900 -6.112864 59.294189
369 0 1 5.090472 -6.402764 58.897888
370 0 1 5.640070 -5.636603 59.065613
371 0 1 5.183371 -5.397543 58.237793
372 0 1 5.289671 -4.447234 58.631287
373 0 1 5.646670 -3.505314 58.697296
374 0 1 4.725970 -3.499464 58.920288
375 0 1 4.451170 -2.565504 59.212585
376 0 1 4.833472 -2.982184 59.988312
377 0 1 4.739172 -3.751034 60.653412
378 0 1 4.739771 -2.872214 61.059906
379 0 1 4.118292 -2.635853 61.726990
380 0 1 3.339720 -2.434214 62.279297
381 0 1 4.226569 -2.256125 62.655792
382 0 1 4.563071 -1.791924 63.422791
383 0 1 4.575770 -2.470564 64.191589
384 0 1 4.706969 -3.289864 63.610992
385 0 1 5.236670 -3.159683 62.815094
386 0 1 5.947669 -2.549053 62.609894
387 0 1 6.288172 -2.707283 63.449585
388 0 1 6.790171 -2.877344 64.231812
389 0 1 6.459670 -2.252714 64.849091
390 0 1 6.213469 -1.853453 65.696991
391 0 1 5.266470 -1.626673 65.892212
392 0 1 4.772372 -2.383244 66.291992
393 0 1 4.848872 -2.910994 67.087006
394 0 1 5.566172 -2.585863 67.599701
395 0 1 5.630171 -1.803604 68.185791
396 0 1 6.319670 -1.620564 67.544495
397 0 1 6.664671 -0.832783 67.157288
398 0 1 6.909472 -1.500294 66.573608
399 0 1 7.687472 -1.881394 66.199005
400 0 1 7.644873 -2.335875 67.111694
401 0 1 8.582271 -2.597874 67.052704
402 0 1 9.419173 -3.092333 67.047302
403 0 1 10.091571 -3.479803 66.500000
404 0 1 9.629371 -4.243664 66.188416
405 0 1 8.988669 -3.783324 65.619110
406 0 1 8.678969 -4.674723 65.455811
407 0 1 8.814872 -5.158444 64.616608
408 0 1 8.185973 -5.995564 64.424805
409 0 1 7.820170 -6.314003 65.191498
410 0 1 7.868971 -5.333313 65.181793
411 0 1 7.035170 -5.044283 64.782288
412 0 1 6.749472 -4.405964 65.445801
413 0 1 7.042670 -4.549353 66.364807
414 0 1 6.234671 -4.954014 66.239594
415 0 1 6.385272 -5.570263 66.968018
416 0 1 6.080573 -6.441184 66.847412
417 0 1 6.053771 -6.534564 67.919006
418 0 1 6.986273 -6.511525 68.077301
419 0 1 6.752173 -7.091954 67.333710
420 0 1 6.427870 -7.949175 67.034393
421 0 1 6.998770 -8.716223 66.686005
422 0 1 6.395270 -9.452654 66.728516
423 0 1 6.150172 -9.848833 67.597809
424 0 1 5.574469 -10.593332 67.507904
425 0 1 6.110171 -11.333134 67.156403
426 0 1 5.316470 -11.193335 66.704895
427 0 1 4.436072 -11.661432 66.762909
428 0 1 4.139262 -12.350433 67.333008
429 0 1 4.830069 -12.771534 66.736206
430 0 1 5.283873 -13.584333 66.930481
431 0 1 5.352671 -14.496134 66.711395
432 0 1 5.110373 -14.558133 65.753113
433 0 1 4.171492 -14.603333 65.720001
434 0 1 4.485770 -14.622334 64.796387
435 0 1 4.891871 -15.534834 64.680115
436 0 1 3.943251 -15.459933 64.354797
437 0 1 4.012202 -15.526434 63.336395
438 0 1 3.793330 -14.902634 62.663910
439 0 1 2.807601 -15.196633 62.739410
440 0 1 2.712920 -14.989533 61.762085
441 0 1 2.007090 -14.356434 61.636688
442 0 1 1.416053 -13.649134 61.402100
443 0 1 0.976512 -14.229734 60.737000
444 0 1 1.506110 -15.006933 60.576508
445 0 1 0.981600 -15.235534 59.826294
446 0 1 0.839801 -16.187834 59.885101
447 0 1 -0.044729 -15.934433 60.118195
448 0 1 -0.500028 -15.192834 60.574310
449 0 1 -1.415448 -15.490334 60.321503
450 0 1 -1.753618 -14.692333 59.977692
451 0 1 -2.081701 -14.281334 59.128204
452 0 1 -2.366357 -13.325634 59.357910
453 0 1 -1.483518 -13.502634 59.732391
454 0 1 -0.548127 -13.553333 59.341003
455 0 1 -0.142808 -12.672033 59.285095
456 0 1 -0.520097 -12.850935 58.433502
457 0 1 0.077830 -13.069933 57.662201
458 0 1 1.026183 -13.048634 57.859009
459 0 1 1.383281 -13.777533 58.257812
460 0 1 1.552211 -14.530833 58.887390
461 0 1 2.069381 -15.186633 59.339111
462 0 1 2.520991 -14.404034 59.490692
463 0 1 3.304122 -14.185633 58.945587
464 0 1 3.858161 -13.369534 58.759094
465 0 1 3.625930 -12.526133 59.032593
466 0 1 3.779681 -11.598234 58.915497
467 0 1 2.946692 -11.214434 58.498688
468 0 1 3.554160 -10.469732 58.294617
469 0 1 4.062312 -10.296034 59.043488
470 0 1 4.999472 -9.898434 58.895813
471 0 1 5.709071 -10.372534 59.343689
472 0 1 5.936072 -11.110735 58.729706
473 0 1 5.851672 -11.274334 57.785004
474 0 1 5.131171 -10.690035 57.612305
475 0 1 5.291270 -11.332033 56.858704
476 0 1 5.454772 -12.018734 56.293701
477 0 1 4.632872 -12.356134 55.921814
478 0 1 4.599970 -13.305933 56.006805
479 0 1 4.588469 -13.289633 55.051697
480 0 1 3.754542 -12.852633 55.053284
481 0 1 2.832091 -12.948633 54.645691
482 0 1 2.071490 -12.560333 54.220306
483 0 1 1.071212 -12.702534 54.039398
484 0 1 1.023909 -11.752535 54.074707
485 0 1 1.450049 -11.364035 53.273987
486 0 1 1.242770 -12.004734 52.575806
487 0 1 1.407702 -11.662333 51.723907
488 0 1 2.255111 -11.453033 52.117889
489 0 1 2.703460 -10.685633 51.755707
490 0 1 2.739493 -10.338034 50.797699
491 0 1 3.549601 -10.324133 50.218903
492 0 1 3.946372 -9.416365 50.228210
493 0 1 3.854361 -8.589924 50.714905
494 0 1 2.914099 -8.658674 50.257996
495 0 1 2.831561 -7.604914 50.082397
496 0 1 3.297141 -6.810263 50.214203
497 0 1 4.148081 -6.509144 50.284088
498 0 1 4.526171 -5.654164 50.026184
499 0 1 4.254439 -5.508864 49.117798
500 0 1 3.728862 -6.353135 49.161011
501 0 1 3.903472 -6.873864 48.429016
502 0 1 3.091250 -6.961964 47.874390
503 0 1 2.628001 -7.679625 47.372986
504 0 1 3.204100 -8.076944 47.988708
505 0 1 2.868102 -8.681623 48.706299
506 0 1 2.036963 -8.206604 48.819397
507 0 1 1.988032 -7.249894 48.712006
508 0 1 2.190612 -6.337355 48.864502
509 0 1 1.379931 -6.116053 48.434692
510 0 1 1.549163 -5.987143 47.496216
511 0 1 0.881133 -6.133414 46.819794
512 0 1 1.200061 -5.232733 46.647217
513 0 1 0.990050 -4.438754 46.084106
514 0 1 1.070380 -4.519854 45.111694
515 0 1 1.990550 -4.309254 45.213013
516 0 1 2.458472 -4.417593 44.358490
517 0 1 3.261290 -4.753203 44.796295
518 0 1 3.482981 -5.465504 45.428802
519 0 1 2.775172 -6.019265 45.900696
520 0 1 3.500533 -6.624224 45.977600
521 0 1 3.883212 -7.307164 46.549103
522 0 1 4.617873 -7.512764 47.265503
523 0 1 5.396872 -7.836354 47.781616
524 0 1 5.656672 -7.818734 46.821808
525 0 1 5.953970 -7.866053 45.883911
526 0 1 5.301371 -7.284995 45.430298
527 0 1 5.042071 -6.666785 46.137695
528 0 1 5.149970 -5.811133 45.772888
529 0 1 5.161871 -5.347313 46.722595
530 0 1 5.492873 -4.389884 46.553711
531 0 1 5.962870 -3.594754 46.394287
532 0 1 6.792273 -3.442124 46.898315
533 0 1 6.803271 -2.978914 47.726105
534 0 1 7.440871 -2.447863 48.293091
535 0 1 7.625472 -2.218563 47.359985
536 0 1 7.470870 -1.281683 47.233215
537 0 1 7.534071 -0.375424 47.095795
538 0 1 6.764372 -0.492001 46.592987
539 0 1 5.853270 -0.806343 46.397217
540 0 1 5.042471 -1.327994 46.191101
541 0 1 4.910269 -2.262305 45.895905
542 0 1 5.210471 -3.023714 45.342407
543 0 1 4.965670 -2.566094 44.547211
544 0 1 4.714472 -3.121054 43.804993
545 0 1 3.842780 -3.403723 44.100189
546 0 1 4.276579 -3.901015 43.419891
547 0 1 4.349272 -3.996874 42.484009
548 0 1 3.529071 -3.786783 41.963989
549 0 1 4.025752 -3.333374 41.249908
550 0 1 3.121939 -3.226124 40.991699
551 0 1 2.867499 -2.257433 40.838104
552 0 1 3.712142 -2.093704 40.326111
553 0 1 3.990660 -2.264273 39.410400
554 0 1 4.718573 -2.392164 38.798004
555 0 1 5.193770 -3.197314 38.489685
556 0 1 5.730971 -3.247753 39.256592
557 0 1 6.286070 -2.483864 39.427704
558 0 1 6.296771 -1.755293 40.052185
559 0 1 6.056170 -0.850825 39.954712
560 0 1 5.496871 -0.226036 39.429596
561 0 1 5.090670 0.543989 39.900299
562 0 1 4.582472 0.800777 39.043793
563 0 1 4.559870 1.353237 39.802185
564 0 1 5.521372 1.628376 39.692108
565 0 1 5.608271 1.945356 40.569794
566 0 1 5.375071 1.998705 41.458313
567 0 1 5.564673 2.935198 41.452393
568 0 1 5.115973 2.657945 42.289093
569 0 1 4.713572 3.163698 43.007690
570 0 1 3.911010 3.460977 43.420990
571 0 1 3.157553 4.105398 43.536102
572 0 1 2.226611 4.490488 43.599792
573 0 1 1.633879 4.765916 42.935394
574 0 1 2.041922 5.504686 42.258911
575 0 1 1.830012 6.477838 42.100311
576 0 1 2.763480 6.337167 41.877899
577 0 1 3.027182 6.535585 41.010498
578 0 1 3.188121 5.611585 41.103210
579 0 1 2.277812 5.283727 40.910492
580 0 1 1.614119 4.593126 40.849609
581 0 1 1.381510 3.757746 40.535004
582 0 1 2.276221 3.953134 40.167297
583 0 1 2.955863 3.319505 40.327393
584 0 1 3.420172 2.675134 40.883698
585 0 1 4.026030 2.530824 40.137085
586 0 1 4.389170 3.453718 40.216797
587 0 1 4.952570 2.946188 39.652008
588 0 1 5.341372 3.465055 38.905396
589 0 1 4.694769 4.068986 38.543610
590 0 1 4.389769 3.182928 38.442596
591 0 1 4.400271 2.290567 38.494110
592 0 1 3.886111 2.261667 37.670715
593 0 1 4.479971 1.704015 37.189087
594 0 1 4.787970 0.805181 37.283691
595 0 1 4.966071 -0.208601 37.250397
596 0 1 5.278872 -0.506127 36.380402
597 0 1 5.542071 0.429361 36.293488
598 0 1 6.451071 0.526018 35.963013
599 0 1 7.023070 0.628051 35.179993
600 0 1 6.726470 -0.237267 34.835205
601 0 1 7.215170 -0.816195 35.429688
602 0 1 7.990073 -1.473444 35.415588
603 0 1 8.846770 -1.492915 35.833710
604 0 1 9.527572 -0.802763 35.599304
605 0 1 9.062873 -0.084925 35.990997
606 0 1 9.679374 0.608280 36.091705
607 0 1 9.448569 1.225147 35.420807
608 0 1 9.074370 0.938083 34.575592
609 0 1 9.786471 0.362928 34.402313
610 0 1 9.920871 0.883358 33.570801
611 0 1 10.715369 0.768795 34.059204
612 0 1 11.101569 0.074875 33.526306
613 0 1 10.836074 -0.702177 33.035706
614 0 1 9.944373 -0.408415 33.138306
615 0 1 9.887969 -0.031151 32.211395
616 0 1 9.068973 -0.572171 32.175690
617 0 1 8.778171 -1.544714 31.971987
618 0 1 7.946570 -1.804314 31.768312
619 0 1 7.229773 -1.123154 31.884615
620 0 1 6.478369 -1.248133 31.269411
621 0 1 6.087569 -0.377426 31.383791
622 0 1 5.500071 -0.871954 30.899202
623 0 1 4.962370 -0.411497 30.290804
624 0 1 4.702170 0.131164 29.584810
625 0 1 4.061339 0.850160 29.623598
626 0 1 4.697272 1.466846 29.283998
627 0 1 5.428271 1.949148 29.716494
628 0 1 4.604571 2.336435 30.093813
629 0 1 4.351973 3.249426 29.868715
630 0 1 3.711222 3.961836 30.165194
631 0 1 3.417769 4.608728 29.527803
632 0 1 2.607733 4.058145 29.252687
633 0 1 1.692733 3.661768 29.197908
634 0 1 1.679621 2.662527 28.832796
635 0 1 0.804362 2.245867 28.807497
636 0 1 0.025511 1.783315 28.523409
637 0 1 -0.094720 2.680807 28.201509
638 0 1 -0.132200 3.120325 27.369905
639 0 1 -0.956979 2.761408 27.503389
640 0 1 -1.228029 3.168848 26.648500
641 0 1 -1.027539 3.516287 25.800203
642 0 1 -1.979341 3.472376 25.802309
643 0 1 -2.675119 3.926546 25.268190
644 0 1 -3.449197 4.052125 24.753206
645 0 1 -3.896878 3.295137 24.235598
646 0 1 -3.404218 2.512155 24.180788
647 0 1 -2.802659 2.362287 23.425417
648 0 1 -3.303010 2.811365 22.729403
649 0 1 -4.191858 3.106004 23.085390
650 0 1 -4.350889 4.057386 23.094393
651 0 1 -5.165311 4.427015 23.483095
652 0 1 -5.370418 4.320356 22.542696
653 0 1 -6.181673 4.857435 22.252703
654 0 1 -6.057966 5.741518 21.984697
655 0 1 -5.286687 5.617128 21.435503
656 0 1 -5.437561 5.823797 20.499498
657 0 1 -5.144962 4.915605 20.375704
658 0 1 -4.720159 4.136735 20.083498
659 0 1 -5.216381 3.586675 19.472795
660 0 1 -5.755474 3.345186 20.285601
661 0 1 -5.106641 3.046167 20.999804
662 0 1 -5.317791 2.140497 20.664095
663 0 1 -5.002157 1.281107 21.068102
664 0 1 -4.273420 0.725715 20.939806
665 0 1 -4.798509 0.149357 20.455599
666 0 1 -4.635469 -0.578621 19.874208
667 0 1 -4.377670 0.007686 19.143709
668 0 1 -5.107656 -0.288229 18.554399
669 0 1 -5.209575 -1.138314 18.075899
670 0 1 -6.084848 -1.551924 18.013796
671 0 1 -6.477779 -2.350184 18.316408
672 0 1 -6.583354 -2.932064 17.591097
673 0 1 -6.042758 -3.025744 16.829607
674 0 1 -5.607927 -3.800724 17.196108
675 0 1 -4.766366 -4.007155 16.866808
676 0 1 -3.870870 -4.320494 16.786898
677 0 1 -3.905278 -3.412054 17.140108
678 0 1 -4.657819 -3.098204 16.517504
679 0 1 -4.141828 -2.295843 16.831499
680 0 1 -3.875551 -1.370064 16.838900
681 0 1 -4.485839 -1.147623 16.050005
682 0 1 -5.354782 -0.840594 16.239199
683 0 1 -5.362888 -0.355095 15.429994
684 0 1 -5.667303 0.298845 16.083895
685 0 1 -6.473093 0.488990 15.561707
686 0 1 -5.696079 0.806648 15.092500
687 0 1 -5.512594 1.792806 15.037507
688 0 1 -5.291429 2.398985 14.272508
689 0 1 -4.983421 3.058317 14.922807
690 0 1 -4.065748 3.158155 14.997300
691 0 1 -4.328550 4.082307 14.858308
692 0 1 -4.787748 4.284868 15.663301
693 0 1 -3.927350 4.792646 15.810395
694 0 1 -2.980619 5.052095 15.522096
695 0 1 -2.386659 5.745916 15.665406
696 0 1 -2.729921 6.157075 16.567110
697 0 1 -2.708329 6.124586 17.535402
698 0 1 -1.917779 6.095506 17.999407
699 0 1 -2.188089 6.353197 18.842897
700 0 1 -1.703851 7.181627 19.065996
701 0 1 -1.358011 8.024088 19.495699
702 0 1 -1.182229 8.851015 19.094408
703 0 1 -0.575818 9.296045 19.736910
704 0 1 0.058860 9.048128 19.116304
705 0 1 0.921580 8.571287 19.301104
706 0 1 0.711409 8.238794 20.191500
707 0 1 0.525870 7.596944 20.910402
708 0 1 0.811610 8.339396 21.468706
709 0 1 1.615821 8.713198 21.987795
710 0 1 2.429000 9.005156 21.559908
711 0 1 2.849013 8.595255 20.821001
712 0 1 3.625460 8.943094 21.338808
713 0 1 4.269431 9.394117 20.781801
714 0 1 5.054072 9.950586 20.762407
715 0 1 5.228472 9.846537 21.718599
716 0 1 6.093871 10.392866 21.632708
717 0 1 7.007472 10.513067 21.882509
718 0 1 6.693171 10.776766 22.807192
719 0 1 6.303870 10.001276 23.458010
720 0 1 5.673071 9.510408 22.747103
721 0 1 5.794371 8.563215 22.544802
722 0 1 6.408171 7.800455 22.405703
723 0 1 6.221571 6.963125 22.009203
724 0 1 6.869372 6.375337 22.283297
725 0 1 6.409972 5.626195 21.890001
726 0 1 6.466170 5.442525 20.995104
727 0 1 5.628771 5.930894 20.963900
728 0 1 4.683871 6.163667 21.090700
729 0 1 4.338469 5.649274 20.349901
730 0 1 3.925460 6.190095 19.718798
731 0 1 4.430972 6.412725 18.978106
732 0 1 4.478571 5.500955 19.268206
733 0 1 4.221652 5.246416 18.340197
734 0 1 3.362929 5.033605 18.006807
735 0 1 3.615920 4.969057 17.017504
736 0 1 4.319373 5.571928 17.295305
737 0 1 3.971190 5.995756 16.464907
738 0 1 3.830313 6.889127 16.840395
739 0 1 3.942321 7.476137 16.055407
740 0 1 3.562590 7.735994 15.127305
741 0 1 4.035601 7.568616 14.324006
742 0 1 4.537772 7.209917 13.598603
743 0 1 5.078772 7.356027 12.811006
744 0 1 5.122672 6.400766 12.774995
745 0 1 4.569373 6.333166 11.985002
746 0 1 4.841670 5.463876 11.621003
747 0 1 5.666670 5.813158 12.090302
748 0 1 6.424071 6.283487 11.741700
749 0 1 6.882269 6.236066 10.952394
750 0 1 7.722170 6.436105 11.343995
751 0 1 8.017074 5.643384 10.906297
752 0 1 8.122069 5.465776 9.919267
753 0 1 8.891273 6.007535 9.776277
754 0 1 9.507071 5.409067 10.187806
755 0 1 9.809672 4.535524 10.097001
756 0 1 10.498771 4.530546 9.415757
757 0 1 11.017974 4.613576 8.538926
758 0 1 10.124770 5.078317 8.527787
759 0 1 9.364673 5.591684 8.177445
760 0 1 8.481772 6.084817 7.992021
761 0 1 7.735171 5.549875 7.671281
762 0 1 7.218672 4.887506 7.230928
763 0 1 6.504172 5.461885 7.481645
764 0 1 5.833872 5.035425 6.894685
765 0 1 4.894072 5.039346 7.095811
766 0 1 4.758673 4.554315 6.226198
767 0 1 4.156722 3.802717 5.864397
768 0 1 4.019133 3.001608 6.299104
769 0 1 4.661971 2.448015 6.838365
770 0 1 4.913771 2.040006 7.679491
771 0 1 4.016520 2.116007 8.016526
772 0 1 3.463813 1.370237 8.492707
773 0 1 2.940169 1.249536 9.339662
774 0 1 2.528540 1.329595 10.166902
775 0 1 1.562903 1.475977 10.208802
776 0 1 1.877600 2.228246 9.625031
777 0 1 1.766223 3.140047 10.034699
778 0 1 1.804999 3.905798 9.484239
779 0 1 0.826583 3.991407 9.602235
780 0 1 0.259230 3.534006 10.192704
781 0 1 0.206183 2.909628 9.489228
782 0 1 -0.742338 2.973528 9.691224
783 0 1 -0.692499 2.039896 9.787568
784 0 1 -0.587980 1.469957 10.584794
785 0 1 -0.718141 1.208227 11.504807
786 0 1 -0.611070 0.850837 12.419007
787 0 1 -0.352331 -0.160769 12.358994
788 0 1 -0.404420 -0.371411 13.307801
789 0 1 -0.629049 -1.109805 13.857499
790 0 1 -1.377668 -1.249024 14.471498
791 0 1 -2.045800 -0.627358 14.119294
792 0 1 -2.842740 -1.085884 13.660005
793 0 1 -2.581250 -1.881125 13.291596
794 0 1 -1.976987 -2.588213 13.528703
795 0 1 -2.437879 -3.035784 14.329896
796 0 1 -3.180959 -2.925984 14.974595
797 0 1 -3.062707 -3.812313 15.300004
798 0 1 -3.310807 -4.603074 14.820207
799 0 1 -3.732969 -5.126133 15.504304
800 0 1 -3.706899 -5.945605 15.970796
801 0 1 -3.058351 -5.590634 16.556505
802 0 1 -3.013330 -6.126164 17.388002