LAMMPS data file via MDAnalysis

        2000  atoms
        1999  bonds
           0  angles
           0  dihedrals
           0  impropers

           1  atom types
           1  bond types
           0  angle types
           0  dihedral types
           0  improper types

-30.5 30.5 xlo xhi
-30.5 30.5 ylo yhi
-233.5 233.5 zlo zhi


Masses

1 1.000000

Atoms

1 0 1 -14.122600 -24.793139 73.895599
2 0 1 -13.481200 -24.126940 74.239685
3 0 1 -12.829299 -24.156939 73.476898
4 0 1 -12.080100 -23.497240 73.486298
5 0 1 -12.052100 -22.612440 73.629791
6 0 1 -11.407699 -22.000439 73.229889
7 0 1 -11.205199 -21.170540 72.781708
8 0 1 -11.988999 -20.754539 72.554688
9 0 1 -11.695701 -19.888739 72.335693
10 0 1 -11.423499 -19.202740 71.658813
11 0 1 -11.348899 -18.310139 71.541199
12 0 1 -11.608199 -17.639540 72.132690
13 0 1 -12.181600 -17.246439 72.760101
14 0 1 -13.017600 -16.963840 72.468689
15 0 1 -13.001599 -16.694040 71.546387
16 0 1 -13.909900 -16.588139 71.173492
17 0 1 -14.675300 -16.089340 71.619812
18 0 1 -14.240901 -15.207742 71.634583
19 0 1 -13.747901 -14.398339 71.437500
20 0 1 -12.890399 -14.709540 71.831696
21 0 1 -12.100799 -15.239841 71.994690
22 0 1 -11.635900 -14.681041 71.302917
23 0 1 -10.779260 -14.567441 71.801605
24 0 1 -9.980979 -15.066941 71.740295
25 0 1 -9.270370 -14.885341 71.150604
26 0 1 -8.364659 -14.625640 71.551910
27 0 1 -7.812730 -14.035939 72.032806
28 0 1 -6.864521 -13.818940 71.929504
29 0 1 -6.356210 -13.034341 72.222504
30 0 1 -7.213430 -12.592441 72.233398
31 0 1 -7.504810 -11.779241 72.627289
32 0 1 -7.473300 -11.868680 73.634491
33 0 1 -7.488399 -12.035901 74.547302
34 0 1 -8.147079 -12.646340 74.427185
35 0 1 -8.439639 -12.963241 75.365997
36 0 1 -8.504899 -12.007640 75.349304
37 0 1 -8.840280 -11.635020 74.527100
38 0 1 -8.138890 -11.034310 74.779297
39 0 1 -7.166851 -10.982171 74.659485
40 0 1 -6.735641 -10.272801 75.120117
41 0 1 -6.542310 -9.314099 75.034912
42 0 1 -7.032131 -8.875091 75.720398
43 0 1 -7.853519 -8.442491 75.270996
44 0 1 -7.920619 -8.050130 74.368713
45 0 1 -7.515420 -8.754840 73.791290
46 0 1 -7.261529 -9.628600 73.539703
47 0 1 -7.539409 -9.547151 72.572205
48 0 1 -8.456460 -9.076760 72.649811
49 0 1 -8.867160 -8.340850 72.207214
50 0 1 -8.631650 -9.082681 71.657990
51 0 1 -8.092580 -9.835071 71.261200
52 0 1 -8.961709 -10.169782 71.398315
53 0 1 -9.450080 -10.035069 70.595581
54 0 1 -9.835979 -9.298390 70.187592
55 0 1 -10.718749 -9.210780 70.615509
56 0 1 -11.465098 -8.588000 70.619019
57 0 1 -11.249000 -8.568921 71.524200
58 0 1 -12.035600 -8.117801 71.803497
59 0 1 -12.170600 -8.926251 72.344391
60 0 1 -12.648601 -9.639430 71.977509
61 0 1 -13.211799 -9.249761 72.670502
62 0 1 -13.629199 -8.860110 73.417999
63 0 1 -12.719800 -8.773091 73.717407
64 0 1 -11.951301 -9.290771 73.579590
65 0 1 -11.377799 -9.661750 72.946411
66 0 1 -10.854701 -9.581491 72.136108
67 0 1 -9.942670 -10.023450 72.278015
68 0 1 -10.592959 -10.697721 72.221191
69 0 1 -10.017230 -11.422299 72.654694
70 0 1 -10.512858 -11.967961 73.237183
71 0 1 -10.971179 -12.792439 73.070190
72 0 1 -11.194900 -13.562140 73.549194
73 0 1 -10.554820 -13.661040 74.211700
74 0 1 -10.499730 -14.025741 75.125397
75 0 1 -11.134398 -13.309941 75.406311
76 0 1 -10.885369 -12.389340 75.382812
77 0 1 -11.240298 -12.030370 76.154907
78 0 1 -11.720401 -12.576440 76.800110
79 0 1 -11.848701 -12.828839 77.725403
80 0 1 -12.768500 -12.569640 77.936401
81 0 1 -13.295501 -11.866429 78.209900
82 0 1 -14.054900 -11.331620 77.922699
83 0 1 -13.786201 -11.574611 77.010193
84 0 1 -14.238898 -11.119611 76.239594
85 0 1 -14.008201 -10.447171 75.561310
86 0 1 -14.792201 -9.943320 75.281494
87 0 1 -14.816298 -10.870431 75.074707
88 0 1 -14.934100 -11.825860 75.237793
89 0 1 -13.987800 -11.758090 75.280396
90 0 1 -13.289901 -12.069631 74.589996
91 0 1 -13.782500 -12.828240 74.894989
92 0 1 -13.550399 -12.912440 75.922913
93 0 1 -13.497901 -13.667939 76.489594
94 0 1 -13.455199 -14.262940 77.240112
95 0 1 -13.042399 -13.437039 77.439697
96 0 1 -13.741000 -13.229241 77.991089
97 0 1 -14.423598 -12.574241 77.712494
98 0 1 -14.495101 -13.053241 76.891205
99 0 1 -15.516700 -13.113141 76.870789
100 0 1 -16.451900 -12.920239 76.608887
101 0 1 -16.692200 -12.042291 76.223389
102 0 1 -17.503300 -12.067391 75.746887
103 0 1 -17.801800 -11.148971 75.945190
104 0 1 -18.557600 -10.712449 75.538208
105 0 1 -17.708200 -10.562169 75.046509
106 0 1 -16.891701 -9.960420 74.817902
107 0 1 -16.274000 -9.316260 74.450989
108 0 1 -16.739300 -9.459041 73.635193
109 0 1 -15.765699 -9.762460 73.664001
110 0 1 -16.132299 -9.584300 72.730103
111 0 1 -16.976200 -9.766290 72.374512
112 0 1 -17.590200 -9.170831 72.000305
113 0 1 -17.425600 -9.798169 71.377991
114 0 1 -17.419201 -9.250649 70.620300
115 0 1 -17.911501 -8.615550 69.959808
116 0 1 -17.370701 -7.953801 69.480286
117 0 1 -17.010700 -7.610669 70.323792
118 0 1 -16.255301 -8.157460 70.391602
119 0 1 -15.983600 -7.274960 70.518402
120 0 1 -16.492001 -6.544991 70.029297
121 0 1 -16.419100 -5.770180 69.464111
122 0 1 -17.378000 -5.701359 69.292694
123 0 1 -17.310001 -5.742650 70.257202
124 0 1 -17.859901 -5.032540 70.709290
125 0 1 -17.404501 -4.226429 70.932800
126 0 1 -17.358400 -3.955781 71.883392
127 0 1 -16.702200 -4.546010 71.495789
128 0 1 -16.013800 -3.919030 71.258209
129 0 1 -16.698400 -3.309060 70.915894
130 0 1 -16.535999 -2.525815 71.407288
131 0 1 -16.067400 -2.800864 72.240601
132 0 1 -15.103599 -3.085860 72.142700
133 0 1 -14.891101 -2.966687 73.097107
134 0 1 -14.054299 -3.465119 73.177917
135 0 1 -13.503699 -3.943610 72.487915
136 0 1 -12.876100 -4.498530 72.981903
137 0 1 -12.380300 -3.592499 72.754517
138 0 1 -12.373099 -3.327530 73.764404
139 0 1 -11.534499 -3.292109 73.249207
140 0 1 -11.513400 -2.424502 73.581696
141 0 1 -12.435000 -2.246319 73.252289
142 0 1 -12.658000 -2.552516 72.363403
143 0 1 -12.043799 -2.803360 71.671082
144 0 1 -11.275399 -3.418150 71.809509
145 0 1 -10.996501 -2.609751 71.364014
146 0 1 -10.743091 -1.921160 71.991791
147 0 1 -9.982139 -1.318532 71.755707
148 0 1 -9.416320 -0.618121 72.218689
149 0 1 -8.923360 -1.429759 71.993103
150 0 1 -8.524959 -1.163687 71.165802
151 0 1 -7.662849 -1.678891 71.244293
152 0 1 -7.040670 -0.933529 71.409302
153 0 1 -6.736511 -1.504983 72.048584
154 0 1 -5.735950 -1.230788 71.838104
155 0 1 -5.600830 -1.961379 71.262207
156 0 1 -5.538730 -1.687426 70.282501
157 0 1 -6.415540 -1.282879 70.144196
158 0 1 -6.841510 -0.857590 69.404602
159 0 1 -7.636871 -1.050440 68.928802
160 0 1 -7.799341 -0.424550 69.677917
161 0 1 -8.362309 -0.059689 70.504700
162 0 1 -8.343379 0.219402 71.363586
163 0 1 -8.454101 1.143779 71.161499
164 0 1 -8.177920 2.032482 70.861389
165 0 1 -7.196250 2.204952 70.792114
166 0 1 -7.409481 2.270408 69.755890
167 0 1 -7.984519 3.064861 69.368408
168 0 1 -7.534009 3.583061 68.723602
169 0 1 -7.486490 4.504669 68.419617
170 0 1 -6.864151 4.720191 69.122498
171 0 1 -5.940860 4.879959 69.282593
172 0 1 -6.006641 5.784381 69.558716
173 0 1 -6.295000 6.453220 68.943604
174 0 1 -5.385000 6.422031 68.945892
175 0 1 -5.148790 6.769649 68.026917
176 0 1 -4.478891 6.267028 67.683990
177 0 1 -4.144451 6.970748 68.213806
178 0 1 -4.133560 7.877761 67.841919
179 0 1 -3.510370 8.320659 68.425781
180 0 1 -2.535590 8.246558 68.619019
181 0 1 -2.487830 7.985458 69.551697
182 0 1 -1.748073 8.606761 69.665283
183 0 1 -1.340797 9.335959 69.163513
184 0 1 -0.443492 9.395061 68.879517
185 0 1 -0.504196 9.253360 69.813110
186 0 1 0.106640 9.076560 70.501404
187 0 1 -0.459857 8.839961 71.250000
188 0 1 -0.744668 8.080661 70.683105
189 0 1 -0.108264 7.986160 70.026703
190 0 1 -0.037889 7.616611 69.184296
191 0 1 -0.423213 7.601982 68.337097
192 0 1 0.398461 7.120811 68.385406
193 0 1 -0.045673 6.499992 67.845093
194 0 1 0.774609 5.968650 67.833618
195 0 1 0.390200 5.071289 67.631592
196 0 1 -0.160777 5.323749 68.276611
197 0 1 -0.673566 4.941310 67.515686
198 0 1 -1.067268 4.285381 66.966919
199 0 1 -0.522115 3.554382 66.575592
200 0 1 -0.869445 3.584880 65.669098
201 0 1 -0.632991 3.444171 64.758484
202 0 1 -0.390519 4.101299 64.037292
203 0 1 0.369851 4.636600 64.037598
204 0 1 0.483250 5.117408 64.880890
205 0 1 0.102990 4.910758 65.742706
206 0 1 -0.219632 5.828979 65.959900
207 0 1 0.728589 5.791282 65.842896
208 0 1 1.743191 5.767692 66.001282
209 0 1 1.641690 6.185440 65.164490
210 0 1 2.104169 6.552040 64.336304
211 0 1 2.285512 6.251812 63.481598
212 0 1 1.989640 6.134189 62.570007
213 0 1 2.829549 6.390129 62.153809
214 0 1 2.245129 7.142971 62.109985
215 0 1 2.044152 7.901309 62.793701
216 0 1 2.189629 8.854659 62.653015
217 0 1 2.429669 9.844359 62.739899
218 0 1 3.206898 9.398959 62.341705
219 0 1 4.125969 9.824660 62.393494
220 0 1 3.524491 10.436259 61.907715
221 0 1 3.424489 11.239661 61.356903
222 0 1 3.731332 12.035659 61.774414
223 0 1 2.754910 12.185660 61.565491
224 0 1 2.970090 12.314261 60.665710
225 0 1 2.985451 13.346560 60.668396
226 0 1 3.493958 13.224559 59.919495
227 0 1 3.373990 13.702060 59.085815
228 0 1 2.614259 14.038360 59.661194
229 0 1 2.720769 14.887259 60.243805
230 0 1 2.020310 14.988662 60.954407
231 0 1 2.003892 15.973762 60.978088
232 0 1 2.336510 15.977462 60.063690
233 0 1 1.771031 15.441260 59.596710
234 0 1 1.057049 16.067459 59.861694
235 0 1 0.194951 15.611762 60.162292
236 0 1 0.026360 16.519958 60.028412
237 0 1 -0.206972 17.100662 59.285889
238 0 1 -1.074098 16.777061 59.359192
239 0 1 -1.348689 16.592461 58.434601
240 0 1 -0.985372 15.682059 58.455902
241 0 1 -1.088277 14.991057 57.773804
242 0 1 -1.225810 14.015258 57.793884
243 0 1 -1.708581 13.550361 58.604095
244 0 1 -2.039029 14.431460 58.345490
245 0 1 -2.823930 14.930259 58.597900
246 0 1 -3.027959 15.870261 58.512695
247 0 1 -2.435189 16.443062 58.958496
248 0 1 -3.138219 16.850563 59.579102
249 0 1 -2.793781 17.320461 60.453308
250 0 1 -3.119970 17.736763 61.309296
251 0 1 -3.309009 16.881760 61.722290
252 0 1 -3.634879 17.193661 62.649811
253 0 1 -3.959750 18.094360 62.725311
254 0 1 -4.265140 18.030861 61.842407
255 0 1 -5.185649 17.823860 61.795593
256 0 1 -5.996799 17.440559 61.480713
257 0 1 -7.004381 17.374561 61.166016
258 0 1 -6.672790 18.272060 61.152496
259 0 1 -6.499090 19.118462 60.830811
260 0 1 -5.925081 19.809059 60.345093
261 0 1 -5.367420 20.359459 60.960815
262 0 1 -5.574779 19.548759 61.464294
263 0 1 -5.004070 19.766159 62.226501
264 0 1 -4.050491 19.834461 62.064697
265 0 1 -3.158080 19.516060 61.790710
266 0 1 -2.568380 19.391762 61.039001
267 0 1 -1.909328 19.700562 60.417694
268 0 1 -1.404493 18.865463 60.518402
269 0 1 -0.873096 19.616261 60.282898
270 0 1 -0.688506 20.226761 61.034790
271 0 1 -1.024053 20.103661 61.904510
272 0 1 -0.324041 19.429661 62.052185
273 0 1 0.056719 18.671261 61.680115
274 0 1 0.442601 18.115562 60.997894
275 0 1 -0.177373 18.804359 60.654205
276 0 1 0.534058 19.161659 60.156891
277 0 1 0.250569 18.896961 59.223206
278 0 1 0.986569 18.735161 58.670502
279 0 1 1.592209 18.883263 59.372498
280 0 1 1.911999 18.075363 59.087494
281 0 1 2.665131 17.480160 59.244293
282 0 1 3.346242 17.482460 58.539490
283 0 1 3.960671 16.746460 58.640015
284 0 1 4.579972 17.306358 58.152191
285 0 1 5.310559 16.654663 58.273590
286 0 1 5.972050 17.313061 57.918884
287 0 1 6.573491 16.536362 57.705505
288 0 1 7.090039 16.078861 58.418610
289 0 1 6.720650 16.943661 58.747986
290 0 1 6.957291 17.555660 59.446198
291 0 1 7.588940 16.962158 59.773315
292 0 1 7.859032 16.940659 60.687592
293 0 1 8.597871 16.451263 60.979309
294 0 1 9.126599 16.465660 60.182495
295 0 1 8.957002 16.211159 59.277496
296 0 1 9.158502 16.135162 58.297089
297 0 1 9.573098 15.287757 58.188690
298 0 1 9.293900 14.385962 58.078308
299 0 1 9.164903 14.528960 59.002411
300 0 1 9.592099 14.242957 59.874908
301 0 1 9.206498 13.821559 60.689789
302 0 1 9.582101 13.080760 61.148315
303 0 1 8.832589 12.679061 60.645691
304 0 1 7.972962 12.285659 60.449402
305 0 1 7.940831 12.619060 61.307892
306 0 1 8.596238 11.919662 61.658997
307 0 1 8.599130 10.993361 61.299316
308 0 1 7.870259 10.587859 61.857483
309 0 1 8.310288 9.820762 62.159393
310 0 1 8.910520 9.028461 62.299988
311 0 1 9.220799 8.410060 61.622711
312 0 1 9.102700 8.102057 60.765198
313 0 1 8.118051 7.924961 60.964508
314 0 1 8.408372 7.372932 60.310394
315 0 1 7.641312 7.034671 60.807007
316 0 1 7.017518 7.731498 60.626190
317 0 1 6.837861 7.170112 61.339600
318 0 1 5.863411 7.196151 61.482605
319 0 1 5.671891 6.261062 61.384003
320 0 1 5.904061 5.932750 60.489014
321 0 1 4.972661 5.728199 60.250702
322 0 1 4.105721 6.111228 60.484985
323 0 1 3.514138 5.610172 61.042999
324 0 1 3.223481 4.762489 60.647797
325 0 1 3.368130 5.224281 59.842102
326 0 1 2.817200 5.953269 60.225098
327 0 1 2.335839 6.783340 60.575897
328 0 1 2.761140 7.424331 59.991302
329 0 1 3.629880 7.453601 59.608215
330 0 1 4.169510 8.315059 59.727692
331 0 1 4.998421 7.850189 59.957886
332 0 1 5.315720 7.412391 59.031708
333 0 1 6.213269 7.654098 59.256805
334 0 1 6.603669 7.451950 58.391205
335 0 1 6.443379 6.985649 57.541107
336 0 1 7.376709 6.804729 57.509003
337 0 1 8.234239 6.999149 57.251892
338 0 1 8.974710 7.488590 57.701904
339 0 1 9.035798 8.107959 58.347900
340 0 1 9.546700 8.445258 57.618591
341 0 1 9.129998 8.295760 56.769806
342 0 1 8.336228 7.776298 56.453003
343 0 1 8.065972 8.375258 57.157806
344 0 1 7.958458 8.644061 58.129303
345 0 1 8.544129 9.156260 58.624603
346 0 1 8.089391 10.008960 58.481293
347 0 1 7.877339 10.194560 57.550507
348 0 1 8.668572 9.947761 57.039917
349 0 1 9.178700 10.476260 56.511597
350 0 1 9.429200 10.100158 55.662994
351 0 1 9.004640 9.684661 54.925903
352 0 1 8.281182 10.277061 54.596985
353 0 1 8.667451 11.184562 54.404114
354 0 1 8.860921 12.004760 53.893188
355 0 1 9.480699 11.267661 53.603516
356 0 1 9.343598 10.373858 53.260101
357 0 1 9.354199 9.708659 53.960999
358 0 1 9.426499 8.758861 53.955597
359 0 1 9.817300 7.932762 53.705200
360 0 1 10.419099 8.190959 54.372589
361 0 1 11.335198 7.922859 54.344910
362 0 1 11.963601 7.561538 53.693115
363 0 1 12.415200 7.740539 52.827515
364 0 1 11.538499 8.017158 52.797791
365 0 1 10.724401 7.584140 52.185394
366 0 1 11.104501 7.626678 51.346588
367 0 1 11.449399 7.438251 50.464294
368 0 1 11.936402 6.854419 49.912903
369 0 1 11.778600 7.406089 49.154510
370 0 1 11.460500 6.709140 48.709900
371 0 1 10.948998 5.951690 48.406799
372 0 1 11.738198 5.401279 48.563812
373 0 1 12.383599 5.480209 49.324585
374 0 1 13.051599 6.143310 48.954712
375 0 1 13.006402 6.619750 49.808716
376 0 1 13.088700 5.763401 50.224487
377 0 1 13.902902 5.787002 50.727295
378 0 1 14.095300 5.866550 49.796906
379 0 1 14.982202 6.315658 49.985809
380 0 1 15.473401 7.144012 49.670715
381 0 1 14.840901 7.854610 49.540192
382 0 1 15.676400 8.235358 49.138092
383 0 1 15.772302 9.116858 48.707611
384 0 1 15.526399 9.677661 47.928894
385 0 1 14.830800 8.993159 47.763489
386 0 1 14.114202 8.888560 47.142517
387 0 1 14.014600 7.917861 46.982117
388 0 1 14.137300 7.276149 46.262085
389 0 1 14.882600 6.754402 46.548096
390 0 1 15.497499 6.223220 47.064392
391 0 1 15.683400 5.817878 47.882385
392 0 1 15.550698 4.998809 47.388702
393 0 1 15.148000 4.412509 46.770111
394 0 1 16.024101 4.402439 46.399292
395 0 1 16.021500 3.838649 45.629700
396 0 1 16.103798 2.931900 45.280304
397 0 1 15.429399 3.016220 45.941010
398 0 1 14.822602 2.364749 45.514587
399 0 1 14.628301 1.665710 46.131409
400 0 1 13.987901 1.043258 46.524811
401 0 1 14.790502 0.797191 47.012512
402 0 1 14.125699 0.558151 47.727692
403 0 1 14.573800 0.796958 48.573303
404 0 1 14.889501 1.594520 48.160797
405 0 1 14.897202 1.975841 47.323303
406 0 1 15.716100 2.103111 46.695892
407 0 1 16.636902 1.894920 46.762085
408 0 1 17.374901 1.376689 46.492310
409 0 1 18.142700 1.139659 47.005096
410 0 1 18.109100 1.737762 47.759796
411 0 1 18.122498 1.674892 48.747894
412 0 1 17.909401 1.313152 49.683899
413 0 1 17.340797 0.570762 49.308411
414 0 1 16.807499 0.760761 48.529114
415 0 1 15.837201 0.728061 48.895111
416 0 1 16.191002 -0.216000 48.803192
417 0 1 16.844597 -0.699450 48.376099
418 0 1 17.071400 -1.580922 48.119995
419 0 1 16.362000 -1.949683 48.723083
420 0 1 17.127197 -2.355883 49.149109
421 0 1 17.139702 -3.304720 49.250305
422 0 1 16.279900 -3.538100 48.943390
423 0 1 16.205498 -3.000279 48.095886
424 0 1 16.936100 -3.063651 47.395111
425 0 1 17.158298 -3.876410 46.971497
426 0 1 16.987801 -4.457650 47.688416
427 0 1 16.243099 -4.517470 48.341309
428 0 1 16.310997 -5.417269 48.686493
429 0 1 15.340501 -5.494370 48.594788
430 0 1 14.780801 -5.434081 47.747711
431 0 1 14.471601 -5.198010 46.821899
432 0 1 14.256200 -5.484610 45.939697
433 0 1 13.631200 -6.246979 45.959106
434 0 1 13.271798 -7.238810 45.713409
435 0 1 13.034902 -6.957680 44.764313
436 0 1 12.672700 -6.180689 45.200012
437 0 1 13.333200 -5.427310 45.149506
438 0 1 14.119802 -4.942111 44.812408
439 0 1 13.872602 -4.038121 44.431305
440 0 1 12.942002 -3.682580 44.418488
441 0 1 12.630601 -3.566491 43.479187
442 0 1 12.307199 -4.435530 43.173187
443 0 1 12.134000 -3.785740 42.462891
444 0 1 12.157102 -4.008990 41.544403
445 0 1 11.775498 -3.708359 40.645599
446 0 1 10.940598 -3.210940 40.676910
447 0 1 11.416200 -3.017188 39.912598
448 0 1 12.293099 -2.884783 39.481110
449 0 1 13.133000 -2.893902 40.011414
450 0 1 13.614900 -3.468110 39.425110
451 0 1 13.389001 -2.716645 38.874603
452 0 1 12.786302 -2.579463 38.141693
453 0 1 13.497399 -2.008732 37.967407
454 0 1 12.882100 -1.282494 37.592102
455 0 1 12.044999 -1.587805 38.037689
456 0 1 11.905000 -0.657799 37.895111
457 0 1 12.157800 0.235000 37.732117
458 0 1 11.790502 0.877868 37.105591
459 0 1 11.982499 1.612991 37.722412
460 0 1 11.587098 2.088668 37.024506
461 0 1 12.180299 2.763210 37.372803
462 0 1 11.785100 3.508770 37.741608
463 0 1 11.419499 4.111621 37.057312
464 0 1 11.099702 4.987369 37.368591
465 0 1 11.020700 5.787979 37.856812
466 0 1 10.143899 6.122100 38.258301
467 0 1 9.795999 5.293411 37.950287
468 0 1 8.888860 5.662841 38.005798
469 0 1 8.963120 6.066200 37.136597
470 0 1 9.622602 6.689121 36.779907
471 0 1 9.617299 6.165321 35.880096
472 0 1 10.034402 5.295379 35.736908
473 0 1 9.220201 4.931732 36.114014
474 0 1 8.698071 4.127040 36.263000
475 0 1 8.701810 4.104759 35.277588
476 0 1 8.817479 4.318672 34.349915
477 0 1 9.370202 3.564788 34.120789
478 0 1 10.262799 3.166450 33.988892
479 0 1 11.038701 3.325321 33.437805
480 0 1 10.803002 4.022361 32.639496
481 0 1 11.118001 3.235992 32.257385
482 0 1 12.079999 2.912071 32.048004
483 0 1 11.812100 2.564281 31.197906
484 0 1 12.253499 2.269271 30.377991
485 0 1 11.638001 2.105152 29.770905
486 0 1 10.749600 2.424209 29.883698
487 0 1 10.039399 2.358642 29.189087
488 0 1 9.804902 2.350582 28.285614
489 0 1 9.667199 1.425022 28.422607
490 0 1 9.113000 0.682899 28.233093
491 0 1 9.421102 0.719799 29.213104
492 0 1 8.899819 1.451270 29.691010
493 0 1 8.288850 0.897850 29.208405
494 0 1 8.493730 -0.033848 29.091705
495 0 1 8.791039 -0.837451 28.690613
496 0 1 7.922471 -1.242127 28.517303
497 0 1 7.927262 -1.088530 27.548401
498 0 1 8.143952 -1.630740 26.763306
499 0 1 8.664189 -2.480542 26.713989
500 0 1 8.792451 -2.440245 27.654297
501 0 1 9.133302 -2.052163 28.440002
502 0 1 10.082101 -2.019892 28.129791
503 0 1 10.973001 -2.237542 27.769409
504 0 1 10.926599 -2.491551 28.667206
505 0 1 11.013398 -2.952082 29.471008
506 0 1 11.956201 -3.022294 29.542297
507 0 1 11.929502 -3.246830 30.461487
508 0 1 12.459802 -2.936583 31.179291
509 0 1 12.262601 -2.878882 32.129913
510 0 1 13.121400 -2.585618 31.819397
511 0 1 13.410001 -1.851538 31.206787
512 0 1 13.641198 -1.029770 31.694489
513 0 1 13.168801 -0.355740 32.151306
514 0 1 12.645700 -0.623021 31.369385
515 0 1 12.179502 0.028011 30.822815
516 0 1 12.746900 -0.294072 30.075989
517 0 1 13.267400 -1.069010 30.144196
518 0 1 14.069200 -1.377539 29.629913
519 0 1 13.629701 -2.140770 29.140503
520 0 1 13.513902 -2.191779 28.221313
521 0 1 14.201303 -2.778882 28.008209
522 0 1 14.181001 -2.250679 27.169189
523 0 1 14.220101 -2.105389 26.138000
524 0 1 15.011498 -1.846793 25.688293
525 0 1 15.505101 -2.273884 25.034088
526 0 1 15.257798 -3.173399 25.031799
527 0 1 14.644799 -3.516320 25.651703
528 0 1 14.889199 -3.098290 26.528198
529 0 1 15.466401 -3.813799 26.825592
530 0 1 14.800401 -4.506720 26.905090
531 0 1 14.701798 -4.872260 26.096008
532 0 1 15.522698 -5.286740 26.383789
533 0 1 15.999600 -5.769160 25.721710
534 0 1 16.647099 -5.978421 24.994995
535 0 1 16.907501 -5.626891 24.099915
536 0 1 16.357597 -6.359999 23.759888
537 0 1 15.826303 -7.010319 23.204193
538 0 1 16.236000 -7.497441 22.447205
539 0 1 15.214799 -7.401669 22.259399
540 0 1 15.443299 -6.849070 21.407394
541 0 1 15.751199 -6.012339 21.041595
542 0 1 15.893098 -5.075200 21.078903
543 0 1 14.920300 -4.884789 21.040009
544 0 1 14.615800 -5.591269 21.590393
545 0 1 13.752603 -5.354069 21.384903
546 0 1 13.125299 -5.352650 20.671097
547 0 1 12.541101 -4.576399 20.579697
548 0 1 11.608499 -4.961091 20.639603
549 0 1 10.684701 -4.564141 20.501205
550 0 1 10.336301 -4.370760 19.692307
551 0 1 11.025201 -4.455410 19.038605
552 0 1 10.989800 -4.810999 18.153793
553 0 1 11.904500 -5.035780 18.009308
554 0 1 12.475301 -4.325869 17.754898
555 0 1 13.023301 -3.797640 18.291504
556 0 1 13.423303 -4.375901 18.928192
557 0 1 12.973001 -3.822350 19.573608
558 0 1 12.425900 -4.505690 19.249695
559 0 1 12.881101 -5.327111 19.142593
560 0 1 12.187901 -5.770020 19.638199
561 0 1 11.534501 -6.372349 19.246597
562 0 1 10.772698 -5.841250 19.518204
563 0 1 11.259999 -6.031689 20.248901
564 0 1 10.624002 -6.766171 20.196899
565 0 1 9.857701 -6.662800 19.549103
566 0 1 9.796899 -6.918360 18.620895
567 0 1 8.941178 -7.286080 18.502502
568 0 1 8.044530 -7.688719 18.643204
569 0 1 7.250481 -7.191889 18.312592
570 0 1 6.333748 -6.954550 17.804504
571 0 1 6.920239 -7.450440 17.238403
572 0 1 6.255810 -8.151921 17.118896
573 0 1 5.554940 -8.629621 16.700592
574 0 1 5.086140 -8.960881 17.465302
575 0 1 5.369999 -9.822541 17.291595
576 0 1 4.888470 -10.103421 18.110992
577 0 1 5.651879 -10.708560 18.066605
578 0 1 6.544529 -10.874520 18.449493
579 0 1 7.288308 -11.167310 18.960602
580 0 1 7.700341 -11.137391 18.033096
581 0 1 8.245450 -10.927289 17.272903
582 0 1 8.737641 -10.147870 17.325806
583 0 1 8.821702 -10.628541 18.136398
584 0 1 9.511498 -9.972951 18.321701
585 0 1 10.283601 -9.864450 17.643097
586 0 1 10.497003 -9.528180 16.709808
587 0 1 10.725801 -9.751630 15.794205
588 0 1 10.027398 -10.421910 15.858795
589 0 1 9.143102 -10.186231 15.534607
590 0 1 9.659501 -10.400979 14.759201
591 0 1 9.559400 -10.318530 13.849594
592 0 1 10.157502 -10.323100 13.131104
593 0 1 10.671700 -10.224301 12.325500
594 0 1 9.838899 -10.653661 12.096893
595 0 1 9.773400 -9.914411 11.496994
596 0 1 9.383000 -9.101480 11.803894
597 0 1 8.560510 -9.194150 11.271606
598 0 1 8.434548 -8.349919 11.684692
599 0 1 7.903718 -7.699160 11.109497
600 0 1 7.023652 -8.157260 11.120407
601 0 1 6.477849 -7.527680 10.697906
602 0 1 7.201031 -7.337430 10.095901
603 0 1 7.071358 -6.372719 9.878677
604 0 1 7.840218 -6.678879 9.412506
605 0 1 7.785508 -6.010809 8.762863
606 0 1 7.782258 -5.153389 9.186768
607 0 1 7.687420 -4.601180 8.383636
608 0 1 7.955040 -5.107750 7.661483
609 0 1 8.017129 -4.761990 6.723846
610 0 1 7.947937 -3.952050 7.257003
611 0 1 8.511609 -3.430630 6.617446
612 0 1 9.368199 -3.156991 6.427383
613 0 1 9.704103 -3.803090 5.788955
614 0 1 10.069501 -4.742089 5.515029
615 0 1 10.949800 -4.550669 5.088378
616 0 1 11.686502 -4.572791 5.688079
617 0 1 12.314401 -4.652800 6.498764
618 0 1 12.414201 -3.772730 6.237060
619 0 1 12.633599 -2.876605 6.110748
620 0 1 12.824601 -2.321379 6.915756
621 0 1 12.045602 -2.414984 7.444946
622 0 1 12.090199 -1.418976 7.330154
623 0 1 11.175099 -1.200295 7.180954
624 0 1 10.826100 -2.003197 6.979614
625 0 1 10.133500 -1.561040 7.575058
626 0 1 9.621900 -0.912819 7.149063
627 0 1 9.266099 -0.355370 7.864074
628 0 1 8.432321 -0.729640 8.181503
629 0 1 8.267770 -0.318532 7.275405
630 0 1 8.224832 -0.700610 6.384582
631 0 1 7.305230 -0.973490 6.370605
632 0 1 6.847020 -0.622811 7.107360
633 0 1 6.025940 -0.862931 7.550064
634 0 1 5.955189 -0.011391 7.190856
635 0 1 5.066449 -0.263749 7.552352
636 0 1 4.225838 -0.489461 7.074310
637 0 1 3.335080 -0.711670 6.558532
638 0 1 3.746579 -0.674090 5.689819
639 0 1 2.961362 -0.888220 5.153778
640 0 1 2.360150 -0.950961 5.951355
641 0 1 1.973321 -1.797145 5.719116
642 0 1 2.811681 -2.210539 5.586502
643 0 1 3.177861 -2.011164 4.705673
644 0 1 3.812089 -2.648722 4.282012
645 0 1 4.147099 -3.214640 4.936843
646 0 1 4.120640 -3.922249 5.636077
647 0 1 4.014168 -4.850131 5.374084
648 0 1 4.151299 -4.987441 6.286743
649 0 1 4.980111 -5.424660 6.476364
650 0 1 5.228768 -5.461689 5.573959
651 0 1 5.777730 -6.249180 5.609619
652 0 1 5.886929 -5.688460 4.819763
653 0 1 6.060528 -6.308199 4.133712
654 0 1 5.742260 -5.873070 3.298263
655 0 1 5.464039 -5.291729 2.601547
656 0 1 5.591561 -4.608870 1.869018
657 0 1 4.642498 -4.819300 1.801941
658 0 1 3.807160 -5.249840 1.893249
659 0 1 3.458230 -5.420941 0.977859
660 0 1 4.367390 -5.617369 0.966308
661 0 1 4.533589 -5.400370 0.020660
662 0 1 5.355042 -5.783200 -0.243393
663 0 1 5.137028 -4.866410 -0.640473
664 0 1 4.848359 -4.533120 -1.459809
665 0 1 4.902791 -5.162539 -2.196945
666 0 1 5.858601 -5.288399 -2.017044
667 0 1 6.240090 -5.546999 -2.937210
668 0 1 6.783791 -4.797989 -2.520203
669 0 1 7.570809 -4.881890 -2.039673
670 0 1 8.449059 -4.760279 -2.455017
671 0 1 8.321443 -3.918200 -2.921555
672 0 1 8.611581 -4.277421 -3.786865
673 0 1 9.534303 -4.363419 -4.054276
674 0 1 9.078599 -4.926440 -4.691864
675 0 1 9.223199 -4.831259 -5.741684
676 0 1 8.977391 -5.727789 -5.618027
677 0 1 8.495790 -6.559170 -5.255311
678 0 1 7.859280 -5.907691 -4.931611
679 0 1 7.168530 -6.547520 -5.187836
680 0 1 7.605370 -6.371460 -6.052430
681 0 1 8.024121 -6.358531 -6.991150
682 0 1 8.437680 -7.141789 -7.154191
683 0 1 8.826531 -7.632840 -7.893448
684 0 1 9.397099 -7.380681 -8.643234
685 0 1 9.020200 -7.168469 -9.568085
686 0 1 8.996800 -6.306309 -9.839874
687 0 1 8.351800 -5.873551 -10.423599
688 0 1 7.506608 -6.292269 -10.746002
689 0 1 6.775391 -6.343060 -10.153595
690 0 1 6.774041 -5.442811 -10.537994
691 0 1 6.954468 -4.700360 -11.145294
692 0 1 7.850461 -4.614720 -10.778702
693 0 1 8.771569 -4.596810 -10.545700
694 0 1 9.454103 -4.106080 -11.026901
695 0 1 9.633100 -4.177140 -11.976501
696 0 1 10.039701 -5.022810 -12.071701
697 0 1 10.936700 -4.682801 -11.805099
698 0 1 10.658898 -3.883000 -12.397598
699 0 1 10.348500 -4.047009 -13.315399
700 0 1 11.295999 -3.898381 -13.419907
701 0 1 10.888101 -2.956925 -13.615494
702 0 1 11.454999 -2.109244 -13.576096
703 0 1 11.949899 -1.288832 -13.855103
704 0 1 12.444001 -0.894980 -13.009094
705 0 1 12.429502 0.177188 -13.207596
706 0 1 11.630700 0.461608 -13.471100
707 0 1 10.817800 0.092132 -13.102295
708 0 1 10.492600 0.953559 -13.442307
709 0 1 10.285401 1.002868 -12.477798
710 0 1 10.388101 1.802902 -12.024902
711 0 1 10.410600 2.760879 -11.911499
712 0 1 10.685998 2.617919 -12.861908
713 0 1 11.446000 3.171371 -12.830307
714 0 1 11.537702 2.621372 -13.657303
715 0 1 12.076600 2.448242 -14.453201
716 0 1 12.288899 1.503848 -14.685501
717 0 1 13.075501 1.269290 -14.059296
718 0 1 13.861001 0.868381 -14.440506
719 0 1 14.288598 1.661819 -14.094803
720 0 1 14.774301 2.471691 -13.945999
721 0 1 14.200299 2.150890 -13.174103
722 0 1 13.580602 2.071960 -12.405304
723 0 1 13.170098 2.880710 -12.162704
724 0 1 13.645700 2.820659 -11.341400
725 0 1 14.596902 2.857322 -11.558304
726 0 1 14.297601 3.724761 -11.485794
727 0 1 13.445901 4.060798 -11.778107
728 0 1 13.664800 4.946239 -12.030396
729 0 1 12.694501 4.963211 -12.119904
730 0 1 12.391400 4.972240 -11.208099
731 0 1 12.561502 4.642780 -10.286606
732 0 1 13.525300 4.393791 -10.216202
733 0 1 13.590302 4.226631 -9.266357
734 0 1 14.432500 4.167228 -8.721649
735 0 1 14.787801 5.145950 -8.736557
736 0 1 15.217500 5.866699 -8.274017
737 0 1 15.474000 6.721290 -8.662766
738 0 1 15.614900 7.627662 -9.045212
739 0 1 15.036798 7.466232 -9.814087
740 0 1 15.328500 7.796489 -10.692993
741 0 1 15.208100 8.560462 -11.298004
742 0 1 14.308301 8.385657 -11.382095
743 0 1 13.700700 8.943561 -11.865005
744 0 1 13.325501 9.686259 -11.266800
745 0 1 12.440301 9.339160 -11.472198
746 0 1 12.223401 10.235160 -11.262207
747 0 1 12.424699 10.351760 -12.213699
748 0 1 12.101399 11.074660 -12.662994
749 0 1 11.785798 10.483260 -13.284805
750 0 1 11.850701 11.106761 -14.025406
751 0 1 11.196801 11.575358 -13.499207
752 0 1 10.861699 12.357959 -12.952301
753 0 1 10.341100 12.847259 -12.367798
754 0 1 10.556901 12.051261 -11.802094
755 0 1 10.782899 12.256660 -10.900299
756 0 1 10.577401 11.296161 -10.922806
757 0 1 9.881101 11.856559 -10.539703
758 0 1 10.092401 12.770259 -10.081406
759 0 1 10.530801 13.442161 -9.459259
760 0 1 10.401399 13.888259 -8.615356
761 0 1 10.928399 14.651259 -8.834961
762 0 1 11.657502 14.221961 -8.430115
763 0 1 11.606000 13.652862 -7.703858
764 0 1 10.696000 13.606059 -7.593644
765 0 1 10.471398 14.375358 -7.020401
766 0 1 10.965600 14.481261 -6.220734
767 0 1 10.723199 14.998759 -5.467209
768 0 1 10.283402 15.267360 -6.233384
769 0 1 9.808702 15.913161 -5.616364
770 0 1 9.701798 16.917461 -5.400651
771 0 1 8.794850 17.168560 -5.556855
772 0 1 9.113801 17.649162 -4.813767
773 0 1 8.128961 17.452160 -4.503525
774 0 1 8.761102 17.759060 -3.777558
775 0 1 9.462300 17.167259 -3.949387
776 0 1 10.311700 16.992561 -3.548065
777 0 1 9.978299 16.197861 -3.169693
778 0 1 9.518399 15.661059 -2.478943
779 0 1 10.182401 15.402762 -1.860642
780 0 1 10.394300 14.479659 -1.967636
781 0 1 11.355302 14.590560 -2.045807
782 0 1 12.275002 14.085559 -2.108094
783 0 1 12.708402 14.862357 -1.612961
784 0 1 12.299100 15.372859 -2.328018
785 0 1 11.992799 16.269260 -2.533722
786 0 1 12.160699 16.351059 -1.583267
787 0 1 11.859902 15.591460 -1.253906
788 0 1 11.263600 14.878959 -1.035584
789 0 1 10.622499 14.558661 -0.375428
790 0 1 11.431001 14.762458 0.090515