LAMMPS data file via MDAnalysis

        2000  atoms
        1999  bonds
           0  angles
           0  dihedrals
           0  impropers

           1  atom types
           1  bond types
           0  angle types
           0  dihedral types
           0  improper types

-30.5 30.5 xlo xhi
-30.5 30.5 ylo yhi
-233.5 233.5 zlo zhi


Masses

1 1.000000

Atoms

1 0 1 -19.635893 2.861303 59.323608
2 0 1 -19.737392 1.905534 59.236511
3 0 1 -19.437693 1.372113 58.548096
4 0 1 -19.655493 0.512212 59.038910
5 0 1 -18.876894 0.092061 59.539490
6 0 1 -18.937593 -0.406497 58.666595
7 0 1 -18.092793 -0.804969 58.899506
8 0 1 -17.931993 -0.165606 58.162994
9 0 1 -18.094093 -0.623046 57.297211
10 0 1 -18.310093 -1.012427 56.440704
11 0 1 -18.277693 -1.209956 55.506104
12 0 1 -18.426992 -1.352866 54.551697
13 0 1 -19.361393 -1.552539 54.500092
14 0 1 -19.418194 -1.228377 53.589508
15 0 1 -19.519993 -1.165976 52.538513
16 0 1 -20.235493 -1.027858 51.929504
17 0 1 -21.062794 -1.489856 51.764404
18 0 1 -21.411392 -0.769427 51.230591
19 0 1 -21.165394 -0.401088 50.254089
20 0 1 -20.491693 0.290353 50.588989
21 0 1 -21.210394 0.613195 50.078796
22 0 1 -21.291292 1.502153 50.259796
23 0 1 -21.428194 1.630941 49.269897
24 0 1 -21.879694 0.849473 48.813110
25 0 1 -22.195293 0.824464 47.890503
26 0 1 -21.774893 1.189794 47.144012
27 0 1 -20.816093 1.477094 47.238708
28 0 1 -20.010492 0.936452 47.306793
29 0 1 -19.694893 0.051633 47.185913
30 0 1 -19.135094 0.541211 46.428589
31 0 1 -18.761494 -0.023219 45.813110
32 0 1 -19.325493 0.137643 44.969299
33 0 1 -19.921694 -0.503306 44.683899
34 0 1 -20.662594 -0.371707 45.267792
35 0 1 -21.086693 -1.274138 45.400909
36 0 1 -20.750593 -1.994838 45.848602
37 0 1 -21.021593 -2.225035 44.933990
38 0 1 -21.352493 -2.510138 44.108887
39 0 1 -21.601692 -3.285296 44.625183
40 0 1 -22.546494 -2.985808 44.535309
41 0 1 -23.252092 -2.403105 44.826202
42 0 1 -24.064394 -2.532408 45.269012
43 0 1 -24.265293 -3.309336 44.715302
44 0 1 -24.576094 -3.770278 43.902100
45 0 1 -25.175394 -4.440097 43.955994
46 0 1 -26.148993 -4.541797 43.863800
47 0 1 -26.297693 -4.462348 44.796509
48 0 1 -25.788294 -4.701198 45.534485
49 0 1 -25.315493 -4.155299 46.175507
50 0 1 -25.900793 -3.353167 46.317505
51 0 1 -26.531294 -2.563105 46.393005
52 0 1 -27.358994 -2.353396 46.909088
53 0 1 -26.526293 -1.886515 47.253693
54 0 1 -26.998693 -1.021289 47.184113
55 0 1 -27.518793 -0.232268 46.962189
56 0 1 -27.510994 0.459672 46.311707
57 0 1 -27.755693 1.198522 46.852692
58 0 1 -27.554993 1.505433 47.691711
59 0 1 -26.761393 1.700463 48.294800
60 0 1 -26.897694 2.371274 47.627289
61 0 1 -26.391594 1.846852 46.999817
62 0 1 -25.570192 2.139184 47.373108
63 0 1 -25.446394 2.686872 46.544189
64 0 1 -25.237894 3.631803 46.302612
65 0 1 -24.992292 4.387601 45.642212
66 0 1 -25.602694 4.376801 44.886200
67 0 1 -25.521393 4.342603 43.884216
68 0 1 -26.061792 3.758504 43.390503
69 0 1 -25.338593 3.266542 43.770905
70 0 1 -24.576193 2.745843 43.806702
71 0 1 -23.945694 3.351102 44.142090
72 0 1 -23.395992 2.679105 44.611816
73 0 1 -23.447794 1.796521 44.111511
74 0 1 -23.768993 2.057584 43.227905
75 0 1 -23.218393 1.258672 43.035797
76 0 1 -23.209593 1.607423 42.076202
77 0 1 -24.217093 1.777112 42.034393
78 0 1 -24.461193 1.511731 41.160583
79 0 1 -23.659893 1.993554 41.079498
80 0 1 -23.358393 1.077012 41.021393
81 0 1 -22.532993 0.708265 41.171997
82 0 1 -22.202793 1.419313 41.727509
83 0 1 -21.443893 1.720422 41.196716
84 0 1 -21.259493 2.482465 40.598602
85 0 1 -20.615294 2.954961 41.091705
86 0 1 -19.940393 3.570401 41.417511
87 0 1 -19.399693 3.795602 40.572815
88 0 1 -18.900192 4.620404 40.960205
89 0 1 -18.149994 4.609803 40.354309
90 0 1 -18.368593 5.285203 39.697601
91 0 1 -18.413692 6.193105 40.011200
92 0 1 -19.009893 6.704801 39.455994
93 0 1 -19.877993 7.140401 39.239502
94 0 1 -20.401394 7.203202 40.060699
95 0 1 -20.681993 7.726201 40.820496
96 0 1 -21.100594 8.392602 40.298798
97 0 1 -21.704193 8.387803 39.606293
98 0 1 -22.468693 8.335603 40.128784
99 0 1 -22.460894 9.199704 39.734192
100 0 1 -22.679092 9.716901 38.993195
101 0 1 -22.814293 8.985703 38.295807
102 0 1 -23.480993 9.329305 37.768494
103 0 1 -23.192392 9.884202 37.013916
104 0 1 -23.385193 10.757100 37.491913
105 0 1 -22.482893 10.720601 37.271393
106 0 1 -22.730993 10.666802 36.216095
107 0 1 -22.551693 9.689202 36.179901
108 0 1 -21.715294 10.132302 36.205109
109 0 1 -21.684294 9.257203 36.723999
110 0 1 -21.485992 10.050305 37.300690
111 0 1 -20.533592 10.430802 37.237915
112 0 1 -20.153793 9.946401 37.962494
113 0 1 -19.871492 10.368001 38.767883
114 0 1 -20.240793 9.421002 38.887787
115 0 1 -20.207394 8.513803 38.999390
116 0 1 -19.410793 8.984902 38.725800
117 0 1 -18.954493 9.013501 37.838013
118 0 1 -18.553993 8.129403 38.096405
119 0 1 -18.349293 8.183003 39.025604
120 0 1 -17.777594 8.678304 39.557404
121 0 1 -17.547092 7.877004 40.041595
122 0 1 -17.070694 7.105603 40.381500
123 0 1 -16.807592 6.770402 41.234314
124 0 1 -17.437693 7.430802 41.579193
125 0 1 -18.017393 8.174802 41.302612
126 0 1 -18.512293 7.596105 41.852997
127 0 1 -19.212893 8.153203 42.016907
128 0 1 -19.228693 8.817002 42.740692
129 0 1 -18.781593 9.548505 42.401611
130 0 1 -19.483093 10.131204 42.696808
131 0 1 -19.577892 9.830304 43.591705
132 0 1 -18.880493 9.144502 43.588409
133 0 1 -18.191294 9.567304 44.029510
134 0 1 -17.504793 10.279004 44.285400
135 0 1 -17.961693 11.213704 44.398712
136 0 1 -18.604492 11.223104 45.183105
137 0 1 -19.306793 11.294103 44.582214
138 0 1 -18.827694 11.510304 43.774994
139 0 1 -18.148693 12.126103 44.004913
140 0 1 -17.669094 11.742803 43.168396
141 0 1 -17.507793 12.231702 42.313202
142 0 1 -16.667793 12.871205 42.295715
143 0 1 -16.196493 13.299302 42.980103
144 0 1 -16.388992 14.233800 42.876587
145 0 1 -15.755693 14.927102 42.905792
146 0 1 -15.375593 15.822202 42.784210
147 0 1 -14.746693 16.460505 42.561584
148 0 1 -14.392792 16.028906 43.371307
149 0 1 -13.915794 16.436304 44.032104
150 0 1 -13.266693 15.788800 43.860291
151 0 1 -13.467993 15.806302 44.799805
152 0 1 -12.999393 15.172505 45.305115
153 0 1 -13.463394 15.723004 45.935608
154 0 1 -12.823593 15.800103 46.611389
155 0 1 -12.103294 15.404904 47.081299
156 0 1 -11.609394 15.178601 47.901398
157 0 1 -12.028694 16.003103 48.034302
158 0 1 -12.306593 15.604405 48.858002
159 0 1 -12.355494 15.897000 49.762299
160 0 1 -12.995594 16.676901 49.811005
161 0 1 -13.514093 16.184301 49.115784
162 0 1 -14.106594 15.506402 49.299896
163 0 1 -14.537493 15.903604 50.112488
164 0 1 -13.821993 15.355203 50.267609
165 0 1 -12.929193 15.054601 49.835693
166 0 1 -12.270092 15.148602 50.547302
167 0 1 -12.431993 15.718904 51.355988
168 0 1 -12.752094 15.442601 52.188995
169 0 1 -11.954893 15.432004 52.745789
170 0 1 -12.791092 15.540402 53.254395
171 0 1 -13.088293 14.990502 53.868286
172 0 1 -12.882793 14.179402 53.445709
173 0 1 -13.840593 14.139703 53.510590
174 0 1 -13.967793 13.589402 52.648193
175 0 1 -13.239193 12.910901 52.217987
176 0 1 -13.875093 12.283704 52.605011
177 0 1 -13.663893 11.373204 52.608490
178 0 1 -13.000593 11.041501 53.187897
179 0 1 -12.228893 11.085202 52.544708
180 0 1 -11.623493 10.436101 52.301392
181 0 1 -11.071793 10.170503 51.616394
182 0 1 -10.418093 10.327302 52.314697
183 0 1 -9.619904 9.954904 51.908386
184 0 1 -8.896492 9.987302 51.262299
185 0 1 -8.297253 10.744702 51.276489
186 0 1 -8.285223 11.614602 50.964294
187 0 1 -7.634964 11.319600 50.282410
188 0 1 -6.927613 10.763703 50.646301
189 0 1 -6.496073 11.598603 50.916412
190 0 1 -5.706604 12.154805 50.768707
191 0 1 -4.961174 12.253404 51.439911
192 0 1 -4.173773 12.625703 50.907501
193 0 1 -4.123343 13.563302 50.601501
194 0 1 -3.668263 13.848905 51.397797
195 0 1 -2.977793 13.080602 51.356812
196 0 1 -2.690014 12.382001 50.791290
197 0 1 -2.377264 11.764905 51.486908
198 0 1 -1.538844 11.508103 51.869293
199 0 1 -1.868464 10.665105 52.337708
200 0 1 -2.760184 10.836202 52.135590
201 0 1 -3.560614 11.197003 51.773895
202 0 1 -4.410504 10.869504 51.454803
203 0 1 -4.155203 11.442700 50.754517
204 0 1 -4.217783 10.642003 50.209717
205 0 1 -3.634755 9.905904 49.916504
206 0 1 -2.971644 9.223401 49.597992
207 0 1 -2.021603 9.375401 49.754303
208 0 1 -2.174004 10.291402 49.956787
209 0 1 -1.286007 10.691403 49.758484
210 0 1 -0.517050 10.138703 49.932983
211 0 1 -0.040768 9.367303 50.147003
212 0 1 -0.720780 8.680802 50.032715
213 0 1 -0.779770 8.440202 49.075287
214 0 1 -1.094990 8.098401 48.218811
215 0 1 -0.190556 7.883000 48.023590
216 0 1 0.254692 8.106202 48.853302
217 0 1 -0.227570 7.276204 48.959991
218 0 1 0.176597 6.512704 48.571716
219 0 1 0.830936 5.962403 49.047302
220 0 1 1.216388 6.609303 48.509399
221 0 1 1.204937 6.204801 47.627808
222 0 1 1.636478 5.526704 47.124390
223 0 1 2.424495 5.340505 47.654785
224 0 1 3.470478 5.286603 47.509705
225 0 1 3.868618 6.127103 47.350189
226 0 1 4.643058 6.611703 47.657013
227 0 1 4.882465 5.645802 47.891693
228 0 1 5.161888 5.686101 46.923798
229 0 1 5.646717 6.356103 47.440613
230 0 1 5.807975 7.256303 47.847107
231 0 1 6.452426 7.449403 47.079407
232 0 1 7.035396 6.877301 47.608307
233 0 1 7.344318 7.675702 48.242004
234 0 1 7.892356 6.863904 48.192596
235 0 1 7.994167 7.022603 47.194397
236 0 1 8.231098 7.937203 47.337189
237 0 1 7.967994 8.857602 47.263184
238 0 1 8.050808 9.073903 48.212494
239 0 1 8.389275 9.020505 49.172607
240 0 1 7.653465 8.780004 49.760712
241 0 1 6.993846 8.010304 49.752197
242 0 1 6.032646 8.210004 50.074890
243 0 1 5.086868 8.394403 49.846893
244 0 1 4.159168 8.143502 49.639404
245 0 1 3.697406 8.922803 49.888611
246 0 1 3.896976 9.467504 50.687408
247 0 1 4.902248 9.577703 50.544006
248 0 1 5.687866 10.070104 50.359894
249 0 1 6.412529 9.460504 50.547089
250 0 1 7.222747 8.900601 50.793884
251 0 1 7.078517 8.170300 51.429688
252 0 1 7.515327 7.805402 52.198303
253 0 1 7.653736 8.415105 52.988403
254 0 1 8.515247 8.315801 53.528992
255 0 1 8.270657 8.444901 54.458801
256 0 1 7.382865 8.379403 54.662292
257 0 1 7.119758 9.306603 54.455597
258 0 1 7.363525 10.081002 53.773315
259 0 1 7.121658 10.773900 53.246002
260 0 1 6.479328 10.204503 52.765503
261 0 1 7.197006 9.995702 52.220093
262 0 1 7.581417 10.880101 52.189606
263 0 1 7.472476 11.857503 52.322998
264 0 1 6.552269 11.768502 52.597412
265 0 1 6.071315 12.600602 52.608704
266 0 1 6.765666 13.345002 52.682098
267 0 1 7.234565 13.921502 53.377808
268 0 1 7.949077 14.262803 53.912292
269 0 1 8.196278 13.751500 54.765686
270 0 1 8.675896 13.076303 55.198090
271 0 1 8.984035 13.646302 55.971710
272 0 1 9.461067 14.430303 55.672485
273 0 1 9.922306 15.064702 55.121796
274 0 1 10.259007 14.950604 54.222992
275 0 1 10.908607 15.667500 54.523193
276 0 1 11.255508 16.520205 54.610413
277 0 1 11.609207 17.253603 54.200104
278 0 1 11.639408 17.493605 53.281006
279 0 1 12.220806 16.673002 53.341003
280 0 1 11.667107 16.388105 52.661804
281 0 1 10.810509 16.466204 52.321716
282 0 1 10.352005 15.835301 52.941589
283 0 1 10.020607 14.864903 52.934906
284 0 1 10.231606 14.723203 51.972992
285 0 1 10.687607 15.275804 51.372101
286 0 1 11.254906 15.249501 50.642303
287 0 1 11.749306 14.535405 50.988586
288 0 1 12.076008 14.249104 51.855713
289 0 1 13.021206 13.898602 52.249298
290 0 1 13.921108 14.275403 52.060486
291 0 1 14.191006 15.161405 52.162994
292 0 1 14.166607 14.949304 51.216705
293 0 1 14.973106 14.934602 50.813110
294 0 1 15.548805 15.018003 51.575104
295 0 1 15.030407 14.233304 51.570099
296 0 1 14.488308 13.440003 51.463104
297 0 1 14.799706 13.690801 50.572510
298 0 1 14.933807 13.571702 49.652496
299 0 1 14.818909 14.406705 49.101410
300 0 1 13.991508 14.666600 48.727997
301 0 1 13.492008 15.179204 48.047302
302 0 1 13.488907 16.093405 47.627899
303 0 1 13.680305 16.757505 47.019501
304 0 1 14.054108 17.615404 46.857910
305 0 1 13.816006 17.826303 47.818115
306 0 1 12.913208 17.575102 47.471588
307 0 1 12.084106 17.837503 47.070404
308 0 1 11.190506 18.043604 46.987793
309 0 1 10.966805 17.374205 47.704102
310 0 1 11.371109 16.872103 46.914703
311 0 1 11.738407 16.052103 47.316284
312 0 1 11.090908 16.331205 47.944214
313 0 1 10.273106 16.516104 47.594116
314 0 1 9.689808 15.806905 47.886993
315 0 1 9.226368 14.931005 47.865906
316 0 1 8.592396 15.670201 47.821899
317 0 1 7.923545 15.262502 47.259308
318 0 1 7.672409 15.683103 46.419189
319 0 1 7.332675 16.342901 45.841095
320 0 1 7.098388 15.849202 45.048492
321 0 1 6.669277 15.084401 44.647491
322 0 1 7.383007 14.448003 44.715210
323 0 1 7.846797 15.192502 44.405212
324 0 1 7.977745 14.637403 43.690704
325 0 1 7.280506 14.111501 43.300507
326 0 1 7.985137 13.458703 43.644409
327 0 1 7.994747 13.145703 42.708801
328 0 1 7.564254 13.821103 42.236694
329 0 1 8.009705 14.647405 42.096405
330 0 1 8.516178 15.113301 41.427887
331 0 1 9.461006 15.289105 41.513702
332 0 1 9.769905 15.698705 40.698303
333 0 1 9.681908 16.585604 40.283813
334 0 1 8.832268 16.652205 40.640106
335 0 1 8.141388 17.226706 41.008911
336 0 1 8.715965 17.525106 40.228394
337 0 1 8.596188 16.893606 39.490509
338 0 1 9.104668 15.985005 39.696106
339 0 1 9.900707 15.603604 39.329712
340 0 1 10.748207 15.570603 38.920898
341 0 1 10.616905 14.587201 39.019592
342 0 1 10.418907 14.118100 39.854187
343 0 1 9.738808 13.416802 39.851410
344 0 1 9.438747 13.943402 39.126587
345 0 1 8.652435 13.889104 39.657898
346 0 1 8.285267 13.037602 39.788605
347 0 1 7.387847 13.017003 40.057800
348 0 1 7.135715 12.395204 39.425110
349 0 1 6.500476 12.560002 38.734192
350 0 1 7.125705 13.089101 38.203186
351 0 1 6.849105 12.944703 37.330383
352 0 1 7.067325 13.878705 37.522705
353 0 1 6.363365 14.503201 37.651703
354 0 1 5.749027 13.779004 37.894806
355 0 1 5.089576 13.224904 38.336700
356 0 1 4.139587 13.332704 38.363800
357 0 1 3.567707 13.695004 37.718201
358 0 1 3.336475 14.614102 37.426788
359 0 1 3.037277 15.059503 38.275696
360 0 1 3.176376 14.793401 39.200592
361 0 1 3.315036 15.467900 40.029297
362 0 1 3.968826 16.114603 39.767792
363 0 1 4.291385 16.438002 40.669617
364 0 1 4.924106 17.024603 40.276001
365 0 1 5.778205 17.375704 40.385193
366 0 1 6.563747 16.714003 40.509888
367 0 1 6.500087 16.674604 39.582886
368 0 1 7.055797 16.693304 38.741211
369 0 1 6.969547 15.709104 38.922089
370 0 1 7.455596 15.778604 38.024811
371 0 1 7.854736 16.413103 37.422302
372 0 1 8.637375 16.955305 37.728699
373 0 1 8.874107 16.660803 36.854706
374 0 1 8.907825 17.624006 36.633911
375 0 1 7.989948 17.499903 36.445099
376 0 1 6.990196 17.595804 36.330017
377 0 1 6.201927 17.597403 35.747589
378 0 1 5.506095 18.292303 36.130493
379 0 1 4.692447 18.267904 36.719299
380 0 1 3.911747 18.124304 36.097198
381 0 1 3.964366 17.347403 36.570099
382 0 1 3.254657 16.972502 37.032806
383 0 1 3.129875 16.323004 36.253296
384 0 1 3.199737 15.354302 36.374603
385 0 1 2.958156 14.562303 35.787689
386 0 1 2.397285 14.223401 35.162415
387 0 1 1.895916 13.487905 34.836090
388 0 1 1.516048 14.404500 34.477417
389 0 1 0.652536 14.441903 34.880798
390 0 1 -0.287289 14.328900 34.704803
391 0 1 0.130811 13.924603 33.957397
392 0 1 0.797516 14.358403 33.519409
393 0 1 1.232277 13.773103 32.911804
394 0 1 1.397667 13.734204 31.975708
395 0 1 1.312435 13.624005 31.057800
396 0 1 2.045005 14.326303 31.158203
397 0 1 2.920745 13.830205 31.397614
398 0 1 3.591327 14.122003 30.717194
399 0 1 3.171855 14.931603 30.867798
400 0 1 4.028327 15.136701 31.205597
401 0 1 4.298988 14.275403 31.391296
402 0 1 3.671676 14.096601 32.120605
403 0 1 3.787296 14.510102 33.004517
404 0 1 4.589447 14.934003 32.721893
405 0 1 5.499446 14.597203 32.759613
406 0 1 5.531368 14.337300 31.859100
407 0 1 6.205875 14.997304 31.648987
408 0 1 7.112705 14.651303 31.601685
409 0 1 6.881206 13.692502 31.372406
410 0 1 7.340175 13.942502 30.544586
411 0 1 8.050468 13.332704 30.439911
412 0 1 8.591366 13.154401 29.616791
413 0 1 8.235466 13.023602 28.659790
414 0 1 8.514626 12.151502 28.756592
415 0 1 8.814995 11.424802 28.353516
416 0 1 8.284267 10.826802 28.902313
417 0 1 7.642364 11.425405 29.246002
418 0 1 6.901638 10.824704 29.254913
419 0 1 6.510787 9.939305 29.272614
420 0 1 5.846797 10.539403 29.463593
421 0 1 5.182765 11.222501 29.270996
422 0 1 5.949108 11.882001 29.330688
423 0 1 6.111076 11.816102 28.282013
424 0 1 6.379405 11.459401 27.382294
425 0 1 6.388736 12.452203 27.420288
426 0 1 5.548126 12.704206 26.990112
427 0 1 4.870506 12.560605 26.265106
428 0 1 5.144016 11.686101 26.030884
429 0 1 4.526176 11.483602 25.306091
430 0 1 4.054786 11.269403 24.492188
431 0 1 3.989295 12.208302 24.304016
432 0 1 3.316368 11.798303 23.704285
433 0 1 3.294208 12.394803 22.983704
434 0 1 2.347755 12.444005 22.876801
435 0 1 2.881645 12.394506 22.071198
436 0 1 2.000778 12.009702 21.980499
437 0 1 2.044406 12.910901 21.510193
438 0 1 1.645828 12.945806 20.613892
439 0 1 2.458988 13.353803 20.202103
440 0 1 2.536365 13.405602 19.237595
441 0 1 3.234058 12.773702 19.259995
442 0 1 3.781135 12.205205 18.776306
443 0 1 3.017536 11.899903 18.319794
444 0 1 3.620735 11.177403 18.592697
445 0 1 3.298915 10.376203 19.097504
446 0 1 2.399406 10.106603 19.040100
447 0 1 1.777408 9.740201 19.686600
448 0 1 1.993946 8.731801 19.506805
449 0 1 2.745864 8.994000 18.941895
450 0 1 2.877506 8.079305 18.645401
451 0 1 2.985355 8.566503 17.718597
452 0 1 2.035396 8.723504 17.609497
453 0 1 1.459068 8.338605 18.306305
454 0 1 0.395839 8.258203 18.270096
455 0 1 0.790937 8.967904 18.768707
456 0 1 0.461925 9.726502 19.279297
457 0 1 0.014696 9.377004 20.097794
458 0 1 0.526378 8.432904 19.936203
459 0 1 0.585811 7.489705 20.131500
460 0 1 0.276949 7.501103 21.051300
461 0 1 -0.391299 6.865502 20.795197
462 0 1 0.288156 6.444703 21.278702
463 0 1 1.121517 6.827901 21.509705
464 0 1 2.059726 7.100102 21.557297
465 0 1 1.802585 7.967103 21.965393
466 0 1 2.036205 8.482503 22.747803
467 0 1 2.308216 8.198705 23.656799
468 0 1 2.229476 8.012502 24.615601
469 0 1 2.230247 8.878705 25.158813
470 0 1 3.028648 8.977101 25.725006
471 0 1 2.674465 8.071805 25.908600
472 0 1 2.731857 8.264905 26.940094
473 0 1 2.991397 9.129704 27.209198
474 0 1 2.237175 9.581304 26.784912
475 0 1 2.064376 9.862905 25.842499
476 0 1 1.339798 9.969701 25.215088
477 0 1 0.364069 9.851300 25.201416
478 0 1 -0.245675 10.603101 25.070587
479 0 1 -0.384863 10.790601 25.993896
480 0 1 -0.322792 11.733205 26.207794
481 0 1 -0.353033 11.887303 27.192596
482 0 1 -0.177586 12.619702 26.628204
483 0 1 -0.951025 13.300801 26.765106
484 0 1 -1.253558 12.775804 27.471100
485 0 1 -1.314444 13.484105 28.129913
486 0 1 -1.536114 13.047101 28.965302
487 0 1 -2.538754 12.953603 28.834686
488 0 1 -3.288523 12.817002 28.261688
489 0 1 -4.272263 12.736600 27.950989
490 0 1 -4.461754 11.750302 27.967712
491 0 1 -3.930724 10.959203 28.055603
492 0 1 -3.271183 10.896504 27.309906
493 0 1 -3.761734 10.345304 26.665009
494 0 1 -3.233233 9.563901 26.411407
495 0 1 -3.771695 8.787503 26.131287
496 0 1 -3.304013 8.636804 26.963898
497 0 1 -3.852883 8.116502 27.566803
498 0 1 -3.930434 7.302102 27.988403
499 0 1 -3.707524 6.409505 28.050690
500 0 1 -2.911294 6.300801 27.454712
501 0 1 -3.018033 5.452802 26.847412
502 0 1 -3.738234 5.492402 27.534485
503 0 1 -4.392344 5.716603 26.850891
504 0 1 -4.740134 5.245904 26.087311
505 0 1 -5.012793 4.948003 25.248596
506 0 1 -4.262534 4.769803 24.743103
507 0 1 -5.040173 4.537602 24.141785
508 0 1 -5.845845 4.221204 24.429993
509 0 1 -5.728194 3.272172 24.312714
510 0 1 -5.443512 3.628904 23.436798
511 0 1 -5.480223 3.048154 22.663208
512 0 1 -5.417864 3.588102 21.841797
513 0 1 -5.588423 3.884904 20.967697
514 0 1 -4.790143 3.424054 20.626602
515 0 1 -4.695704 2.418763 20.520996
516 0 1 -4.331873 1.486901 20.729004
517 0 1 -4.435923 0.627572 20.153503
518 0 1 -4.907294 0.189973 19.354599
519 0 1 -4.987544 0.648294 18.483902
520 0 1 -5.767193 1.274362 18.498901
521 0 1 -5.546463 2.160962 18.252594
522 0 1 -5.231854 2.370092 17.383896
523 0 1 -5.260603 3.231874 17.071594
524 0 1 -5.918232 3.300084 16.399704
525 0 1 -6.321623 2.768472 17.066193
526 0 1 -7.341334 2.904203 17.152298
527 0 1 -7.962914 3.639302 17.161407
528 0 1 -8.822533 3.461763 17.700897
529 0 1 -9.199413 2.556615 17.771896
530 0 1 -9.066063 1.793065 17.195099
531 0 1 -9.985832 1.867433 16.931702
532 0 1 -10.217182 1.547803 17.909393
533 0 1 -10.123993 0.691941 17.606003
534 0 1 -10.294683 0.370824 16.662994
535 0 1 -11.077194 0.743962 17.104095
536 0 1 -11.350193 -0.182326 17.367294
537 0 1 -11.901894 -1.029136 17.189499
538 0 1 -11.979492 -1.317847 18.117996
539 0 1 -11.592894 -2.101126 17.524796
540 0 1 -11.190094 -1.936217 18.394302
541 0 1 -12.008595 -2.231509 18.848404
542 0 1 -12.445393 -1.834498 19.620392
543 0 1 -13.154392 -1.602858 20.199402
544 0 1 -13.935692 -1.777018 20.674500
545 0 1 -13.970293 -2.743296 20.707199
546 0 1 -14.493093 -3.089957 21.444092
547 0 1 -15.074793 -2.952395 20.639297
548 0 1 -15.906693 -2.539248 20.531006
549 0 1 -15.850193 -1.635905 20.315903
550 0 1 -15.625393 -0.710837 20.069794
551 0 1 -16.613293 -0.463069 20.053406
552 0 1 -17.429594 -0.046767 20.440399
553 0 1 -17.496893 -0.743247 21.113800
554 0 1 -17.691593 0.024404 21.746902
555 0 1 -17.569193 -0.073767 22.666809
556 0 1 -16.769093 -0.640536 22.794189
557 0 1 -16.638594 -1.185656 23.570587
558 0 1 -16.528994 -1.182429 24.575409
559 0 1 -15.669394 -1.597247 24.633209
560 0 1 -14.760893 -1.450766 24.348297
561 0 1 -13.855093 -1.020728 24.155792
562 0 1 -13.270092 -0.812205 24.891205
563 0 1 -13.187092 -1.763457 25.220398
564 0 1 -13.898792 -2.275687 25.681610
565 0 1 -13.443092 -1.894637 26.435913
566 0 1 -12.517994 -1.614798 26.761688
567 0 1 -12.489292 -1.821097 27.697113
568 0 1 -12.612194 -1.625056 28.612488
569 0 1 -13.277594 -1.233477 28.089386
570 0 1 -12.705593 -0.443389 28.384399
571 0 1 -11.958393 0.100633 28.632507
572 0 1 -12.588192 -0.332179 29.369812
573 0 1 -13.266693 0.258954 28.983002
574 0 1 -13.261593 1.131314 28.597595
575 0 1 -13.004293 2.004602 28.346893
576 0 1 -12.850693 2.976663 28.129486
577 0 1 -12.340593 3.454404 28.876587
578 0 1 -12.894894 2.655523 29.197205
579 0 1 -12.313793 2.158113 29.929688
580 0 1 -12.230593 2.851354 30.559387
581 0 1 -11.696493 3.644204 30.721802
582 0 1 -10.904093 3.663602 31.423492
583 0 1 -10.415993 3.425843 32.186890
584 0 1 -10.754993 3.714704 33.070404
585 0 1 -10.070633 4.410401 33.211914
586 0 1 -9.977104 5.165204 32.537506
587 0 1 -9.337753 5.100202 31.812805
588 0 1 -9.083614 4.102201 31.959290
589 0 1 -8.462852 4.225003 32.602783
590 0 1 -8.230963 5.217202 32.460999
591 0 1 -7.923983 5.760003 33.174103
592 0 1 -8.807873 6.124600 33.026306
593 0 1 -8.082172 6.733403 32.965088
594 0 1 -7.862442 7.649804 32.941711
595 0 1 -8.685163 8.082501 32.618713
596 0 1 -9.341084 7.856801 31.968109
597 0 1 -10.258623 7.744901 32.014099
598 0 1 -11.209492 7.943704 31.827301
599 0 1 -10.993393 8.743203 32.291016
600 0 1 -10.589592 9.592103 32.250793
601 0 1 -11.187092 9.475602 32.982697
602 0 1 -12.103294 9.513402 32.735809
603 0 1 -12.631592 8.736203 32.984314
604 0 1 -13.371792 8.966203 32.419800
605 0 1 -13.307594 8.076802 32.061188
606 0 1 -13.191994 7.118104 31.969391
607 0 1 -12.581093 6.688802 31.382294
608 0 1 -11.733692 6.675302 31.738312
609 0 1 -12.202194 6.460301 32.583710
610 0 1 -12.740692 6.643903 33.379517
611 0 1 -12.863293 6.990804 34.320984
612 0 1 -13.614994 7.615804 34.247711
613 0 1 -14.081692 6.778302 33.996887
614 0 1 -14.879395 7.109303 34.366211
615 0 1 -15.763893 6.837502 34.143005
616 0 1 -15.238493 5.992703 34.050201
617 0 1 -15.205693 5.147801 33.620392
618 0 1 -16.011093 4.827603 34.042389
619 0 1 -16.439194 4.022202 33.633087
620 0 1 -15.637493 3.465883 33.591400
621 0 1 -16.049894 2.916791 32.939789
622 0 1 -16.860292 2.461232 32.916901
623 0 1 -16.452093 1.706323 32.628204
624 0 1 -15.631893 1.253251 32.825989
625 0 1 -15.685193 0.314862 32.954590
626 0 1 -14.970893 0.111753 33.621490
627 0 1 -14.481094 -0.611358 34.000183
628 0 1 -13.857494 0.107282 33.874817
629 0 1 -13.558792 -0.054019 33.007111
630 0 1 -13.265793 -0.940356 32.753204
631 0 1 -12.354294 -1.070166 33.126312
632 0 1 -11.699394 -0.492648 32.771484
633 0 1 -10.947594 -0.224616 32.174500
634 0 1 -10.254913 -0.589156 31.646790
635 0 1 -9.556013 -0.933215 32.263794
636 0 1 -9.084303 -0.068667 32.250092
637 0 1 -8.884914 -0.465476 31.401794
638 0 1 -9.224623 -0.633738 30.494110
639 0 1 -9.008484 -0.619956 29.541290
640 0 1 -8.739704 -1.393786 29.007996
641 0 1 -7.982144 -0.829669 29.150909
642 0 1 -7.326504 -1.341277 29.628113
643 0 1 -6.635125 -1.416057 30.322113
644 0 1 -5.887984 -1.594748 29.683014
645 0 1 -4.930884 -1.734706 29.359406
646 0 1 -4.186074 -2.333338 28.997314
647 0 1 -3.576964 -2.739527 29.659302
648 0 1 -3.311533 -2.994456 30.553314
649 0 1 -2.998444 -3.644538 29.891113
650 0 1 -3.678984 -4.047915 29.291412
651 0 1 -4.029244 -3.550456 28.580200
652 0 1 -4.643944 -3.699027 27.833984
653 0 1 -4.279883 -3.268267 27.058197
654 0 1 -4.023053 -2.897658 26.143890
655 0 1 -4.759064 -3.049739 25.483093
656 0 1 -5.123753 -2.843627 24.591003
657 0 1 -4.875233 -1.874759 24.410797
658 0 1 -5.468113 -1.301379 23.958893
659 0 1 -5.573403 -1.017798 23.023895
660 0 1 -5.288544 -0.797309 22.118896
661 0 1 -5.326703 -1.812766 22.244400
662 0 1 -4.631382 -2.472018 22.118896
663 0 1 -4.974564 -2.841788 22.937592
664 0 1 -5.480303 -3.469329 22.455994
665 0 1 -6.109423 -2.713568 22.436707
666 0 1 -6.847733 -2.269015 22.149796
667 0 1 -6.905234 -1.434539 21.663895
668 0 1 -7.809903 -1.149676 21.411804
669 0 1 -7.606755 -0.576388 20.615997
670 0 1 -7.032204 0.032781 21.085693
671 0 1 -6.216565 0.235013 21.580795
672 0 1 -5.512003 0.774434 21.760498
673 0 1 -5.090603 0.360593 22.520508
674 0 1 -5.000384 0.650613 23.461487
675 0 1 -4.960804 0.578012 24.402710
676 0 1 -5.641263 1.175912 24.733215
677 0 1 -6.017113 2.059514 24.572205
678 0 1 -5.194674 2.066251 24.098297
679 0 1 -4.308474 2.010404 23.748199
680 0 1 -3.340323 1.669213 23.933594
681 0 1 -4.004454 1.047921 24.289703
682 0 1 -4.073264 0.211442 24.752899
683 0 1 -3.480904 -0.502688 24.486084
684 0 1 -2.857573 -0.854228 25.224915
685 0 1 -2.141964 -0.527476 24.736908
686 0 1 -1.226714 -1.016448 24.775299
687 0 1 -0.863568 -0.520469 24.056000
688 0 1 -0.951571 -1.411826 23.850311
689 0 1 -0.513520 -1.918807 24.545105
690 0 1 0.335081 -1.511496 24.894196
691 0 1 1.109697 -1.283839 25.484100
692 0 1 1.206268 -2.235007 25.679291
693 0 1 0.649877 -3.076895 25.877106
694 0 1 0.026365 -3.346995 26.572693
695 0 1 -0.571251 -4.106425 26.439789
696 0 1 -0.798445 -4.797988 27.007690
697 0 1 0.094944 -5.114518 27.180298
698 0 1 0.299409 -6.017190 26.958405
699 0 1 0.060440 -6.349294 26.060303
700 0 1 -0.146017 -7.235944 25.755188
701 0 1 0.555896 -7.871808 25.646790
702 0 1 1.266876 -7.785548 24.987793
703 0 1 0.717117 -7.912047 24.280609
704 0 1 0.547552 -8.503898 23.528290
705 0 1 1.421196 -8.626718 23.221802
706 0 1 1.778568 -7.764888 22.889313
707 0 1 2.517105 -7.805358 22.209305
708 0 1 3.272235 -8.034427 22.717896
709 0 1 3.481105 -7.082952 22.738495
710 0 1 3.507267 -6.206483 23.267090
711 0 1 3.669708 -7.010734 23.799011
712 0 1 4.337696 -7.595317 23.431000
713 0 1 3.887477 -8.323277 23.809998
714 0 1 3.535636 -8.484477 24.661499
715 0 1 3.391258 -9.000678 25.485596
716 0 1 2.941707 -9.852607 25.805786
717 0 1 2.482578 -10.654368 26.062714
718 0 1 1.629745 -10.406117 26.474304
719 0 1 1.116977 -9.679807 26.099396
720 0 1 0.455722 -10.273257 25.671692
721 0 1 0.012874 -10.863507 26.206116
722 0 1 0.786947 -11.437278 26.070984
723 0 1 0.395755 -12.316648 26.247192
724 0 1 0.188533 -12.840636 25.475800
725 0 1 -0.647765 -13.304717 25.674500
726 0 1 -0.811474 -13.162707 24.658905
727 0 1 -1.058672 -13.043036 23.739288
728 0 1 -1.859333 -13.301997 23.248291
729 0 1 -1.506253 -12.369288 23.017487
730 0 1 -2.244683 -12.419078 22.435699
731 0 1 -1.669913 -12.054328 21.796600
732 0 1 -0.743145 -12.105777 21.862503
733 0 1 0.229864 -11.873477 21.715195
734 0 1 0.000593 -11.469897 22.593506
735 0 1 0.857017 -11.816398 22.759491
736 0 1 1.450657 -11.733077 22.013901
737 0 1 1.572796 -10.709517 21.871201
738 0 1 2.334747 -11.098598 22.442398
739 0 1 1.967098 -11.635306 23.163605
740 0 1 2.720256 -12.085448 23.596893
741 0 1 3.084346 -11.881618 24.501099
742 0 1 3.806457 -11.359607 24.654205
743 0 1 4.662555 -11.817777 24.670197
744 0 1 4.673946 -11.075248 23.973511
745 0 1 5.089736 -10.644387 24.792908
746 0 1 5.713806 -10.116218 24.317902
747 0 1 6.290405 -9.895207 25.088684
748 0 1 5.709816 -9.210427 25.424011
749 0 1 6.327747 -8.781287 26.079895
750 0 1 6.697437 -8.300776 25.348816
751 0 1 7.173397 -9.158967 25.317993
752 0 1 7.758544 -9.923926 25.477997
753 0 1 7.163005 -10.658378 25.272491
754 0 1 6.522937 -11.253028 25.754303
755 0 1 7.164257 -10.928037 26.368713
756 0 1 7.962265 -11.419978 26.129211
757 0 1 8.383537 -12.074317 26.739685
758 0 1 8.811478 -12.973367 27.089996
759 0 1 9.019398 -13.027387 28.021606
760 0 1 8.414459 -13.558318 28.633789
761 0 1 7.705764 -14.018336 29.135010
762 0 1 7.320278 -14.865117 29.197510
763 0 1 8.187599 -15.314078 29.196594
764 0 1 8.287476 -16.285128 28.988312
765 0 1 8.571648 -16.664698 29.785187
766 0 1 8.296658 -17.398296 29.141388
767 0 1 8.055984 -18.363195 28.980591
768 0 1 8.429386 -18.599497 28.061890
769 0 1 9.018349 -17.877796 28.192902
770 0 1 8.751305 -17.029396 27.900085
771 0 1 8.243908 -17.362497 27.147705
772 0 1 7.455066 -16.914597 26.921692
773 0 1 7.018157 -16.467497 26.158203
774 0 1 6.887916 -15.544988 25.708099
775 0 1 6.794918 -15.482488 26.665192
776 0 1 5.907108 -15.780688 26.545990
777 0 1 5.552257 -16.225826 27.292511
778 0 1 5.084407 -16.945097 26.937897
779 0 1 4.301685 -17.304296 26.579712
780 0 1 4.796577 -18.046196 26.209686
781 0 1 4.399227 -17.790197 25.347290
782 0 1 4.427238 -17.002897 24.708984
783 0 1 4.268047 -17.437098 23.886597
784 0 1 5.054416 -17.247597 23.293213
785 0 1 5.966705 -17.251797 22.938904
786 0 1 5.360546 -16.900698 22.192902
787 0 1 5.014396 -15.955256 21.918900
788 0 1 4.897766 -15.039256 22.259705
789 0 1 5.094905 -14.084418 22.025894