LAMMPS data file via MDAnalysis

        2000  atoms
        1999  bonds
           0  angles
           0  dihedrals
           0  impropers

           1  atom types
           1  bond types
           0  angle types
           0  dihedral types
           0  improper types

-30.5 30.5 xlo xhi
-30.5 30.5 ylo yhi
-233.5 233.5 zlo zhi


Masses

1 1.000000

Atoms

1 0 1 -1.232940 -1.238065 34.569885
2 0 1 -0.459519 -1.823583 34.655304
3 0 1 -0.658921 -2.055513 35.553406
4 0 1 -0.201211 -1.227766 35.645599
5 0 1 -0.327300 -0.781446 36.437683
6 0 1 -0.072700 0.212477 36.191711
7 0 1 0.335879 0.126955 37.076416
8 0 1 1.228698 -0.141454 36.902710
9 0 1 1.304801 0.163084 37.824188
10 0 1 0.676530 0.608305 38.419403
11 0 1 0.396920 1.292544 39.027802
12 0 1 0.759610 0.543196 39.634094
13 0 1 0.591350 -0.122675 40.312897
14 0 1 0.729529 -0.729387 41.059814
15 0 1 0.194619 -0.735654 41.883789
16 0 1 0.531760 -1.387025 42.503784
17 0 1 1.290481 -1.913145 42.838593
18 0 1 0.959449 -2.219644 43.671204
19 0 1 1.185328 -1.733854 44.454590
20 0 1 2.073735 -1.406236 44.682892
21 0 1 2.769261 -1.057787 44.197998
22 0 1 2.450650 -0.215326 43.831604
23 0 1 2.249799 -0.818567 43.128113
24 0 1 1.599326 -0.073465 43.204285
25 0 1 1.033650 0.670004 42.917114
26 0 1 1.307933 1.169314 43.668304
27 0 1 1.078490 1.476954 44.557404
28 0 1 0.139131 1.260443 44.335205
29 0 1 -0.464200 0.537135 44.572113
30 0 1 -1.318500 0.806876 45.033508
31 0 1 -2.056560 0.244074 44.639313
32 0 1 -1.983529 -0.736833 44.796112
33 0 1 -2.769250 -1.094076 45.224701
34 0 1 -2.293290 -0.576765 45.896698
35 0 1 -1.777310 -0.961664 46.638397
36 0 1 -2.199130 -1.342737 47.406616
37 0 1 -2.207021 -2.094057 46.666290
38 0 1 -1.889781 -2.967947 46.597595
39 0 1 -1.079011 -3.427585 46.424713
40 0 1 -0.519160 -2.764129 47.002014
41 0 1 -1.183290 -2.546844 47.670288
42 0 1 -1.900151 -3.007669 48.102783
43 0 1 -1.885739 -2.903759 49.024292
44 0 1 -2.001851 -3.825554 49.022217
45 0 1 -1.475440 -4.608600 49.064514
46 0 1 -0.971330 -4.813064 49.901001
47 0 1 -0.561820 -4.746086 50.787903
48 0 1 -0.128640 -3.864582 50.625397
49 0 1 0.363860 -3.191622 51.222900
50 0 1 1.016650 -2.595775 50.867493
51 0 1 1.483602 -2.811968 51.671997
52 0 1 1.418200 -1.935445 51.515106
53 0 1 0.840499 -1.206144 51.253906
54 0 1 1.309371 -0.475145 50.959412
55 0 1 2.246942 -0.517923 50.777588
56 0 1 2.730567 0.309485 50.811188
57 0 1 2.778344 0.890623 51.596191
58 0 1 3.578341 0.537924 52.057404
59 0 1 3.635070 0.648535 51.100586
60 0 1 4.386001 0.018114 51.076111
61 0 1 4.836349 -0.754106 50.664307
62 0 1 4.055541 -1.314394 50.684692
63 0 1 4.628291 -1.911497 51.176392
64 0 1 5.360351 -2.113466 51.777008
65 0 1 5.125628 -2.520506 52.623413
66 0 1 5.894870 -2.036886 52.862793
67 0 1 6.346469 -2.991750 52.789398
68 0 1 6.697539 -3.334387 51.973297
69 0 1 6.637889 -2.439094 51.622314
70 0 1 7.620780 -2.496876 51.749512
71 0 1 8.524230 -2.225435 52.004517
72 0 1 9.105731 -1.496015 51.704895
73 0 1 8.368670 -0.942125 51.696289
74 0 1 8.708781 -0.993276 50.744904
75 0 1 7.848819 -0.691503 50.449310
76 0 1 8.368018 0.118334 50.736298
77 0 1 8.579162 0.741373 51.558502
78 0 1 9.260428 0.132914 51.614685
79 0 1 10.081199 0.366885 52.122498
80 0 1 10.703029 0.415724 51.444702
81 0 1 11.664111 0.214506 51.148712
82 0 1 12.318629 0.945315 51.046204
83 0 1 12.438727 0.334055 50.281006
84 0 1 12.755229 1.115157 49.896484
85 0 1 13.699828 0.853625 49.832489
86 0 1 13.936332 1.322756 50.628998
87 0 1 14.084731 1.555746 51.532288
88 0 1 14.563331 2.352125 51.652100
89 0 1 14.344531 3.111315 50.975403
90 0 1 15.292228 2.975744 50.886810
91 0 1 15.896232 2.677023 50.131714
92 0 1 16.336828 3.559504 50.169617
93 0 1 17.272028 3.562876 50.382904
94 0 1 17.335230 3.000304 51.138702
95 0 1 17.889429 3.606314 51.660187
96 0 1 17.930029 2.943297 52.417114
97 0 1 18.182329 2.244765 51.853790
98 0 1 17.862028 1.367564 51.909393
99 0 1 17.702627 1.571036 52.830688
100 0 1 16.783930 1.375586 52.980896
101 0 1 16.584429 0.853934 53.738190
102 0 1 17.452829 0.489046 53.472198
103 0 1 18.246931 0.145834 53.911316
104 0 1 18.680929 0.955775 54.124908
105 0 1 18.156630 1.799647 54.369293
106 0 1 18.561930 2.183554 55.154694
107 0 1 18.527731 2.915316 54.594604
108 0 1 18.456030 3.883333 54.603394
109 0 1 18.055029 4.611025 55.025208
110 0 1 18.999529 4.526736 55.381592
111 0 1 18.452726 3.793364 55.648499
112 0 1 18.986731 4.085146 56.375702
113 0 1 19.567728 3.463946 55.822601
114 0 1 20.349531 2.893084 55.926300
115 0 1 20.536428 3.780436 56.192505
116 0 1 21.399328 3.400614 56.269409
117 0 1 21.482229 3.236876 57.219910
118 0 1 22.380827 2.948534 56.891785
119 0 1 22.417429 2.931734 57.840607
120 0 1 21.510031 2.810194 58.292603
121 0 1 20.587927 3.123385 58.311401
122 0 1 19.784128 3.790346 58.370392
123 0 1 19.353430 2.934214 58.163788
124 0 1 18.627428 2.837176 58.760193
125 0 1 19.322027 2.548544 59.342896
126 0 1 19.606031 2.794474 60.251587
127 0 1 20.102026 3.064326 60.966095
128 0 1 19.590628 3.615343 61.685089
129 0 1 19.079031 4.342665 62.084290
130 0 1 18.178526 4.638655 61.773102
131 0 1 17.514627 4.334464 61.175812
132 0 1 17.640429 3.510657 60.585205
133 0 1 17.270330 3.446875 59.696503
134 0 1 17.046530 2.726855 59.039001
135 0 1 17.325129 2.015547 58.385315
136 0 1 17.038130 2.789873 57.923187
137 0 1 16.129629 2.927664 57.773102
138 0 1 16.306429 1.996924 57.667297
139 0 1 16.886930 1.249884 57.543610
140 0 1 17.319227 0.959284 56.689911
141 0 1 16.587229 0.418326 56.325500
142 0 1 16.018328 -0.051866 56.858398
143 0 1 15.970428 -0.915796 56.391113
144 0 1 15.462329 -0.236276 55.892517
145 0 1 15.829230 -0.274145 55.026398
146 0 1 15.223929 0.443747 54.889893
147 0 1 14.697928 1.049296 54.436584
148 0 1 14.455428 1.049704 53.484314
149 0 1 13.616931 1.558424 53.248596
150 0 1 12.886630 1.904356 52.803589
151 0 1 12.251330 1.813414 53.487305
152 0 1 11.607211 2.458506 53.822113
153 0 1 12.368129 3.055174 53.727783
154 0 1 12.980929 3.705023 53.867096
155 0 1 13.246428 3.755236 54.818695
156 0 1 13.716929 3.085505 55.306885
157 0 1 13.800330 3.862944 55.826599
158 0 1 14.589931 4.509215 55.842896
159 0 1 14.528228 4.868704 54.970306
160 0 1 15.452929 4.749705 55.160400
161 0 1 16.320227 5.004366 55.214508
162 0 1 16.490129 5.410277 54.363312
163 0 1 15.589728 5.653986 54.083801
164 0 1 16.115229 6.358675 53.724701
165 0 1 16.797628 6.989676 53.549988
166 0 1 17.270830 7.336676 54.308594
167 0 1 17.055830 8.231375 54.178192
168 0 1 16.056227 8.559275 54.205505
169 0 1 15.196128 8.426874 54.661896
170 0 1 14.369330 7.880377 54.435791
171 0 1 14.033332 8.712275 54.571991
172 0 1 13.853930 8.890974 55.498993
173 0 1 13.156131 9.447073 55.825409
174 0 1 12.863429 10.291674 56.439789
175 0 1 12.909728 10.930475 57.139008
176 0 1 13.037829 10.724276 58.066101
177 0 1 12.856330 9.770876 57.883789
178 0 1 11.907908 9.683874 57.749512
179 0 1 11.832870 10.635374 58.002106
180 0 1 11.592669 11.116076 58.765411
181 0 1 11.881629 10.263075 59.216003
182 0 1 11.638148 9.723875 59.918610
183 0 1 12.024032 9.937574 60.788513
184 0 1 11.816268 9.583673 61.679596
185 0 1 11.810328 9.321577 62.635590
186 0 1 11.330779 8.458376 62.394897
187 0 1 10.513019 8.227377 62.913910
188 0 1 10.385848 7.860373 62.018005
189 0 1 11.245719 7.674376 61.527008
190 0 1 11.362079 7.556677 60.612610
191 0 1 11.504279 6.623477 60.955109
192 0 1 11.472487 5.707655 60.813507
193 0 1 12.100928 5.229117 61.364014
194 0 1 12.941630 5.091784 61.665405
195 0 1 13.293128 4.227557 61.562500
196 0 1 13.940730 4.768916 61.063812
197 0 1 14.736732 4.641634 60.599213
198 0 1 15.215030 5.191054 61.205109
199 0 1 15.088130 4.318755 61.640411
200 0 1 14.458430 3.717047 62.037598
201 0 1 14.147330 4.107657 62.808289
202 0 1 13.994330 5.053183 62.763702
203 0 1 14.309531 4.758406 63.629791
204 0 1 14.834331 4.830267 64.493286
205 0 1 15.450728 4.028994 64.562195
206 0 1 14.633029 3.727835 65.004395
207 0 1 14.504130 2.913534 64.559692
208 0 1 13.762229 2.830126 63.864410
209 0 1 12.941230 2.263525 63.820099
210 0 1 12.732631 1.933813 64.740784
211 0 1 12.860732 1.099707 65.192383
212 0 1 12.376529 1.593405 65.849915
213 0 1 12.572028 2.147604 66.565613
214 0 1 12.263831 3.046725 66.953094
215 0 1 11.497748 2.520994 67.328400
216 0 1 10.699759 2.136835 67.725708
217 0 1 11.027190 2.818014 68.307800
218 0 1 10.873252 3.709334 68.179901
219 0 1 10.139079 4.190154 68.564514
220 0 1 9.987201 4.414793 69.509216
221 0 1 10.672118 3.867995 69.992798
222 0 1 11.547729 3.792425 70.419708
223 0 1 12.311130 3.466696 70.957794
224 0 1 12.885631 3.304217 71.831909
225 0 1 12.794330 2.567515 72.447906
226 0 1 11.984981 2.958296 72.199402
227 0 1 11.405417 3.039656 73.020386
228 0 1 10.584159 2.884505 72.587097
229 0 1 10.515380 3.355345 73.447205
230 0 1 9.712050 2.917025 73.904510
231 0 1 8.855861 2.644976 73.479004
232 0 1 8.919440 1.800665 73.926697
233 0 1 7.943488 1.750994 73.797913
234 0 1 7.679179 1.097357 74.475494
235 0 1 7.279269 0.855574 75.265411
236 0 1 8.104751 0.490015 75.534698
237 0 1 8.893760 0.642306 76.067108
238 0 1 9.451091 0.025515 76.642883
239 0 1 9.353141 -0.818567 77.031616
240 0 1 9.621799 -1.548044 77.610992
241 0 1 9.136649 -1.510786 78.436707
242 0 1 8.181930 -1.754163 78.557007
243 0 1 7.832129 -1.938146 79.377197
244 0 1 7.845832 -1.255815 80.084595
245 0 1 8.337001 -0.614126 80.664398
246 0 1 7.769370 -0.500276 81.485107
247 0 1 7.739680 0.271696 80.721985
248 0 1 8.066230 1.098566 81.241699
249 0 1 8.189101 1.867506 80.647217
250 0 1 7.389590 1.952914 80.141205
251 0 1 6.937240 2.280524 80.941589
252 0 1 6.503379 1.610434 81.511292
253 0 1 6.242679 0.624586 81.669189
254 0 1 5.285991 0.794245 81.589294
255 0 1 5.078059 0.927687 82.507690
256 0 1 5.772090 0.306315 82.715515
257 0 1 5.692119 -0.515863 83.203400
258 0 1 5.027240 -1.202707 83.165802
259 0 1 5.721419 -1.628286 83.754608
260 0 1 6.247718 -2.317795 84.107391
261 0 1 5.557052 -2.941269 84.108887
262 0 1 4.778678 -3.100845 84.671295
263 0 1 3.857558 -3.115429 84.795898
264 0 1 3.030299 -2.824150 84.333405
265 0 1 3.016974 -2.790174 85.324310
266 0 1 2.857572 -1.858636 85.714203
267 0 1 2.979072 -1.217394 86.371307
268 0 1 3.764041 -0.652685 86.194519
269 0 1 3.585868 0.211054 85.820007
270 0 1 2.690663 0.387114 85.530518
271 0 1 3.168639 0.248083 84.652283
272 0 1 3.807021 -0.299146 84.197601
273 0 1 4.720099 -0.241686 84.515808
274 0 1 5.237170 0.145056 85.219604
275 0 1 5.239951 0.194643 86.199707
276 0 1 6.157409 0.520224 86.184998
277 0 1 6.527301 0.614737 87.054199
278 0 1 6.833449 -0.279733 87.250092
279 0 1 7.706061 -0.245657 87.645508
280 0 1 8.667869 -0.025377 87.332092
281 0 1 9.489409 -0.519846 87.004395
282 0 1 9.792418 -0.094774 86.183716
283 0 1 9.651240 -0.642397 85.372192
284 0 1 9.914359 -1.642286 85.216797
285 0 1 10.681201 -1.017114 85.186707
286 0 1 11.279029 -1.602396 84.619019
287 0 1 11.994441 -2.222934 84.379700
288 0 1 11.178470 -2.687465 84.492981
289 0 1 10.393409 -2.882427 84.993500
290 0 1 9.609420 -3.477005 84.985809
291 0 1 9.974601 -4.292413 85.227203
292 0 1 9.548942 -4.963594 84.677612
293 0 1 8.828551 -4.371696 84.887299
294 0 1 7.896541 -4.201398 84.602692
295 0 1 8.028129 -3.523893 85.227997
296 0 1 7.202281 -3.372951 85.635315
297 0 1 6.787181 -3.090181 86.411896
298 0 1 6.016479 -3.607597 86.650604
299 0 1 5.585761 -3.613243 87.570190
300 0 1 4.710059 -3.907938 87.509308
301 0 1 4.217120 -3.414217 86.822388
302 0 1 3.819888 -2.970564 87.562408
303 0 1 4.124930 -2.140547 87.938416
304 0 1 4.751258 -2.133127 88.665283
305 0 1 5.414420 -2.342954 88.019104
306 0 1 5.795581 -2.026384 88.830292
307 0 1 6.091800 -2.883884 89.153809
308 0 1 5.483439 -3.293609 89.825592
309 0 1 5.358428 -4.257600 89.799683
310 0 1 4.968310 -5.078315 89.753296
311 0 1 4.606238 -5.841014 89.318390
312 0 1 5.060500 -6.222145 90.094299
313 0 1 4.486739 -6.008695 90.864899
314 0 1 3.704059 -6.166984 90.300598
315 0 1 3.538108 -5.648925 91.071198
316 0 1 3.808928 -5.919405 92.020203
317 0 1 2.950938 -5.615446 92.384308
318 0 1 2.965087 -6.539775 92.576294
319 0 1 3.210170 -7.241664 92.007294
320 0 1 3.974631 -7.689195 92.473389
321 0 1 4.642390 -8.230974 92.660095
322 0 1 5.128638 -9.051346 92.472900
323 0 1 5.379058 -9.836565 92.958710
324 0 1 5.804191 -9.818365 93.819305
325 0 1 6.282958 -10.404785 93.179993
326 0 1 6.230399 -11.221605 92.525513
327 0 1 6.965209 -11.375866 91.854095
328 0 1 7.407420 -11.798145 91.077606
329 0 1 7.520221 -12.550886 91.710602
330 0 1 7.530929 -13.336626 91.080902
331 0 1 6.693938 -12.885126 90.951111
332 0 1 5.924979 -12.331026 91.065186
333 0 1 5.424521 -11.657206 91.478516
334 0 1 4.772109 -10.968416 91.356110
335 0 1 3.905570 -11.253845 91.700684
336 0 1 3.178000 -10.765896 91.227783
337 0 1 2.760787 -11.310095 90.477905
338 0 1 2.575093 -11.851145 89.647705
339 0 1 3.512509 -11.476316 89.494293
340 0 1 4.527728 -11.568375 89.650909
341 0 1 5.466941 -11.674555 89.667999
342 0 1 5.497001 -12.603436 89.446716
343 0 1 5.127830 -13.289745 88.865997
344 0 1 5.073279 -14.128025 88.413086
345 0 1 5.494300 -14.061325 87.601898
346 0 1 6.339389 -14.504526 87.287506
347 0 1 7.062781 -13.893927 87.156982
348 0 1 6.846671 -13.549986 88.116211
349 0 1 6.734679 -12.590414 88.150696
350 0 1 6.260940 -12.720335 87.294495
351 0 1 5.951888 -13.134035 86.489685
352 0 1 6.167789 -13.497496 85.571411
353 0 1 6.877238 -13.888025 85.115906
354 0 1 7.555339 -13.451305 84.622803
355 0 1 7.501109 -12.891356 83.902008
356 0 1 8.391170 -12.972075 84.230804
357 0 1 9.102191 -13.394224 84.859985
358 0 1 10.093291 -13.589716 84.994202
359 0 1 10.268870 -12.657766 85.179291
360 0 1 10.515658 -11.760595 85.507202
361 0 1 10.691161 -10.868095 85.409912
362 0 1 11.455520 -10.312746 85.334290
363 0 1 11.947600 -11.119616 85.474182
364 0 1 12.824130 -10.816395 85.152496
365 0 1 13.438930 -11.407215 85.590088
366 0 1 14.180831 -11.474535 84.853302
367 0 1 13.940528 -10.808744 84.182098
368 0 1 13.167331 -10.461525 83.732788
369 0 1 13.844230 -10.850935 83.139191
370 0 1 13.451930 -11.439924 82.456207
371 0 1 14.081832 -10.908396 81.963989
372 0 1 14.195228 -10.801336 80.981903
373 0 1 14.092528 -9.880495 81.137909
374 0 1 14.798629 -9.387066 80.862183
375 0 1 14.897132 -9.015976 79.953400
376 0 1 14.188529 -9.547926 79.574585
377 0 1 13.762328 -10.421934 79.367981
378 0 1 13.595832 -10.933306 78.594696
379 0 1 14.365928 -11.464705 78.463318
380 0 1 14.705932 -11.267466 77.576294
381 0 1 14.504928 -11.832035 76.837006
382 0 1 14.862632 -12.696335 76.568604
383 0 1 15.479030 -11.917265 76.719299
384 0 1 15.196128 -11.333145 75.983398
385 0 1 15.253230 -10.398325 75.687988
386 0 1 16.131727 -10.084255 75.542206
387 0 1 15.917228 -9.136015 75.181000
388 0 1 15.468329 -8.642786 75.952515
389 0 1 14.605430 -8.559826 76.315613
390 0 1 13.889831 -9.262304 76.401917
391 0 1 13.047828 -8.828505 76.277283
392 0 1 13.242728 -7.910514 76.558807
393 0 1 13.051631 -7.329706 75.751190
394 0 1 13.167228 -6.334844 75.638916
395 0 1 12.880431 -5.779634 74.935211
396 0 1 12.206729 -5.843975 74.162109
397 0 1 12.090232 -4.959156 73.638184
398 0 1 11.494468 -4.181137 73.729401
399 0 1 11.177138 -3.951818 74.552185
400 0 1 10.628150 -4.598211 74.968994
401 0 1 10.046302 -4.092828 75.598389
402 0 1 9.160911 -3.891927 76.037292
403 0 1 8.781058 -3.374792 75.348206
404 0 1 9.072749 -4.278083 75.039307
405 0 1 8.742530 -5.156875 75.322205
406 0 1 8.529811 -6.065155 75.422302
407 0 1 7.915061 -5.727664 74.728210
408 0 1 7.384250 -5.273994 74.074097
409 0 1 6.796081 -5.659044 73.322601
410 0 1 6.535682 -4.786674 73.655212
411 0 1 5.985320 -3.990392 73.587311
412 0 1 5.291301 -3.840524 74.239105
413 0 1 4.848128 -4.522651 74.739899
414 0 1 4.152122 -3.988836 75.155792
415 0 1 3.642619 -4.451215 74.540894
416 0 1 2.686839 -4.594614 74.661407
417 0 1 3.081080 -4.846275 73.797089
418 0 1 3.453780 -5.585035 74.282501
419 0 1 3.534411 -6.457414 73.834991
420 0 1 3.027970 -5.942794 73.090881
421 0 1 2.216287 -5.524265 72.851013
422 0 1 1.815038 -6.320224 73.276917
423 0 1 1.060393 -6.576135 72.688416
424 0 1 1.757422 -6.359476 72.023407
425 0 1 2.681636 -6.540365 72.235199
426 0 1 3.492280 -7.127424 72.181396
427 0 1 3.830741 -6.383735 71.684906
428 0 1 3.818221 -6.657766 70.708984
429 0 1 2.912364 -6.707345 71.022400
430 0 1 2.114499 -7.048944 70.523895
431 0 1 2.438245 -7.962265 70.543793
432 0 1 2.436093 -8.309555 71.452698
433 0 1 1.794776 -8.659016 72.114502
434 0 1 1.455443 -9.189264 72.901093
435 0 1 0.799729 -8.626925 73.328308
436 0 1 0.016200 -9.172674 73.061096
437 0 1 -0.668561 -9.830225 73.037994
438 0 1 -0.437449 -10.611856 73.503601
439 0 1 0.411519 -10.363615 73.850891
440 0 1 -0.080991 -10.132154 74.691498
441 0 1 -0.097501 -9.291506 75.115204
442 0 1 0.597461 -9.190004 75.769287
443 0 1 0.843589 -8.307276 76.128510
444 0 1 0.101069 -8.152575 76.683899
445 0 1 -0.106620 -7.271734 76.873199
446 0 1 -0.718980 -6.619215 76.536987
447 0 1 -1.396199 -6.072084 76.321503
448 0 1 -1.799081 -5.524265 77.016418
449 0 1 -2.386811 -5.044155 76.417603
450 0 1 -2.752481 -4.376127 76.928192
451 0 1 -3.387139 -4.809505 76.317108
452 0 1 -4.233010 -5.022035 75.850311
453 0 1 -3.891919 -5.728235 75.281311
454 0 1 -3.362880 -5.466415 74.459900
455 0 1 -3.140431 -5.711126 73.544189
456 0 1 -4.086511 -5.755685 73.767609
457 0 1 -4.209710 -5.017875 73.114685
458 0 1 -3.523419 -4.224069 72.934692
459 0 1 -4.427230 -3.953254 73.149414
460 0 1 -4.287881 -3.565555 73.988708
461 0 1 -4.052661 -2.699745 73.661407
462 0 1 -4.070251 -2.043867 72.979401
463 0 1 -4.582829 -1.797346 73.772308
464 0 1 -5.530370 -1.680326 73.755096
465 0 1 -6.240870 -2.181375 73.270996
466 0 1 -5.917560 -2.375576 72.394806
467 0 1 -5.712060 -2.713251 71.482788
468 0 1 -5.979520 -3.393553 70.865417
469 0 1 -5.741921 -4.036111 71.572693
470 0 1 -5.077870 -4.138761 70.917389
471 0 1 -5.790931 -4.563123 70.460999
472 0 1 -6.288911 -4.144695 69.729004
473 0 1 -6.095311 -4.583206 68.874908
474 0 1 -5.537120 -4.150386 68.249512
475 0 1 -5.885970 -3.278293 67.795288
476 0 1 -6.287200 -2.386856 67.908295
477 0 1 -6.028291 -1.515707 68.068481
478 0 1 -5.259070 -1.958475 68.441101
479 0 1 -4.623130 -2.678884 68.743713
480 0 1 -5.478181 -3.043142 69.044098
481 0 1 -5.529220 -2.594354 69.841003
482 0 1 -5.921681 -1.681535 69.915710
483 0 1 -6.920350 -1.668054 70.003204
484 0 1 -7.747041 -1.108694 69.862701
485 0 1 -8.778171 -1.188814 69.645386
486 0 1 -8.460071 -0.884126 68.780792
487 0 1 -8.994969 -1.437574 68.182495
488 0 1 -9.634171 -2.207195 68.264587
489 0 1 -10.482270 -2.679334 68.501495
490 0 1 -10.180169 -3.131986 67.692108
491 0 1 -10.323770 -2.163744 67.442108
492 0 1 -11.178870 -1.878694 67.612091
493 0 1 -11.547771 -2.044447 66.752411
494 0 1 -12.198871 -1.345613 66.578400
495 0 1 -11.396670 -0.854276 66.481384
496 0 1 -11.613469 -0.669244 65.562103
497 0 1 -12.441369 -0.686494 65.013184
498 0 1 -12.964570 0.134837 64.762695
499 0 1 -13.306371 -0.271875 63.909088
500 0 1 -12.330470 -0.367487 63.706390
501 0 1 -12.466069 -0.045503 62.794006
502 0 1 -11.565070 -0.317533 62.596802
503 0 1 -12.072270 -0.927274 62.034088
504 0 1 -12.593471 -0.431886 61.380402
505 0 1 -12.268571 0.406706 61.226685
506 0 1 -11.505971 0.933257 61.395111
507 0 1 -11.307570 1.598364 60.738892
508 0 1 -11.282371 2.296416 60.117615
509 0 1 -10.963471 2.712424 59.230804
510 0 1 -11.036271 2.783255 58.283112
511 0 1 -11.666070 2.042143 58.457794
512 0 1 -11.699071 2.127623 57.516785
513 0 1 -12.240571 2.827364 57.880493
514 0 1 -13.138170 3.238333 57.889313
515 0 1 -13.627470 4.042914 58.175598
516 0 1 -12.998071 4.676196 57.929901
517 0 1 -12.906170 4.564864 56.900909
518 0 1 -13.022571 3.832056 56.230103
519 0 1 -12.467969 3.353445 55.613800
520 0 1 -12.603170 2.807665 54.821716
521 0 1 -13.532770 2.977934 55.008911
522 0 1 -13.569070 2.369265 54.307709
523 0 1 -13.264071 1.806975 55.102783
524 0 1 -14.171269 1.570845 55.481506
525 0 1 -14.560571 0.937064 54.900085
526 0 1 -14.644670 1.023955 53.938202
527 0 1 -15.315370 0.856165 53.288788
528 0 1 -14.754270 -0.003324 53.234192
529 0 1 -14.373271 0.666766 52.708710
530 0 1 -14.036469 -0.140413 52.307983
531 0 1 -13.883670 -1.003767 52.018188
532 0 1 -13.023070 -0.638013 52.189087
533 0 1 -12.941771 0.319975 52.217407
534 0 1 -12.961471 0.139296 51.277802
535 0 1 -12.257371 0.642004 50.825684
536 0 1 -12.291169 0.991885 49.897308
537 0 1 -12.601570 0.479475 49.171295
538 0 1 -11.860169 0.399424 48.563507
539 0 1 -11.779771 1.316386 48.253784
540 0 1 -11.218572 0.937525 47.499512
541 0 1 -10.656770 0.263113 47.112000
542 0 1 -9.940671 0.824244 46.874084
543 0 1 -9.535871 1.522135 47.254211
544 0 1 -8.914870 1.413855 47.983490
545 0 1 -8.757270 1.789343 48.866211
546 0 1 -9.597470 2.161383 48.810791
547 0 1 -9.560472 2.829355 48.154388
548 0 1 -9.644471 3.279097 47.331299
549 0 1 -8.799272 3.633986 47.093201
550 0 1 -7.936940 3.390795 46.695587
551 0 1 -8.441072 2.719446 46.237213
552 0 1 -7.901761 2.869597 45.454590
553 0 1 -8.412869 3.254534 44.709991
554 0 1 -8.678769 3.903536 44.070709
555 0 1 -9.557170 3.552134 43.894287
556 0 1 -9.492669 2.628905 43.549316
557 0 1 -9.047471 1.804465 43.416504
558 0 1 -9.921371 1.371325 43.672485
559 0 1 -10.166371 2.180254 44.230103
560 0 1 -10.927571 2.795496 44.117493
561 0 1 -11.372470 3.396094 43.509705
562 0 1 -12.117570 3.429457 44.040588
563 0 1 -11.544271 3.667383 44.878113
564 0 1 -10.694470 4.118384 45.182007
565 0 1 -9.904271 4.382914 44.694702
566 0 1 -9.345471 4.331027 45.526184
567 0 1 -8.601571 4.624186 44.964203
568 0 1 -8.362569 5.295565 44.347504
569 0 1 -9.187970 5.824484 44.454285
570 0 1 -8.866870 6.304976 43.662506
571 0 1 -7.997670 6.634573 43.907013
572 0 1 -8.587871 7.062674 44.566406
573 0 1 -8.509870 7.952376 44.963806
574 0 1 -9.109170 8.104376 45.741394
575 0 1 -9.982770 8.033674 45.343689
576 0 1 -10.813569 8.547476 45.437195
577 0 1 -10.458270 9.279474 44.933990
578 0 1 -9.630170 9.789274 44.863892
579 0 1 -8.727071 10.087275 44.894196
580 0 1 -8.001670 10.687174 45.102203
581 0 1 -8.043469 10.794775 44.139893
582 0 1 -7.207440 11.015974 44.404999
583 0 1 -6.557860 11.514677 44.989990
584 0 1 -6.357640 11.533274 45.914398
585 0 1 -7.100261 10.921175 45.959106
586 0 1 -6.621369 10.039576 46.237701
587 0 1 -6.677831 9.250174 46.794617
588 0 1 -6.500270 8.950975 45.885315
589 0 1 -5.857940 8.854074 45.193512
590 0 1 -5.675870 7.979277 44.867493
591 0 1 -5.045850 7.482676 45.371216
592 0 1 -4.673640 7.306777 44.488586
593 0 1 -4.017711 7.970477 44.308594
594 0 1 -3.838681 8.677473 43.657593
595 0 1 -2.907710 8.479975 43.751312
596 0 1 -3.076791 9.342474 43.424103
597 0 1 -3.892211 9.388075 42.826508
598 0 1 -3.320670 9.456877 41.983795
599 0 1 -3.397149 8.554075 41.592804
600 0 1 -3.101220 9.146173 40.936493
601 0 1 -3.280110 8.836073 40.114990
602 0 1 -4.086480 8.264677 40.239685
603 0 1 -5.057321 8.482874 40.153900
604 0 1 -5.610410 7.842276 39.797394
605 0 1 -6.058030 8.143373 38.980011
606 0 1 -6.504239 8.961874 39.268402
607 0 1 -7.407500 9.286776 39.051788
608 0 1 -7.359090 9.535673 38.091003
609 0 1 -8.027871 10.293474 38.460602
610 0 1 -8.286170 9.331675 38.462799
611 0 1 -8.882270 9.784376 39.113708
612 0 1 -9.465970 10.474276 38.792206
613 0 1 -9.578870 10.768873 37.841705
614 0 1 -9.178571 10.616476 36.970612
615 0 1 -8.762570 10.437773 36.128693
616 0 1 -8.503970 10.445974 35.212097
617 0 1 -7.513299 10.335875 35.073395
618 0 1 -7.122430 9.424074 34.929901
619 0 1 -6.426339 10.149473 34.784485
620 0 1 -5.585900 9.640974 34.756989
621 0 1 -5.906190 9.756174 33.849091
622 0 1 -5.700690 9.220274 33.088287
623 0 1 -6.158700 8.902372 32.326599
624 0 1 -5.193101 8.795774 32.253998
625 0 1 -5.256539 7.806273 32.224213
626 0 1 -4.581330 7.575675 32.966309
627 0 1 -3.966990 6.929774 33.495392
628 0 1 -4.831010 6.516776 33.514099
629 0 1 -5.736060 6.283366 33.551697
630 0 1 -5.877500 6.464377 32.648987
631 0 1 -6.320750 6.498576 31.762909
632 0 1 -5.516591 5.984305 31.743591
633 0 1 -4.947709 5.250987 31.743713
634 0 1 -4.564931 4.529765 31.223114
635 0 1 -5.071881 3.772856 31.430389
636 0 1 -5.317321 3.579863 32.284393
637 0 1 -5.541699 2.580633 32.330902
638 0 1 -4.569961 2.465655 32.135406
639 0 1 -5.046330 1.958357 31.510193
640 0 1 -4.160451 1.552294 31.610901
641 0 1 -4.326011 0.863875 30.976288
642 0 1 -5.138240 0.449904 30.800903
643 0 1 -4.815980 -0.483373 30.592987
644 0 1 -4.044080 -0.356905 30.097504
645 0 1 -3.941991 -1.153814 29.568787
646 0 1 -4.108800 -0.873186 28.622009
647 0 1 -3.969001 -1.039316 27.732086
648 0 1 -3.994920 -1.946096 28.058807
649 0 1 -4.431401 -2.013075 27.121613
650 0 1 -5.248891 -2.417515 27.255707
651 0 1 -5.419900 -2.115495 28.139709
652 0 1 -5.777131 -2.109724 29.082611
653 0 1 -5.710460 -3.034233 29.313110
654 0 1 -6.307679 -3.633051 29.652496
655 0 1 -5.830260 -4.412572 29.890503
656 0 1 -6.552979 -4.785486 30.403503
657 0 1 -7.245030 -5.475824 30.258087
658 0 1 -7.878781 -5.960424 29.700500
659 0 1 -7.046399 -6.394395 29.439911
660 0 1 -7.469300 -6.840934 28.685791
661 0 1 -7.131520 -7.677234 29.053711
662 0 1 -6.489381 -8.428856 28.896912
663 0 1 -7.218411 -8.761995 28.320404
664 0 1 -7.932611 -8.386724 28.901886
665 0 1 -8.447070 -7.682865 28.542511
666 0 1 -8.479671 -7.560215 27.563202
667 0 1 -9.313371 -7.074855 27.722595
668 0 1 -9.433171 -7.508495 26.837311
669 0 1 -10.250070 -6.962635 26.842285
670 0 1 -10.719171 -7.386625 26.125000
671 0 1 -11.370770 -7.605024 26.704407
672 0 1 -12.161571 -7.456476 26.058594
673 0 1 -12.688371 -7.889795 26.736694
674 0 1 -13.407870 -7.749494 26.101807
675 0 1 -13.564071 -6.848825 25.654785
676 0 1 -14.358069 -6.885904 26.179413
677 0 1 -15.052470 -6.783475 25.509308
678 0 1 -15.460570 -6.631105 26.361603
679 0 1 -16.387072 -6.715034 26.482391
680 0 1 -15.959170 -6.249254 27.191803
681 0 1 -16.566271 -6.645086 27.893311
682 0 1 -17.559172 -6.725255 27.702393
683 0 1 -17.392771 -7.613004 27.330994
684 0 1 -16.798672 -8.198885 27.781708
685 0 1 -16.397972 -8.816545 28.426697
686 0 1 -16.624771 -9.454535 27.758606
687 0 1 -16.216772 -9.799036 26.928894
688 0 1 -15.545171 -9.381495 27.461700
689 0 1 -15.098371 -10.268206 27.509094
690 0 1 -15.093369 -11.278915 27.478790
691 0 1 -14.863170 -12.004345 28.115295
692 0 1 -14.660871 -12.296515 29.016907
693 0 1 -13.840470 -12.731924 29.136993
694 0 1 -13.853470 -12.924465 28.194489
695 0 1 -14.016770 -12.828836 27.286194
696 0 1 -13.334070 -13.481415 27.363495
697 0 1 -13.021370 -12.912226 26.653595
698 0 1 -12.099870 -12.720564 26.872192
699 0 1 -12.013471 -13.625296 26.487305
700 0 1 -11.968970 -12.953856 25.807587
701 0 1 -11.914472 -12.331194 25.138092
702 0 1 -11.170571 -12.863726 24.808716
703 0 1 -11.871869 -13.328775 24.354004
704 0 1 -11.109370 -13.706724 23.829803
705 0 1 -10.991570 -12.679476 23.616394
706 0 1 -10.575570 -12.822577 22.766602
707 0 1 -10.682271 -13.800526 22.861908
708 0 1 -10.508370 -14.659826 22.435806
709 0 1 -9.728169 -15.206526 22.579010
710 0 1 -8.876069 -14.976826 22.642609
711 0 1 -8.952569 -14.054224 22.488205
712 0 1 -8.678170 -13.405895 21.770996
713 0 1 -7.770310 -13.233416 21.530594
714 0 1 -8.217370 -13.018404 20.729492
715 0 1 -8.853271 -12.334974 21.151306
716 0 1 -8.591069 -11.897795 20.392792
717 0 1 -8.199071 -11.045675 20.208405
718 0 1 -7.508620 -10.402145 20.438599
719 0 1 -6.867061 -9.820496 20.028595
720 0 1 -7.533660 -9.186586 20.088501
721 0 1 -7.952590 -9.060965 19.199402
722 0 1 -8.149770 -9.615866 18.419495
723 0 1 -8.838769 -8.939445 18.123001
724 0 1 -9.542171 -8.310965 18.353394
725 0 1 -9.098470 -7.639894 17.784500
726 0 1 -8.753270 -6.718185 17.647202
727 0 1 -8.790771 -5.773494 17.660400
728 0 1 -9.381669 -4.981885 17.780106
729 0 1 -8.896970 -4.103744 17.883698
730 0 1 -9.696370 -3.649811 17.959595
731 0 1 -10.112771 -3.209793 17.141205
732 0 1 -10.431371 -3.050855 16.243301
733 0 1 -9.523870 -2.895033 16.332306
734 0 1 -9.410970 -2.630155 15.397095
735 0 1 -9.646771 -1.873994 14.941803
736 0 1 -10.375772 -1.567896 15.461792
737 0 1 -11.071671 -1.097734 14.949600
738 0 1 -10.681569 -0.850004 14.120499
739 0 1 -11.320569 -1.314577 13.552704
740 0 1 -10.550469 -0.967756 13.093597
741 0 1 -11.061170 -0.273306 12.654007
742 0 1 -11.628671 0.511595 12.525101
743 0 1 -10.848969 0.833563 11.953705
744 0 1 -10.405370 1.456446 11.457199
745 0 1 -10.835969 0.885264 10.780899
746 0 1 -10.002469 1.299116 10.445801
747 0 1 -10.076371 2.118414 10.023102
748 0 1 -10.822370 2.253454 9.359756
749 0 1 -11.045671 1.532374 8.850937
750 0 1 -10.192870 1.302775 8.484970
751 0 1 -10.634770 1.246794 7.633682
752 0 1 -10.357671 1.332095 6.616638
753 0 1 -11.174069 1.261366 6.066940
754 0 1 -11.293771 0.370005 5.629745
755 0 1 -11.507371 -0.520704 5.262146
756 0 1 -11.215871 -0.752454 4.402985
757 0 1 -10.558970 -0.656606 3.701294
758 0 1 -10.949269 -1.393613 3.130753
759 0 1 -10.887670 -1.940565 2.324463
760 0 1 -11.357270 -2.646065 2.731796
761 0 1 -10.548570 -3.084310 2.394516
762 0 1 -10.580270 -3.844681 1.734009
763 0 1 -10.528670 -3.404709 0.870972
764 0 1 -10.684369 -3.734377 -0.004639
765 0 1 -10.147771 -3.960260 -0.805786
766 0 1 -9.778470 -4.448429 -0.003021
767 0 1 -9.211572 -4.193119 0.827728
768 0 1 -8.360669 -4.580448 0.634293
769 0 1 -8.319871 -4.136304 1.547196
770 0 1 -8.111871 -3.276962 1.893204
771 0 1 -8.098670 -2.938259 2.814529
772 0 1 -8.989070 -2.610454 2.965332
773 0 1 -9.277070 -3.048828 3.868607
774 0 1 -8.545970 -3.372476 4.296906
775 0 1 -8.084271 -4.090770 4.682007
776 0 1 -7.166371 -4.222639 4.643127
777 0 1 -7.284390 -5.017866 5.216507
778 0 1 -7.048089 -4.744695 6.086166
779 0 1 -6.238490 -5.032686 5.568909
780 0 1 -5.934751 -5.888015 5.338333
781 0 1 -6.609849 -6.237674 4.622192
782 0 1 -6.641891 -6.993654 5.284363
783 0 1 -5.716870 -7.152944 5.515060
784 0 1 -4.723840 -7.063255 5.306427
785 0 1 -4.684011 -7.138994 4.326294
786 0 1 -5.418420 -7.692905 3.994843
787 0 1 -6.275670 -8.153496 4.238052
788 0 1 -5.957959 -8.958666 3.716156
789 0 1 -5.388640 -8.990335 2.894333
790 0 1 -4.747701 -9.694296 2.888611
791 0 1 -4.670871 -10.588486 3.242065