LAMMPS data file via MDAnalysis

        2000  atoms
        1999  bonds
           0  angles
           0  dihedrals
           0  impropers

           1  atom types
           1  bond types
           0  angle types
           0  dihedral types
           0  improper types

-30.5 30.5 xlo xhi
-30.5 30.5 ylo yhi
-233.5 233.5 zlo zhi


Masses

1 1.000000

Atoms

1 0 1 1.854620 10.150935 76.721313
2 0 1 1.990810 10.675235 77.554993
3 0 1 1.743259 11.614436 77.426208
4 0 1 1.959339 11.331038 76.495483
5 0 1 1.642429 10.685538 75.734802
6 0 1 2.260811 10.313937 75.110413
7 0 1 1.878120 9.752135 74.461700
8 0 1 2.077881 8.917136 74.099609
9 0 1 1.453020 8.538238 74.720001
10 0 1 0.894480 8.428638 73.954193
11 0 1 0.060921 8.098838 74.263092
12 0 1 -0.679871 8.623736 73.985809
13 0 1 -1.198690 8.115336 74.630798
14 0 1 -1.664070 8.152637 73.777283
15 0 1 -2.264919 7.530375 74.252289
16 0 1 -2.325359 8.474235 74.328613
17 0 1 -3.224960 8.458938 73.933594
18 0 1 -3.187090 7.963958 74.813416
19 0 1 -3.234261 7.499015 75.669403
20 0 1 -2.961151 6.793365 74.991791
21 0 1 -3.648991 6.158977 74.825500
22 0 1 -3.874939 5.516147 74.017212
23 0 1 -4.688961 5.307857 73.503204
24 0 1 -4.845280 5.593295 72.617493
25 0 1 -4.078810 5.191627 72.260193
26 0 1 -3.877869 6.043807 72.673309
27 0 1 -2.926680 5.919005 72.548889
28 0 1 -2.632771 6.553054 71.856506
29 0 1 -2.689140 5.677245 71.385803
30 0 1 -2.105431 5.229445 71.921906
31 0 1 -1.150051 5.458625 71.653503
32 0 1 -0.503099 5.136226 71.073700
33 0 1 -0.917221 4.739238 70.329407
34 0 1 -0.757351 4.277926 69.556213
35 0 1 0.036921 3.685718 69.832611
36 0 1 0.504860 2.873237 69.841492
37 0 1 -0.183670 2.788886 69.093201
38 0 1 0.246071 3.303588 68.377289
39 0 1 0.635170 3.312407 67.437592
40 0 1 1.222860 2.526896 67.383484
41 0 1 1.656460 2.204806 68.255096
42 0 1 1.514790 1.329146 67.897095
43 0 1 1.388210 1.123027 68.881500
44 0 1 2.269590 1.302176 68.641510
45 0 1 2.634140 0.400928 68.930695
46 0 1 2.057640 0.883475 69.510406
47 0 1 2.845289 1.199786 69.945801
48 0 1 3.520281 0.698794 70.385498
49 0 1 3.950651 0.098186 69.740784
50 0 1 3.754620 -0.746663 70.212097
51 0 1 4.628294 -1.037827 70.044312
52 0 1 5.591774 -1.351079 70.059814
53 0 1 5.432709 -1.036080 70.997406
54 0 1 4.474815 -0.899804 71.092499
55 0 1 3.997082 -1.015836 71.952606
56 0 1 4.068350 -1.703431 72.623199
57 0 1 3.458490 -2.154519 72.068207
58 0 1 4.240211 -2.343396 71.540405
59 0 1 3.858889 -3.184255 71.477112
60 0 1 3.259541 -3.923764 71.397888
61 0 1 2.404770 -3.563865 71.036591
62 0 1 1.787600 -3.941894 71.630188
63 0 1 1.204639 -4.641473 71.932617
64 0 1 1.978870 -5.219335 72.143311
65 0 1 2.558081 -4.728213 72.717804
66 0 1 3.191160 -5.153113 72.103882
67 0 1 3.775070 -5.064334 71.307495
68 0 1 3.329260 -5.893434 71.346710
69 0 1 3.468170 -6.642394 72.063416
70 0 1 2.818439 -7.079484 71.458008
71 0 1 2.606739 -8.024095 71.207001
72 0 1 2.252550 -8.678613 71.832001
73 0 1 2.642799 -9.506034 71.745300
74 0 1 3.005859 -10.377423 71.593018
75 0 1 3.263571 -11.000173 70.880493
76 0 1 2.842171 -10.244023 70.459290
77 0 1 2.062160 -10.733743 70.102905
78 0 1 1.220760 -11.025113 69.761414
79 0 1 1.266010 -11.788713 70.325104
80 0 1 0.808340 -11.821874 69.460693
81 0 1 1.500450 -12.502263 69.256104
82 0 1 1.316170 -13.174863 68.583984
83 0 1 1.068409 -13.388564 69.451202
84 0 1 1.351250 -13.657563 70.311707
85 0 1 1.078279 -13.990964 71.174683
86 0 1 1.100349 -14.992063 71.252991
87 0 1 1.645880 -14.517364 71.913513
88 0 1 2.421230 -15.113065 71.943787
89 0 1 2.647560 -15.659064 72.669800
90 0 1 3.329929 -15.421763 72.010986
91 0 1 3.672003 -16.150364 71.429504
92 0 1 4.454510 -16.686964 71.219391
93 0 1 4.042366 -16.365263 70.451508
94 0 1 3.855585 -15.568364 69.981812
95 0 1 4.556221 -15.502065 70.665192
96 0 1 5.488157 -15.366963 70.577515
97 0 1 5.267122 -15.303864 69.652893
98 0 1 4.768194 -15.793565 69.041992
99 0 1 5.454241 -15.759763 68.376709
100 0 1 5.070332 -16.599363 68.111816
101 0 1 5.537460 -17.051163 67.465698
102 0 1 6.171909 -16.868364 66.779602
103 0 1 6.561779 -17.001463 65.917206
104 0 1 7.481880 -16.805964 65.785095
105 0 1 7.396229 -15.873563 65.903595
106 0 1 6.759869 -15.364663 65.446198
107 0 1 6.196331 -14.996163 66.115601
108 0 1 5.638924 -15.220864 66.933807
109 0 1 5.027172 -14.670264 66.421295
110 0 1 4.555029 -14.727963 65.638184
111 0 1 4.014854 -14.832664 64.842010
112 0 1 4.786539 -14.932664 64.327515
113 0 1 4.965122 -15.851865 64.532806
114 0 1 4.314175 -16.430763 63.989288
115 0 1 3.568150 -17.160963 63.886810
116 0 1 2.553249 -16.935463 63.795502
117 0 1 2.049110 -17.033663 64.677094
118 0 1 1.844601 -16.076263 64.640991
119 0 1 0.955370 -15.810765 64.533600
120 0 1 1.444269 -15.601064 63.739899
121 0 1 2.001900 -14.971963 63.247589
122 0 1 1.661209 -15.600663 62.659698
123 0 1 1.844959 -15.187165 61.781097
124 0 1 2.025021 -15.072564 60.817017
125 0 1 1.690180 -15.363664 59.969391
126 0 1 1.227459 -14.970864 59.169098
127 0 1 2.046181 -14.841565 58.676605
128 0 1 1.969721 -14.066163 59.297699
129 0 1 1.565519 -13.407464 58.783600
130 0 1 1.009729 -13.530364 59.527893
131 0 1 0.383150 -13.111463 60.108002
132 0 1 0.067009 -13.902364 60.485291
133 0 1 -0.173710 -13.235765 61.083893
134 0 1 0.490330 -12.695064 61.587097
135 0 1 -0.129341 -13.135865 62.243896
136 0 1 0.195591 -12.901664 63.096100
137 0 1 -0.480520 -13.683965 62.971313
138 0 1 -1.267891 -13.202565 62.913910
139 0 1 -1.734591 -12.659463 63.557892
140 0 1 -2.613729 -12.391164 63.818115
141 0 1 -2.474190 -11.915753 64.659912
142 0 1 -2.949600 -11.398774 64.099487
143 0 1 -2.136280 -11.421933 63.578308
144 0 1 -2.719580 -10.947654 63.029602
145 0 1 -1.908319 -10.871705 62.458008
146 0 1 -2.507610 -10.160783 62.162506
147 0 1 -1.687941 -9.681203 62.173096
148 0 1 -0.751560 -9.708493 62.120087
149 0 1 -0.857220 -9.214574 62.884399
150 0 1 -1.791771 -8.941373 63.184814
151 0 1 -2.506420 -8.565774 63.696106
152 0 1 -3.359200 -8.377763 63.950195
153 0 1 -3.419680 -8.644263 63.084808
154 0 1 -3.587841 -9.563853 63.305206
155 0 1 -4.474579 -9.824895 63.410400
156 0 1 -5.357479 -10.145123 63.665192
157 0 1 -5.363579 -9.229163 63.365906
158 0 1 -5.334520 -9.293725 64.321991
159 0 1 -5.382780 -8.442964 64.717285
160 0 1 -6.342079 -8.368964 64.609406
161 0 1 -6.686880 -7.779754 63.926697
162 0 1 -6.424179 -6.862273 63.601685
163 0 1 -7.273281 -6.776633 64.110504
164 0 1 -7.347380 -6.032914 64.654297
165 0 1 -7.382380 -5.211484 64.184998
166 0 1 -6.962580 -5.605824 63.365906
167 0 1 -6.306080 -4.921994 63.478699
168 0 1 -5.726080 -5.732783 63.281311
169 0 1 -5.512981 -5.365085 62.378296
170 0 1 -6.304279 -5.241103 61.795288
171 0 1 -5.906181 -5.482715 60.972107
172 0 1 -5.415880 -4.662604 60.743896
173 0 1 -5.991880 -3.950013 60.836212
174 0 1 -6.141079 -4.158744 61.775208
175 0 1 -6.055780 -3.301864 62.131989
176 0 1 -6.375580 -2.915254 63.003510
177 0 1 -6.987680 -2.996184 63.837402
178 0 1 -6.689680 -2.717561 64.707611
179 0 1 -6.216579 -2.225461 64.034393
180 0 1 -6.602980 -1.592004 63.384491
181 0 1 -7.041580 -1.897622 62.492615
182 0 1 -7.913780 -1.772214 62.122711
183 0 1 -7.377281 -2.388846 61.573395
184 0 1 -7.628979 -3.267875 61.844696
185 0 1 -8.498480 -2.958413 62.088104
186 0 1 -9.167280 -2.291591 62.273010
187 0 1 -8.894480 -2.127599 61.330292
188 0 1 -8.936680 -2.245521 60.400085
189 0 1 -9.616581 -2.922872 60.121704
190 0 1 -9.996680 -3.321704 59.316711
191 0 1 -9.362980 -3.869433 58.702087
192 0 1 -9.052879 -3.269944 58.010498
193 0 1 -9.943480 -2.809688 57.848511
194 0 1 -9.567379 -2.322625 57.100586
195 0 1 -9.444780 -1.981406 56.211304
196 0 1 -9.854980 -1.724267 55.344299
197 0 1 -9.416180 -0.794574 55.226807
198 0 1 -9.719980 -0.178315 55.881500
199 0 1 -9.898380 -1.088370 56.153687
200 0 1 -9.385780 -1.247733 56.971985
201 0 1 -9.166380 -0.362443 56.831909
202 0 1 -9.372181 0.537726 57.175995
203 0 1 -9.959280 1.207587 57.644287
204 0 1 -10.097180 1.721755 58.455505
205 0 1 -9.205280 1.910907 58.145996
206 0 1 -8.229179 1.900084 57.971405
207 0 1 -7.353779 1.698085 57.776703
208 0 1 -6.375780 1.789508 58.105286
209 0 1 -6.061380 1.111228 58.688904
210 0 1 -6.826180 0.707377 58.264191
211 0 1 -6.120480 0.485827 57.596191
212 0 1 -6.114380 0.335547 56.643799
213 0 1 -5.722980 1.179896 56.629517
214 0 1 -5.198830 0.519248 56.216400
215 0 1 -5.146770 -0.337155 55.864410
216 0 1 -4.924410 -0.878283 55.127594
217 0 1 -5.491180 -1.193854 54.405090
218 0 1 -6.402880 -1.004947 54.623291
219 0 1 -6.744579 -0.567904 53.852905
220 0 1 -6.292080 0.079066 54.411102
221 0 1 -5.854380 0.235026 55.294403
222 0 1 -5.456280 1.044635 54.900299
223 0 1 -4.888599 1.879577 54.826599
224 0 1 -4.100529 2.636298 54.733002
225 0 1 -3.246220 2.743365 55.006714
226 0 1 -2.223080 2.826526 54.974091
227 0 1 -1.588200 2.626708 55.715302
228 0 1 -2.320339 2.983607 56.234589
229 0 1 -2.939610 2.578547 56.830109
230 0 1 -3.714901 2.433406 56.254608
231 0 1 -4.001419 1.527297 56.595703
232 0 1 -2.994699 1.481956 56.577698
233 0 1 -3.079710 0.763625 55.950989
234 0 1 -2.614151 0.092628 55.499512
235 0 1 -2.649811 -0.894584 55.392609
236 0 1 -3.105330 -1.293313 54.607788
237 0 1 -2.738781 -2.116380 54.230713
238 0 1 -1.793499 -1.834207 54.471191
239 0 1 -1.775431 -1.740302 55.436310
240 0 1 -1.825590 -2.030181 56.309296
241 0 1 -1.806999 -2.185519 57.262604
242 0 1 -1.137529 -2.714353 56.750702
243 0 1 -0.515060 -3.363423 56.407501
244 0 1 0.387680 -3.605714 56.009796
245 0 1 0.682631 -3.702683 55.086487
246 0 1 -0.011799 -3.886474 54.489288
247 0 1 0.486050 -4.601163 54.171600
248 0 1 -0.168579 -4.665954 53.425598
249 0 1 -0.210220 -4.397494 52.466003
250 0 1 -0.978119 -4.825753 51.947510
251 0 1 -1.851429 -5.223664 51.790497
252 0 1 -2.185860 -5.830903 51.112793
253 0 1 -1.625931 -6.563603 50.921112
254 0 1 -1.726509 -7.444484 51.223602
255 0 1 -1.487040 -8.088824 51.971710
256 0 1 -0.769560 -8.049325 51.344513
257 0 1 -0.367081 -7.206235 50.958099
258 0 1 -0.630840 -6.697474 50.119202
259 0 1 -1.106140 -7.024364 49.326996
260 0 1 -1.652760 -6.985154 48.531494
261 0 1 -1.964119 -6.104783 48.285400
262 0 1 -1.344749 -5.686944 47.619904
263 0 1 -1.117210 -4.861745 47.182404
264 0 1 -0.956739 -4.073964 47.692291
265 0 1 -0.068661 -3.664014 47.891205
266 0 1 -0.077311 -4.140304 48.759003
267 0 1 -0.062840 -4.220674 49.722412
268 0 1 -0.449881 -3.331454 49.923309
269 0 1 -0.975679 -3.720254 50.595306
270 0 1 -0.699650 -3.957873 51.482910
271 0 1 -1.337639 -3.169364 51.578003
272 0 1 -1.688560 -2.645476 50.847198
273 0 1 -1.980579 -2.781152 49.919495
274 0 1 -2.688890 -3.236684 49.477692
275 0 1 -3.156700 -4.008794 49.558502
276 0 1 -2.827301 -4.121903 48.677704
277 0 1 -3.782570 -4.280475 48.514313
278 0 1 -3.171150 -4.893504 48.172607
279 0 1 -2.844110 -4.465114 47.410004
280 0 1 -2.308340 -5.099883 46.703796
281 0 1 -3.303391 -5.298385 46.522095
282 0 1 -3.795580 -5.738763 45.861206
283 0 1 -3.199240 -5.593774 45.077911
284 0 1 -3.680271 -4.785995 45.309601
285 0 1 -4.067860 -4.629643 44.449890
286 0 1 -3.754269 -3.727504 44.217804
287 0 1 -4.427299 -3.071713 44.589905
288 0 1 -4.227110 -3.806905 45.285309
289 0 1 -5.106760 -4.135694 45.347687
290 0 1 -4.774601 -4.503255 46.145386
291 0 1 -4.791111 -3.782773 46.693298
292 0 1 -4.079891 -3.320643 46.277405
293 0 1 -4.573500 -2.560275 45.919189
294 0 1 -3.699240 -2.007586 45.929199
295 0 1 -3.879660 -1.078904 45.643890
296 0 1 -4.878380 -1.064692 45.770996
297 0 1 -4.559620 -0.179254 45.486908
298 0 1 -5.464380 0.062556 45.395813
299 0 1 -6.288979 0.467887 45.625702
300 0 1 -6.394880 1.390796 45.837585
301 0 1 -6.877680 2.042846 45.370789
302 0 1 -7.131081 2.564425 46.094696
303 0 1 -6.820679 2.737266 47.022491
304 0 1 -6.601379 3.546725 47.505310
305 0 1 -5.641680 3.699786 47.563110
306 0 1 -5.679081 3.712295 46.606293
307 0 1 -5.267780 4.261367 45.989105
308 0 1 -4.436581 4.549186 45.555786
309 0 1 -4.497551 5.204978 46.325989
310 0 1 -3.556290 5.127997 46.308411
311 0 1 -3.659649 5.830115 45.653412
312 0 1 -3.225620 6.426345 46.277893
313 0 1 -3.237881 7.380576 46.246704
314 0 1 -3.187111 8.392035 46.297791
315 0 1 -2.633209 8.979236 45.626404
316 0 1 -1.738840 8.795638 45.422394
317 0 1 -1.150480 8.873935 46.168701
318 0 1 -0.792759 9.702235 45.840515
319 0 1 -0.808180 10.559638 45.412506
320 0 1 -0.172901 11.243834 45.152893
321 0 1 0.734619 10.958236 45.415802
322 0 1 1.430450 11.578937 45.508698
323 0 1 1.661390 12.058036 46.324097
324 0 1 1.811689 11.513736 47.156799
325 0 1 2.459230 11.023135 47.592194
326 0 1 3.221640 11.553336 47.463898
327 0 1 3.780113 11.017436 46.974091
328 0 1 4.700191 11.219935 46.809113
329 0 1 4.636642 10.648936 47.596100
330 0 1 5.563101 10.594337 47.851807
331 0 1 6.090910 10.402736 48.564301
332 0 1 6.868641 9.968135 48.789917
333 0 1 6.718102 9.031936 48.596802
334 0 1 6.976990 9.309936 47.678009
335 0 1 7.942402 9.395934 47.610992
336 0 1 8.789581 8.954135 47.614990
337 0 1 8.692951 8.016028 47.531799
338 0 1 7.966251 8.149337 46.924011
339 0 1 8.525169 7.328826 46.726501
340 0 1 8.621552 7.208488 45.759216
341 0 1 9.023540 6.784556 44.996704
342 0 1 9.103069 6.118426 45.656616
343 0 1 9.563251 6.229308 46.551392
344 0 1 9.373131 6.758368 47.354492
345 0 1 9.744171 7.605845 47.740295
346 0 1 9.554638 7.472285 48.662598
347 0 1 9.881699 6.643157 49.107697
348 0 1 10.807491 6.532966 48.800415
349 0 1 11.635880 6.114898 48.918488
350 0 1 11.815479 5.280746 48.565094
351 0 1 12.685139 4.998427 48.388184
352 0 1 13.298588 4.932677 49.107697
353 0 1 13.606201 4.024356 49.190308
354 0 1 12.890491 3.638564 49.707397
355 0 1 12.627190 3.996387 50.588806
356 0 1 13.252529 3.297748 50.903595
357 0 1 12.993862 2.549094 51.392395
358 0 1 12.454971 2.679465 52.151794
359 0 1 11.702721 2.382155 51.634094
360 0 1 10.811249 2.441955 51.284302
361 0 1 9.969501 2.030746 50.989410
362 0 1 9.583858 1.981776 51.864105
363 0 1 8.842228 1.809157 52.409393
364 0 1 8.343552 1.249415 51.821289
365 0 1 9.001801 0.643836 52.129913
366 0 1 9.510448 0.582645 51.351105
367 0 1 9.126030 -0.268914 51.216003
368 0 1 9.488400 -0.248715 50.228088
369 0 1 8.876572 -0.232144 49.470215
370 0 1 8.375389 -0.681693 50.177399
371 0 1 7.398331 -0.588784 50.161591
372 0 1 6.632030 -0.005933 49.764587
373 0 1 6.785568 0.873965 49.489807
374 0 1 7.315960 1.287948 48.868103
375 0 1 7.578171 1.240935 47.984589
376 0 1 7.399281 1.160094 47.009216
377 0 1 6.891159 1.196826 46.127502
378 0 1 6.526829 0.526126 45.553711
379 0 1 6.614460 -0.324624 45.208008
380 0 1 5.859570 -0.184834 44.553009
381 0 1 5.139313 0.421218 44.311890
382 0 1 5.929340 0.900146 44.006409
383 0 1 5.916250 1.211417 43.089294
384 0 1 6.392410 2.040545 43.386810
385 0 1 7.340889 2.282786 43.628113
386 0 1 6.905628 3.154944 43.493408
387 0 1 7.572102 2.883864 42.793396
388 0 1 8.147709 3.035544 42.057495
389 0 1 8.078140 2.114635 42.205688
390 0 1 8.360771 1.265906 41.833984
391 0 1 8.001469 1.004638 42.681000
392 0 1 7.548119 0.271026 42.255096
393 0 1 7.888279 0.434135 41.334595
394 0 1 8.674599 0.559306 40.753296
395 0 1 8.176899 -0.339704 40.530396
396 0 1 7.867809 -1.362220 40.608612
397 0 1 8.170052 -2.125779 40.140503
398 0 1 8.778179 -2.854362 40.326294
399 0 1 8.706318 -3.796884 40.307312
400 0 1 9.625599 -3.810664 40.636292
401 0 1 10.319160 -4.054053 41.269196
402 0 1 9.426472 -4.115754 41.801697
403 0 1 9.610668 -3.852374 42.730499
404 0 1 10.241249 -4.537515 43.065002
405 0 1 10.698250 -4.982644 43.725311
406 0 1 11.034321 -4.428445 44.457214
407 0 1 10.295368 -3.854123 44.369598
408 0 1 9.580158 -3.362544 44.773102
409 0 1 8.829979 -3.573844 44.274109
410 0 1 8.090408 -4.213084 44.545288
411 0 1 8.720680 -4.239503 45.302399
412 0 1 9.568130 -4.742244 45.513000
413 0 1 9.953472 -5.041965 46.388702
414 0 1 10.329891 -4.341165 46.903290
415 0 1 10.422878 -3.490165 46.493408
416 0 1 9.982922 -2.894151 47.126709
417 0 1 9.590328 -2.157647 47.563812
418 0 1 9.424282 -1.811479 48.511505
419 0 1 10.210869 -2.355699 48.578003
420 0 1 10.509781 -3.252404 48.840698
421 0 1 10.749870 -3.942554 48.144196
422 0 1 11.445190 -4.033753 48.820984
423 0 1 11.422710 -4.894094 48.301208
424 0 1 10.848129 -5.290223 48.926788
425 0 1 10.939610 -5.212153 49.825989
426 0 1 11.413460 -5.975713 50.181396
427 0 1 12.256771 -6.153985 49.757294
428 0 1 12.199242 -5.167914 49.809906
429 0 1 12.374489 -4.254714 50.140289
430 0 1 13.085529 -4.708224 50.713409
431 0 1 13.754948 -4.487535 51.340088
432 0 1 14.294239 -4.737853 50.516998
433 0 1 14.999218 -4.192124 50.797791
434 0 1 15.900719 -3.786695 50.623810
435 0 1 16.306721 -4.507773 50.138702
436 0 1 15.957321 -5.071525 50.848602
437 0 1 15.954521 -6.024503 50.963989
438 0 1 15.535122 -6.892755 51.099487
439 0 1 16.409420 -7.083064 50.791504
440 0 1 16.957218 -6.380845 50.311096
441 0 1 17.135822 -7.205594 49.666107
442 0 1 17.362419 -6.535254 48.996094
443 0 1 18.186420 -6.129554 48.807098
444 0 1 17.926319 -5.558993 48.053711
445 0 1 18.457619 -5.131574 48.755402
446 0 1 18.249119 -4.372464 49.386597
447 0 1 18.386318 -5.114675 49.979889
448 0 1 19.197521 -4.868573 49.541016
449 0 1 19.580418 -5.368653 48.802307
450 0 1 20.386520 -5.636624 48.364990
451 0 1 20.265320 -6.150403 47.483490
452 0 1 20.112118 -7.059073 47.740387
453 0 1 20.542622 -7.869485 47.455994
454 0 1 20.074520 -8.641454 47.853516
455 0 1 19.289520 -9.196034 47.666412
456 0 1 19.347519 -9.795465 48.462189
457 0 1 18.563221 -10.343894 48.644501
458 0 1 19.078518 -10.851495 49.275909
459 0 1 19.654121 -11.597505 49.583710
460 0 1 19.906719 -11.130185 50.432587
461 0 1 20.523720 -11.204654 51.268707
462 0 1 21.458622 -11.561334 51.369507
463 0 1 21.456219 -11.406604 50.395996
464 0 1 22.308720 -11.719865 50.025299
465 0 1 22.110020 -12.403363 50.691803
466 0 1 21.847622 -13.270265 50.434692
467 0 1 21.598419 -13.963164 51.058716
468 0 1 20.795918 -13.457864 51.023193
469 0 1 20.788719 -12.776265 50.406494
470 0 1 20.363121 -13.147664 49.588684
471 0 1 19.698818 -13.107364 48.940704
472 0 1 19.936821 -12.282865 48.463806
473 0 1 19.521820 -11.840724 47.703705
474 0 1 18.522121 -11.930804 47.957794
475 0 1 17.716419 -11.601544 47.556305
476 0 1 17.351219 -10.746324 47.622009
477 0 1 17.724121 -9.866874 47.464508
478 0 1 18.420021 -10.419694 47.085510
479 0 1 19.104321 -10.415753 46.408386
480 0 1 19.970722 -10.825425 46.552704
481 0 1 20.736118 -10.798144 47.236603
482 0 1 21.214321 -9.937074 47.273010
483 0 1 21.878323 -9.273395 46.990387
484 0 1 22.429020 -10.083064 46.805298
485 0 1 23.321423 -9.799644 46.676086
486 0 1 23.700222 -10.164474 45.867615
487 0 1 23.174122 -9.526504 45.441010
488 0 1 22.688419 -9.201083 44.682800
489 0 1 22.482822 -8.274493 44.980896
490 0 1 22.669422 -7.331365 44.904510
491 0 1 23.279819 -6.792024 44.347809
492 0 1 23.140621 -6.199323 43.634491
493 0 1 23.633720 -5.687585 42.929016
494 0 1 22.824223 -5.511384 42.542603
495 0 1 22.598522 -6.258334 41.887695
496 0 1 22.850422 -6.285615 40.991699
497 0 1 22.020020 -6.102174 40.607300
498 0 1 21.159019 -5.998013 40.171112
499 0 1 21.383820 -6.499104 39.339996
500 0 1 21.543320 -7.428834 39.111908
501 0 1 20.781719 -7.423484 39.751190
502 0 1 19.988819 -7.988214 39.835205
503 0 1 19.963421 -7.564654 38.974701
504 0 1 19.383919 -7.461595 38.198608
505 0 1 18.531921 -7.787103 37.939087
506 0 1 18.606220 -8.413264 37.214294
507 0 1 18.413021 -7.652274 36.667603
508 0 1 18.783020 -8.208745 36.019592
509 0 1 17.861820 -8.249124 35.817596
510 0 1 17.998119 -9.211774 36.123901
511 0 1 17.335918 -9.906404 35.992401
512 0 1 16.472721 -10.379575 36.146088
513 0 1 16.032921 -9.951913 36.897583
514 0 1 15.712620 -9.740924 36.015686
515 0 1 15.227119 -10.202783 35.242798
516 0 1 15.996521 -9.664744 34.875793
517 0 1 15.963421 -8.921735 34.223907
518 0 1 16.110119 -8.097754 33.742798
519 0 1 15.365421 -7.894525 33.153595
520 0 1 15.270519 -8.328763 32.283386
521 0 1 16.205021 -8.515883 32.593994
522 0 1 15.553020 -9.013934 33.060791
523 0 1 14.585800 -8.863393 33.016388
524 0 1 13.695721 -9.225474 33.440399
525 0 1 13.493122 -9.914113 32.800812
526 0 1 12.977772 -9.297124 32.231293
527 0 1 13.359509 -8.557384 32.596710
528 0 1 13.271679 -8.223905 33.508698
529 0 1 14.163998 -7.837884 33.496002
530 0 1 14.403370 -7.454793 34.282501
531 0 1 14.821918 -6.624213 34.482391
532 0 1 14.252590 -5.899453 34.176788
533 0 1 13.737770 -5.029893 34.169189
534 0 1 12.849129 -5.346644 34.379700
535 0 1 13.395401 -5.994893 34.775513
536 0 1 13.119030 -6.931863 34.359985
537 0 1 12.706028 -7.751954 34.691406
538 0 1 12.131710 -7.000314 34.532501
539 0 1 11.276211 -6.895715 34.125092
540 0 1 10.577850 -7.467294 33.863403
541 0 1 10.494400 -6.818833 33.069305
542 0 1 10.109180 -5.959174 32.781189
543 0 1 9.952450 -5.698064 33.668793
544 0 1 9.165089 -5.751285 34.172485
545 0 1 8.552231 -5.686154 33.441406
546 0 1 7.598911 -5.937104 33.513306
547 0 1 6.870190 -6.390513 33.892609
548 0 1 6.523312 -5.974734 34.695007
549 0 1 5.515633 -6.194444 34.578613
550 0 1 5.093330 -6.590644 35.334503
551 0 1 5.067675 -7.458585 34.881195
552 0 1 4.743778 -7.667563 35.765289
553 0 1 4.934847 -8.622094 35.801697
554 0 1 4.460394 -9.458694 35.895996
555 0 1 4.828632 -10.099784 35.228912
556 0 1 4.739843 -10.704234 36.002502
557 0 1 4.363989 -11.564824 36.191406
558 0 1 5.227655 -11.426414 36.499084
559 0 1 5.373449 -11.881974 35.715607
560 0 1 5.044653 -12.651765 35.177399
561 0 1 5.322693 -12.445264 34.231201
562 0 1 4.926292 -11.908904 33.532990
563 0 1 4.047134 -11.760724 33.187317
564 0 1 3.932531 -10.944694 33.763184
565 0 1 4.707386 -10.402774 33.391205
566 0 1 4.519398 -9.457143 33.221313
567 0 1 4.027603 -9.008124 33.938110
568 0 1 3.432421 -9.250745 34.616608
569 0 1 3.049160 -8.378123 34.893890
570 0 1 2.274530 -8.531444 35.495392
571 0 1 1.655479 -8.289254 36.176910
572 0 1 1.027201 -8.271224 36.976013
573 0 1 0.658600 -7.502013 36.456299
574 0 1 0.513939 -6.630124 36.181610
575 0 1 1.292000 -5.989324 35.998993
576 0 1 1.914890 -6.449683 35.442200
577 0 1 2.362410 -6.525594 34.560089
578 0 1 2.284189 -5.723914 33.998199
579 0 1 1.483749 -6.172013 34.138306
580 0 1 1.040171 -5.689374 33.429291
581 0 1 0.786541 -5.462634 32.561798
582 0 1 0.284330 -6.259234 32.247894
583 0 1 0.940830 -6.940475 31.869293
584 0 1 1.136120 -6.042174 31.534485
585 0 1 1.999670 -6.564364 31.667297
586 0 1 2.769079 -6.137284 31.253387
587 0 1 3.013781 -6.195085 32.179901
588 0 1 3.734690 -5.733754 32.743500
589 0 1 3.488310 -4.882983 33.008087
590 0 1 3.742290 -4.801324 32.015289
591 0 1 3.576920 -4.065234 31.421906
592 0 1 4.377371 -3.436133 31.218201
593 0 1 4.929556 -4.259854 31.244904
594 0 1 4.492306 -4.170983 30.395111
595 0 1 4.099724 -5.068395 30.492889
596 0 1 3.378330 -5.153403 29.898712
597 0 1 2.935690 -5.011285 29.071198
598 0 1 3.761024 -4.576743 29.061493
599 0 1 3.931055 -3.658814 28.838806
600 0 1 4.092339 -2.762633 28.373901
601 0 1 3.684950 -3.288964 27.601013
602 0 1 4.535954 -3.641213 27.214508
603 0 1 4.517859 -4.369224 26.545502
604 0 1 4.563646 -4.653584 27.462402
605 0 1 3.624640 -4.860824 27.478699
606 0 1 2.985090 -4.204354 27.310303
607 0 1 2.445160 -4.498364 26.537994
608 0 1 2.384449 -5.264104 27.146088
609 0 1 2.580490 -5.500514 26.253204
610 0 1 1.563231 -5.467103 26.249908
611 0 1 1.045330 -4.973985 25.554993
612 0 1 0.634819 -4.759894 26.368103
613 0 1 1.300920 -4.876325 27.074493
614 0 1 1.722271 -4.345643 27.760193
615 0 1 1.239910 -4.111623 28.634094
616 0 1 0.461399 -4.380004 28.181702
617 0 1 0.347139 -3.705914 27.521088
618 0 1 0.380840 -3.118033 26.760101
619 0 1 -0.212370 -3.792705 26.445007
620 0 1 -0.974051 -3.226825 26.599304
621 0 1 -1.791630 -3.611863 26.837799
622 0 1 -1.222099 -4.376945 26.891693
623 0 1 -1.994801 -4.464534 27.479004
624 0 1 -2.175920 -3.706674 28.100098
625 0 1 -1.700439 -3.268704 28.804199
626 0 1 -1.110760 -3.189353 29.582306
627 0 1 -0.841499 -4.084714 29.674500
628 0 1 0.066471 -3.744933 30.011902
629 0 1 0.719400 -2.990634 29.655884
630 0 1 1.053020 -2.289941 29.125488
631 0 1 0.482731 -1.524125 28.878510
632 0 1 0.752939 -1.044663 29.686890
633 0 1 1.068180 -0.195004 29.404205
634 0 1 2.011810 -0.424394 29.149506
635 0 1 2.802490 -0.341386 29.738098
636 0 1 3.424820 -0.054604 29.071106
637 0 1 4.357580 0.161197 29.375214
638 0 1 4.171455 0.702796 30.145996
639 0 1 4.153698 1.617366 30.316803
640 0 1 3.637131 2.467856 30.564392
641 0 1 3.040569 2.930297 29.925812
642 0 1 2.133209 3.202495 29.707001
643 0 1 1.785080 2.727614 28.992310
644 0 1 1.628479 3.638274 28.742493
645 0 1 1.620050 4.591086 28.877899
646 0 1 2.463840 4.303035 28.533295
647 0 1 1.890261 4.443515 27.740692
648 0 1 2.087700 3.798076 26.999603
649 0 1 2.260521 2.877826 26.902710
650 0 1 1.389811 2.706977 26.533386
651 0 1 0.759680 2.127517 26.947388
652 0 1 0.157131 2.221416 26.178101
653 0 1 0.133461 2.335856 25.216309
654 0 1 -0.541439 2.626616 24.648102
655 0 1 -0.882360 1.947165 24.039307
656 0 1 -0.232559 1.811137 23.337708
657 0 1 0.495819 1.550895 23.913910
658 0 1 1.330750 1.548305 23.428497
659 0 1 1.384939 1.509635 22.485992
660 0 1 1.921841 2.160995 21.835800
661 0 1 1.828260 2.676585 21.002899
662 0 1 2.759590 2.645156 21.240005
663 0 1 2.943090 1.702575 21.401093
664 0 1 3.761518 2.146106 21.108795
665 0 1 4.709133 2.208076 20.987900
666 0 1 4.928392 3.141177 21.094696
667 0 1 4.365967 3.873916 21.405594
668 0 1 3.792294 4.631495 21.390594
669 0 1 3.168779 5.380298 21.182800
670 0 1 3.404989 5.691146 20.298203
671 0 1 3.057390 5.293117 19.435104
672 0 1 2.714149 4.523105 19.051498
673 0 1 2.081131 4.417197 18.327194
674 0 1 2.737539 4.721057 17.620605
675 0 1 1.977381 5.110637 17.243301
676 0 1 1.965219 4.472545 16.526505
677 0 1 1.897860 5.132667 15.825196
678 0 1 2.390049 4.441688 15.296006
679 0 1 2.799990 3.564876 15.459199
680 0 1 2.392971 2.890574 15.945100
681 0 1 2.442030 2.114867 16.553696
682 0 1 2.884130 2.724376 17.158401
683 0 1 2.194389 3.188296 17.508102
684 0 1 2.928600 3.336047 18.113602
685 0 1 2.536791 2.425735 18.267899
686 0 1 1.635080 2.266196 17.981201
687 0 1 1.076349 2.844546 17.394196
688 0 1 0.620020 2.128085 16.910004
689 0 1 -0.011271 2.709838 16.511795
690 0 1 -0.419731 3.439967 17.037506
691 0 1 -0.886841 3.806575 17.856598
692 0 1 -0.615280 4.256316 18.637207
693 0 1 -1.066771 3.519614 19.114304
694 0 1 -1.372231 2.756328 18.516403
695 0 1 -2.037270 2.345416 17.966599
696 0 1 -2.913021 1.849895 17.959991
697 0 1 -3.171761 2.750278 17.971802
698 0 1 -4.123699 3.003165 17.919006
699 0 1 -3.979380 3.964187 17.755203
700 0 1 -3.763060 3.407187 17.006699
701 0 1 -4.219261 3.327865 16.176605
702 0 1 -4.689869 3.778136 15.475205
703 0 1 -4.977829 4.671847 15.116899
704 0 1 -5.679480 4.000377 15.220994
705 0 1 -6.548880 3.865714 14.869798
706 0 1 -7.066780 4.131717 14.039094
707 0 1 -6.566580 3.309585 13.845506
708 0 1 -6.796879 3.183085 12.885697
709 0 1 -6.006779 2.714225 12.512605
710 0 1 -5.745680 3.581546 11.988008
711 0 1 -6.563280 3.974776 11.762300
712 0 1 -6.691181 5.008567 11.833497
713 0 1 -6.859081 5.697467 11.110993
714 0 1 -6.628180 5.808417 10.201997
715 0 1 -7.316681 5.951648 9.571214
716 0 1 -7.119381 5.488566 8.754136
717 0 1 -6.757280 4.964446 7.997834
718 0 1 -6.512081 5.864596 7.820054
719 0 1 -7.326780 6.362456 7.567063
720 0 1 -7.985081 7.069865 7.511155
721 0 1 -7.984180 6.887187 8.469117
722 0 1 -8.933380 6.947097 8.488282
723 0 1 -8.737780 7.862636 8.898026
724 0 1 -8.103680 8.515235 8.821565
725 0 1 -7.868580 9.282435 9.512406
726 0 1 -7.426281 9.946437 10.026200
727 0 1 -7.223980 10.460235 10.795197
728 0 1 -6.715679 10.809436 11.509904
729 0 1 -6.819780 9.843635 11.465608
730 0 1 -7.025879 8.994834 11.915208
731 0 1 -7.983280 9.228034 12.004899
732 0 1 -8.659279 8.644237 11.569398
733 0 1 -9.294979 8.035815 11.903794
734 0 1 -8.851681 7.625838 12.598100
735 0 1 -9.127180 6.743415 12.889497
736 0 1 -10.024480 6.399596 13.024400
737 0 1 -9.441580 6.027556 13.773103
738 0 1 -9.602480 6.957385 14.074006
739 0 1 -9.974980 6.500426 14.848100
740 0 1 -9.988080 7.412795 15.044496
741 0 1 -9.875380 6.841777 15.831697
742 0 1 -9.513081 6.952155 16.695694
743 0 1 -10.367380 7.278838 17.046204
744 0 1 -11.119080 7.674666 17.401505
745 0 1 -11.305280 7.147437 18.152802
746 0 1 -10.750980 6.287486 17.994003
747 0 1 -11.458080 5.966056 18.580002
748 0 1 -11.716980 5.194808 18.039398
749 0 1 -11.466980 5.310386 17.078903
750 0 1 -11.633381 4.332755 17.010406
751 0 1 -11.013880 3.678046 16.561493
752 0 1 -10.592280 3.046386 15.921601
753 0 1 -9.868880 3.625197 15.653001
754 0 1 -9.084280 3.453338 15.160401
755 0 1 -8.624580 3.159438 14.405702
756 0 1 -7.906380 3.012397 13.732697
757 0 1 -8.083279 1.975776 13.969499
758 0 1 -8.275280 1.452308 14.701295
759 0 1 -7.815979 0.777057 14.214601
760 0 1 -8.516781 0.983268 13.623109
761 0 1 -8.965981 1.707255 13.050797
762 0 1 -9.222881 2.561767 13.258393
763 0 1 -9.332380 2.172904 14.160203
764 0 1 -9.794479 2.666827 14.882508
765 0 1 -9.826580 3.370498 14.214997
766 0 1 -10.666280 3.626945 14.606202
767 0 1 -11.478680 3.200786 14.347596
768 0 1 -11.194980 2.889407 13.426805
769 0 1 -12.125580 2.725295 13.522294
770 0 1 -12.657980 2.953658 12.774201
771 0 1 -13.433479 2.673778 13.237199
772 0 1 -13.978680 3.506457 13.215302
773 0 1 -14.303780 3.385577 12.319901
774 0 1 -14.758080 4.244716 12.307603
775 0 1 -14.491480 4.909675 11.619706
776 0 1 -14.549480 5.833766 11.718598
777 0 1 -14.465679 6.518207 10.963899
778 0 1 -15.392679 6.359076 11.018098
779 0 1 -16.257179 6.276225 11.589799
780 0 1 -16.439180 6.553405 10.668107
781 0 1 -16.546480 6.308257 9.727647
782 0 1 -16.333080 6.522197 8.832002
783 0 1 -16.512581 7.462047 8.960069
784 0 1 -17.405979 7.717155 8.571000
785 0 1 -17.577280 7.272574 7.736970
786 0 1 -18.254379 6.730525 8.189118
787 0 1 -18.302679 6.569247 7.173188
788 0 1 -18.815580 6.276656 6.381577
789 0 1 -19.658480 6.763057 6.158479
790 0 1 -19.988279 6.954375 6.995576
791 0 1 -19.374580 7.662818 6.933442
792 0 1 -18.579281 8.029906 7.289521
793 0 1 -17.790779 7.821467 6.779359
794 0 1 -18.357380 7.790767 6.005128
795 0 1 -18.285080 6.854407 5.623872