LAMMPS data file via MDAnalysis

        2000  atoms
        1999  bonds
           0  angles
           0  dihedrals
           0  impropers

           1  atom types
           1  bond types
           0  angle types
           0  dihedral types
           0  improper types

-30.5 30.5 xlo xhi
-30.5 30.5 ylo yhi
-233.5 233.5 zlo zhi


Masses

1 1.000000

Atoms

1 0 1 -5.184814 24.315962 -9.344543
2 0 1 -5.015995 23.360762 -9.155487
3 0 1 -4.835744 23.341963 -10.150406
4 0 1 -4.348373 22.544260 -10.179794
5 0 1 -3.723993 22.239664 -10.740692
6 0 1 -3.053974 22.784464 -11.207504
7 0 1 -3.009640 21.948061 -11.785095
8 0 1 -2.687603 22.000563 -12.706894
9 0 1 -3.511823 22.027262 -13.277100
10 0 1 -4.243013 21.341761 -13.518906
11 0 1 -4.178174 21.541460 -14.454605
12 0 1 -4.709074 22.313959 -14.721497
13 0 1 -5.585943 22.131361 -14.466095
14 0 1 -5.817434 21.980963 -13.549606
15 0 1 -5.043504 21.853662 -12.964798
16 0 1 -5.044034 20.891764 -13.065308
17 0 1 -5.702074 20.938662 -13.787292
18 0 1 -6.598073 21.196764 -13.708694
19 0 1 -7.145525 20.575563 -13.196396
20 0 1 -6.862724 21.381662 -12.712296
21 0 1 -7.278913 21.899363 -12.028198
22 0 1 -7.046184 21.765764 -11.142593
23 0 1 -7.050384 21.763662 -10.172806
24 0 1 -7.652994 22.141863 -9.527756
25 0 1 -8.092384 21.290762 -9.477325
26 0 1 -8.849014 21.542765 -8.843246
27 0 1 -8.691774 21.013361 -8.070221
28 0 1 -8.573645 21.769762 -7.430405
29 0 1 -9.321314 22.230963 -7.080109
30 0 1 -8.997894 21.616465 -6.457947
31 0 1 -9.653444 20.967264 -6.315414
32 0 1 -9.780073 20.190962 -5.708115
33 0 1 -10.440474 20.335360 -6.348755
34 0 1 -10.448835 20.598661 -7.322311
35 0 1 -11.236034 20.284365 -7.842453
36 0 1 -10.807665 19.691462 -8.533600
37 0 1 -10.062765 19.639063 -9.128983
38 0 1 -9.542913 18.991663 -9.641083
39 0 1 -8.754305 19.393461 -10.056702
40 0 1 -8.383863 19.658960 -10.935104
41 0 1 -8.168545 19.038263 -11.637207
42 0 1 -8.274534 18.134859 -11.410400
43 0 1 -8.032995 17.417963 -10.842896
44 0 1 -7.368824 16.839262 -10.556000
45 0 1 -7.868114 16.609861 -9.797638
46 0 1 -8.749664 16.682360 -10.160599
47 0 1 -8.940065 15.745761 -10.398895
48 0 1 -8.847143 15.590163 -11.382401
49 0 1 -9.582834 14.996161 -11.259094
50 0 1 -9.953524 15.867061 -11.119995
51 0 1 -10.085794 16.195662 -12.020706
52 0 1 -10.648973 15.422763 -12.287094
53 0 1 -11.318584 15.936862 -12.700806
54 0 1 -10.751123 16.036860 -13.458405
55 0 1 -11.282175 15.313064 -13.809097
56 0 1 -12.031704 14.701663 -13.774796
57 0 1 -13.009174 14.550464 -13.728195
58 0 1 -13.260775 14.406062 -12.833694
59 0 1 -13.917974 14.495063 -12.146103
60 0 1 -13.659975 15.402564 -12.017593
61 0 1 -14.432974 15.772063 -12.347702
62 0 1 -14.680273 16.498362 -12.971298
63 0 1 -15.018774 17.402460 -12.920395
64 0 1 -14.776373 17.003260 -12.081299
65 0 1 -14.659475 16.409060 -11.356293
66 0 1 -14.913973 15.722762 -10.687698
67 0 1 -13.976574 15.841365 -10.510803
68 0 1 -13.474874 15.730365 -9.597321
69 0 1 -14.122074 14.969062 -9.416443
70 0 1 -14.395975 15.349261 -8.579376
71 0 1 -15.166174 14.864764 -8.354309
72 0 1 -15.360476 14.902564 -7.410660
73 0 1 -15.060575 15.840663 -7.555908
74 0 1 -15.129873 16.124762 -6.623474
75 0 1 -15.769575 16.484663 -7.149399
76 0 1 -16.024075 17.194963 -7.778488
77 0 1 -15.960875 17.909365 -7.168106
78 0 1 -16.069574 18.686563 -6.723755
79 0 1 -16.952673 18.456362 -6.418762
80 0 1 -17.837374 18.506662 -6.699677
81 0 1 -17.840574 18.370363 -7.706848
82 0 1 -17.299074 17.725962 -7.129013
83 0 1 -16.963373 16.984064 -6.516754
84 0 1 -16.540474 17.021959 -5.623993
85 0 1 -16.360174 16.053263 -5.487442
86 0 1 -15.808674 16.546160 -4.902710
87 0 1 -15.663374 16.121660 -4.099396
88 0 1 -15.059874 16.287161 -3.408218
89 0 1 -14.173674 15.916064 -3.276398
90 0 1 -14.182274 15.155765 -2.677963
91 0 1 -13.927774 15.991664 -2.230682
92 0 1 -13.579674 15.649264 -1.418243
93 0 1 -13.193674 15.312362 -0.531448
94 0 1 -13.078074 14.379664 -0.676819
95 0 1 -12.279135 14.561362 -0.163773
96 0 1 -12.185274 15.308661 -0.840195
97 0 1 -11.315544 15.182162 -0.535904
98 0 1 -11.055395 14.510364 -1.164505
99 0 1 -10.792295 13.800761 -1.749557
100 0 1 -10.246264 13.146064 -2.234573
101 0 1 -10.098394 12.912162 -1.303802
102 0 1 -10.323225 11.978061 -1.290344
103 0 1 -11.310804 12.032863 -1.230698
104 0 1 -11.137983 12.143062 -0.296616
105 0 1 -11.039314 11.221362 -0.090500
106 0 1 -11.802755 11.094264 -0.661560
107 0 1 -12.735374 10.813304 -0.912201
108 0 1 -12.842375 9.969661 -1.334747
109 0 1 -12.768675 10.260295 -2.306610
110 0 1 -13.572575 10.624454 -2.753632
111 0 1 -13.690874 10.269263 -1.860245
112 0 1 -13.593973 11.118564 -1.405258
113 0 1 -14.146774 11.653461 -1.907272
114 0 1 -14.571573 11.204162 -2.684570
115 0 1 -14.871374 11.379264 -3.567703
116 0 1 -15.685373 10.952262 -3.413666
117 0 1 -15.796774 10.549243 -4.366165
118 0 1 -16.743876 10.210662 -4.164474
119 0 1 -16.927973 9.316382 -4.409515
120 0 1 -17.466274 9.157702 -5.252396
121 0 1 -17.492374 8.997634 -6.164795
122 0 1 -18.310873 9.360141 -6.566116
123 0 1 -18.611374 9.648284 -7.454086
124 0 1 -18.074274 10.497851 -7.533493
125 0 1 -18.742775 11.228465 -7.866852
126 0 1 -19.369974 11.138862 -7.060013
127 0 1 -19.671175 10.711204 -7.880386
128 0 1 -19.840174 9.964362 -7.359985
129 0 1 -20.012774 9.152614 -7.821823
130 0 1 -19.398474 8.714862 -8.379242
131 0 1 -19.612774 9.079333 -9.294342
132 0 1 -20.358274 8.552772 -9.655380
133 0 1 -20.784374 9.244372 -9.108078
134 0 1 -21.589174 9.797694 -8.834747
135 0 1 -21.949875 10.628932 -9.326065
136 0 1 -22.787575 10.265342 -9.533844
137 0 1 -23.121975 10.664622 -8.751862
138 0 1 -23.156574 9.744311 -8.543320
139 0 1 -23.822174 9.932864 -7.881668
140 0 1 -24.371075 9.079051 -7.850693
141 0 1 -25.275875 8.644282 -7.663895
142 0 1 -25.381874 7.668623 -7.412613
143 0 1 -25.536175 6.732863 -7.672455
144 0 1 -26.390774 7.101611 -7.869614
145 0 1 -27.202774 7.241324 -8.413025
146 0 1 -27.481874 6.554720 -7.818436
147 0 1 -26.975775 6.813784 -7.085632
148 0 1 -26.605574 6.395884 -6.336105
149 0 1 -26.439375 5.952471 -5.524780
150 0 1 -27.278873 6.231642 -5.006882
151 0 1 -27.865873 6.934523 -4.664047
152 0 1 -28.599474 6.392462 -4.519547
153 0 1 -28.860973 5.851721 -3.791687
154 0 1 -29.459175 5.725222 -4.537766
155 0 1 -29.323774 4.804202 -4.654373
156 0 1 -30.023674 4.373194 -5.137497
157 0 1 -30.199375 3.467902 -5.334030
158 0 1 -30.107874 2.575934 -5.634552
159 0 1 -30.163874 2.456851 -4.583862
160 0 1 -29.639074 1.623301 -4.926895
161 0 1 -29.247574 1.462540 -5.782288
162 0 1 -28.733374 0.754696 -5.286606
163 0 1 -28.251774 1.465882 -4.825348
164 0 1 -27.700375 2.238451 -4.716064
165 0 1 -27.856274 2.915442 -4.064133
166 0 1 -28.575174 2.426161 -3.626389
167 0 1 -29.233074 1.820605 -3.159332
168 0 1 -29.546474 2.297833 -2.388901
169 0 1 -28.816673 1.940743 -1.875473
170 0 1 -28.257975 1.500310 -2.524292
171 0 1 -27.922575 1.071465 -1.675598
172 0 1 -27.624075 1.817635 -1.074066
173 0 1 -27.717575 1.452723 -0.207031
174 0 1 -28.048374 0.662934 0.231766
175 0 1 -28.674374 -0.060655 0.489304
176 0 1 -28.570675 -0.345748 -0.452606
177 0 1 -28.784075 -0.689887 -1.365143
178 0 1 -29.292173 -0.209808 -2.052292
179 0 1 -29.679375 -0.745368 -2.751389
180 0 1 -29.578674 -1.481628 -2.166473
181 0 1 -28.824074 -2.032709 -2.093475
182 0 1 -28.409575 -2.421228 -2.832382
183 0 1 -28.013374 -2.189598 -3.702576
184 0 1 -28.581573 -1.380107 -3.878387
185 0 1 -27.967175 -1.345567 -3.154495
186 0 1 -27.152674 -1.728517 -2.900986
187 0 1 -26.786573 -2.453208 -2.457733
188 0 1 -27.334274 -1.958057 -1.913345
189 0 1 -26.542074 -2.044158 -1.413147
190 0 1 -27.076874 -2.602418 -0.786285
191 0 1 -26.586473 -3.101137 -0.125458
192 0 1 -25.844275 -2.660568 0.226059
193 0 1 -26.322575 -2.447057 1.140457
194 0 1 -27.065374 -2.450937 1.796570
195 0 1 -27.429773 -1.753347 2.390182
196 0 1 -27.781475 -1.708587 3.242325
197 0 1 -26.924574 -1.663747 3.755951
198 0 1 -26.474674 -1.287588 4.543213
199 0 1 -25.652575 -0.965537 4.133789
200 0 1 -24.890375 -1.518497 3.892227
201 0 1 -24.988073 -0.664817 3.352539
202 0 1 -24.039175 -0.377998 3.646957
203 0 1 -23.146574 -0.769477 3.817215
204 0 1 -23.228474 -1.310848 4.545227
205 0 1 -22.464075 -1.867628 4.611420
206 0 1 -21.608374 -2.144048 4.827011
207 0 1 -21.759274 -1.944677 5.759506
208 0 1 -22.784275 -2.036348 5.754807
209 0 1 -22.908875 -1.834398 6.714523
210 0 1 -23.314674 -0.936698 6.814667
211 0 1 -24.174774 -1.313117 6.997681
212 0 1 -24.374374 -0.761857 7.748062
213 0 1 -25.158674 -0.433067 8.268600
214 0 1 -25.834074 -0.094348 8.976166
215 0 1 -26.281374 -0.678708 8.388107
216 0 1 -26.262875 -0.147447 7.537674
217 0 1 -27.087574 -0.583967 7.660416
218 0 1 -27.612875 0.234925 7.539764
219 0 1 -28.036774 0.484953 6.665009
220 0 1 -28.227573 -0.509918 6.540695
221 0 1 -27.557274 -0.230207 5.896515
222 0 1 -26.843473 0.310830 6.198730
223 0 1 -26.611475 1.147883 5.842575
224 0 1 -27.302574 1.581103 5.464172
225 0 1 -27.870874 1.044062 4.939575
226 0 1 -28.396074 1.011313 4.162323
227 0 1 -28.376074 0.211087 4.681992
228 0 1 -28.823675 0.124421 5.458633
229 0 1 -28.696175 -0.841848 5.303497
230 0 1 -28.660374 -1.635358 5.951172
231 0 1 -29.092773 -2.387798 6.376236
232 0 1 -28.621574 -3.239337 6.360397
233 0 1 -28.314573 -3.832368 7.069305
234 0 1 -28.213573 -4.184217 7.933044
235 0 1 -28.274075 -5.077117 8.283600
236 0 1 -27.419075 -4.990478 7.945496
237 0 1 -27.446074 -5.911527 7.678238
238 0 1 -26.681074 -5.794668 7.057693
239 0 1 -25.823275 -5.842119 7.482437
240 0 1 -25.226173 -5.995248 6.773621
241 0 1 -24.596474 -6.717357 6.508209
242 0 1 -24.127674 -7.506797 6.743988
243 0 1 -23.323275 -7.818868 7.246475
244 0 1 -23.220573 -7.360368 8.133118
245 0 1 -24.091175 -7.111139 8.464127
246 0 1 -23.961174 -6.290767 8.957382
247 0 1 -23.221273 -6.184007 8.236038
248 0 1 -22.637474 -5.544218 7.647064
249 0 1 -23.053574 -6.021947 7.008301
250 0 1 -22.548473 -6.768127 7.464890
251 0 1 -22.072174 -7.296167 6.813065
252 0 1 -21.545574 -7.504198 7.543182
253 0 1 -21.614574 -6.725898 8.168411
254 0 1 -21.594774 -6.294788 7.253113
255 0 1 -21.831974 -5.405427 6.968231
256 0 1 -21.124575 -4.849267 6.748627
257 0 1 -20.726173 -5.094867 5.898743
258 0 1 -20.791574 -6.046548 5.700653
259 0 1 -20.865274 -6.526977 4.936020
260 0 1 -20.652674 -7.244478 4.378052
261 0 1 -21.515375 -7.546499 4.427628
262 0 1 -21.759674 -6.598947 4.321884
263 0 1 -21.868774 -5.835866 3.792236
264 0 1 -21.730175 -5.925798 2.858490
265 0 1 -21.225975 -6.235828 2.129959
266 0 1 -21.272474 -6.568288 1.241943
267 0 1 -22.074474 -6.088037 0.938767
268 0 1 -22.956675 -6.371837 1.089996
269 0 1 -23.396975 -5.501897 0.857880
270 0 1 -23.941774 -5.417818 0.038452
271 0 1 -24.483374 -6.111059 -0.148376
272 0 1 -25.438074 -5.902399 -0.324554
273 0 1 -25.605875 -6.250337 0.574799
274 0 1 -25.851074 -7.066247 0.163849
275 0 1 -26.155775 -8.011857 0.171265
276 0 1 -26.804474 -8.635026 -0.237015
277 0 1 -27.721575 -8.518277 0.040817
278 0 1 -27.410873 -8.109847 0.846924
279 0 1 -26.943474 -8.727227 1.380936
280 0 1 -26.116875 -9.224437 1.548233
281 0 1 -25.478174 -9.902837 1.735138
282 0 1 -26.145674 -10.543038 2.128098
283 0 1 -26.828175 -10.568738 2.820587
284 0 1 -25.896475 -10.618138 3.058594
285 0 1 -25.651575 -9.929437 3.787659
286 0 1 -25.693974 -8.965297 3.444016
287 0 1 -25.528774 -8.490148 4.295654
288 0 1 -25.823774 -8.469367 5.167816
289 0 1 -26.148674 -7.819807 5.814316
290 0 1 -26.545074 -7.376857 6.577118
291 0 1 -25.675875 -7.574487 6.954254
292 0 1 -26.265175 -7.942506 7.609772
293 0 1 -26.174974 -7.536058 8.514145
294 0 1 -25.456573 -8.239568 8.531494
295 0 1 -25.595774 -9.144536 8.692093
296 0 1 -26.468775 -8.956296 9.081512
297 0 1 -26.506975 -8.989438 10.063095
298 0 1 -26.791174 -9.073808 11.037704
299 0 1 -27.389574 -9.088506 11.773804
300 0 1 -26.513874 -8.573907 11.912399
301 0 1 -27.029175 -8.164697 12.649506
302 0 1 -26.750975 -7.937608 13.527802
303 0 1 -26.211575 -7.384628 13.001694
304 0 1 -26.143774 -6.456068 13.232498
305 0 1 -26.458775 -6.743597 14.123001
306 0 1 -25.543175 -6.967447 14.371201
307 0 1 -25.401773 -6.606967 15.232300
308 0 1 -24.588675 -6.193357 15.501694
309 0 1 -24.287273 -7.081808 15.282394
310 0 1 -24.108574 -8.025607 15.574905
311 0 1 -24.788275 -8.240666 16.354004
312 0 1 -24.532175 -8.719636 17.197205
313 0 1 -25.384775 -9.076957 17.199005
314 0 1 -26.125275 -8.678376 17.660095
315 0 1 -26.763975 -9.354138 17.903107
316 0 1 -26.258675 -9.989636 18.350708
317 0 1 -26.011774 -10.885137 18.350204
318 0 1 -26.023174 -11.854737 18.569199
319 0 1 -26.283974 -12.706037 18.109802
320 0 1 -26.890274 -13.425038 18.187195
321 0 1 -27.111074 -14.397537 18.412994
322 0 1 -26.795774 -14.438937 19.304993
323 0 1 -26.084475 -14.351737 18.645508
324 0 1 -25.907974 -15.156238 18.027298
325 0 1 -25.007574 -15.321137 18.349503
326 0 1 -24.319775 -15.800338 17.916992
327 0 1 -23.842474 -15.997737 18.740997
328 0 1 -23.371975 -15.167638 18.753601
329 0 1 -22.642673 -15.017037 18.047195
330 0 1 -22.573975 -15.020237 17.106995
331 0 1 -22.576674 -14.631037 16.238998
332 0 1 -23.052174 -13.867937 16.415405
333 0 1 -22.635075 -13.625237 17.234894
334 0 1 -21.907974 -14.043537 17.727097
335 0 1 -21.035873 -13.517236 17.828094
336 0 1 -21.064875 -12.558137 17.715393
337 0 1 -20.281475 -12.038438 17.370605
338 0 1 -19.480074 -12.183438 17.776398
339 0 1 -18.653774 -12.604337 17.966797
340 0 1 -18.336773 -12.342637 18.833893
341 0 1 -17.594173 -11.755837 18.875000
342 0 1 -17.981674 -10.825437 18.932205
343 0 1 -17.061375 -10.660237 19.014297
344 0 1 -16.795675 -10.174237 19.804794
345 0 1 -17.203573 -9.293437 19.637207
346 0 1 -18.048473 -9.207036 19.112396
347 0 1 -18.464575 -9.037667 19.941696
348 0 1 -19.362974 -9.474038 20.087601
349 0 1 -19.702974 -9.392838 19.062698
350 0 1 -19.281874 -10.068437 18.474594
351 0 1 -19.544973 -9.317136 18.011993
352 0 1 -19.459675 -9.288938 17.039597
353 0 1 -19.137074 -8.783877 16.283096
354 0 1 -19.987474 -8.490037 15.890198
355 0 1 -20.107374 -8.558208 14.959106
356 0 1 -20.945074 -8.192037 14.479904
357 0 1 -20.453274 -7.457128 14.873901
358 0 1 -19.968075 -6.566347 14.968201
359 0 1 -19.827875 -6.663488 14.079300
360 0 1 -19.897074 -5.953098 13.396393
361 0 1 -19.495174 -5.290178 14.018997
362 0 1 -19.432875 -4.830637 14.862793
363 0 1 -20.387274 -4.704797 15.017303
364 0 1 -20.815575 -3.874818 15.293594
365 0 1 -20.991074 -2.951147 15.156097
366 0 1 -21.251474 -2.679258 14.248398
367 0 1 -21.715075 -2.917068 13.452393
368 0 1 -22.278774 -2.964727 14.232498
369 0 1 -22.447075 -3.992307 14.239395
370 0 1 -21.927475 -4.374177 13.572906
371 0 1 -21.184275 -4.545038 12.972794
372 0 1 -20.850275 -4.470108 12.070694
373 0 1 -21.046875 -4.469038 11.102905
374 0 1 -20.809074 -5.355098 10.654999
375 0 1 -20.315374 -5.597917 11.450104
376 0 1 -19.597975 -5.393789 10.804703
377 0 1 -19.070374 -5.543218 11.640900
378 0 1 -19.200575 -6.479778 11.632599
379 0 1 -18.855675 -7.332208 11.884796
380 0 1 -18.758774 -8.237538 11.542603
381 0 1 -18.830275 -8.251477 10.582596
382 0 1 -17.958874 -8.488837 10.856705
383 0 1 -17.851074 -9.436137 10.831406
384 0 1 -16.908075 -9.165837 10.772400
385 0 1 -16.612074 -8.590037 11.550903
386 0 1 -17.317074 -8.382857 12.138306
387 0 1 -17.397573 -7.753557 11.431702
388 0 1 -16.845076 -7.733087 10.659393
389 0 1 -16.468973 -7.113317 9.994522
390 0 1 -15.532074 -7.093997 10.121201
391 0 1 -15.795574 -6.155298 10.221405
392 0 1 -16.327274 -5.571277 10.813904
393 0 1 -17.055374 -6.066038 11.266998
394 0 1 -16.434473 -6.248178 12.020203
395 0 1 -16.307474 -5.578197 12.750504
396 0 1 -15.638075 -6.154088 13.044205
397 0 1 -15.127874 -5.349687 13.135300
398 0 1 -15.365974 -5.254638 14.066498
399 0 1 -16.040874 -5.420438 14.688507
400 0 1 -16.397474 -6.075717 15.321106
401 0 1 -15.447973 -6.131748 15.216705
402 0 1 -15.061874 -6.447149 16.055496
403 0 1 -15.433174 -7.302766 16.187408
404 0 1 -15.087074 -7.772157 15.383698
405 0 1 -14.963774 -8.712548 15.320892
406 0 1 -15.130575 -9.502439 15.763397
407 0 1 -14.239676 -9.889638 16.118408
408 0 1 -14.325075 -10.765937 16.005798
409 0 1 -15.145075 -11.002637 16.515808
410 0 1 -15.108074 -11.762239 17.173706
411 0 1 -14.764774 -12.582437 16.738708
412 0 1 -14.178974 -12.463138 15.966705
413 0 1 -14.379475 -13.238437 15.464905
414 0 1 -13.495874 -13.483537 15.228104
415 0 1 -13.782475 -14.068937 14.389496
416 0 1 -12.750975 -13.946938 14.464508
417 0 1 -12.833174 -12.983636 14.281601
418 0 1 -13.662775 -12.496337 14.009399
419 0 1 -13.141275 -11.868337 13.530502
420 0 1 -13.763174 -12.170838 12.832199
421 0 1 -13.599375 -13.114438 12.625702
422 0 1 -13.154675 -13.181836 11.802704
423 0 1 -12.834475 -14.032437 11.526596
424 0 1 -12.945875 -14.860737 11.036194
425 0 1 -12.977274 -14.347537 10.253906
426 0 1 -13.890074 -14.568837 10.387894
427 0 1 -14.444674 -15.334336 10.605698
428 0 1 -15.150274 -15.990737 10.354004
429 0 1 -15.198473 -16.958338 10.679398
430 0 1 -14.693674 -16.937838 9.875549
431 0 1 -13.842474 -17.302338 10.004395
432 0 1 -13.345873 -16.497038 9.733032
433 0 1 -12.801674 -16.060238 9.078003
434 0 1 -13.393475 -15.417138 8.727570
435 0 1 -13.338774 -16.003338 8.014328
436 0 1 -14.235874 -15.765237 7.753174
437 0 1 -14.307974 -16.712738 7.503403
438 0 1 -14.002573 -17.389038 6.882034
439 0 1 -14.039873 -17.581139 5.950333
440 0 1 -13.782475 -18.344038 6.568695
441 0 1 -14.489073 -18.533237 7.250153
442 0 1 -13.569874 -18.925638 7.468338
443 0 1 -13.742476 -19.553038 6.671799
444 0 1 -12.898375 -19.331738 6.240845
445 0 1 -13.594574 -19.043139 5.680466
446 0 1 -14.038374 -18.672739 4.938065
447 0 1 -14.512474 -18.780437 4.023575
448 0 1 -15.256174 -19.314238 3.579117
449 0 1 -15.046175 -19.713737 2.712921
450 0 1 -14.836973 -19.601038 1.795792
451 0 1 -14.396475 -18.727238 1.776230
452 0 1 -14.177473 -18.324938 2.592087
453 0 1 -13.674774 -18.364939 3.442032
454 0 1 -12.795973 -18.133638 3.775497
455 0 1 -12.274815 -18.794437 3.258026
456 0 1 -11.653746 -18.348738 2.712616
457 0 1 -10.760313 -17.992138 2.734161
458 0 1 -10.799534 -17.098038 2.980011
459 0 1 -11.496153 -17.609638 3.500076
460 0 1 -11.566465 -17.001738 4.242584
461 0 1 -11.419455 -17.137238 5.233673
462 0 1 -10.624475 -17.248339 4.789276
463 0 1 -10.019224 -17.171738 5.537643
464 0 1 -10.131264 -17.307737 6.514343
465 0 1 -9.951195 -16.764738 7.267151
466 0 1 -9.572405 -16.477638 8.132324
467 0 1 -8.743774 -16.832739 8.546890
468 0 1 -8.871075 -16.691837 9.471924
469 0 1 -8.665684 -15.778937 9.594452
470 0 1 -8.723284 -15.531737 10.477798
471 0 1 -8.680784 -14.545137 10.198807
472 0 1 -7.893674 -14.089437 10.532700
473 0 1 -7.678705 -13.159238 10.550201
474 0 1 -7.723093 -12.605437 11.314301
475 0 1 -7.231674 -11.836038 11.622604
476 0 1 -6.251274 -11.621337 11.690903
477 0 1 -6.462713 -10.832738 11.089096
478 0 1 -6.751194 -9.943637 11.246201
479 0 1 -7.287504 -9.941937 12.048401
480 0 1 -7.927293 -10.558438 11.696808
481 0 1 -8.327305 -10.145238 10.926697
482 0 1 -8.763714 -9.664237 10.257095
483 0 1 -9.260115 -10.466237 10.056503
484 0 1 -8.307165 -10.702237 9.964005
485 0 1 -8.265484 -10.822137 8.982117
486 0 1 -9.136354 -11.040936 8.643250
487 0 1 -9.644163 -11.758836 9.258118
488 0 1 -9.395405 -12.037337 10.238693
489 0 1 -8.904375 -12.778537 9.789505
490 0 1 -9.099813 -13.675637 9.865646
491 0 1 -9.276875 -13.468236 10.732605
492 0 1 -9.865294 -12.797338 11.161301
493 0 1 -10.155455 -13.325238 11.906006
494 0 1 -10.684275 -13.300336 12.709000
495 0 1 -9.689064 -13.483636 12.777802
496 0 1 -9.614674 -14.484138 12.848404
497 0 1 -9.133274 -14.693337 13.667404
498 0 1 -8.774384 -15.556537 13.834198
499 0 1 -8.927414 -15.663938 12.878296
500 0 1 -8.693995 -16.320938 12.202301
501 0 1 -8.032534 -16.499239 11.568298
502 0 1 -7.648353 -15.811038 12.072495
503 0 1 -7.232173 -15.264438 12.732803
504 0 1 -6.381534 -15.378737 13.203400
505 0 1 -5.928354 -15.712937 13.952499
506 0 1 -5.243404 -15.075837 14.284103
507 0 1 -5.750434 -14.296137 14.580093
508 0 1 -6.506984 -13.717338 14.846405
509 0 1 -6.921064 -13.952937 15.735596
510 0 1 -7.617303 -14.435337 15.272400
511 0 1 -7.126264 -15.140838 15.689804
512 0 1 -7.613813 -15.664138 16.335098
513 0 1 -8.297604 -16.261639 15.815598
514 0 1 -7.550964 -16.749638 16.116699
515 0 1 -6.783763 -17.150438 15.806305
516 0 1 -5.904214 -16.766937 15.809296
517 0 1 -5.560823 -17.439838 16.426895
518 0 1 -5.482564 -18.333138 16.397598
519 0 1 -4.935943 -19.181139 16.457397
520 0 1 -4.080635 -19.191137 16.884598
521 0 1 -3.330736 -19.320738 16.305695
522 0 1 -2.904791 -18.430637 16.273102
523 0 1 -1.959457 -18.489439 15.979706
524 0 1 -1.397564 -18.904037 16.680496
525 0 1 -0.990324 -19.659039 16.987106
526 0 1 -0.145975 -20.052238 16.679108
527 0 1 -0.010565 -19.098537 16.756592
528 0 1 0.124605 -18.289139 17.202606
529 0 1 -0.344602 -17.651737 16.675095
530 0 1 -0.493234 -17.285938 15.784897
531 0 1 -1.094024 -17.689037 15.073105
532 0 1 -0.917144 -18.585037 15.452301
533 0 1 -0.050363 -19.045837 15.501892
534 0 1 -0.218862 -19.989338 15.553604
535 0 1 0.566435 -20.401937 15.879807
536 0 1 1.476317 -20.060738 15.966507
537 0 1 1.575327 -20.868038 16.449203
538 0 1 2.222708 -21.565039 16.713104
539 0 1 2.179987 -22.171638 17.443207
540 0 1 3.109526 -22.146439 17.571304
541 0 1 2.967806 -21.654139 18.404205
542 0 1 3.310736 -22.546339 18.518799
543 0 1 3.923586 -22.549938 19.276901
544 0 1 4.211596 -22.944138 20.067993
545 0 1 4.734797 -22.275139 20.606995
546 0 1 5.285605 -21.495039 20.562698
547 0 1 5.889525 -20.779139 20.307495
548 0 1 6.116545 -20.068838 19.725708
549 0 1 6.375624 -20.330538 18.815704
550 0 1 6.435637 -19.451637 18.465195
551 0 1 6.010485 -18.976038 17.795502
552 0 1 6.169295 -18.052038 18.049805
553 0 1 5.677748 -17.392038 18.576797
554 0 1 6.294146 -16.660639 18.660400
555 0 1 6.863066 -17.427738 18.783798
556 0 1 7.379725 -18.118137 19.243195
557 0 1 7.974326 -17.727238 18.544006
558 0 1 8.943525 -17.580938 18.679703
559 0 1 8.994024 -17.573538 19.644592
560 0 1 9.891127 -17.094238 19.666901
561 0 1 9.792524 -16.881838 20.624802
562 0 1 9.573427 -17.659239 21.106201
563 0 1 10.299726 -17.758738 21.736908
564 0 1 11.032427 -17.174938 21.873108
565 0 1 11.444727 -16.390738 22.166306
566 0 1 11.996027 -16.791239 21.472305
567 0 1 12.432127 -15.961137 21.182999
568 0 1 11.660627 -15.364238 20.986206
569 0 1 11.834925 -14.615337 21.689194
570 0 1 12.522627 -13.906637 21.871796
571 0 1 12.619425 -13.459737 20.959000
572 0 1 13.003424 -12.594937 21.203094
573 0 1 13.202726 -12.784436 20.289307
574 0 1 12.543825 -12.986638 19.681107
575 0 1 12.163626 -12.436936 20.371307
576 0 1 11.390524 -12.903337 19.934204
577 0 1 10.762426 -13.327336 19.421997
578 0 1 10.006628 -12.785937 19.383896
579 0 1 9.230124 -13.432038 19.552704
580 0 1 8.557524 -12.819139 19.863892
581 0 1 7.636328 -13.187037 19.641098
582 0 1 7.425955 -12.586537 18.937805
583 0 1 6.943877 -11.976537 18.326797
584 0 1 7.661425 -11.531337 18.743195
585 0 1 7.137248 -11.673537 19.565903
586 0 1 6.312457 -11.238637 19.768402
587 0 1 5.413065 -11.590436 19.693298
588 0 1 4.962935 -11.647237 20.552597
589 0 1 4.159045 -11.513936 21.083801
590 0 1 3.837828 -11.568337 22.074493
591 0 1 4.636115 -12.013837 22.463104
592 0 1 4.555998 -11.040936 22.655884
593 0 1 3.680247 -11.043736 23.019592
594 0 1 2.977515 -10.960637 22.282700
595 0 1 3.220595 -10.007537 22.346405
596 0 1 2.479605 -9.934838 21.609497
597 0 1 2.489886 -9.017938 21.341705
598 0 1 2.484427 -8.091558 20.989197
599 0 1 3.177428 -8.330907 21.699295
600 0 1 2.534575 -8.154038 22.390106
601 0 1 1.918616 -7.860357 23.085999
602 0 1 1.864466 -7.510997 23.969116
603 0 1 1.401007 -6.749486 23.641113
604 0 1 0.530264 -6.528528 23.180603
605 0 1 0.473326 -5.638717 22.618805
606 0 1 1.407725 -5.585527 22.238098
607 0 1 1.909777 -4.733318 22.244003
608 0 1 2.324896 -3.990777 21.837402
609 0 1 3.222418 -3.800708 21.836105
610 0 1 3.085776 -2.860128 21.874405
611 0 1 3.942946 -2.444797 22.025696
612 0 1 4.229975 -1.887428 22.769897
613 0 1 5.163996 -2.189958 22.830200
614 0 1 5.373038 -3.052658 22.356995
615 0 1 6.300398 -2.934728 22.601105
616 0 1 6.171755 -2.056158 22.175003
617 0 1 6.477644 -1.268197 22.758209
618 0 1 6.697424 -1.991277 23.344391
619 0 1 6.901125 -2.059019 24.312012
620 0 1 6.143496 -1.665248 24.852295
621 0 1 5.274146 -1.638997 25.347107
622 0 1 5.183005 -2.553308 25.119385
623 0 1 5.376956 -2.923788 25.993408
624 0 1 5.840285 -2.377388 26.639313
625 0 1 6.483778 -1.983947 27.207001
626 0 1 5.641627 -1.398748 27.251709
627 0 1 6.072516 -0.626888 27.577301
628 0 1 5.582144 0.269166 27.547607
629 0 1 6.051608 0.050896 28.410706
630 0 1 6.949255 0.205844 28.806091
631 0 1 6.992438 1.158137 29.083710
632 0 1 7.191897 2.038533 29.390106
633 0 1 8.131628 2.045563 29.304596
634 0 1 8.488127 2.747992 29.867798
635 0 1 7.835627 3.350661 30.321991
636 0 1 7.234457 3.089411 29.646606
637 0 1 6.746356 3.900492 29.678314
638 0 1 7.219817 4.220461 30.454102
639 0 1 7.287306 5.124983 30.622009
640 0 1 7.446097 5.471854 31.468109
641 0 1 7.097517 5.057341 32.282593
642 0 1 6.350165 4.494463 32.613800
643 0 1 6.260706 4.675044 33.535187
644 0 1 5.643218 5.401473 33.281799
645 0 1 6.170325 6.051604 33.661011
646 0 1 6.963748 5.613944 33.899689
647 0 1 7.857924 5.596274 34.429108
648 0 1 7.777026 5.199553 35.286194
649 0 1 7.861624 5.465472 36.186310
650 0 1 7.908526 6.459200 36.203094
651 0 1 8.647528 6.784903 35.567902
652 0 1 8.868227 6.775443 36.545197
653 0 1 9.292624 7.622973 36.416107
654 0 1 8.344027 7.904932 36.302185
655 0 1 8.519827 8.800151 36.403107
656 0 1 8.241026 9.611762 36.791901
657 0 1 8.382227 10.137652 37.580688
658 0 1 9.096025 9.501544 37.320984
659 0 1 9.689924 10.234344 37.379608
660 0 1 9.089025 10.395583 36.612396
661 0 1 9.932825 10.168773 36.272400
662 0 1 10.771524 10.003001 35.848206
663 0 1 11.446726 10.609782 36.119812
664 0 1 11.898024 11.011165 36.815308
665 0 1 12.668726 10.873961 36.288513
666 0 1 13.636126 11.042361 36.319214
667 0 1 13.962729 10.157664 35.944000
668 0 1 14.404028 9.456943 35.521484
669 0 1 13.756926 9.793342 34.841797
670 0 1 13.065924 9.261252 34.438904
671 0 1 12.550924 9.534404 33.602783
672 0 1 12.516424 8.930942 32.901794
673 0 1 12.824728 9.485702 32.227203
674 0 1 13.468428 10.206523 31.975189
675 0 1 13.388926 10.575221 31.081909
676 0 1 13.418325 9.592223 31.099915
677 0 1 13.523626 9.545993 30.141205
678 0 1 12.744925 9.801135 29.595795
679 0 1 12.288427 8.932174 29.338287
680 0 1 12.964525 8.641185 29.937408
681 0 1 13.351927 8.493773 29.063110
682 0 1 14.328627 8.776233 29.230896
683 0 1 14.687223 8.913051 28.294495
684 0 1 15.450125 9.345424 27.904785
685 0 1 16.357924 9.217284 27.459991
686 0 1 17.138025 9.260753 28.196686
687 0 1 18.085726 8.998443 28.419800
688 0 1 18.245825 8.839362 27.441010
689 0 1 18.933027 8.164763 27.512787
690 0 1 19.286325 7.466143 28.028412
691 0 1 18.798124 6.907160 28.697815
692 0 1 18.430227 6.741961 29.554199
693 0 1 18.744326 6.198332 30.412415
694 0 1 18.091024 5.571951 30.175903
695 0 1 17.981924 4.754523 29.621002
696 0 1 18.613523 4.639681 28.925995
697 0 1 19.583723 5.007174 29.128204
698 0 1 19.422323 4.804091 30.026794
699 0 1 19.694826 3.980563 29.633301
700 0 1 19.158224 3.488181 29.000488
701 0 1 18.535223 3.474173 28.247894
702 0 1 17.690329 3.302252 28.621216
703 0 1 17.358625 3.825942 27.889099
704 0 1 16.567125 3.385863 28.118805
705 0 1 16.168825 3.935320 28.805695
706 0 1 15.913328 4.206553 27.940613
707 0 1 16.679125 4.740744 27.642792
708 0 1 16.042028 4.905074 26.937988
709 0 1 15.268728 4.506903 26.525909
710 0 1 15.222525 3.865183 25.774292
711 0 1 14.616827 3.166342 25.406708
712 0 1 14.570929 2.434252 26.029999
713 0 1 15.281527 1.777901 26.439911
714 0 1 14.630926 1.336068 25.894806
715 0 1 14.233427 0.470833 25.824097
716 0 1 13.430426 0.805909 26.278198
717 0 1 12.928926 0.059895 26.407898
718 0 1 11.992727 -0.341257 26.489014
719 0 1 11.220427 0.158293 26.259003
720 0 1 11.439127 0.958506 26.688507
721 0 1 12.043325 1.672728 26.784302
722 0 1 11.680426 2.526572 27.079498
723 0 1 11.132727 1.904032 27.563507
724 0 1 10.937426 2.571021 28.179810
725 0 1 10.187525 1.932393 28.107300
726 0 1 10.264624 2.402884 27.217285
727 0 1 9.960825 3.240283 26.794891
728 0 1 9.738127 2.856394 25.948700
729 0 1 10.667128 3.099642 25.735687
730 0 1 10.071325 3.472983 25.048096
731 0 1 10.422026 2.739302 24.532806
732 0 1 10.181025 1.828053 24.219208
733 0 1 10.589426 1.951193 23.389709
734 0 1 11.525526 2.212723 23.283386
735 0 1 12.228224 2.110873 23.999084
736 0 1 12.393427 2.937121 24.706696
737 0 1 11.867727 3.695872 24.649811
738 0 1 11.037725 4.156092 25.035309
739 0 1 11.263227 4.625861 24.246704
740 0 1 11.247625 4.002253 23.573914
741 0 1 11.310926 3.940791 22.607086
742 0 1 10.647425 4.649561 22.670013
743 0 1 9.817823 4.940352 23.046112
744 0 1 10.192526 5.761973 22.981201
745 0 1 9.676325 6.364012 23.498199
746 0 1 9.414125 6.626284 22.585114
747 0 1 9.958426 7.376132 22.637512
748 0 1 10.437525 8.116382 22.123108
749 0 1 11.407724 8.108794 22.154694
750 0 1 11.627028 8.713962 22.868896
751 0 1 12.536825 8.363132 23.066498
752 0 1 13.009325 8.630481 23.826508
753 0 1 13.930025 8.682994 23.439301
754 0 1 14.107626 7.740302 23.297302
755 0 1 14.530626 8.180911 22.476196
756 0 1 15.365324 7.774603 22.892792
757 0 1 16.350126 7.798083 22.955414
758 0 1 16.983427 7.481371 22.401596
759 0 1 17.004126 8.059134 21.641205
760 0 1 16.247625 8.493663 21.101700
761 0 1 16.295225 8.389132 20.057495
762 0 1 16.656828 8.596515 19.185898
763 0 1 16.891226 8.599402 18.248108
764 0 1 17.015425 7.647624 18.442001
765 0 1 17.042826 6.837321 17.973602
766 0 1 16.606924 5.972594 17.610794
767 0 1 16.663824 6.087592 16.549698
768 0 1 16.900126 6.985991 16.938797
769 0 1 17.601728 6.414652 17.005600
770 0 1 18.535627 6.541312 16.832596
771 0 1 18.312124 5.670931 16.422806
772 0 1 18.371328 4.739802 16.305206
773 0 1 19.159925 4.379344 15.916504
774 0 1 20.112524 4.376334 15.988297
775 0 1 20.684423 5.101634 15.933304
776 0 1 21.502127 5.468173 16.369598