LAMMPS data file via MDAnalysis

        2000  atoms
        1999  bonds
           0  angles
           0  dihedrals
           0  impropers

           1  atom types
           1  bond types
           0  angle types
           0  dihedral types
           0  improper types

-30.5 30.5 xlo xhi
-30.5 30.5 ylo yhi
-233.5 233.5 zlo zhi


Masses

1 1.000000

Atoms

1 0 1 4.066996 2.207246 62.484802
2 0 1 4.835077 2.476068 61.959106
3 0 1 5.672216 3.035259 62.018799
4 0 1 5.432898 3.943830 62.522491
5 0 1 5.219915 4.903570 62.232483
6 0 1 5.204256 4.095361 61.561005
7 0 1 5.377787 4.247980 60.575409
8 0 1 4.600836 4.281351 60.015015
9 0 1 5.130068 3.816621 59.348999
10 0 1 5.361265 2.899816 59.574402
11 0 1 4.879866 2.932658 60.439911
12 0 1 4.312986 2.135270 60.510010
13 0 1 3.855288 1.728937 61.206116
14 0 1 4.832357 1.639423 61.345306
15 0 1 5.322748 1.429679 60.601898
16 0 1 5.965326 0.746450 60.349396
17 0 1 5.562819 0.961210 59.551300
18 0 1 5.309866 0.152339 59.020599
19 0 1 5.946466 -0.123961 58.361206
20 0 1 6.322268 -0.516951 57.571594
21 0 1 5.860518 0.071649 56.988007
22 0 1 5.033098 -0.260562 57.296112
23 0 1 4.653906 0.405429 56.703888
24 0 1 4.639158 0.861730 55.883301
25 0 1 5.586287 0.680150 55.663300
26 0 1 5.582457 -0.217250 56.005188
27 0 1 5.483545 -0.909430 55.354492
28 0 1 5.666948 -0.452000 54.503204
29 0 1 6.538988 -0.747271 54.814301
30 0 1 7.026178 -1.592770 54.860901
31 0 1 6.273577 -2.206290 54.656891
32 0 1 5.708006 -2.834370 55.162689
33 0 1 5.309427 -3.299720 54.337891
34 0 1 4.509245 -3.610371 54.799011
35 0 1 3.904718 -3.713530 54.071106
36 0 1 2.876436 -4.021681 54.075592
37 0 1 3.268446 -4.715760 53.576691
38 0 1 3.856127 -4.371230 52.968811
39 0 1 4.496828 -5.157092 53.394592
40 0 1 5.012285 -4.833100 52.646393
41 0 1 4.601755 -4.556130 51.782898
42 0 1 4.618425 -5.034371 50.926300
43 0 1 5.023848 -5.765820 51.243408
44 0 1 5.760317 -5.843230 51.834991
45 0 1 6.526796 -6.329470 51.454712
46 0 1 5.713766 -6.714470 51.027100
47 0 1 5.667479 -7.573142 51.360992
48 0 1 5.548777 -7.271060 52.257996
49 0 1 5.304167 -7.352961 53.165100
50 0 1 4.727068 -7.430521 53.924988
51 0 1 3.884226 -7.785321 53.592712
52 0 1 3.949606 -8.657741 54.037415
53 0 1 2.962217 -8.682441 53.873596
54 0 1 2.462297 -8.447440 53.116302
55 0 1 2.077526 -7.582911 53.328613
56 0 1 1.794867 -6.661299 52.990509
57 0 1 1.305574 -7.168261 52.363892
58 0 1 1.210638 -7.645590 51.519012
59 0 1 0.824881 -8.469041 51.238007
60 0 1 0.714718 -8.071242 50.325287
61 0 1 0.268372 -7.291010 50.739105
62 0 1 -0.297764 -7.634840 51.455811
63 0 1 -0.960363 -8.115840 51.031616
64 0 1 -0.551662 -7.736741 50.208588
65 0 1 -1.208803 -8.543241 50.127502
66 0 1 -1.340933 -7.941390 49.413513
67 0 1 -0.820164 -8.001931 48.644592
68 0 1 -0.406504 -7.999461 47.753296
69 0 1 -0.928963 -8.860240 47.862915
70 0 1 -1.287573 -9.786841 48.068390
71 0 1 -1.915073 -9.472140 47.421997
72 0 1 -2.139544 -9.571940 46.465302
73 0 1 -3.097214 -9.784041 46.612000
74 0 1 -3.296984 -9.752841 47.544098
75 0 1 -3.702623 -10.557641 47.305603
76 0 1 -3.834843 -11.392541 47.867310
77 0 1 -4.593504 -10.958541 48.305786
78 0 1 -3.922253 -11.194942 49.034393
79 0 1 -3.081493 -11.839541 49.146912
80 0 1 -3.002243 -12.162841 48.239105
81 0 1 -2.420914 -12.980641 48.174316
82 0 1 -3.093443 -13.070041 47.459717
83 0 1 -3.179523 -12.662441 46.604004
84 0 1 -3.152243 -12.443841 45.628296
85 0 1 -2.338493 -11.945342 45.789001
86 0 1 -2.322002 -11.114642 45.423096
87 0 1 -2.725264 -10.340842 45.080109
88 0 1 -1.978523 -10.144740 44.479187
89 0 1 -1.283684 -10.788840 44.173401
90 0 1 -0.996313 -10.264140 44.901184
91 0 1 -0.231644 -10.762542 44.751495
92 0 1 0.561333 -10.180140 45.074402
93 0 1 0.805597 -10.035041 44.199188
94 0 1 0.666060 -9.204741 43.646698
95 0 1 0.184483 -9.554641 42.967804
96 0 1 0.936220 -10.111741 42.764496
97 0 1 0.988705 -10.980941 42.398590
98 0 1 0.121594 -11.149341 41.926514
99 0 1 -0.762814 -10.663642 42.052795
100 0 1 -0.651752 -9.982841 41.314606
101 0 1 -1.391483 -9.608741 40.848907
102 0 1 -1.903433 -9.017241 41.354492
103 0 1 -2.344414 -8.216640 41.507507
104 0 1 -2.421312 -7.192690 41.296295
105 0 1 -2.842293 -7.121550 40.438690
106 0 1 -2.987713 -6.115901 40.464691
107 0 1 -3.129213 -6.274512 41.385590
108 0 1 -3.809134 -6.752612 40.886414
109 0 1 -4.794163 -6.619021 40.714691
110 0 1 -5.589403 -7.194420 41.092804
111 0 1 -6.104713 -7.651091 40.379303
112 0 1 -6.054274 -7.075470 39.515594
113 0 1 -6.974873 -7.245329 39.265900
114 0 1 -6.447773 -7.287871 38.497589
115 0 1 -6.191744 -8.268840 38.668610
116 0 1 -7.092154 -8.535741 38.985901
117 0 1 -6.535603 -8.514342 39.829590
118 0 1 -6.737694 -8.814141 40.693695
119 0 1 -6.279493 -8.711341 41.537506
120 0 1 -6.847033 -8.040341 41.961609
121 0 1 -7.654024 -7.619441 41.663391
122 0 1 -7.894804 -8.526240 41.670593
123 0 1 -7.789743 -8.354140 42.593292
124 0 1 -7.994993 -8.573642 43.477295
125 0 1 -7.208773 -9.090442 43.752289
126 0 1 -6.405874 -8.726741 43.993286
127 0 1 -6.406773 -8.884141 43.097900
128 0 1 -6.052443 -8.284541 42.527588
129 0 1 -5.597652 -7.573830 42.965088
130 0 1 -5.749702 -7.347182 43.955383
131 0 1 -6.478783 -6.853920 44.231995
132 0 1 -6.907642 -6.928130 43.249817
133 0 1 -7.319773 -6.228652 42.604187
134 0 1 -7.948593 -5.710101 43.168396
135 0 1 -7.520002 -5.613371 44.030609
136 0 1 -7.741533 -4.710480 44.153412
137 0 1 -8.400963 -4.148680 43.801208
138 0 1 -8.046793 -3.187442 43.890808
139 0 1 -7.297413 -2.564051 43.798889
140 0 1 -6.715113 -1.775941 43.832397
141 0 1 -6.459753 -1.710940 42.948792
142 0 1 -6.783884 -1.816771 42.004608
143 0 1 -6.984503 -1.522490 41.113312
144 0 1 -6.095913 -1.225430 41.391113
145 0 1 -5.518152 -0.633080 41.833191
146 0 1 -4.946453 -0.813981 42.564514
147 0 1 -4.187174 -0.764651 43.244202
148 0 1 -3.432583 -1.125750 42.777710
149 0 1 -2.607594 -1.181330 42.286713
150 0 1 -2.437902 -0.246852 42.377106
151 0 1 -1.554493 -0.545941 42.649200
152 0 1 -1.564882 0.158040 42.005615
153 0 1 -0.797394 -0.150820 41.555908
154 0 1 -0.311064 -0.632281 40.875092
155 0 1 0.157381 -0.366330 41.678589
156 0 1 0.662457 -0.818841 42.502502
157 0 1 1.476782 -0.460780 42.841888
158 0 1 2.342197 -0.885150 42.874298
159 0 1 2.302366 -0.109061 42.256409
160 0 1 1.927416 -0.209721 41.330292
161 0 1 1.711588 0.218170 40.502899
162 0 1 0.825626 -0.010831 40.405487
163 0 1 0.032152 -0.001422 39.849304
164 0 1 -0.778152 0.259889 40.230103
165 0 1 -0.495323 1.158313 40.212708
166 0 1 -0.074903 1.899160 40.529510
167 0 1 -0.343542 2.370792 41.313599
168 0 1 -1.194033 2.447637 41.022400
169 0 1 -1.508472 3.246879 40.478607
170 0 1 -0.910772 3.131339 39.814392
171 0 1 -0.328543 3.723729 40.342590
172 0 1 -0.019083 4.427358 40.862091
173 0 1 -0.313383 5.363599 40.947693
174 0 1 -1.142504 5.039739 41.211487
175 0 1 -1.400743 5.863828 41.657013
176 0 1 -0.990404 5.917970 42.468201
177 0 1 -0.938173 6.712461 42.966095
178 0 1 -0.545652 7.616491 42.986511
179 0 1 -0.729282 7.787351 42.041809
180 0 1 -1.609163 7.992971 42.369812
181 0 1 -1.686262 8.852468 41.868195
182 0 1 -1.101652 8.941159 42.632690
183 0 1 -0.191214 8.674039 42.834198
184 0 1 0.038672 9.403188 42.241394
185 0 1 -0.679613 10.092767 42.300293
186 0 1 -0.308273 11.017999 42.183289
187 0 1 -0.943804 11.729939 42.113586
188 0 1 -0.994343 11.802758 43.123810
189 0 1 -1.480022 12.643460 42.984009
190 0 1 -1.881674 12.857259 42.200989
191 0 1 -2.452623 12.277059 42.752686
192 0 1 -3.437033 12.334859 42.714203
193 0 1 -3.213793 11.392640 42.843994
194 0 1 -2.346212 11.050187 43.007507
195 0 1 -2.743914 10.339280 43.492310
196 0 1 -2.782743 9.408570 43.744904
197 0 1 -1.837442 9.219399 43.995392
198 0 1 -1.412283 9.821290 44.580994
199 0 1 -0.543352 9.666718 45.045410
200 0 1 -0.418432 10.329858 45.885712
201 0 1 0.157332 9.623460 46.040802
202 0 1 0.179359 8.677518 46.136993
203 0 1 0.228333 9.140740 47.016693
204 0 1 0.082398 9.414010 47.942810
205 0 1 0.002176 9.133409 48.834595
206 0 1 -0.265472 9.031419 49.751190
207 0 1 -0.376272 8.203958 50.275909
208 0 1 0.102840 8.842420 50.854797
209 0 1 0.881023 8.998490 51.348816
210 0 1 1.463228 8.301461 51.700592
211 0 1 2.462566 8.226369 51.676697
212 0 1 3.404257 8.413339 51.619690
213 0 1 4.298857 8.164140 51.264587
214 0 1 4.330236 9.067677 51.141510
215 0 1 4.545736 10.003369 51.252808
216 0 1 5.260126 10.688348 51.225800
217 0 1 6.011827 10.102979 51.052612
218 0 1 6.394049 11.025578 51.251801
219 0 1 6.388548 11.925790 50.759888
220 0 1 5.657518 12.469361 50.953003
221 0 1 5.261717 12.519559 50.055389
222 0 1 4.688738 12.355458 49.153900
223 0 1 5.214079 12.564759 48.344116
224 0 1 5.833426 13.277158 48.477600
225 0 1 6.173376 14.081857 48.904785
226 0 1 5.914957 15.020360 48.936798
227 0 1 5.455687 15.837258 49.041016
228 0 1 5.609945 16.150858 49.987701
229 0 1 5.120317 16.869661 50.585205
230 0 1 4.860098 16.660261 51.470093
231 0 1 4.462965 17.501261 51.187195
232 0 1 4.035398 17.499060 50.377289
233 0 1 3.727549 18.367960 50.380798
234 0 1 3.037527 19.008158 50.774200
235 0 1 2.898169 19.888559 50.409393
236 0 1 2.837168 20.196161 51.322998
237 0 1 3.483236 20.897562 51.324188
238 0 1 2.744207 21.597261 51.264709
239 0 1 1.974836 21.957560 50.872589
240 0 1 1.896297 22.799860 50.423492
241 0 1 2.154507 23.530863 49.833191
242 0 1 2.166218 24.229059 50.473297
243 0 1 2.927835 24.287561 49.946411
244 0 1 3.857336 24.107561 49.781311
245 0 1 4.165136 25.027460 49.869293
246 0 1 5.062078 25.279657 50.069397
247 0 1 4.987066 25.466761 49.090790
248 0 1 5.417265 25.266760 48.169006
249 0 1 6.393637 25.258459 48.157898
250 0 1 6.553896 24.869562 47.251801
251 0 1 6.984507 24.154459 46.668701
252 0 1 7.714846 23.770761 46.179810
253 0 1 8.676039 23.655161 46.290497
254 0 1 9.202967 22.874163 46.285309
255 0 1 9.863379 22.805059 47.000610
256 0 1 10.604048 23.442961 46.957794
257 0 1 11.143068 23.094461 46.273010
258 0 1 11.181566 22.210661 45.929688
259 0 1 10.528166 21.540560 46.249084
260 0 1 10.676378 21.021959 47.135010
261 0 1 10.504095 20.098761 47.135010
262 0 1 9.796518 19.423460 47.265106
263 0 1 9.700426 19.467562 46.339813
264 0 1 10.196646 19.880461 45.580994
265 0 1 10.746466 19.319162 46.233704
266 0 1 10.808805 19.013960 45.365692
267 0 1 11.312166 18.119261 45.337006
268 0 1 11.466166 17.942858 44.446411
269 0 1 12.373568 17.767962 44.491516
270 0 1 12.204668 16.851259 44.513489
271 0 1 12.937567 16.207960 44.691010
272 0 1 13.520369 15.690759 44.219116
273 0 1 14.214369 15.081159 43.883209
274 0 1 14.180769 14.177560 43.927002
275 0 1 13.719366 13.672360 44.694305
276 0 1 14.037565 14.295560 45.326813
277 0 1 13.455465 13.608060 45.757996
278 0 1 13.247969 14.537160 46.023895
279 0 1 13.858366 14.934861 46.681610
280 0 1 14.321566 14.422460 47.421295
281 0 1 15.244566 14.609559 47.236603
282 0 1 16.147268 14.356057 46.982697
283 0 1 16.978865 14.182260 47.526001
284 0 1 17.180365 14.819657 46.933807
285 0 1 18.056868 15.312959 46.916687
286 0 1 18.091967 16.169859 47.382507
287 0 1 18.279165 16.666761 46.597290
288 0 1 17.864767 17.531759 46.788605
289 0 1 17.231070 17.867659 46.069000
290 0 1 16.458769 17.310762 45.865112
291 0 1 15.763067 16.885359 45.387207
292 0 1 16.429766 16.711760 44.807587
293 0 1 16.750166 15.850961 44.529907
294 0 1 17.490469 15.633359 45.043213
295 0 1 17.790667 15.298059 45.862610
296 0 1 18.318968 14.505860 46.251587
297 0 1 19.149565 14.918160 46.009003
298 0 1 19.033468 14.013658 45.789001
299 0 1 19.069067 13.122960 45.957306
300 0 1 19.558966 12.290158 45.746307
301 0 1 20.069868 11.646199 45.239899
302 0 1 19.254469 11.211499 45.042511
303 0 1 19.270765 10.236760 45.237091
304 0 1 19.223467 10.459771 44.330505
305 0 1 18.556067 9.837571 43.937012
306 0 1 17.640265 9.831948 44.011292
307 0 1 17.135866 10.564160 43.596191
308 0 1 16.737368 10.376061 42.766388
309 0 1 17.159567 9.609380 42.266388
310 0 1 16.873766 8.644929 42.215302
311 0 1 17.223066 7.771661 42.207611
312 0 1 16.948065 7.227640 41.465393
313 0 1 15.972769 6.928140 41.556885
314 0 1 15.333265 7.432539 42.098511
315 0 1 14.483366 7.705141 41.760712
316 0 1 13.603865 7.864259 42.131287
317 0 1 13.560068 7.382471 41.264313
318 0 1 12.830267 7.085489 41.801697
319 0 1 12.028566 6.570699 41.931213
320 0 1 11.716166 6.271490 42.805298
321 0 1 11.891268 5.408670 42.290405
322 0 1 11.163565 5.578889 41.668884
323 0 1 10.205248 5.365388 41.412109
324 0 1 10.192896 6.287271 41.123993
325 0 1 10.927275 6.226709 40.562897
326 0 1 11.406569 5.429750 40.300690
327 0 1 11.942167 4.860769 39.706116
328 0 1 12.048269 3.952050 39.454895
329 0 1 11.554365 3.389089 40.149994
330 0 1 10.825758 2.855771 39.857391
331 0 1 9.859247 2.648345 39.697510
332 0 1 9.046827 2.435014 40.213013
333 0 1 9.105486 1.859456 39.473511
334 0 1 8.957006 2.352821 38.694794
335 0 1 8.013815 2.242664 38.531006
336 0 1 7.243185 2.551900 38.102905
337 0 1 6.701246 1.783140 38.339294
338 0 1 7.479216 1.455772 38.913300
339 0 1 6.654436 1.170942 39.275604
340 0 1 5.790228 0.995427 38.904602
341 0 1 5.554777 0.062469 39.150391
342 0 1 5.150877 -0.795880 39.571594
343 0 1 4.896128 -1.280980 40.314789
344 0 1 4.085775 -0.768620 40.323303
345 0 1 3.158026 -1.070262 40.489685
346 0 1 3.128077 -0.921851 41.489105
347 0 1 3.790377 -1.637950 41.370392
348 0 1 4.636938 -1.502410 41.680206
349 0 1 4.649446 -0.477011 42.116699
350 0 1 3.806158 -0.086171 42.495087
351 0 1 3.718107 0.792720 42.770996
352 0 1 3.416998 1.609899 42.429901
353 0 1 4.095758 2.323489 42.493286
354 0 1 4.606646 3.080869 42.821106
355 0 1 4.727118 3.745950 42.170502
356 0 1 4.952238 4.651731 42.386810
357 0 1 5.489748 4.855039 43.195892
358 0 1 4.767355 4.911291 43.772888
359 0 1 5.017378 4.410169 44.555389
360 0 1 4.984758 4.442510 45.472290
361 0 1 5.847746 4.770708 45.565491
362 0 1 6.251348 5.006860 46.444214
363 0 1 5.726175 5.031049 47.376099
364 0 1 5.987585 4.885709 48.266388
365 0 1 6.057718 5.763460 48.760101
366 0 1 6.887526 6.150518 48.719513
367 0 1 7.819029 6.356348 48.589508
368 0 1 8.613035 6.707979 49.054413
369 0 1 7.874826 7.313760 49.206909
370 0 1 8.079977 8.043241 48.671600
371 0 1 8.761316 8.437589 48.076691
372 0 1 9.423758 9.023038 47.717896
373 0 1 9.331488 9.600289 48.501312
374 0 1 9.978346 9.961820 47.882507
375 0 1 10.861036 9.959119 47.596802
376 0 1 11.202566 10.016717 46.719116
377 0 1 10.388235 10.222859 46.186188
378 0 1 10.745958 10.882241 45.563110
379 0 1 9.896345 10.658399 45.166687
380 0 1 9.344427 10.114720 45.764191
381 0 1 9.448835 10.915757 46.225006
382 0 1 9.069189 11.374928 45.468994
383 0 1 8.867868 11.947671 46.276184
384 0 1 8.024809 12.230660 46.679993
385 0 1 7.822847 11.807809 45.864288
386 0 1 7.527437 11.151650 46.372711
387 0 1 7.606039 10.425908 45.702911
388 0 1 7.033297 9.792500 46.097595
389 0 1 6.087385 9.624978 45.881989
390 0 1 5.301157 10.213010 45.757202
391 0 1 4.825438 9.601327 45.174896
392 0 1 4.467775 8.984700 45.839203
393 0 1 3.772165 8.220120 45.784210
394 0 1 4.302347 7.747930 45.140106
395 0 1 4.631258 7.097570 44.514496
396 0 1 5.373297 7.057088 43.825684
397 0 1 4.922056 7.002939 42.904694
398 0 1 4.871458 7.195329 41.960815
399 0 1 4.656008 8.103730 41.985809
400 0 1 5.113539 8.032979 41.160004
401 0 1 5.858938 8.240159 41.664001
402 0 1 6.134066 9.117127 42.022888
403 0 1 6.161955 9.386018 41.096588
404 0 1 6.212866 8.980500 40.179993
405 0 1 5.581396 9.700818 40.038513
406 0 1 5.544706 10.441808 39.474701
407 0 1 5.553617 11.397790 39.663086
408 0 1 4.670038 11.190019 39.962097
409 0 1 3.940096 11.803700 39.826813
410 0 1 4.232038 12.020761 40.774597
411 0 1 3.816545 12.706559 40.134308
412 0 1 3.779509 13.092660 41.041809
413 0 1 3.455946 13.530358 41.849396
414 0 1 3.082556 12.990159 42.546692
415 0 1 2.622046 13.846158 42.716187
416 0 1 2.903585 14.797360 42.593506
417 0 1 3.330397 14.502458 43.406097
418 0 1 4.255526 14.503861 43.197601
419 0 1 4.172777 13.550057 43.083801
420 0 1 4.519308 12.756761 43.548187
421 0 1 4.904856 11.879647 43.313416
422 0 1 5.244268 11.174981 42.730286
423 0 1 5.852957 11.836110 42.516510
424 0 1 5.748968 11.408528 41.631409
425 0 1 5.711946 11.911851 40.821503
426 0 1 6.172697 12.394357 40.080292
427 0 1 6.627058 13.048459 40.576813
428 0 1 6.500418 13.283460 39.642883
429 0 1 6.303026 14.104058 39.206909
430 0 1 6.263506 13.394258 38.548309
431 0 1 5.595018 13.006959 37.968994
432 0 1 4.972437 13.347161 38.585907
433 0 1 5.300196 14.204560 38.639496
434 0 1 4.466467 14.478158 39.057007
435 0 1 4.570295 15.003358 38.284302
436 0 1 4.705198 15.466157 39.203186
437 0 1 4.684328 16.495359 39.351685
438 0 1 5.112219 17.157560 39.934814
439 0 1 6.062258 17.177858 39.792908
440 0 1 5.790007 17.832060 39.098206
441 0 1 6.589518 18.460859 39.264893
442 0 1 6.528677 19.338358 38.935394
443 0 1 7.190546 19.292063 38.146606
444 0 1 7.216776 18.821760 37.338104
445 0 1 7.377218 17.925058 37.578186
446 0 1 7.762587 17.821459 36.710297
447 0 1 6.952826 17.499861 36.299194
448 0 1 6.098715 17.424360 36.798706
449 0 1 6.024298 18.224760 37.395996
450 0 1 5.172148 18.439562 37.783997
451 0 1 5.037706 18.083162 36.883606
452 0 1 5.009787 17.160158 36.712311
453 0 1 4.499556 16.776262 37.436707
454 0 1 3.589636 16.628458 37.490784
455 0 1 3.142038 15.755158 37.741608
456 0 1 2.294928 15.351060 37.754395
457 0 1 1.315489 15.250760 37.756104
458 0 1 0.457922 15.553960 37.274902
459 0 1 0.921242 15.548459 36.400391
460 0 1 0.970028 15.400460 35.459290
461 0 1 0.299927 16.143461 35.447388
462 0 1 0.628309 16.951159 35.857605
463 0 1 0.274763 17.640860 36.437012
464 0 1 0.646948 18.137758 35.641907
465 0 1 0.386074 18.728357 34.963501
466 0 1 1.234257 19.037859 34.623688
467 0 1 1.639774 19.736361 35.176788
468 0 1 0.949513 19.570559 35.835999
469 0 1 0.833902 20.481058 36.163208
470 0 1 -0.041532 20.374163 36.486206
471 0 1 -0.142483 19.336260 36.582214
472 0 1 -0.530422 19.339762 35.721008
473 0 1 -1.155092 18.581060 35.629395
474 0 1 -1.932484 18.791559 36.244904
475 0 1 -2.439882 19.653460 36.093811
476 0 1 -3.292393 19.994661 36.250305
477 0 1 -3.469833 19.541861 37.096008
478 0 1 -2.765493 20.123461 37.387909
479 0 1 -2.542322 20.527960 38.180908
480 0 1 -1.790102 20.180460 37.659607
481 0 1 -0.824352 19.985163 37.661713
482 0 1 -0.291014 20.767561 37.922699
483 0 1 0.639006 20.549257 37.962799
484 0 1 0.747234 19.659861 37.614014
485 0 1 1.305826 19.230959 38.453003
486 0 1 1.691774 19.502558 39.333405
487 0 1 2.361217 20.170660 39.012390
488 0 1 2.350786 20.983362 38.495911
489 0 1 2.907167 21.549761 37.942017
490 0 1 2.607595 22.299662 38.459503
491 0 1 2.917406 21.928461 39.265015
492 0 1 3.251986 22.250559 40.095001
493 0 1 3.959627 22.254763 40.700806
494 0 1 4.766237 22.370462 41.296509
495 0 1 5.549955 21.860460 41.653687
496 0 1 5.186678 20.860361 41.695984
497 0 1 4.926256 20.189463 42.288300
498 0 1 4.696638 20.431959 43.217987
499 0 1 3.856638 20.272261 43.632690
500 0 1 3.634607 20.955259 44.367493
501 0 1 3.645208 21.365061 45.212189
502 0 1 2.978289 21.472261 45.907410
503 0 1 3.246458 22.387461 45.724091
504 0 1 3.330736 23.148661 46.325500
505 0 1 2.633879 23.352560 47.011292
506 0 1 2.878668 23.794359 47.903015
507 0 1 1.953629 24.021761 47.869110
508 0 1 2.448156 24.739862 47.634399
509 0 1 3.290655 24.569059 47.307587
510 0 1 3.178827 25.240561 46.654510
511 0 1 3.217688 26.099962 46.218506
512 0 1 3.327936 27.014162 45.882996
513 0 1 2.491917 26.711458 45.596893
514 0 1 3.000425 26.124960 44.995392
515 0 1 3.592798 26.485861 44.321106
516 0 1 3.621878 27.424562 44.283905
517 0 1 3.931768 28.212160 43.726990
518 0 1 3.666006 28.209963 42.776611
519 0 1 3.140188 27.942461 42.028107
520 0 1 3.486547 28.407660 41.264893
521 0 1 4.006018 28.326059 40.479797
522 0 1 3.847017 28.751459 39.640015
523 0 1 3.313055 29.011759 38.876587
524 0 1 3.922506 28.790857 38.142212
525 0 1 4.187246 27.938761 37.808594
526 0 1 5.097467 27.807459 37.569397
527 0 1 5.130976 27.264761 36.761292
528 0 1 4.204126 27.586760 36.654205
529 0 1 3.638235 27.683359 35.844391
530 0 1 4.081217 26.888060 35.677612
531 0 1 3.856348 26.042261 35.278503
532 0 1 3.185968 25.488459 34.828094
533 0 1 2.802866 24.855261 34.294983
534 0 1 3.280188 24.023661 34.094604
535 0 1 2.794828 23.790361 33.330597
536 0 1 2.018942 24.346361 33.495209
537 0 1 2.187298 25.303263 33.291901
538 0 1 1.588810 25.754763 33.861389
539 0 1 2.021326 26.443262 33.360107
540 0 1 1.581577 27.029760 32.673096
541 0 1 1.971951 27.754961 33.154388
542 0 1 2.370296 27.416162 33.991516
543 0 1 3.244825 27.881060 33.986908
544 0 1 4.020208 28.406759 33.903809
545 0 1 4.814157 28.868258 33.689789
546 0 1 4.481169 29.693857 34.076813
547 0 1 3.737837 29.696760 34.611694
548 0 1 2.808275 29.756159 34.478302
549 0 1 2.246126 29.835260 33.722107
550 0 1 1.451801 30.233957 34.053802
551 0 1 0.757761 30.078562 34.706207
552 0 1 0.029463 29.461660 34.508209
553 0 1 -0.863983 29.079561 34.459595
554 0 1 -1.125494 28.141062 34.407593
555 0 1 -1.208464 27.187761 34.692413
556 0 1 -1.994463 26.976259 35.185394
557 0 1 -1.859833 26.083860 34.993195
558 0 1 -1.458313 25.324160 34.612000
559 0 1 -2.086163 24.712259 34.972595
560 0 1 -2.971943 24.811861 34.674011
561 0 1 -3.101023 24.241560 33.930298
562 0 1 -3.040583 23.775461 33.124390
563 0 1 -3.319242 23.705660 32.182190
564 0 1 -4.071302 23.155359 32.334290
565 0 1 -4.770702 22.815260 32.830597
566 0 1 -5.090082 23.421358 32.097595
567 0 1 -5.746063 23.263559 32.806396
568 0 1 -6.367323 23.044359 32.134094
569 0 1 -7.227072 22.824862 32.497192
570 0 1 -7.045683 21.950560 32.887085
571 0 1 -7.600653 21.379358 32.403595
572 0 1 -8.160633 21.145361 31.652100
573 0 1 -7.824034 20.410059 31.065491
574 0 1 -7.271933 19.683062 30.738403
575 0 1 -6.729834 18.867460 30.477692
576 0 1 -5.949923 18.576059 30.988007
577 0 1 -5.291323 18.024462 31.420990
578 0 1 -4.745474 17.283762 31.860107
579 0 1 -5.210043 17.017458 31.012695
580 0 1 -4.653242 16.984159 30.215210
581 0 1 -4.940693 17.318060 29.388611
582 0 1 -5.579403 17.327959 28.668793
583 0 1 -6.483063 17.032461 28.797607
584 0 1 -5.762623 16.433962 29.219788
585 0 1 -6.238033 15.646958 28.851593
586 0 1 -5.728283 15.359559 28.116608
587 0 1 -5.243933 16.085558 27.734314
588 0 1 -5.290792 16.529261 26.858795
589 0 1 -5.697474 15.852258 26.310089
590 0 1 -5.142643 16.143862 25.565491
591 0 1 -4.506723 15.619359 26.045502
592 0 1 -3.831123 15.361558 26.684601
593 0 1 -3.354464 15.939260 26.096100
594 0 1 -3.233664 16.810762 25.737915
595 0 1 -2.286943 17.003862 25.732697
596 0 1 -1.843723 17.586962 25.123199
597 0 1 -2.627443 17.036760 24.725006
598 0 1 -2.207413 16.974360 23.871704
599 0 1 -1.349764 16.556360 23.919586
600 0 1 -0.849434 16.757860 24.675201
601 0 1 0.043657 16.545660 24.780792
602 0 1 0.703718 15.834859 24.537994
603 0 1 1.235485 15.556558 25.282898
604 0 1 1.014095 15.807160 26.191010
605 0 1 1.207598 16.733259 26.116302
606 0 1 0.322941 16.605562 25.905487
607 0 1 -0.062483 17.140360 26.613312
608 0 1 0.689247 16.828661 27.130798
609 0 1 1.626247 16.781458 27.367310
610 0 1 1.224375 15.879159 27.380005
611 0 1 0.471621 15.335557 27.448212
612 0 1 -0.069122 15.028161 28.128998
613 0 1 -0.390663 14.232060 27.724396
614 0 1 -0.598043 14.348458 28.709595
615 0 1 -0.090893 14.258458 29.496216
616 0 1 0.685938 14.642457 29.747986
617 0 1 0.895535 13.771459 30.251007
618 0 1 0.481909 13.098359 29.621796
619 0 1 -0.255773 13.000260 30.265991
620 0 1 -0.913683 12.813458 29.596191
621 0 1 -1.398323 11.932729 29.553192
622 0 1 -0.866533 11.723119 28.756195
623 0 1 -0.926264 11.195630 28.009094
624 0 1 -1.152863 10.377210 28.490112
625 0 1 -1.541893 9.689538 27.901611
626 0 1 -2.405293 10.068540 27.904907
627 0 1 -2.439484 9.046479 27.886810
628 0 1 -2.936132 8.707528 28.588409
629 0 1 -3.529272 8.750920 29.329590
630 0 1 -3.553564 7.892419 29.823486
631 0 1 -4.431273 7.515958 29.798889
632 0 1 -4.821962 6.658060 29.609894
633 0 1 -4.426012 6.194341 28.836487
634 0 1 -4.671274 5.208818 28.868896
635 0 1 -4.598974 4.563081 29.627808
636 0 1 -5.483143 4.268999 29.672394
637 0 1 -5.681944 3.760598 28.927307
638 0 1 -6.598473 3.531999 28.957306
639 0 1 -6.644823 2.906944 28.163208
640 0 1 -7.062704 3.805158 27.963013
641 0 1 -8.003824 3.827821 27.669006
642 0 1 -8.310013 3.557798 26.748108
643 0 1 -8.402973 3.762250 25.811188
644 0 1 -7.618704 3.256950 25.447998
645 0 1 -8.383654 2.691797 25.145386
646 0 1 -8.828823 2.298530 24.346497
647 0 1 -9.636633 2.770791 24.546387
648 0 1 -10.073732 1.947528 24.578705
649 0 1 -10.636034 2.091367 25.339691
650 0 1 -9.902033 2.269719 25.974701
651 0 1 -10.279333 1.388742 26.225006
652 0 1 -11.013132 0.866790 26.526886
653 0 1 -11.070133 0.195930 25.869995
654 0 1 -11.736433 -0.526450 25.726807
655 0 1 -12.629034 -0.791710 25.404114
656 0 1 -12.553434 -0.894360 26.317505
657 0 1 -11.916834 -0.998360 27.093109
658 0 1 -11.954634 -0.159110 27.526184
659 0 1 -12.198534 -0.139630 28.403198
660 0 1 -12.082233 0.738870 28.076813
661 0 1 -11.332033 0.777929 28.675110
662 0 1 -10.556633 1.084577 28.243591
663 0 1 -9.614832 1.214887 28.317291
664 0 1 -9.186234 0.510150 27.694702
665 0 1 -8.979334 1.430301 27.422485
666 0 1 -8.119314 1.433313 26.918213
667 0 1 -8.219543 0.486059 26.592285
668 0 1 -8.157843 -0.067191 27.434998
669 0 1 -8.607344 -0.679671 27.969116
670 0 1 -8.978733 -1.490481 27.734100
671 0 1 -8.766863 -2.435071 27.676697
672 0 1 -9.590933 -2.761521 27.998688
673 0 1 -9.776133 -2.082471 28.621094
674 0 1 -10.110434 -1.259711 28.822510
675 0 1 -10.344034 -0.268290 28.793793
676 0 1 -9.470034 -0.151381 29.063110
677 0 1 -9.361433 -0.832331 29.767090
678 0 1 -8.974054 -0.954011 30.687500
679 0 1 -9.095333 -1.858861 30.969116
680 0 1 -9.754534 -2.549710 30.999207
681 0 1 -9.792032 -2.714101 31.927307
682 0 1 -9.217432 -3.486581 32.088409
683 0 1 -8.261993 -3.816031 32.140686
684 0 1 -7.790934 -3.605431 31.365295
685 0 1 -7.161554 -3.124001 30.774414
686 0 1 -7.808634 -3.552481 30.252197
687 0 1 -7.585024 -4.359440 30.699890
688 0 1 -7.474642 -5.275931 30.495697
689 0 1 -7.502743 -5.237120 29.523193
690 0 1 -8.417543 -5.658770 29.656006
691 0 1 -9.276934 -5.883872 29.938995
692 0 1 -9.948332 -6.537070 29.627289
693 0 1 -10.313032 -7.341521 29.286804
694 0 1 -11.085033 -7.166770 28.772308
695 0 1 -11.732634 -7.329831 29.463684
696 0 1 -12.170534 -7.833972 28.756409
697 0 1 -12.882734 -7.360341 29.258209
698 0 1 -13.565434 -6.812140 28.960205
699 0 1 -13.565333 -6.084441 28.283600
700 0 1 -13.737433 -5.201710 27.922089
701 0 1 -14.378133 -4.535670 28.218109
702 0 1 -15.332533 -4.825871 28.560913
703 0 1 -15.884933 -5.625090 28.216705
704 0 1 -16.497032 -6.226531 28.584290
705 0 1 -16.405533 -5.835921 29.471008
706 0 1 -17.222033 -5.426100 29.755615
707 0 1 -17.698233 -4.599110 29.709900
708 0 1 -17.565332 -3.656781 29.366089
709 0 1 -18.134634 -3.652310 28.547485
710 0 1 -17.746033 -2.868750 28.156006
711 0 1 -17.964933 -3.279151 27.307587
712 0 1 -17.651333 -3.900801 26.650909
713 0 1 -16.774233 -3.929080 27.130798
714 0 1 -15.968634 -4.290881 27.519287
715 0 1 -15.466034 -4.626070 26.816010
716 0 1 -14.776134 -4.513600 26.136810
717 0 1 -14.253133 -4.169520 25.391998
718 0 1 -13.994534 -3.331330 25.741302
719 0 1 -14.940933 -3.085030 25.815887
720 0 1 -15.464832 -2.437131 25.365387
721 0 1 -15.612932 -2.462250 24.463501
722 0 1 -14.702833 -2.359210 24.341797
723 0 1 -14.001033 -2.638510 23.722687
724 0 1 -13.951733 -2.029330 23.035614
725 0 1 -13.604533 -1.183241 22.856995
726 0 1 -13.620234 -1.222750 21.827103
727 0 1 -13.615733 -1.913361 21.163208
728 0 1 -13.894833 -2.538300 20.528595
729 0 1 -14.169433 -3.238162 21.123199
730 0 1 -15.114532 -3.209841 20.858994
731 0 1 -15.587334 -4.027451 20.660095
732 0 1 -15.363234 -3.547440 19.791306
733 0 1 -15.340433 -3.346951 18.856094
734 0 1 -15.063732 -2.973460 17.987595
735 0 1 -15.465834 -3.766650 17.743103
736 0 1 -15.974033 -3.277980 17.031906
737 0 1 -16.300533 -2.422831 16.944305
738 0 1 -17.109934 -2.333930 16.476807
739 0 1 -17.325832 -1.397380 16.461105
740 0 1 -17.412434 -0.402920 16.250000
741 0 1 -17.540434 0.551780 16.048798
742 0 1 -16.801634 1.214492 15.949401
743 0 1 -16.132833 1.234300 15.206206
744 0 1 -15.738132 0.783399 16.040894
745 0 1 -14.827133 0.575399 15.707397
746 0 1 -14.054934 0.757760 16.236801
747 0 1 -13.522833 1.380193 15.723296
748 0 1 -13.461233 0.554040 15.208007
749 0 1 -13.589733 -0.363021 14.861999
750 0 1 -12.886133 0.089160 14.408996
751 0 1 -13.195032 -0.496260 13.559402
752 0 1 -12.905432 0.377839 13.253692
753 0 1 -12.797132 1.307861 13.118300
754 0 1 -13.544733 1.371354 12.466399
755 0 1 -14.104033 0.601219 12.503402
756 0 1 -15.044832 0.645309 12.126693
757 0 1 -15.248333 1.602556 12.327804
758 0 1 -15.952932 1.140483 12.791503
759 0 1 -16.647533 1.673181 13.170806
760 0 1 -17.380533 1.847772 12.557998
761 0 1 -17.492233 1.215028 13.276198
762 0 1 -17.215433 0.314319 13.257598
763 0 1 -16.908533 0.390769 12.289504
764 0 1 -16.648832 1.010541 11.601699
765 0 1 -16.191334 1.473020 10.849792
766 0 1 -15.285334 1.090793 10.613799
767 0 1 -14.575533 1.137277 11.182693
768 0 1 -14.094333 1.303193 10.417998
769 0 1 -14.086233 2.210250 10.796905
770 0 1 -13.467533 2.588027 10.165404
771 0 1 -13.226833 1.690708 9.764174
772 0 1 -12.430132 1.662773 9.203750
773 0 1 -12.070633 2.391834 8.543242
774 0 1 -11.840633 3.007760 9.302245
775 0 1 -11.284733 2.479608 9.836043
776 0 1 -10.705732 1.690832 9.926406
777 0 1 -10.613033 1.782989 10.840606
778 0 1 -9.808332 1.893867 11.346602
779 0 1 -8.918234 2.149461 11.114593
780 0 1 -9.000933 2.841716 10.500304
781 0 1 -9.473734 2.852184 9.628646
782 0 1 -9.165533 3.645231 9.094802
783 0 1 -8.542673 3.752118 9.827804
784 0 1 -7.692593 3.661218 9.475265
785 0 1 -7.423662 2.760328 9.423766
786 0 1 -6.846724 3.088269 8.734008
787 0 1 -6.109892 3.632318 8.333251
788 0 1 -5.686024 4.077569 7.460647
789 0 1 -5.470413 3.158279 7.343719
790 0 1 -6.337933 2.671670 7.257689
791 0 1 -6.991594 1.980338 7.123717
792 0 1 -7.780603 2.187797 7.692412
793 0 1 -8.081413 1.351865 7.224013
794 0 1 -8.546812 1.350589 8.043044
795 0 1 -9.139133 1.533702 8.798873