LAMMPS data file via MDAnalysis

        2000  atoms
        1999  bonds
           0  angles
           0  dihedrals
           0  impropers

           1  atom types
           1  bond types
           0  angle types
           0  dihedral types
           0  improper types

-30.5 30.5 xlo xhi
-30.5 30.5 ylo yhi
-233.5 233.5 zlo zhi


Masses

1 1.000000

Atoms

1 0 1 -18.744839 16.006563 43.889709
2 0 1 -18.291039 16.040667 44.791595
3 0 1 -17.410439 15.608964 44.570190
4 0 1 -17.210239 15.400365 45.500305
5 0 1 -16.571739 15.171765 46.136108
6 0 1 -17.100439 14.681066 46.758911
7 0 1 -17.913939 14.609765 46.292511
8 0 1 -18.566339 14.100865 46.751312
9 0 1 -18.154139 13.252564 46.738312
10 0 1 -17.500639 12.817365 47.292297
11 0 1 -17.095339 11.979432 47.363892
12 0 1 -17.079140 12.382813 46.495392
13 0 1 -16.801739 11.801232 45.805908
14 0 1 -17.539238 11.411675 45.325989
15 0 1 -18.158539 11.909486 44.745789
16 0 1 -18.573738 11.101136 44.497803
17 0 1 -19.152439 10.391984 44.131012
18 0 1 -20.021738 10.001073 44.148590
19 0 1 -19.613338 9.711465 45.019592
20 0 1 -20.039740 9.520494 45.899506
21 0 1 -19.518740 8.995294 46.483612
22 0 1 -18.738138 8.535863 46.069702
23 0 1 -18.505039 8.076283 46.903687
24 0 1 -18.679539 7.312215 46.312500
25 0 1 -19.537939 6.888315 45.970886
26 0 1 -19.819139 7.311895 45.081116
27 0 1 -18.999939 6.841054 44.892303
28 0 1 -18.489840 6.025995 44.886414
29 0 1 -17.833239 6.665697 45.236389
30 0 1 -16.893238 6.895666 45.505188
31 0 1 -16.113140 6.709604 44.952087
32 0 1 -15.610740 6.275983 45.660309
33 0 1 -15.252740 7.086385 45.968292
34 0 1 -14.651940 6.421953 46.342712
35 0 1 -14.283441 6.336473 45.472412
36 0 1 -14.265939 5.886514 44.597504
37 0 1 -14.721740 6.237306 43.790405
38 0 1 -15.663139 6.145647 43.647003
39 0 1 -15.439040 6.723505 42.923706
40 0 1 -14.688040 7.225374 43.057190
41 0 1 -14.362039 8.139714 43.219116
42 0 1 -13.780240 8.239305 43.994110
43 0 1 -14.474240 8.968183 44.230499
44 0 1 -15.063940 9.306973 43.474487
45 0 1 -15.336040 9.743203 42.583405
46 0 1 -14.985340 10.401673 43.187103
47 0 1 -14.786039 10.983964 43.954010
48 0 1 -14.686240 11.335496 44.787903
49 0 1 -14.346539 12.141763 45.202911
50 0 1 -14.985539 12.822366 45.432983
51 0 1 -15.162840 13.182065 46.331512
52 0 1 -14.238540 13.230763 46.704712
53 0 1 -13.818139 14.143167 46.824585
54 0 1 -14.278241 14.551362 46.063202
55 0 1 -13.555341 15.306066 45.766388
56 0 1 -13.647840 15.722165 46.697601
57 0 1 -13.861741 16.575068 47.059387
58 0 1 -14.789539 16.251165 46.982605
59 0 1 -14.558740 16.189867 47.925690
60 0 1 -14.214540 16.598265 48.698212
61 0 1 -14.439139 17.348166 49.300903
62 0 1 -14.194539 18.182966 48.873901
63 0 1 -14.120040 18.593866 47.999298
64 0 1 -13.534341 19.077364 48.615906
65 0 1 -13.231641 19.986265 48.621094
66 0 1 -12.682439 19.849268 47.851105
67 0 1 -12.466741 20.772966 47.973206
68 0 1 -12.120339 21.657965 47.947693
69 0 1 -11.838840 22.583567 47.860107
70 0 1 -11.603539 23.422865 48.299408
71 0 1 -11.319840 24.192064 48.792786
72 0 1 -10.447040 23.771166 48.522583
73 0 1 -9.664121 23.433764 48.089203
74 0 1 -9.017579 22.845766 47.780396
75 0 1 -8.402610 22.155966 47.690704
76 0 1 -7.655950 21.611864 47.156891
77 0 1 -6.838840 21.733065 46.576599
78 0 1 -7.262090 22.555964 46.966400
79 0 1 -6.590501 23.152666 46.657288
80 0 1 -7.228890 23.748064 47.012787
81 0 1 -6.516820 24.423666 47.110107
82 0 1 -6.581319 24.067965 48.011597
83 0 1 -6.500379 23.492765 48.852997
84 0 1 -7.170840 23.095964 49.378784
85 0 1 -7.100329 23.844767 49.967987
86 0 1 -6.253060 24.126665 49.576416
87 0 1 -5.313640 24.428667 49.680695
88 0 1 -4.454129 24.614466 50.193298
89 0 1 -4.471219 25.395067 49.619995
90 0 1 -4.431569 25.853968 50.463501
91 0 1 -4.369840 26.677668 51.005402
92 0 1 -4.514300 27.115866 51.921600
93 0 1 -5.407729 26.975267 51.590393
94 0 1 -5.335919 27.706465 52.309387
95 0 1 -4.807860 28.429464 52.641907
96 0 1 -3.932380 28.226267 52.310303
97 0 1 -3.431050 27.450365 52.085907
98 0 1 -3.523730 27.252367 53.077515
99 0 1 -3.618619 27.491465 53.994293
100 0 1 -3.012059 28.274965 53.852905
101 0 1 -3.696500 28.839766 53.428009
102 0 1 -3.742761 29.538565 52.792908
103 0 1 -2.829539 29.696962 52.901001
104 0 1 -2.545560 30.268965 52.168304
105 0 1 -2.090930 29.925463 51.320496
106 0 1 -1.389920 30.464663 50.938995
107 0 1 -1.172589 31.322268 50.566589
108 0 1 -1.583030 31.595465 49.666687
109 0 1 -0.925639 32.116962 49.123810
110 0 1 -0.447104 31.324663 49.077301
111 0 1 -0.944596 30.590464 49.441101
112 0 1 -1.089818 29.785868 48.916016
113 0 1 -0.576118 29.470366 48.073212
114 0 1 -0.234702 30.113466 47.462097
115 0 1 -0.009137 30.790865 46.802795
116 0 1 0.362943 29.869867 46.620789
117 0 1 0.775662 30.301264 47.349304
118 0 1 1.164500 31.211164 47.389191
119 0 1 1.360740 31.038767 48.299408
120 0 1 1.880301 30.660563 49.008484
121 0 1 2.200290 29.727865 48.902588
122 0 1 1.966430 29.331766 49.723389
123 0 1 2.790450 28.956568 50.074890
124 0 1 2.445632 28.698866 50.907715
125 0 1 1.865012 29.071466 51.605408
126 0 1 1.115550 28.571466 51.973694
127 0 1 0.219365 28.611467 52.337189
128 0 1 -0.504901 28.079664 51.937897
129 0 1 -0.205403 27.168566 52.114807
130 0 1 -0.963761 26.886065 51.543488
131 0 1 -0.836995 26.494665 50.635590
132 0 1 -1.504270 26.616167 49.958801
133 0 1 -0.586595 26.588762 49.471710
134 0 1 -0.482368 26.579466 48.533905
135 0 1 -0.365623 25.842463 47.943115
136 0 1 -0.871127 25.366068 47.242310
137 0 1 -0.542724 25.546865 46.423492
138 0 1 -1.449950 25.371866 46.179901
139 0 1 -1.399390 25.793665 45.272705
140 0 1 -0.575105 25.441767 44.825806
141 0 1 0.000651 24.706766 44.732605
142 0 1 0.848380 24.329565 44.953308
143 0 1 1.339049 24.397566 45.789093
144 0 1 1.950130 25.069963 46.058105
145 0 1 2.738132 24.569567 46.221802
146 0 1 2.609801 24.175165 45.358002
147 0 1 3.436900 23.860765 45.090607
148 0 1 3.039062 23.213465 44.369904
149 0 1 3.295131 22.295065 44.349915
150 0 1 2.568011 21.700068 44.129089
151 0 1 2.971732 20.847765 44.302704
152 0 1 2.416282 20.166265 44.612915
153 0 1 2.413630 19.307863 45.036713
154 0 1 2.156360 18.847364 44.256989
155 0 1 1.236270 19.109865 44.404785
156 0 1 0.981120 19.917665 44.721710
157 0 1 1.249370 20.609865 45.302307
158 0 1 1.691722 21.324167 45.813416
159 0 1 1.179700 22.070963 45.579285
160 0 1 0.790736 22.957766 45.491211
161 0 1 0.777865 23.239367 44.541504
162 0 1 0.628745 23.115168 43.590698
163 0 1 0.314919 23.372667 42.727600
164 0 1 0.232268 24.392466 42.770508
165 0 1 0.802825 24.322966 41.960205
166 0 1 0.013783 24.837168 41.708099
167 0 1 0.066403 24.674364 40.725189
168 0 1 0.222632 25.240267 39.970703
169 0 1 -0.699784 25.573366 39.864410
170 0 1 -0.944442 25.992067 39.035583
171 0 1 -1.768689 25.907465 39.605804
172 0 1 -2.369830 26.655966 39.593292
173 0 1 -2.943370 26.347364 40.294006
174 0 1 -3.258161 25.889364 41.032715
175 0 1 -3.792380 25.196264 41.343597
176 0 1 -3.446099 24.305964 41.602509
177 0 1 -3.316791 23.964067 42.468201
178 0 1 -3.325049 23.238863 43.144714
179 0 1 -3.662370 22.895365 43.958405
180 0 1 -3.968659 22.123365 43.358490
181 0 1 -4.369300 21.879763 42.538605
182 0 1 -5.182910 21.631166 42.027588
183 0 1 -5.876119 21.276964 42.651794
184 0 1 -5.658259 20.412264 42.373901
185 0 1 -6.570251 20.179766 42.046600
186 0 1 -5.809590 20.410868 41.368103
187 0 1 -5.936101 19.573664 41.030792
188 0 1 -5.088580 19.199564 41.365204
189 0 1 -4.371610 18.571966 41.136414
190 0 1 -4.021529 19.012163 41.990204
191 0 1 -3.452710 18.753763 42.682404
192 0 1 -3.204230 18.411764 43.539307
193 0 1 -3.695720 17.643064 43.769012
194 0 1 -3.165189 17.935064 44.456787
195 0 1 -2.520181 17.412264 44.957794
196 0 1 -1.901469 17.153063 44.201202
197 0 1 -1.480969 16.223467 44.062012
198 0 1 -1.047433 15.652764 43.411194
199 0 1 -1.160899 14.683663 43.232391
200 0 1 -1.081525 14.211465 44.077789
201 0 1 -0.311473 13.705262 43.610992
202 0 1 0.089185 12.904664 43.782715
203 0 1 -0.664296 12.247945 43.754608
204 0 1 -1.481160 12.004205 43.253387
205 0 1 -1.143769 11.090375 43.134094
206 0 1 -1.558589 10.196145 43.120789
207 0 1 -1.322061 9.327905 42.742188
208 0 1 -2.172719 9.281415 42.339691
209 0 1 -2.608010 9.090516 41.500000
210 0 1 -3.282399 8.512574 41.941010
211 0 1 -4.049960 8.329194 41.387390
212 0 1 -4.162520 8.711255 40.454407
213 0 1 -3.695560 9.032575 39.669617
214 0 1 -3.306951 8.948415 38.720612
215 0 1 -3.992150 9.428525 38.261902
216 0 1 -3.595910 10.308892 38.641602
217 0 1 -4.168759 10.844914 38.098999
218 0 1 -4.106519 10.855775 37.186401
219 0 1 -3.342931 11.376515 37.061890
220 0 1 -2.751359 11.393136 36.322998
221 0 1 -3.401231 11.060754 35.800812
222 0 1 -4.097579 11.039666 35.123413
223 0 1 -4.768559 11.696527 34.997711
224 0 1 -5.288320 11.758393 34.185394
225 0 1 -6.129580 12.033334 33.856506
226 0 1 -7.102780 11.745317 34.024811
227 0 1 -8.064120 11.681905 34.200287
228 0 1 -8.871160 11.625104 34.784210
229 0 1 -9.125279 11.447694 33.851501
230 0 1 -9.523221 10.948453 33.123199
231 0 1 -9.353980 10.692365 32.151001
232 0 1 -8.724759 9.973733 32.188812
233 0 1 -9.193509 9.169976 32.179291
234 0 1 -8.650590 9.186063 32.946289
235 0 1 -9.221499 8.477693 33.399200
236 0 1 -9.001611 7.734693 32.728912
237 0 1 -8.346269 7.432695 32.110107
238 0 1 -8.702779 7.747484 31.320099
239 0 1 -7.756120 7.972963 31.185211
240 0 1 -6.736791 7.823404 31.443512
241 0 1 -6.910769 8.751363 31.356110
242 0 1 -6.641810 8.622304 32.268616
243 0 1 -5.805341 8.297616 32.670807
244 0 1 -5.092830 8.264443 32.061584
245 0 1 -5.175149 8.000184 31.139496
246 0 1 -5.401109 8.877225 31.373291
247 0 1 -4.514211 9.212754 31.186707
248 0 1 -4.534350 8.605416 30.415802
249 0 1 -3.853740 7.912904 30.708588
250 0 1 -4.139920 8.247514 31.590393
251 0 1 -3.822061 8.182824 32.479706
252 0 1 -3.376540 7.312753 32.631409
253 0 1 -2.897491 6.653974 33.167206
254 0 1 -2.729600 5.681535 33.211090
255 0 1 -1.979880 5.495054 32.661804
256 0 1 -1.166471 5.206495 32.197906
257 0 1 -0.560981 4.642766 31.667511
258 0 1 0.349652 4.790426 31.445709
259 0 1 0.468535 4.563406 30.476685
260 0 1 -0.115388 5.341844 30.420593
261 0 1 0.760980 5.632123 30.791290
262 0 1 1.033120 6.537763 30.821686
263 0 1 0.708091 6.397653 31.721008
264 0 1 1.347011 7.048166 31.775909
265 0 1 1.109151 7.687376 32.575989
266 0 1 1.406600 6.765115 32.754089
267 0 1 0.507037 6.447366 32.920410
268 0 1 0.518455 6.000833 33.781189
269 0 1 -0.382737 6.330003 33.979309
270 0 1 -0.983817 5.762994 34.594604
271 0 1 -0.582068 5.676626 35.445984
272 0 1 -0.289493 4.700933 35.347412
273 0 1 -0.149995 3.826534 35.050690
274 0 1 0.818988 3.974954 35.028198
275 0 1 1.417640 4.137325 35.737213
276 0 1 1.573031 5.020345 35.359009
277 0 1 1.122451 5.860143 35.082306
278 0 1 1.427852 6.218175 35.853607
279 0 1 1.857020 7.157346 35.954407
280 0 1 2.347819 7.449274 35.175903
281 0 1 2.799232 6.723703 34.851990
282 0 1 3.727210 6.754255 34.969208
283 0 1 4.083259 7.118253 34.070007
284 0 1 4.531970 7.931375 34.229309
285 0 1 5.439700 7.711473 33.984711
286 0 1 5.658019 8.380013 34.702209
287 0 1 5.848182 8.378633 35.617706
288 0 1 5.569022 7.991315 36.478088
289 0 1 5.191051 7.121545 36.653412
290 0 1 5.620399 7.360643 37.434387
291 0 1 6.174739 6.571435 37.418304
292 0 1 5.897361 5.709905 37.819489
293 0 1 6.103599 6.397085 38.391785
294 0 1 6.465819 5.593244 38.817596
295 0 1 6.016982 5.297494 39.611694
296 0 1 6.480872 4.442216 39.951599
297 0 1 6.204459 3.918514 40.717987
298 0 1 6.598849 3.650545 41.632904
299 0 1 5.667850 3.842464 41.870392
300 0 1 4.795001 3.435760 41.872589
301 0 1 4.294761 3.387422 42.617889
302 0 1 3.428771 3.835374 42.621307
303 0 1 3.200721 4.751073 42.675507
304 0 1 3.888732 5.394575 42.757904
305 0 1 3.942939 6.318407 43.145386
306 0 1 4.514812 6.491796 43.883209
307 0 1 4.837680 5.601606 43.844299
308 0 1 5.391521 5.956926 43.144897
309 0 1 5.439170 6.757967 42.548889
310 0 1 6.056830 6.024816 42.277008
311 0 1 6.663150 5.616823 42.894409
312 0 1 7.126540 5.401964 43.698914
313 0 1 7.713740 4.586774 43.652100
314 0 1 7.597220 4.543436 42.680603
315 0 1 8.281638 5.160463 42.728790
316 0 1 8.976611 5.393983 42.187805
317 0 1 9.202048 6.219213 41.662811
318 0 1 10.005363 6.283895 42.173584
319 0 1 10.612258 6.883573 42.710602
320 0 1 11.483859 6.507463 42.766296
321 0 1 11.959559 7.260416 43.256500
322 0 1 11.498660 8.031644 43.158813
323 0 1 10.797362 7.767656 43.731293
324 0 1 10.950461 7.520853 44.628693
325 0 1 10.859862 6.553674 44.311096
326 0 1 10.868659 5.585893 43.803802
327 0 1 11.015559 5.274015 42.896912
328 0 1 11.965461 5.244794 43.276611
329 0 1 11.822661 4.482854 42.721497
330 0 1 12.179759 4.775476 41.867493
331 0 1 12.590362 5.628847 41.691406
332 0 1 11.886260 6.280435 41.304688
333 0 1 12.544959 6.591356 40.579010
334 0 1 13.276359 6.791044 41.205292
335 0 1 13.664359 6.364225 40.406494
336 0 1 14.120261 7.054765 39.873108
337 0 1 14.103560 8.020833 39.830017
338 0 1 14.220359 8.027024 38.836609
339 0 1 15.130660 7.779386 38.950806
340 0 1 15.825759 7.439584 38.371094
341 0 1 16.156563 6.545896 38.210205
342 0 1 16.435760 5.638334 38.004089
343 0 1 16.260559 6.008554 37.146606
344 0 1 15.284160 6.095026 37.347412
345 0 1 14.584460 5.511034 37.542603
346 0 1 14.905360 5.417043 36.658600
347 0 1 15.114562 4.780065 36.044891
348 0 1 15.643561 4.225814 36.575684
349 0 1 15.839160 3.408372 36.955902
350 0 1 16.197159 2.795440 37.547699
351 0 1 15.380759 2.741502 38.063416
352 0 1 15.110862 2.014823 37.524689
353 0 1 15.347659 1.283594 36.987610
354 0 1 16.037361 1.754295 37.377594
355 0 1 16.302261 0.956396 37.763794
356 0 1 16.639160 1.569904 38.481293
357 0 1 17.501560 1.363275 38.712311
358 0 1 17.504364 0.904405 37.916901
359 0 1 17.311859 1.126535 36.967285
360 0 1 17.701759 1.919519 36.624817
361 0 1 17.635860 1.825645 35.669708
362 0 1 17.179863 0.956554 35.712799
363 0 1 18.102760 0.691495 36.023987
364 0 1 18.903763 0.239755 35.711700
365 0 1 18.971161 -0.460736 35.075287
366 0 1 19.001560 -1.439576 34.993988
367 0 1 18.912163 -1.458464 34.009491
368 0 1 19.493660 -1.074786 33.263092
369 0 1 20.225761 -0.850186 32.691010
370 0 1 20.787964 -0.758666 31.986206
371 0 1 19.992264 -0.254105 31.737091
372 0 1 19.462662 0.367555 32.207611
373 0 1 19.418564 1.015504 31.512207
374 0 1 19.595459 1.854202 31.058289
375 0 1 20.508862 1.935602 30.854187
376 0 1 20.981064 2.615192 30.296295
377 0 1 21.292561 3.360145 30.853302
378 0 1 20.603161 3.919374 30.459290
379 0 1 20.801460 3.847095 29.520813
380 0 1 19.976360 4.333425 29.595703
381 0 1 19.556061 4.988096 29.037994
382 0 1 18.842064 4.323385 29.005310
383 0 1 17.849258 4.228124 29.080902
384 0 1 16.944462 4.608064 28.822998
385 0 1 16.169159 4.503076 29.473694
386 0 1 16.695461 4.494203 30.273010
387 0 1 16.526459 4.749063 31.228516
388 0 1 17.414360 5.150884 30.963409
389 0 1 18.273659 5.350793 30.407501
390 0 1 18.737461 4.724226 30.952698
391 0 1 18.447563 5.492345 31.494904
392 0 1 19.454163 5.861436 31.654114
393 0 1 20.266159 6.045515 31.256989
394 0 1 20.059563 6.710794 31.897888
395 0 1 19.363663 7.249494 31.534485
396 0 1 19.572960 7.387514 30.574188
397 0 1 18.897263 7.771535 29.968597
398 0 1 18.842861 8.059644 30.888794
399 0 1 18.004463 8.315495 31.327911
400 0 1 18.836060 8.923154 31.644104
401 0 1 18.864464 8.188333 32.268402
402 0 1 19.819160 8.131524 32.048004
403 0 1 19.525360 8.836854 32.714203
404 0 1 19.307259 9.717553 32.562317
405 0 1 18.675961 10.247315 32.056000
406 0 1 19.318260 10.657346 31.448700
407 0 1 19.832661 9.866303 31.175690
408 0 1 19.330261 9.316175 30.519806
409 0 1 19.448162 10.228333 30.219299
410 0 1 19.812263 9.506764 29.654510
411 0 1 19.884262 9.563996 28.746002
412 0 1 20.477364 9.101373 28.146606
413 0 1 20.902462 8.368234 27.755402
414 0 1 21.254761 7.639905 28.269104
415 0 1 21.820663 7.035863 27.713196
416 0 1 22.489361 6.432355 27.954407
417 0 1 23.435959 6.386446 28.142395
418 0 1 23.271759 6.961694 28.972290
419 0 1 23.885460 6.204305 29.123291
420 0 1 24.626259 6.035875 28.522400
421 0 1 25.322762 5.901445 29.140106
422 0 1 25.897560 6.223485 28.358704
423 0 1 26.502159 6.469194 29.018890
424 0 1 26.977058 6.627965 29.825989
425 0 1 26.421761 5.856054 29.985809
426 0 1 26.850861 6.106786 30.789612
427 0 1 26.824562 5.333864 31.295715
428 0 1 25.945560 4.958684 31.386200
429 0 1 25.072060 5.282094 31.333893
430 0 1 24.327560 4.725275 31.591400
431 0 1 24.138260 4.736536 32.576202
432 0 1 23.486359 3.972665 32.605896
433 0 1 23.348763 3.989046 31.674500
434 0 1 23.834663 4.185424 30.910095
435 0 1 23.284859 4.807046 30.363007
436 0 1 23.755760 5.420995 31.026001
437 0 1 23.187859 5.433645 31.826111
438 0 1 23.548859 5.738206 32.655090
439 0 1 24.299362 6.114336 33.095215
440 0 1 24.096062 6.907884 33.675110
441 0 1 24.449661 7.801466 33.654785
442 0 1 25.159363 7.241754 34.070190
443 0 1 25.806160 7.507535 33.377686
444 0 1 26.763260 7.549993 33.312500
445 0 1 26.498863 8.273324 32.754913
446 0 1 25.936260 7.917993 32.022797
447 0 1 26.151459 7.178106 31.485199
448 0 1 26.507061 7.453737 30.600006
449 0 1 25.786560 8.095353 30.457397
450 0 1 26.312962 8.265916 29.700104
451 0 1 25.807259 8.258573 28.829498
452 0 1 25.783260 7.738405 27.953613
453 0 1 26.623360 7.354574 27.445892
454 0 1 27.356762 7.046773 26.924103
455 0 1 27.078262 6.191873 27.167114
456 0 1 27.421059 5.315897 27.192200
457 0 1 27.790062 5.165643 26.270111
458 0 1 27.052460 5.037897 25.592804
459 0 1 26.100563 5.283506 25.700012
460 0 1 25.724663 5.173166 24.817108
461 0 1 25.296463 4.398096 24.436096
462 0 1 25.049660 4.931177 23.664001
463 0 1 24.181461 5.151926 24.005188
464 0 1 23.798660 5.776247 23.366394
465 0 1 23.394760 5.962736 22.528900
466 0 1 24.348961 5.735456 22.334198
467 0 1 23.912064 6.216135 21.623001
468 0 1 23.085861 6.691064 21.426895
469 0 1 22.700661 5.856603 21.499802
470 0 1 22.661461 5.528154 20.608307
471 0 1 23.114361 4.826116 20.148300
472 0 1 23.387062 4.118865 19.545700
473 0 1 23.124458 3.160285 19.892700
474 0 1 22.364159 3.789203 19.691605
475 0 1 22.023762 4.357896 20.333603
476 0 1 21.417862 4.918123 20.979599
477 0 1 21.288559 5.038164 20.003098
478 0 1 20.851360 5.475053 19.247894
479 0 1 20.773064 6.230455 19.792694
480 0 1 20.115162 5.564867 20.077896
481 0 1 19.358459 5.887365 19.590393
482 0 1 19.017860 5.029134 19.292099
483 0 1 19.214760 4.900835 18.346207
484 0 1 18.484562 4.861955 17.716202
485 0 1 17.763462 4.228025 17.762299
486 0 1 17.550262 5.187616 17.774506
487 0 1 16.697060 4.877786 17.386292
488 0 1 16.091362 4.592893 16.695999
489 0 1 15.930358 3.958375 16.061203
490 0 1 16.813862 4.235294 15.800797
491 0 1 16.750763 4.573514 14.920197
492 0 1 15.941360 4.033525 14.665604
493 0 1 15.328059 3.285932 14.846298
494 0 1 14.923862 2.484981 15.248703
495 0 1 15.021960 1.636344 14.777802
496 0 1 15.658561 1.442224 15.484604
497 0 1 16.041462 1.726875 16.306900
498 0 1 16.595459 2.322450 16.846207
499 0 1 17.030361 3.186651 16.733795
500 0 1 17.505562 2.910017 17.606705
501 0 1 16.966362 2.388042 18.211105
502 0 1 16.096062 2.869035 18.444794
503 0 1 15.261760 3.025274 19.032806
504 0 1 14.952460 2.633596 19.839905
505 0 1 14.600760 3.499855 19.989807
506 0 1 15.278461 4.154834 20.025696
507 0 1 15.486762 5.000463 20.567001
508 0 1 15.433261 4.818407 21.466995
509 0 1 14.625560 5.169866 21.049896
510 0 1 14.398059 4.346883 20.664398
511 0 1 13.642661 4.650655 21.208496
512 0 1 13.632361 5.111234 22.024002
513 0 1 13.819762 4.235994 22.426300
514 0 1 13.298060 3.682214 23.125610
515 0 1 12.602359 4.105924 23.700989
516 0 1 12.367461 5.036516 23.883209
517 0 1 12.490462 6.019907 23.713196
518 0 1 12.588859 6.720994 24.313904
519 0 1 12.919959 6.572393 25.187714
520 0 1 12.936259 6.993536 26.045502
521 0 1 13.526061 7.772825 26.222198
522 0 1 13.919662 8.564614 25.864410
523 0 1 14.032958 8.017953 25.100189
524 0 1 14.433860 7.647756 24.338806
525 0 1 15.344459 7.644384 24.722687
526 0 1 15.706862 8.565404 24.794586
527 0 1 15.219359 8.599954 25.661896
528 0 1 15.291961 8.945542 26.536102
529 0 1 15.269462 9.645074 27.155792
530 0 1 14.723159 10.050714 26.514191
531 0 1 15.213859 10.557824 25.850494
532 0 1 15.007159 11.425447 25.440186
533 0 1 14.207061 10.979012 25.802612
534 0 1 13.639762 11.175954 25.056213
535 0 1 13.963260 12.087876 25.245209
536 0 1 13.279662 12.485566 25.838196
537 0 1 13.959258 12.745294 26.363495
538 0 1 13.925261 13.360265 25.511688
539 0 1 14.016158 14.340966 25.691895
540 0 1 14.083659 14.970063 24.935089
541 0 1 13.603160 14.145665 24.806396
542 0 1 13.631259 14.142064 23.856293
543 0 1 14.233562 14.547463 23.187988
544 0 1 14.573661 13.681066 22.994110
545 0 1 15.408561 13.961965 23.202515
546 0 1 15.192359 14.210965 24.096802
547 0 1 15.241759 15.134564 24.483704
548 0 1 14.646262 15.863664 24.474915
549 0 1 14.316260 16.697866 24.119385
550 0 1 14.563758 16.783266 25.060089
551 0 1 13.818259 16.951464 25.602905
552 0 1 13.880363 15.995065 25.384003
553 0 1 12.864562 16.114267 25.362610
554 0 1 12.022361 16.609465 25.321289
555 0 1 11.452659 15.856362 25.497009
556 0 1 11.297858 15.865464 26.485199
557 0 1 10.373061 16.012465 26.742310
558 0 1 9.972861 16.751066 27.328400
559 0 1 9.787021 17.184565 26.391388
560 0 1 10.650561 17.449366 26.063599
561 0 1 10.608962 18.367865 26.391907
562 0 1 10.344161 18.805567 25.639404
563 0 1 9.718699 19.473368 25.345001
564 0 1 9.009902 18.782267 25.175201
565 0 1 8.452498 18.623667 24.384094
566 0 1 8.181632 17.933966 23.803314
567 0 1 8.730079 17.255865 24.173706
568 0 1 9.524520 17.860464 24.323914
569 0 1 10.291358 18.430166 24.086700
570 0 1 11.152862 18.793966 24.402588
571 0 1 11.336059 19.561365 23.892395
572 0 1 10.630858 20.245867 23.718384
573 0 1 9.957759 20.503862 23.109497
574 0 1 10.369658 20.817064 22.323502
575 0 1 10.182460 20.578165 21.403992
576 0 1 9.726912 19.890062 20.824493
577 0 1 10.161262 20.579264 20.285400
578 0 1 11.095061 20.415064 20.602798
579 0 1 11.135661 19.366964 20.485397
580 0 1 11.322661 18.834368 21.312698
581 0 1 12.008460 18.040064 21.478104
582 0 1 12.253459 17.474466 22.310806
583 0 1 11.823760 16.706465 22.559601
584 0 1 11.358760 17.143366 23.291901
585 0 1 10.504859 16.996664 23.578186
586 0 1 9.903762 16.341764 23.878693
587 0 1 9.522769 15.520864 24.254913
588 0 1 9.529120 15.468663 23.305298
589 0 1 8.862449 14.990563 22.741516
590 0 1 9.213248 14.286565 23.259613
591 0 1 8.842872 13.401666 23.588806
592 0 1 8.645930 12.572534 23.953491
593 0 1 8.988021 12.172734 24.802704
594 0 1 9.775611 12.116944 24.269287
595 0 1 9.491241 11.682626 23.409393
596 0 1 8.923972 10.974313 22.921814
597 0 1 8.075912 10.791215 23.415192
598 0 1 7.529590 11.421586 22.963684
599 0 1 6.586799 11.527566 22.935394
600 0 1 5.758101 11.899186 22.767700
601 0 1 5.102149 11.884225 22.075195
602 0 1 4.536471 11.538102 22.885406
603 0 1 4.102302 12.471154 22.849396
604 0 1 4.612021 13.128465 23.454407
605 0 1 4.151019 13.012567 24.294891
606 0 1 3.694259 12.286885 24.800812
607 0 1 3.070251 13.024865 24.967804
608 0 1 2.219710 12.920762 25.367096
609 0 1 1.371821 13.260663 25.088104
610 0 1 1.408961 13.020066 26.037811
611 0 1 1.520419 12.111436 26.211395
612 0 1 1.683639 11.803933 25.339813
613 0 1 1.455470 10.948174 24.996002
614 0 1 1.605712 9.975595 25.065491
615 0 1 2.450881 10.234376 24.561096
616 0 1 1.836310 10.614003 23.911804
617 0 1 1.884490 10.962762 22.987000
618 0 1 1.967212 10.067613 22.656708
619 0 1 2.695170 9.408254 22.656403
620 0 1 3.047881 9.735673 21.767197
621 0 1 2.941020 9.864953 20.804703
622 0 1 2.579219 10.542314 20.256104
623 0 1 3.417071 10.908765 19.700592
624 0 1 3.698489 11.705174 19.157501
625 0 1 4.075461 12.393556 19.740997
626 0 1 3.902362 13.079362 20.307800
627 0 1 3.306220 12.355493 20.576904
628 0 1 2.659690 12.614785 19.904602
629 0 1 2.028319 13.225865 20.254898
630 0 1 2.271609 12.966165 21.166397
631 0 1 1.619449 12.792886 21.858994
632 0 1 1.770400 11.851933 21.734802
633 0 1 1.044539 11.972474 22.402603
634 0 1 0.427871 12.722924 22.387497
635 0 1 0.558560 13.612664 22.708984
636 0 1 0.883389 14.298665 23.263916
637 0 1 -0.028321 14.800664 23.322205
638 0 1 0.277894 15.736566 23.393311
639 0 1 0.405532 16.726465 23.340607
640 0 1 0.219855 16.400866 22.447693
641 0 1 -0.538526 16.110964 21.942703
642 0 1 -1.185740 15.691464 22.553192
643 0 1 -1.816520 15.478562 23.260712
644 0 1 -2.788190 15.625264 23.279785
645 0 1 -3.249721 16.016764 22.513000
646 0 1 -2.750539 16.844065 22.566986
647 0 1 -3.038831 17.798563 22.431198
648 0 1 -3.922429 17.783365 22.230408
649 0 1 -4.423720 17.071466 22.660004
650 0 1 -4.786160 17.293367 23.559509
651 0 1 -5.574830 16.768267 23.686188
652 0 1 -5.845490 15.841664 23.723907
653 0 1 -5.859050 14.927464 23.230804
654 0 1 -5.438359 14.426064 24.056793
655 0 1 -5.874650 14.346665 25.008392
656 0 1 -6.014710 15.090165 25.689514
657 0 1 -6.779300 14.583863 25.899414
658 0 1 -7.486501 15.012666 26.440186
659 0 1 -8.182290 15.317864 27.051697
660 0 1 -8.675561 15.258164 27.847412
661 0 1 -8.871400 14.873364 28.691589
662 0 1 -9.569589 14.459664 28.178589
663 0 1 -9.426061 13.514863 28.101990
664 0 1 -10.012609 12.805364 28.386292
665 0 1 -10.899838 12.782746 27.961792
666 0 1 -11.361039 13.388265 27.263214
667 0 1 -10.957040 13.238263 26.330902
668 0 1 -10.936639 12.330853 26.062408
669 0 1 -10.949239 11.732972 26.832489
670 0 1 -10.067340 11.741883 26.462311
671 0 1 -10.300040 10.718514 26.583496
672 0 1 -10.132901 9.820294 27.009399
673 0 1 -10.835439 9.987473 27.567993
674 0 1 -11.358541 10.608525 28.017090
675 0 1 -11.862439 10.966924 27.282593
676 0 1 -12.517240 10.872464 26.591492
677 0 1 -13.390340 11.222993 26.675690
678 0 1 -14.054841 11.887395 26.784698
679 0 1 -14.265540 12.483174 27.574493
680 0 1 -15.127240 12.837064 27.647491
681 0 1 -15.963840 12.517556 28.204102
682 0 1 -16.507639 11.789056 27.902313
683 0 1 -15.810940 11.482945 27.264404
684 0 1 -16.355339 11.970353 26.641785
685 0 1 -15.573140 11.724263 26.131012
686 0 1 -15.809340 11.277284 25.335999
687 0 1 -15.195040 10.749753 24.789795
688 0 1 -14.362439 10.791512 25.379608
689 0 1 -14.230439 10.858335 24.368591
690 0 1 -13.878440 11.431985 23.691193
691 0 1 -12.978139 11.403543 24.007599
692 0 1 -12.739839 10.925996 24.884888
693 0 1 -11.896241 11.376695 24.568298
694 0 1 -11.279038 10.958135 23.931793
695 0 1 -11.457040 10.524003 24.756409
696 0 1 -11.996640 10.167813 25.476898
697 0 1 -12.855538 9.783216 25.001190
698 0 1 -13.707540 9.689054 25.515686
699 0 1 -13.575740 8.963315 26.060791
700 0 1 -14.038838 8.037656 25.935913
701 0 1 -13.523540 7.508314 26.522308
702 0 1 -13.090240 8.013192 27.221802
703 0 1 -12.194539 8.046884 27.440796
704 0 1 -11.950740 7.367383 28.117798
705 0 1 -11.517440 6.595495 27.940704
706 0 1 -11.790841 5.892824 28.529510
707 0 1 -12.286641 5.815195 27.644806
708 0 1 -12.520341 4.940824 27.963989
709 0 1 -13.356641 4.698366 27.576416
710 0 1 -13.944739 5.313276 27.103516
711 0 1 -14.462541 4.454786 27.263000
712 0 1 -14.852440 3.924814 26.601196
713 0 1 -13.964639 3.552145 26.229309
714 0 1 -13.700341 3.943265 25.366302
715 0 1 -14.115340 3.588306 24.525391
716 0 1 -14.245740 3.041330 23.778107
717 0 1 -14.668139 3.066230 22.866699
718 0 1 -15.504840 3.508707 22.890198
719 0 1 -16.290638 4.092226 23.016388
720 0 1 -16.152439 4.941194 23.447693
721 0 1 -16.794538 5.247434 22.842804
722 0 1 -17.244740 4.695344 23.482086
723 0 1 -17.229038 3.837795 24.055695
724 0 1 -18.153038 3.719266 23.992493
725 0 1 -18.991539 3.837465 24.438293
726 0 1 -19.745440 4.430624 24.400085
727 0 1 -20.661039 4.172555 24.449707
728 0 1 -21.635538 4.199905 24.633209
729 0 1 -22.315739 3.704683 25.120789
730 0 1 -22.294039 2.777977 24.828308
731 0 1 -21.861738 2.707000 23.957794
732 0 1 -20.964640 2.254900 23.768799
733 0 1 -20.790138 1.409105 23.341492
734 0 1 -20.797440 0.644185 22.747009
735 0 1 -21.194340 0.149305 21.983704
736 0 1 -20.855040 -0.793105 22.091599
737 0 1 -21.869238 -0.855406 21.860703
738 0 1 -22.663939 -0.715735 22.417801
739 0 1 -23.003239 -0.586985 21.498001
740 0 1 -23.639540 -1.293095 21.770294
741 0 1 -23.663038 -0.952246 22.704590
742 0 1 -23.467739 -1.892455 22.603302
743 0 1 -24.041338 -2.665486 22.618805
744 0 1 -24.922939 -2.917056 22.113998
745 0 1 -24.471439 -3.745474 22.190308
746 0 1 -23.968538 -3.223626 21.494003
747 0 1 -23.678740 -2.912396 20.547806
748 0 1 -22.795538 -3.312426 20.767899
749 0 1 -21.933239 -3.698655 20.344803
750 0 1 -21.878639 -4.573925 20.748306
751 0 1 -22.010639 -4.877535 21.657303
752 0 1 -21.239738 -4.244814 21.737503
753 0 1 -20.822840 -4.715296 20.997192
754 0 1 -19.977739 -4.527575 20.661194
755 0 1 -19.924639 -5.492545 20.505295
756 0 1 -19.753239 -5.666514 19.575104
757 0 1 -19.461939 -6.427186 19.075195
758 0 1 -19.673939 -6.994277 18.236908
759 0 1 -20.527939 -6.940686 17.686005
760 0 1 -20.343739 -6.127215 17.272003
761 0 1 -19.831739 -5.939036 16.483307
762 0 1 -19.293739 -5.609766 15.691696
763 0 1 -19.786240 -5.943045 14.910797
764 0 1 -19.761639 -6.908766 15.207397
765 0 1 -20.068039 -7.812537 15.460098
766 0 1 -19.324438 -8.019637 14.898407
767 0 1 -19.408638 -7.440337 14.182297
768 0 1 -20.282639 -7.720034 14.088303
769 0 1 -20.271339 -8.435336 13.485199
770 0 1 -20.976439 -8.826436 12.913803
771 0 1 -20.552738 -9.690337 12.998795
772 0 1 -21.419138 -9.930936 12.842499
773 0 1 -21.977039 -9.766135 13.605804
774 0 1 -22.227638 -8.971536 13.141602
775 0 1 -22.946638 -9.414636 12.646896
776 0 1 -23.019440 -9.033336 11.797897
777 0 1 -23.684038 -8.954337 11.149002
778 0 1 -23.329840 -8.161635 10.710495
779 0 1 -23.519440 -7.773036 11.605896
780 0 1 -22.720839 -7.302935 11.179596
781 0 1 -22.988138 -6.468495 11.069000
782 0 1 -22.514639 -5.712565 10.742203
783 0 1 -22.074940 -6.532506 10.509201
784 0 1 -22.272139 -5.969695 9.736084
785 0 1 -23.023939 -5.649664 9.274826
786 0 1 -23.910738 -5.896784 9.118393
787 0 1 -24.281340 -5.849005 8.241943
788 0 1 -24.552839 -5.086676 7.822113
789 0 1 -24.019039 -4.282946 7.954422
790 0 1 -23.419439 -4.908986 8.314301
791 0 1 -23.067139 -4.063466 8.210892