LAMMPS data file via MDAnalysis

        2000  atoms
        1999  bonds
           0  angles
           0  dihedrals
           0  impropers

           1  atom types
           1  bond types
           0  angle types
           0  dihedral types
           0  improper types

-30.5 30.5 xlo xhi
-30.5 30.5 ylo yhi
-233.5 233.5 zlo zhi


Masses

1 1.000000

Atoms

1 0 1 -11.252678 -17.888359 75.223206
2 0 1 -11.369877 -18.142759 76.167694
3 0 1 -12.094168 -17.589159 75.915802
4 0 1 -11.986069 -16.813158 75.250397
5 0 1 -12.148067 -16.444258 74.346802
6 0 1 -12.030869 -15.594857 73.839203
7 0 1 -11.695438 -15.062358 74.557800
8 0 1 -11.607718 -14.100457 74.626892
9 0 1 -10.829838 -13.576958 75.026917
10 0 1 -11.389538 -13.326657 75.795807
11 0 1 -12.367168 -13.362758 75.698608
12 0 1 -13.284367 -13.419457 75.486816
13 0 1 -13.608368 -13.214558 76.373901
14 0 1 -13.338467 -12.315658 76.210999
15 0 1 -14.039568 -12.284058 76.905609
16 0 1 -13.574669 -11.455958 76.884796
17 0 1 -12.770866 -11.192157 77.276917
18 0 1 -13.014168 -10.339759 77.137604
19 0 1 -12.317066 -9.789557 76.953308
20 0 1 -12.527668 -9.677157 76.003204
21 0 1 -12.227966 -10.225959 75.295593
22 0 1 -11.471548 -10.442758 75.864197
23 0 1 -11.018967 -10.058957 76.663605
24 0 1 -10.299448 -9.548657 76.234802
25 0 1 -9.359077 -9.203856 76.190186
26 0 1 -9.340677 -8.566756 76.978790
27 0 1 -10.229527 -8.288157 77.121399
28 0 1 -10.996428 -8.531959 77.601013
29 0 1 -11.323797 -7.669658 77.333893
30 0 1 -11.765827 -6.933349 77.687195
31 0 1 -11.864267 -6.492686 78.541290
32 0 1 -12.519367 -6.099267 79.087708
33 0 1 -12.351768 -5.187528 79.338806
34 0 1 -11.796648 -5.282817 78.481995
35 0 1 -11.346626 -4.509507 78.186005
36 0 1 -11.712769 -4.783237 77.342712
37 0 1 -10.776909 -4.918487 77.224182
38 0 1 -10.235237 -5.220946 77.894592
39 0 1 -9.359547 -5.071757 77.423798
40 0 1 -8.888866 -4.833457 76.572815
41 0 1 -9.548838 -4.310607 76.242889
42 0 1 -8.743578 -3.919618 75.727112
43 0 1 -8.317757 -3.996638 74.837189
44 0 1 -7.532359 -3.764857 75.407410
45 0 1 -7.027789 -2.951697 75.707214
46 0 1 -6.381018 -3.191428 74.990417
47 0 1 -5.392468 -3.192428 75.157501
48 0 1 -4.956809 -2.332149 75.146484
49 0 1 -4.501439 -3.019298 74.513092
50 0 1 -3.838688 -3.066447 73.806702
51 0 1 -3.086748 -2.460298 73.767792
52 0 1 -3.335697 -2.246037 72.822693
53 0 1 -3.675278 -2.986768 72.297607
54 0 1 -4.500948 -3.448308 72.271118
55 0 1 -5.316828 -3.973746 72.155518
56 0 1 -5.235968 -4.028167 73.140594
57 0 1 -5.412388 -3.120637 72.932007
58 0 1 -5.817708 -2.978337 71.987701
59 0 1 -6.291499 -2.101937 71.720001
60 0 1 -6.883109 -2.927997 71.685089
61 0 1 -6.533228 -3.852307 71.945984
62 0 1 -6.148478 -4.465297 71.331116
63 0 1 -6.090828 -5.227248 70.829712
64 0 1 -6.531567 -6.054736 70.961182
65 0 1 -7.429158 -5.959708 70.724304
66 0 1 -7.557019 -6.080157 69.791809
67 0 1 -7.219269 -6.069028 68.880005
68 0 1 -6.319129 -5.801356 68.824402
69 0 1 -6.084158 -6.680346 68.403503
70 0 1 -6.736847 -7.017966 67.757904
71 0 1 -7.689658 -7.186837 67.636200
72 0 1 -8.126947 -6.772307 66.879089
73 0 1 -7.172617 -6.496806 66.924316
74 0 1 -7.626069 -6.478618 66.070496
75 0 1 -7.302428 -6.694148 65.177094
76 0 1 -7.055048 -7.569688 65.074310
77 0 1 -6.125338 -7.744958 65.326111
78 0 1 -5.744938 -6.815688 65.279114
79 0 1 -5.001708 -6.373527 65.649292
80 0 1 -4.444369 -6.696479 64.884491
81 0 1 -4.015498 -7.356627 64.292908
82 0 1 -4.131909 -7.705058 65.192383
83 0 1 -3.185827 -7.213147 65.248810
84 0 1 -2.910738 -7.485787 64.365204
85 0 1 -2.196831 -7.704158 63.763702
86 0 1 -2.123678 -7.224967 62.948486
87 0 1 -2.139359 -6.448808 62.390900
88 0 1 -2.777758 -6.885219 61.827606
89 0 1 -2.235203 -6.855428 61.028809
90 0 1 -2.803011 -7.375768 60.451996
91 0 1 -2.385763 -8.162658 60.778809
92 0 1 -2.716213 -8.376357 61.660706
93 0 1 -3.257738 -9.092257 61.404694
94 0 1 -3.072468 -9.942859 61.771698
95 0 1 -2.456204 -10.570956 61.572815
96 0 1 -2.165541 -11.021758 62.310608
97 0 1 -1.556893 -10.945157 63.047485
98 0 1 -1.087042 -10.500358 63.754913
99 0 1 -0.333308 -10.049758 64.122192
100 0 1 -0.058888 -10.470958 63.284607
101 0 1 0.568611 -11.205256 63.171204
102 0 1 0.622963 -11.489858 64.051208
103 0 1 0.696540 -11.528758 65.068298
104 0 1 0.647232 -10.681956 65.639587
105 0 1 0.659282 -10.092057 64.895294
106 0 1 1.591701 -10.202157 64.568787
107 0 1 1.868351 -10.978358 63.958191
108 0 1 1.882743 -11.346957 64.888702
109 0 1 2.365253 -10.773957 65.539703
110 0 1 3.238342 -10.657458 65.124512
111 0 1 3.516922 -9.856357 65.562805
112 0 1 3.981361 -9.811057 64.806305
113 0 1 4.320613 -9.453057 63.919189
114 0 1 5.193473 -9.000358 63.630707
115 0 1 5.442413 -9.083858 62.709900
116 0 1 6.279380 -8.741757 62.921906
117 0 1 6.994743 -8.142858 62.684387
118 0 1 7.621620 -7.523417 62.171509
119 0 1 7.343273 -7.145997 61.321503
120 0 1 7.936973 -7.961757 61.161194
121 0 1 8.627533 -8.246959 60.498596
122 0 1 9.315033 -8.758857 60.089691
123 0 1 8.632935 -8.603257 59.437103
124 0 1 8.649433 -7.604556 59.423309
125 0 1 8.578732 -7.571399 58.421906
126 0 1 8.185123 -6.960998 57.754089
127 0 1 7.283020 -6.740546 57.907593
128 0 1 7.293083 -5.725066 57.714813
129 0 1 6.420364 -6.056548 57.629700
130 0 1 5.691333 -6.659907 57.656799
131 0 1 5.746143 -7.408267 57.040894
132 0 1 5.423732 -7.789758 57.925507
133 0 1 4.862991 -8.612456 58.030090
134 0 1 4.679611 -8.103957 58.888489
135 0 1 4.095081 -8.796256 59.240997
136 0 1 3.529800 -8.696357 60.000702
137 0 1 3.005852 -9.360358 59.561707
138 0 1 2.861534 -9.910457 60.326691
139 0 1 3.770241 -9.970157 59.983398
140 0 1 3.289573 -10.806758 60.235291
141 0 1 2.442322 -11.031959 59.940094
142 0 1 1.799293 -10.888057 59.254517
143 0 1 2.572811 -10.568557 58.918610
144 0 1 3.296711 -11.126758 58.589417
145 0 1 2.997642 -11.210258 57.665100
146 0 1 2.163673 -10.764457 57.782196
147 0 1 2.043781 -9.992557 58.332611
148 0 1 2.148571 -9.402858 59.032806
149 0 1 2.215153 -8.447257 59.029388
150 0 1 2.027824 -7.559707 59.381989
151 0 1 2.854454 -7.139956 59.651398
152 0 1 3.509361 -7.021558 60.364288
153 0 1 4.349731 -7.571109 60.219910
154 0 1 4.525550 -6.609468 60.124512
155 0 1 4.942062 -6.497018 59.214294
156 0 1 5.882652 -6.260478 59.450195
157 0 1 5.954643 -5.310147 59.462891
158 0 1 6.015274 -4.831977 60.295288
159 0 1 6.573471 -4.187407 60.799713
160 0 1 6.858650 -3.512847 60.184509
161 0 1 7.661430 -3.337407 59.622986
162 0 1 6.922321 -3.896838 59.153900
163 0 1 5.979942 -3.574378 59.422607
164 0 1 5.796974 -3.077968 60.159485
165 0 1 5.677574 -2.207698 59.764099
166 0 1 4.991714 -1.988227 59.146790
167 0 1 4.167743 -1.628287 59.537903
168 0 1 4.084102 -0.667087 59.720795
169 0 1 4.464424 0.144322 59.298492
170 0 1 4.312313 0.990952 59.573090
171 0 1 4.942550 1.508542 59.053009
172 0 1 5.074523 1.792884 58.141907
173 0 1 4.108840 1.604207 58.258087
174 0 1 4.691623 0.769523 58.309204
175 0 1 5.481033 0.186603 58.475800
176 0 1 5.989101 -0.624476 58.432312
177 0 1 5.528091 -1.164037 57.779785
178 0 1 4.673992 -0.837178 57.562408
179 0 1 5.422412 -0.268918 57.238708
180 0 1 5.306621 0.419112 56.597107
181 0 1 6.076713 0.474933 57.173706
182 0 1 6.800064 0.529382 57.658905
183 0 1 6.869010 1.324862 57.048309
184 0 1 7.467361 1.667115 57.817505
185 0 1 7.548282 1.134953 58.553802
186 0 1 8.441032 1.538022 58.574310
187 0 1 8.390831 1.385632 57.608612
188 0 1 8.809834 2.014306 57.069885
189 0 1 8.646332 2.952863 57.052704
190 0 1 7.784542 3.027417 56.625488
191 0 1 7.282783 3.360183 55.789001
192 0 1 6.896492 3.181394 54.923706
193 0 1 6.576641 4.087274 54.900208
194 0 1 5.616561 4.031621 54.796509
195 0 1 5.535411 3.671462 53.944702
196 0 1 4.678512 3.902993 53.602112
197 0 1 3.671173 4.113542 53.583984
198 0 1 3.343551 4.249974 52.696899
199 0 1 3.877342 4.885633 52.218384
200 0 1 3.445350 4.277341 51.575684
201 0 1 4.258621 4.735463 51.241516
202 0 1 4.391151 4.210912 50.405304
203 0 1 3.990333 4.030511 49.484985
204 0 1 4.781784 4.530511 49.166595
205 0 1 4.723590 4.644711 48.178192
206 0 1 4.642322 4.263993 47.234894
207 0 1 4.960433 4.115613 46.348206
208 0 1 5.660163 4.567361 46.687805
209 0 1 5.146362 5.373891 46.423309
210 0 1 5.610603 5.587632 47.221497
211 0 1 6.029583 6.431085 46.974396
212 0 1 6.351814 7.211263 47.385315
213 0 1 6.422641 7.849523 46.679901
214 0 1 6.115093 8.697663 46.329193
215 0 1 7.047821 8.669301 46.289398
216 0 1 7.483463 9.025064 47.102509
217 0 1 7.678413 9.901944 47.287994
218 0 1 6.773811 9.773602 47.764801
219 0 1 5.849021 9.476384 47.834991
220 0 1 5.680332 10.149312 47.114288
221 0 1 5.909011 10.942533 46.611908
222 0 1 6.455463 11.730172 46.972992
223 0 1 5.672702 12.058103 47.520813
224 0 1 4.880470 12.650842 47.573395
225 0 1 5.357810 13.005441 46.806610
226 0 1 5.637172 12.228211 46.368500
227 0 1 6.055461 13.080041 46.067810
228 0 1 6.554431 13.087243 45.231110
229 0 1 6.097492 13.960443 45.035004
230 0 1 5.333862 14.541043 44.806885
231 0 1 4.649704 14.768441 44.099091
232 0 1 4.290130 15.593343 44.452789
233 0 1 3.498913 14.995240 44.165100
234 0 1 2.689182 15.245141 43.778595
235 0 1 2.114193 14.529141 43.886597
236 0 1 2.557602 14.529843 43.009216
237 0 1 3.257622 14.608743 42.397797
238 0 1 3.104172 14.612844 41.517609
239 0 1 3.931671 14.482141 40.903290
240 0 1 4.606052 14.099442 40.331696
241 0 1 5.533393 13.937741 40.050415
242 0 1 6.274940 13.944642 39.459106
243 0 1 7.122921 14.140740 39.757111
244 0 1 7.214942 15.084142 40.038696
245 0 1 6.781421 15.222642 39.122406
246 0 1 5.890102 14.960542 39.291016
247 0 1 5.475692 15.549241 39.873413
248 0 1 4.608451 15.532441 39.397308
249 0 1 4.047153 16.317039 39.360596
250 0 1 3.612003 16.323044 40.229492
251 0 1 3.044513 16.969040 39.781311
252 0 1 3.257271 17.215443 38.890991
253 0 1 3.194504 16.762642 38.048706
254 0 1 2.966694 15.825440 37.911713
255 0 1 3.661693 15.224343 37.750183
256 0 1 3.577221 15.259542 36.828400
257 0 1 3.646393 14.494542 36.201111
258 0 1 2.740841 14.171243 36.186005
259 0 1 2.759094 13.391442 35.619995
260 0 1 1.785221 13.427041 35.748291
261 0 1 1.730743 12.872643 34.967712
262 0 1 1.101951 13.592042 34.720703
263 0 1 0.901062 14.539842 34.436310
264 0 1 0.436943 14.649545 35.360107
265 0 1 0.838203 15.322343 36.050598
266 0 1 1.139591 15.936440 35.477417
267 0 1 2.132942 15.660043 35.446289
268 0 1 2.944172 16.071243 35.157196
269 0 1 2.862751 17.016243 34.875793
270 0 1 3.643352 17.491741 34.635803
271 0 1 3.894424 16.888943 35.335693
272 0 1 3.313411 16.737541 36.101013
273 0 1 3.430393 17.492439 36.745697
274 0 1 2.662594 16.943340 36.922699
275 0 1 1.956333 17.561340 37.022400
276 0 1 1.562603 17.800140 37.937195
277 0 1 1.225303 18.415642 38.594788
278 0 1 0.758403 18.964142 37.981110
279 0 1 -0.097599 18.722839 37.521088
280 0 1 -0.690438 19.093742 38.198212
281 0 1 -1.596325 18.809044 37.913300
282 0 1 -2.238671 19.294540 37.368103
283 0 1 -1.514304 19.697941 36.750183
284 0 1 -2.104391 18.994644 36.357910
285 0 1 -1.481322 18.419041 36.886292
286 0 1 -1.622321 18.079041 35.986206
287 0 1 -1.611523 17.193340 36.354004
288 0 1 -1.175145 16.595543 36.962097
289 0 1 -0.879835 15.948743 37.587006
290 0 1 -1.126383 15.412744 36.819000
291 0 1 -0.772719 14.539243 36.565704
292 0 1 -0.920946 13.728642 36.038605
293 0 1 -1.790779 13.587441 35.737915
294 0 1 -2.730477 13.488542 35.896606
295 0 1 -3.455319 13.627442 35.277100
296 0 1 -2.807938 13.126843 34.909210
297 0 1 -2.888209 12.442040 34.200195
298 0 1 -2.119475 11.843102 34.306702
299 0 1 -1.423808 11.994092 34.892090
300 0 1 -1.993298 11.247823 35.188599
301 0 1 -2.100714 11.487542 36.106903
302 0 1 -1.536606 10.618745 36.034210
303 0 1 -1.871664 10.212934 36.763916
304 0 1 -2.658558 10.838723 36.967896
305 0 1 -3.121458 10.021562 37.203400
306 0 1 -2.742676 10.061044 38.044617
307 0 1 -3.298458 9.547421 38.617706
308 0 1 -3.747967 8.931523 39.121490
309 0 1 -4.226489 8.372384 38.489594
310 0 1 -5.157738 8.485803 38.648102
311 0 1 -4.974928 9.372254 38.336487
312 0 1 -4.600157 10.253091 38.375610
313 0 1 -5.182488 10.391831 39.127014
314 0 1 -6.117098 10.790391 39.066101
315 0 1 -5.706288 11.614541 38.860687
316 0 1 -4.846858 11.914952 38.627991
317 0 1 -4.519839 12.023644 37.696106
318 0 1 -5.142798 12.769944 37.913910
319 0 1 -5.277588 12.939240 36.999084
320 0 1 -6.123627 12.478242 37.046692
321 0 1 -6.566369 12.459142 36.192993
322 0 1 -7.535988 12.716241 36.331787
323 0 1 -8.011568 13.551442 36.485901
324 0 1 -8.749157 13.666043 37.051697
325 0 1 -9.248177 14.478845 37.328308
326 0 1 -9.398878 15.448541 37.318604
327 0 1 -10.102829 15.092343 36.704590
328 0 1 -9.936188 15.886342 36.164001
329 0 1 -9.243517 16.495041 36.371613
330 0 1 -8.775528 17.189342 36.858704
331 0 1 -7.763749 17.165741 36.732117
332 0 1 -7.551878 16.227840 36.918884
333 0 1 -7.861218 15.797441 36.187683
334 0 1 -8.047228 15.529641 35.303589
335 0 1 -8.397367 14.879945 34.734497
336 0 1 -8.574097 14.485044 35.612305
337 0 1 -8.580267 13.468843 35.645691
338 0 1 -8.838219 13.125443 34.777588
339 0 1 -9.389347 12.288201 34.748505
340 0 1 -9.560318 12.930142 34.072906
341 0 1 -9.699287 12.906541 33.127808
342 0 1 -9.987818 13.810143 33.205902
343 0 1 -9.137068 14.322843 33.058807
344 0 1 -9.205618 13.512841 32.483215
345 0 1 -8.589207 12.982644 32.038910
346 0 1 -9.033468 13.719644 31.510406
347 0 1 -9.623959 13.008042 31.513916
348 0 1 -10.312397 12.432542 31.733215
349 0 1 -11.170578 12.134202 32.034607
350 0 1 -11.296457 11.883691 32.973602
351 0 1 -10.884838 11.240582 33.549896
352 0 1 -10.717987 11.103921 34.448303
353 0 1 -10.659508 10.278604 34.904114
354 0 1 -10.260958 9.638722 34.303009
355 0 1 -9.945637 9.089002 33.597504
356 0 1 -10.820908 9.519532 33.457001
357 0 1 -11.804668 9.328912 33.512299
358 0 1 -12.741467 8.971314 33.806305
359 0 1 -13.183968 8.409043 33.180206
360 0 1 -13.919167 8.985932 33.253693
361 0 1 -13.703768 9.484494 34.075684
362 0 1 -13.699768 10.368081 33.823700
363 0 1 -13.050667 10.221124 33.157410
364 0 1 -13.166569 9.628762 32.457489
365 0 1 -12.989567 9.211381 31.583984
366 0 1 -13.643368 9.969621 31.492706
367 0 1 -13.804567 10.257741 30.582092
368 0 1 -14.703768 10.422383 30.924194
369 0 1 -15.306969 10.778974 31.552094
370 0 1 -16.061567 11.016202 30.975800
371 0 1 -15.470568 11.663751 30.488800
372 0 1 -16.231369 12.037324 30.846008
373 0 1 -15.929268 12.830441 31.364685
374 0 1 -16.466368 13.445642 31.847290
375 0 1 -16.227268 14.367944 32.015015
376 0 1 -15.228168 14.536942 31.833710
377 0 1 -15.449966 15.382340 31.374390
378 0 1 -15.548569 14.633744 30.766785
379 0 1 -15.076767 14.818242 29.988403
380 0 1 -15.297567 14.063241 29.383209
381 0 1 -14.735668 13.425843 29.764801
382 0 1 -14.608269 12.551042 30.177612
383 0 1 -14.259869 11.736665 29.776306
384 0 1 -13.943466 12.590444 29.341187
385 0 1 -13.435167 12.405042 28.511993
386 0 1 -14.162968 12.826341 28.092712
387 0 1 -14.878468 12.889844 28.690704
388 0 1 -15.500069 13.399243 28.252594
389 0 1 -16.183767 14.131440 28.183716
390 0 1 -16.748768 14.294541 27.353607
391 0 1 -16.753668 14.936143 28.045502
392 0 1 -16.379269 15.738744 28.415802
393 0 1 -16.941769 16.562740 28.135406
394 0 1 -16.848068 17.297241 27.589600
395 0 1 -16.439367 17.819839 28.309692
396 0 1 -15.621368 17.730843 28.824402
397 0 1 -15.412767 18.122643 29.625916
398 0 1 -14.882368 18.110443 30.406891
399 0 1 -14.208868 17.543140 30.788605
400 0 1 -14.481968 17.666042 31.722412
401 0 1 -15.134068 16.962242 31.749786
402 0 1 -15.765768 17.636242 32.013000
403 0 1 -15.997269 18.582741 31.796692
404 0 1 -16.045668 19.527542 32.115295
405 0 1 -16.721468 19.746643 31.508606
406 0 1 -17.605968 19.481743 31.722290
407 0 1 -17.952368 18.670341 31.963898
408 0 1 -18.872568 18.804939 32.221405
409 0 1 -18.412668 19.166542 32.975098
410 0 1 -19.202368 18.750042 33.320587
411 0 1 -19.902168 18.253639 33.730591
412 0 1 -20.758768 18.557541 33.392212
413 0 1 -20.905268 17.581741 33.303802
414 0 1 -20.566668 17.146339 32.486816
415 0 1 -21.145567 17.946243 32.300293
416 0 1 -21.951868 17.767242 31.820496
417 0 1 -21.536367 18.198643 31.089996
418 0 1 -21.543568 18.670540 30.249512
419 0 1 -22.228668 18.395443 29.641907
420 0 1 -22.065668 17.451942 29.704010
421 0 1 -21.108267 17.316544 29.976807
422 0 1 -21.361067 16.568241 29.413605
423 0 1 -21.114567 16.842442 28.547302
424 0 1 -21.699068 17.280540 27.897614
425 0 1 -21.193668 18.045742 27.682007
426 0 1 -21.132267 18.518242 26.929199
427 0 1 -21.347368 18.927341 26.118591
428 0 1 -20.562668 18.376244 25.761810
429 0 1 -20.322468 17.648540 25.052399
430 0 1 -20.092669 18.206642 24.351898
431 0 1 -20.623068 18.096642 23.516602
432 0 1 -20.108267 17.327141 23.601501
433 0 1 -19.077368 17.512241 23.519714
434 0 1 -18.500967 17.936043 24.161987
435 0 1 -17.988968 17.257843 24.589905
436 0 1 -17.231468 17.347042 25.150787
437 0 1 -16.809467 16.899242 25.855499
438 0 1 -16.200268 16.929340 26.594116
439 0 1 -15.379667 17.362640 26.964813
440 0 1 -14.493267 17.669540 27.276611
441 0 1 -13.898666 17.335041 26.593292
442 0 1 -14.023968 16.363041 26.654907
443 0 1 -14.076868 16.694942 25.652588
444 0 1 -13.187069 16.910942 25.415894
445 0 1 -13.342367 17.736839 25.770203
446 0 1 -13.591766 18.381641 25.125793
447 0 1 -13.829369 17.592442 24.571411
448 0 1 -12.900269 17.879440 24.492798
449 0 1 -12.449966 17.828941 23.619904
450 0 1 -11.749807 17.280243 23.213013
451 0 1 -10.781578 17.118240 23.174988
452 0 1 -10.738897 17.096241 22.228607
453 0 1 -10.887169 17.251942 21.248398
454 0 1 -11.726929 17.247341 20.737595
455 0 1 -11.287767 17.461842 19.861099
456 0 1 -11.959969 18.097839 19.951096
457 0 1 -12.748669 18.670441 20.123993
458 0 1 -11.924168 19.127739 19.683899
459 0 1 -11.457067 19.730042 20.318405
460 0 1 -12.241467 19.414444 20.810806
461 0 1 -12.328568 18.776939 21.479401
462 0 1 -12.555168 18.938744 22.424896
463 0 1 -11.657007 19.362442 22.649689
464 0 1 -10.862818 19.589241 22.247299
465 0 1 -9.986748 19.276443 22.452606
466 0 1 -9.567928 18.681442 21.812698
467 0 1 -8.891808 18.102642 22.196701
468 0 1 -8.900517 17.889641 21.252808
469 0 1 -8.646097 17.239742 20.523407
470 0 1 -7.684628 17.386040 20.428192
471 0 1 -8.251007 17.919243 19.842896
472 0 1 -7.471539 18.180542 19.264496
473 0 1 -7.989249 18.235043 18.458603
474 0 1 -7.104107 17.998142 18.201797
475 0 1 -6.256749 18.129841 18.725494
476 0 1 -5.354178 18.285641 18.923401
477 0 1 -4.404898 18.338142 19.175400
478 0 1 -4.293768 19.275642 18.784302
479 0 1 -4.881438 19.802242 19.376099
480 0 1 -4.503169 20.516243 19.903702
481 0 1 -4.034228 20.656944 20.662994
482 0 1 -3.306399 20.056442 20.435196
483 0 1 -3.338858 19.109642 20.431900
484 0 1 -3.488318 19.173340 19.535706
485 0 1 -2.986058 18.547844 19.023102
486 0 1 -2.046135 18.324440 18.886795
487 0 1 -1.662962 18.150242 19.719208
488 0 1 -1.340493 19.007744 19.490906
489 0 1 -0.475258 18.504642 19.793793
490 0 1 -0.297139 19.443443 20.141998
491 0 1 -0.766487 20.204742 20.513000
492 0 1 -1.614489 20.514442 20.315704
493 0 1 -1.266222 20.750343 19.470093
494 0 1 -2.027327 21.269741 19.376602
495 0 1 -2.137141 20.800140 18.594696
496 0 1 -1.334301 20.504841 18.052505
497 0 1 -0.483588 20.522644 17.570404
498 0 1 -0.978890 21.239540 17.241104
499 0 1 -0.660998 21.649742 16.424500
500 0 1 -1.416684 21.097740 16.132202
501 0 1 -1.831559 20.866943 15.339798
502 0 1 -2.142298 20.037140 15.822906
503 0 1 -2.635796 19.266842 15.275696
504 0 1 -3.014677 18.514942 15.774002
505 0 1 -2.774475 17.653740 16.187500
506 0 1 -2.421597 17.376343 16.996597
507 0 1 -1.526055 17.466240 17.289307
508 0 1 -1.431994 18.002941 16.416000
509 0 1 -1.172280 17.037243 16.291595
510 0 1 -1.251374 16.050644 16.148697
511 0 1 -0.811882 15.195642 16.148102
512 0 1 -1.409197 14.499543 16.005707
513 0 1 -1.993454 15.113042 15.635605
514 0 1 -2.681341 14.995042 14.880493
515 0 1 -2.797583 15.971341 15.005905
516 0 1 -2.604630 16.745842 14.561096
517 0 1 -3.466097 17.112244 14.994507
518 0 1 -4.353749 17.155743 15.271194
519 0 1 -5.160708 17.318241 14.707794
520 0 1 -6.057719 17.200844 14.831604
521 0 1 -6.583798 17.254341 15.607101
522 0 1 -5.679738 17.692841 15.700592
523 0 1 -5.321429 18.628044 15.776901
524 0 1 -5.345948 19.560741 16.059097
525 0 1 -4.854887 20.341339 15.927002
526 0 1 -5.146729 20.331444 15.001801
527 0 1 -6.019778 20.174641 14.672195
528 0 1 -6.222579 20.790642 15.397598
529 0 1 -6.659237 21.557041 14.967697
530 0 1 -6.714468 22.298843 14.358795
531 0 1 -7.586369 22.390041 13.983307
532 0 1 -7.918568 23.127640 13.470505
533 0 1 -7.483748 23.923843 13.650803
534 0 1 -7.581828 24.861443 13.504196
535 0 1 -6.682818 25.244743 13.582306
536 0 1 -6.417548 24.388641 13.300995
537 0 1 -5.971379 23.570042 13.527603
538 0 1 -5.756558 23.262039 12.637299
539 0 1 -5.256117 23.112839 11.821594
540 0 1 -4.847027 23.397743 10.983597
541 0 1 -4.896079 24.025742 10.307098
542 0 1 -4.787598 23.217743 9.901382
543 0 1 -5.404969 22.634140 9.508713
544 0 1 -5.832539 22.663742 8.640366
545 0 1 -6.082947 21.759743 9.048187
546 0 1 -6.322358 21.291840 9.870468
547 0 1 -6.848038 20.658539 9.298782
548 0 1 -7.467679 21.054840 9.963745
549 0 1 -6.923478 20.525841 10.499496
550 0 1 -6.636628 19.843643 9.970261
551 0 1 -6.079388 19.363842 10.633606
552 0 1 -6.522269 18.565342 10.370102
553 0 1 -6.204117 18.430840 9.442795
554 0 1 -6.157488 17.454041 9.122437
555 0 1 -5.697169 17.638344 8.264893
556 0 1 -6.551568 17.940243 7.989624
557 0 1 -6.617518 18.846741 8.257355
558 0 1 -5.673718 19.055542 8.233307
559 0 1 -5.579998 19.829041 7.736755
560 0 1 -6.081297 19.648140 6.987762
561 0 1 -6.943148 19.332344 7.349426
562 0 1 -7.698159 19.216442 6.833313
563 0 1 -7.294268 19.450943 6.028625
564 0 1 -8.164358 19.533340 5.641663
565 0 1 -9.021408 19.635841 6.090942
566 0 1 -9.295689 19.396744 5.185699
567 0 1 -9.317488 19.838341 4.337784
568 0 1 -9.752228 19.169739 3.815232
569 0 1 -9.964119 18.262043 3.502945
570 0 1 -9.655369 18.959042 2.805283
571 0 1 -9.536127 19.635841 2.088074
572 0 1 -9.212029 19.688240 1.186859
573 0 1 -9.171358 19.288040 0.369888
574 0 1 -8.921078 19.012642 -0.494263
575 0 1 -8.719198 18.249840 -1.026565
576 0 1 -9.142208 18.628342 -1.803055
577 0 1 -9.505268 17.908840 -2.254776
578 0 1 -9.896267 18.257542 -3.074554
579 0 1 -9.074059 18.666241 -3.281402
580 0 1 -9.437378 18.370842 -4.186020
581 0 1 -9.919998 17.544640 -3.959366
582 0 1 -9.021528 17.272141 -3.655334
583 0 1 -8.109299 17.211742 -3.458175
584 0 1 -8.655628 17.520641 -2.702743
585 0 1 -8.108377 17.037743 -2.095123
586 0 1 -7.707398 17.590340 -1.330185
587 0 1 -7.735959 18.299843 -0.656921
588 0 1 -7.283858 19.028942 -0.287475
589 0 1 -7.174668 18.619339 0.556870
590 0 1 -6.617318 19.342041 0.809143
591 0 1 -5.743718 18.743340 0.965057
592 0 1 -5.297207 17.891441 0.752594
593 0 1 -4.963439 17.493340 1.540756
594 0 1 -4.870448 16.630840 1.853317
595 0 1 -4.532158 16.626842 0.947800
596 0 1 -4.101109 15.904641 1.449417
597 0 1 -4.785689 15.347241 1.997833
598 0 1 -4.084408 15.671540 2.579071
599 0 1 -4.825938 15.485841 3.099015
600 0 1 -5.352568 15.346444 3.949372
601 0 1 -6.166869 14.879743 4.207047
602 0 1 -6.786377 15.551442 3.831223
603 0 1 -7.410477 15.605641 4.548996
604 0 1 -7.983677 15.050843 5.138367
605 0 1 -7.698567 15.185044 6.045471
606 0 1 -6.981759 15.026742 6.633316
607 0 1 -6.185837 15.202344 6.174988
608 0 1 -5.472739 14.692941 5.804565
609 0 1 -4.592907 14.974843 6.049286
610 0 1 -3.784909 14.645043 6.507751
611 0 1 -3.068197 14.392442 5.911636
612 0 1 -2.256792 14.582643 5.353226
613 0 1 -2.572823 13.777143 4.939606
614 0 1 -1.862479 13.171342 4.887466
615 0 1 -1.352427 12.623040 4.205627
616 0 1 -0.679528 11.990102 4.726364
617 0 1 -1.214054 11.861142 5.496307
618 0 1 -1.809029 11.814893 6.271255
619 0 1 -1.715908 10.849462 6.103821
620 0 1 -2.625950 10.811772 6.449036
621 0 1 -2.012247 10.352082 7.054276
622 0 1 -1.597203 9.869584 7.777161
623 0 1 -0.874302 9.257241 7.961273
624 0 1 -0.707528 8.322434 7.999268
625 0 1 -1.580490 7.848973 8.201797
626 0 1 -2.431858 7.505124 8.490936
627 0 1 -2.631359 8.366204 8.251144
628 0 1 -3.493328 8.348062 7.770157
629 0 1 -4.001717 7.814733 8.378876
630 0 1 -4.077008 7.389932 7.575348
631 0 1 -4.684708 7.954911 7.093246
632 0 1 -3.975209 7.794282 6.446793
633 0 1 -3.737078 7.878991 5.519226
634 0 1 -4.066058 7.854974 4.588745
635 0 1 -4.344727 8.718293 4.295044
636 0 1 -3.640457 8.873433 3.619126
637 0 1 -3.397108 8.108632 3.004456
638 0 1 -2.917319 7.313371 2.854019
639 0 1 -2.877768 6.347684 2.817658
640 0 1 -3.773108 5.994641 3.001740
641 0 1 -4.046689 5.358933 2.343048
642 0 1 -4.004109 5.927922 1.556580
643 0 1 -4.713408 6.343072 1.035462
644 0 1 -5.413428 6.498261 0.378159
645 0 1 -4.622258 7.165013 0.447449
646 0 1 -4.801938 7.789174 1.099228
647 0 1 -4.272349 7.243932 1.674774
648 0 1 -5.065157 6.968732 2.111145
649 0 1 -5.210688 6.447663 2.893830
650 0 1 -6.095417 6.910832 3.101395
651 0 1 -5.967398 6.653131 4.049225
652 0 1 -6.251919 7.396832 4.437164
653 0 1 -5.827519 6.791352 5.096298
654 0 1 -5.951199 6.262761 5.918732
655 0 1 -6.140707 5.941972 6.776199
656 0 1 -6.112208 5.238404 6.040848
657 0 1 -5.794949 4.344262 5.873795
658 0 1 -6.219058 4.081132 5.100006
659 0 1 -7.120537 4.231523 5.414856
660 0 1 -7.480168 3.584323 4.859604
661 0 1 -8.100258 4.319154 4.808258
662 0 1 -8.903738 4.506661 4.337830
663 0 1 -9.600986 5.156182 4.392685
664 0 1 -10.441727 4.828244 3.925370
665 0 1 -11.194107 5.383061 3.689255
666 0 1 -11.664959 5.676972 2.828003
667 0 1 -11.802578 4.777852 3.098847
668 0 1 -12.502768 4.192834 2.693650
669 0 1 -12.594566 3.169713 2.489426
670 0 1 -12.520967 2.855519 3.362274
671 0 1 -12.142168 1.974254 2.933899
672 0 1 -11.441269 1.337283 2.748612
673 0 1 -11.442118 0.762773 1.989655
674 0 1 -11.397789 -0.247117 1.843369
675 0 1 -12.198868 -0.526658 1.433243
676 0 1 -12.250668 -0.387437 0.505371
677 0 1 -11.411549 -0.185348 0.027496
678 0 1 -10.777178 0.201743 -0.652099
679 0 1 -10.999397 0.801173 0.048889
680 0 1 -11.118877 1.563706 -0.578064
681 0 1 -10.664299 1.145762 -1.358398
682 0 1 -10.947468 2.056399 -1.526657
683 0 1 -10.932869 3.042987 -1.530395
684 0 1 -11.857769 3.173804 -1.723846
685 0 1 -11.648628 2.978089 -2.635666
686 0 1 -11.911667 3.673232 -3.289947
687 0 1 -11.882267 4.572354 -3.624099
688 0 1 -11.440027 5.052102 -4.347595
689 0 1 -11.051218 5.014024 -5.197235
690 0 1 -10.256727 5.658513 -5.234009
691 0 1 -9.405607 5.349504 -4.841721
692 0 1 -9.966629 5.262124 -4.059067
693 0 1 -9.784607 5.972413 -3.332626
694 0 1 -10.329847 6.693944 -3.758392
695 0 1 -10.852718 7.516122 -3.791763
696 0 1 -10.313766 7.846051 -4.516556
697 0 1 -9.531067 8.286431 -4.735855
698 0 1 -9.095547 7.430684 -4.627335
699 0 1 -8.438728 6.994073 -4.024963
700 0 1 -7.970349 6.740724 -4.843948
701 0 1 -7.534009 6.399774 -4.073410
702 0 1 -7.351628 5.465463 -3.698822
703 0 1 -6.517407 5.381043 -3.197845
704 0 1 -6.722538 4.491532 -3.452591
705 0 1 -5.929577 4.653333 -4.018097
706 0 1 -5.486508 5.572354 -4.305664
707 0 1 -5.002358 6.236802 -3.696518
708 0 1 -5.172928 5.511781 -2.985504
709 0 1 -4.462618 5.411874 -2.369735
710 0 1 -4.470219 5.717282 -1.426910
711 0 1 -4.454258 6.672864 -1.573486
712 0 1 -3.577418 6.370614 -1.302414
713 0 1 -3.153397 6.477971 -0.419083
714 0 1 -3.415428 7.392484 -0.256531
715 0 1 -3.235268 7.964921 -1.042877
716 0 1 -2.982847 8.690091 -1.581787
717 0 1 -2.493407 8.632283 -2.443527
718 0 1 -2.522650 7.812921 -1.888473
719 0 1 -2.005696 8.330812 -1.186172
720 0 1 -1.493794 8.283364 -0.382278
721 0 1 -1.296168 7.773713 0.385010
722 0 1 -0.595528 7.629785 1.040375
723 0 1 -1.152438 6.840573 1.069199
724 0 1 -1.843861 6.544862 1.611252
725 0 1 -1.814877 5.626763 1.284546
726 0 1 -2.384968 5.258054 0.611023
727 0 1 -2.485716 4.674623 1.306198
728 0 1 -3.182617 4.003243 1.354981
729 0 1 -3.219248 3.097966 1.023758
730 0 1 -3.900069 3.353602 1.729904
731 0 1 -3.283118 2.612689 1.998581
732 0 1 -3.980738 2.250829 1.367233
733 0 1 -4.753949 1.930186 1.810166
734 0 1 -5.608088 1.536120 1.912445
735 0 1 -5.843567 2.163821 2.599854
736 0 1 -5.153199 2.506623 3.191483
737 0 1 -4.837437 1.951423 3.966461
738 0 1 -3.888098 2.167417 4.146759
739 0 1 -3.032498 1.811349 4.562241
740 0 1 -3.154118 1.347682 5.382675
741 0 1 -3.918068 1.640838 5.919525
742 0 1 -3.336407 2.342235 5.508072
743 0 1 -2.573675 2.223664 6.162445
744 0 1 -2.097203 2.313958 6.985703
745 0 1 -1.098462 2.353234 6.850327
746 0 1 -0.883761 1.848874 7.625977
747 0 1 -1.394045 1.303532 8.112488
748 0 1 -0.948939 0.864963 7.391357
749 0 1 -1.636652 0.157092 7.417084
750 0 1 -1.779080 0.097232 8.363678
751 0 1 -2.032696 -0.686297 7.735947
752 0 1 -1.276350 -1.274799 7.764557
753 0 1 -1.636607 -1.328687 8.644257
754 0 1 -2.057305 -2.046937 8.234924
755 0 1 -1.805758 -2.399528 9.101059
756 0 1 -1.447178 -3.185618 9.635010
757 0 1 -0.764199 -2.493237 9.933624
758 0 1 0.210941 -2.404899 10.017899
759 0 1 1.079834 -2.075738 10.247406
760 0 1 1.709522 -2.490918 9.631683
761 0 1 2.292953 -1.793538 10.027893
762 0 1 2.165352 -1.726348 10.981705
763 0 1 1.825943 -1.821288 11.935898
764 0 1 1.775333 -2.751227 12.194901
765 0 1 2.161602 -3.512437 11.742401
766 0 1 2.843292 -3.212197 11.144592
767 0 1 3.364612 -3.650147 11.771606
768 0 1 3.439392 -4.454167 12.211197
769 0 1 3.787151 -3.811648 12.929001
770 0 1 2.917454 -3.470128 12.677002
771 0 1 2.860752 -4.224776 13.211899
772 0 1 2.722481 -3.821588 14.074402
773 0 1 2.165153 -3.684617 14.856400
774 0 1 2.538662 -3.560477 15.758194
775 0 1 2.605003 -2.765637 15.139008
776 0 1 1.722641 -2.373288 15.278503
777 0 1 0.904033 -2.267867 15.680206
778 0 1 0.882621 -1.529908 16.303604
779 0 1 1.199592 -1.095098 15.403000
780 0 1 0.695182 -1.009917 14.570999
781 0 1 0.243213 -0.765018 15.364899
782 0 1 0.813972 0.000153 15.523895
783 0 1 0.505893 0.894162 15.159805
784 0 1 1.395683 1.312312 14.944901
785 0 1 2.289921 1.521521 15.224304
786 0 1 3.204323 1.863797 15.237701
787 0 1 3.404670 2.698651 14.852997
788 0 1 3.177391 3.562663 14.451096
789 0 1 3.835644 3.914201 15.137695
790 0 1 4.673454 3.906663 14.680695
791 0 1 4.725143 4.008752 15.655502