LAMMPS data file via MDAnalysis

        2000  atoms
        1999  bonds
           0  angles
           0  dihedrals
           0  impropers

           1  atom types
           1  bond types
           0  angle types
           0  dihedral types
           0  improper types

-30.5 30.5 xlo xhi
-30.5 30.5 ylo yhi
-233.5 233.5 zlo zhi


Masses

1 1.000000

Atoms

1 0 1 20.102474 4.537027 55.557404
2 0 1 19.732075 4.065156 54.817505
3 0 1 18.956074 4.630777 54.696899
4 0 1 18.226170 4.615797 54.011292
5 0 1 18.220772 5.017068 53.166412
6 0 1 17.584370 5.697938 53.272797
7 0 1 16.798172 5.615697 52.767212
8 0 1 16.162571 6.201578 53.235413
9 0 1 16.782772 6.202436 53.924316
10 0 1 16.650272 7.129209 54.038086
11 0 1 16.386173 6.720197 54.926086
12 0 1 17.211269 7.064897 55.169891
13 0 1 16.838970 6.439168 55.800293
14 0 1 16.026875 5.921556 55.741089
15 0 1 15.294675 5.333127 55.694397
16 0 1 14.852372 5.584219 56.538391
17 0 1 14.175473 6.282068 56.448212
18 0 1 14.659673 7.264825 56.411316
19 0 1 15.471875 7.766016 56.235596
20 0 1 15.446271 8.017057 57.169312
21 0 1 14.704972 8.191988 57.789185
22 0 1 14.026673 8.389009 58.464905
23 0 1 13.435475 7.623559 58.830292
24 0 1 13.271375 6.772707 59.223389
25 0 1 12.900075 6.637659 58.303284
26 0 1 12.044572 6.132646 58.327087
27 0 1 11.198674 6.079069 58.839996
28 0 1 10.783574 6.950948 58.953705
29 0 1 10.092874 6.398729 59.403015
30 0 1 10.238374 6.026258 58.537506
31 0 1 10.903172 6.313497 57.849609
32 0 1 10.016873 6.476789 57.625183
33 0 1 10.064672 7.393697 57.576508
34 0 1 9.438375 7.181539 58.246002
35 0 1 8.805573 6.557619 57.799591
36 0 1 8.562703 6.234247 58.643311
37 0 1 7.992222 5.504648 58.525513
38 0 1 7.596661 4.984979 57.748993
39 0 1 6.699513 5.368646 57.636200
40 0 1 6.499783 5.369138 58.572296
41 0 1 5.745263 4.941419 58.344604
42 0 1 5.093174 4.531057 57.754913
43 0 1 4.410492 4.189046 57.224487
44 0 1 4.000531 4.096689 56.302490
45 0 1 3.764542 4.971586 56.015900
46 0 1 3.018773 5.589387 56.144989
47 0 1 2.830094 5.088926 55.332001
48 0 1 2.450074 5.141626 54.435211
49 0 1 2.715314 5.686529 53.617493
50 0 1 1.969174 6.285127 53.786713
51 0 1 2.125623 6.927576 54.511108
52 0 1 2.494653 6.251108 55.099091
53 0 1 2.786652 7.139158 55.360413
54 0 1 2.699841 7.975107 54.886993
55 0 1 1.743222 7.947599 54.738892
56 0 1 1.396233 7.619806 53.876587
57 0 1 0.516446 7.765127 54.294891
58 0 1 0.741816 7.045129 55.054901
59 0 1 1.048194 7.558839 55.815613
60 0 1 0.690201 7.504900 56.709900
61 0 1 1.503743 7.028318 56.551514
62 0 1 1.690774 7.251806 57.440308
63 0 1 1.333893 6.585386 58.036591
64 0 1 1.341962 6.502058 58.971405
65 0 1 1.996453 6.751298 59.682800
66 0 1 1.333672 6.959489 60.295288
67 0 1 0.604207 7.535898 59.989990
68 0 1 0.379183 7.590028 59.035706
69 0 1 0.162820 8.435396 59.361298
70 0 1 1.097663 8.717058 59.502808
71 0 1 1.024512 9.284727 60.268402
72 0 1 1.296761 9.707018 59.421204
73 0 1 1.949742 9.786448 60.174103
74 0 1 1.360901 10.518816 60.241791
75 0 1 1.030472 11.239218 60.819214
76 0 1 0.564919 12.021627 61.034790
77 0 1 0.750363 12.231127 61.963806
78 0 1 0.526042 11.673426 62.658295
79 0 1 0.358393 12.008028 63.488007
80 0 1 -0.094274 11.501429 64.089294
81 0 1 -0.947105 11.868227 63.881012
82 0 1 -0.761278 12.564528 63.223206
83 0 1 -1.588167 12.597029 62.832001
84 0 1 -1.179256 13.456026 62.511505
85 0 1 -1.093582 14.087229 61.849701
86 0 1 -1.668416 14.840628 62.059906
87 0 1 -2.519416 14.909929 61.697205
88 0 1 -3.138107 15.506327 61.281403
89 0 1 -3.760347 15.434328 60.542114
90 0 1 -3.476657 14.623926 60.210388
91 0 1 -4.084217 13.894129 60.388306
92 0 1 -3.799318 13.485529 59.612396
93 0 1 -2.915097 13.747828 59.473602
94 0 1 -3.007858 12.954428 60.068207
95 0 1 -2.385238 12.256128 60.025909
96 0 1 -1.564147 11.813326 59.673584
97 0 1 -0.812093 12.215628 60.192596
98 0 1 -1.047895 11.815527 61.044189
99 0 1 -0.228795 11.356379 60.859314
100 0 1 -0.241081 11.139448 61.829712
101 0 1 0.145020 10.331388 62.068512
102 0 1 -0.635141 9.825716 61.899902
103 0 1 -0.708156 8.934187 62.173706
104 0 1 -1.475128 9.112398 62.809387
105 0 1 -1.714958 8.158426 63.087585
106 0 1 -2.021676 7.232538 63.184204
107 0 1 -2.484327 6.401308 63.421204
108 0 1 -3.129327 7.063348 63.625610
109 0 1 -2.683877 7.447847 64.387909
110 0 1 -2.787917 8.393999 64.380615
111 0 1 -1.852437 8.233557 64.447296
112 0 1 -1.115434 8.694727 64.950409
113 0 1 -0.834411 8.863810 64.018097
114 0 1 -0.056863 8.343847 64.333099
115 0 1 -0.394765 7.710706 63.688995
116 0 1 0.389914 7.948606 63.263306
117 0 1 1.106463 7.342367 63.479095
118 0 1 1.478001 6.618700 62.974701
119 0 1 1.272294 6.307119 63.827087
120 0 1 0.311997 6.105917 64.024109
121 0 1 0.468899 5.209966 64.278290
122 0 1 -0.388042 5.408567 64.754791
123 0 1 -0.819078 4.688726 65.281891
124 0 1 0.009028 4.232538 65.127197
125 0 1 -0.347249 3.389078 64.921906
126 0 1 0.060315 3.458227 65.833710
127 0 1 0.193972 2.548397 66.129089
128 0 1 0.491236 1.737983 65.733490
129 0 1 1.289601 1.527183 66.202698
130 0 1 2.192212 1.620590 65.758606
131 0 1 1.984364 0.697252 65.545715
132 0 1 2.284894 -0.229132 65.362396
133 0 1 2.973012 -0.539772 66.042206
134 0 1 2.801305 -0.330832 66.993591
135 0 1 2.712361 -1.264573 67.183899
136 0 1 2.043652 -0.816622 67.710510
137 0 1 2.457093 -0.608462 68.580505
138 0 1 2.594563 -0.820803 69.474182
139 0 1 2.698651 -1.731161 69.827698
140 0 1 3.219773 -1.246542 70.487000
141 0 1 3.076482 -1.251501 71.486511
142 0 1 3.389813 -0.291182 71.509399
143 0 1 3.686784 0.473785 72.044983
144 0 1 4.200734 1.014267 72.742096
145 0 1 3.603772 1.326900 73.416382
146 0 1 2.945542 0.715900 73.584290
147 0 1 3.362302 0.673893 74.480011
148 0 1 3.383672 0.126537 75.305115
149 0 1 4.185124 -0.165253 75.902710
150 0 1 4.282681 -0.417153 76.813782
151 0 1 3.309144 -0.572962 76.809814
152 0 1 2.365502 -0.751263 76.886292
153 0 1 1.996941 0.106227 76.576294
154 0 1 2.544781 0.619926 77.191010
155 0 1 2.068883 0.868589 77.994385
156 0 1 1.221963 0.525459 78.222504
157 0 1 1.766942 -0.283543 78.139801
158 0 1 1.206994 -0.443663 78.849609
159 0 1 1.725094 -0.883652 79.544312
160 0 1 2.238114 -1.233073 80.340698
161 0 1 3.061703 -0.758833 80.434998
162 0 1 3.064275 -1.500792 81.033813
163 0 1 3.597165 -2.173712 81.608002
164 0 1 2.893174 -1.926691 82.209198
165 0 1 2.521813 -2.165143 83.043701
166 0 1 3.281422 -2.307642 83.618408
167 0 1 3.603925 -2.862853 82.968109
168 0 1 3.022244 -3.297553 82.323090
169 0 1 2.385602 -3.920393 81.887390
170 0 1 3.288922 -4.392962 81.930298
171 0 1 4.019112 -4.830933 82.342590
172 0 1 4.656544 -5.555962 82.246887
173 0 1 5.001343 -4.654522 81.998505
174 0 1 4.890194 -4.825842 81.047211
175 0 1 4.070652 -5.324643 80.870209
176 0 1 3.238831 -5.711083 81.111084
177 0 1 3.762261 -5.997504 81.867981
178 0 1 4.029862 -6.919663 81.671082
179 0 1 4.903462 -6.977751 82.039703
180 0 1 5.505932 -7.681502 82.115601
181 0 1 5.186944 -8.071232 81.305786
182 0 1 5.693562 -8.811172 80.967896
183 0 1 5.743573 -8.719473 82.056885
184 0 1 5.616024 -9.087172 82.929901
185 0 1 5.793923 -8.941271 83.902191
186 0 1 5.455742 -9.754171 84.352600
187 0 1 5.993203 -10.399973 84.863281
188 0 1 5.078434 -10.564772 85.289093
189 0 1 4.898861 -10.092772 86.150391
190 0 1 4.648221 -9.957172 87.020294
191 0 1 3.964593 -9.446371 87.441498
192 0 1 4.747422 -8.906372 87.468811
193 0 1 5.518982 -8.350771 87.469391
194 0 1 5.726922 -8.391413 88.423706
195 0 1 6.572102 -8.674471 88.242096
196 0 1 6.831822 -9.432772 88.737183
197 0 1 7.713791 -9.614473 88.229614
198 0 1 8.297353 -10.042372 87.692200
199 0 1 8.260251 -9.335272 87.065399
200 0 1 9.206822 -9.119272 87.284119
201 0 1 9.859975 -9.564871 86.717407
202 0 1 9.219022 -9.884573 86.084290
203 0 1 9.155572 -9.157272 85.410492
204 0 1 10.070973 -8.900373 85.431091
205 0 1 10.151872 -8.075052 84.914917
206 0 1 9.662713 -8.646372 84.305115
207 0 1 10.058774 -9.383673 83.728516
208 0 1 10.961072 -9.413473 84.005493
209 0 1 11.023274 -9.393972 83.055389
210 0 1 10.256772 -9.363672 82.469696
211 0 1 10.261273 -8.758472 81.693207
212 0 1 10.600472 -7.873782 81.479797
213 0 1 10.381673 -6.974352 81.461609
214 0 1 10.186872 -7.322703 82.328308
215 0 1 9.446042 -6.961453 82.798218
216 0 1 8.936982 -6.651143 82.107300
217 0 1 8.387914 -6.686463 81.364410
218 0 1 8.791051 -7.539483 81.234711
219 0 1 8.942712 -8.523413 81.315704
220 0 1 8.505433 -8.953272 80.572693
221 0 1 7.790802 -8.841471 79.976410
222 0 1 8.299344 -9.620972 79.658813
223 0 1 9.135293 -9.742172 79.223206
224 0 1 9.984372 -9.647972 78.869904
225 0 1 9.407102 -8.989973 78.367004
226 0 1 9.435315 -9.907072 77.944611
227 0 1 9.466813 -10.730072 78.429382
228 0 1 10.394273 -11.005672 78.696594
229 0 1 10.132474 -11.318972 77.896118
230 0 1 10.848073 -11.682871 77.401703
231 0 1 11.382974 -11.977972 78.070190
232 0 1 11.957074 -11.215872 78.358582
233 0 1 12.123975 -10.958971 77.395599
234 0 1 12.372075 -10.176373 77.895691
235 0 1 12.258374 -9.654871 77.071716
236 0 1 13.167172 -9.725473 76.596008
237 0 1 13.639173 -9.391371 75.812683
238 0 1 13.228871 -8.646872 75.440399
239 0 1 12.539174 -8.267323 75.996887
240 0 1 13.298673 -7.716464 76.108582
241 0 1 13.490174 -7.988802 77.010681
242 0 1 13.743672 -7.073424 76.955292
243 0 1 13.007874 -6.688113 76.479004
244 0 1 12.683373 -6.119982 77.278381
245 0 1 11.903672 -5.972123 76.727692
246 0 1 11.235471 -6.596934 76.997894
247 0 1 10.275174 -6.501162 77.093994
248 0 1 10.139474 -6.513043 76.141907
249 0 1 9.479321 -5.850712 75.742310
250 0 1 10.082173 -5.533534 75.066498
251 0 1 10.401174 -5.141463 74.232208
252 0 1 10.395272 -5.374222 73.286804
253 0 1 11.311372 -5.399373 72.965698
254 0 1 11.858174 -4.676032 72.688416
255 0 1 12.205873 -3.795443 72.458496
256 0 1 12.240373 -3.526152 71.561005
257 0 1 13.021073 -3.758393 71.015900
258 0 1 13.618772 -4.558863 71.170593
259 0 1 13.980275 -4.532202 72.001282
260 0 1 14.076474 -4.737532 72.950592
261 0 1 14.131772 -5.495062 72.393402
262 0 1 14.398774 -5.999962 71.613586
263 0 1 14.450173 -6.650382 70.906189
264 0 1 14.373975 -6.209914 69.968506
265 0 1 14.558473 -5.757683 69.216095
266 0 1 15.301373 -6.306653 69.532990
267 0 1 15.622674 -5.383603 69.640594
268 0 1 15.088475 -4.738402 70.077393
269 0 1 15.022573 -3.971432 70.682098
270 0 1 14.708272 -3.106812 70.603699
271 0 1 15.305074 -3.001063 69.849915
272 0 1 15.153775 -2.339512 69.177795
273 0 1 15.975873 -2.286513 68.741302
274 0 1 16.584972 -1.635123 69.162109
275 0 1 16.928074 -1.196312 68.404297
276 0 1 16.804771 -1.712183 67.675110
277 0 1 16.429874 -2.499552 67.152496
278 0 1 15.558373 -2.414023 67.566498
279 0 1 14.755273 -2.672362 67.130493
280 0 1 13.889974 -2.863532 67.508301
281 0 1 13.093175 -3.488043 67.502594
282 0 1 12.717671 -3.140202 66.711304
283 0 1 13.136075 -2.738783 65.977905
284 0 1 13.486573 -3.324072 65.270294
285 0 1 12.953671 -4.145293 65.268188
286 0 1 12.189473 -3.616824 65.150208
287 0 1 11.815972 -2.810091 65.642395
288 0 1 11.060971 -2.607493 65.021210
289 0 1 10.342774 -3.142474 64.716919
290 0 1 9.879373 -2.727133 64.038391
291 0 1 10.073071 -1.962382 63.488403
292 0 1 11.033971 -2.223633 63.152496
293 0 1 11.544572 -1.945313 62.349609
294 0 1 11.584672 -1.043942 62.014008
295 0 1 12.280473 -1.288582 61.431396
296 0 1 12.973672 -1.782011 61.852783
297 0 1 13.824574 -1.848673 62.380615
298 0 1 13.342973 -1.079943 62.832214
299 0 1 13.708573 -0.198233 62.926300
300 0 1 14.482274 -0.183283 63.502014
301 0 1 15.389474 -0.243273 63.752289
302 0 1 16.104870 -0.527073 64.375000
303 0 1 16.141773 -0.637112 63.384705
304 0 1 16.819469 -0.985842 62.796112
305 0 1 16.943073 -0.550433 61.953796
306 0 1 17.678875 -0.001412 61.924896
307 0 1 17.815872 0.146467 61.005402
308 0 1 17.306171 -0.329573 60.365112
309 0 1 16.692772 -0.650133 59.751587
310 0 1 17.145672 -1.104144 59.058716
311 0 1 17.798172 -0.888283 58.320190
312 0 1 18.404072 -0.147562 58.541687
313 0 1 18.133175 0.596832 58.030792
314 0 1 18.484772 0.507700 57.072693
315 0 1 18.203072 1.363435 56.795593
316 0 1 19.160870 1.158945 56.606995
317 0 1 18.862972 1.672298 55.848816
318 0 1 17.996872 2.071483 55.642212
319 0 1 17.112675 2.190650 55.210999
320 0 1 16.754070 1.625070 55.934509
321 0 1 16.020573 1.293043 55.432587
322 0 1 16.029472 0.488319 54.941895
323 0 1 16.632275 -0.244673 55.047302
324 0 1 16.003372 -1.026722 54.792694
325 0 1 15.418973 -1.618132 54.231506
326 0 1 15.902272 -2.361413 53.852295
327 0 1 15.359471 -2.657713 54.602112
328 0 1 15.020974 -2.999033 55.442413
329 0 1 15.390473 -2.882983 56.318909
330 0 1 14.969975 -3.705742 56.536102
331 0 1 15.423974 -4.515902 56.761292
332 0 1 15.344373 -5.465182 56.835815
333 0 1 14.355973 -5.265923 56.712585
334 0 1 13.769872 -4.824433 56.085907
335 0 1 12.801671 -4.981802 55.996399
336 0 1 12.540673 -4.624152 55.166595
337 0 1 12.073174 -3.937922 55.602509
338 0 1 12.471772 -3.404843 54.944489
339 0 1 11.760571 -3.380682 54.301086
340 0 1 10.971673 -3.570632 54.823212
341 0 1 10.096673 -3.732413 54.585602
342 0 1 10.383771 -2.948893 54.019104
343 0 1 10.680573 -2.982234 53.072693
344 0 1 10.566674 -3.876923 52.849487
345 0 1 10.366574 -4.620442 53.384491
346 0 1 9.582402 -4.808463 52.867188
347 0 1 8.845094 -4.297694 52.607697
348 0 1 8.347924 -5.075491 52.440887
349 0 1 7.888894 -4.404643 51.902405
350 0 1 7.867352 -4.372622 50.963501
351 0 1 6.909153 -4.042443 51.179108
352 0 1 6.281212 -3.571532 50.668701
353 0 1 6.080662 -3.496073 49.719116
354 0 1 5.597424 -3.921963 49.048584
355 0 1 5.949872 -4.579672 48.538788
356 0 1 6.937142 -4.701602 48.400909
357 0 1 7.554944 -5.468512 48.601501
358 0 1 8.228055 -4.866032 48.855408
359 0 1 8.908605 -4.743563 49.519409
360 0 1 9.430753 -4.577422 48.772400
361 0 1 9.216912 -4.711083 47.756897
362 0 1 8.618512 -5.319613 47.288208
363 0 1 8.031682 -4.701252 47.597809
364 0 1 7.348092 -4.362532 46.904114
365 0 1 7.630784 -5.344283 46.756897
366 0 1 6.999791 -6.026904 46.980103
367 0 1 7.042073 -6.605402 47.773499
368 0 1 6.694222 -6.439923 48.659210
369 0 1 7.531262 -6.922682 48.728394
370 0 1 8.275945 -6.404334 48.489990
371 0 1 9.206243 -6.075652 48.454102
372 0 1 10.038472 -5.694623 48.752014
373 0 1 10.367272 -6.603882 49.117310
374 0 1 11.073274 -6.704901 48.418701
375 0 1 11.736573 -6.889601 47.742401
376 0 1 12.519673 -7.357333 48.232117
377 0 1 11.971875 -7.708033 48.931885
378 0 1 11.871572 -8.686571 48.804413
379 0 1 12.758275 -8.939173 48.592804
380 0 1 12.366773 -9.822973 48.706299
381 0 1 12.582875 -9.854372 49.694489
382 0 1 13.040574 -10.703074 49.377197
383 0 1 13.684274 -11.405272 49.255188
384 0 1 14.250875 -11.460672 48.509705
385 0 1 13.936475 -11.979273 47.816711
386 0 1 13.053372 -11.756071 48.111206
387 0 1 12.367375 -12.457071 47.987213
388 0 1 11.966172 -13.214772 47.417511
389 0 1 11.818574 -13.736773 48.250702
390 0 1 10.880075 -13.707572 48.564697
391 0 1 10.658372 -12.842073 48.854004
392 0 1 10.226872 -12.114872 49.402100
393 0 1 11.122674 -12.299471 49.670197
394 0 1 11.113473 -12.018072 50.603302
395 0 1 10.112073 -11.803373 50.604706
396 0 1 9.311223 -11.503271 51.003784
397 0 1 8.857694 -11.837172 51.800415
398 0 1 9.085732 -11.889971 52.751190
399 0 1 8.179292 -12.023172 52.473816
400 0 1 7.450932 -11.612272 53.056885
401 0 1 6.780232 -11.567472 52.423004
402 0 1 6.010941 -11.686071 51.874390
403 0 1 5.867291 -11.870472 50.930511
404 0 1 6.304741 -11.164772 50.464417
405 0 1 5.882123 -10.308172 50.183594
406 0 1 6.390343 -9.845272 49.504089
407 0 1 5.878342 -9.355871 48.843292
408 0 1 5.873402 -10.261272 48.768494
409 0 1 5.852631 -10.897871 48.090302
410 0 1 4.955563 -10.728172 48.361816
411 0 1 4.387753 -10.817772 47.597198
412 0 1 3.520715 -10.482172 47.444000
413 0 1 3.172944 -10.743773 48.320587
414 0 1 2.477082 -10.881372 47.681885
415 0 1 2.483033 -10.549973 46.754700
416 0 1 2.510484 -9.872772 46.099091
417 0 1 1.858353 -10.588072 45.752106
418 0 1 1.302884 -9.737673 45.529785
419 0 1 1.708062 -9.300871 46.215393
420 0 1 0.829163 -8.870771 46.380798
421 0 1 0.131810 -8.553152 46.998413
422 0 1 -0.386207 -9.282171 47.327515
423 0 1 -0.472949 -10.013172 47.910095
424 0 1 0.360306 -10.103472 48.393890
425 0 1 1.201653 -9.965572 48.772797
426 0 1 1.024912 -8.997473 48.614502
427 0 1 0.106494 -8.571642 48.627808
428 0 1 -0.325200 -8.283533 49.461395
429 0 1 0.331845 -8.596672 50.047302
430 0 1 0.106978 -9.046373 50.923889
431 0 1 -0.357055 -9.599573 51.608612
432 0 1 -0.540172 -9.264372 52.480988
433 0 1 -0.656602 -8.688072 53.261993
434 0 1 -0.731147 -7.775563 52.910004
435 0 1 -1.152736 -6.885764 52.762299
436 0 1 -1.168208 -6.808272 51.809296
437 0 1 -2.015027 -6.461392 51.708984
438 0 1 -1.652837 -5.616263 51.879791
439 0 1 -1.595767 -4.672343 51.506409
440 0 1 -1.399186 -3.967053 50.922302
441 0 1 -2.049037 -4.219353 50.262787
442 0 1 -2.768518 -4.330801 49.726013
443 0 1 -3.037738 -3.455382 49.457092
444 0 1 -2.410556 -2.755982 49.282715
445 0 1 -2.005527 -1.884333 49.045990
446 0 1 -1.752607 -1.154253 48.515289
447 0 1 -1.750266 -0.815613 49.387299
448 0 1 -2.392768 -0.953343 50.086792
449 0 1 -3.206527 -0.556332 49.614410
450 0 1 -4.085308 -0.891013 49.657990
451 0 1 -4.706527 -0.307513 49.239014
452 0 1 -4.568897 -1.206812 48.881195
453 0 1 -4.622768 -2.178214 48.994507
454 0 1 -4.808797 -2.737332 49.697510
455 0 1 -5.661678 -2.298682 49.814209
456 0 1 -6.163417 -3.091383 49.494293
457 0 1 -5.677398 -3.298953 48.688690
458 0 1 -6.136417 -3.849322 47.993591
459 0 1 -6.611537 -3.979493 47.177612
460 0 1 -5.718116 -4.234732 46.962402
461 0 1 -4.782638 -4.327332 47.156189
462 0 1 -4.012338 -4.405272 46.669983
463 0 1 -3.123758 -4.058604 46.753296
464 0 1 -2.603196 -4.734492 47.134613
465 0 1 -1.922117 -4.117823 46.859711
466 0 1 -2.234758 -4.453082 45.938416
467 0 1 -1.271488 -4.742163 45.693695
468 0 1 -1.386247 -4.400483 44.779205
469 0 1 -0.955955 -4.163422 43.835907
470 0 1 -1.344127 -4.715443 43.170898
471 0 1 -2.173898 -4.758742 43.625183
472 0 1 -1.888526 -5.680483 43.551086
473 0 1 -2.299707 -5.814263 42.722198
474 0 1 -3.167247 -5.478383 42.372009
475 0 1 -4.055868 -5.040802 42.300812
476 0 1 -3.722858 -5.324822 41.425293
477 0 1 -3.871267 -5.165701 40.455994
478 0 1 -4.634298 -5.709162 40.601501
479 0 1 -4.428028 -5.520361 39.651489
480 0 1 -4.081768 -5.139092 38.807007
481 0 1 -4.678527 -5.556643 38.122589
482 0 1 -3.659417 -5.798342 38.049103
483 0 1 -3.334937 -5.863944 37.100586
484 0 1 -3.834237 -5.660273 36.337891
485 0 1 -3.221498 -5.229563 35.730591
486 0 1 -3.449117 -4.894772 34.860107
487 0 1 -4.176368 -4.699572 35.605286
488 0 1 -4.726507 -4.247952 36.233307
489 0 1 -4.483478 -3.350922 36.363708
490 0 1 -4.157527 -2.474362 35.943909
491 0 1 -3.436588 -2.895422 36.484406
492 0 1 -3.173358 -2.124793 36.942017
493 0 1 -3.044276 -1.202223 37.193512
494 0 1 -3.026317 -0.713673 38.013794
495 0 1 -3.516088 -0.511353 38.794189
496 0 1 -3.122827 0.283258 38.371216
497 0 1 -2.493228 0.927187 38.046387
498 0 1 -1.615917 0.937910 37.589203
499 0 1 -1.327937 0.880275 38.591888
500 0 1 -0.663566 0.143148 38.614197
501 0 1 -0.176423 -0.205962 37.804993
502 0 1 0.678052 0.243728 37.800690
503 0 1 0.569619 0.753212 36.965515
504 0 1 0.545588 1.581102 37.445007
505 0 1 0.634461 2.522487 37.279114
506 0 1 1.055462 2.278364 36.413696
507 0 1 1.764844 2.711647 35.940491
508 0 1 2.030202 3.636476 35.972107
509 0 1 1.115702 4.098619 35.777893
510 0 1 0.749528 3.881097 36.664307
511 0 1 -0.044168 4.047307 37.262695
512 0 1 0.102650 3.980897 38.243988
513 0 1 0.743657 4.729448 38.281799
514 0 1 1.701062 5.044347 38.319214
515 0 1 2.137414 5.931158 38.500000
516 0 1 1.927102 6.005697 39.468109
517 0 1 1.170252 6.313299 38.867493
518 0 1 0.594422 6.014459 39.584991
519 0 1 0.147668 6.858388 39.956696
520 0 1 0.996712 7.109998 39.629608
521 0 1 0.660321 7.265687 38.732697
522 0 1 -0.013973 7.845689 38.445404
523 0 1 0.296302 8.702299 38.040009
524 0 1 0.417412 8.737547 38.983002
525 0 1 1.331093 8.969919 39.010498
526 0 1 1.141503 9.780817 39.434509
527 0 1 0.400338 9.800570 38.864197
528 0 1 -0.161785 10.639059 39.031403
529 0 1 -0.711372 10.584608 38.231201
530 0 1 -0.319742 10.039629 37.496094
531 0 1 -0.510015 9.729136 36.633392
532 0 1 0.346598 9.682138 36.187195
533 0 1 0.513440 10.549196 35.708191
534 0 1 1.442223 10.656149 35.663696
535 0 1 1.522923 11.502230 35.319702
536 0 1 0.758467 12.060328 35.508789
537 0 1 0.377143 12.043329 34.614990
538 0 1 -0.092149 12.913927 34.470306
539 0 1 -0.486734 13.769629 34.203400
540 0 1 -0.735671 14.755327 34.139801
541 0 1 -0.592664 14.579126 33.176086
542 0 1 -0.835571 15.475626 32.851807
543 0 1 -1.433128 14.844629 32.426697
544 0 1 -1.854238 14.041529 32.521698
545 0 1 -1.722257 14.311728 31.587402
546 0 1 -1.680726 15.239229 31.315491
547 0 1 -2.361728 15.843428 31.387299
548 0 1 -3.026496 16.397627 30.829590
549 0 1 -2.989167 17.177828 31.455292
550 0 1 -3.502998 16.996927 32.295990
551 0 1 -2.770967 16.984629 32.946716
552 0 1 -3.644798 17.089128 33.321503
553 0 1 -4.019708 17.444925 34.141113
554 0 1 -3.690557 17.644129 34.986816
555 0 1 -2.814777 17.306726 35.148102
556 0 1 -2.089328 17.474230 34.535889
557 0 1 -1.804508 16.980928 35.297089
558 0 1 -1.067869 17.102827 35.950592
559 0 1 -0.095125 17.259829 35.888397
560 0 1 0.140402 17.561228 36.784302
561 0 1 -0.387004 18.365129 36.463287
562 0 1 -0.551786 18.749228 37.309113
563 0 1 0.282853 19.045328 37.564209
564 0 1 0.593238 18.358328 38.216309
565 0 1 0.242936 17.850626 38.922699
566 0 1 0.546403 18.637026 39.388794
567 0 1 -0.041696 18.208029 39.986389
568 0 1 -0.195516 17.251028 39.890808
569 0 1 -0.894534 17.659929 40.425995
570 0 1 -0.684560 16.886126 40.942291
571 0 1 -1.559648 16.818026 41.432190
572 0 1 -0.836042 16.448927 41.919495
573 0 1 -0.996486 15.525026 42.178894
574 0 1 -0.946832 14.820127 42.768005
575 0 1 -0.804305 14.376726 43.609009
576 0 1 -1.314317 13.450129 43.605194
577 0 1 -2.064967 12.761530 43.751190
578 0 1 -2.127437 12.433626 42.880890
579 0 1 -2.927297 12.295729 42.398590
580 0 1 -2.709417 11.428228 42.146606
581 0 1 -3.484468 11.186049 41.720093
582 0 1 -4.164257 11.342989 41.010712
583 0 1 -4.944358 11.810827 41.326996
584 0 1 -5.434427 11.245020 42.004700
585 0 1 -6.401329 11.170118 42.005707
586 0 1 -7.126768 10.436468 42.023499
587 0 1 -7.745037 9.789679 42.348602
588 0 1 -7.531398 10.329828 43.181610
589 0 1 -7.120037 9.426668 43.403015
590 0 1 -6.531066 9.101187 42.757599
591 0 1 -6.337408 8.814779 43.693787
592 0 1 -5.840908 8.404009 44.420502
593 0 1 -5.194458 8.915018 44.940704
594 0 1 -5.493118 9.814646 44.631592
595 0 1 -5.452907 10.823298 44.779907
596 0 1 -6.388097 10.515856 44.861816
597 0 1 -6.502517 11.218798 45.579010
598 0 1 -5.669828 11.692728 45.413910
599 0 1 -6.350029 12.247728 45.775909
600 0 1 -5.959857 12.147326 46.695587
601 0 1 -5.359828 11.423727 46.942810
602 0 1 -4.536767 11.221708 46.622406
603 0 1 -3.868657 11.698927 46.092804
604 0 1 -3.102258 11.110067 45.805908
605 0 1 -3.059987 11.738829 45.119110
606 0 1 -2.679298 11.613626 44.185211
607 0 1 -2.346507 10.891657 43.612488
608 0 1 -1.418928 10.907087 43.555908
609 0 1 -0.965293 10.719309 44.362396
610 0 1 -1.261417 11.399439 44.998108
611 0 1 -0.963239 11.228247 45.887695
612 0 1 -0.175073 10.752699 46.054688
613 0 1 -0.208732 10.213747 45.266998
614 0 1 0.082726 9.510748 44.715790
615 0 1 -0.606828 8.973059 44.284912
616 0 1 -1.459367 8.638239 44.527313
617 0 1 -1.536027 9.228487 45.283905
618 0 1 -2.492627 9.539217 45.394989
619 0 1 -3.483268 9.397467 45.269409
620 0 1 -3.280957 9.219717 44.275513
621 0 1 -3.988298 9.809317 44.376587
622 0 1 -4.135067 10.248537 43.523590
623 0 1 -4.094007 9.545988 42.945892
624 0 1 -4.963077 9.452768 42.603302
625 0 1 -4.385807 9.739489 41.884888
626 0 1 -4.827587 9.201429 41.210907
627 0 1 -5.382328 9.006086 40.440491
628 0 1 -5.154108 9.204096 39.557312
629 0 1 -4.212778 9.267286 39.557709
630 0 1 -4.153358 8.389116 39.004303
631 0 1 -3.378318 8.098780 39.450500
632 0 1 -2.993318 8.285646 38.624817
633 0 1 -2.131356 8.716177 38.283112
634 0 1 -1.325277 8.105757 38.145203
635 0 1 -0.882415 7.644266 37.364685
636 0 1 -1.389717 7.575769 36.510498
637 0 1 -2.093566 6.954957 36.739807
638 0 1 -2.954618 6.460779 36.673584
639 0 1 -2.445056 5.854768 37.114807
640 0 1 -2.917627 5.237619 37.711090
641 0 1 -3.019416 5.761938 38.466309
642 0 1 -2.150087 5.399988 38.709106
643 0 1 -1.564027 5.666418 39.434387
644 0 1 -0.711007 5.466428 39.805115
645 0 1 0.163170 5.347646 40.286591
646 0 1 0.416941 4.406888 40.393799
647 0 1 -0.303119 4.015119 40.928192
648 0 1 0.412484 3.550527 41.386597
649 0 1 0.187430 3.577138 42.334991
650 0 1 0.647391 2.679708 42.189209
651 0 1 -0.176519 2.338531 42.655609
652 0 1 -0.543950 1.416134 42.622803
653 0 1 0.392422 1.182415 42.444092
654 0 1 0.305512 1.485332 41.505707
655 0 1 -0.048831 0.847093 40.870789
656 0 1 -0.278114 0.582647 39.897308
657 0 1 -0.760118 1.366956 39.656494
658 0 1 -0.706886 1.999498 38.950500
659 0 1 0.026841 2.570547 38.750488
660 0 1 -0.457172 3.151487 39.317413
661 0 1 -1.333448 3.468317 39.352509
662 0 1 -2.175878 2.979158 39.659210
663 0 1 -2.767198 3.659585 40.084503
664 0 1 -3.350868 4.131818 39.496704
665 0 1 -3.498348 3.292627 39.000000
666 0 1 -3.594157 2.725168 38.183411
667 0 1 -4.173358 2.696338 37.404114
668 0 1 -4.770778 2.247360 38.041901
669 0 1 -5.726467 2.453937 38.034393
670 0 1 -5.612617 2.873537 37.164917
671 0 1 -6.526567 2.913738 36.859406
672 0 1 -7.471668 2.738237 37.087891
673 0 1 -8.035598 3.169916 37.707703
674 0 1 -8.827308 3.373579 38.375305
675 0 1 -9.472236 3.371198 37.666901
676 0 1 -9.555278 2.410774 37.794312
677 0 1 -10.477527 2.262352 37.812683
678 0 1 -10.926726 3.145227 37.651611
679 0 1 -11.013127 4.090299 38.057983
680 0 1 -10.271228 4.489377 37.512787
681 0 1 -10.204436 4.788846 36.611084
682 0 1 -9.597247 5.270906 36.072510
683 0 1 -9.114566 5.110586 35.234009
684 0 1 -8.507197 5.743707 34.602417
685 0 1 -7.615907 6.122587 34.570312
686 0 1 -7.520048 5.503507 35.345886
687 0 1 -7.396278 6.366987 35.791199
688 0 1 -6.526638 6.556406 36.176697
689 0 1 -5.671968 6.103799 36.397583
690 0 1 -5.135007 6.211557 37.174896
691 0 1 -5.354578 6.047296 38.109711
692 0 1 -5.867208 5.885599 38.862701
693 0 1 -6.109987 6.485166 39.594910
694 0 1 -7.050367 6.504629 39.919617
695 0 1 -7.016958 7.358736 39.439301
696 0 1 -7.891027 6.916898 39.405792
697 0 1 -8.078317 7.035326 40.350494
698 0 1 -8.936007 7.207056 40.675507
699 0 1 -9.634128 7.742158 41.072296
700 0 1 -9.204947 8.388647 41.697113
701 0 1 -9.517167 8.517267 42.615906
702 0 1 -10.477828 8.487017 42.766998
703 0 1 -10.162047 7.598047 42.801605
704 0 1 -9.527438 8.002089 43.457306
705 0 1 -9.780608 7.652807 44.297485
706 0 1 -10.662726 7.841066 44.621399
707 0 1 -11.152827 8.480196 45.133301
708 0 1 -11.728728 8.648180 45.847412
709 0 1 -11.541526 8.565107 46.792297
710 0 1 -10.716826 8.053537 46.906708
711 0 1 -9.760787 8.107458 46.728516
712 0 1 -9.283927 8.581026 46.081207
713 0 1 -9.787566 9.233068 45.574402
714 0 1 -10.219697 9.726797 44.909210
715 0 1 -11.127027 9.712786 45.035797
716 0 1 -11.357827 9.179728 44.139801
717 0 1 -12.337726 9.331179 44.184692
718 0 1 -12.149928 8.535589 43.629608
719 0 1 -12.220126 7.839967 42.953705
720 0 1 -12.527127 6.918016 42.745209
721 0 1 -12.699327 7.063699 41.855988
722 0 1 -12.854026 6.695356 40.984192
723 0 1 -12.864028 7.660188 40.967010
724 0 1 -12.136827 7.933076 40.289307
725 0 1 -12.885127 7.602479 39.876099
726 0 1 -12.703027 7.351205 38.933289
727 0 1 -12.868026 7.949628 38.206909
728 0 1 -12.571727 8.060160 37.243988
729 0 1 -13.398427 7.654127 37.040894
730 0 1 -14.311927 8.032457 37.229309
731 0 1 -14.614127 8.851599 36.833588
732 0 1 -14.512427 9.356409 37.600708
733 0 1 -15.388827 9.613787 37.384399
734 0 1 -16.126028 9.829699 37.968811
735 0 1 -16.476427 10.140738 37.135193
736 0 1 -16.452127 10.018618 36.136108
737 0 1 -15.690127 9.402246 36.383087
738 0 1 -15.264127 8.976267 35.645996
739 0 1 -15.030427 9.919359 35.436584
740 0 1 -14.535026 10.073290 34.658386
741 0 1 -14.969127 9.563578 33.984192
742 0 1 -15.433826 9.053690 34.619690
743 0 1 -15.355327 8.308489 33.969391
744 0 1 -14.606826 7.769907 33.715912
745 0 1 -13.793527 7.287019 33.867310
746 0 1 -13.577027 6.358369 34.181091
747 0 1 -13.855628 5.546438 34.669098
748 0 1 -14.386928 4.745256 34.910187
749 0 1 -14.662927 5.113668 34.033813
750 0 1 -14.190726 5.431287 33.322693
751 0 1 -13.579028 4.831457 33.780701
752 0 1 -13.893928 3.973909 33.829285
753 0 1 -13.604426 3.316797 33.182709
754 0 1 -13.350226 2.578598 33.856384
755 0 1 -13.460826 1.930032 34.633209
756 0 1 -12.644027 2.517448 34.860413
757 0 1 -12.409026 3.074346 34.107697
758 0 1 -11.877727 2.345609 33.847107
759 0 1 -11.647727 1.966032 33.023987
760 0 1 -11.429328 1.326139 32.329498
761 0 1 -10.678126 0.738147 32.060791
762 0 1 -10.270526 0.657983 32.945587
763 0 1 -9.559146 1.091098 33.471100
764 0 1 -9.161807 1.159769 34.305298
765 0 1 -8.601756 1.961893 34.499207
766 0 1 -8.707328 2.355484 33.668213
767 0 1 -7.746507 2.195476 33.620697
768 0 1 -7.569717 1.926811 32.658386
769 0 1 -8.099658 2.095449 31.917206
770 0 1 -8.582137 1.392887 32.267700
771 0 1 -9.202527 0.684696 32.126312
772 0 1 -9.732047 0.919450 31.352905
773 0 1 -10.061488 1.704235 30.904114
774 0 1 -10.831326 1.136091 31.001312
775 0 1 -10.478627 1.099748 30.054199
776 0 1 -10.620227 0.785982 29.174408
777 0 1 -10.367126 0.325197 28.389191
778 0 1 -10.872827 -0.414822 28.102600
779 0 1 -11.372226 0.365038 28.274506
780 0 1 -11.011127 1.205818 27.837891
781 0 1 -10.574428 2.150661 27.863800
782 0 1 -11.177028 1.953516 27.109894
783 0 1 -11.758426 2.499767 27.649902
784 0 1 -11.723128 2.457487 28.647705
785 0 1 -12.657327 2.533468 28.333984
786 0 1 -12.789428 3.468816 28.484314
787 0 1 -13.098228 3.673116 27.583496
788 0 1 -12.873027 4.423929 27.051605
789 0 1 -13.184627 4.824956 27.835114
790 0 1 -13.612727 5.592268 28.221008
791 0 1 -13.032226 5.985269 28.831390
792 0 1 -12.451728 5.086328 28.957092
793 0 1 -11.576926 5.262296 29.313110
794 0 1 -10.604127 5.348497 29.225494