LAMMPS data file via MDAnalysis

        2000  atoms
        1999  bonds
           0  angles
           0  dihedrals
           0  impropers

           1  atom types
           1  bond types
           0  angle types
           0  dihedral types
           0  improper types

-30.5 30.5 xlo xhi
-30.5 30.5 ylo yhi
-233.5 233.5 zlo zhi


Masses

1 1.000000

Atoms

1 0 1 26.783251 1.031560 -42.160095
2 0 1 25.848253 1.154477 -42.001602
3 0 1 25.023851 1.024197 -41.526199
4 0 1 25.036150 0.551740 -40.662704
5 0 1 24.408854 0.128348 -40.089005
6 0 1 25.053652 -0.549600 -39.840103
7 0 1 25.346853 -1.381209 -40.224197
8 0 1 25.363253 -2.086932 -40.842697
9 0 1 26.247355 -2.371762 -41.077896
10 0 1 26.046350 -2.201158 -40.146896
11 0 1 25.908655 -3.080892 -39.813095
12 0 1 25.286150 -3.129972 -39.091202
13 0 1 24.652651 -3.842402 -39.304001
14 0 1 24.527254 -3.116012 -39.928192
15 0 1 23.593653 -3.123292 -39.890198
16 0 1 23.885653 -3.935842 -40.334106
17 0 1 23.371252 -3.870681 -41.183807
18 0 1 23.586550 -4.833291 -41.063202
19 0 1 24.460451 -5.162892 -41.370697
20 0 1 25.238653 -5.773421 -41.301804
21 0 1 25.393652 -6.678412 -41.682297
22 0 1 24.674150 -6.265412 -42.157303
23 0 1 23.926455 -6.218152 -41.599701
24 0 1 23.955553 -7.168962 -41.486694
25 0 1 23.287455 -7.228581 -42.223694
26 0 1 22.386354 -7.032521 -42.580704
27 0 1 21.641653 -7.278142 -43.082199
28 0 1 21.448450 -7.823472 -42.311600
29 0 1 20.626055 -7.313771 -42.208603
30 0 1 20.720255 -6.377231 -42.061005
31 0 1 20.784452 -6.307912 -41.082504
32 0 1 21.428953 -5.694371 -40.687897
33 0 1 21.950151 -4.899131 -40.691193
34 0 1 22.579653 -5.360791 -40.123901
35 0 1 22.836252 -5.102471 -39.229996
36 0 1 23.048952 -4.138732 -39.050201
37 0 1 23.400553 -3.647071 -38.306503
38 0 1 23.318552 -3.552941 -37.320099
39 0 1 22.802050 -2.721662 -37.371307
40 0 1 22.995150 -1.759572 -37.436600
41 0 1 22.893854 -0.899053 -36.861801
42 0 1 22.987955 0.058549 -36.701202
43 0 1 22.749052 -0.035651 -37.663101
44 0 1 23.430750 0.090518 -38.357803
45 0 1 22.558153 -0.022472 -38.843506
46 0 1 21.592352 -0.111022 -39.158905
47 0 1 21.113852 -0.734017 -39.673004
48 0 1 20.247454 -1.043355 -39.364502
49 0 1 20.240953 -1.022811 -38.360596
50 0 1 20.465853 -1.904460 -38.787506
51 0 1 20.998453 -2.468963 -38.107895
52 0 1 20.437151 -2.649501 -37.359406
53 0 1 20.340754 -3.428691 -37.898895
54 0 1 19.781954 -3.607911 -37.032196
55 0 1 19.014055 -3.642673 -36.461609
56 0 1 18.567751 -2.850223 -35.964600
57 0 1 18.215353 -1.938491 -36.457001
58 0 1 17.376852 -2.402143 -36.195099
59 0 1 16.812654 -1.646508 -36.324707
60 0 1 16.116854 -1.130672 -35.877808
61 0 1 16.966452 -0.589427 -35.934998
62 0 1 16.371752 0.234488 -35.908905
63 0 1 16.272554 0.271489 -34.941406
64 0 1 17.211855 0.101968 -35.159698
65 0 1 17.632051 0.716737 -34.655899
66 0 1 18.338953 0.574616 -34.030197
67 0 1 18.996252 0.368478 -34.638092
68 0 1 19.651453 -0.356361 -34.459000
69 0 1 19.171553 -0.181481 -33.585495
70 0 1 19.363852 -1.099218 -33.640594
71 0 1 20.090754 -1.482310 -34.069595
72 0 1 20.759352 -2.136630 -34.473907
73 0 1 20.966253 -2.521682 -33.616898
74 0 1 20.597052 -2.068234 -32.866302
75 0 1 21.278852 -2.342301 -32.234894
76 0 1 20.718454 -1.769822 -31.683701
77 0 1 19.856951 -1.701751 -32.066605
78 0 1 18.946253 -1.584590 -31.873001
79 0 1 18.242350 -0.963054 -32.140198
80 0 1 18.560755 -0.065581 -31.978394
81 0 1 17.895853 0.247508 -31.370804
82 0 1 17.116755 -0.282163 -31.507401
83 0 1 16.823553 0.301019 -30.848099
84 0 1 16.501753 0.848019 -30.110504
85 0 1 17.038752 0.107209 -29.837799
86 0 1 16.903952 0.710908 -29.046494
87 0 1 17.716352 0.965600 -28.548004
88 0 1 18.429255 1.564027 -28.887604
89 0 1 19.212652 1.763867 -29.400604
90 0 1 19.794252 2.322080 -28.893906
91 0 1 19.817652 2.578668 -27.999207
92 0 1 20.488451 2.947717 -27.431503
93 0 1 20.392450 3.805810 -27.909103
94 0 1 19.752054 3.689870 -27.201996
95 0 1 19.226553 4.046697 -27.984497
96 0 1 18.894754 3.748509 -28.873795
97 0 1 18.947653 3.463670 -29.806396
98 0 1 18.473852 4.255010 -30.268494
99 0 1 17.751551 3.880448 -30.616394
100 0 1 16.847853 4.031049 -30.418304
101 0 1 16.639055 4.390008 -31.353500
102 0 1 16.535952 4.546269 -32.291199
103 0 1 16.297251 5.469190 -32.263306
104 0 1 16.377550 6.390828 -31.765396
105 0 1 16.175753 7.349759 -31.759308
106 0 1 15.541952 7.835366 -31.206604
107 0 1 15.978853 7.195168 -30.634705
108 0 1 16.112352 8.010449 -30.141098
109 0 1 15.163553 8.134198 -30.039703
110 0 1 14.774950 8.718389 -29.401901
111 0 1 14.836954 9.735509 -29.507599
112 0 1 15.092951 10.655610 -29.490906
113 0 1 15.976652 10.375108 -29.683395
114 0 1 16.208750 10.242410 -30.588196
115 0 1 17.171652 10.032807 -30.579803
116 0 1 17.205454 9.236810 -30.105606
117 0 1 18.043451 8.887910 -30.228104
118 0 1 18.202753 8.645169 -31.203995
119 0 1 19.149050 8.855008 -31.294205
120 0 1 19.213755 9.334310 -32.082596
121 0 1 19.391653 8.606217 -32.667404
122 0 1 18.622053 8.603047 -33.362396
123 0 1 18.170450 9.265508 -33.966599
124 0 1 17.686754 9.960206 -33.434601
125 0 1 17.758951 10.463510 -34.194000
126 0 1 16.809053 10.686906 -33.903595
127 0 1 16.425352 11.026307 -34.662003
128 0 1 16.028952 10.205609 -34.899002
129 0 1 15.325754 9.717507 -35.431091
130 0 1 15.222254 8.811906 -35.024200
131 0 1 14.317953 8.844407 -34.894196
132 0 1 14.063253 9.139607 -34.051895
133 0 1 13.480352 9.267106 -33.320297
134 0 1 13.610552 9.605409 -32.382294
135 0 1 14.484953 10.084908 -32.067398
136 0 1 14.624552 11.022107 -31.967606
137 0 1 14.708551 10.489511 -31.143005
138 0 1 14.166353 10.946710 -30.554901
139 0 1 14.288553 11.680207 -29.885803
140 0 1 13.292353 11.493508 -29.926697
141 0 1 12.648752 11.194509 -29.292694
142 0 1 13.198153 10.395009 -29.116196
143 0 1 12.715952 9.829007 -28.509506
144 0 1 12.025553 10.228108 -28.009705
145 0 1 12.099550 9.639009 -27.221207
146 0 1 13.039553 9.545907 -27.394104
147 0 1 13.428953 10.457108 -27.450806
148 0 1 12.794851 10.570008 -26.670502
149 0 1 13.813951 10.524507 -26.464798
150 0 1 14.081751 10.067109 -25.712494
151 0 1 14.123552 9.875207 -24.745895
152 0 1 14.206053 10.717507 -24.138596
153 0 1 14.112852 9.831010 -23.621002
154 0 1 14.801950 9.681207 -23.033203
155 0 1 15.744051 9.570409 -22.848602
156 0 1 16.256250 8.642220 -22.821701
157 0 1 15.988451 8.257360 -22.010406
158 0 1 16.243353 8.269418 -21.098801
159 0 1 16.996653 7.721578 -21.477005
160 0 1 16.704252 7.275010 -20.660492
161 0 1 16.609152 6.355989 -20.996002
162 0 1 16.738451 6.020387 -21.965607
163 0 1 15.880053 6.370069 -21.863708
164 0 1 15.107653 6.632279 -21.309998
165 0 1 14.965754 6.956288 -20.432297
166 0 1 15.679552 7.550126 -20.178802
167 0 1 15.718454 6.725648 -19.687805
168 0 1 15.802355 6.300359 -18.872604
169 0 1 16.548552 6.169229 -18.164505
170 0 1 16.674051 5.447827 -17.493805
171 0 1 15.908953 5.856870 -17.041504
172 0 1 15.326250 5.440328 -17.758896
173 0 1 15.249651 4.635568 -18.278595
174 0 1 14.959154 3.925729 -18.912506
175 0 1 14.229052 4.355699 -19.322800
176 0 1 13.508352 4.668168 -18.775497
177 0 1 13.531855 5.603250 -18.631104
178 0 1 13.382753 6.322179 -17.984299
179 0 1 13.903154 6.061177 -17.206406
180 0 1 13.168653 5.425370 -17.405701
181 0 1 12.405252 4.862638 -17.265396
182 0 1 12.199953 3.987470 -17.769501
183 0 1 11.530653 3.662919 -18.436401
184 0 1 10.697252 4.077100 -18.463394
185 0 1 10.514254 4.745927 -17.795807
186 0 1 11.464251 4.690858 -18.080704
187 0 1 11.368052 5.553010 -17.697800
188 0 1 11.453253 5.914609 -16.778992
189 0 1 10.781553 6.479798 -16.425903
190 0 1 11.662153 6.723039 -16.188202
191 0 1 11.491552 7.488648 -15.644195
192 0 1 11.464453 7.879338 -14.787398
193 0 1 12.296453 7.679368 -14.390700
194 0 1 13.183153 7.597016 -13.946197
195 0 1 14.045652 7.363378 -13.784606
196 0 1 13.792852 8.304978 -13.589507
197 0 1 13.013750 8.443719 -13.062102
198 0 1 12.913153 8.288598 -12.070800
199 0 1 12.302954 8.947808 -11.740798
200 0 1 11.775354 8.934407 -10.972106
201 0 1 10.962152 9.358708 -10.505706
202 0 1 10.446054 9.728509 -11.276305
203 0 1 10.073652 10.439408 -11.796905
204 0 1 9.208452 10.370408 -11.546004
205 0 1 8.569674 10.182008 -12.247893
206 0 1 8.239130 9.426309 -11.780395
207 0 1 7.905402 8.995606 -10.904601
208 0 1 7.463454 8.165479 -11.231002
209 0 1 7.155802 8.502687 -10.318496
210 0 1 7.783511 8.667798 -9.561782
211 0 1 7.425032 7.909097 -9.090423
212 0 1 7.814204 8.514329 -8.447356
213 0 1 8.706793 8.356530 -8.773574
214 0 1 9.125650 8.175508 -7.913192
215 0 1 9.132353 7.742589 -7.058929
216 0 1 9.122953 7.124009 -6.317855
217 0 1 8.227571 6.869737 -6.055694
218 0 1 8.438814 7.817376 -5.967895
219 0 1 8.079500 8.195527 -5.190765
220 0 1 7.819842 8.067437 -4.210907
221 0 1 7.037554 8.051129 -4.822692
222 0 1 6.921034 7.501187 -4.014587
223 0 1 7.032034 7.284627 -3.086898
224 0 1 7.344012 7.687966 -2.247970
225 0 1 7.999403 7.329679 -1.595886
226 0 1 7.972464 8.285317 -1.379623
227 0 1 7.272982 8.773908 -1.189315
228 0 1 6.274203 8.848107 -1.252395
229 0 1 5.800555 8.185708 -0.694412
230 0 1 5.921824 7.365800 -0.162658
231 0 1 4.963923 7.237367 -0.273925
232 0 1 4.820612 6.803708 0.562073
233 0 1 4.594542 5.968400 0.108048
234 0 1 4.050532 5.086247 0.249528
235 0 1 3.748362 4.488076 1.003937
236 0 1 4.530131 3.900929 0.900223
237 0 1 4.441184 3.837350 1.924500
238 0 1 4.758532 3.597177 2.755860
239 0 1 5.684382 3.343148 2.968949
240 0 1 6.632205 3.088357 3.056779
241 0 1 6.246531 3.148488 3.994935
242 0 1 5.865794 4.048768 3.947068
243 0 1 5.917574 4.641618 4.723099
244 0 1 5.251315 5.129918 5.197526
245 0 1 5.434832 4.792520 6.050309
246 0 1 4.867632 3.992398 6.271500
247 0 1 5.199194 3.075707 6.208237
248 0 1 4.308234 3.090688 6.430970
249 0 1 4.559592 2.192597 6.264679
250 0 1 5.246382 1.523339 6.208786
251 0 1 5.226164 0.590539 6.043351
252 0 1 5.675383 -0.112441 5.513245
253 0 1 5.731875 -0.047523 4.585282
254 0 1 6.545245 0.263987 4.215973
255 0 1 7.104945 -0.130302 3.587434
256 0 1 7.453001 -0.454934 2.777360
257 0 1 8.303862 -0.398122 3.269395
258 0 1 8.450323 0.316850 3.927216
259 0 1 9.285952 0.828679 3.996842
260 0 1 9.534452 -0.069562 4.269745
261 0 1 10.048853 0.113688 5.001786
262 0 1 10.405054 0.023578 5.875702
263 0 1 10.644651 0.914098 6.276154
264 0 1 9.809351 1.109277 5.755921
265 0 1 9.426950 1.532639 4.991669
266 0 1 8.857973 1.828339 5.696686
267 0 1 8.568674 1.241097 6.411362
268 0 1 8.288591 0.591428 7.035492
269 0 1 8.423784 1.336079 7.656983
270 0 1 7.662043 1.810719 8.071534
271 0 1 7.615004 0.883359 8.238877
272 0 1 7.235663 0.406030 9.039567
273 0 1 6.448054 0.426080 9.704408
274 0 1 6.676352 1.333028 9.955888
275 0 1 6.840052 2.142797 10.430497
276 0 1 7.669672 2.582887 10.617295
277 0 1 7.426844 3.501359 10.798707
278 0 1 6.615683 3.961099 11.078996
279 0 1 5.671504 4.071649 11.300202
280 0 1 5.288832 3.263070 11.611909
281 0 1 4.496703 3.627378 11.268601
282 0 1 3.739783 3.281167 10.761308
283 0 1 3.906862 4.167607 10.325593
284 0 1 3.531191 5.002000 10.340898
285 0 1 2.664263 4.616727 10.369905
286 0 1 2.951334 3.841126 9.923860
287 0 1 2.421274 3.068437 9.959641
288 0 1 2.726721 2.569070 10.733308
289 0 1 3.532793 2.023667 11.007005
290 0 1 3.642721 1.319127 10.384309
291 0 1 2.703844 1.278287 10.627595
292 0 1 1.817862 1.315457 11.005601
293 0 1 1.919024 0.334496 11.067994
294 0 1 2.135264 0.080579 11.963304
295 0 1 2.922922 0.277539 11.527696
296 0 1 3.205523 -0.305699 10.805207
297 0 1 4.060393 0.191157 10.821107
298 0 1 4.984992 0.228988 11.011094
299 0 1 4.588522 -0.548537 11.315797
300 0 1 4.663714 -1.185777 12.013093
301 0 1 4.406252 -2.125516 12.194306
302 0 1 5.333842 -2.121554 11.976197
303 0 1 6.276251 -2.229213 11.587708
304 0 1 7.258742 -2.519252 11.601106
305 0 1 7.820563 -3.235082 11.782105
306 0 1 7.560763 -4.158992 11.693604
307 0 1 7.245783 -3.984431 12.537293
308 0 1 6.730513 -4.588471 12.032105
309 0 1 6.392992 -4.935283 12.924302
310 0 1 5.825633 -5.619651 12.573503
311 0 1 6.834044 -5.740142 12.481507
312 0 1 6.782393 -6.353782 13.180406
313 0 1 6.297961 -6.194942 14.009797
314 0 1 7.002081 -5.883052 14.647004
315 0 1 6.130003 -6.003501 15.024201
316 0 1 6.467253 -5.665523 15.868699
317 0 1 6.614253 -6.240333 16.774902
318 0 1 7.484114 -6.034812 16.903900
319 0 1 6.837473 -5.447951 17.315308
320 0 1 7.764575 -5.206653 17.373703
321 0 1 8.113142 -4.772521 16.563904
322 0 1 8.476732 -3.864911 16.422897
323 0 1 8.346762 -4.217221 15.550904
324 0 1 8.708620 -3.356711 15.542100
325 0 1 7.815341 -3.128722 15.788896
326 0 1 8.136850 -2.377431 16.294006
327 0 1 7.879092 -2.983172 17.020706
328 0 1 8.227392 -2.110900 17.304199
329 0 1 7.828524 -1.497443 17.846008
330 0 1 8.238382 -0.639203 18.226501
331 0 1 7.524584 -0.047973 18.021301
332 0 1 6.995074 -0.750667 18.389801
333 0 1 6.056353 -0.504291 18.382904
334 0 1 6.043452 -1.260060 18.967499
335 0 1 5.371493 -1.243905 19.636505
336 0 1 4.509192 -1.031188 19.293198
337 0 1 4.259161 -1.625049 18.528992
338 0 1 4.598582 -0.766389 18.320694
339 0 1 4.946352 -1.232688 17.618896
340 0 1 4.443774 -2.025855 17.309906
341 0 1 4.813433 -2.684312 16.804108
342 0 1 4.536543 -3.535142 17.211197
343 0 1 3.903994 -4.307912 17.324799
344 0 1 3.917834 -4.954782 18.041199
345 0 1 2.988283 -4.746072 17.747604
346 0 1 3.024134 -4.908431 16.809494
347 0 1 2.291731 -4.903771 16.142700
348 0 1 2.665262 -5.201552 15.323594
349 0 1 2.614214 -5.986012 14.692506
350 0 1 3.471312 -5.676883 14.337007
351 0 1 3.940302 -6.448442 14.641206
352 0 1 3.817663 -7.093072 15.321305
353 0 1 3.006453 -6.927941 14.905305
354 0 1 2.749014 -7.690143 14.282197
355 0 1 1.940462 -7.609771 13.822206
356 0 1 1.939844 -6.675782 13.864198
357 0 1 1.215414 -6.339862 13.317597
358 0 1 0.280052 -6.267442 13.283998
359 0 1 -0.233965 -6.978023 12.918397
360 0 1 -0.694519 -6.995063 12.104707
361 0 1 0.259953 -6.972831 11.934495
362 0 1 1.049971 -7.438802 11.561097
363 0 1 2.034964 -7.385673 11.579698
364 0 1 2.471201 -8.224601 11.359605
365 0 1 3.439352 -7.939252 11.418397
366 0 1 3.686972 -8.850602 11.110993
367 0 1 3.559454 -9.239951 12.033494
368 0 1 2.780764 -9.722522 11.626100
369 0 1 2.693053 -9.672313 10.692796
370 0 1 3.144404 -10.524522 10.619203
371 0 1 3.573534 -10.933673 9.845582
372 0 1 3.259474 -11.662890 9.278275
373 0 1 3.968745 -11.513091 8.669496
374 0 1 4.530753 -12.287391 8.634889
375 0 1 5.170405 -12.470592 9.309541
376 0 1 5.066832 -12.738791 10.208497
377 0 1 4.532671 -13.179393 10.889497
378 0 1 4.244223 -13.984292 11.356004
379 0 1 5.168093 -14.002091 11.513703
380 0 1 5.219244 -13.068791 11.601304
381 0 1 5.697241 -13.103492 12.404206
382 0 1 6.095831 -13.356992 13.383607
383 0 1 5.949145 -13.549592 14.349397
384 0 1 5.877383 -13.797791 15.252809
385 0 1 5.192633 -14.428191 15.535096
386 0 1 4.370963 -14.444991 15.061997
387 0 1 4.328654 -13.514592 15.291993
388 0 1 5.023322 -13.212392 15.851197
389 0 1 4.861742 -12.425292 16.308395
390 0 1 4.852381 -12.768992 17.182800
391 0 1 5.784522 -13.003491 17.286804
392 0 1 5.159483 -13.604293 17.821396
393 0 1 5.826212 -14.075892 17.334808
394 0 1 5.231051 -14.303092 16.671005
395 0 1 5.547793 -15.204192 16.734604
396 0 1 4.506033 -15.388192 16.856705
397 0 1 4.421435 -15.810092 17.730103
398 0 1 4.836272 -15.905092 18.568298
399 0 1 4.349204 -15.874092 19.432693
400 0 1 3.865481 -16.361193 20.121201
401 0 1 3.277113 -16.818493 19.545502
402 0 1 2.881571 -17.178392 18.744507
403 0 1 3.771864 -17.463593 18.785095
404 0 1 3.700503 -18.372093 19.191299
405 0 1 4.364111 -18.181692 18.503799
406 0 1 5.043211 -18.801292 18.185608
407 0 1 5.520884 -19.600792 18.069397
408 0 1 6.075663 -20.204493 18.614197
409 0 1 6.179411 -20.014593 19.637604
410 0 1 5.672305 -19.478493 20.294708
411 0 1 4.881114 -19.765694 20.792206
412 0 1 4.970114 -20.598993 21.327606
413 0 1 4.361231 -21.327692 21.481400
414 0 1 4.188372 -20.641893 22.182800
415 0 1 4.783404 -20.809893 22.945709
416 0 1 4.592211 -21.648993 22.566986
417 0 1 3.923094 -21.816692 23.172485
418 0 1 3.255163 -21.563692 22.496506
419 0 1 2.870363 -20.783993 22.031799
420 0 1 2.223791 -20.132793 21.717499
421 0 1 1.520552 -19.661093 22.165298
422 0 1 1.750223 -19.579792 23.054504
423 0 1 0.780691 -19.655394 23.050201
424 0 1 0.464283 -18.751493 23.249603
425 0 1 0.132233 -18.221493 23.986694
426 0 1 0.755381 -17.429493 24.003784
427 0 1 0.017332 -17.233294 23.422607
428 0 1 -0.888914 -16.915691 23.644287
429 0 1 -0.233640 -16.530792 24.300293
430 0 1 -0.568668 -16.968592 25.139893
431 0 1 -0.141576 -16.397993 25.818298
432 0 1 -0.911590 -16.393192 26.450806
433 0 1 -1.112890 -15.595792 26.898407
434 0 1 -1.628183 -15.008391 27.403809
435 0 1 -1.100130 -15.061893 28.220612
436 0 1 -0.519840 -15.406892 28.922913
437 0 1 0.022436 -16.138391 29.194702
438 0 1 0.707232 -16.776493 28.876709
439 0 1 1.296553 -16.509892 29.555298
440 0 1 1.697882 -16.946293 30.402405
441 0 1 2.519503 -16.982292 29.774597
442 0 1 2.880434 -17.812492 29.351013
443 0 1 3.641955 -17.364992 29.729187
444 0 1 3.483134 -16.964891 30.754608
445 0 1 3.787874 -16.166292 30.208710
446 0 1 3.959273 -15.192092 30.232391
447 0 1 4.313883 -15.039493 31.087006
448 0 1 4.050963 -14.089492 31.084991
449 0 1 3.454031 -13.673491 31.695312
450 0 1 3.515383 -14.576692 32.144409
451 0 1 2.960814 -15.169991 32.610687
452 0 1 3.295054 -15.977692 33.049896
453 0 1 2.432352 -15.744192 33.440704
454 0 1 1.669161 -16.077192 34.031311
455 0 1 1.251032 -16.953592 34.026489
456 0 1 0.417992 -17.410593 33.867096
457 0 1 -0.308927 -17.948294 34.306885
458 0 1 0.382082 -18.628893 34.286713
459 0 1 0.805102 -19.103092 34.927887
460 0 1 1.614073 -19.173594 35.410400
461 0 1 1.925421 -20.027792 35.705811
462 0 1 0.961493 -20.117092 35.646912
463 0 1 0.351633 -19.542692 36.098694
464 0 1 0.041838 -19.903994 36.949799
465 0 1 -0.406149 -19.092793 36.824890
466 0 1 -0.406849 -18.892492 37.783386
467 0 1 -0.400509 -17.987593 37.932404
468 0 1 -0.685396 -17.271492 37.265991
469 0 1 -1.328228 -17.054792 37.982483
470 0 1 -1.617719 -16.212692 37.688599
471 0 1 -2.004547 -15.417090 38.149689
472 0 1 -2.197578 -14.543693 38.247986
473 0 1 -2.883657 -14.809093 38.959106
474 0 1 -2.448778 -14.743392 39.811005
475 0 1 -2.811428 -13.803691 39.688416
476 0 1 -1.923906 -13.817191 39.394012
477 0 1 -1.039028 -14.088691 38.922394
478 0 1 -0.648124 -13.958591 39.832703
479 0 1 0.240612 -13.620391 39.973907
480 0 1 -0.011493 -13.528693 40.956787
481 0 1 0.265723 -13.821292 41.864105
482 0 1 0.004587 -13.805591 42.777802
483 0 1 0.391842 -14.150092 43.570404
484 0 1 0.173603 -13.421992 44.236389
485 0 1 0.449454 -14.230292 44.644806
486 0 1 1.412302 -14.411992 44.686401
487 0 1 1.324873 -13.852592 45.450592
488 0 1 1.290701 -14.678290 46.067993
489 0 1 1.611464 -14.553092 46.963593
490 0 1 0.841502 -13.887292 46.812592
491 0 1 0.486912 -13.027991 47.024109
492 0 1 0.920992 -13.093291 47.846008
493 0 1 0.229122 -12.467092 47.986298
494 0 1 -0.467220 -11.909091 47.548706
495 0 1 -1.329624 -11.600291 47.873993
496 0 1 -1.723766 -11.439193 47.039795
497 0 1 -2.310888 -10.682471 47.314697
498 0 1 -3.164388 -10.959712 47.054504
499 0 1 -3.369167 -11.397792 47.906189
500 0 1 -3.724077 -12.002192 47.305695
501 0 1 -3.883587 -12.309291 48.192810
502 0 1 -4.813947 -12.413093 47.930603
503 0 1 -4.963506 -13.280292 48.398499
504 0 1 -4.346727 -13.737092 48.942505
505 0 1 -4.157457 -14.315692 48.207611
506 0 1 -4.888607 -14.669991 47.686310
507 0 1 -5.657476 -15.271392 47.555389
508 0 1 -6.536787 -15.213792 47.965393
509 0 1 -7.012296 -14.397992 47.698303
510 0 1 -7.210588 -14.086291 48.553101
511 0 1 -6.284738 -13.862292 48.787109
512 0 1 -6.392557 -13.195491 49.463409
513 0 1 -5.609157 -13.712691 49.717102
514 0 1 -4.972066 -14.297791 50.121704
515 0 1 -3.978828 -14.049191 50.167786
516 0 1 -3.595657 -13.608592 50.907196
517 0 1 -3.915527 -13.184592 51.736084
518 0 1 -3.997427 -12.541793 52.429291
519 0 1 -3.101177 -12.878491 52.753784
520 0 1 -3.065698 -12.697492 53.668396
521 0 1 -3.327068 -13.447391 54.266296
522 0 1 -4.214447 -13.965293 53.977295
523 0 1 -3.563827 -14.382192 53.476807
524 0 1 -3.754427 -15.340293 53.547913
525 0 1 -4.726587 -15.425292 53.310486
526 0 1 -5.365888 -15.129392 53.898193
527 0 1 -5.901687 -15.908192 53.774689
528 0 1 -5.609598 -16.165993 54.670990
529 0 1 -5.507778 -15.738292 55.552887
530 0 1 -6.291818 -16.193592 56.001495
531 0 1 -5.654127 -16.869293 55.876190
532 0 1 -4.787508 -17.166292 56.348297
533 0 1 -5.383457 -18.084393 56.402100
534 0 1 -4.956007 -18.841293 56.856812
535 0 1 -4.030418 -19.109493 56.874512
536 0 1 -4.336107 -19.169394 55.972900
537 0 1 -4.906057 -19.061293 55.175415
538 0 1 -4.405067 -19.540092 54.437103
539 0 1 -4.240127 -19.955994 53.563995
540 0 1 -4.990167 -20.586092 53.211487
541 0 1 -5.075666 -21.261593 53.900513
542 0 1 -5.334627 -21.535294 53.017090
543 0 1 -4.366807 -21.776392 53.117188
544 0 1 -3.964166 -22.545893 52.750610
545 0 1 -2.986017 -22.565193 52.890411
546 0 1 -2.315927 -23.089592 52.417511
547 0 1 -1.621683 -23.701393 52.812897
548 0 1 -0.997198 -23.310993 52.199005
549 0 1 -1.413719 -22.485193 52.313599
550 0 1 -1.983787 -21.735992 52.554688
551 0 1 -1.867883 -21.221992 53.379608
552 0 1 -0.936725 -21.240192 53.583984
553 0 1 -0.068592 -20.935593 53.955994
554 0 1 -0.183143 -19.928993 54.223694
555 0 1 -1.095066 -20.014692 54.574585
556 0 1 -1.157583 -19.826794 55.497009
557 0 1 -0.223215 -20.114893 55.663391
558 0 1 0.468952 -20.494593 56.279785
559 0 1 1.175242 -19.816992 56.369995
560 0 1 1.335833 -18.862892 56.562683
561 0 1 2.242441 -19.157093 56.815887
562 0 1 2.560522 -18.766993 57.614105
563 0 1 3.314322 -18.562292 57.064697
564 0 1 2.906164 -18.440693 56.232391
565 0 1 3.808741 -18.695293 56.159210
566 0 1 4.617335 -19.152493 56.039795
567 0 1 5.463652 -18.945492 56.361511
568 0 1 5.614481 -18.119993 55.838593
569 0 1 6.383532 -18.355293 55.264404
570 0 1 6.918833 -17.711393 55.753296
571 0 1 6.757761 -17.383493 54.901093
572 0 1 6.568732 -17.241993 53.956787
573 0 1 7.007063 -16.520193 53.441895
574 0 1 7.623713 -16.106691 54.027100
575 0 1 8.654520 -16.122992 53.897888
576 0 1 8.500040 -16.684992 53.086487
577 0 1 9.054552 -17.330294 52.640991
578 0 1 9.522352 -16.552292 52.294312
579 0 1 10.535551 -16.551891 52.058716
580 0 1 9.940252 -16.280993 51.324310
581 0 1 9.509050 -17.109993 51.442993
582 0 1 9.083754 -17.233492 50.614288
583 0 1 8.471903 -17.736992 50.087494
584 0 1 7.746623 -17.811293 50.696289
585 0 1 7.143301 -17.191593 50.293610
586 0 1 6.660613 -17.065193 51.101410
587 0 1 6.895571 -16.197693 50.604401
588 0 1 7.597132 -15.957091 49.898499
589 0 1 7.939192 -15.083591 50.245392
590 0 1 8.684141 -15.612092 49.812805
591 0 1 9.108053 -16.352192 49.404602
592 0 1 9.578451 -15.558791 49.149200
593 0 1 10.319551 -14.974092 48.935486
594 0 1 10.192453 -14.159892 49.521790
595 0 1 10.131052 -13.280992 49.093811
596 0 1 9.155554 -13.202991 49.072906
597 0 1 9.267553 -12.453692 49.600098
598 0 1 8.660013 -12.164893 48.977905
599 0 1 7.941584 -11.960193 48.409088
600 0 1 8.056284 -12.078891 47.528290
601 0 1 8.545782 -11.287093 47.667786
602 0 1 8.440554 -11.129401 46.747314
603 0 1 7.871294 -10.843862 46.065613
604 0 1 7.837801 -9.902843 46.029785
605 0 1 7.657462 -10.046472 45.110992
606 0 1 7.856394 -10.880473 44.640991
607 0 1 8.008310 -11.862491 44.427185
608 0 1 8.841772 -11.670892 44.011414
609 0 1 9.499052 -11.145152 43.579895
610 0 1 9.756250 -10.740611 42.737488
611 0 1 8.805014 -10.489781 42.781799
612 0 1 8.269194 -9.697013 43.002991
613 0 1 7.952063 -8.917102 43.454895
614 0 1 8.875082 -9.099483 43.795715
615 0 1 9.272352 -8.352202 44.270905
616 0 1 9.911951 -7.687461 43.925995
617 0 1 10.717253 -7.519732 43.453186
618 0 1 11.423353 -8.125972 43.700806
619 0 1 11.880953 -8.113551 42.796997
620 0 1 11.889753 -8.569041 41.932404
621 0 1 12.167551 -9.488761 41.745392
622 0 1 12.862352 -8.917571 42.204193
623 0 1 12.385454 -9.508052 42.769409
624 0 1 13.129652 -9.382592 43.389587
625 0 1 13.616453 -9.107312 44.253998
626 0 1 13.924753 -8.177182 43.995392
627 0 1 14.791552 -8.472842 43.580994
628 0 1 15.558451 -8.022983 43.938599
629 0 1 16.099852 -7.193421 44.086212
630 0 1 16.621050 -7.754792 43.526001
631 0 1 17.128954 -6.950351 43.375488
632 0 1 17.864752 -7.239232 43.938995
633 0 1 18.407251 -7.410302 44.678192
634 0 1 18.362551 -8.310082 44.401398
635 0 1 17.709852 -8.775271 44.765900
636 0 1 18.455652 -8.980903 45.412689
637 0 1 18.880251 -8.277553 45.964111
638 0 1 18.781054 -7.312461 45.691589
639 0 1 18.893553 -6.324662 45.465393
640 0 1 19.109751 -5.916512 46.280304
641 0 1 18.489855 -5.998282 47.022797
642 0 1 18.824350 -6.071921 48.017700
643 0 1 18.337252 -5.955602 48.860107
644 0 1 17.986353 -5.727921 49.742188
645 0 1 18.914152 -5.604632 49.996613
646 0 1 18.964251 -5.638801 50.950989
647 0 1 19.636652 -6.357162 51.048096
648 0 1 20.077150 -5.527263 50.714417
649 0 1 20.598753 -5.401511 49.889404
650 0 1 21.384455 -5.598872 50.397583
651 0 1 21.037554 -5.852101 51.255005
652 0 1 21.666552 -5.208581 51.569885
653 0 1 22.572252 -5.366141 51.854706
654 0 1 23.427050 -4.923923 51.812317
655 0 1 24.130053 -5.571971 51.498993
656 0 1 23.433752 -6.329572 51.570404
657 0 1 23.467253 -7.046182 52.210297
658 0 1 23.089754 -7.761712 51.679108
659 0 1 23.820253 -8.402812 51.566803
660 0 1 24.251650 -8.927312 52.311798
661 0 1 23.758654 -9.300212 53.071716
662 0 1 23.152353 -8.758822 53.617615
663 0 1 23.425753 -8.028571 54.147797
664 0 1 22.892752 -7.294621 54.523499
665 0 1 22.856352 -7.863162 55.372498
666 0 1 23.257353 -7.902581 56.276703
667 0 1 22.797655 -7.140662 56.595490
668 0 1 22.324755 -7.371682 57.412109
669 0 1 21.797552 -8.012202 56.945190
670 0 1 22.126352 -8.759152 57.360596
671 0 1 21.624952 -9.199252 56.654510
672 0 1 22.170954 -9.371551 55.886414
673 0 1 21.671152 -10.205791 55.830383
674 0 1 20.793352 -10.649642 55.938690
675 0 1 20.407553 -9.748742 56.111206
676 0 1 20.430254 -8.965022 56.632904
677 0 1 20.158251 -8.171771 56.213898
678 0 1 19.830851 -7.317472 56.529388
679 0 1 19.240755 -6.671971 56.122894
680 0 1 18.632555 -6.116612 56.643890
681 0 1 17.879450 -6.303611 56.073303
682 0 1 18.185450 -7.068431 56.695892
683 0 1 18.785051 -7.708133 57.067291
684 0 1 18.047251 -8.007701 57.562897
685 0 1 17.748751 -8.863202 57.206604
686 0 1 16.978251 -8.465981 57.608093
687 0 1 16.514452 -9.091302 58.239594
688 0 1 15.621752 -9.070632 58.496216
689 0 1 14.870554 -9.089313 59.148010
690 0 1 14.120852 -9.006932 59.750488
691 0 1 13.552351 -9.788123 59.764496
692 0 1 13.522150 -10.189961 60.573914
693 0 1 13.947153 -10.969573 60.179108
694 0 1 13.017553 -11.320592 60.018311
695 0 1 12.514952 -12.058291 59.644806
696 0 1 13.021654 -12.799293 59.226288
697 0 1 13.310953 -11.963292 58.913605
698 0 1 12.594152 -12.230693 58.261505
699 0 1 12.504652 -11.349692 57.843994
700 0 1 12.162352 -10.779101 57.138702
701 0 1 12.718950 -10.386622 56.475098
702 0 1 12.411753 -9.658191 57.065399
703 0 1 12.199553 -8.952361 56.410004
704 0 1 11.297152 -8.805133 56.304016
705 0 1 11.184652 -9.081292 55.363403
706 0 1 11.243052 -8.712802 54.466095
707 0 1 10.338552 -8.488772 54.462799
708 0 1 10.166052 -7.589602 54.776794
709 0 1 10.489954 -7.305751 53.892303
710 0 1 10.860151 -6.449962 54.257294
711 0 1 11.407854 -5.907262 54.815887
712 0 1 11.103651 -5.029872 55.127594
713 0 1 11.498453 -4.465022 54.477295
714 0 1 12.450754 -4.224692 54.476593
715 0 1 12.840754 -3.498851 53.895294
716 0 1 13.462854 -2.715861 54.017883
717 0 1 13.725054 -1.802062 54.134491
718 0 1 14.349451 -1.990178 53.343201
719 0 1 15.310350 -2.094916 53.319489
720 0 1 14.949755 -2.390111 52.454010
721 0 1 15.840052 -2.206218 52.156616
722 0 1 15.542452 -1.233352 51.994110
723 0 1 14.908754 -0.617702 52.197296
724 0 1 14.269453 0.054448 52.204895
725 0 1 13.451654 -0.229304 52.640900
726 0 1 13.706850 -1.080228 52.980103
727 0 1 13.849852 -0.368062 53.601990
728 0 1 13.216150 -0.718473 54.244690
729 0 1 12.763853 0.159438 54.250305
730 0 1 12.137651 0.900349 54.559906
731 0 1 12.580652 0.326409 55.179504
732 0 1 11.878553 0.835076 55.630310
733 0 1 11.855352 0.316319 56.453094
734 0 1 12.058252 -0.541896 56.000183
735 0 1 11.506151 -1.168092 55.511597
736 0 1 11.230555 -2.054513 55.648987
737 0 1 10.594252 -1.653438 56.262909
738 0 1 10.122953 -1.252553 57.002106
739 0 1 10.691153 -1.652337 57.702301
740 0 1 10.204554 -2.373622 58.238312
741 0 1 9.496054 -2.366172 59.132385
742 0 1 9.109751 -1.766204 59.755615
743 0 1 10.005053 -1.468331 60.153687
744 0 1 9.749853 -0.927796 59.456909
745 0 1 10.198450 -0.251325 60.048309
746 0 1 10.380350 0.657609 59.550201
747 0 1 10.630152 1.244569 58.773010
748 0 1 10.013552 0.439309 58.617615
749 0 1 9.077753 0.726289 58.555206
750 0 1 8.297354 1.158078 58.228699
751 0 1 7.690501 1.710027 57.631409
752 0 1 7.739474 2.689427 57.473694
753 0 1 8.331263 3.328778 57.177185
754 0 1 7.862494 3.815198 56.528198
755 0 1 6.964842 3.789327 56.907104
756 0 1 6.500643 4.002847 56.128387
757 0 1 5.993762 4.625398 56.772400
758 0 1 5.652842 4.850728 57.675293
759 0 1 5.321402 5.045377 58.609406
760 0 1 5.805491 4.654469 59.373901
761 0 1 6.220404 3.798699 59.422913
762 0 1 7.123404 4.111009 59.111206
763 0 1 7.059741 3.947499 58.203400
764 0 1 7.615973 4.664517 57.673401
765 0 1 7.777472 5.555249 58.099915
766 0 1 7.251902 6.243428 57.863708
767 0 1 6.641264 6.979547 57.857910
768 0 1 6.554232 7.026887 58.796387
769 0 1 5.846583 7.719407 59.050812
770 0 1 5.024703 7.568360 58.557007
771 0 1 5.109423 8.354760 58.044312
772 0 1 4.502741 8.167798 57.357483
773 0 1 3.632761 8.459729 57.009705
774 0 1 3.372633 7.927987 57.740204
775 0 1 2.548472 7.802957 58.290192
776 0 1 2.487604 6.842950 58.059113
777 0 1 3.167994 6.602719 57.392700
778 0 1 3.743761 6.717210 56.633209
779 0 1 3.963743 5.797250 56.681091
780 0 1 4.036963 5.473367 57.621887
781 0 1 4.972422 5.717717 57.715698
782 0 1 4.695811 6.486619 58.298401
783 0 1 4.942374 6.290238 59.175293
784 0 1 5.357562 6.112390 60.067413
785 0 1 5.638201 6.939458 60.629608
786 0 1 6.654051 6.635617 60.547791
787 0 1 6.940093 6.376637 61.438995