LAMMPS data file via MDAnalysis

        2000  atoms
        1999  bonds
           0  angles
           0  dihedrals
           0  impropers

           1  atom types
           1  bond types
           0  angle types
           0  dihedral types
           0  improper types

-30.5 30.5 xlo xhi
-30.5 30.5 ylo yhi
-233.5 233.5 zlo zhi


Masses

1 1.000000

Atoms

1 0 1 -0.961249 -14.022352 94.755493
2 0 1 -1.807809 -13.749453 95.105011
3 0 1 -1.730430 -13.255154 95.938110
4 0 1 -2.505670 -13.261652 96.464996
5 0 1 -2.880550 -13.983453 96.070404
6 0 1 -2.842569 -14.965352 96.279999
7 0 1 -1.959279 -15.215753 96.438416
8 0 1 -2.562690 -15.725853 96.974701
9 0 1 -3.303479 -15.545752 97.528687
10 0 1 -4.139958 -15.138352 97.660706
11 0 1 -4.274560 -15.939552 98.163818
12 0 1 -5.238858 -15.732653 98.153900
13 0 1 -6.023459 -15.966152 98.686401
14 0 1 -6.959960 -15.832453 98.588196
15 0 1 -7.689260 -15.814253 99.264404
16 0 1 -7.958560 -16.713152 99.431000
17 0 1 -8.884859 -16.958853 99.496704
18 0 1 -9.515559 -17.716452 99.792999
19 0 1 -8.574159 -18.055052 99.808899
20 0 1 -8.497359 -17.545452 100.563995
21 0 1 -7.865258 -17.934353 101.207001
22 0 1 -7.721559 -18.751953 101.677002
23 0 1 -6.810658 -18.958652 102.149994
24 0 1 -6.661559 -18.303753 101.377014
25 0 1 -6.747159 -17.377253 101.351013
26 0 1 -6.969859 -16.424753 101.428009
27 0 1 -6.708459 -16.441452 100.484009
28 0 1 -6.132260 -15.865452 100.984985
29 0 1 -5.885360 -16.034853 101.932007
30 0 1 -6.311660 -16.004852 102.778015
31 0 1 -6.102860 -15.126152 102.355011
32 0 1 -6.626960 -15.044152 103.244019
33 0 1 -6.914060 -14.310452 103.799988
34 0 1 -6.148061 -14.358852 104.333008
35 0 1 -6.270059 -13.450752 104.765015
36 0 1 -5.729859 -12.876852 105.273987
37 0 1 -5.210460 -12.193552 105.639008
38 0 1 -5.350659 -12.213451 104.621002
39 0 1 -5.635758 -11.334352 104.369995
40 0 1 -5.667859 -10.366852 104.250000
41 0 1 -5.875159 -9.608753 103.656982
42 0 1 -4.878860 -9.658052 103.515015
43 0 1 -4.615861 -9.749352 102.583008
44 0 1 -3.799430 -10.225353 102.569000
45 0 1 -3.198930 -9.866451 101.876007
46 0 1 -3.322040 -10.173653 100.989014
47 0 1 -3.684171 -9.328352 100.875000
48 0 1 -2.992059 -9.029942 100.244019
49 0 1 -3.589380 -8.825052 99.534607
50 0 1 -3.017419 -8.677551 98.753601
51 0 1 -3.995420 -8.494373 98.623810
52 0 1 -4.842160 -7.921442 98.487915
53 0 1 -4.193559 -7.620022 97.799591
54 0 1 -3.723760 -8.126404 97.080200
55 0 1 -3.428861 -7.305202 96.707489
56 0 1 -2.737640 -7.369812 95.993896
57 0 1 -3.347369 -6.915833 95.428802
58 0 1 -3.150579 -7.236563 94.498810
59 0 1 -3.303149 -6.887852 93.613586
60 0 1 -4.142159 -7.161093 93.074799
61 0 1 -4.522460 -6.464552 93.581909
62 0 1 -3.745210 -6.059742 94.049011
63 0 1 -4.043960 -5.563152 93.289185
64 0 1 -3.677449 -5.544971 92.356812
65 0 1 -4.254960 -4.740662 92.307892
66 0 1 -4.292560 -3.770073 92.419617
67 0 1 -5.060960 -3.418152 92.924805
68 0 1 -5.892259 -2.863293 93.099609
69 0 1 -5.856460 -3.388123 92.305206
70 0 1 -5.576159 -3.254082 91.373596
71 0 1 -5.223760 -4.011063 90.792511
72 0 1 -5.566659 -3.716433 89.976196
73 0 1 -4.637259 -3.687882 89.821808
74 0 1 -4.413159 -4.438812 89.343811
75 0 1 -4.571660 -4.125402 88.385986
76 0 1 -4.286960 -3.669092 87.612915
77 0 1 -5.018960 -3.226862 87.205200
78 0 1 -5.426061 -3.827461 86.647583
79 0 1 -4.965360 -4.671343 86.562805
80 0 1 -5.888761 -4.923132 86.573395
81 0 1 -5.838361 -5.853222 86.600006
82 0 1 -5.470860 -6.747833 86.492310
83 0 1 -5.880960 -7.117453 87.297485
84 0 1 -6.636760 -7.756931 87.503418
85 0 1 -6.982160 -8.053923 88.316589
86 0 1 -6.153359 -8.485062 88.149506
87 0 1 -6.806560 -9.239052 88.177612
88 0 1 -7.337359 -9.498653 88.946411
89 0 1 -6.579860 -9.999252 89.222595
90 0 1 -6.046361 -9.199074 89.116882
91 0 1 -6.011960 -9.640053 89.997894
92 0 1 -6.080760 -8.875042 90.677704
93 0 1 -5.328561 -8.549213 90.218292
94 0 1 -4.893159 -8.485191 89.350098
95 0 1 -3.946321 -8.277163 89.468994
96 0 1 -4.314059 -7.739653 90.144989
97 0 1 -5.313458 -7.475754 89.938507
98 0 1 -5.942260 -6.968922 90.412292
99 0 1 -6.172158 -6.518982 91.220306
100 0 1 -5.472560 -5.987692 90.923401
101 0 1 -5.211259 -5.737223 90.044189
102 0 1 -4.862559 -6.507263 89.633392
103 0 1 -4.345260 -5.830051 89.173584
104 0 1 -3.717160 -6.455383 88.937897
105 0 1 -3.366479 -7.216022 88.512909
106 0 1 -2.668929 -6.992672 87.821899
107 0 1 -2.636810 -7.956133 87.531494
108 0 1 -2.697950 -7.319672 86.796814
109 0 1 -3.336210 -6.603931 86.601318
110 0 1 -3.756601 -6.014313 85.948700
111 0 1 -3.137479 -5.337692 86.165405
112 0 1 -2.547849 -4.662033 85.756409
113 0 1 -1.797521 -4.045082 85.971191
114 0 1 -1.103589 -3.504893 86.460083
115 0 1 -0.882190 -2.600943 86.477905
116 0 1 -0.963950 -1.714234 86.954010
117 0 1 -1.533891 -1.566052 86.123993
118 0 1 -1.481059 -1.393624 85.136200
119 0 1 -1.956819 -0.834843 84.607208
120 0 1 -1.901929 -0.177859 83.804199
121 0 1 -1.752700 0.698395 84.184082
122 0 1 -0.849229 0.484443 84.290802
123 0 1 -0.230689 -0.095726 83.893982
124 0 1 -0.123719 0.745571 83.397400
125 0 1 0.740041 0.888710 83.797394
126 0 1 0.886630 1.827087 83.648193
127 0 1 0.183261 2.468647 83.722198
128 0 1 -0.084460 2.768776 82.813202
129 0 1 -0.344449 2.091188 82.131104
130 0 1 -1.026309 2.102577 81.419189
131 0 1 -1.521739 2.841636 81.761993
132 0 1 -1.811959 2.678337 80.835999
133 0 1 -2.412009 3.403759 81.106689
134 0 1 -2.851569 4.247738 81.417999
135 0 1 -3.391721 4.782768 80.885895
136 0 1 -3.209960 5.635307 80.515808
137 0 1 -4.207660 5.766598 80.343292
138 0 1 -4.401660 5.273148 79.543213
139 0 1 -3.783109 5.035347 78.794006
140 0 1 -4.120320 4.327499 79.497406
141 0 1 -4.895059 3.990806 79.101318
142 0 1 -4.531659 3.168438 78.802612
143 0 1 -4.478660 2.792648 77.958710
144 0 1 -5.081759 3.328949 77.352997
145 0 1 -4.602361 2.752987 76.753601
146 0 1 -3.934999 2.660679 76.036194
147 0 1 -3.797719 1.790577 76.418701
148 0 1 -2.818109 1.694368 76.579102
149 0 1 -2.039939 1.589163 77.081696
150 0 1 -2.313840 0.749922 77.269592
151 0 1 -2.161880 0.471788 76.399811
152 0 1 -1.437719 -0.062674 76.778809
153 0 1 -2.067760 -0.706673 76.529510
154 0 1 -2.782609 -0.885393 77.107391
155 0 1 -3.584661 -1.333264 77.238403
156 0 1 -3.917400 -2.142843 76.861694
157 0 1 -4.106009 -3.101153 76.978790
158 0 1 -3.666841 -3.655243 76.173889
159 0 1 -4.532260 -3.914082 76.015106
160 0 1 -5.301459 -3.799923 75.547699
161 0 1 -6.142060 -3.614743 75.055298
162 0 1 -6.743058 -2.927273 74.786194
163 0 1 -7.002858 -2.360314 74.076416
164 0 1 -6.439960 -2.253763 73.315704
165 0 1 -6.228660 -2.520962 72.395691
166 0 1 -7.018760 -3.180063 72.530212
167 0 1 -7.250159 -4.060812 72.198608
168 0 1 -7.061059 -4.791882 72.779419
169 0 1 -7.034261 -5.448673 73.428711
170 0 1 -7.071259 -6.333242 73.105499
171 0 1 -6.497659 -7.069263 72.857788
172 0 1 -6.091960 -7.688503 72.260101
173 0 1 -5.359960 -7.148193 72.085083
174 0 1 -4.816960 -7.679462 72.651184
175 0 1 -4.511960 -7.909473 71.787201
176 0 1 -5.028661 -7.657501 71.033813
177 0 1 -4.560760 -8.310501 70.445709
178 0 1 -3.845369 -7.721422 70.769592
179 0 1 -3.447370 -8.354853 70.140289
180 0 1 -4.059510 -8.402111 69.349792
181 0 1 -4.412759 -8.485582 68.475189
182 0 1 -4.368260 -7.520103 68.268005
183 0 1 -3.678128 -6.850662 68.071808
184 0 1 -3.186130 -6.153492 68.549896
185 0 1 -2.688161 -5.330862 68.571198
186 0 1 -3.355550 -4.721333 68.200195
187 0 1 -3.365419 -3.765572 68.367096
188 0 1 -2.889720 -3.490132 69.156006
189 0 1 -2.755050 -4.240013 69.861389
190 0 1 -3.055600 -4.589283 70.667694
191 0 1 -2.640691 -5.320583 70.285217
192 0 1 -2.328119 -6.048672 70.892303
193 0 1 -3.099330 -6.329102 70.336304
194 0 1 -2.606279 -6.043053 69.579102
195 0 1 -1.900420 -5.348663 69.471008
196 0 1 -1.762670 -5.839622 68.613708
197 0 1 -1.015370 -5.393763 68.954590
198 0 1 -0.171849 -4.978582 68.577789
199 0 1 -0.518460 -5.433743 67.764008
200 0 1 0.154300 -5.549963 67.044403
201 0 1 -0.022769 -6.339813 66.489685
202 0 1 0.858889 -6.472183 66.025299
203 0 1 0.839351 -6.096102 65.111389
204 0 1 0.772401 -6.484343 64.217896
205 0 1 1.384261 -7.244541 64.302612
206 0 1 1.963250 -7.705902 63.568115
207 0 1 2.501090 -7.253742 62.945190
208 0 1 3.298199 -6.659092 63.094299
209 0 1 3.820910 -6.261932 62.387512
210 0 1 4.362741 -7.009222 62.659790
211 0 1 4.099210 -7.223572 61.744690
212 0 1 4.407880 -7.040392 60.871613
213 0 1 5.241090 -6.865273 60.462311
214 0 1 5.500621 -7.593203 61.087494
215 0 1 6.422671 -7.363472 61.096313
216 0 1 6.485892 -6.630972 60.402008
217 0 1 6.033057 -6.005013 60.937988
218 0 1 6.838145 -5.477373 61.266785
219 0 1 7.483920 -5.664532 60.589600
220 0 1 7.653869 -4.675472 60.545593
221 0 1 7.098170 -4.536022 59.783813
222 0 1 7.811049 -3.871113 59.760193
223 0 1 8.538821 -3.285223 59.875916
224 0 1 8.829402 -4.064442 59.431305
225 0 1 8.078670 -4.566933 59.005188
226 0 1 8.529361 -4.764162 58.210205
227 0 1 8.227729 -5.675413 57.921600
228 0 1 7.902732 -6.368082 57.338684
229 0 1 8.403430 -5.742262 56.714600
230 0 1 8.596072 -5.338093 55.825989
231 0 1 8.550891 -4.895893 55.000183
232 0 1 8.546000 -5.329332 54.130798
233 0 1 8.291690 -5.161592 53.123505
234 0 1 7.336221 -5.397552 52.790100
235 0 1 7.041970 -5.353352 53.720306
236 0 1 6.114566 -5.030792 53.651184
237 0 1 5.505132 -4.481762 53.058807
238 0 1 5.120040 -3.794943 52.467194
239 0 1 5.918694 -3.351612 52.102692
240 0 1 6.172034 -4.295902 52.128387
241 0 1 6.585128 -4.773512 51.400513
242 0 1 6.792735 -3.804043 51.267517
243 0 1 7.679339 -3.957684 51.104614
244 0 1 8.537650 -3.502123 51.096191
245 0 1 9.170722 -4.017101 51.585297
246 0 1 9.704162 -3.233082 51.376312
247 0 1 9.574031 -2.948942 50.490692
248 0 1 9.868331 -2.236723 49.881287
249 0 1 10.012691 -2.506493 48.976288
250 0 1 10.443820 -3.319163 48.535889
251 0 1 9.703399 -3.940993 48.571411
252 0 1 10.109870 -4.761581 48.997498
253 0 1 9.427119 -5.472553 49.097809
254 0 1 10.368529 -5.705942 49.379517
255 0 1 11.273139 -6.013083 49.501709
256 0 1 11.397071 -6.798933 49.978210
257 0 1 11.698909 -7.296093 50.751495
258 0 1 10.945632 -7.594902 51.293701
259 0 1 11.514400 -8.307972 51.007202
260 0 1 11.149970 -8.663513 51.797089
261 0 1 11.961799 -8.550903 52.440186
262 0 1 12.218211 -9.537853 52.409210
263 0 1 13.057681 -9.982452 52.203186
264 0 1 12.737082 -10.455551 51.406006
265 0 1 13.539840 -10.561453 50.891693
266 0 1 13.036902 -9.969551 50.208588
267 0 1 13.511870 -9.331451 50.778809
268 0 1 14.451621 -9.523252 50.705811
269 0 1 14.926398 -8.832031 50.462585
270 0 1 15.828170 -8.494722 50.279907
271 0 1 16.383638 -9.243954 50.605499
272 0 1 17.047739 -9.485653 51.279907
273 0 1 16.117739 -9.759253 51.466888
274 0 1 16.439238 -10.086252 52.276489
275 0 1 16.617842 -11.051552 52.024811
276 0 1 15.678611 -11.266453 51.573792
277 0 1 14.852019 -11.411453 52.056702
278 0 1 14.435378 -10.546654 52.103912
279 0 1 13.980010 -10.007652 52.704407
280 0 1 13.755481 -9.739252 53.638092
281 0 1 12.860061 -9.845352 54.032196
282 0 1 12.762889 -10.349052 53.203491
283 0 1 12.557319 -11.274952 52.993195
284 0 1 11.975142 -11.899452 52.425293
285 0 1 12.683150 -11.412453 51.997009
286 0 1 12.398341 -11.460752 50.997589
287 0 1 11.435290 -11.310452 51.095306
288 0 1 10.969390 -12.146053 51.046600
289 0 1 10.208812 -12.640753 50.737091
290 0 1 9.388850 -13.279152 50.753601
291 0 1 8.740359 -12.703854 50.264893
292 0 1 8.192279 -11.999851 50.565491
293 0 1 8.106051 -11.993053 49.581512
294 0 1 8.802981 -11.705353 48.932892
295 0 1 8.783469 -11.136652 48.185699
296 0 1 8.447669 -10.816051 47.253906
297 0 1 8.933650 -10.033953 47.710907
298 0 1 8.178802 -10.077454 48.240601
299 0 1 7.477969 -10.542454 48.632385
300 0 1 6.822749 -10.381153 49.320709
301 0 1 6.638753 -9.416553 49.335297
302 0 1 7.647380 -9.688751 49.390198
303 0 1 7.608050 -8.870274 49.891113
304 0 1 7.223250 -8.001022 50.326202
305 0 1 7.220820 -8.632273 51.020111
306 0 1 7.068450 -9.076641 51.862915
307 0 1 7.419532 -9.094662 52.751190
308 0 1 8.265750 -8.907923 53.076294
309 0 1 7.841922 -9.553152 53.681000
310 0 1 7.066131 -10.121353 53.508392
311 0 1 7.286111 -10.799454 52.903015
312 0 1 7.881309 -11.144154 53.616516
313 0 1 7.956241 -11.982452 54.175690
314 0 1 7.042951 -11.765652 54.348816
315 0 1 6.276845 -11.454752 54.826111
316 0 1 5.511373 -11.763952 55.278290
317 0 1 5.808335 -10.937054 55.638794
318 0 1 5.985015 -11.682652 56.221405
319 0 1 6.401534 -10.892353 56.536194
320 0 1 6.811902 -10.212254 57.100800
321 0 1 7.716861 -10.730751 57.191193
322 0 1 8.147269 -10.150951 57.856689
323 0 1 7.881869 -10.841953 58.424011
324 0 1 7.659682 -10.072653 58.842102
325 0 1 7.706790 -10.814453 59.436707
326 0 1 6.993670 -11.313553 59.828400
327 0 1 6.133565 -11.805952 59.835907
328 0 1 5.379493 -11.958752 59.210602
329 0 1 4.714711 -11.554352 58.569000
330 0 1 4.012910 -11.951853 57.994812
331 0 1 4.497830 -11.302952 57.454407
332 0 1 4.405040 -11.438751 56.492096
333 0 1 5.213584 -10.869152 56.695496
334 0 1 5.481702 -9.932453 56.561096
335 0 1 5.021867 -9.838253 57.320190
336 0 1 4.585341 -8.912891 57.424805
337 0 1 4.076140 -9.432253 56.853088
338 0 1 3.314521 -9.246952 56.353394
339 0 1 2.628440 -9.495052 55.764099
340 0 1 2.164830 -9.871052 55.101410
341 0 1 1.355920 -9.680553 54.639191
342 0 1 0.878600 -8.953623 54.154602
343 0 1 0.354871 -8.388763 53.584290
344 0 1 -0.220390 -9.024813 54.017303
345 0 1 -0.716380 -9.390852 53.359589
346 0 1 -0.671350 -8.933693 52.440613
347 0 1 -0.944551 -8.196232 52.991791
348 0 1 -1.790210 -7.853153 52.742401
349 0 1 -1.624250 -7.681482 53.653687
350 0 1 -2.598230 -7.446842 53.957214
351 0 1 -2.246850 -6.665932 54.378906
352 0 1 -3.224241 -6.514853 54.441895
353 0 1 -3.840200 -5.817883 53.954498
354 0 1 -4.035060 -4.902302 53.542389
355 0 1 -3.825849 -3.956732 53.378601
356 0 1 -3.535320 -3.346403 52.666107
357 0 1 -3.708080 -2.617872 52.073395
358 0 1 -3.470521 -2.641083 51.219299
359 0 1 -2.600909 -2.916723 51.000000
360 0 1 -2.948430 -2.155243 50.467010
361 0 1 -2.930200 -1.789583 49.510498
362 0 1 -3.069101 -0.978142 49.125183
363 0 1 -3.251630 -0.565163 48.274689
364 0 1 -3.794919 -0.204933 49.090210
365 0 1 -2.918611 0.162733 49.082001
366 0 1 -1.998448 0.258657 49.407104
367 0 1 -1.649200 1.153797 49.245087
368 0 1 -1.527021 1.948858 49.730988
369 0 1 -1.636119 2.331299 50.597595
370 0 1 -0.835349 1.789377 50.530701
371 0 1 -0.055349 1.754587 51.283508
372 0 1 0.466231 1.835388 50.468201
373 0 1 1.383510 1.717174 50.235107
374 0 1 0.807650 1.119953 49.845215
375 0 1 0.672431 1.037681 48.927887
376 0 1 1.015620 0.969446 48.049500
377 0 1 0.686921 1.811678 48.172211
378 0 1 0.189120 2.273758 47.352997
379 0 1 0.271479 3.048507 47.883209
380 0 1 1.156670 2.835827 47.356812
381 0 1 1.261371 3.076557 46.373199
382 0 1 2.181521 3.291828 46.134796
383 0 1 2.545520 3.187019 45.240784
384 0 1 3.427310 3.177257 45.004913
385 0 1 2.817509 2.801098 44.371399
386 0 1 2.041661 3.193596 43.912415
387 0 1 2.199870 3.150688 42.931396
388 0 1 2.612080 3.742847 42.335815
389 0 1 2.575289 4.578117 41.896210
390 0 1 2.250830 4.000088 41.185608
391 0 1 1.358350 3.957187 40.722992
392 0 1 0.732221 3.938457 39.977692
393 0 1 1.259551 4.585548 39.482483
394 0 1 1.606801 5.445118 39.224915
395 0 1 1.123290 6.292747 39.192291
396 0 1 1.309581 6.702278 38.355896
397 0 1 1.355571 7.583607 38.069611
398 0 1 1.069711 7.485069 37.155304
399 0 1 1.128741 8.323578 36.704285
400 0 1 0.697451 7.754589 36.006104
401 0 1 0.061900 8.072128 35.383087
402 0 1 -0.754880 7.865250 35.830017
403 0 1 -0.414140 7.022278 35.996796
404 0 1 0.348960 6.897148 35.416992
405 0 1 -0.061980 6.197166 35.015015
406 0 1 -0.134549 5.747787 35.883392
407 0 1 -0.999370 6.128387 36.164612
408 0 1 -1.640821 5.636696 35.612915
409 0 1 -2.128129 4.915466 35.279114
410 0 1 -3.101239 4.924877 35.198395
411 0 1 -3.503770 4.410107 34.429993
412 0 1 -3.867280 5.256557 34.437408
413 0 1 -4.452060 4.737919 33.735596
414 0 1 -5.165059 4.160107 34.004608
415 0 1 -4.890161 3.301399 33.948700
416 0 1 -4.802360 2.554558 34.582214
417 0 1 -4.604859 2.517875 35.487488
418 0 1 -4.005811 1.769157 35.645599
419 0 1 -3.434461 1.462515 34.884613
420 0 1 -2.673810 1.946527 34.553284
421 0 1 -1.965030 2.251978 34.031189
422 0 1 -2.360650 2.238327 33.170502
423 0 1 -2.320230 1.351654 32.566284
424 0 1 -2.237060 1.096191 31.686096
425 0 1 -1.334180 0.607008 31.556396
426 0 1 -1.140901 -0.209980 31.951508
427 0 1 -0.930709 -0.269083 30.970215
428 0 1 -0.611310 -1.176592 30.600098
429 0 1 -0.331149 -2.055693 30.716888
430 0 1 -0.193130 -2.649103 30.016296
431 0 1 -0.318891 -3.584992 30.026703
432 0 1 -0.440200 -3.905083 29.076813
433 0 1 -0.886489 -4.779232 29.016907
434 0 1 -1.050750 -5.307192 29.750916
435 0 1 -0.930230 -4.490122 30.206116
436 0 1 0.019461 -4.644062 29.850311
437 0 1 0.789431 -4.769472 29.209106
438 0 1 1.581170 -4.271513 29.368500
439 0 1 1.428700 -3.701702 30.125214
440 0 1 2.232810 -3.835942 30.702698
441 0 1 2.977990 -4.035233 31.278107
442 0 1 3.841971 -3.848973 30.866516
443 0 1 4.236979 -3.420782 30.031311
444 0 1 4.015101 -4.189842 29.528290
445 0 1 3.671641 -3.532173 28.961914
446 0 1 4.084231 -2.667263 28.957092
447 0 1 4.470771 -1.832142 29.251892
448 0 1 5.389785 -1.546282 28.989807
449 0 1 5.041320 -1.739393 28.129700
450 0 1 4.309911 -2.225804 27.823090
451 0 1 4.787660 -2.601853 27.085693
452 0 1 5.454398 -2.889372 26.444702
453 0 1 6.242419 -3.472862 26.458099
454 0 1 7.109490 -3.468523 25.900208
455 0 1 7.737102 -2.803993 26.137909
456 0 1 6.757604 -2.473522 26.043884
457 0 1 6.988860 -1.647722 25.552185
458 0 1 7.210481 -0.741963 25.671509
459 0 1 7.771430 -0.194052 26.196991
460 0 1 8.521720 -0.838913 26.231201
461 0 1 8.537230 -0.707123 27.209290
462 0 1 8.572761 -1.653542 27.207001
463 0 1 9.324271 -2.012673 27.856293
464 0 1 10.057780 -2.379713 27.442200
465 0 1 10.541961 -3.011624 28.051514
466 0 1 10.171550 -2.597563 28.800690
467 0 1 11.094779 -2.851233 29.202698
468 0 1 10.612891 -2.447102 29.926697
469 0 1 10.198932 -1.663893 29.495392
470 0 1 10.225921 -0.811013 29.136688
471 0 1 9.697581 -0.129112 28.843292
472 0 1 10.077510 0.643863 28.406891
473 0 1 10.841849 0.585245 27.800690
474 0 1 11.529243 -0.014521 27.443298
475 0 1 11.951262 -0.694502 28.044006
476 0 1 11.022212 -0.969643 27.719116
477 0 1 10.101359 -1.034033 27.249603
478 0 1 9.858092 -1.739342 26.637909
479 0 1 10.755691 -1.366293 26.662201
480 0 1 11.194022 -1.651293 25.844604
481 0 1 10.782962 -0.860213 25.494904
482 0 1 10.635280 -1.304953 24.597107
483 0 1 9.892890 -1.914202 24.850403
484 0 1 9.251472 -2.565432 24.500000
485 0 1 8.510512 -3.158482 24.463104
486 0 1 7.905742 -3.032692 23.645111
487 0 1 7.935931 -2.439703 22.937592
488 0 1 7.635550 -3.059563 22.343094
489 0 1 8.604789 -3.339443 22.200500
490 0 1 8.452571 -4.206741 21.757401
491 0 1 8.040622 -4.748043 21.059296
492 0 1 7.821830 -5.243513 20.313995
493 0 1 7.575942 -4.484713 19.689606
494 0 1 8.556300 -4.428562 19.635696
495 0 1 8.615859 -5.346262 19.386505
496 0 1 8.173972 -6.123173 19.068604
497 0 1 7.434112 -6.357813 19.517197
498 0 1 6.728595 -6.903223 19.166794
499 0 1 6.790990 -7.811771 19.122696
500 0 1 7.385100 -7.468983 18.490005
501 0 1 6.936660 -7.050623 17.785599
502 0 1 6.049832 -7.303053 17.518906
503 0 1 6.169173 -7.145203 16.568802
504 0 1 5.657928 -6.418703 17.014008
505 0 1 5.378821 -5.553923 17.060699
506 0 1 5.385722 -5.122131 17.873199
507 0 1 5.982759 -5.498953 18.485397
508 0 1 5.929671 -5.932442 19.322906
509 0 1 5.110551 -6.025383 19.750900
510 0 1 5.064969 -6.409943 20.651505
511 0 1 5.260501 -7.103632 21.333008
512 0 1 5.211909 -6.240192 21.713593
513 0 1 4.465890 -5.737442 21.409698
514 0 1 4.190501 -6.223362 22.254700
515 0 1 3.536071 -5.582481 22.158096
516 0 1 2.896519 -5.436552 22.838898
517 0 1 2.941760 -6.240263 23.323486
518 0 1 2.949071 -7.232433 23.402893
519 0 1 2.525920 -7.759682 24.075714
520 0 1 2.869530 -7.739712 24.940613
521 0 1 2.618531 -7.727142 25.860413
522 0 1 3.213000 -7.539972 26.657593
523 0 1 3.853791 -7.410103 25.847290
524 0 1 4.664100 -7.910004 26.141693
525 0 1 4.358310 -8.858652 25.939087
526 0 1 4.022271 -9.721752 25.989288
527 0 1 3.648650 -9.359451 26.764008
528 0 1 4.071200 -9.675652 27.521790
529 0 1 4.608651 -10.337652 27.997192
530 0 1 4.528050 -11.298252 27.990204
531 0 1 5.101146 -11.788254 28.596497
532 0 1 6.034616 -11.993954 28.714813
533 0 1 6.469409 -11.702353 27.959106
534 0 1 6.903150 -12.550652 28.133698
535 0 1 7.480762 -11.989653 28.566498
536 0 1 7.621482 -12.870552 28.851105
537 0 1 7.503882 -13.693253 29.341095
538 0 1 8.058581 -14.437853 29.533691
539 0 1 8.534011 -13.698551 29.924988
540 0 1 8.488929 -14.125652 30.760712
541 0 1 7.821330 -13.532654 31.053711
542 0 1 7.042411 -13.183653 30.619598
543 0 1 6.165843 -12.743153 30.757507
544 0 1 6.008540 -13.344852 31.581787
545 0 1 6.126491 -13.246153 32.597198
546 0 1 5.720424 -12.804153 33.335999
547 0 1 4.930554 -12.387451 32.958710
548 0 1 4.602490 -13.290953 32.710388
549 0 1 4.577291 -14.260853 32.553894
550 0 1 5.527259 -14.390753 32.574585
551 0 1 6.397241 -14.386952 32.179688
552 0 1 6.366225 -14.856052 33.050415
553 0 1 6.400411 -15.552452 33.668213
554 0 1 5.589360 -15.718353 34.121887
555 0 1 5.512433 -15.816252 35.005890
556 0 1 6.342330 -15.281853 34.989594
557 0 1 7.302279 -15.502851 35.061707
558 0 1 7.222920 -15.021752 35.872711
559 0 1 8.179450 -14.854153 35.665192
560 0 1 8.022002 -15.718052 36.180786
561 0 1 8.786002 -15.978052 36.615509
562 0 1 8.730201 -16.691952 37.177490
563 0 1 9.784041 -16.844553 37.025787
564 0 1 9.786281 -15.951653 37.434204
565 0 1 10.197871 -15.159753 37.044495
566 0 1 11.082061 -14.728152 36.904205
567 0 1 12.005092 -14.506352 36.831512
568 0 1 11.573710 -13.605453 36.595795
569 0 1 11.189391 -12.819952 36.280884
570 0 1 10.634299 -12.308952 36.921204
571 0 1 11.064078 -12.587551 37.731201
572 0 1 11.365409 -11.792953 37.335510
573 0 1 12.073401 -11.857552 36.666107
574 0 1 12.655440 -11.047352 36.729004
575 0 1 11.803031 -10.767252 36.486389
576 0 1 12.168159 -11.025852 35.691895
577 0 1 11.784781 -11.093052 34.747986
578 0 1 10.836883 -10.911753 34.879913
579 0 1 10.630252 -10.759151 35.831604
580 0 1 9.915832 -10.877853 36.448303
581 0 1 8.930999 -11.166553 36.563202
582 0 1 8.439071 -11.858852 36.273010
583 0 1 8.730552 -12.085651 37.112915
584 0 1 9.364821 -11.495853 37.604889
585 0 1 10.087111 -12.049252 37.979706
586 0 1 10.379333 -12.315052 38.824402
587 0 1 11.226790 -12.434052 39.284088
588 0 1 11.135600 -12.504652 40.213409
589 0 1 10.963470 -12.322952 41.120300
590 0 1 10.335780 -13.046152 41.222412
591 0 1 9.523330 -12.714052 40.958496
592 0 1 8.658122 -13.142754 40.577087
593 0 1 7.767680 -13.586252 40.724091
594 0 1 7.835959 -13.522953 39.781616
595 0 1 6.966821 -13.913053 40.008301
596 0 1 6.564490 -13.943652 40.850098
597 0 1 6.552934 -14.495353 41.621796
598 0 1 5.669631 -14.048852 41.725586
599 0 1 4.708560 -13.873053 41.640900
600 0 1 3.913871 -14.384353 41.478210
601 0 1 3.209811 -14.667052 42.106506
602 0 1 3.886760 -15.398153 41.871887
603 0 1 4.632480 -16.001652 41.974487
604 0 1 5.242085 -15.758553 41.225311
605 0 1 4.848830 -16.694752 40.960602
606 0 1 5.777284 -16.748552 41.349487
607 0 1 6.322412 -17.196953 40.786896
608 0 1 6.102540 -16.383253 40.315613
609 0 1 6.958060 -16.288252 40.803101
610 0 1 6.779378 -16.561953 41.748993
611 0 1 7.632140 -16.640953 42.169189
612 0 1 7.492019 -16.045252 42.916412
613 0 1 7.086991 -15.406553 43.569214
614 0 1 6.534392 -15.522652 44.340515
615 0 1 6.463258 -14.553653 44.347198
616 0 1 6.501035 -13.660252 44.059204
617 0 1 7.032651 -13.083054 44.600311
618 0 1 7.786769 -13.367653 44.176697
619 0 1 7.742110 -12.715452 43.416016
620 0 1 7.177321 -11.943453 43.279694
621 0 1 6.563806 -12.191452 42.568604
622 0 1 6.996390 -11.465853 42.098907
623 0 1 6.805625 -10.867453 41.460693
624 0 1 7.535491 -10.330254 41.259705
625 0 1 8.468902 -10.421352 41.431213
626 0 1 8.117801 -11.215252 40.935303
627 0 1 8.069350 -10.543352 40.203094
628 0 1 8.271132 -9.711452 40.720612
629 0 1 9.183181 -9.696453 40.413086
630 0 1 10.174071 -9.521353 40.421295
631 0 1 11.071940 -9.159582 40.419983
632 0 1 10.777499 -8.242973 40.634705
633 0 1 11.077060 -8.201082 41.580994
634 0 1 11.009761 -7.237614 41.761505
635 0 1 10.208529 -7.509632 42.156891
636 0 1 10.550300 -7.646473 42.979095
637 0 1 11.259719 -8.014091 43.489105
638 0 1 11.113540 -8.804052 44.037109
639 0 1 12.002540 -8.611973 44.211700
640 0 1 12.665641 -7.942842 43.991516
641 0 1 13.161952 -7.752083 44.830688
642 0 1 12.635169 -8.504013 45.033997
643 0 1 11.685290 -8.052223 45.023102
644 0 1 10.988532 -8.251614 45.683502
645 0 1 11.207549 -7.334793 45.708191
646 0 1 10.911979 -6.531754 45.280304
647 0 1 11.182742 -5.625393 45.101685
648 0 1 11.189940 -5.014292 45.919800
649 0 1 12.069999 -4.825533 45.677704
650 0 1 12.403361 -5.304913 46.399506
651 0 1 13.251410 -5.204832 46.796112
652 0 1 12.853511 -5.312992 47.684387
653 0 1 12.648780 -4.429213 48.099915
654 0 1 11.857772 -3.890152 48.209290
655 0 1 12.275920 -2.973833 48.156311
656 0 1 12.518538 -2.120913 48.368011
657 0 1 12.356360 -1.345124 47.778107
658 0 1 11.467860 -1.016403 47.453613
659 0 1 10.470660 -1.257502 47.431396
660 0 1 9.550300 -1.586743 47.351501
661 0 1 8.984069 -1.027394 46.775085
662 0 1 9.504821 -0.828072 45.968689
663 0 1 8.915561 -0.137551 45.644714
664 0 1 9.119502 0.518673 46.296997
665 0 1 9.306212 0.912622 45.422791
666 0 1 8.307319 0.895073 45.319000
667 0 1 7.546832 1.252054 45.680786
668 0 1 6.667132 1.082897 46.082489
669 0 1 7.071219 1.598520 46.811005
670 0 1 7.215970 2.606716 47.019592
671 0 1 6.746518 3.303299 46.507996
672 0 1 6.967631 2.838047 45.688293
673 0 1 6.884311 2.953197 44.709595
674 0 1 6.371093 3.591659 45.187012
675 0 1 5.384126 3.444248 45.294312
676 0 1 5.517093 3.524006 44.356995
677 0 1 4.603681 3.737358 44.087585
678 0 1 3.919501 4.005127 44.675201
679 0 1 3.754481 4.720528 45.441406
680 0 1 3.432980 5.680656 45.559601
681 0 1 2.585261 5.335556 45.179413
682 0 1 1.928491 5.941208 44.836395
683 0 1 1.931361 6.728706 45.312988
684 0 1 2.620490 7.018768 46.001709
685 0 1 2.872121 7.451496 46.839813
686 0 1 2.201331 7.094276 47.445892
687 0 1 1.655080 7.240646 48.269196
688 0 1 2.066611 7.026768 49.128113
689 0 1 2.512101 7.713978 48.701202
690 0 1 2.928891 8.145359 47.937500
691 0 1 2.489650 8.641796 47.235199
692 0 1 3.297890 9.131607 47.357483
693 0 1 3.864920 9.624348 46.769989
694 0 1 4.190511 9.617828 45.810699
695 0 1 4.914596 9.023186 45.523712
696 0 1 4.108731 8.526318 45.604492
697 0 1 3.719910 8.295509 44.733093
698 0 1 3.502070 9.026878 44.184998
699 0 1 3.245110 9.698498 43.602203
700 0 1 2.654940 9.399807 42.974701
701 0 1 3.189980 10.212467 42.556702
702 0 1 3.665820 11.016747 42.244110
703 0 1 2.767581 11.280949 42.323303
704 0 1 1.833251 11.046249 42.492615
705 0 1 1.032130 11.432449 42.196991
706 0 1 1.086640 11.398949 43.105286
707 0 1 1.890830 11.764748 43.473511
708 0 1 2.227111 12.645046 43.607605
709 0 1 1.276101 12.553947 43.708191
710 0 1 0.460261 12.250946 44.126709
711 0 1 -0.308049 12.158749 44.723389
712 0 1 0.103080 11.883347 45.496613
713 0 1 0.197360 11.417450 46.307892
714 0 1 0.385171 10.855446 47.033295
715 0 1 0.514270 11.785049 47.333893
716 0 1 0.520261 12.314548 48.196106
717 0 1 0.635520 12.086246 49.123413
718 0 1 0.784331 11.466148 49.917511
719 0 1 0.731631 11.780746 50.801910
720 0 1 0.746119 12.365349 51.581299
721 0 1 0.072461 12.701248 50.993713
722 0 1 -0.450730 11.860947 50.929016
723 0 1 -1.158750 11.333248 50.628998
724 0 1 -1.160119 10.921848 49.763184
725 0 1 -2.004419 11.299950 49.589691
726 0 1 -2.529248 11.883148 49.060608
727 0 1 -3.429528 11.557747 49.496002
728 0 1 -4.258660 11.144348 49.647888
729 0 1 -4.476560 10.586136 48.814789
730 0 1 -5.133359 10.119358 49.315308
731 0 1 -5.048558 9.816017 48.432587
732 0 1 -5.910760 9.294319 48.553009
733 0 1 -6.458760 9.998596 48.923187
734 0 1 -6.926961 9.270836 49.275391
735 0 1 -7.824059 9.681267 49.204803
736 0 1 -8.289460 9.173119 48.544098
737 0 1 -8.826460 9.864418 48.225586
738 0 1 -8.644560 10.726448 47.749207
739 0 1 -8.564759 10.164886 46.999207
740 0 1 -8.344960 10.052597 46.056213
741 0 1 -9.287860 10.258339 46.113800
742 0 1 -9.749459 9.443447 45.882996
743 0 1 -9.055160 8.918018 46.304993
744 0 1 -8.142159 8.528526 46.028198
745 0 1 -7.141358 8.426548 46.199005
746 0 1 -6.408660 7.881310 46.182312
747 0 1 -6.461560 7.168636 46.812103
748 0 1 -5.735059 7.831066 46.823700
749 0 1 -5.722360 8.609146 46.231689
750 0 1 -5.429860 8.623459 45.303589
751 0 1 -6.181060 8.184875 44.838287
752 0 1 -5.525659 8.305107 44.175415
753 0 1 -6.368661 7.986767 43.763306
754 0 1 -7.275659 7.709816 44.104309
755 0 1 -8.245358 7.495605 44.057800
756 0 1 -9.086659 7.495689 43.658813
757 0 1 -9.099959 8.150406 44.312103
758 0 1 -8.920759 8.788418 44.987701
759 0 1 -8.697260 9.268787 44.152710
760 0 1 -8.585858 9.042877 43.194489
761 0 1 -7.727960 9.419987 43.541504
762 0 1 -7.292159 10.054249 42.922485
763 0 1 -7.212359 11.065147 43.052307
764 0 1 -8.046460 10.758820 43.440094
765 0 1 -8.926559 11.175648 43.738708
766 0 1 -8.832259 11.940548 43.267609
767 0 1 -9.750159 12.412746 43.259491
768 0 1 -9.041759 13.017548 43.008484
769 0 1 -9.197359 13.401649 43.882996
770 0 1 -8.681560 14.113350 44.287994
771 0 1 -7.961860 14.732849 43.971893
772 0 1 -7.254359 15.064148 43.467896
773 0 1 -6.262460 15.170746 43.194702
774 0 1 -6.535661 15.682148 42.420197
775 0 1 -6.357360 15.295448 41.539307
776 0 1 -5.719960 14.816647 42.147491
777 0 1 -6.273660 14.113449 41.852783
778 0 1 -6.670360 13.659946 42.571503
779 0 1 -5.995160 13.783546 43.295990
780 0 1 -5.823159 12.904945 43.755615
781 0 1 -5.458760 12.216549 44.344299
782 0 1 -4.470059 12.086948 44.085297
783 0 1 -4.830960 11.754147 43.171692
784 0 1 -3.888921 11.956047 43.090607
785 0 1 -3.921991 12.753246 42.584106
786 0 1 -3.513971 13.520348 43.086304
787 0 1 -3.894071 13.588348 43.977997
788 0 1 -4.133060 13.360748 44.932587
789 0 1 -3.915670 13.057549 45.804016
790 0 1 -3.782491 12.229149 45.368408