LAMMPS data file via MDAnalysis

        2000  atoms
        1999  bonds
           0  angles
           0  dihedrals
           0  impropers

           1  atom types
           1  bond types
           0  angle types
           0  dihedral types
           0  improper types

-30.5 30.5 xlo xhi
-30.5 30.5 ylo yhi
-233.5 233.5 zlo zhi


Masses

1 1.000000

Atoms

1 0 1 2.931229 -9.480936 34.723083
2 0 1 3.733648 -9.526737 34.236298
3 0 1 3.630772 -10.466036 34.514801
4 0 1 2.950813 -11.166836 34.552490
5 0 1 2.669521 -10.462536 33.959717
6 0 1 2.692259 -10.973436 33.180786
7 0 1 3.168379 -10.223236 32.853210
8 0 1 4.074209 -10.636536 32.662506
9 0 1 3.986380 -11.505436 32.322510
10 0 1 3.886271 -11.770638 31.343384
11 0 1 2.937944 -11.999336 30.983612
12 0 1 2.231705 -11.924236 30.293304
13 0 1 1.742960 -11.047737 30.296509
14 0 1 1.472191 -10.438637 29.600006
15 0 1 1.348591 -9.846737 28.863800
16 0 1 1.056141 -10.108536 27.984711
17 0 1 0.563391 -9.961136 27.122711
18 0 1 0.213610 -9.742136 26.272095
19 0 1 0.920500 -9.909435 25.670013
20 0 1 1.830259 -10.122135 25.942505
21 0 1 1.942156 -9.455837 25.340088
22 0 1 2.575850 -9.373936 24.660706
23 0 1 3.339981 -9.858135 24.307892
24 0 1 3.539677 -10.350336 23.497589
25 0 1 3.226007 -10.188236 22.589996
26 0 1 2.929794 -10.632137 21.829102
27 0 1 2.796520 -11.001936 20.994705
28 0 1 2.382463 -10.328836 20.441193
29 0 1 1.714849 -10.312336 21.101700
30 0 1 1.036850 -9.615837 21.032898
31 0 1 1.840555 -9.106836 20.809097
32 0 1 2.749859 -9.344036 20.987305
33 0 1 2.630672 -8.663536 21.668503
34 0 1 2.770470 -9.006237 22.567902
35 0 1 2.271677 -9.774437 22.674713
36 0 1 2.018656 -10.674637 22.488708
37 0 1 1.281750 -11.049536 22.930908
38 0 1 0.784250 -11.747437 22.568909
39 0 1 0.494961 -12.486536 21.932297
40 0 1 -0.442421 -12.532636 21.953094
41 0 1 -1.179390 -12.237436 21.437805
42 0 1 -1.918221 -11.552937 21.184204
43 0 1 -1.351090 -10.817036 21.448502
44 0 1 -1.237040 -9.870436 21.671997
45 0 1 -0.463890 -9.466137 21.184204
46 0 1 -0.681669 -9.664135 20.199905
47 0 1 -1.077801 -10.094437 19.457794
48 0 1 -0.359591 -10.602636 19.105499
49 0 1 -1.106960 -10.945835 18.593903
50 0 1 -0.699881 -11.689735 19.052902
51 0 1 0.075211 -12.120036 19.016998
52 0 1 0.251511 -13.125937 18.882294
53 0 1 0.598150 -13.927536 19.280106
54 0 1 1.104299 -13.139536 19.792099
55 0 1 0.756109 -13.900837 20.363403
56 0 1 -0.034359 -13.590937 20.833801
57 0 1 -0.496639 -14.372536 20.269592
58 0 1 -0.994011 -14.104536 19.516296
59 0 1 -1.728060 -13.962936 20.104996
60 0 1 -1.937140 -14.586737 20.826004
61 0 1 -1.252659 -14.364037 21.457504
62 0 1 -0.692329 -14.179035 22.203705
63 0 1 0.153950 -14.601135 22.554504
64 0 1 -0.030130 -14.954536 23.415894
65 0 1 -0.241819 -14.342236 24.163208
66 0 1 0.193119 -15.132036 24.581604
67 0 1 -0.152550 -15.859735 25.131805
68 0 1 -0.909060 -15.503036 25.518097
69 0 1 -1.519711 -16.143335 25.054016
70 0 1 -2.095051 -15.644236 24.381897
71 0 1 -2.718189 -14.840336 24.500488
72 0 1 -2.982861 -15.614937 24.924988
73 0 1 -3.110020 -15.166237 25.840088
74 0 1 -2.418390 -15.475836 26.469391
75 0 1 -2.248400 -16.233835 25.866302
76 0 1 -2.349270 -16.592537 24.976593
77 0 1 -2.454741 -17.622135 25.156891
78 0 1 -3.058960 -17.221636 24.554108
79 0 1 -3.818689 -16.967136 24.027100
80 0 1 -4.021061 -16.269337 24.708984
81 0 1 -4.688650 -15.908436 24.039001
82 0 1 -4.432899 -15.616137 23.185608
83 0 1 -5.089859 -14.927635 23.365295
84 0 1 -5.857430 -15.485136 23.444092
85 0 1 -6.103859 -16.365736 23.874207
86 0 1 -5.761250 -16.943636 24.653107
87 0 1 -5.515789 -17.174637 25.506195
88 0 1 -6.417000 -17.129436 25.857208
89 0 1 -6.512341 -17.645836 26.701904
90 0 1 -7.012400 -17.571735 27.493988
91 0 1 -7.724670 -18.188835 27.491211
92 0 1 -8.026871 -18.216137 26.607208
93 0 1 -8.872871 -18.390137 27.090698
94 0 1 -8.582169 -17.778835 27.862610
95 0 1 -9.066269 -16.994535 27.596191
96 0 1 -8.511269 -16.960537 28.384308
97 0 1 -7.948570 -16.993336 29.200409
98 0 1 -8.275669 -16.778536 30.063690
99 0 1 -9.154369 -16.558737 30.081909
100 0 1 -10.049271 -16.720236 29.827301
101 0 1 -10.625969 -16.437937 30.549988
102 0 1 -10.698570 -15.549637 30.921814
103 0 1 -10.840570 -14.551935 30.581512
104 0 1 -11.063469 -13.574936 30.573700
105 0 1 -12.065170 -13.684536 30.696411
106 0 1 -12.993470 -13.584137 31.040314
107 0 1 -12.391570 -12.944036 31.528992
108 0 1 -12.961370 -12.719936 32.248413
109 0 1 -12.462270 -12.126936 32.794708
110 0 1 -12.918470 -12.235336 33.618286
111 0 1 -13.707470 -11.799637 33.232208
112 0 1 -14.559370 -11.859135 32.842896
113 0 1 -14.178169 -10.968437 32.753296
114 0 1 -13.570070 -10.638336 32.138489
115 0 1 -13.942770 -11.454836 31.700012
116 0 1 -13.458870 -11.932837 31.078308
117 0 1 -13.192270 -12.437037 30.296387
118 0 1 -12.719970 -11.794537 29.764313
119 0 1 -12.133370 -11.618736 30.496887
120 0 1 -11.318270 -11.486336 30.053101
121 0 1 -10.601870 -10.885736 30.011414
122 0 1 -11.072470 -10.338337 30.676605
123 0 1 -10.790569 -9.991236 31.538300
124 0 1 -11.202770 -9.210836 31.885803
125 0 1 -10.781370 -8.359035 32.097504
126 0 1 -10.757870 -7.768135 32.863892
127 0 1 -10.491070 -7.996235 33.775787
128 0 1 -9.795670 -8.179136 33.194489
129 0 1 -9.033169 -8.091835 32.690308
130 0 1 -9.072971 -8.679836 31.976288
131 0 1 -9.428169 -8.703335 31.028900
132 0 1 -9.366371 -7.850136 30.439301
133 0 1 -8.842070 -8.602236 30.205811
134 0 1 -8.548569 -7.771336 29.782104
135 0 1 -8.749670 -8.501537 29.180206
136 0 1 -8.999271 -8.130337 28.312592
137 0 1 -8.191071 -8.696236 28.087097
138 0 1 -8.258469 -8.968437 27.233490
139 0 1 -8.750469 -8.365536 26.583984
140 0 1 -8.378971 -7.752235 26.036194
141 0 1 -9.038870 -7.136536 26.355011
142 0 1 -8.218470 -7.250725 26.921814
143 0 1 -8.129070 -6.528255 26.212708
144 0 1 -7.450169 -6.003777 25.983307
145 0 1 -7.142590 -5.342495 25.346191
146 0 1 -7.101021 -4.908756 26.236694
147 0 1 -7.877769 -5.135386 26.733398
148 0 1 -8.030571 -4.405516 27.329712
149 0 1 -7.557770 -3.731146 26.844391
150 0 1 -6.711580 -3.669947 27.332214
151 0 1 -6.039780 -3.035836 27.686096
152 0 1 -5.295130 -3.046807 28.292694
153 0 1 -5.330139 -2.242935 27.780396
154 0 1 -4.772329 -1.462956 27.940094
155 0 1 -4.554409 -1.257347 28.860107
156 0 1 -4.629320 -0.299086 29.131989
157 0 1 -4.316130 0.429584 29.657715
158 0 1 -4.610920 1.021614 29.021698
159 0 1 -4.882721 1.973896 29.220795
160 0 1 -5.397049 2.610441 29.692413
161 0 1 -5.814840 3.113487 30.354889
162 0 1 -6.438690 2.419519 30.138489
163 0 1 -6.810760 1.937010 30.899506
164 0 1 -7.344471 2.211715 31.679016
165 0 1 -6.757490 2.906189 31.958588
166 0 1 -6.048590 3.485290 31.778290
167 0 1 -6.187870 4.420853 31.648712
168 0 1 -6.574459 5.351402 31.603699
169 0 1 -7.309870 5.033516 31.176697
170 0 1 -8.252171 4.979725 30.892914
171 0 1 -8.319271 5.151875 29.940613
172 0 1 -7.793570 5.815475 30.256714
173 0 1 -8.055569 6.680164 30.363586
174 0 1 -7.657871 7.392815 30.810791
175 0 1 -6.890259 7.027023 30.465607
176 0 1 -6.641979 6.820534 29.486389
177 0 1 -6.970810 6.998714 28.623199
178 0 1 -7.068249 7.875854 28.195190
179 0 1 -6.416309 7.672035 27.552887
180 0 1 -7.241070 7.431984 27.096588
181 0 1 -7.626070 6.998283 26.323700
182 0 1 -8.192570 7.666275 25.922791
183 0 1 -8.541271 7.103462 25.145813
184 0 1 -8.948370 7.856995 24.780487
185 0 1 -9.832470 7.811085 25.028687
186 0 1 -10.654869 8.126015 25.521790
187 0 1 -10.370270 9.108154 25.649689
188 0 1 -9.546871 9.068695 26.186005
189 0 1 -9.517570 9.645164 27.031799
190 0 1 -9.820370 10.157326 27.775604
191 0 1 -9.889170 11.159195 27.855499
192 0 1 -9.813770 12.097065 28.070709
193 0 1 -8.928371 11.871174 27.724396
194 0 1 -8.012470 11.516773 27.678192
195 0 1 -7.638771 11.191265 26.882599
196 0 1 -7.978470 12.050804 26.537811
197 0 1 -7.089661 12.353065 26.944794
198 0 1 -6.782700 12.257374 25.994293
199 0 1 -7.058491 12.435806 25.086487
200 0 1 -7.401871 11.569702 25.142395
201 0 1 -8.346569 11.574223 24.988403
202 0 1 -8.706871 12.454216 24.884613
203 0 1 -8.020170 12.809765 25.504700
204 0 1 -8.640570 13.449463 25.909210
205 0 1 -9.569771 13.521465 25.873291
206 0 1 -9.830370 13.968063 26.742310
207 0 1 -10.613670 13.426464 26.917297
208 0 1 -10.748270 12.999962 27.794586
209 0 1 -11.629471 12.919064 28.236084
210 0 1 -12.451070 12.473213 28.108490
211 0 1 -12.926270 12.806564 28.929901
212 0 1 -12.678170 12.582363 29.833405
213 0 1 -12.750770 13.516266 29.825500
214 0 1 -12.551470 14.281563 30.323792
215 0 1 -12.090470 13.576763 30.821594
216 0 1 -11.261269 13.137062 30.621704
217 0 1 -10.810970 12.829666 31.389008
218 0 1 -10.331970 13.661564 31.173309
219 0 1 -10.945171 14.248062 31.541809
220 0 1 -10.386570 14.474762 32.208191
221 0 1 -10.047670 13.592564 32.380402
222 0 1 -10.724571 13.483963 33.029907
223 0 1 -11.542469 13.564064 32.541290
224 0 1 -12.196970 14.108665 32.822113
225 0 1 -12.542170 15.011665 32.659698
226 0 1 -12.982070 14.954464 33.528809
227 0 1 -12.266270 15.297562 34.039398
228 0 1 -12.164370 14.584965 34.662201
229 0 1 -11.752870 14.833965 35.395599
230 0 1 -10.895870 15.301163 35.508789
231 0 1 -10.663269 14.512962 36.006714
232 0 1 -10.505169 13.750065 35.442993
233 0 1 -9.797770 13.746964 34.788086
234 0 1 -9.553169 12.992863 34.292603
235 0 1 -8.922371 13.017265 34.999298
236 0 1 -8.605869 12.539764 34.177094
237 0 1 -8.091770 11.741852 34.432983
238 0 1 -7.576670 12.172356 35.172913
239 0 1 -8.133070 11.900524 35.960205
240 0 1 -8.071369 11.112335 35.343689
241 0 1 -7.114080 10.912373 35.536591
242 0 1 -6.545160 10.309574 36.006989
243 0 1 -6.606121 9.843845 36.865112
244 0 1 -6.173330 9.846523 37.694000
245 0 1 -6.543110 9.679565 38.533905
246 0 1 -6.252239 9.848824 39.441895
247 0 1 -5.767660 10.426334 38.903412
248 0 1 -5.007740 11.017704 39.040710
249 0 1 -5.205410 11.993504 39.040710
250 0 1 -5.120440 12.663162 38.399902
251 0 1 -4.897261 12.448502 37.433594
252 0 1 -4.142971 11.943485 37.208099
253 0 1 -3.799789 11.147263 36.792999
254 0 1 -3.312111 10.905785 35.992188
255 0 1 -3.800011 10.856514 35.110901
256 0 1 -4.497601 10.619595 34.479401
257 0 1 -4.888700 10.311604 33.642700
258 0 1 -4.461161 9.791893 32.949585
259 0 1 -4.020041 9.224274 32.382812
260 0 1 -4.606649 8.812073 31.688507
261 0 1 -5.142820 8.230206 31.125793
262 0 1 -5.585739 9.155205 30.961914
263 0 1 -6.329449 9.104282 31.580414
264 0 1 -6.890480 8.476055 31.171204
265 0 1 -6.579010 9.005413 30.403290
266 0 1 -6.466000 8.606342 29.545898
267 0 1 -7.465271 8.678883 29.655701
268 0 1 -7.605770 8.908714 28.689392
269 0 1 -6.906370 9.461044 28.184113
270 0 1 -6.174789 9.893055 27.727112
271 0 1 -5.450420 10.489323 27.983795
272 0 1 -5.916031 11.258484 27.721985
273 0 1 -6.077000 10.613892 27.065491
274 0 1 -6.508129 9.916756 26.597687
275 0 1 -6.835461 9.055515 26.745209
276 0 1 -6.474890 8.136162 26.421997
277 0 1 -5.537121 7.763145 26.676392
278 0 1 -4.692989 8.014084 26.319702
279 0 1 -3.994841 7.616035 26.871613
280 0 1 -3.586760 8.443275 27.083405
281 0 1 -2.817780 7.873745 27.093201
282 0 1 -2.380329 8.080135 27.968292
283 0 1 -3.205879 8.589905 28.042786
284 0 1 -3.379499 9.520794 28.223694
285 0 1 -4.143669 8.869194 28.470215
286 0 1 -4.489000 9.721924 28.528107
287 0 1 -5.367451 9.687412 28.961487
288 0 1 -5.429859 9.087616 29.701599
289 0 1 -5.151270 9.758762 30.252106
290 0 1 -4.937080 10.714142 30.126007
291 0 1 -5.671909 10.664673 30.645691
292 0 1 -6.173590 11.468204 30.513000
293 0 1 -6.499290 11.701164 31.373810
294 0 1 -7.277271 12.228165 31.277191
295 0 1 -7.506170 11.303135 30.942810
296 0 1 -7.721170 10.885353 31.837402
297 0 1 -7.938070 9.932182 31.552612
298 0 1 -8.702469 9.694283 32.093506
299 0 1 -9.503870 9.357414 31.683411
300 0 1 -9.932571 8.505604 31.556885
301 0 1 -10.505569 9.090015 32.033600
302 0 1 -10.793270 9.423306 32.899994
303 0 1 -9.835670 9.691414 33.124817
304 0 1 -9.922569 8.972244 33.801910
305 0 1 -9.209671 8.599564 34.355286
306 0 1 -9.577969 8.849384 35.217590
307 0 1 -10.418869 8.499695 35.408600
308 0 1 -10.013569 7.893974 36.042999
309 0 1 -10.026770 6.956455 35.697906
310 0 1 -11.042671 6.952183 35.843597
311 0 1 -11.303570 6.857452 34.942108
312 0 1 -11.589569 7.761562 34.869598
313 0 1 -12.166570 8.382004 34.377197
314 0 1 -12.286470 8.440872 35.360901
315 0 1 -11.673069 9.109436 35.625702
316 0 1 -11.688469 8.331314 36.191711
317 0 1 -11.865670 8.969185 37.000305
318 0 1 -11.129971 9.636543 37.202301
319 0 1 -10.213871 9.888744 37.033905
320 0 1 -9.477871 9.668552 37.685699
321 0 1 -9.508570 8.943863 38.356201
322 0 1 -9.651371 8.708992 39.254303
323 0 1 -9.449669 8.957802 40.174194
324 0 1 -8.765770 8.390465 40.031799
325 0 1 -8.288071 7.836514 40.659485
326 0 1 -7.604570 8.271465 40.168396
327 0 1 -7.349470 7.329544 39.945709
328 0 1 -6.646999 6.776302 40.425201
329 0 1 -6.236469 7.695152 40.292114
330 0 1 -5.328220 7.624832 40.540009
331 0 1 -4.411840 7.624714 40.711700
332 0 1 -4.101240 7.534954 39.796692
333 0 1 -4.200270 7.747723 38.838104
334 0 1 -3.507801 7.064114 38.977905
335 0 1 -2.678770 7.198662 39.475006
336 0 1 -2.483219 7.675755 40.438690
337 0 1 -1.544020 7.718563 40.584595
338 0 1 -1.694010 8.068684 39.655396
339 0 1 -0.845350 7.664734 39.821289
340 0 1 0.036840 8.132305 39.927490
341 0 1 0.113739 8.768906 39.129913
342 0 1 0.173500 8.788715 38.171692
343 0 1 1.086941 8.899132 37.904785
344 0 1 1.614200 8.575993 37.123810
345 0 1 2.191990 7.999004 37.643616
346 0 1 2.001459 7.412552 38.350891
347 0 1 1.323339 8.078873 38.722687
348 0 1 1.279461 8.734333 39.480499
349 0 1 2.148943 9.026123 39.603210
350 0 1 2.112196 9.974903 39.367798
351 0 1 1.253860 9.779835 39.679108
352 0 1 1.379400 10.447624 40.379913
353 0 1 1.354771 11.139133 41.105103
354 0 1 1.850910 11.405384 41.944794
355 0 1 2.230556 10.841743 42.565613
356 0 1 2.686108 10.840473 43.352600
357 0 1 1.965464 10.559395 43.920898
358 0 1 1.934212 11.060722 44.723206
359 0 1 2.741831 11.322315 45.214905
360 0 1 3.549147 11.392845 45.726288
361 0 1 3.681070 12.008984 46.479401
362 0 1 4.480850 12.528214 46.662201
363 0 1 5.386681 12.251644 46.629303
364 0 1 5.210770 11.521313 47.247406
365 0 1 4.584949 11.004753 46.765991
366 0 1 4.393261 10.124203 47.068604
367 0 1 4.219810 10.316414 46.146790
368 0 1 4.884819 10.532494 45.460693
369 0 1 4.990200 11.265114 44.874908
370 0 1 5.540508 10.572594 44.401398
371 0 1 5.626492 10.874794 43.480713
372 0 1 4.641998 10.771492 43.479706
373 0 1 4.748878 10.578545 42.561584
374 0 1 3.930000 9.895615 42.585388
375 0 1 3.145235 9.800522 43.100311
376 0 1 2.538427 9.396923 42.409790
377 0 1 2.820328 8.466854 42.548096
378 0 1 3.597610 8.856434 43.016388
379 0 1 4.240400 8.172752 43.286499
380 0 1 4.656021 7.425793 42.800110
381 0 1 5.117760 7.605015 41.954712
382 0 1 5.253811 8.594673 41.991608
383 0 1 4.951351 9.471912 42.322906
384 0 1 5.702850 10.085033 42.188202
385 0 1 5.873581 10.441433 41.272308
386 0 1 6.141369 11.406643 41.343903
387 0 1 5.823769 11.812103 40.530396
388 0 1 6.715359 11.982086 40.378906
389 0 1 6.466640 12.165493 39.486694
390 0 1 6.274620 12.823063 38.844910
391 0 1 5.433521 13.478863 38.583801
392 0 1 4.907848 13.777565 37.849304
393 0 1 4.785782 13.562866 36.927002
394 0 1 4.132811 14.174664 36.564514
395 0 1 4.818111 14.528664 35.885712
396 0 1 5.379742 15.294163 35.945892
397 0 1 5.928059 15.977165 35.421692
398 0 1 6.317699 16.858963 35.594788
399 0 1 7.089600 17.142365 36.037598
400 0 1 7.947868 16.984665 35.624207
401 0 1 8.590488 17.514164 36.167114
402 0 1 8.329800 18.068962 35.454407
403 0 1 7.532990 18.393665 35.070587
404 0 1 7.057781 18.693363 34.209412
405 0 1 6.478291 18.916367 34.908905
406 0 1 6.582821 19.690765 34.383209
407 0 1 7.149700 20.437065 34.451111
408 0 1 6.486549 21.052364 34.154785
409 0 1 6.000401 20.652763 34.846497
410 0 1 5.738419 21.290665 35.511993
411 0 1 6.051319 21.727863 36.334503
412 0 1 5.303501 21.839165 36.950104
413 0 1 4.721958 21.212265 36.484192
414 0 1 4.623322 21.092262 37.462891
415 0 1 3.843300 20.561966 37.465393
416 0 1 4.006750 20.056862 38.277588
417 0 1 4.866348 20.241966 37.889801
418 0 1 4.506599 19.632866 37.234802
419 0 1 4.646782 19.696365 36.269104
420 0 1 3.892870 19.193764 35.982788
421 0 1 3.578379 18.325863 36.161804
422 0 1 3.183132 17.746563 36.756805
423 0 1 2.937923 18.172966 37.604309
424 0 1 2.448944 18.153862 38.477783
425 0 1 2.397301 17.846962 39.383911
426 0 1 2.538149 18.733364 39.739410
427 0 1 3.391602 18.838364 40.283112
428 0 1 3.167669 19.249062 41.118713
429 0 1 3.878531 19.787766 41.518005
430 0 1 3.510031 19.257767 42.225098
431 0 1 3.124548 20.174965 42.470306
432 0 1 3.011030 21.084763 42.716888
433 0 1 3.782618 20.794662 43.146210
434 0 1 4.720680 20.823067 43.046204
435 0 1 4.820839 19.893967 43.285583
436 0 1 5.432499 20.325665 43.855194
437 0 1 5.309120 19.531364 44.417694
438 0 1 4.335369 19.680466 44.365112
439 0 1 3.877640 20.097565 45.175690
440 0 1 3.167164 19.914566 45.777405
441 0 1 3.775414 19.461266 46.431610
442 0 1 3.522465 19.976765 47.234314
443 0 1 3.403580 19.113861 47.714417
444 0 1 3.220518 19.362965 48.617188
445 0 1 2.324896 19.660767 48.977600
446 0 1 1.515619 19.290363 48.707611
447 0 1 0.628200 19.673866 48.592712
448 0 1 -0.204571 19.863064 48.158112
449 0 1 -0.401449 19.257664 48.957794
450 0 1 -0.986370 19.626862 49.750397
451 0 1 -0.607479 19.790665 50.668213
452 0 1 -0.000200 20.055061 51.350189
453 0 1 0.034019 20.775864 52.032501
454 0 1 0.706900 21.448463 51.945801
455 0 1 1.292030 21.560364 51.200409
456 0 1 1.966659 22.069862 51.657410
457 0 1 2.065874 22.725063 50.927795
458 0 1 1.179640 22.658665 50.639313
459 0 1 0.236891 22.530167 50.590698
460 0 1 -0.420549 21.957264 50.910889
461 0 1 -0.574490 22.285664 49.940186
462 0 1 -0.174460 21.492165 49.630798
463 0 1 -0.339911 21.339561 48.719208
464 0 1 -0.071150 21.093964 47.854797
465 0 1 -0.336840 21.527061 47.042297
466 0 1 -0.773871 22.268764 46.732483
467 0 1 -1.495390 21.896065 47.262695
468 0 1 -1.670151 21.794662 48.223816
469 0 1 -1.771290 22.318565 49.026917
470 0 1 -2.450220 21.664364 49.284210
471 0 1 -2.967220 21.226265 48.586792
472 0 1 -3.616270 21.487862 49.324097
473 0 1 -3.973730 22.091064 48.613007
474 0 1 -4.695919 22.694061 48.502991
475 0 1 -4.412870 23.530865 48.898987
476 0 1 -4.494761 24.035767 49.735199
477 0 1 -5.381550 24.198864 49.465515
478 0 1 -5.965370 24.931366 49.602417
479 0 1 -6.712980 25.503464 49.492096
480 0 1 -7.335171 24.763962 49.450684
481 0 1 -7.731270 24.031166 49.961914
482 0 1 -7.365570 23.389664 50.662201
483 0 1 -7.157539 22.912163 51.513489
484 0 1 -7.712070 22.255463 51.971893
485 0 1 -7.664270 21.793663 52.875000
486 0 1 -7.639570 21.055466 53.504089
487 0 1 -7.919769 21.640762 54.236694
488 0 1 -8.512970 21.975864 54.858704
489 0 1 -9.291069 22.427567 55.108093
490 0 1 -9.650871 23.097565 54.524811
491 0 1 -10.567871 22.714462 54.419891
492 0 1 -11.350470 22.258064 54.042694
493 0 1 -11.701770 23.014565 53.541412
494 0 1 -12.045270 23.742165 52.989288
495 0 1 -11.418970 23.312763 52.402405
496 0 1 -12.108170 22.615963 52.397308
497 0 1 -12.787070 22.086563 51.878998
498 0 1 -12.133670 21.479763 51.517212
499 0 1 -12.409470 22.116364 50.863312
500 0 1 -13.336370 22.080566 50.727783
501 0 1 -13.619671 21.292065 51.266205
502 0 1 -13.831770 21.248264 52.226898
503 0 1 -14.725571 21.602562 52.442200
504 0 1 -15.170570 20.877964 52.879791
505 0 1 -15.201870 19.935265 53.109894
506 0 1 -15.369570 19.383965 52.226288
507 0 1 -14.389071 19.317963 52.143799
508 0 1 -13.837770 19.294167 51.332886
509 0 1 -13.348570 18.839264 50.617798
510 0 1 -13.406269 17.915264 50.542603
511 0 1 -13.755070 17.140465 51.067017
512 0 1 -14.281170 16.719063 51.730988
513 0 1 -13.471670 17.072266 52.164795
514 0 1 -13.472969 16.583065 53.012604
515 0 1 -14.195669 17.124962 53.214691
516 0 1 -14.827869 16.713066 53.939301
517 0 1 -14.504471 16.165665 54.763611
518 0 1 -14.245070 15.742863 55.602203
519 0 1 -13.871370 16.477562 56.131714
520 0 1 -13.866570 17.435764 56.103790
521 0 1 -13.014670 16.987965 56.113586
522 0 1 -12.795170 17.727863 55.566895
523 0 1 -12.299370 17.695663 54.772003
524 0 1 -12.414970 16.947865 54.173798
525 0 1 -11.985770 16.129963 54.273407
526 0 1 -11.040871 16.005562 54.310699
527 0 1 -10.701469 15.313663 54.944000
528 0 1 -9.920670 14.806965 55.116394
529 0 1 -10.408470 14.189865 54.582794
530 0 1 -10.702370 13.470264 55.123108
531 0 1 -9.813070 13.026062 55.399597
532 0 1 -9.211269 12.668762 54.760315
533 0 1 -8.422770 12.145515 54.762604
534 0 1 -9.085869 11.477173 54.685791
535 0 1 -9.897470 11.487503 54.159210
536 0 1 -10.063370 10.649025 53.735687
537 0 1 -9.334070 10.099342 53.224091
538 0 1 -8.485670 9.968964 52.797302
539 0 1 -9.147270 9.297924 52.522797
540 0 1 -9.975870 8.971146 52.133087
541 0 1 -10.185770 8.062546 51.960083
542 0 1 -9.431969 8.490383 51.431091
543 0 1 -9.622770 9.181904 50.829010
544 0 1 -8.950569 9.921703 50.932495
545 0 1 -9.325270 9.866734 50.070312
546 0 1 -9.805771 10.515785 50.580902
547 0 1 -10.320969 9.846725 50.198486
548 0 1 -10.301670 10.534943 49.578491
549 0 1 -9.917469 9.783474 49.115997
550 0 1 -10.845669 9.463833 49.223389
551 0 1 -11.427971 9.483425 48.482910
552 0 1 -12.363870 9.600052 48.342194
553 0 1 -12.916770 10.375725 48.561890
554 0 1 -13.753370 10.344204 48.122894
555 0 1 -14.738470 10.415604 48.059296
556 0 1 -15.122271 10.496815 47.204407
557 0 1 -15.778971 9.740734 47.355408
558 0 1 -16.280569 9.026924 46.991608
559 0 1 -15.646870 8.462616 47.568512
560 0 1 -14.800671 8.585873 48.174805
561 0 1 -14.870871 8.445816 49.143097
562 0 1 -15.602970 7.930862 49.478790
563 0 1 -15.820770 7.595585 48.600403
564 0 1 -16.231871 7.323795 47.805115
565 0 1 -16.020870 6.435593 48.192688
566 0 1 -16.084070 6.068455 47.302490
567 0 1 -15.294571 6.703323 47.250000
568 0 1 -15.302771 6.033516 46.530396
569 0 1 -15.428570 5.549892 45.754089
570 0 1 -15.377670 5.360413 44.820190
571 0 1 -16.137871 5.971382 44.827789
572 0 1 -16.313370 5.122562 44.327911
573 0 1 -15.627670 4.644165 43.890594
574 0 1 -14.856371 4.175755 43.490906
575 0 1 -15.121469 4.210976 42.539490
576 0 1 -15.497669 4.201874 41.677185
577 0 1 -15.960770 5.062233 41.525696
578 0 1 -16.451571 5.833202 41.182190
579 0 1 -16.407169 6.600136 41.758911
580 0 1 -15.427570 6.419605 41.652100
581 0 1 -15.057671 5.789585 40.913910
582 0 1 -14.143070 5.888165 40.550110
583 0 1 -13.600771 6.296043 41.203491
584 0 1 -13.981371 7.041183 41.656616
585 0 1 -14.374870 7.915222 41.434906
586 0 1 -14.792070 7.670673 40.581909
587 0 1 -15.311069 8.021233 39.847412
588 0 1 -15.825970 7.476685 39.245697
589 0 1 -15.049669 7.234932 38.669891
590 0 1 -14.451469 7.933685 38.947296
591 0 1 -14.349070 8.862892 39.003387
592 0 1 -14.234369 9.737705 38.548889
593 0 1 -15.119970 9.381584 38.396301
594 0 1 -15.233070 9.210743 37.501007
595 0 1 -15.801270 8.522022 37.900513
596 0 1 -16.754570 8.596935 38.040497
597 0 1 -16.662170 7.641144 38.313507
598 0 1 -17.610970 7.909573 38.161896
599 0 1 -17.527969 7.359444 38.945709
600 0 1 -17.550570 6.896664 39.838409
601 0 1 -18.343470 7.232113 40.289093
602 0 1 -19.108271 7.029503 39.711395
603 0 1 -18.622271 6.699142 38.836792
604 0 1 -19.167870 6.024403 38.334900
605 0 1 -19.453270 5.074432 38.686096
606 0 1 -19.549271 4.321304 39.225098
607 0 1 -20.154369 3.729143 39.638397
608 0 1 -19.324270 3.424770 39.902313
609 0 1 -18.822069 4.067745 40.391998
610 0 1 -17.902069 3.745674 40.157593
611 0 1 -17.027571 3.953674 40.473297
612 0 1 -17.258471 3.311403 41.225311
613 0 1 -17.924170 2.656755 41.462006
614 0 1 -18.719669 2.794554 41.969208
615 0 1 -19.388069 2.329460 42.413391
616 0 1 -19.030569 1.610855 41.894897
617 0 1 -18.171270 1.630886 41.451813
618 0 1 -18.043270 0.697075 41.517090
619 0 1 -17.518070 0.287084 40.802002
620 0 1 -16.648670 0.541544 40.467102
621 0 1 -16.696171 0.976213 39.588409
622 0 1 -16.287371 0.068483 39.592194
623 0 1 -17.147770 -0.321007 39.734100
624 0 1 -17.622570 -1.145697 39.571289
625 0 1 -17.116570 -1.974787 39.434906
626 0 1 -16.631069 -2.643566 39.981384
627 0 1 -16.699471 -3.522576 40.507507
628 0 1 -16.064369 -4.207695 40.420593
629 0 1 -16.113070 -5.122147 40.735809
630 0 1 -16.511971 -5.553316 39.899811
631 0 1 -15.997869 -6.168118 39.327606
632 0 1 -15.503670 -6.495316 40.108002
633 0 1 -16.109171 -7.234606 39.869690
634 0 1 -16.168171 -7.738436 39.016388
635 0 1 -16.999870 -7.798637 39.591492
636 0 1 -17.898670 -7.789936 39.350311
637 0 1 -17.898970 -8.732136 39.644196
638 0 1 -18.374069 -8.765036 38.798004
639 0 1 -19.088869 -8.301735 38.342194
640 0 1 -19.294170 -8.827236 37.490112
641 0 1 -18.351471 -8.807436 37.224609
642 0 1 -18.063669 -7.960537 36.990387
643 0 1 -18.305670 -7.709736 36.032196
644 0 1 -17.316669 -7.725235 35.878784
645 0 1 -17.052870 -7.230566 35.071289
646 0 1 -16.408970 -6.450006 35.157806
647 0 1 -15.968670 -7.262825 34.824585
648 0 1 -15.656170 -8.040737 34.399597
649 0 1 -16.056770 -7.851635 33.590912
650 0 1 -15.986570 -7.599335 32.663300
651 0 1 -15.433969 -8.332336 32.887909
652 0 1 -15.156469 -8.974037 33.459808
653 0 1 -15.413370 -9.843437 33.847687
654 0 1 -15.325470 -10.097435 32.902405
655 0 1 -15.417870 -10.022835 31.905090
656 0 1 -16.235470 -10.057236 32.412811
657 0 1 -16.730370 -10.477436 31.683411
658 0 1 -17.617170 -10.822937 31.475006
659 0 1 -18.315170 -10.705437 30.757904
660 0 1 -17.766270 -9.904537 30.663086
661 0 1 -17.864870 -8.957535 30.393890
662 0 1 -18.479271 -8.232235 30.268005
663 0 1 -18.500771 -7.614635 29.574097
664 0 1 -17.596371 -8.015736 29.599609
665 0 1 -16.949570 -7.961536 28.847595
666 0 1 -16.355970 -7.222225 29.013489
667 0 1 -15.730869 -7.401676 28.272705
668 0 1 -14.766069 -7.532337 28.077789
669 0 1 -15.143869 -7.762136 27.199188
670 0 1 -14.328369 -7.260496 26.955505
671 0 1 -13.424471 -7.125866 27.376190
672 0 1 -13.565069 -7.014706 28.352509
673 0 1 -13.154970 -7.803236 28.830811
674 0 1 -12.674970 -8.267136 28.044403
675 0 1 -12.162170 -7.673935 28.593292
676 0 1 -11.544870 -7.266336 28.031616
677 0 1 -11.808570 -7.409986 27.126007
678 0 1 -12.024770 -8.305136 26.774109
679 0 1 -11.787470 -8.919136 27.443298
680 0 1 -10.825371 -9.245436 27.383911
681 0 1 -11.076069 -8.979137 28.286987
682 0 1 -11.541370 -9.837036 27.934296
683 0 1 -12.033970 -9.860237 27.113098
684 0 1 -11.843870 -10.192837 26.205811
685 0 1 -12.260270 -10.986736 26.592590
686 0 1 -12.539070 -11.778835 26.168610
687 0 1 -12.718970 -11.134136 25.521606
688 0 1 -12.638870 -11.724836 24.786194
689 0 1 -11.828470 -11.605936 24.303802
690 0 1 -11.357769 -11.759937 23.525085
691 0 1 -11.806370 -12.394536 23.005310
692 0 1 -12.241170 -12.621936 22.179398
693 0 1 -11.805770 -11.702236 21.977798
694 0 1 -12.636170 -11.883036 21.538803
695 0 1 -13.417870 -12.389136 21.247299
696 0 1 -13.162370 -13.231036 20.837097
697 0 1 -12.441070 -13.783936 21.096100
698 0 1 -12.589370 -14.751137 21.058502
699 0 1 -12.443870 -15.632936 21.456100
700 0 1 -13.392870 -15.693436 21.436005
701 0 1 -13.877371 -15.501137 22.251495
702 0 1 -14.590370 -14.856337 22.226593
703 0 1 -15.070869 -14.609535 23.010406
704 0 1 -15.902370 -14.748337 23.426514
705 0 1 -16.020170 -15.438637 24.103394
706 0 1 -15.754370 -15.511936 25.007507
707 0 1 -15.498369 -14.649036 24.777313
708 0 1 -15.133270 -13.797735 24.926086
709 0 1 -15.439369 -13.635336 24.015411
710 0 1 -16.390770 -13.371136 24.074890
711 0 1 -16.008671 -12.495136 24.179596
712 0 1 -16.431669 -12.562636 23.290009
713 0 1 -17.043770 -12.104436 22.706512
714 0 1 -17.983770 -11.942535 22.759888
715 0 1 -17.757370 -11.781437 21.815094
716 0 1 -18.122471 -10.919037 21.445496
717 0 1 -17.633270 -10.198236 21.054199
718 0 1 -18.546471 -9.848736 21.245499
719 0 1 -18.213671 -9.260036 21.888000
720 0 1 -19.199671 -9.063536 21.811203
721 0 1 -20.159571 -9.237236 21.690796
722 0 1 -19.910170 -9.215836 20.759399
723 0 1 -20.872770 -9.172337 20.668106
724 0 1 -20.930071 -8.277136 21.123703
725 0 1 -21.549669 -8.219936 21.864594
726 0 1 -22.032570 -7.596935 21.312195
727 0 1 -22.105970 -6.737766 21.656097
728 0 1 -22.163370 -6.004456 22.315704
729 0 1 -21.633070 -5.671535 23.020996
730 0 1 -21.078970 -5.490946 22.276703
731 0 1 -20.584970 -4.661217 22.171692
732 0 1 -19.791071 -4.271036 22.514801
733 0 1 -19.493771 -3.471707 22.054001
734 0 1 -19.376671 -3.553955 21.064697
735 0 1 -18.510771 -3.646067 20.628998
736 0 1 -17.773069 -3.703917 21.236908
737 0 1 -17.058371 -4.146517 21.790604
738 0 1 -16.754169 -4.269825 20.882401
739 0 1 -16.437370 -5.279667 20.811600
740 0 1 -15.633471 -4.798607 20.966293
741 0 1 -15.326269 -4.851736 20.003799
742 0 1 -15.652370 -5.009756 19.124695
743 0 1 -15.805870 -5.802156 18.569504
744 0 1 -15.678370 -6.777237 18.664093
745 0 1 -15.254471 -6.485847 17.854492
746 0 1 -15.079269 -7.444267 17.868896
747 0 1 -14.618370 -7.207747 17.084198
748 0 1 -14.392870 -7.832935 16.324997
749 0 1 -13.825270 -8.564537 16.227692
750 0 1 -14.730970 -8.868736 16.173996
751 0 1 -15.174870 -8.482136 15.264404
752 0 1 -14.188669 -8.686035 15.231705
753 0 1 -13.579269 -8.969437 14.538895
754 0 1 -12.901670 -8.367035 14.278107
755 0 1 -12.479470 -8.035336 15.048492
756 0 1 -13.007670 -8.788437 15.328995
757 0 1 -13.369671 -9.681736 15.485596
758 0 1 -13.019870 -10.549036 15.793106
759 0 1 -12.516470 -11.364836 15.906998
760 0 1 -11.585270 -11.180136 16.177200
761 0 1 -11.072269 -10.631435 15.542801
762 0 1 -10.103069 -10.526936 15.560394
763 0 1 -10.067070 -9.843336 16.197601
764 0 1 -9.509970 -9.691336 15.472702
765 0 1 -9.040070 -9.389536 14.619293
766 0 1 -9.019371 -10.361137 14.557404
767 0 1 -8.389370 -10.739635 13.878601
768 0 1 -7.665770 -10.538536 13.207901
769 0 1 -8.250170 -11.263435 12.957306
770 0 1 -8.588169 -11.065735 12.120193
771 0 1 -8.329571 -11.884436 11.653000
772 0 1 -8.224369 -12.676736 11.133698
773 0 1 -8.589970 -12.811636 12.046402
774 0 1 -9.593670 -12.795136 12.182907
775 0 1 -9.082069 -12.909836 12.973801
776 0 1 -8.908270 -13.678335 12.474594
777 0 1 -8.813469 -14.469336 11.789703
778 0 1 -8.798969 -15.304935 12.196304
779 0 1 -8.701771 -15.843237 11.385300