LAMMPS data file via MDAnalysis

        2000  atoms
        1999  bonds
           0  angles
           0  dihedrals
           0  impropers

           1  atom types
           1  bond types
           0  angle types
           0  dihedral types
           0  improper types

-30.5 30.5 xlo xhi
-30.5 30.5 ylo yhi
-233.5 233.5 zlo zhi


Masses

1 1.000000

Atoms

1 0 1 -2.827020 -4.930967 42.443604
2 0 1 -3.425131 -5.711727 42.242188
3 0 1 -3.252771 -5.794046 43.235687
4 0 1 -2.600170 -5.590147 43.819794
5 0 1 -2.724260 -5.040056 44.626007
6 0 1 -3.520761 -4.652798 44.233093
7 0 1 -4.264261 -4.620546 43.591614
8 0 1 -4.806449 -5.132597 44.240601
9 0 1 -4.692569 -6.049957 44.515106
10 0 1 -4.589920 -6.076107 43.538696
11 0 1 -5.165161 -6.027067 42.726593
12 0 1 -5.422809 -6.007708 41.769196
13 0 1 -5.366649 -6.980936 41.382812
14 0 1 -4.829921 -6.553047 40.690491
15 0 1 -3.864120 -6.580717 40.595306
16 0 1 -3.500252 -6.480738 39.725708
17 0 1 -3.244081 -5.883257 39.017303
18 0 1 -3.741970 -6.556646 38.506195
19 0 1 -3.857811 -7.468468 38.359802
20 0 1 -4.508190 -8.127687 38.067596
21 0 1 -4.422180 -8.222147 39.075195
22 0 1 -3.771980 -8.533358 39.647797
23 0 1 -3.011780 -9.064617 39.912292
24 0 1 -3.309971 -10.027117 39.744904
25 0 1 -2.920301 -10.087118 38.822205
26 0 1 -3.524610 -10.853918 38.947693
27 0 1 -2.977482 -11.486017 38.453705
28 0 1 -2.988022 -12.157118 37.762695
29 0 1 -3.937172 -11.787718 37.691406
30 0 1 -4.054780 -12.631718 38.199097
31 0 1 -3.471710 -12.469519 38.983795
32 0 1 -2.529690 -12.428316 39.061401
33 0 1 -2.312092 -12.136019 39.961090
34 0 1 -2.608761 -12.300117 40.856201
35 0 1 -2.129091 -12.823217 41.470612
36 0 1 -2.836021 -13.413317 41.286896
37 0 1 -2.945631 -13.792418 40.346497
38 0 1 -3.286751 -14.525018 40.868195
39 0 1 -2.453260 -14.655317 41.348083
40 0 1 -2.104912 -14.911517 40.433899
41 0 1 -1.627661 -15.539417 39.874817
42 0 1 -1.881691 -16.478918 39.681610
43 0 1 -1.993791 -16.458918 38.731812
44 0 1 -2.721302 -16.560118 37.980499
45 0 1 -2.762670 -15.645117 38.172394
46 0 1 -3.564190 -16.061117 38.463501
47 0 1 -3.341631 -15.722116 39.367310
48 0 1 -3.046230 -14.986816 39.943604
49 0 1 -3.235830 -15.824917 40.424591
50 0 1 -3.651050 -16.452717 41.021301
51 0 1 -4.514261 -16.420618 41.463287
52 0 1 -4.565071 -15.457018 41.571289
53 0 1 -5.008501 -15.416117 42.405487
54 0 1 -4.617881 -15.328817 43.258698
55 0 1 -4.585170 -14.436518 43.570190
56 0 1 -5.344451 -14.248817 44.049988
57 0 1 -5.012882 -13.507418 44.641510
58 0 1 -5.723079 -13.154516 45.149200
59 0 1 -5.693210 -13.173218 46.072906
60 0 1 -5.973550 -12.838717 46.963501
61 0 1 -6.839302 -13.038317 46.639313
62 0 1 -6.940502 -13.568917 47.442017
63 0 1 -7.093101 -14.477417 47.701904
64 0 1 -7.998500 -14.667518 47.579193
65 0 1 -8.282801 -13.684418 47.473602
66 0 1 -7.973100 -13.460516 48.333893
67 0 1 -7.312301 -13.312918 49.021210
68 0 1 -6.612300 -14.000817 49.136597
69 0 1 -6.164100 -14.804017 49.418304
70 0 1 -5.649452 -15.321718 50.027588
71 0 1 -6.602300 -15.463818 50.095306
72 0 1 -7.419101 -15.460817 50.567810
73 0 1 -8.251801 -15.087517 50.804688
74 0 1 -8.504700 -15.621017 51.546204
75 0 1 -9.383202 -15.302816 51.415283
76 0 1 -9.943302 -14.547917 51.394196
77 0 1 -10.324200 -14.078617 52.171692
78 0 1 -9.798302 -14.683117 52.665009
79 0 1 -10.462200 -14.774417 53.461914
80 0 1 -10.436701 -15.196217 54.351685
81 0 1 -10.672101 -15.688917 55.153412
82 0 1 -10.626901 -15.829817 56.125092
83 0 1 -9.735302 -15.524418 56.351196
84 0 1 -10.243900 -15.375317 57.175293
85 0 1 -10.281801 -16.043617 57.857788
86 0 1 -10.127001 -16.747917 58.485687
87 0 1 -9.321301 -17.259918 58.494293
88 0 1 -9.769501 -17.996618 58.132507
89 0 1 -10.593700 -18.403118 58.526611
90 0 1 -11.342001 -18.962118 58.680695
91 0 1 -10.601301 -19.219217 59.207489
92 0 1 -10.406401 -20.111618 58.796112
93 0 1 -10.452301 -19.386917 58.131592
94 0 1 -10.250301 -20.194918 57.703613
95 0 1 -9.630100 -19.537416 57.522003
96 0 1 -8.881100 -19.146618 57.889893
97 0 1 -8.019501 -19.387917 57.603699
98 0 1 -7.490901 -20.137318 57.490387
99 0 1 -6.531600 -19.959017 57.479004
100 0 1 -6.414001 -20.684517 58.171112
101 0 1 -7.056100 -21.279716 58.598907
102 0 1 -7.741199 -21.203617 59.313416
103 0 1 -7.866802 -20.517517 58.595886
104 0 1 -7.435001 -19.782318 59.061584
105 0 1 -6.512802 -19.472218 59.259888
106 0 1 -6.351699 -18.613417 59.775391
107 0 1 -6.198001 -18.089218 58.998810
108 0 1 -5.388971 -18.363117 59.503204
109 0 1 -4.878742 -19.131117 59.186188
110 0 1 -5.494510 -19.856417 59.230713
111 0 1 -4.636291 -20.310617 58.928009
112 0 1 -4.060510 -20.945118 58.614014
113 0 1 -4.483280 -21.693417 58.136810
114 0 1 -4.121292 -22.536917 58.388611
115 0 1 -4.140550 -22.557318 59.383698
116 0 1 -4.188520 -21.833517 60.011200
117 0 1 -3.383510 -21.989218 60.614807
118 0 1 -3.810230 -22.560518 61.261505
119 0 1 -2.957390 -23.041317 61.053802
120 0 1 -2.176990 -23.581318 60.991302
121 0 1 -1.362371 -23.925016 60.875397
122 0 1 -1.064501 -23.898817 59.971405
123 0 1 -1.144361 -24.825018 59.965515
124 0 1 -0.416071 -25.400417 59.775391
125 0 1 -0.229841 -26.036417 59.067993
126 0 1 0.669150 -25.783018 58.939392
127 0 1 1.174980 -26.612917 58.997314
128 0 1 0.736960 -27.215418 58.442596
129 0 1 1.103760 -26.883617 57.592407
130 0 1 1.229529 -25.903517 57.428894
131 0 1 0.887600 -24.987717 57.104706
132 0 1 0.788960 -24.236217 56.504517
133 0 1 1.498690 -23.642618 56.319885
134 0 1 1.300669 -22.737516 56.549011
135 0 1 1.889370 -22.193417 56.016296
136 0 1 1.485939 -21.403917 55.485199
137 0 1 2.232979 -21.714817 54.917786
138 0 1 3.120474 -22.198517 55.072296
139 0 1 3.233223 -23.088217 54.665009
140 0 1 2.326149 -23.259417 54.958984
141 0 1 2.824980 -23.092417 55.727783
142 0 1 3.688416 -23.437418 56.130310
143 0 1 4.327725 -23.947718 55.595795
144 0 1 4.534272 -23.886417 54.650299
145 0 1 4.401230 -23.093918 54.075500
146 0 1 4.484429 -22.923517 55.028503
147 0 1 4.264342 -22.096218 54.641510
148 0 1 4.364979 -21.375717 55.403107
149 0 1 5.124230 -20.940117 55.785889
150 0 1 4.566786 -20.387417 55.206207
151 0 1 3.727774 -19.982317 55.054108
152 0 1 3.482865 -19.074917 54.748810
153 0 1 3.824656 -18.798517 55.547485
154 0 1 4.588078 -18.900017 56.129608
155 0 1 4.469735 -17.922018 55.870605
156 0 1 4.002284 -17.535316 55.170288
157 0 1 3.842951 -17.149218 54.299500
158 0 1 3.256005 -17.623617 53.754395
159 0 1 2.567000 -18.109417 53.167297
160 0 1 2.027260 -18.012718 52.327911
161 0 1 1.897909 -17.285418 51.691101
162 0 1 1.082379 -17.324318 52.272217
163 0 1 1.284500 -16.693117 52.979309
164 0 1 0.391918 -16.302217 53.121094
165 0 1 0.382069 -15.693218 53.865692
166 0 1 0.683890 -14.945817 54.360199
167 0 1 -0.012251 -14.232417 54.415588
168 0 1 -0.407791 -14.696117 55.121002
169 0 1 -0.524851 -15.599718 54.842804
170 0 1 -0.997951 -15.432518 55.746796
171 0 1 -1.038280 -15.889317 56.577515
172 0 1 -1.547020 -15.115017 56.804504
173 0 1 -2.325401 -15.294617 57.295288
174 0 1 -1.672512 -15.511017 58.051697
175 0 1 -1.065071 -16.244917 58.099396
176 0 1 -0.649421 -16.991417 58.541901
177 0 1 0.185219 -16.968018 59.014587
178 0 1 0.297859 -17.817917 58.519989
179 0 1 0.786959 -17.931818 59.306702
180 0 1 0.021109 -18.256117 59.702209
181 0 1 -0.576790 -17.756117 60.253998
182 0 1 -0.856621 -17.518417 61.205811
183 0 1 -1.038212 -18.420618 60.963287
184 0 1 -0.372291 -19.114717 60.897491
185 0 1 0.166439 -18.316017 60.832703
186 0 1 0.575709 -17.808718 61.524200
187 0 1 0.782130 -17.060518 62.191711
188 0 1 1.146210 -16.276718 61.706390
189 0 1 1.975960 -15.877918 62.180115
190 0 1 1.205189 -15.735718 62.688110
191 0 1 1.612780 -15.009518 63.162598
192 0 1 2.050280 -14.552617 63.870911
193 0 1 2.662960 -14.406517 64.656891
194 0 1 2.729679 -15.109518 65.315613
195 0 1 1.887839 -15.303516 65.799408
196 0 1 2.138470 -15.804817 66.589905
197 0 1 2.666899 -15.792316 67.417114
198 0 1 3.149222 -15.373318 66.739502
199 0 1 3.955082 -15.517918 67.272095
200 0 1 4.698782 -15.236217 66.745117
201 0 1 4.017373 -14.819317 66.195007
202 0 1 3.522389 -14.230417 65.566803
203 0 1 3.611851 -13.481418 64.961395
204 0 1 3.653277 -12.563217 64.764893
205 0 1 3.363367 -11.699919 65.001709
206 0 1 2.505690 -11.264116 65.157593
207 0 1 2.497019 -10.936216 66.068207
208 0 1 1.961519 -10.242317 65.609711
209 0 1 1.633280 -9.778418 66.322510
210 0 1 1.080960 -9.682718 65.524506
211 0 1 0.787430 -9.150917 66.247406
212 0 1 1.026259 -8.239307 66.483887
213 0 1 0.439150 -7.818918 65.828094
214 0 1 -0.323391 -7.553797 65.308594
215 0 1 -0.777130 -8.377748 65.315002
216 0 1 -0.737961 -9.331018 64.975891
217 0 1 -1.245720 -10.026817 64.501190
218 0 1 -1.461740 -10.946016 64.824005
219 0 1 -2.001652 -10.732018 65.625793
220 0 1 -2.570282 -11.026018 64.936890
221 0 1 -2.608661 -11.601217 65.691010
222 0 1 -1.895830 -11.363016 66.423004
223 0 1 -1.483021 -12.241117 66.345886
224 0 1 -2.244091 -12.735117 66.387085
225 0 1 -2.542850 -13.624817 66.599091
226 0 1 -2.860420 -13.855118 65.766785
227 0 1 -3.799341 -13.783117 65.608795
228 0 1 -3.852831 -14.210817 66.463196
229 0 1 -4.131839 -13.936217 67.340393
230 0 1 -4.263919 -14.787717 67.793884
231 0 1 -4.723951 -14.344917 68.557098
232 0 1 -5.406650 -13.649517 68.610901
233 0 1 -4.817489 -13.224916 67.936707
234 0 1 -5.439331 -12.514818 67.690308
235 0 1 -5.619670 -13.166918 67.007111
236 0 1 -6.547201 -12.837418 67.209900
237 0 1 -6.825201 -13.763118 67.168213
238 0 1 -7.268600 -13.976217 66.353394
239 0 1 -6.704799 -13.258417 65.826599
240 0 1 -6.442001 -13.029219 64.937897
241 0 1 -5.844671 -12.280416 65.152496
242 0 1 -5.822132 -11.334217 64.963318
243 0 1 -6.424201 -11.011618 64.342896
244 0 1 -6.846801 -11.046518 63.445312
245 0 1 -6.434001 -10.161516 63.414612
246 0 1 -6.959800 -10.389818 62.552307
247 0 1 -6.677200 -10.384417 61.680786
248 0 1 -7.677200 -10.368418 61.666107
249 0 1 -8.578102 -10.049717 61.658813
250 0 1 -9.291702 -10.406816 61.168304
251 0 1 -9.721600 -11.049717 61.683105
252 0 1 -9.543201 -11.936817 61.316193
253 0 1 -9.524401 -12.222319 60.405884
254 0 1 -9.181702 -13.054117 60.055115
255 0 1 -8.997601 -12.637817 59.248901
256 0 1 -8.301701 -12.072018 59.559387
257 0 1 -7.418399 -11.914217 59.284088
258 0 1 -6.954299 -12.165518 60.151611
259 0 1 -6.764499 -13.095716 60.210907
260 0 1 -6.814899 -13.186817 59.196411
261 0 1 -6.446800 -14.061117 59.052490
262 0 1 -7.248300 -14.461118 59.390991
263 0 1 -8.137300 -14.038918 59.496887
264 0 1 -8.102600 -14.688017 60.239502
265 0 1 -7.421100 -14.381817 60.744690
266 0 1 -6.958801 -13.836917 61.399811
267 0 1 -6.120500 -13.921118 60.958008
268 0 1 -5.876291 -14.662217 61.432892
269 0 1 -6.337501 -15.278017 60.801392
270 0 1 -6.035480 -15.274418 59.885712
271 0 1 -5.434989 -14.932617 59.200104
272 0 1 -4.733501 -14.882017 58.521210
273 0 1 -4.653060 -15.613216 57.818512
274 0 1 -4.360111 -16.465017 58.096588
275 0 1 -3.839500 -17.228518 57.809113
276 0 1 -4.212141 -18.122318 57.682800
277 0 1 -4.055120 -17.668217 56.858215
278 0 1 -3.377580 -17.325518 56.307983
279 0 1 -2.624031 -17.659218 55.837891
280 0 1 -2.058691 -17.067217 56.344696
281 0 1 -2.674280 -16.514618 55.837189
282 0 1 -3.086170 -15.929518 55.262085
283 0 1 -2.377220 -16.536318 54.893707
284 0 1 -1.998932 -16.701618 54.044708
285 0 1 -1.228491 -16.792217 53.431000
286 0 1 -0.931080 -17.580818 52.980499
287 0 1 -0.850971 -18.538116 52.743896
288 0 1 -1.366251 -19.028217 52.154205
289 0 1 -1.315990 -19.417818 51.298004
290 0 1 -1.200750 -18.668217 50.769501
291 0 1 -1.102810 -17.697517 50.599792
292 0 1 -0.885000 -16.833618 50.105286
293 0 1 -0.813061 -16.608316 51.112213
294 0 1 -1.604730 -16.043118 51.239807
295 0 1 -2.352541 -16.609016 51.458313
296 0 1 -3.210811 -16.976118 51.768890
297 0 1 -4.101291 -16.634918 51.572510
298 0 1 -4.361579 -15.668217 51.462708
299 0 1 -4.586090 -15.789118 52.437897
300 0 1 -5.291999 -15.221018 52.189606
301 0 1 -5.131710 -14.510717 51.567596
302 0 1 -4.574199 -13.791718 51.405792
303 0 1 -5.264282 -13.669917 50.809601
304 0 1 -5.646890 -13.271217 51.549408
305 0 1 -6.167100 -13.616417 52.268311
306 0 1 -6.953102 -13.352118 51.790894
307 0 1 -6.782800 -14.330017 51.793701
308 0 1 -6.645200 -14.731518 52.662506
309 0 1 -5.952831 -14.278418 53.100311
310 0 1 -5.097332 -13.864118 53.293610
311 0 1 -5.668331 -13.617317 54.028107
312 0 1 -5.545959 -12.671316 53.821106
313 0 1 -5.910560 -12.871817 52.912201
314 0 1 -4.975620 -12.643518 52.769989
315 0 1 -5.344200 -11.777819 52.734406
316 0 1 -4.599861 -11.218718 52.904205
317 0 1 -3.697241 -10.992317 52.468109
318 0 1 -3.026510 -11.213518 51.805786
319 0 1 -2.488691 -10.718317 51.174988
320 0 1 -2.892740 -11.436419 50.595306
321 0 1 -3.253490 -10.621618 50.289795
322 0 1 -3.120281 -9.689917 50.136688
323 0 1 -3.594391 -9.311918 49.402588
324 0 1 -4.270891 -9.413317 48.709595
325 0 1 -5.063209 -9.822416 48.251404
326 0 1 -5.601711 -9.125319 47.937408
327 0 1 -6.487501 -9.016619 48.431091
328 0 1 -6.404602 -9.657217 47.611816
329 0 1 -6.800001 -8.989218 47.036407
330 0 1 -6.194999 -8.952318 46.232117
331 0 1 -5.410110 -8.349886 46.211700
332 0 1 -6.010231 -7.910418 46.743500
333 0 1 -6.263099 -7.100847 47.179016
334 0 1 -5.863981 -6.272457 47.168091
335 0 1 -6.051010 -5.326637 47.158905
336 0 1 -5.174461 -5.393078 47.591492
337 0 1 -5.459600 -4.535788 47.916199
338 0 1 -5.180130 -4.708397 48.826111
339 0 1 -4.660261 -3.986017 49.230194
340 0 1 -4.473701 -4.046097 50.180298
341 0 1 -5.175540 -3.867638 50.951996
342 0 1 -5.210319 -2.957999 51.183289
343 0 1 -5.203269 -2.833168 50.264191
344 0 1 -4.279930 -2.378828 50.271606
345 0 1 -4.667362 -2.152598 49.448486
346 0 1 -4.884151 -2.533657 48.584808
347 0 1 -5.658941 -2.137978 48.096313
348 0 1 -5.350570 -1.300217 48.449310
349 0 1 -4.997760 -0.839447 49.278992
350 0 1 -4.038921 -0.843598 49.331512
351 0 1 -4.310911 -0.498217 48.500916
352 0 1 -4.640501 -0.322178 47.570404
353 0 1 -5.137352 0.429666 47.945190
354 0 1 -5.536849 1.105444 48.516785
355 0 1 -5.809989 1.925192 48.954712
356 0 1 -5.150890 2.226183 49.662292
357 0 1 -5.885480 2.806814 49.872803
358 0 1 -6.760501 3.132822 49.969604
359 0 1 -6.812500 2.874811 50.896484
360 0 1 -7.739200 2.597971 51.147095
361 0 1 -7.972999 3.559934 51.178497
362 0 1 -8.202501 3.427671 50.246704
363 0 1 -8.069101 3.976511 49.410187
364 0 1 -8.735500 4.423002 49.936188
365 0 1 -9.583801 4.153444 50.202698
366 0 1 -10.459501 4.070204 50.545990
367 0 1 -9.919502 3.535051 51.172211
368 0 1 -10.304901 2.898782 51.862305
369 0 1 -10.889101 3.674062 51.884094
370 0 1 -10.830601 4.090284 52.708008
371 0 1 -10.010601 4.471163 53.025391
372 0 1 -10.009001 5.456804 53.230804
373 0 1 -9.341000 5.192064 53.843506
374 0 1 -9.832401 4.933332 54.593903
375 0 1 -10.410601 5.159193 55.438995
376 0 1 -11.309001 4.947954 54.943298
377 0 1 -11.668101 5.836664 55.069702
378 0 1 -11.340501 6.742041 54.912903
379 0 1 -10.671901 6.733454 54.265686
380 0 1 -10.388500 6.532484 53.317596
381 0 1 -10.319702 7.300203 52.635803
382 0 1 -11.181601 7.336843 52.261108
383 0 1 -12.006401 7.782354 52.446503
384 0 1 -11.298701 7.819822 53.202606
385 0 1 -11.343501 8.241453 54.082489
386 0 1 -11.336101 7.908392 55.038513
387 0 1 -12.175901 8.382044 55.225494
388 0 1 -11.718700 9.138052 54.848816
389 0 1 -11.394201 9.917593 55.342590
390 0 1 -11.176801 10.335894 54.487793
391 0 1 -10.670901 9.675863 53.960083
392 0 1 -10.288801 9.603724 54.832611
393 0 1 -9.597900 10.302221 54.882690
394 0 1 -9.701702 11.240484 54.749603
395 0 1 -10.297802 11.199682 55.540497
396 0 1 -10.365501 12.036581 55.051605
397 0 1 -11.049701 12.008680 55.769806
398 0 1 -11.404701 12.209284 54.792786
399 0 1 -12.244101 12.589884 55.189606
400 0 1 -12.247801 13.159781 54.448395
401 0 1 -12.184000 14.244982 54.364899
402 0 1 -12.646601 14.515383 53.565613
403 0 1 -12.770401 13.670683 53.247986
404 0 1 -13.102701 13.436781 52.290009
405 0 1 -14.004501 13.036581 52.069489
406 0 1 -14.683102 13.043783 52.791595
407 0 1 -15.458700 13.122885 52.273407
408 0 1 -16.216902 12.619482 52.540802
409 0 1 -15.875801 12.314383 51.716888
410 0 1 -16.561901 11.606581 52.041290
411 0 1 -16.313601 11.134985 52.911896
412 0 1 -16.378601 10.209642 52.722687
413 0 1 -17.219702 9.690954 52.902802
414 0 1 -18.175100 9.497072 53.023010
415 0 1 -18.188702 9.449083 53.962006
416 0 1 -18.452600 10.024954 54.652893
417 0 1 -17.754702 10.176271 55.313507
418 0 1 -17.145500 9.493803 55.047394
419 0 1 -16.307100 9.176031 55.270508
420 0 1 -16.208401 9.247145 56.253906
421 0 1 -15.818201 10.052641 56.403992
422 0 1 -15.165901 10.278021 57.072388
423 0 1 -14.490601 10.654531 56.415283
424 0 1 -13.814600 11.401983 56.463806
425 0 1 -13.991301 11.852282 57.246094
426 0 1 -13.345800 11.243185 57.515015
427 0 1 -12.402102 11.016531 57.863312
428 0 1 -12.536001 10.466612 58.593292
429 0 1 -12.289001 10.104902 59.521301
430 0 1 -11.817701 10.839125 59.311310
431 0 1 -11.004401 11.096983 59.751099
432 0 1 -10.231701 10.661802 60.146484
433 0 1 -10.070301 11.614584 60.240692
434 0 1 -9.705200 12.099585 59.502502
435 0 1 -9.428101 12.531382 58.713104
436 0 1 -9.578300 13.468985 58.441711
437 0 1 -8.758501 13.231684 58.060089
438 0 1 -8.966000 13.168783 57.147400
439 0 1 -8.726902 13.109083 56.228302
440 0 1 -8.279701 12.626982 55.507690
441 0 1 -7.599901 13.298182 55.504303
442 0 1 -6.708900 13.493483 55.566589
443 0 1 -5.765029 13.513884 55.268402
444 0 1 -5.489160 12.601782 55.472107
445 0 1 -5.529710 11.680582 55.724609
446 0 1 -5.780250 11.024073 55.093384
447 0 1 -5.863472 11.849482 54.681885
448 0 1 -4.907951 12.211184 54.568115
449 0 1 -5.200620 12.843782 53.870911
450 0 1 -5.232271 13.616083 54.466309
451 0 1 -4.766891 14.468584 54.346497
452 0 1 -4.585620 15.440481 54.500702
453 0 1 -5.532510 15.342482 54.420990
454 0 1 -6.130201 14.994081 53.731598
455 0 1 -6.821500 14.541983 54.226196
456 0 1 -6.830699 13.587381 54.157715
457 0 1 -7.140800 12.652582 54.402008
458 0 1 -7.710001 12.257284 53.683807
459 0 1 -7.985000 12.530882 52.808105
460 0 1 -8.233301 11.651182 53.002289
461 0 1 -7.928800 10.828062 53.375610
462 0 1 -7.959301 9.859941 53.576508
463 0 1 -8.059401 9.023542 53.195892
464 0 1 -7.158802 8.998121 53.638794
465 0 1 -6.788200 9.884871 53.549408
466 0 1 -6.201702 9.394651 53.013092
467 0 1 -5.500560 9.500303 52.450592
468 0 1 -5.344081 9.271112 51.500702
469 0 1 -5.533901 10.095423 51.075806
470 0 1 -5.024990 10.687422 50.393707
471 0 1 -4.168830 10.164904 50.350189
472 0 1 -4.007782 9.873163 49.449402
473 0 1 -3.593200 8.997442 49.178589
474 0 1 -3.855150 8.021063 49.249298
475 0 1 -3.018881 8.016745 48.794403
476 0 1 -3.514341 7.643244 48.071716
477 0 1 -4.438430 8.111364 48.014587
478 0 1 -4.106922 8.448072 47.212708
479 0 1 -3.645870 9.266584 47.050995
480 0 1 -3.724211 10.133852 47.385010
481 0 1 -3.384290 10.982344 47.075104
482 0 1 -2.509552 11.399481 47.003296
483 0 1 -2.294262 10.444242 46.903290
484 0 1 -2.374231 9.572821 47.364594
485 0 1 -2.140051 9.294783 48.248688
486 0 1 -2.064470 8.543413 48.857117
487 0 1 -1.539720 7.933073 49.407898
488 0 1 -0.883680 8.554052 49.732605
489 0 1 -0.389240 9.292814 49.287506
490 0 1 0.425080 9.461721 48.739899
491 0 1 1.025009 9.326513 49.396912
492 0 1 0.495600 8.954721 50.134094
493 0 1 0.381989 8.013483 50.255402
494 0 1 0.849989 8.193785 49.455109
495 0 1 1.558110 7.557051 49.608490
496 0 1 2.306530 8.184004 49.548187
497 0 1 2.715460 8.580694 50.315094
498 0 1 2.717379 9.510553 50.505310
499 0 1 1.762459 9.880224 50.727783
500 0 1 0.967989 10.408422 50.442596
501 0 1 1.098969 11.310183 50.492493
502 0 1 0.477240 12.070883 50.444611
503 0 1 -0.407200 11.752283 50.477112
504 0 1 -0.155349 10.881594 50.090790
505 0 1 -0.246261 10.389174 49.317810
506 0 1 -0.723572 10.547323 48.548004
507 0 1 -1.366621 10.856012 47.854614
508 0 1 -1.076650 11.217684 46.936188
509 0 1 -1.222181 11.287382 46.011810
510 0 1 -2.053741 11.663881 45.840515
511 0 1 -1.976249 11.938383 44.843201
512 0 1 -1.180931 11.823282 44.381409
513 0 1 -0.602981 11.220781 43.946198
514 0 1 -0.455002 10.395163 43.497101
515 0 1 -0.687040 10.916571 42.682495
516 0 1 -0.679741 11.431284 41.911896
517 0 1 -0.995861 11.670485 40.990692
518 0 1 -1.398491 12.382383 40.446716
519 0 1 -0.967161 13.215982 40.332611
520 0 1 -0.603750 13.939882 39.782898
521 0 1 -0.149730 13.735582 38.951111
522 0 1 0.638279 13.285784 39.365601
523 0 1 1.235150 13.757883 39.851685
524 0 1 0.572329 14.466883 39.944885
525 0 1 1.312880 15.015482 39.664307
526 0 1 0.963309 15.916082 39.755402
527 0 1 0.094630 16.225382 39.963196
528 0 1 -0.645611 15.944483 39.517792
529 0 1 -0.957481 15.091982 39.353790
530 0 1 -1.849731 14.753283 39.023407
531 0 1 -1.852810 13.792284 39.139709
532 0 1 -2.198560 14.006781 38.287506
533 0 1 -2.969541 13.800783 37.826599
534 0 1 -3.380470 12.880281 37.567413
535 0 1 -4.187061 12.832380 36.925598
536 0 1 -4.317569 13.179785 36.048096
537 0 1 -5.111579 12.901182 35.526001
538 0 1 -5.954900 13.569685 35.269409
539 0 1 -6.274900 13.446684 34.360291
540 0 1 -7.082099 12.958281 34.537994
541 0 1 -6.815601 12.892782 33.653687
542 0 1 -6.437500 12.955984 32.824585
543 0 1 -5.887691 12.149282 32.910187
544 0 1 -5.687231 11.757383 32.050903
545 0 1 -4.799751 11.791483 31.519989
546 0 1 -5.220251 10.978064 31.598206
547 0 1 -5.472560 11.356184 30.730499
548 0 1 -6.114601 11.540083 30.022614
549 0 1 -5.983081 12.452082 30.295013
550 0 1 -5.598110 12.611483 29.416809
551 0 1 -4.645500 12.839582 29.210999
552 0 1 -4.714281 13.849882 29.175903
553 0 1 -4.104702 14.340883 28.704285
554 0 1 -4.186191 14.007383 27.735504
555 0 1 -3.740810 13.517782 27.052795
556 0 1 -3.126400 12.902884 26.737396
557 0 1 -2.362251 13.513983 26.996307
558 0 1 -2.150131 13.530981 26.049011
559 0 1 -2.665100 12.979284 25.447388
560 0 1 -1.950731 12.918283 24.683594
561 0 1 -1.782322 13.090483 23.798492
562 0 1 -1.632770 12.173082 23.469391
563 0 1 -2.486030 11.705481 23.293610
564 0 1 -3.364681 11.692282 23.737305
565 0 1 -2.901441 12.390882 24.128693
566 0 1 -2.468101 11.634783 24.471100
567 0 1 -1.612131 11.420881 24.908295
568 0 1 -1.695661 10.429644 24.660309
569 0 1 -1.507761 9.755762 25.362915
570 0 1 -1.460781 10.075933 26.270813
571 0 1 -1.362732 9.871740 27.216003
572 0 1 -2.239200 10.274092 27.306091
573 0 1 -2.698051 9.472254 26.904297
574 0 1 -2.745842 8.707212 27.492004
575 0 1 -3.516870 8.595251 28.053101
576 0 1 -2.770530 8.167612 28.421204
577 0 1 -2.954811 8.081331 29.421692
578 0 1 -3.435430 7.490332 30.018402
579 0 1 -2.630192 7.432493 30.555389
580 0 1 -2.460560 6.605154 30.076691
581 0 1 -1.876621 6.540163 30.799500
582 0 1 -1.278421 6.676344 31.691803
583 0 1 -0.691271 7.318693 31.238708
584 0 1 0.264488 7.253202 31.472809
585 0 1 -0.071720 7.576342 32.294708
586 0 1 -0.909530 7.961481 32.068115
587 0 1 -0.951221 8.830542 32.348206
588 0 1 -0.098251 9.243341 32.210907
589 0 1 -0.538391 9.957251 31.703888
590 0 1 0.231430 10.600904 31.459198
591 0 1 1.073889 10.189543 31.274597
592 0 1 1.260830 10.849802 30.630310
593 0 1 1.414589 11.651884 31.063995
594 0 1 2.161570 12.225683 31.310608
595 0 1 2.644289 12.791681 30.710297
596 0 1 2.901230 13.821482 30.854614
597 0 1 3.724192 13.274881 30.786102
598 0 1 4.720343 13.380083 30.809601
599 0 1 4.681841 12.485582 30.365204
600 0 1 4.295189 11.606783 30.428589
601 0 1 3.859785 11.929884 31.220612
602 0 1 3.382910 11.918882 30.400909
603 0 1 3.318756 11.477083 29.458710
604 0 1 4.105547 11.018042 29.142395
605 0 1 4.370835 10.070902 29.107788
606 0 1 3.584603 10.259012 28.523712
607 0 1 3.833355 9.551302 27.934692
608 0 1 4.290120 9.044153 27.322906
609 0 1 4.985789 9.350393 26.760498
610 0 1 5.405280 8.446573 26.719391
611 0 1 4.775147 7.717611 26.630707
612 0 1 4.627106 6.906122 27.179688
613 0 1 5.053679 6.531183 26.382507
614 0 1 4.620987 5.710974 26.481110
615 0 1 3.974156 5.298414 25.824493
616 0 1 4.322686 4.576952 26.268799
617 0 1 4.520083 3.866911 25.579193
618 0 1 4.637047 3.520452 24.704407
619 0 1 3.964216 3.210333 24.107697
620 0 1 3.864994 2.372633 24.673492
621 0 1 3.653618 2.682901 25.573792
622 0 1 4.608780 2.525833 25.743896
623 0 1 4.058352 2.143482 26.462708
624 0 1 4.327904 1.856609 27.381195
625 0 1 3.901919 0.954916 27.350311
626 0 1 4.490740 0.215212 27.354187
627 0 1 5.036370 -0.614788 27.285095
628 0 1 5.294220 -0.887608 28.160614
629 0 1 5.559208 -1.315058 28.958008
630 0 1 5.985032 -0.571938 29.398407
631 0 1 6.727540 -1.036097 29.777893
632 0 1 7.018109 -1.405047 28.965393
633 0 1 7.749798 -1.297617 28.300812
634 0 1 8.123669 -0.837807 29.005005
635 0 1 8.695789 0.002762 28.763702
636 0 1 8.557709 -0.528887 28.042999
637 0 1 9.409218 -0.111208 27.816803
638 0 1 9.342648 0.784311 27.583405
639 0 1 9.527340 1.649357 28.022491
640 0 1 10.201839 1.618408 28.738495
641 0 1 9.441750 1.520384 29.352600
642 0 1 9.559498 2.270603 29.959595
643 0 1 9.301300 3.211641 29.928497
644 0 1 8.770779 3.778631 29.346985
645 0 1 9.013340 4.680574 29.566284
646 0 1 9.529030 4.962252 30.321808
647 0 1 9.636539 5.885813 30.617310
648 0 1 9.598289 5.525961 31.524597
649 0 1 9.811848 6.071463 32.293091
650 0 1 9.887650 5.729654 33.185486
651 0 1 10.113689 6.153402 34.042297
652 0 1 9.784218 5.244783 34.136505
653 0 1 9.051159 4.647371 34.435486
654 0 1 8.187149 4.205431 34.455109
655 0 1 7.330750 3.700102 34.413605
656 0 1 7.093499 3.712923 33.515198
657 0 1 6.315690 3.185274 33.940308
658 0 1 5.250390 2.886831 33.861694
659 0 1 5.113850 3.026182 32.949097
660 0 1 4.319962 3.407343 33.271790
661 0 1 3.845715 2.834982 33.833893
662 0 1 3.024935 2.958574 34.360901
663 0 1 2.324879 2.498533 33.959106
664 0 1 2.573159 2.497022 33.073395
665 0 1 1.958870 1.794172 33.057892
666 0 1 1.180649 1.959081 33.599609
667 0 1 1.469839 2.917124 33.558716
668 0 1 1.878329 3.440782 34.268890
669 0 1 1.200169 4.103071 34.367310
670 0 1 0.404219 3.516012 34.535797
671 0 1 0.123650 4.290201 34.072113
672 0 1 0.271929 5.140703 34.530701
673 0 1 -0.022091 5.861235 35.122894
674 0 1 -0.471100 6.734304 35.199310
675 0 1 -1.286121 6.109861 35.322113
676 0 1 -1.232980 5.431654 36.057587
677 0 1 -1.530700 4.978632 35.212585
678 0 1 -2.330560 4.563074 35.418488
679 0 1 -3.219690 4.476862 35.843506
680 0 1 -3.261940 3.733724 36.514587
681 0 1 -3.159870 4.251913 37.372314
682 0 1 -2.427061 4.879053 37.392212
683 0 1 -1.669271 4.318533 37.288788
684 0 1 -2.140301 4.009493 38.087402
685 0 1 -1.304170 3.797834 38.506012
686 0 1 -1.839020 4.325754 39.302307
687 0 1 -1.755890 4.066324 40.240295
688 0 1 -2.314300 3.430471 39.798004
689 0 1 -2.248440 2.540251 40.242188
690 0 1 -2.500171 2.202282 39.383911
691 0 1 -2.657991 1.236934 39.354706
692 0 1 -2.825401 0.957529 40.312897
693 0 1 -2.398521 0.057588 40.096313
694 0 1 -2.431412 -0.879038 39.855499
695 0 1 -2.095121 -1.673798 40.378784
696 0 1 -2.602150 -1.224867 41.118591
697 0 1 -2.655102 -1.962267 41.728210
698 0 1 -1.859060 -2.235947 42.176208
699 0 1 -1.180811 -2.841057 42.385986
700 0 1 -0.550371 -2.321287 41.884094
701 0 1 0.056710 -1.537668 41.825195
702 0 1 0.864800 -0.969649 41.636414
703 0 1 1.553179 -0.208798 41.780701
704 0 1 1.814429 -0.053738 40.859711
705 0 1 2.011280 0.364006 40.041412
706 0 1 1.169060 0.641598 39.704193
707 0 1 1.651810 1.160146 39.014099
708 0 1 2.618620 1.356020 38.909393
709 0 1 3.320753 1.198232 38.206299
710 0 1 4.029137 0.790928 38.681793
711 0 1 4.449238 -0.053877 38.767700
712 0 1 4.131840 -0.124397 37.802704
713 0 1 4.678813 -0.822058 37.657593
714 0 1 5.401240 -1.346718 37.996490
715 0 1 4.894326 -2.073458 37.510590
716 0 1 4.192132 -2.610308 37.001709
717 0 1 3.198931 -2.678168 37.368408
718 0 1 3.794407 -3.106398 38.085510
719 0 1 3.943951 -3.654608 38.843201
720 0 1 4.390757 -3.408737 39.662903
721 0 1 4.581276 -2.656748 40.248596
722 0 1 5.562138 -2.861677 40.021484
723 0 1 5.401780 -3.515457 39.286713
724 0 1 6.322609 -3.061518 39.033600
725 0 1 5.813241 -2.235007 38.929291
726 0 1 6.610428 -1.683697 38.673706
727 0 1 6.987740 -1.369377 37.863190
728 0 1 6.743279 -1.771548 36.935303
729 0 1 6.018300 -2.154238 37.405609
730 0 1 6.572350 -2.880877 37.165802
731 0 1 7.510418 -2.751587 37.333801
732 0 1 8.332260 -2.109297 37.281189
733 0 1 9.179398 -2.761158 37.149994
734 0 1 10.074398 -2.834057 36.765991
735 0 1 10.386829 -2.814108 35.866791
736 0 1 10.237839 -3.228258 35.014008
737 0 1 9.696938 -3.983397 35.129913
738 0 1 10.334129 -4.391176 34.554504
739 0 1 11.120789 -4.228638 34.001801
740 0 1 10.926270 -3.569567 33.296509
741 0 1 11.633999 -3.446537 32.680206
742 0 1 10.984760 -3.733698 32.026093
743 0 1 10.072708 -3.503487 31.862305
744 0 1 10.430420 -3.371527 30.998993
745 0 1 10.326279 -2.470417 30.777802
746 0 1 9.783768 -1.956208 31.380890
747 0 1 10.688358 -1.683607 31.317902
748 0 1 10.482689 -0.852568 30.879700
749 0 1 11.055481 -0.404307 30.244110
750 0 1 10.201279 -0.110937 29.994690
751 0 1 9.499748 -0.782767 29.631195
752 0 1 10.092381 -1.123287 28.956207
753 0 1 9.492569 -1.492668 28.289307
754 0 1 10.173790 -2.123667 28.124207
755 0 1 10.493870 -2.262617 29.021301
756 0 1 11.304020 -1.873427 28.607513
757 0 1 11.193501 -2.771918 28.235413
758 0 1 11.877350 -3.534247 28.277008
759 0 1 12.250938 -3.962878 27.581604
760 0 1 11.906120 -3.101498 27.301514
761 0 1 12.619141 -3.204838 26.645996
762 0 1 12.345169 -2.550648 26.028809
763 0 1 11.729618 -1.871407 25.931091
764 0 1 11.879070 -1.675429 24.899689
765 0 1 12.198498 -1.927788 24.033203
766 0 1 11.433380 -2.467388 23.714905
767 0 1 11.626339 -1.834017 22.968384
768 0 1 11.296158 -2.630898 22.625397
769 0 1 11.493988 -2.864887 21.679504
770 0 1 11.744759 -3.624247 22.308105
771 0 1 12.700069 -3.291498 22.174301
772 0 1 13.104321 -4.130238 21.715103
773 0 1 13.710110 -4.454397 20.945404
774 0 1 14.070801 -3.592016 20.899200
775 0 1 14.151600 -3.053658 20.152405
776 0 1 14.019398 -3.212467 19.182098
777 0 1 13.638229 -2.551897 18.578796
778 0 1 12.892418 -2.731087 18.004501
779 0 1 12.536098 -1.928177 17.630295
780 0 1 13.430328 -1.545727 17.565598
781 0 1 13.608330 -1.231867 16.614700
782 0 1 13.191738 -0.550598 17.127701
783 0 1 14.050400 -0.121767 17.224503