LAMMPS data file via MDAnalysis

        2000  atoms
        1999  bonds
           0  angles
           0  dihedrals
           0  impropers

           1  atom types
           1  bond types
           0  angle types
           0  dihedral types
           0  improper types

-30.5 30.5 xlo xhi
-30.5 30.5 ylo yhi
-233.5 233.5 zlo zhi


Masses

1 1.000000

Atoms

1 0 1 5.076220 -13.450768 103.464996
2 0 1 4.567912 -14.307569 103.359009
3 0 1 4.774081 -14.608169 102.516998
4 0 1 4.070750 -15.265769 102.632996
5 0 1 4.143389 -15.842669 103.394989
6 0 1 5.003180 -16.188869 103.723999
7 0 1 5.802779 -16.570070 104.102997
8 0 1 5.211020 -16.849270 104.819000
9 0 1 5.468359 -16.554270 105.691010
10 0 1 5.402781 -16.646770 106.653992
11 0 1 6.002131 -16.127569 107.326996
12 0 1 6.214102 -16.248770 108.319000
13 0 1 6.110861 -15.254769 108.140991
14 0 1 6.632559 -14.606169 108.734009
15 0 1 6.435011 -14.100268 109.566010
16 0 1 5.913809 -13.576669 108.890991
17 0 1 6.418532 -12.757470 108.942993
18 0 1 7.148802 -12.396070 108.463989
19 0 1 8.030272 -12.045568 108.186005
20 0 1 8.285010 -12.306169 107.330017
21 0 1 7.562720 -12.927068 107.320984
22 0 1 7.026480 -12.052068 107.369019
23 0 1 7.231509 -11.943368 106.447998
24 0 1 7.644579 -11.128469 106.203003
25 0 1 7.852931 -10.280768 106.593018
26 0 1 7.569071 -9.579370 107.222992
27 0 1 6.930491 -8.872968 107.121002
28 0 1 6.183859 -8.308419 107.062988
29 0 1 6.517050 -7.916959 106.237000
30 0 1 7.189749 -7.615628 105.529999
31 0 1 8.121020 -7.821889 105.445984
32 0 1 8.415172 -8.210149 104.546997
33 0 1 7.530699 -8.290479 104.237000
34 0 1 6.855422 -8.670049 103.613007
35 0 1 6.195158 -8.249120 104.235992
36 0 1 6.151419 -7.786580 105.046997
37 0 1 6.142779 -6.805299 104.929016
38 0 1 6.090441 -6.446538 105.848999
39 0 1 5.156630 -6.108968 105.990997
40 0 1 4.714209 -6.211209 106.825012
41 0 1 4.843272 -6.971978 107.460999
42 0 1 4.546729 -6.261140 108.035004
43 0 1 4.351092 -5.421578 107.773010
44 0 1 3.961982 -4.641309 107.378998
45 0 1 3.272879 -4.892268 106.792999
46 0 1 2.798320 -5.227189 107.518982
47 0 1 1.927430 -5.652499 107.608002
48 0 1 0.982766 -5.579768 107.889008
49 0 1 1.047869 -5.274779 107.020996
50 0 1 0.498400 -4.698308 106.479004
51 0 1 0.358567 -4.173839 105.669983
52 0 1 0.167119 -3.402169 106.312012
53 0 1 -0.626260 -3.383519 106.781006
54 0 1 -1.394269 -3.319730 106.136993
55 0 1 -1.249709 -3.718229 105.183990
56 0 1 -1.306220 -4.551118 105.552002
57 0 1 -1.167650 -5.511579 105.356995
58 0 1 -1.009139 -5.475408 104.421997
59 0 1 -0.761569 -5.662419 103.527008
60 0 1 -0.986999 -4.776889 103.640991
61 0 1 -1.397460 -4.809268 102.802002
62 0 1 -1.192329 -4.827020 101.903992
63 0 1 -2.231858 -4.925208 102.013000
64 0 1 -2.658880 -4.830110 101.127014
65 0 1 -2.944219 -5.289699 100.376007
66 0 1 -3.257379 -6.246819 100.291992
67 0 1 -3.595849 -6.416638 101.204010
68 0 1 -4.485790 -6.029340 100.959991
69 0 1 -5.269159 -6.532779 100.904999
70 0 1 -4.941370 -7.473439 100.645996
71 0 1 -4.329669 -7.941640 100.126007
72 0 1 -4.350721 -7.095599 99.611298
73 0 1 -4.826219 -6.290959 99.904114
74 0 1 -4.088489 -6.006558 99.365112
75 0 1 -4.895799 -6.022719 98.859589
76 0 1 -5.636449 -6.162879 98.280884
77 0 1 -6.403200 -6.121089 98.844299
78 0 1 -6.713060 -6.492808 98.010986
79 0 1 -7.663599 -6.563439 97.719391
80 0 1 -8.390450 -7.135289 97.319214
81 0 1 -9.299190 -7.252149 97.470001
82 0 1 -9.129779 -6.288899 97.274414
83 0 1 -9.180840 -5.818278 96.458191
84 0 1 -9.172999 -6.051539 95.521790
85 0 1 -8.679049 -5.962869 94.662292
86 0 1 -8.530370 -5.965108 93.696991
87 0 1 -8.597169 -5.925469 92.758484
88 0 1 -9.517489 -6.004119 92.646484
89 0 1 -10.346789 -5.553018 92.721008
90 0 1 -10.811790 -6.157899 93.307007
91 0 1 -11.200688 -5.489758 93.895996
92 0 1 -11.389089 -6.128968 94.583893
93 0 1 -11.750289 -6.857539 94.080597
94 0 1 -11.310990 -7.768609 93.862610
95 0 1 -11.413888 -7.499459 92.957001
96 0 1 -11.462590 -6.994439 92.151306
97 0 1 -11.466290 -6.112279 91.793304
98 0 1 -12.109689 -5.842769 91.138092
99 0 1 -11.973290 -6.670068 90.549896
100 0 1 -11.494790 -6.135779 89.869019
101 0 1 -11.135888 -6.378289 88.964905
102 0 1 -11.580388 -6.159589 88.114807
103 0 1 -12.203488 -5.926688 88.812500
104 0 1 -12.970889 -6.065778 88.176208
105 0 1 -13.306390 -5.266789 87.737488
106 0 1 -12.678788 -5.455728 86.979614
107 0 1 -13.285289 -6.155290 87.123993
108 0 1 -14.039390 -5.686738 86.872009
109 0 1 -14.669889 -5.080018 86.441895
110 0 1 -15.480090 -4.709769 86.170502
111 0 1 -15.514989 -3.800739 85.879791
112 0 1 -15.288890 -3.349239 86.729095
113 0 1 -15.597289 -2.433238 86.818909
114 0 1 -14.669889 -2.410890 87.068604
115 0 1 -14.670690 -1.610849 86.549011
116 0 1 -14.100889 -1.352119 85.717499
117 0 1 -14.080189 -0.813289 84.907501
118 0 1 -13.359490 -1.456458 84.819000
119 0 1 -13.008889 -1.718278 83.948792
120 0 1 -12.421090 -1.125739 84.272308
121 0 1 -11.469689 -1.228238 84.021484
122 0 1 -10.757089 -0.880969 83.517792
123 0 1 -10.848489 -0.137538 84.162506
124 0 1 -11.592488 0.433800 84.371582
125 0 1 -11.175691 1.386792 84.154602
126 0 1 -10.909989 0.945237 84.998108
127 0 1 -10.097690 1.378749 84.817017
128 0 1 -9.784089 0.458497 85.087799
129 0 1 -10.175889 0.942860 85.820801
130 0 1 -9.923688 1.282826 86.730713
131 0 1 -9.047500 1.415581 86.418518
132 0 1 -8.290339 0.798127 86.442993
133 0 1 -7.282751 0.793366 86.327393
134 0 1 -6.786430 0.500476 85.604187
135 0 1 -6.430601 -0.166074 86.081787
136 0 1 -5.798839 -0.117526 86.799500
137 0 1 -5.503540 0.851441 86.804016
138 0 1 -5.682489 1.147958 85.846100
139 0 1 -5.299190 1.979541 86.161499
140 0 1 -5.282831 2.014380 85.201111
141 0 1 -6.072900 2.494921 85.588501
142 0 1 -6.272329 2.670901 86.564789
143 0 1 -7.270170 2.861670 86.674683
144 0 1 -7.829120 2.518592 87.441711
145 0 1 -8.079858 2.925990 88.331390
146 0 1 -8.237060 3.861529 88.208405
147 0 1 -9.088571 3.934211 88.715790
148 0 1 -9.848790 4.530673 88.860504
149 0 1 -10.519189 5.176532 89.088013
150 0 1 -10.106290 6.056460 88.965881
151 0 1 -9.133050 5.675002 88.813293
152 0 1 -8.416070 5.688201 88.208496
153 0 1 -7.774450 6.403842 88.213104
154 0 1 -7.001009 5.831309 88.214600
155 0 1 -6.945379 4.901462 87.843384
156 0 1 -6.025520 4.714602 87.551910
157 0 1 -5.413650 4.916720 86.849609
158 0 1 -5.645319 3.965010 86.898590
159 0 1 -5.186290 4.028972 87.804199
160 0 1 -5.714159 4.466773 88.461700
161 0 1 -4.874130 4.668750 88.917908
162 0 1 -5.381479 5.507842 88.764587
163 0 1 -5.250059 6.118720 89.460510
164 0 1 -6.079509 6.620521 89.462585
165 0 1 -5.626819 7.400092 89.733307
166 0 1 -6.402700 7.946792 89.602905
167 0 1 -6.490060 8.874022 89.390503
168 0 1 -6.786130 8.795711 90.367004
169 0 1 -7.161260 9.717273 90.455597
170 0 1 -7.911909 9.740390 91.048706
171 0 1 -7.931921 9.435763 91.979187
172 0 1 -7.622579 8.529300 92.188416
173 0 1 -8.212960 8.268382 92.960907
174 0 1 -8.537799 8.223380 93.875305
175 0 1 -8.927739 8.710170 94.573090
176 0 1 -8.480649 8.606990 95.404999
177 0 1 -8.105060 9.425052 95.575012
178 0 1 -8.190999 9.898089 96.452515
179 0 1 -8.999959 10.019530 97.045593
180 0 1 -9.270490 10.884631 96.693695
181 0 1 -10.095389 11.382632 96.612000
182 0 1 -10.135789 11.067233 95.723297
183 0 1 -10.400090 10.272090 95.327606
184 0 1 -10.457089 9.529513 94.727783
185 0 1 -11.297288 9.212531 95.166504
186 0 1 -12.162690 8.733542 95.039001
187 0 1 -12.099690 7.859660 94.674103
188 0 1 -11.436389 7.732360 95.375702
189 0 1 -11.047288 7.118270 94.728516
190 0 1 -10.672589 7.175033 93.809998
191 0 1 -10.688890 6.653762 93.001099
192 0 1 -9.996591 6.790751 92.301086
193 0 1 -10.514390 6.343120 91.623505
194 0 1 -11.446988 6.238460 91.437103
195 0 1 -12.294690 5.919261 91.372192
196 0 1 -12.823888 6.750041 91.272003
197 0 1 -13.233489 7.658282 91.345703
198 0 1 -12.685990 8.310153 90.930389
199 0 1 -12.295789 8.898971 91.545105
200 0 1 -11.538888 8.315360 91.493195
201 0 1 -11.462090 9.181849 91.081909
202 0 1 -11.196589 8.970092 90.231903
203 0 1 -10.704789 9.072162 89.395111
204 0 1 -11.029088 9.925349 89.043396
205 0 1 -11.407189 9.898211 88.154694
206 0 1 -10.977288 9.657420 87.366516
207 0 1 -10.966189 10.534682 86.963409
208 0 1 -11.878789 10.881732 87.182617
209 0 1 -12.092090 11.795131 86.816193
210 0 1 -12.020391 12.728530 87.033295
211 0 1 -11.894589 12.337031 87.976593
212 0 1 -11.937789 12.548030 88.930206
213 0 1 -11.392289 13.255931 89.035400
214 0 1 -11.016889 14.039630 88.679016
215 0 1 -11.065389 14.652732 87.945892
216 0 1 -10.467488 13.982532 87.633301
217 0 1 -9.994988 14.823230 87.572510
218 0 1 -9.485188 14.428233 86.775391
219 0 1 -10.299390 14.271632 86.212402
220 0 1 -10.882089 13.998733 85.452698
221 0 1 -11.409789 14.722732 85.898010
222 0 1 -11.723989 15.326831 85.218201
223 0 1 -12.253789 16.105829 85.211395
224 0 1 -13.093389 16.512529 84.924103
225 0 1 -13.526389 16.301332 84.039612
226 0 1 -13.531888 17.199831 83.567017
227 0 1 -14.182690 17.875032 83.470490
228 0 1 -15.029289 18.145632 83.163605
229 0 1 -15.813788 17.829729 83.650299
230 0 1 -15.383988 16.936632 83.523499
231 0 1 -15.575688 16.058630 84.089111
232 0 1 -14.855289 15.689433 83.580383
233 0 1 -14.315789 15.076632 82.958618
234 0 1 -14.491690 14.312633 82.371307
235 0 1 -15.513690 14.080832 82.332092
236 0 1 -15.416389 14.988730 82.449585
237 0 1 -15.009389 15.139731 81.576202
238 0 1 -14.652889 14.903731 80.657715
239 0 1 -14.172790 14.144332 80.446106
240 0 1 -14.306689 13.478930 81.057190
241 0 1 -13.771090 12.964530 80.451202
242 0 1 -13.530290 12.869231 79.522217
243 0 1 -13.744489 12.208930 78.858582
244 0 1 -13.642089 11.707629 78.019287
245 0 1 -12.840188 11.406531 77.514496
246 0 1 -12.590589 10.485202 77.750610
247 0 1 -13.154790 9.694381 77.571411
248 0 1 -12.642690 9.486541 76.802917
249 0 1 -11.764390 9.145843 76.620483
250 0 1 -12.385888 8.327533 76.610504
251 0 1 -12.234490 7.433002 76.845886
252 0 1 -12.928889 6.767303 76.689514
253 0 1 -13.046090 6.580333 75.695496
254 0 1 -12.081689 6.402232 75.693909
255 0 1 -11.308389 6.407081 75.067200
256 0 1 -11.484090 6.350463 74.083710
257 0 1 -10.524690 6.231971 74.006287
258 0 1 -10.738790 6.572791 73.066895
259 0 1 -10.181088 7.453692 73.133301
260 0 1 -11.052489 7.731101 73.476898
261 0 1 -11.752090 7.328120 72.939209
262 0 1 -11.523690 8.180972 72.479797
263 0 1 -10.984090 8.907161 72.901611
264 0 1 -10.137490 8.989863 73.383789
265 0 1 -9.689189 8.434302 74.034698
266 0 1 -8.811490 8.608073 74.478088
267 0 1 -9.400390 7.878463 74.770203
268 0 1 -9.010570 6.973910 74.883911
269 0 1 -9.593389 6.232230 75.336304
270 0 1 -9.068139 5.514682 75.037598
271 0 1 -9.033029 4.993651 75.817108
272 0 1 -9.823091 4.465060 76.010498
273 0 1 -10.623889 4.952743 75.737305
274 0 1 -10.996989 4.242961 76.227783
275 0 1 -11.220189 3.452952 76.759003
276 0 1 -11.983289 3.294169 76.195892
277 0 1 -12.333188 3.145030 77.085907
278 0 1 -12.765290 2.354083 76.715302
279 0 1 -12.951688 1.768639 75.968292
280 0 1 -13.064389 2.498221 75.320312
281 0 1 -13.943989 2.881129 75.468018
282 0 1 -14.359689 2.699870 74.623810
283 0 1 -14.924989 2.281470 74.017609
284 0 1 -15.561889 1.683100 73.473083
285 0 1 -14.727989 1.305667 73.903595
286 0 1 -13.934090 0.811995 74.047791
287 0 1 -13.859489 1.814921 74.040497
288 0 1 -12.956389 2.051951 74.076996
289 0 1 -12.178990 2.574630 74.313904
290 0 1 -11.736390 2.338752 73.487701
291 0 1 -11.456590 1.793221 72.778687
292 0 1 -11.459189 2.208880 71.884491
293 0 1 -12.080989 2.864962 71.568695
294 0 1 -12.808888 2.247821 71.750793
295 0 1 -13.828989 2.587600 71.635681
296 0 1 -13.919990 1.964701 70.917114
297 0 1 -13.039489 1.851931 70.467010
298 0 1 -12.628690 2.722930 70.599396
299 0 1 -12.126088 3.051760 69.851807
300 0 1 -11.340390 2.491160 69.823303
301 0 1 -10.912089 1.687022 70.193604
302 0 1 -10.002090 2.082591 69.948914
303 0 1 -10.078290 2.590472 69.076996
304 0 1 -9.610490 2.571860 68.198303
305 0 1 -8.633359 2.333312 68.474487
306 0 1 -8.911960 1.366509 68.518799
307 0 1 -9.229789 0.484834 68.591614
308 0 1 -9.457789 -0.418538 68.445709
309 0 1 -9.880788 -1.254598 68.270691
310 0 1 -9.120790 -1.878169 68.024200
311 0 1 -9.230470 -2.710609 68.524994
312 0 1 -8.347449 -3.068830 68.287506
313 0 1 -7.718278 -2.449729 68.650909
314 0 1 -7.456819 -2.341279 69.532715
315 0 1 -6.938039 -3.167690 69.437683
316 0 1 -7.554521 -3.802619 69.089508
317 0 1 -6.989860 -3.567939 68.313782
318 0 1 -6.341289 -3.275319 67.691193
319 0 1 -5.481710 -3.324510 67.165588
320 0 1 -4.541759 -3.144538 66.908905
321 0 1 -4.803319 -3.357478 66.012512
322 0 1 -5.723739 -3.244209 65.636597
323 0 1 -6.354990 -2.657008 66.051208
324 0 1 -6.988370 -3.339469 65.682190
325 0 1 -6.729669 -2.590160 65.168610
326 0 1 -7.074560 -1.836519 64.699585
327 0 1 -7.848110 -1.962539 65.276611
328 0 1 -7.816810 -1.053748 65.044800
329 0 1 -8.549769 -1.213998 64.458191
330 0 1 -8.251458 -0.715539 63.578888
331 0 1 -8.861489 -1.209628 62.879089
332 0 1 -8.689139 -1.047118 61.912689
333 0 1 -8.676488 -1.909059 61.479797
334 0 1 -9.281690 -1.519569 60.841492
335 0 1 -9.923289 -1.536868 61.666290
336 0 1 -10.425389 -0.734369 61.432892
337 0 1 -10.350490 -0.927968 62.317902
338 0 1 -10.255990 -0.475579 63.131104
339 0 1 -10.014489 -0.035617 63.941498
340 0 1 -10.039689 -0.406329 64.838013
341 0 1 -10.796288 0.118825 64.743713
342 0 1 -11.401189 -0.606960 64.554901
343 0 1 -11.731290 -1.406789 64.109009
344 0 1 -12.557790 -1.615979 63.584198
345 0 1 -13.335690 -2.032739 63.961212
346 0 1 -13.961089 -1.503339 63.460388
347 0 1 -14.230189 -0.667649 63.905884
348 0 1 -13.836089 -1.273029 64.481903
349 0 1 -14.208690 -2.099239 64.686218
350 0 1 -14.399690 -3.055009 64.875793
351 0 1 -15.354190 -2.935640 65.040192
352 0 1 -15.770389 -3.659158 64.653381
353 0 1 -15.276889 -4.423598 64.964417
354 0 1 -14.605390 -5.001538 64.530396
355 0 1 -14.234189 -5.860799 64.639496
356 0 1 -15.201989 -5.904778 64.685913
357 0 1 -15.676690 -5.640840 65.474792
358 0 1 -14.959589 -6.169389 65.715088
359 0 1 -14.530990 -6.312179 66.584717
360 0 1 -14.724989 -7.102069 66.240295
361 0 1 -14.991889 -8.003770 66.208710
362 0 1 -14.999390 -8.957707 66.063690
363 0 1 -15.499089 -8.704749 65.330688
364 0 1 -16.428591 -8.997699 65.469299
365 0 1 -16.564590 -9.962369 65.504700
366 0 1 -16.807690 -10.898068 65.468597
367 0 1 -16.071791 -11.056369 64.805115
368 0 1 -15.131889 -11.328469 64.819000
369 0 1 -15.272090 -10.357568 64.856293
370 0 1 -14.665489 -9.748170 64.448181
371 0 1 -14.443689 -8.932260 64.907990
372 0 1 -13.782390 -9.534368 65.348297
373 0 1 -14.418289 -10.132768 65.715607
374 0 1 -14.032990 -10.183568 66.600586
375 0 1 -14.152889 -9.660169 67.359711
376 0 1 -14.433189 -8.853589 67.853699
377 0 1 -13.965989 -9.368268 68.498199
378 0 1 -13.585790 -10.169869 68.635681
379 0 1 -13.912689 -10.811269 69.168091
380 0 1 -14.815189 -10.826970 69.575317
381 0 1 -15.280688 -10.239469 68.961487
382 0 1 -14.910890 -9.512868 69.396790
383 0 1 -15.645690 -9.332669 70.034698
384 0 1 -16.457590 -9.402867 70.526001
385 0 1 -17.313890 -9.223969 69.987488
386 0 1 -17.305389 -8.270099 69.550690
387 0 1 -17.688490 -8.741658 68.818207
388 0 1 -16.757191 -8.918389 68.553101
389 0 1 -16.669691 -8.046279 68.220581
390 0 1 -16.952789 -7.252439 68.724091
391 0 1 -17.252590 -7.119908 69.604187
392 0 1 -17.540991 -7.161479 70.566284
393 0 1 -17.495491 -7.883718 71.156708
394 0 1 -16.780991 -7.942460 71.800781
395 0 1 -15.882989 -8.301080 71.544983
396 0 1 -16.100389 -7.373170 71.098389
397 0 1 -16.377291 -6.748488 71.846008
398 0 1 -16.627890 -6.953790 72.722504
399 0 1 -16.779591 -6.480529 73.520905
400 0 1 -16.319191 -7.181869 74.066284
401 0 1 -15.810390 -6.941789 74.873718
402 0 1 -15.157189 -7.655799 74.876495
403 0 1 -14.426390 -8.096570 74.420410
404 0 1 -13.751689 -8.029878 73.712891
405 0 1 -12.877589 -8.289458 73.557007
406 0 1 -12.133489 -7.848199 73.250000
407 0 1 -11.176990 -7.951509 73.307800
408 0 1 -10.881789 -7.288548 73.945496
409 0 1 -10.524789 -7.131608 73.046814
410 0 1 -9.981790 -7.909558 73.093597
411 0 1 -9.159629 -8.106709 73.608490
412 0 1 -9.227599 -9.061589 73.695709
413 0 1 -8.371320 -9.406270 73.840210
414 0 1 -7.907129 -9.512368 74.681885
415 0 1 -7.102720 -9.097817 74.323090
416 0 1 -6.488691 -8.285840 74.265106
417 0 1 -5.697750 -8.782720 74.278809
418 0 1 -5.757959 -9.018590 73.353394
419 0 1 -5.140319 -9.176538 72.678894
420 0 1 -4.287460 -8.913669 72.336090
421 0 1 -3.356109 -9.022899 72.153198
422 0 1 -2.957120 -9.544168 71.445709
423 0 1 -3.684119 -9.996669 70.931885
424 0 1 -2.933099 -10.516269 70.662598
425 0 1 -2.941280 -9.674470 70.248810
426 0 1 -3.112069 -9.847268 69.287201
427 0 1 -3.112029 -8.894689 69.126587
428 0 1 -3.228379 -8.393079 68.302612
429 0 1 -3.887639 -8.205060 67.544189
430 0 1 -3.926030 -7.672818 66.776093
431 0 1 -3.229980 -8.099778 66.331207
432 0 1 -2.478530 -7.598557 66.046295
433 0 1 -1.824380 -7.315438 66.610413
434 0 1 -0.870809 -7.401559 66.719208
435 0 1 -0.034294 -7.715539 66.323395
436 0 1 0.381303 -8.157800 65.575409
437 0 1 1.352107 -8.348788 65.631104
438 0 1 1.648509 -7.873488 64.857300
439 0 1 2.420230 -8.332868 64.586792
440 0 1 3.060900 -7.617839 64.376587
441 0 1 3.613120 -7.823438 63.567688
442 0 1 4.138258 -7.786819 62.765991
443 0 1 4.488680 -8.662599 62.895813
444 0 1 5.196040 -8.784829 63.538300
445 0 1 5.555621 -9.380969 62.888794
446 0 1 5.231501 -9.633969 61.966797
447 0 1 4.394610 -9.381968 61.521698
448 0 1 4.507639 -8.429839 61.287109
449 0 1 3.511542 -8.687299 61.239105
450 0 1 2.755862 -8.789899 60.590393
451 0 1 2.114621 -9.136678 59.971008
452 0 1 1.985310 -10.115270 59.967896
453 0 1 2.345191 -10.161368 60.826508
454 0 1 3.149939 -10.622668 60.404205
455 0 1 3.462500 -10.565669 59.507812
456 0 1 4.056170 -10.211869 58.810303
457 0 1 4.149432 -10.933969 58.202911
458 0 1 4.968241 -11.215070 58.594910
459 0 1 5.346922 -10.441770 58.204498
460 0 1 5.820029 -10.464368 59.083801
461 0 1 5.994139 -9.517669 59.035187
462 0 1 5.626090 -8.672839 59.280884
463 0 1 5.237849 -7.967938 58.737213
464 0 1 6.124381 -7.729558 58.651611
465 0 1 5.928050 -7.262059 57.832611
466 0 1 6.439909 -6.830728 57.202606
467 0 1 6.797850 -7.700448 57.207306
468 0 1 7.068270 -8.227038 58.016205
469 0 1 6.572012 -8.985969 57.720093
470 0 1 6.839411 -9.922269 57.762604
471 0 1 6.784159 -10.696870 57.174011
472 0 1 6.975012 -10.996770 56.271484
473 0 1 7.585619 -11.019568 55.580383
474 0 1 7.761801 -10.106168 55.377502
475 0 1 7.477149 -9.176610 55.636810
476 0 1 6.535269 -9.505969 55.570312
477 0 1 6.214819 -8.628209 55.989899
478 0 1 5.673670 -8.583940 55.162811
479 0 1 5.225699 -9.300870 55.737488
480 0 1 4.421179 -9.563069 55.247986
481 0 1 4.462622 -10.453870 55.694305
482 0 1 3.793582 -10.608668 54.929810
483 0 1 2.977870 -10.870568 55.358093
484 0 1 3.581702 -11.613069 55.509796
485 0 1 2.870589 -12.213769 55.523499
486 0 1 2.011550 -11.869470 55.833405
487 0 1 1.373299 -11.164670 55.715088
488 0 1 0.773188 -11.651368 56.441406
489 0 1 0.321648 -11.789968 57.247986
490 0 1 0.665721 -11.538270 58.085205
491 0 1 0.066392 -12.268670 58.297302
492 0 1 -0.065044 -13.154870 58.668213
493 0 1 -0.047275 -13.366467 57.716309
494 0 1 -0.663680 -14.049668 57.908112
495 0 1 -0.229207 -14.791169 57.471802
496 0 1 -0.222871 -15.654769 57.178589
497 0 1 -0.860029 -16.253969 57.506012
498 0 1 -1.581640 -15.617669 57.462189
499 0 1 -2.532399 -15.550569 57.378296
500 0 1 -3.149329 -16.256371 57.106903
501 0 1 -3.550649 -16.239370 56.226990
502 0 1 -4.244480 -15.942168 55.613190
503 0 1 -4.289709 -15.019769 55.970398
504 0 1 -4.921251 -14.544669 55.508484
505 0 1 -5.671119 -14.670568 56.031006
506 0 1 -5.888399 -14.080269 56.774200
507 0 1 -5.008510 -13.672969 56.857300
508 0 1 -4.283769 -13.912369 57.410889
509 0 1 -3.568639 -13.805968 56.823212
510 0 1 -3.458650 -13.419370 55.931793
511 0 1 -2.557029 -13.135270 55.884094
512 0 1 -2.285280 -12.290069 56.101593
513 0 1 -2.910989 -11.601068 56.461609
514 0 1 -2.281509 -11.068368 55.881592
515 0 1 -2.740989 -11.635869 55.310303
516 0 1 -2.635370 -11.544669 54.295807
517 0 1 -2.791639 -11.935269 53.417999
518 0 1 -2.752639 -12.689569 54.028290
519 0 1 -2.195699 -13.464669 54.039307
520 0 1 -1.285770 -13.351968 54.180786
521 0 1 -0.438190 -12.883668 53.826813
522 0 1 0.398846 -12.267068 53.789185
523 0 1 -0.010183 -12.164168 54.616516
524 0 1 0.813452 -12.151170 55.077789
525 0 1 1.513739 -11.762670 54.533203
526 0 1 1.124632 -11.023568 54.012909
527 0 1 1.523848 -10.147368 53.962494
528 0 1 1.228400 -9.954968 53.121796
529 0 1 1.608237 -9.129560 53.404694
530 0 1 2.067921 -9.414468 52.624817
531 0 1 2.017771 -8.668969 52.062897
532 0 1 1.157050 -8.326018 51.769501
533 0 1 0.408929 -8.739728 51.279907
534 0 1 -0.522849 -8.990039 51.245392
535 0 1 -0.794660 -8.264329 50.692596
536 0 1 -1.650350 -7.874448 51.134613
537 0 1 -1.135040 -7.074590 50.910400
538 0 1 -1.378169 -6.220750 51.342194
539 0 1 -0.504011 -5.768868 51.072296
540 0 1 0.032277 -4.994029 50.860107
541 0 1 -0.149141 -4.039189 50.686401
542 0 1 0.033423 -3.356340 50.004517
543 0 1 -0.219789 -2.461669 50.243011
544 0 1 0.407765 -2.457170 50.958710
545 0 1 0.638182 -3.393739 51.027893
546 0 1 1.574298 -3.367749 51.018188
547 0 1 1.642224 -2.590688 51.494202
548 0 1 1.747611 -1.899068 52.151611
549 0 1 2.368529 -1.498609 51.455017
550 0 1 2.376441 -0.757388 50.741608
551 0 1 3.203032 -1.275838 50.577789
552 0 1 3.747069 -1.393628 49.813904
553 0 1 3.604430 -0.482579 49.433289
554 0 1 3.572219 -1.165929 48.737396
555 0 1 3.709059 -0.679059 47.917603
556 0 1 4.301482 -0.419910 47.180908
557 0 1 4.478949 -1.050889 46.449799
558 0 1 4.251082 -1.839759 46.940704
559 0 1 3.625540 -2.124219 46.200195
560 0 1 4.057311 -2.851159 45.756897
561 0 1 3.626502 -3.609288 45.296997
562 0 1 4.223082 -3.303720 44.603210
563 0 1 4.204230 -2.333410 44.649689
564 0 1 3.728419 -1.596189 45.038605
565 0 1 2.724440 -1.477538 45.033997
566 0 1 3.237181 -0.645589 44.693695
567 0 1 4.052599 -0.375819 45.031189
568 0 1 4.013049 0.506802 44.495392
569 0 1 4.532370 1.310065 44.696991
570 0 1 5.298449 0.676703 44.606812
571 0 1 5.707961 1.523402 44.307983
572 0 1 5.961020 0.745200 43.804810
573 0 1 5.352190 0.695403 43.019806
574 0 1 5.822810 0.206256 42.315491
575 0 1 6.106379 1.173623 42.039093
576 0 1 5.212782 1.510283 41.753693
577 0 1 5.587660 1.103127 40.998291
578 0 1 5.693362 1.832381 40.346588
579 0 1 6.260161 2.650332 40.346588
580 0 1 5.534609 3.316661 40.181885
581 0 1 5.124350 4.145122 40.194489
582 0 1 4.416270 4.756289 40.212891
583 0 1 3.527491 4.482150 40.051697
584 0 1 2.761950 4.267100 39.582306
585 0 1 2.484511 5.199389 39.641113
586 0 1 2.276580 6.089190 39.336304
587 0 1 1.773011 6.396770 38.513794
588 0 1 2.002801 5.924861 37.626587
589 0 1 2.692961 6.100612 36.984497
590 0 1 3.591662 6.498591 36.899109
591 0 1 4.147711 5.717250 36.815399
592 0 1 4.282931 5.936801 35.869995
593 0 1 4.905741 6.010020 35.162903
594 0 1 4.994910 5.804240 34.184906
595 0 1 5.356291 4.928599 33.894989
596 0 1 4.422732 4.699592 33.844391
597 0 1 4.940569 4.472663 33.011597
598 0 1 4.538302 4.325381 32.173096
599 0 1 4.689700 5.264293 32.287811
600 0 1 5.604189 5.667991 32.143799
601 0 1 5.982970 4.796390 32.294495
602 0 1 6.833941 5.075843 32.686707
603 0 1 6.306151 4.674701 33.419983
604 0 1 6.620612 4.518962 34.333405
605 0 1 7.106032 4.466571 35.159698
606 0 1 7.640872 3.767432 35.546112
607 0 1 8.478290 3.949870 35.938904
608 0 1 8.712970 4.406199 35.090302
609 0 1 9.275630 4.182063 34.366699
610 0 1 9.896491 4.858680 33.929291
611 0 1 10.276610 5.734820 33.447510
612 0 1 11.032710 5.592681 33.990784
613 0 1 11.869712 5.158412 33.943604
614 0 1 12.721511 4.861121 34.266296
615 0 1 13.508109 4.421500 34.451813
616 0 1 14.257209 4.975322 34.117096
617 0 1 14.728511 4.945842 33.286713
618 0 1 15.022010 4.245952 32.707397
619 0 1 14.852611 4.984912 32.136597
620 0 1 14.293410 4.380000 31.705412
621 0 1 14.675212 3.694381 31.155699
622 0 1 14.977012 4.286120 30.406614
623 0 1 14.767211 4.545882 29.519712
624 0 1 15.243609 3.872901 29.028502
625 0 1 16.023211 4.454341 28.968199
626 0 1 16.957109 4.615710 28.775908
627 0 1 17.066008 3.665263 28.902403
628 0 1 17.165911 2.883761 29.412687
629 0 1 16.787008 3.548121 30.042387
630 0 1 17.368811 4.145423 30.524595
631 0 1 16.517611 4.621333 30.603300
632 0 1 15.913211 3.834441 31.000700
633 0 1 16.221109 4.328353 31.825102
634 0 1 16.512609 4.870471 32.559113
635 0 1 16.793013 5.463592 31.819609
636 0 1 17.453810 4.892322 31.576506
637 0 1 17.856810 4.643741 32.396790
638 0 1 18.187307 5.495982 32.670715
639 0 1 18.739809 4.817061 33.121613
640 0 1 18.875010 4.717242 32.088409
641 0 1 18.577108 3.844420 31.887602
642 0 1 18.464811 3.688590 32.832092
643 0 1 18.628210 2.743460 32.839691
644 0 1 19.090010 1.901252 32.860992
645 0 1 19.482309 1.020682 32.875610
646 0 1 20.361708 0.901381 32.536407
647 0 1 20.396410 0.907964 31.489805
648 0 1 21.020411 0.255593 31.854185
649 0 1 21.131910 -0.645660 31.616911
650 0 1 21.520811 -0.694669 30.732206
651 0 1 21.357107 -0.421169 29.852690
652 0 1 21.763910 -1.298129 29.651304
653 0 1 21.865110 -2.234100 29.373411
654 0 1 21.018610 -2.515338 28.937712
655 0 1 20.087309 -2.975648 28.873686
656 0 1 19.486410 -2.864789 28.188108
657 0 1 19.256109 -3.518029 27.592894
658 0 1 18.362009 -3.772588 27.243101
659 0 1 17.869108 -4.425378 26.727385
660 0 1 18.717310 -4.187549 26.179899
661 0 1 18.379011 -3.899719 25.371214
662 0 1 18.098810 -3.104730 25.913786
663 0 1 17.340910 -2.835689 25.504698
664 0 1 18.074408 -2.281999 25.089109
665 0 1 17.768911 -1.374849 24.836912
666 0 1 18.280607 -1.354749 25.643888
667 0 1 18.071909 -0.433669 25.895903
668 0 1 18.139212 -0.297759 26.851591
669 0 1 18.564611 0.318471 27.442411
670 0 1 19.172911 0.715621 28.085691
671 0 1 18.392309 0.822003 28.543608
672 0 1 17.579412 0.956334 28.031889
673 0 1 17.355909 1.745671 27.509092
674 0 1 17.731611 2.669242 27.511992
675 0 1 18.170408 3.324401 26.914183
676 0 1 17.503111 3.110400 26.178709
677 0 1 17.058111 3.923899 25.985289
678 0 1 16.556108 3.586779 25.202085
679 0 1 16.402510 3.954131 24.272001
680 0 1 15.496909 3.630023 24.235411
681 0 1 15.889709 3.210181 23.469206
682 0 1 15.150908 3.828940 23.328489
683 0 1 14.334010 3.322119 23.287504
684 0 1 13.418609 3.218322 23.096098
685 0 1 12.793509 2.775691 22.497190
686 0 1 12.505813 2.121861 23.110991
687 0 1 11.947509 1.356946 23.359983
688 0 1 11.202109 1.926890 23.319487
689 0 1 11.190410 1.250582 22.630308
690 0 1 10.761611 0.605283 23.167997
691 0 1 10.430129 -0.312040 23.258696
692 0 1 10.805411 -1.087228 23.761595
693 0 1 10.384372 -1.943059 23.703703
694 0 1 9.430320 -1.689220 23.588011
695 0 1 9.465201 -0.721090 23.441893
696 0 1 8.830390 -0.838378 22.711607
697 0 1 8.879951 -1.372089 21.932997
698 0 1 7.989119 -1.784818 21.846891
699 0 1 7.640540 -2.503679 22.330702
700 0 1 6.718421 -2.522760 21.897490
701 0 1 5.926531 -2.245698 21.389692
702 0 1 5.268858 -1.525499 21.335295
703 0 1 4.846270 -0.946469 20.636198
704 0 1 4.642920 -1.241470 19.776396
705 0 1 5.390509 -1.075349 19.107100
706 0 1 4.540781 -0.553889 18.940397
707 0 1 4.087092 0.257897 19.209593
708 0 1 4.786269 0.934174 19.089201
709 0 1 4.705542 1.775199 18.638395
710 0 1 3.952842 2.060212 18.096296
711 0 1 3.168879 2.526110 18.470701
712 0 1 3.267741 3.258780 19.136198
713 0 1 4.098399 3.729090 18.865492
714 0 1 4.470011 4.532130 18.485502
715 0 1 4.238329 4.052020 17.669004
716 0 1 3.882209 3.756030 16.716002
717 0 1 4.151839 2.913932 16.436094
718 0 1 3.668029 2.336360 15.801894
719 0 1 3.654650 2.803042 14.909102
720 0 1 3.403579 3.364291 15.533706
721 0 1 3.313349 4.268912 15.223800
722 0 1 3.898391 3.810542 14.652495
723 0 1 4.422869 4.128272 13.937392
724 0 1 5.187720 4.533000 13.489501
725 0 1 5.846900 4.926463 14.070800
726 0 1 5.764712 5.951411 14.296996
727 0 1 5.616171 6.198630 13.363601
728 0 1 5.149729 6.230811 12.550094
729 0 1 4.452139 5.892062 11.909102
730 0 1 3.494090 5.903903 11.791991
731 0 1 3.805270 5.970412 10.914001
732 0 1 3.223799 5.539493 10.265807
733 0 1 2.623660 6.118361 9.690734
734 0 1 1.896790 6.209823 9.098067
735 0 1 1.108399 6.745151 8.899505
736 0 1 1.072960 5.808421 8.601729
737 0 1 0.477170 5.251681 9.173263
738 0 1 1.075495 4.602431 8.857604
739 0 1 1.653596 4.967380 8.074264
740 0 1 1.726782 4.011962 7.933517
741 0 1 1.672984 3.201312 8.456420
742 0 1 1.083964 2.490309 8.692306
743 0 1 1.562987 1.721526 8.377395
744 0 1 1.642743 1.149165 7.618865
745 0 1 2.390479 1.170682 8.266845
746 0 1 2.642760 1.607480 7.477935
747 0 1 2.606250 2.500350 7.068145
748 0 1 3.580252 2.458529 6.946532
749 0 1 4.459681 2.310332 6.589828
750 0 1 4.505919 2.590281 5.683364
751 0 1 3.579600 2.551280 5.426986
752 0 1 3.053122 2.706813 4.646087
753 0 1 2.663352 1.865821 4.491118
754 0 1 2.045230 1.254567 4.067031
755 0 1 2.085131 1.271094 3.120085
756 0 1 3.041480 0.951634 2.779235
757 0 1 3.743899 0.238745 2.533721
758 0 1 2.892829 0.052129 2.034484
759 0 1 3.438231 -0.733989 1.754165
760 0 1 3.302359 -1.428169 2.415557
761 0 1 2.665011 -2.098548 2.783705
762 0 1 1.710126 -1.852140 2.888182
763 0 1 0.794800 -1.350509 2.907881
764 0 1 1.005826 -1.495429 1.914916
765 0 1 1.616349 -1.072580 1.337951
766 0 1 1.534793 -1.951259 0.922087
767 0 1 0.732426 -1.471269 0.675139
768 0 1 0.619649 -2.265069 0.070144
769 0 1 0.317385 -1.514268 -0.387330
770 0 1 0.641064 -1.788949 -1.272874
771 0 1 0.486937 -0.904668 -1.546830
772 0 1 -0.171258 -0.273608 -1.166429
773 0 1 0.180812 0.161856 -0.393724
774 0 1 0.098256 0.141902 0.572173
775 0 1 -0.899949 0.084908 0.397292
776 0 1 -1.240730 0.631373 1.049285
777 0 1 -1.609760 1.457623 1.041716
778 0 1 -2.225250 1.944960 1.510009
779 0 1 -1.691369 2.786292 1.358336
780 0 1 -2.598289 3.061732 1.229873
781 0 1 -3.238399 2.345450 1.515349
782 0 1 -3.211349 2.122832 2.476851
783 0 1 -2.611610 1.682177 3.113005
784 0 1 -2.141889 0.853064 3.424102
785 0 1 -2.858258 1.105277 3.939498
786 0 1 -2.941259 0.410559 4.622771
787 0 1 -2.755990 -0.444009 4.084441
788 0 1 -3.379760 0.134719 3.677855