LAMMPS data file via MDAnalysis

        2000  atoms
        1999  bonds
           0  angles
           0  dihedrals
           0  impropers

           1  atom types
           1  bond types
           0  angle types
           0  dihedral types
           0  improper types

-30.5 30.5 xlo xhi
-30.5 30.5 ylo yhi
-233.5 233.5 zlo zhi


Masses

1 1.000000

Atoms

1 0 1 10.496622 11.551943 60.286011
2 0 1 10.373621 12.426344 60.523407
3 0 1 10.486822 13.421244 60.866394
4 0 1 10.435621 13.438841 61.856598
5 0 1 11.421522 13.486242 61.865601
6 0 1 12.022821 14.197042 61.545715
7 0 1 12.830122 14.108644 61.042786
8 0 1 13.633722 13.804842 60.661987
9 0 1 13.732321 14.520342 60.026093
10 0 1 14.626223 14.708544 60.324310
11 0 1 15.500124 14.603342 60.022308
12 0 1 15.611422 15.406042 59.482605
13 0 1 14.729521 15.565943 59.095886
14 0 1 13.820223 15.108744 59.217407
15 0 1 12.870722 15.125944 59.196503
16 0 1 12.565523 15.707243 58.451904
17 0 1 11.918322 15.030344 58.597992
18 0 1 10.992620 15.070845 58.456299
19 0 1 10.779020 14.905043 57.547699
20 0 1 9.983320 15.484842 57.636902
21 0 1 9.062799 15.750143 57.584106
22 0 1 8.980913 16.605242 57.281799
23 0 1 8.356432 16.385443 56.549713
24 0 1 8.071360 16.149843 55.668488
25 0 1 7.387731 16.422243 55.048401
26 0 1 7.505983 15.487341 54.854004
27 0 1 7.757341 14.929243 55.592804
28 0 1 7.305730 14.131342 55.342194
29 0 1 6.571920 14.057745 54.705109
30 0 1 6.044302 13.763441 53.965790
31 0 1 5.913240 13.869345 53.036591
32 0 1 5.152750 14.198744 52.598206
33 0 1 4.323091 14.237745 53.072296
34 0 1 3.929140 13.956842 53.897888
35 0 1 3.748613 13.374743 54.574799
36 0 1 4.597589 12.900244 54.758392
37 0 1 4.677671 12.054945 54.366699
38 0 1 5.178163 11.186644 54.603088
39 0 1 5.014631 10.687445 55.354889
40 0 1 4.468370 10.171934 55.963501
41 0 1 3.908430 9.425844 55.703003
42 0 1 4.585451 8.609694 55.791992
43 0 1 4.004121 8.759665 56.548004
44 0 1 3.468782 8.548304 57.330109
45 0 1 2.894083 9.310965 57.509613
46 0 1 2.674982 9.977823 58.230011
47 0 1 2.914899 10.952333 58.152100
48 0 1 3.141431 10.597754 58.999207
49 0 1 3.889081 11.107615 58.950500
50 0 1 3.848680 11.439444 59.906311
51 0 1 4.804021 11.339743 59.899811
52 0 1 5.740560 10.993933 59.802002
53 0 1 6.144552 10.078054 59.871002
54 0 1 5.456331 9.996202 59.223999
55 0 1 5.891611 9.126184 59.356384
56 0 1 6.587801 9.106783 58.679504
57 0 1 7.446462 9.452444 58.747711
58 0 1 7.954622 8.678633 58.498199
59 0 1 8.141981 8.655882 59.431305
60 0 1 7.558492 8.528833 60.166016
61 0 1 7.091920 7.954154 60.925903
62 0 1 6.088693 8.010492 60.986511
63 0 1 6.270841 8.886484 61.471100
64 0 1 7.296251 9.009005 61.480499
65 0 1 8.051451 9.572462 61.741089
66 0 1 8.098310 10.034025 62.595612
67 0 1 7.350141 10.302404 63.124298
68 0 1 7.041070 11.212442 63.005493
69 0 1 6.603910 12.081045 63.096802
70 0 1 7.344652 12.184343 62.439301
71 0 1 7.988260 12.592741 62.959290
72 0 1 8.561441 12.113344 62.343597
73 0 1 8.738493 11.582644 61.603516
74 0 1 9.163481 12.264643 61.014893
75 0 1 9.408922 13.181341 60.969788
76 0 1 8.653811 13.664145 61.382385
77 0 1 8.137140 12.973043 61.955200
78 0 1 7.337579 13.365744 62.401794
79 0 1 6.956682 13.544542 63.328186
80 0 1 6.209692 14.154642 63.477203
81 0 1 5.719053 13.715345 62.754913
82 0 1 5.074029 13.937342 63.397888
83 0 1 4.269510 14.441042 63.032104
84 0 1 3.741891 15.274343 63.162292
85 0 1 3.805940 15.360441 62.254089
86 0 1 3.610372 15.165243 61.381592
87 0 1 2.965471 14.711744 61.851990
88 0 1 2.128522 14.921442 62.267609
89 0 1 1.855302 15.596743 62.857910
90 0 1 1.029230 15.292543 63.326111
91 0 1 1.242181 14.329641 63.207001
92 0 1 1.513921 13.692644 62.585999
93 0 1 2.334440 13.111444 62.609589
94 0 1 2.742261 12.228445 62.602203
95 0 1 3.700983 12.278444 62.576416
96 0 1 3.965742 11.943945 63.530701
97 0 1 3.045362 11.861845 63.875397
98 0 1 3.541280 12.501543 64.427399
99 0 1 3.438562 12.845144 65.429108
100 0 1 3.895483 13.730844 65.400208
101 0 1 4.021913 13.831144 66.368896
102 0 1 3.959093 13.637243 67.327209
103 0 1 4.158792 12.774443 66.841187
104 0 1 3.211523 12.933645 67.010681
105 0 1 2.283983 12.877642 67.207703
106 0 1 1.788000 12.617743 66.459412
107 0 1 1.260992 13.265543 67.002991
108 0 1 0.491031 13.815142 66.697815
109 0 1 0.193073 13.884642 67.540192
110 0 1 0.759151 14.602243 67.777893
111 0 1 0.106161 14.762342 68.403107
112 0 1 0.029396 13.841841 68.615509
113 0 1 0.607320 13.476141 69.337402
114 0 1 0.252342 13.901644 70.127594
115 0 1 -0.456973 13.499441 69.613495
116 0 1 -1.088744 13.977644 70.056000
117 0 1 -0.754391 13.956442 70.875092
118 0 1 -1.314503 14.712744 71.077393
119 0 1 -2.230219 14.516645 71.455902
120 0 1 -1.916958 14.579844 72.368805
121 0 1 -1.287053 13.968443 72.791107
122 0 1 -0.757372 13.894342 71.964111
123 0 1 -0.612767 13.091944 71.528107
124 0 1 -0.135842 13.035543 72.297791
125 0 1 -0.057293 12.147943 72.770813
126 0 1 -0.400742 11.283644 72.859497
127 0 1 -0.246117 10.676901 73.558502
128 0 1 -0.435688 10.694624 74.513306
129 0 1 -1.173468 11.104025 74.976013
130 0 1 -2.100668 11.309343 74.668518
131 0 1 -2.180279 10.344503 74.533081
132 0 1 -1.895339 10.033373 73.658508
133 0 1 -2.575049 10.545645 73.232605
134 0 1 -3.456589 10.842752 73.423706
135 0 1 -4.141379 11.402441 73.817596
136 0 1 -4.552979 11.551344 74.628113
137 0 1 -4.053519 11.931242 75.372803
138 0 1 -3.821028 11.743444 76.377014
139 0 1 -2.986479 11.359743 76.496216
140 0 1 -2.012509 11.369543 76.543213
141 0 1 -1.172238 11.342443 76.121002
142 0 1 -1.305069 10.415972 76.410706
143 0 1 -1.707209 10.100622 77.277893
144 0 1 -1.724579 9.307814 76.697083
145 0 1 -2.539979 8.862051 76.357300
146 0 1 -3.213768 8.196543 76.658691
147 0 1 -3.922490 8.048334 77.302185
148 0 1 -3.504260 7.170023 77.538696
149 0 1 -2.863499 6.747843 76.966492
150 0 1 -2.466988 5.951834 77.235809
151 0 1 -2.234189 6.586985 77.947388
152 0 1 -1.884068 6.420523 78.848694
153 0 1 -1.481627 5.840662 79.479004
154 0 1 -0.730668 6.283164 79.117615
155 0 1 -0.210329 6.411685 78.276794
156 0 1 -0.530465 5.738055 77.767700
157 0 1 -0.462790 4.771853 77.969604
158 0 1 -0.700875 4.198794 78.675995
159 0 1 -0.873404 3.809485 79.522217
160 0 1 -1.120430 2.917273 79.122009
161 0 1 -0.424260 2.357174 78.958008
162 0 1 -0.272236 1.744057 78.217102
163 0 1 0.332971 1.331572 78.907715
164 0 1 0.361492 0.524023 79.456207
165 0 1 1.061632 1.078530 79.781189
166 0 1 1.512102 0.137688 79.608398
167 0 1 2.399831 -0.074466 79.822693
168 0 1 3.061941 -0.278307 79.204010
169 0 1 4.004713 -0.470556 79.169403
170 0 1 3.893411 -0.312236 78.250305
171 0 1 4.534872 -0.237377 77.398682
172 0 1 3.682462 -0.207836 76.898499
173 0 1 3.714113 -0.657547 76.025818
174 0 1 4.111063 -1.448927 75.592102
175 0 1 4.007230 -2.376667 75.500000
176 0 1 4.231729 -2.370676 74.556000
177 0 1 3.451490 -1.826147 74.656006
178 0 1 3.020311 -1.311187 73.892212
179 0 1 3.416391 -1.402797 72.974304
180 0 1 3.906831 -1.799636 72.305908
181 0 1 4.582719 -2.394697 72.686890
182 0 1 5.311800 -2.703907 72.248505
183 0 1 5.011732 -2.387506 71.367401
184 0 1 4.797441 -2.924276 70.642517
185 0 1 5.421022 -3.505266 70.348511
186 0 1 6.340143 -3.514297 69.986298
187 0 1 6.629041 -2.708526 69.664703
188 0 1 7.105142 -2.150198 69.009308
189 0 1 6.695070 -1.282167 69.276306
190 0 1 6.762201 -1.044277 70.210510
191 0 1 7.196062 -0.366087 70.779694
192 0 1 6.988382 0.515540 70.669189
193 0 1 7.173883 1.107958 69.907806
194 0 1 8.014780 1.584038 70.068390
195 0 1 7.925813 2.141884 70.913696
196 0 1 8.713053 2.423594 71.361511
197 0 1 8.555880 3.349192 71.124390
198 0 1 7.870973 3.938452 70.708099
199 0 1 8.441092 4.660372 70.769409
200 0 1 8.325903 5.050395 71.587494
201 0 1 8.621901 5.671565 72.273682
202 0 1 8.243490 6.577284 72.124603
203 0 1 7.406190 6.888915 71.718109
204 0 1 6.841203 7.514182 71.242401
205 0 1 7.121042 7.852442 70.382111
206 0 1 7.001630 8.341944 69.587006
207 0 1 6.114580 8.137323 69.311005
208 0 1 5.907461 7.416903 69.991608
209 0 1 5.845941 7.121783 70.958191
210 0 1 5.447080 6.471293 70.361389
211 0 1 5.671602 5.524024 70.539917
212 0 1 4.933000 4.938712 70.793610
213 0 1 5.591711 4.399985 71.333008
214 0 1 4.760190 4.133765 71.789795
215 0 1 4.326372 3.257605 71.603790
216 0 1 4.172010 2.734995 70.882599
217 0 1 3.377191 3.180663 71.197906
218 0 1 3.148523 3.429644 70.285889
219 0 1 2.587041 4.090994 70.677185
220 0 1 1.913862 4.081812 69.969910
221 0 1 2.156591 4.862544 69.456909
222 0 1 2.365282 4.565482 68.592102
223 0 1 2.737680 5.230093 68.031708
224 0 1 1.801469 5.356432 67.648895
225 0 1 1.520780 4.463454 67.939697
226 0 1 1.094400 3.661692 67.634399
227 0 1 0.860273 4.017794 66.698395
228 0 1 1.839349 4.072615 66.976410
229 0 1 2.348760 3.284094 66.983887
230 0 1 2.481271 2.952902 66.108307
231 0 1 2.075231 3.477873 65.375916
232 0 1 3.040781 3.774062 65.533997
233 0 1 2.862600 3.729094 64.641510
234 0 1 2.320859 4.438952 64.219391
235 0 1 3.209470 4.651564 63.928894
236 0 1 3.061460 5.588084 64.028595
237 0 1 2.804552 5.503394 63.069611
238 0 1 2.275529 5.930785 62.356384
239 0 1 1.949430 5.139895 61.930206
240 0 1 1.222192 4.559943 61.619598
241 0 1 0.527471 5.244864 61.876007
242 0 1 -0.376055 5.447455 61.740784
243 0 1 -0.997347 6.078272 61.968384
244 0 1 -1.230902 5.526602 62.783295
245 0 1 -1.675339 4.895625 62.226807
246 0 1 -2.430970 4.682944 61.674805
247 0 1 -2.794440 3.796652 61.995392
248 0 1 -3.101769 3.581034 61.124298
249 0 1 -4.046950 3.430632 61.050598
250 0 1 -4.719309 2.839232 61.392395
251 0 1 -4.434248 1.887160 61.499695
252 0 1 -4.253439 1.496357 62.402496
253 0 1 -4.615849 1.895071 63.186005
254 0 1 -4.860468 0.912758 63.402405
255 0 1 -5.331269 0.547728 62.674316
256 0 1 -6.210158 0.253945 62.280304
257 0 1 -7.116719 -0.205726 62.200409
258 0 1 -7.450770 0.519093 62.742706
259 0 1 -8.047869 1.024208 63.231598
260 0 1 -7.534689 1.852084 63.066498
261 0 1 -8.236429 1.974539 62.384613
262 0 1 -8.437529 2.789275 62.809601
263 0 1 -8.158739 3.421664 63.474213
264 0 1 -7.601859 4.089774 63.104889
265 0 1 -8.026798 4.138064 62.221100
266 0 1 -8.197689 3.386794 61.526917
267 0 1 -8.955389 2.946093 61.083984
268 0 1 -9.178209 2.063193 60.729889
269 0 1 -10.138008 2.090292 60.831207
270 0 1 -10.334379 2.795222 60.299713
271 0 1 -11.240479 2.481883 60.142700
272 0 1 -11.999878 2.704955 59.648102
273 0 1 -12.678478 3.418692 59.430206
274 0 1 -12.473780 4.322703 59.333710
275 0 1 -11.801279 5.068682 59.540405
276 0 1 -11.670877 4.767344 58.615295
277 0 1 -10.781279 4.738913 58.242401
278 0 1 -10.024958 4.288115 57.826508
279 0 1 -9.269857 4.055392 58.400513
280 0 1 -9.361429 4.959593 58.595886
281 0 1 -8.779860 5.715895 58.436005
282 0 1 -7.945670 5.754565 58.900696
283 0 1 -8.254688 5.584063 59.827789
284 0 1 -7.306960 5.455035 59.691284
285 0 1 -6.472178 5.493834 59.190887
286 0 1 -5.571238 5.929194 59.270599
287 0 1 -6.027438 6.763495 59.618896
288 0 1 -6.832428 7.097395 59.957092
289 0 1 -6.682299 7.702845 59.208893
290 0 1 -6.250578 8.017744 58.419891
291 0 1 -6.196019 8.337633 57.522888
292 0 1 -6.671879 8.251554 56.609802
293 0 1 -6.083329 9.036345 56.690094
294 0 1 -5.400259 9.467043 57.101013
295 0 1 -4.648169 10.018114 56.834198
296 0 1 -4.004279 9.652822 56.296509
297 0 1 -3.535960 9.533072 57.094513
298 0 1 -2.982249 10.276854 57.100006
299 0 1 -2.423748 10.857924 56.414307
300 0 1 -2.176709 11.255243 55.553589
301 0 1 -2.454659 10.315573 55.421387
302 0 1 -3.319159 10.335234 55.060608
303 0 1 -3.383818 9.362684 55.042114
304 0 1 -2.980669 8.730131 54.442688
305 0 1 -2.224719 8.569323 55.001495
306 0 1 -1.957690 9.271833 54.408112
307 0 1 -1.476790 10.053465 54.119812
308 0 1 -0.791169 10.635782 53.741913
309 0 1 -1.567944 11.161245 53.855804
310 0 1 -2.169119 11.873343 53.619385
311 0 1 -2.558579 11.077562 53.068390
312 0 1 -1.899628 11.345945 52.394806
313 0 1 -1.810380 10.751661 51.610901
314 0 1 -2.558419 11.224642 51.330292
315 0 1 -3.444998 10.916773 51.542999
316 0 1 -4.052998 11.126745 50.860504
317 0 1 -3.763218 10.148684 50.669891
318 0 1 -3.292059 9.343523 50.669708
319 0 1 -3.003779 9.588491 49.836395
320 0 1 -3.381629 8.728495 49.769409
321 0 1 -2.855309 8.217375 50.388184
322 0 1 -3.195170 7.326102 50.549316
323 0 1 -3.931630 7.542723 49.869385
324 0 1 -4.533089 6.875556 49.549194
325 0 1 -4.252369 6.957255 48.681000
326 0 1 -4.347640 6.725684 47.776794
327 0 1 -5.142779 6.162234 47.895691
328 0 1 -5.508658 6.421362 47.001892
329 0 1 -5.741290 6.107024 46.098999
330 0 1 -6.734879 6.068663 46.035400
331 0 1 -7.385979 6.805304 45.906799
332 0 1 -6.627120 7.303832 45.458313
333 0 1 -6.614729 8.142523 45.944611
334 0 1 -6.868908 8.901194 45.423798
335 0 1 -6.610728 9.434065 46.193909
336 0 1 -6.996239 10.108843 45.705292
337 0 1 -6.958178 10.248423 44.693695
338 0 1 -6.946669 11.204641 44.722107
339 0 1 -7.096598 10.813894 43.892609
340 0 1 -6.198748 10.790133 43.485291
341 0 1 -5.516119 10.466642 42.867096
342 0 1 -5.760088 11.309343 42.599792
343 0 1 -5.599650 11.589941 41.683197
344 0 1 -5.426718 12.518244 41.994507
345 0 1 -4.760279 12.692644 42.799713
346 0 1 -3.984318 13.028944 42.450104
347 0 1 -4.260418 13.542944 43.193512
348 0 1 -4.971030 13.661844 43.891693
349 0 1 -5.617148 14.365442 43.651001
350 0 1 -4.634730 14.518744 43.766510
351 0 1 -4.584818 15.263044 43.185486
352 0 1 -4.421448 15.716143 42.342590
353 0 1 -4.073298 16.206945 43.134705
354 0 1 -3.827429 15.964544 44.049713
355 0 1 -4.275349 16.810244 44.333191
356 0 1 -4.701298 16.558043 45.218994
357 0 1 -5.249709 15.782244 45.016998
358 0 1 -6.089419 15.663942 44.655212
359 0 1 -7.015358 15.803743 44.220490
360 0 1 -7.431929 15.303442 43.549896
361 0 1 -7.459509 15.154943 42.552795
362 0 1 -8.147568 15.719343 42.240387
363 0 1 -8.658339 15.182844 41.628510
364 0 1 -9.442610 14.906744 41.913605
365 0 1 -10.053038 15.650442 41.753296
366 0 1 -10.714979 16.362143 41.858002
367 0 1 -11.033979 16.305143 42.783508
368 0 1 -10.903677 15.710241 43.482117
369 0 1 -10.882578 14.681242 43.386505
370 0 1 -10.487909 14.059443 44.048096
371 0 1 -9.974579 13.303442 44.347687
372 0 1 -9.975649 13.976042 45.055786
373 0 1 -10.630919 14.297041 45.726501
374 0 1 -11.333479 14.131243 45.189209
375 0 1 -12.030478 13.590944 44.864105
376 0 1 -12.524279 13.243345 45.636902
377 0 1 -13.454477 13.549044 45.873901
378 0 1 -13.767878 13.571241 44.993500
379 0 1 -14.471079 12.981943 45.201111
380 0 1 -14.602777 11.949343 45.161896
381 0 1 -15.356178 11.693243 45.687805
382 0 1 -16.304379 11.848444 45.593292
383 0 1 -17.177879 12.046644 45.478790
384 0 1 -17.476679 11.872744 44.541992
385 0 1 -18.357878 12.195543 44.724609
386 0 1 -18.245079 13.249342 44.880798
387 0 1 -18.902378 13.433744 44.177704
388 0 1 -19.316578 13.572844 43.264893
389 0 1 -19.686678 12.835344 42.835693
390 0 1 -19.844578 12.156542 42.224792
391 0 1 -20.826979 11.932241 42.249390
392 0 1 -20.970778 11.266142 41.565704
393 0 1 -21.663778 10.624582 41.752411
394 0 1 -22.438179 10.055555 41.587494
395 0 1 -23.006678 9.312853 41.867706
396 0 1 -23.745079 9.732512 42.211395
397 0 1 -23.871878 10.370161 42.867889
398 0 1 -24.156578 10.808203 43.666595
399 0 1 -25.133778 10.901644 43.716187
400 0 1 -24.785479 10.172422 44.204590
401 0 1 -25.136978 9.578955 44.932098
402 0 1 -24.475578 9.678862 45.587494
403 0 1 -24.326178 8.784643 45.916199
404 0 1 -23.565079 9.091555 46.326111
405 0 1 -24.095179 8.348764 46.753510
406 0 1 -23.607079 7.669642 47.250000
407 0 1 -23.096878 6.927752 47.592590
408 0 1 -23.619278 7.223654 48.315613
409 0 1 -23.051979 6.974494 49.129791
410 0 1 -22.132978 6.866023 49.360413
411 0 1 -21.406378 6.963645 50.005798
412 0 1 -20.503378 6.828333 49.936005
413 0 1 -20.234678 7.290305 50.757812
414 0 1 -19.608978 8.043772 50.954803
415 0 1 -19.013279 7.600955 51.541595
416 0 1 -18.547277 7.983134 52.354492
417 0 1 -18.193378 8.944983 52.296814
418 0 1 -17.286278 8.713732 52.755005
419 0 1 -16.587978 9.285753 52.519989
420 0 1 -16.344679 8.379393 52.638397
421 0 1 -15.455878 8.198652 53.054901
422 0 1 -14.581579 8.621801 53.317413
423 0 1 -13.630878 8.589853 53.098297
424 0 1 -13.725878 7.681124 52.772888
425 0 1 -13.343079 6.935114 53.245300
426 0 1 -13.526178 6.672823 52.303711
427 0 1 -12.643877 6.961646 52.098602
428 0 1 -12.568277 6.530093 51.213684
429 0 1 -12.756479 5.943823 50.433197
430 0 1 -12.645779 6.708483 49.884796
431 0 1 -13.005980 6.004023 49.304993
432 0 1 -12.121979 6.221243 48.820007
433 0 1 -11.358978 5.690695 49.039703
434 0 1 -11.036077 6.301093 48.392517
435 0 1 -10.578419 6.161162 47.610199
436 0 1 -10.026829 5.959013 46.843689
437 0 1 -9.599989 5.392943 47.510498
438 0 1 -9.256258 4.519354 47.621490
439 0 1 -8.951359 5.084765 46.898987
440 0 1 -8.455208 4.642535 46.203796
441 0 1 -8.004747 4.535895 45.398712
442 0 1 -8.446329 3.780764 45.020996
443 0 1 -8.150549 3.411253 44.179596
444 0 1 -8.105288 3.685973 43.231598
445 0 1 -8.358269 3.845965 42.278900
446 0 1 -8.794878 2.996874 42.164093
447 0 1 -8.225298 2.518374 41.530090
448 0 1 -7.884959 1.902993 42.247589
449 0 1 -7.306899 2.094100 41.416595
450 0 1 -7.391919 1.372458 40.782715
451 0 1 -8.331118 1.297732 41.095795
452 0 1 -8.853968 0.514386 41.130402
453 0 1 -8.213869 -0.161136 41.009399
454 0 1 -8.261219 -1.033817 40.624512
455 0 1 -8.217678 -1.991506 40.211700
456 0 1 -9.112570 -1.677446 40.104401
457 0 1 -9.855497 -1.757566 40.679810
458 0 1 -10.481989 -2.529476 40.800598
459 0 1 -11.153379 -3.236507 40.869385
460 0 1 -11.610178 -3.718137 41.564911
461 0 1 -12.398680 -3.705476 42.259613
462 0 1 -12.013578 -4.539487 42.554504
463 0 1 -11.154379 -4.488096 43.107910
464 0 1 -11.094179 -3.511037 42.945190
465 0 1 -10.922379 -2.745426 42.363495
466 0 1 -10.531710 -2.104616 43.014099
467 0 1 -10.859980 -1.227827 43.023804
468 0 1 -10.301418 -0.688287 43.535095
469 0 1 -9.451118 -1.109367 43.318604
470 0 1 -9.836859 -1.849086 43.712494
471 0 1 -9.462488 -2.785196 43.783112
472 0 1 -9.629889 -3.679046 43.994293
473 0 1 -10.108189 -4.186136 44.600800
474 0 1 -10.579699 -5.030637 44.518097
475 0 1 -10.249088 -5.877876 45.011292
476 0 1 -9.435579 -5.397756 45.261810
477 0 1 -9.081377 -4.919696 44.544098
478 0 1 -8.224688 -5.461637 44.487793
479 0 1 -8.076899 -5.303316 45.494995
480 0 1 -7.330668 -4.695087 45.585602
481 0 1 -7.827179 -3.956247 45.985504
482 0 1 -7.077359 -3.433507 45.706207
483 0 1 -7.864680 -3.359527 45.096405
484 0 1 -8.694288 -3.862466 45.032196
485 0 1 -8.309057 -4.102647 44.115601
486 0 1 -8.311699 -3.781557 43.214508
487 0 1 -7.598059 -3.197835 43.618408
488 0 1 -6.889868 -3.721147 44.082794
489 0 1 -5.987978 -3.753545 44.471100
490 0 1 -5.768029 -3.928207 45.384399
491 0 1 -4.993889 -3.735147 44.873413
492 0 1 -4.051629 -3.594606 45.060699
493 0 1 -3.776289 -4.134626 45.773590
494 0 1 -3.399849 -4.979507 46.191193
495 0 1 -2.617699 -4.485977 46.390991
496 0 1 -1.820658 -4.230066 45.923309
497 0 1 -1.982600 -4.229517 44.977295
498 0 1 -2.845149 -4.631696 45.229187
499 0 1 -2.236168 -5.146377 44.686890
500 0 1 -2.511359 -5.310627 43.757507
501 0 1 -3.157269 -5.521846 43.023010
502 0 1 -2.473288 -6.240575 43.329498
503 0 1 -2.957320 -7.093946 43.384888
504 0 1 -3.532828 -7.050037 42.562012
505 0 1 -4.343058 -7.583156 42.439301
506 0 1 -3.594409 -8.135546 42.265686
507 0 1 -4.381659 -8.659388 41.949585
508 0 1 -4.030730 -8.555788 41.042999
509 0 1 -3.793330 -8.324228 40.088104
510 0 1 -3.098420 -8.849176 40.618286
511 0 1 -2.123549 -8.789427 40.688110
512 0 1 -2.261288 -9.718058 40.613586
513 0 1 -2.942830 -10.285856 41.147003
514 0 1 -3.485829 -10.946257 40.765106
515 0 1 -3.433798 -11.276457 39.899506
516 0 1 -2.999968 -11.561556 39.098083
517 0 1 -3.324509 -12.499258 38.993195
518 0 1 -2.618258 -12.940657 38.326996
519 0 1 -2.991290 -13.677156 37.862701
520 0 1 -2.581250 -14.338757 38.438690
521 0 1 -2.309390 -14.394557 39.357391
522 0 1 -2.888709 -14.869657 39.901001
523 0 1 -3.469559 -15.267258 39.212708
524 0 1 -3.719698 -14.400257 38.963287
525 0 1 -4.552868 -14.990957 38.944794
526 0 1 -5.007119 -14.563457 38.234802
527 0 1 -5.054949 -14.305757 37.342987
528 0 1 -4.468689 -14.680657 36.593597
529 0 1 -3.589228 -15.053257 36.597595
530 0 1 -3.721299 -15.472357 35.752502
531 0 1 -4.119778 -16.056057 36.426697
532 0 1 -4.975079 -15.679558 36.556396
533 0 1 -5.876709 -15.772457 37.006287
534 0 1 -6.457879 -15.427856 37.648804
535 0 1 -7.043169 -14.556057 37.703308
536 0 1 -6.637530 -13.989357 37.041199
537 0 1 -6.677889 -13.139956 37.426697
538 0 1 -7.606888 -12.996958 37.184692
539 0 1 -8.505688 -13.414857 37.289703
540 0 1 -8.574718 -14.129357 37.924591
541 0 1 -8.741798 -14.418957 37.064606
542 0 1 -9.510958 -13.869957 37.068787
543 0 1 -9.491648 -12.946558 36.820496
544 0 1 -10.108988 -12.282957 37.169098
545 0 1 -10.524927 -13.098257 37.467804
546 0 1 -11.189379 -13.467557 36.924103
547 0 1 -10.773478 -14.250057 36.607300
548 0 1 -10.574080 -14.674257 37.393311
549 0 1 -10.275698 -14.642257 38.315186
550 0 1 -10.008009 -14.184657 39.094788
551 0 1 -9.952547 -15.142258 39.180115
552 0 1 -10.947977 -15.205257 39.121307
553 0 1 -11.330877 -14.355257 39.365509
554 0 1 -12.163979 -14.598557 38.989899
555 0 1 -12.883879 -14.022157 38.816193
556 0 1 -12.433977 -13.172157 38.449799
557 0 1 -12.011278 -13.325758 37.567413
558 0 1 -11.442179 -12.578058 37.395691
559 0 1 -11.059877 -11.993956 38.063416
560 0 1 -11.869879 -11.508356 37.998993
561 0 1 -11.169079 -10.774857 38.048096
562 0 1 -11.698978 -10.479456 37.254913
563 0 1 -11.281979 -10.033857 36.521698
564 0 1 -11.535479 -9.292356 35.947205
565 0 1 -11.853779 -9.657057 35.106201
566 0 1 -12.600378 -9.919058 35.582001
567 0 1 -12.911077 -9.992556 34.740906
568 0 1 -13.038378 -10.096857 33.826111
569 0 1 -13.014078 -10.001757 32.832611
570 0 1 -13.104279 -9.065157 32.914307
571 0 1 -12.246878 -8.818047 33.149689
572 0 1 -11.955679 -7.988435 33.506500
573 0 1 -11.686979 -8.163517 32.525085
574 0 1 -12.146578 -8.533266 31.742493
575 0 1 -11.261877 -8.570747 31.492188
576 0 1 -11.475477 -8.029066 30.749390
577 0 1 -11.464277 -7.048816 30.349396
578 0 1 -11.105577 -6.951307 31.267487
579 0 1 -10.322149 -6.634807 30.687286
580 0 1 -9.594458 -7.285556 30.439789
581 0 1 -8.682348 -7.308836 30.347107
582 0 1 -8.420559 -7.200136 31.310486
583 0 1 -7.558619 -7.295827 31.720795
584 0 1 -7.308398 -7.894926 31.037201
585 0 1 -6.895369 -7.022016 30.913391
586 0 1 -6.210148 -6.372806 31.118988
587 0 1 -5.837748 -7.166036 31.419098
588 0 1 -4.961909 -7.507905 31.305115
589 0 1 -5.454108 -8.341467 31.411102
590 0 1 -5.240008 -8.498476 32.314209
591 0 1 -5.643889 -7.774038 32.940613
592 0 1 -6.418528 -7.931566 32.441895
593 0 1 -6.438859 -7.034997 32.888184
594 0 1 -6.916329 -6.411466 32.341797
595 0 1 -7.529799 -5.669385 32.516693
596 0 1 -8.407007 -5.749736 33.133606
597 0 1 -8.170658 -6.708177 33.423187
598 0 1 -9.004179 -7.094087 33.290405
599 0 1 -9.557699 -7.147176 32.562683
600 0 1 -10.578838 -7.147596 32.509705
601 0 1 -10.160368 -7.609647 31.717102
602 0 1 -9.912607 -8.490726 31.328400
603 0 1 -9.091198 -8.108667 30.978699
604 0 1 -8.598207 -8.876717 30.524414
605 0 1 -8.825758 -9.698757 30.908905
606 0 1 -9.282499 -10.575258 31.073914
607 0 1 -9.087667 -10.954857 30.214600
608 0 1 -8.889399 -11.320257 29.360596
609 0 1 -9.208017 -12.011156 28.880798
610 0 1 -8.785177 -11.966356 27.976501
611 0 1 -9.440928 -12.671858 27.964386
612 0 1 -9.880428 -13.439557 27.562500
613 0 1 -10.820578 -13.309858 27.267609
614 0 1 -10.656279 -14.236156 27.244507
615 0 1 -10.356869 -14.080157 28.142487
616 0 1 -9.511408 -14.427357 27.787109
617 0 1 -8.756048 -13.862457 27.818695
618 0 1 -8.134869 -13.287857 27.394501
619 0 1 -7.203579 -13.247057 27.583588
620 0 1 -6.983559 -13.240156 28.507202
621 0 1 -6.164908 -12.986057 28.947510
622 0 1 -5.680510 -12.752256 28.213898
623 0 1 -5.099839 -12.111156 27.723694
624 0 1 -4.405280 -11.757158 28.243195
625 0 1 -3.790959 -11.909857 28.975586
626 0 1 -3.014288 -12.186758 28.389008
627 0 1 -2.238989 -11.887257 27.847992
628 0 1 -2.675848 -11.185656 27.365509
629 0 1 -2.584960 -11.675257 26.438416
630 0 1 -2.535019 -12.583956 26.663910
631 0 1 -2.728009 -12.515057 25.765808
632 0 1 -3.268759 -12.385057 24.936584
633 0 1 -3.721749 -13.062956 24.515991
634 0 1 -3.655629 -14.009157 24.663910
635 0 1 -3.421168 -13.539657 25.460205
636 0 1 -3.993668 -13.190756 26.184509
637 0 1 -3.311739 -13.525657 26.781189
638 0 1 -3.418078 -14.376457 26.293793
639 0 1 -2.517640 -14.364157 25.949188
640 0 1 -1.836258 -14.787757 25.456787
641 0 1 -2.553669 -14.907156 24.801300
642 0 1 -3.037049 -15.715258 25.010895
643 0 1 -3.292639 -16.362257 24.380402
644 0 1 -3.212899 -17.074858 23.792389
645 0 1 -2.972819 -17.999456 23.684509
646 0 1 -3.075589 -18.887457 24.011200
647 0 1 -2.507639 -18.944157 24.717102
648 0 1 -1.688109 -19.515957 24.810608
649 0 1 -1.062619 -18.870157 25.209503
650 0 1 -0.249976 -18.967556 25.704407
651 0 1 -0.156559 -19.916058 25.557800
652 0 1 -0.606411 -19.826057 24.622894
653 0 1 -0.314640 -20.328657 23.932312
654 0 1 -0.138104 -20.714357 23.005005
655 0 1 -0.237471 -21.661057 22.941986
656 0 1 -0.749430 -22.144957 22.316696
657 0 1 -1.412333 -21.396156 22.123199
658 0 1 -1.711218 -20.855356 22.813507
659 0 1 -1.679329 -21.392757 23.619904
660 0 1 -2.504590 -21.412256 24.102509
661 0 1 -2.846650 -22.076057 24.773590
662 0 1 -3.574519 -21.499758 24.535187
663 0 1 -3.693120 -22.185556 23.966797
664 0 1 -3.500309 -22.305557 23.049408
665 0 1 -2.626778 -22.537756 22.627991
666 0 1 -2.934309 -22.176857 21.744003
667 0 1 -3.335429 -21.425556 22.319794
668 0 1 -4.114348 -21.386757 22.842896
669 0 1 -4.751700 -21.165756 23.500214
670 0 1 -5.469908 -21.175858 22.883087
671 0 1 -6.073739 -20.717056 22.270203
672 0 1 -5.589468 -21.173758 21.466293
673 0 1 -5.057539 -21.126757 20.709000
674 0 1 -5.396779 -20.679857 19.921906
675 0 1 -6.228899 -20.921457 19.390900
676 0 1 -5.951209 -21.363256 18.591995
677 0 1 -5.821219 -21.904657 17.805206
678 0 1 -5.101248 -21.689358 17.279099
679 0 1 -4.465289 -21.798958 16.542999
680 0 1 -5.363749 -21.789356 16.218002
681 0 1 -5.576958 -20.853657 16.354797
682 0 1 -6.538708 -20.662657 16.559204
683 0 1 -7.374388 -20.889156 16.193497
684 0 1 -6.893340 -20.575457 15.439697
685 0 1 -6.109108 -19.996357 15.162598
686 0 1 -6.149539 -19.643757 14.285294
687 0 1 -5.500880 -19.183256 13.839600
688 0 1 -5.088938 -19.312857 12.995895
689 0 1 -5.599308 -18.610256 12.610703
690 0 1 -5.130858 -17.792856 12.858200
691 0 1 -5.547438 -17.802156 13.689804
692 0 1 -5.431498 -17.026056 14.342697
693 0 1 -5.169730 -16.285957 13.771194
694 0 1 -6.014670 -16.192957 14.384201
695 0 1 -6.787699 -15.825857 14.781097
696 0 1 -7.777709 -15.879957 14.806900
697 0 1 -8.333509 -15.298456 15.424408
698 0 1 -7.779339 -14.599857 15.946106
699 0 1 -6.843159 -14.614757 15.650604
700 0 1 -7.205389 -14.214457 14.766602
701 0 1 -7.633429 -13.679857 14.117706
702 0 1 -6.858199 -13.370256 13.721893
703 0 1 -7.134299 -12.594257 13.300293
704 0 1 -7.484629 -12.400757 12.416504
705 0 1 -6.520979 -12.342857 12.335693
706 0 1 -6.285689 -13.242556 12.672394
707 0 1 -5.311669 -12.976458 12.617996
708 0 1 -5.287240 -12.127356 13.108200
709 0 1 -5.852599 -11.518656 12.679703
710 0 1 -5.648669 -11.446257 11.764999
711 0 1 -6.407189 -11.536856 11.242599
712 0 1 -6.736758 -10.650156 10.995895
713 0 1 -6.701399 -9.745356 10.630005
714 0 1 -7.647738 -9.592756 10.701996
715 0 1 -8.112778 -9.502256 9.915054
716 0 1 -7.282408 -9.816757 9.633896
717 0 1 -7.103930 -10.677458 9.292053
718 0 1 -7.876410 -10.364458 8.923431
719 0 1 -7.970028 -11.263357 9.334625
720 0 1 -8.124269 -11.552156 10.226303
721 0 1 -8.259317 -12.240458 9.608505
722 0 1 -7.543938 -12.950357 9.676285
723 0 1 -7.565468 -13.762657 10.189896
724 0 1 -7.023119 -13.339556 10.801300
725 0 1 -8.013338 -13.061258 10.941895
726 0 1 -8.507648 -12.566458 11.610596
727 0 1 -9.046167 -12.068857 11.005493
728 0 1 -9.065390 -11.132257 11.013199
729 0 1 -9.788649 -10.939756 10.346802
730 0 1 -10.332499 -11.167658 9.592133
731 0 1 -9.545549 -11.465157 9.111252
732 0 1 -10.040030 -11.244658 8.324097
733 0 1 -9.514528 -11.600458 7.616745
734 0 1 -9.112787 -11.437157 6.713684
735 0 1 -8.205799 -11.445957 7.019882
736 0 1 -8.069719 -11.174957 7.951156
737 0 1 -7.577519 -10.484457 7.478775
738 0 1 -6.989218 -11.309458 7.280944
739 0 1 -6.238379 -11.736156 6.859771
740 0 1 -5.550839 -12.451056 6.912460
741 0 1 -4.666779 -12.132856 7.296493
742 0 1 -4.130879 -11.778957 7.980453
743 0 1 -3.365050 -12.163357 7.565521
744 0 1 -2.691739 -12.785658 7.538833
745 0 1 -2.012049 -12.685957 6.841461
746 0 1 -1.533600 -13.382057 7.343704
747 0 1 -1.138306 -13.006357 8.160553
748 0 1 -0.978436 -13.136557 9.124603
749 0 1 -0.422720 -12.465456 9.477966
750 0 1 -0.293818 -11.515957 9.393265
751 0 1 -0.588427 -10.638157 9.527924
752 0 1 -0.702584 -10.661158 8.619095
753 0 1 -0.417168 -10.909056 7.725509
754 0 1 0.096735 -10.217058 7.310546
755 0 1 0.899850 -9.995657 7.783279
756 0 1 1.428842 -9.430658 8.408936
757 0 1 1.523839 -8.486027 8.375717
758 0 1 0.987802 -8.274286 9.148575
759 0 1 1.913702 -8.323118 9.499619
760 0 1 1.970170 -7.565298 9.985565
761 0 1 1.859312 -7.211225 10.828308
762 0 1 1.330431 -7.287805 11.627701
763 0 1 1.324510 -6.837917 12.485397
764 0 1 0.376421 -6.563116 12.615402
765 0 1 0.545612 -7.063476 13.426300
766 0 1 0.578281 -7.896146 13.900406
767 0 1 1.165052 -8.668047 14.053894
768 0 1 1.222723 -8.980158 14.988205
769 0 1 1.452032 -8.984657 15.949600
770 0 1 1.088850 -8.490517 16.671402
771 0 1 0.993871 -9.181658 17.324005
772 0 1 0.111543 -9.348557 17.580795
773 0 1 0.236288 -8.623075 18.045593
774 0 1 0.063335 -8.853636 18.895706
775 0 1 0.296459 -9.775257 18.678696
776 0 1 0.858461 -9.957857 19.544098
777 0 1 1.157770 -10.617657 18.895401
778 0 1 1.106531 -11.003357 17.996796
779 0 1 0.864191 -11.866457 17.669205
780 0 1 1.695913 -11.857958 18.112595
781 0 1 1.378183 -12.059156 19.085602
782 0 1 1.180631 -12.400858 19.949799
783 0 1 0.581300 -13.100756 20.259308
784 0 1 0.381311 -13.587557 19.472305
785 0 1 0.989183 -13.173656 18.861801