LAMMPS data file via MDAnalysis

        2000  atoms
        1999  bonds
           0  angles
           0  dihedrals
           0  impropers

           1  atom types
           1  bond types
           0  angle types
           0  dihedral types
           0  improper types

-30.5 30.5 xlo xhi
-30.5 30.5 ylo yhi
-233.5 233.5 zlo zhi


Masses

1 1.000000

Atoms

1 0 1 -10.428723 -20.804352 72.225311
2 0 1 -9.880204 -20.046553 71.906494
3 0 1 -10.035254 -19.331953 72.583405
4 0 1 -9.918704 -18.426352 73.063507
5 0 1 -10.578244 -18.281553 73.740784
6 0 1 -10.490884 -17.482153 74.174103
7 0 1 -11.375524 -17.207153 74.369293
8 0 1 -11.575324 -16.254251 74.497101
9 0 1 -10.607062 -16.284552 74.690491
10 0 1 -9.914603 -15.990852 75.424988
11 0 1 -10.475074 -15.609253 76.087311
12 0 1 -10.886794 -16.404953 76.409607
13 0 1 -11.795543 -16.386553 76.328705
14 0 1 -12.187573 -15.485752 76.474792
15 0 1 -11.895503 -14.649752 76.910706
16 0 1 -11.861524 -14.152752 77.725891
17 0 1 -11.198413 -13.504852 77.835602
18 0 1 -10.499454 -12.860552 78.114685
19 0 1 -10.123054 -12.078853 78.484100
20 0 1 -9.562053 -11.475252 77.970581
21 0 1 -9.111423 -12.309652 77.611694
22 0 1 -8.440753 -11.632353 77.783295
23 0 1 -8.360923 -11.301752 78.794495
24 0 1 -7.418424 -11.389853 78.359009
25 0 1 -7.061683 -11.151154 79.152588
26 0 1 -6.236724 -11.415652 78.781708
27 0 1 -5.399554 -11.877152 78.695190
28 0 1 -4.667974 -11.550952 79.167297
29 0 1 -5.296603 -11.699753 79.931885
30 0 1 -5.457183 -10.964352 80.499084
31 0 1 -5.618693 -10.052652 80.428192
32 0 1 -5.258504 -9.221653 80.653290
33 0 1 -4.933944 -8.800652 81.487396
34 0 1 -5.174943 -8.843353 82.442505
35 0 1 -5.898814 -8.227951 82.511292
36 0 1 -6.262694 -8.824253 81.890686
37 0 1 -6.521134 -9.134453 82.734406
38 0 1 -6.771243 -10.006554 83.155304
39 0 1 -7.165633 -9.678051 84.002808
40 0 1 -8.066573 -9.914654 83.844391
41 0 1 -8.027204 -9.196854 84.532501
42 0 1 -8.943053 -9.370552 84.873108
43 0 1 -9.826364 -9.613354 84.598907
44 0 1 -9.535144 -10.245552 83.933594
45 0 1 -9.837123 -9.650253 83.286682
46 0 1 -10.201024 -8.799353 83.617310
47 0 1 -9.938544 -7.905853 83.592896
48 0 1 -10.162963 -7.518152 84.439514
49 0 1 -10.883124 -7.697653 85.111084
50 0 1 -11.307323 -7.218552 85.777100
51 0 1 -11.071744 -7.207153 86.720795
52 0 1 -11.507564 -6.408752 87.099396
53 0 1 -10.819633 -5.780003 87.103088
54 0 1 -10.529603 -6.446392 87.769409
55 0 1 -11.227733 -6.616333 88.440094
56 0 1 -10.413444 -6.175552 88.778290
57 0 1 -10.049254 -5.511232 89.331696
58 0 1 -9.461354 -4.794903 89.200195
59 0 1 -10.214103 -4.488003 88.607605
60 0 1 -11.079453 -4.748703 89.100006
61 0 1 -11.366883 -4.067902 88.432007
62 0 1 -10.777324 -3.644432 87.776489
63 0 1 -9.861213 -3.302892 87.524414
64 0 1 -9.836423 -2.371212 87.817383
65 0 1 -8.914063 -2.266021 87.779785
66 0 1 -8.938684 -1.299942 87.598999
67 0 1 -8.476874 -1.052852 88.391510
68 0 1 -9.046624 -1.070133 89.232910
69 0 1 -8.384734 -0.400741 89.392700
70 0 1 -9.360793 -0.152973 89.664307
71 0 1 -9.416854 -0.399853 90.566101
72 0 1 -10.162444 -0.764852 91.152496
73 0 1 -10.179334 -1.693123 91.342102
74 0 1 -9.284354 -1.756313 91.602295
75 0 1 -9.731954 -2.344633 92.306885
76 0 1 -8.989024 -2.649542 92.786804
77 0 1 -8.306304 -3.278002 93.023987
78 0 1 -7.741195 -2.880123 92.285095
79 0 1 -6.751374 -3.035492 92.324097
80 0 1 -6.081254 -2.967083 93.091003
81 0 1 -5.964664 -2.481712 93.878693
82 0 1 -5.733253 -3.110523 94.538391
83 0 1 -4.918223 -3.596632 94.689301
84 0 1 -4.096473 -3.737112 95.128693
85 0 1 -3.376746 -3.126682 95.132202
86 0 1 -2.585315 -2.606312 95.485107
87 0 1 -3.018451 -2.739942 96.307404
88 0 1 -2.742421 -3.425482 96.906616
89 0 1 -2.336173 -3.701263 97.782715
90 0 1 -1.727658 -4.471792 98.034790
91 0 1 -1.226184 -4.423233 98.845306
92 0 1 -0.507285 -4.597683 98.257294
93 0 1 -0.099715 -4.214703 98.993805
94 0 1 -0.365374 -4.778343 99.851807
95 0 1 -0.026694 -5.126963 100.694000
96 0 1 0.577317 -4.614052 101.266998
97 0 1 0.132615 -3.957222 100.656982
98 0 1 0.473535 -3.036833 100.434998
99 0 1 0.450826 -2.047283 100.397003
100 0 1 0.020158 -1.549911 101.115997
101 0 1 0.861837 -1.207502 101.355011
102 0 1 1.618337 -0.573322 101.007996
103 0 1 1.046266 -0.229582 101.790009
104 0 1 0.932817 0.051338 102.688995
105 0 1 0.401998 0.820088 102.691010
106 0 1 0.989518 0.763937 101.945984
107 0 1 0.825746 1.553688 101.570984
108 0 1 1.444097 2.004109 101.014008
109 0 1 2.395738 1.751168 101.147003
110 0 1 3.298696 1.416128 101.114990
111 0 1 3.978406 1.681519 100.488007
112 0 1 4.847306 1.167477 100.445007
113 0 1 5.658788 0.577137 100.588989
114 0 1 6.303906 0.597998 99.836304
115 0 1 6.764287 -0.259792 99.986694
116 0 1 7.166036 -1.124542 100.221008
117 0 1 8.042386 -1.491012 100.122009
118 0 1 8.033586 -0.787943 99.436096
119 0 1 7.974385 -0.510582 98.546509
120 0 1 7.308366 -1.162412 98.339783
121 0 1 7.220025 -0.701763 97.484100
122 0 1 6.912618 -0.705553 96.608002
123 0 1 5.988938 -0.476753 96.390198
124 0 1 5.781636 0.335247 95.977112
125 0 1 5.274716 0.964148 95.435211
126 0 1 5.515756 1.888937 95.282196
127 0 1 5.581124 2.812615 95.422791
128 0 1 6.517426 2.610422 95.422791
129 0 1 7.259866 3.201538 95.575592
130 0 1 7.389356 3.549542 94.654205
131 0 1 7.799787 4.002632 93.896301
132 0 1 7.719186 4.876659 93.435303
133 0 1 7.580285 5.841797 93.422302
134 0 1 7.036946 6.594307 93.810913
135 0 1 7.407388 7.562809 93.536011
136 0 1 8.225286 7.845497 92.987305
137 0 1 7.798085 8.569038 92.539398
138 0 1 7.849786 9.186638 91.786316
139 0 1 7.061387 9.359047 92.240295
140 0 1 6.154328 9.161938 91.973206
141 0 1 5.462976 9.072979 92.681305
142 0 1 5.180596 8.172028 92.775818
143 0 1 4.265965 8.270058 92.558411
144 0 1 3.757936 7.808758 91.801819
145 0 1 3.376657 8.671196 92.028900
146 0 1 2.729287 9.432556 92.123199
147 0 1 3.324037 9.664379 91.357788
148 0 1 2.882127 10.285767 90.699402
149 0 1 3.308705 11.109669 90.568481
150 0 1 4.326657 11.262028 90.283386
151 0 1 4.779298 12.106949 90.569305
152 0 1 5.192468 12.480740 91.368195
153 0 1 5.308846 11.550747 91.380005
154 0 1 5.120057 11.463737 92.348083
155 0 1 5.157346 12.095165 93.094391
156 0 1 4.307176 12.232197 93.332794
157 0 1 4.058007 12.810879 92.598694
158 0 1 3.142945 12.897205 92.825806
159 0 1 2.295636 12.501308 93.102295
160 0 1 1.588288 12.493519 93.793610
161 0 1 1.093618 12.813206 94.520905
162 0 1 0.891057 13.656548 94.978394
163 0 1 1.851655 13.878647 94.687988
164 0 1 1.891687 14.447247 95.433716
165 0 1 1.790868 14.719646 96.342590
166 0 1 2.307797 14.743649 97.176697
167 0 1 1.750116 14.541546 98.026794
168 0 1 1.042348 15.071148 98.076111
169 0 1 0.074895 15.069347 97.799683
170 0 1 -0.733745 15.524548 97.643616
171 0 1 -1.682505 15.673649 97.804993
172 0 1 -1.977731 15.346947 98.740204
173 0 1 -1.835305 16.196346 99.183289
174 0 1 -2.593652 16.668148 99.603088
175 0 1 -3.138156 16.332249 98.816895
176 0 1 -3.721065 16.809647 98.221313
177 0 1 -4.438594 16.865246 97.629303
178 0 1 -5.222863 16.672047 97.065918
179 0 1 -4.656344 15.919849 97.070801
180 0 1 -4.278573 15.004147 96.889587
181 0 1 -3.461522 15.154949 96.454895
182 0 1 -3.014655 14.791649 95.714508
183 0 1 -2.711913 15.015846 94.863190
184 0 1 -1.864985 15.167248 94.559509
185 0 1 -1.263804 14.469746 94.327393
186 0 1 -1.866849 13.923248 93.919189
187 0 1 -2.383313 14.185547 93.086792
188 0 1 -2.178601 13.283047 92.726807
189 0 1 -3.015151 12.916786 92.352112
190 0 1 -3.179292 13.164959 91.421997
191 0 1 -3.104325 14.021347 90.938202
192 0 1 -2.377427 14.441448 90.420593
193 0 1 -2.639842 13.802746 89.731689
194 0 1 -3.274976 13.889648 89.000702
195 0 1 -2.857247 14.319649 88.206604
196 0 1 -3.649644 14.072647 87.736298
197 0 1 -3.682603 13.204716 87.299316
198 0 1 -4.365283 12.721806 86.806519
199 0 1 -4.637544 11.944378 87.394196
200 0 1 -5.173184 11.348297 87.942108
201 0 1 -5.951924 11.200916 87.485504
202 0 1 -5.684224 10.476398 86.912415
203 0 1 -5.561324 9.634197 86.541992
204 0 1 -5.635644 8.689568 86.280304
205 0 1 -4.657403 8.722557 86.177917
206 0 1 -3.765744 8.616718 85.794708
207 0 1 -3.332765 9.185688 85.160706
208 0 1 -3.837163 9.790798 85.750000
209 0 1 -4.227384 9.999287 84.908997
210 0 1 -4.791484 9.682789 84.233795
211 0 1 -5.599313 9.252949 83.919098
212 0 1 -5.094514 8.633667 84.397491
213 0 1 -4.645913 7.814167 84.384888
214 0 1 -4.609563 6.920589 84.802094
215 0 1 -4.569123 6.319378 85.582092
216 0 1 -4.382564 7.128197 86.140411
217 0 1 -5.255654 7.422318 86.353302
218 0 1 -6.032004 6.969757 86.798309
219 0 1 -6.438594 6.148258 87.114594
220 0 1 -5.890874 5.649666 87.747314
221 0 1 -5.605474 6.474327 88.144714
222 0 1 -6.245183 6.471268 88.827515
223 0 1 -6.715814 5.775688 88.316101
224 0 1 -6.993493 4.880756 88.234314
225 0 1 -7.942103 4.941799 88.291290
226 0 1 -7.779353 4.321415 87.568695
227 0 1 -7.654075 3.433312 87.901184
228 0 1 -6.861104 2.884949 87.708313
229 0 1 -6.622745 1.973648 87.950806
230 0 1 -5.876603 1.237168 88.017792
231 0 1 -5.356933 0.787537 87.328796
232 0 1 -5.089583 -0.168941 87.013306
233 0 1 -4.438434 0.087828 86.325806
234 0 1 -4.716283 0.336107 85.398804
235 0 1 -4.532584 0.299278 84.470215
236 0 1 -3.582450 0.531378 84.612183
237 0 1 -3.535386 0.462649 83.636719
238 0 1 -3.453460 -0.220642 82.924683
239 0 1 -2.696980 -0.648092 82.439789
240 0 1 -1.811324 -0.984472 82.478088
241 0 1 -1.613614 -0.373863 83.181610
242 0 1 -1.867629 0.428448 82.587708
243 0 1 -1.031302 0.837158 82.567596
244 0 1 -1.498643 1.694147 82.578186
245 0 1 -1.298123 2.462090 82.033997
246 0 1 -0.610392 3.144263 82.081482
247 0 1 -1.057284 3.878140 81.568298
248 0 1 -1.910180 4.235603 81.777802
249 0 1 -2.040582 3.749607 82.656799
250 0 1 -2.497270 4.583048 82.773987
251 0 1 -3.318116 5.162556 82.793091
252 0 1 -2.692262 5.771729 82.446106
253 0 1 -1.818606 5.895397 82.125397
254 0 1 -1.817845 6.095287 83.135590
255 0 1 -1.447213 6.074768 84.081909
256 0 1 -1.635873 6.888836 84.638397
257 0 1 -1.168794 6.736107 85.389191
258 0 1 -0.480525 6.743999 84.711182
259 0 1 0.235326 6.395348 84.195801
260 0 1 -0.411822 5.731197 83.940918
261 0 1 0.211087 6.101929 83.261902
262 0 1 0.215806 6.915958 82.702393
263 0 1 -0.725512 6.792866 82.903015
264 0 1 -1.041175 7.731628 82.994812
265 0 1 -0.943984 7.906418 82.001587
266 0 1 -0.715552 8.801498 81.760406
267 0 1 -0.802882 9.746227 81.398315
268 0 1 0.079015 10.154846 81.539612
269 0 1 -0.363864 10.978958 81.217712
270 0 1 -0.526404 11.657188 81.913086
271 0 1 -0.995124 10.856770 82.218811
272 0 1 -0.728053 11.013409 83.166687
273 0 1 0.137975 10.752277 83.295807
274 0 1 -0.228354 11.140327 84.124603
275 0 1 -0.354533 11.964737 84.634583
276 0 1 -0.950644 12.500187 84.166107
277 0 1 -0.988944 13.439049 84.212097
278 0 1 -1.641110 13.787846 83.669708
279 0 1 -1.254504 13.917847 82.814087
280 0 1 -1.021083 13.525547 82.014496
281 0 1 -0.618232 13.800945 81.211182
282 0 1 -0.191504 14.423248 81.798218
283 0 1 -0.518252 15.334949 81.689697
284 0 1 -1.534074 15.309345 81.627197
285 0 1 -1.979287 14.859249 82.361908
286 0 1 -2.509908 14.066448 82.096008
287 0 1 -2.579930 13.097828 82.124298
288 0 1 -2.550370 12.164028 82.247589
289 0 1 -1.745774 11.861019 82.462097
290 0 1 -1.460454 11.963966 83.378998
291 0 1 -2.088445 11.182346 83.108582
292 0 1 -2.861930 10.815876 82.613892
293 0 1 -3.323123 10.182598 82.107910
294 0 1 -2.976359 10.276146 81.125397
295 0 1 -2.238782 10.150307 80.581390
296 0 1 -2.726493 9.367958 80.121216
297 0 1 -3.153541 9.318897 79.239105
298 0 1 -4.090453 9.422909 79.357117
299 0 1 -4.965663 9.318699 79.652802
300 0 1 -5.745914 9.395519 80.183411
301 0 1 -5.893813 9.187416 79.274811
302 0 1 -6.189954 8.330139 79.692383
303 0 1 -6.833724 8.741348 80.231995
304 0 1 -7.134133 7.849739 80.371796
305 0 1 -7.469754 8.051067 81.269501
306 0 1 -7.597293 8.966007 81.713318
307 0 1 -8.146693 9.757889 81.732208
308 0 1 -7.920634 9.985577 80.768616
309 0 1 -8.738235 9.759377 80.426300
310 0 1 -9.734164 9.780457 80.448395
311 0 1 -9.799233 9.118286 79.660583
312 0 1 -9.675155 8.130409 79.650909
313 0 1 -9.207444 7.316116 79.305908
314 0 1 -8.214454 7.493248 79.466400
315 0 1 -7.480474 8.089157 79.168304
316 0 1 -7.737594 9.007736 78.773315
317 0 1 -7.775332 9.910519 78.478088
318 0 1 -7.550344 9.522789 77.633209
319 0 1 -6.758504 9.625656 77.146606
320 0 1 -6.375653 9.646679 76.265991
321 0 1 -6.405713 9.219978 75.423401
322 0 1 -6.869744 9.768669 74.759888
323 0 1 -7.209014 10.702568 74.743286
324 0 1 -7.048533 11.278255 74.006592
325 0 1 -7.554923 11.791107 73.359802
326 0 1 -8.101054 12.518349 73.664612
327 0 1 -9.033824 12.758450 73.517792
328 0 1 -8.818603 12.724628 72.566101
329 0 1 -9.533824 12.368847 71.913605
330 0 1 -10.119533 13.017838 71.466187
331 0 1 -9.194503 13.355846 71.176910
332 0 1 -8.701234 14.016949 70.752014
333 0 1 -8.682384 14.726048 71.353302
334 0 1 -8.081414 15.317348 70.815002
335 0 1 -7.880534 16.189247 70.406799
336 0 1 -8.052114 15.679646 69.684082
337 0 1 -7.779923 15.692047 68.726807
338 0 1 -7.904954 16.568150 68.104889
339 0 1 -7.255124 17.337349 68.193115
340 0 1 -7.792863 17.643047 68.961304
341 0 1 -8.562253 18.099049 69.250610
342 0 1 -9.106723 18.791946 69.685303
343 0 1 -9.158103 19.743649 69.825195
344 0 1 -9.523864 19.688549 70.816284
345 0 1 -8.637824 19.602848 71.314301
346 0 1 -9.314553 19.197548 72.003418
347 0 1 -9.976703 19.946346 72.087006
348 0 1 -9.402413 20.652546 71.751801
349 0 1 -9.819913 21.502148 72.105103
350 0 1 -10.010383 22.404850 71.982117
351 0 1 -9.183373 22.542545 72.471619
352 0 1 -9.788554 22.744247 73.273987
353 0 1 -10.428723 23.372047 73.469482
354 0 1 -10.190133 24.309147 73.445404
355 0 1 -10.130803 25.277248 73.188202
356 0 1 -9.429023 25.799847 73.545990
357 0 1 -8.690984 25.237446 73.779785
358 0 1 -7.851665 25.302547 73.350891
359 0 1 -7.254344 24.487545 73.139496
360 0 1 -7.125133 23.796947 73.919983
361 0 1 -6.250323 24.196949 74.376282
362 0 1 -5.818944 24.618847 73.519196
363 0 1 -5.598384 25.517548 73.197510
364 0 1 -5.074443 25.743046 73.949402
365 0 1 -4.598804 25.006748 73.696106
366 0 1 -4.500813 25.162846 72.805695
367 0 1 -4.928523 25.900547 72.420807
368 0 1 -4.593303 25.774948 71.461182
369 0 1 -3.958323 25.986748 70.734406
370 0 1 -3.633574 26.118145 69.799316
371 0 1 -3.549172 25.195648 70.239807
372 0 1 -3.502589 24.287548 70.236908
373 0 1 -3.452216 23.352245 70.578003
374 0 1 -3.479878 22.842747 69.701782
375 0 1 -4.217204 22.870049 69.152588
376 0 1 -5.088084 23.178745 69.550110
377 0 1 -6.006503 22.745747 69.678802
378 0 1 -6.859164 22.905445 70.032288
379 0 1 -7.119374 22.040745 69.642303
380 0 1 -7.105563 21.154747 69.303497
381 0 1 -7.288844 21.553349 68.501282
382 0 1 -7.187465 21.162647 67.646484
383 0 1 -6.350234 21.594349 67.871216
384 0 1 -5.486323 21.368046 68.139709
385 0 1 -4.874553 20.553349 68.164917
386 0 1 -5.021054 20.096645 67.301086
387 0 1 -4.639884 20.047245 66.391113
388 0 1 -4.570773 19.307346 65.777588
389 0 1 -4.639043 18.324245 65.787811
390 0 1 -5.185643 17.733746 65.308289
391 0 1 -4.327273 17.539146 64.893402
392 0 1 -3.519429 18.061348 64.933289
393 0 1 -2.758948 18.212547 64.376801
394 0 1 -2.346580 17.775745 63.641907
395 0 1 -1.832887 18.477448 63.895905
396 0 1 -1.728297 18.128448 64.787506
397 0 1 -0.992633 17.683147 65.179688
398 0 1 -1.672446 17.375347 65.727600
399 0 1 -1.760489 16.420246 65.778381
400 0 1 -1.706750 15.785946 65.059814
401 0 1 -1.864535 15.881447 64.141510
402 0 1 -1.232333 16.623447 64.138184
403 0 1 -0.595473 16.352047 63.503998
404 0 1 -0.106494 16.395248 62.663086
405 0 1 0.498357 16.012547 62.010986
406 0 1 -0.052844 16.252247 61.230499
407 0 1 -0.594294 15.744450 60.622589
408 0 1 -1.018943 15.172848 61.251709
409 0 1 -1.722190 14.450249 61.349792
410 0 1 -2.447413 15.038048 61.253998
411 0 1 -3.029630 14.451748 60.760010
412 0 1 -2.507085 14.324047 59.943512
413 0 1 -2.638692 14.736248 59.076508
414 0 1 -2.048629 15.301449 59.703186
415 0 1 -2.610719 16.013748 59.608612
416 0 1 -2.533206 16.563946 58.873291
417 0 1 -3.023440 17.146748 58.237396
418 0 1 -3.434245 17.515247 57.419006
419 0 1 -3.307858 17.808346 56.369293
420 0 1 -4.101724 17.375446 56.778900
421 0 1 -4.692813 17.641949 57.482910
422 0 1 -4.925143 18.551147 57.591492
423 0 1 -5.612294 18.893547 57.089996
424 0 1 -5.988753 18.815948 58.055206
425 0 1 -6.488044 17.984749 58.208588
426 0 1 -6.615584 18.398148 59.074402
427 0 1 -7.173524 17.884548 59.621307
428 0 1 -6.489314 18.355946 60.087402
429 0 1 -6.179654 19.258945 60.293793
430 0 1 -5.441613 19.376247 60.936310
431 0 1 -4.609834 19.005447 60.431793
432 0 1 -5.027204 18.731049 59.652191
433 0 1 -5.497033 17.992249 60.032196
434 0 1 -5.239833 17.299648 60.618591
435 0 1 -5.736693 17.157246 61.443909
436 0 1 -6.442273 17.184048 60.794800
437 0 1 -6.646194 16.253147 60.671509
438 0 1 -7.376384 16.429249 61.252106
439 0 1 -8.247304 16.987648 61.270813
440 0 1 -8.071734 17.418446 62.125183
441 0 1 -8.584893 18.293549 62.193512
442 0 1 -9.337564 17.831448 61.740601
443 0 1 -9.517373 17.057549 61.241791
444 0 1 -9.244294 16.236347 61.674316
445 0 1 -9.508723 15.320747 61.411499
446 0 1 -8.818892 14.693645 61.755188
447 0 1 -8.765944 13.950047 61.185913
448 0 1 -8.913543 14.258945 60.273102
449 0 1 -9.188853 15.194847 60.125183
450 0 1 -9.376563 15.800648 59.379395
451 0 1 -8.564044 16.162350 59.014893
452 0 1 -7.873153 15.614849 58.692688
453 0 1 -7.431983 15.324348 57.868011
454 0 1 -7.456862 14.387150 57.741394
455 0 1 -7.137183 14.840347 56.890686
456 0 1 -6.451053 15.519047 56.702087
457 0 1 -5.494254 15.464546 56.509094
458 0 1 -4.575023 15.545345 56.652405
459 0 1 -4.613975 15.388348 55.683716
460 0 1 -4.503524 15.793747 54.792694
461 0 1 -4.478543 15.114147 54.103699
462 0 1 -4.412873 14.198849 53.865204
463 0 1 -4.646474 13.439747 54.596008
464 0 1 -4.407174 12.702847 55.207001
465 0 1 -4.736423 11.908157 55.634216
466 0 1 -4.292373 11.621380 54.757690
467 0 1 -5.098804 11.329788 54.292786
468 0 1 -4.965755 10.412498 54.045807
469 0 1 -3.985263 10.153919 54.207611
470 0 1 -3.821134 10.441090 53.309814
471 0 1 -3.234714 10.590126 52.577087
472 0 1 -2.963050 9.657978 52.691711
473 0 1 -2.500537 9.988426 51.893799
474 0 1 -3.345014 9.885448 51.446106
475 0 1 -3.687253 8.976498 51.415497
476 0 1 -4.105174 9.432446 52.203796
477 0 1 -5.045413 9.635029 52.333191
478 0 1 -4.869464 8.744778 51.974396
479 0 1 -5.086663 8.556488 51.057587
480 0 1 -5.031034 7.597637 50.960083
481 0 1 -4.179393 7.403168 50.714417
482 0 1 -4.647433 6.764408 50.310791
483 0 1 -5.230983 6.576996 49.577698
484 0 1 -5.282273 6.843159 48.600586
485 0 1 -5.958884 6.586628 47.938416
486 0 1 -5.941344 5.763988 47.521088
487 0 1 -6.422753 5.309639 48.220490
488 0 1 -6.063474 4.412468 48.179504
489 0 1 -6.508903 4.648848 47.346985
490 0 1 -7.097524 3.910038 47.287201
491 0 1 -7.414104 4.180634 46.395599
492 0 1 -8.087283 4.420687 47.102509
493 0 1 -8.130824 5.103458 47.857208
494 0 1 -8.048465 5.686287 48.652100
495 0 1 -8.536143 4.982628 49.086487
496 0 1 -7.862414 5.183456 49.768188
497 0 1 -8.214763 4.285223 49.858490
498 0 1 -8.049293 3.965447 50.683502
499 0 1 -7.167125 4.331758 50.743011
500 0 1 -6.804843 3.598877 50.223602
501 0 1 -6.238315 3.948342 50.931885
502 0 1 -5.469163 3.418778 50.867310
503 0 1 -5.321454 2.708985 51.576508
504 0 1 -6.046153 2.186438 51.237091
505 0 1 -6.935985 1.803787 51.161804
506 0 1 -7.436355 2.533911 50.662689
507 0 1 -7.583274 3.150187 51.428284
508 0 1 -8.358483 2.629378 51.696106
509 0 1 -7.726584 1.944739 52.152405
510 0 1 -7.570184 1.068047 52.511810
511 0 1 -6.972903 0.488207 53.070099
512 0 1 -6.224704 1.015797 52.813110
513 0 1 -6.328784 0.957068 51.911011
514 0 1 -5.452773 0.673758 51.838287
515 0 1 -5.590194 -0.123022 51.354401
516 0 1 -4.822024 0.044628 50.727783
517 0 1 -4.306384 -0.391502 50.032104
518 0 1 -4.048484 -0.532402 49.141907
519 0 1 -3.839114 -1.218643 48.463013
520 0 1 -3.940864 -0.949602 47.527893
521 0 1 -4.283233 -0.143963 47.939087
522 0 1 -5.071193 -0.192093 47.439606
523 0 1 -5.492824 0.600487 47.055786
524 0 1 -5.803245 1.498247 47.157593
525 0 1 -5.862924 2.474354 47.089417
526 0 1 -4.967593 2.315998 47.040588
527 0 1 -4.102483 2.743191 46.942688
528 0 1 -3.415189 2.752222 47.663605
529 0 1 -4.005534 2.422343 48.383392
530 0 1 -4.491424 1.831078 48.957214
531 0 1 -5.432424 1.645928 49.030884
532 0 1 -5.693355 2.366242 49.589813
533 0 1 -6.447614 1.926268 49.102112
534 0 1 -6.139243 1.108498 49.530304
535 0 1 -6.349063 0.595957 48.729187
536 0 1 -6.582223 -0.010622 49.546600
537 0 1 -7.406993 -0.358692 49.191406
538 0 1 -7.613654 -0.887443 48.316101
539 0 1 -7.458915 -0.957702 47.303284
540 0 1 -6.708175 -1.199272 46.878204
541 0 1 -6.385303 -0.348873 46.783295
542 0 1 -5.880784 -1.011102 46.299896
543 0 1 -6.525264 -0.685142 45.645294
544 0 1 -6.295854 -1.629202 45.388092
545 0 1 -6.064763 -2.524162 45.798889
546 0 1 -6.457383 -3.358452 45.541199
547 0 1 -5.870143 -3.911752 46.100891
548 0 1 -5.167953 -3.931831 46.797485
549 0 1 -5.767974 -3.442392 47.468597
550 0 1 -5.950484 -4.375952 47.757996
551 0 1 -6.913074 -4.349123 47.707001
552 0 1 -7.142983 -4.048264 48.560791
553 0 1 -6.714223 -3.285583 48.904694
554 0 1 -5.789714 -3.263403 49.326416
555 0 1 -5.758214 -3.157102 50.296814
556 0 1 -5.627784 -3.838142 50.959412
557 0 1 -5.941003 -3.877352 51.878693
558 0 1 -6.514354 -3.322332 51.383301
559 0 1 -6.808722 -2.643333 52.006195
560 0 1 -7.005054 -3.465221 52.431213
561 0 1 -6.556983 -3.524523 53.311310
562 0 1 -6.335883 -4.406603 53.144409
563 0 1 -6.001575 -4.117632 53.963593
564 0 1 -6.892453 -4.473492 54.371704
565 0 1 -7.029874 -5.451641 54.419403
566 0 1 -6.411914 -6.049423 54.892090
567 0 1 -6.152284 -6.841852 54.397491
568 0 1 -6.258744 -7.669651 54.888611
569 0 1 -5.386283 -8.086853 55.149506
570 0 1 -4.864844 -7.690252 54.463806
571 0 1 -4.006013 -7.605553 54.106384
572 0 1 -3.534556 -6.950052 53.622589
573 0 1 -3.785703 -6.166243 52.996094
574 0 1 -3.506885 -5.463451 52.429199
575 0 1 -3.054021 -6.345793 52.316284
576 0 1 -2.790910 -6.511963 51.347809
577 0 1 -3.040282 -5.979652 50.640411
578 0 1 -2.529124 -6.594812 50.067108
579 0 1 -2.789666 -7.420853 49.569214
580 0 1 -3.579955 -6.937153 49.770294
581 0 1 -4.312034 -7.574753 49.828094
582 0 1 -5.101703 -7.969952 49.953094
583 0 1 -5.626033 -8.501652 49.406616
584 0 1 -5.755813 -7.597252 49.191193
585 0 1 -5.639823 -6.651043 48.825806
586 0 1 -5.448094 -6.081322 48.032104
587 0 1 -4.592664 -6.580982 47.905792
588 0 1 -3.760043 -7.157852 47.970398
589 0 1 -3.872193 -8.022053 48.336304
590 0 1 -3.923234 -8.982754 48.388916
591 0 1 -3.117360 -9.440453 48.162598
592 0 1 -3.296374 -9.381252 47.209106
593 0 1 -3.004380 -8.568752 47.478302
594 0 1 -3.551927 -8.453053 46.636902
595 0 1 -4.021493 -9.255852 46.381287
596 0 1 -4.741803 -8.715752 46.087799
597 0 1 -4.953454 -7.763952 45.782410
598 0 1 -5.957124 -7.606552 45.908997
599 0 1 -5.939193 -7.885353 46.887207
600 0 1 -6.119634 -8.834553 47.260986
601 0 1 -6.394553 -9.691051 46.866913
602 0 1 -6.388183 -10.191051 47.648987
603 0 1 -6.512244 -11.101051 48.055908
604 0 1 -7.025733 -11.024353 48.912811
605 0 1 -7.039924 -10.124153 48.520203
606 0 1 -7.693583 -9.608152 47.969208
607 0 1 -8.427564 -9.705551 47.376709
608 0 1 -8.943904 -8.951452 47.096893
609 0 1 -9.401624 -8.116451 46.845490
610 0 1 -9.854323 -7.323254 47.289703
611 0 1 -10.500154 -8.004253 46.936798
612 0 1 -11.515643 -7.842453 46.670807
613 0 1 -11.768064 -8.372152 45.973389
614 0 1 -11.929072 -7.655651 45.378113
615 0 1 -10.992793 -7.489952 45.020294
616 0 1 -11.268064 -6.827152 44.398499
617 0 1 -11.840903 -6.119843 44.049103
618 0 1 -11.742703 -6.923252 43.514893
619 0 1 -12.153893 -7.835253 43.601807
620 0 1 -11.377444 -8.420452 43.671814
621 0 1 -10.791755 -7.996552 43.033386
622 0 1 -11.084394 -7.118353 42.781616
623 0 1 -11.420894 -6.953152 41.874207
624 0 1 -10.744323 -7.092152 41.215088
625 0 1 -9.955813 -7.408653 40.755615
626 0 1 -9.033153 -7.206152 40.509094
627 0 1 -8.563384 -6.467432 40.068695
628 0 1 -8.914804 -5.780752 40.610107
629 0 1 -8.546884 -5.520752 41.394104
630 0 1 -8.386403 -6.530563 41.397400
631 0 1 -7.509254 -6.213654 41.722595
632 0 1 -7.502753 -5.219704 41.630493
633 0 1 -7.475474 -4.295813 41.287811
634 0 1 -7.934813 -4.844254 40.666107
635 0 1 -7.322074 -5.159203 40.036713
636 0 1 -7.355903 -4.775562 39.144012
637 0 1 -6.866374 -4.578281 38.258606
638 0 1 -7.544223 -5.178812 37.966614
639 0 1 -8.103213 -4.330002 38.128113
640 0 1 -8.117793 -3.487762 38.554016
641 0 1 -7.421603 -2.891983 38.621796
642 0 1 -7.233165 -2.166431 39.217590
643 0 1 -7.647655 -2.698332 39.940704
644 0 1 -8.497153 -2.221992 39.712891
645 0 1 -9.408223 -2.138462 39.442902
646 0 1 -10.334893 -2.008592 39.640015
647 0 1 -10.516044 -2.364872 40.512512
648 0 1 -9.595824 -2.134142 40.791107
649 0 1 -9.857795 -2.751673 41.487396
650 0 1 -10.341134 -3.280071 40.841187
651 0 1 -11.109374 -3.795341 41.127899
652 0 1 -11.246715 -2.788683 41.120911
653 0 1 -11.117633 -2.411613 42.000488
654 0 1 -10.559354 -1.691862 41.770813
655 0 1 -9.780034 -1.169403 41.782196
656 0 1 -9.931283 -0.881763 40.881714
657 0 1 -9.707145 -0.153291 40.328796
658 0 1 -10.082084 0.507048 39.722290
659 0 1 -9.222684 0.682667 39.955505
660 0 1 -9.443913 1.608729 40.188110
661 0 1 -8.536593 1.645869 40.578491
662 0 1 -7.765693 2.061379 41.086609
663 0 1 -7.985663 2.807883 40.510193
664 0 1 -7.025224 2.626213 40.461212
665 0 1 -6.911155 1.876229 39.905212
666 0 1 -7.700103 2.100088 39.455505
667 0 1 -7.207654 1.738787 38.729492
668 0 1 -8.103114 1.942827 38.251007
669 0 1 -8.306273 2.773873 37.913788
670 0 1 -7.426223 3.233803 37.958496
671 0 1 -6.837813 3.602560 37.336090
672 0 1 -6.171313 3.967549 36.673004
673 0 1 -6.341603 3.650059 35.840790
674 0 1 -5.565104 3.117012 35.584106
675 0 1 -5.679303 2.543560 34.863586
676 0 1 -4.748115 2.538857 34.619904
677 0 1 -4.265183 3.425837 34.561005
678 0 1 -4.171744 3.560967 33.661102
679 0 1 -3.250237 3.725020 33.658295
680 0 1 -2.526402 3.863966 34.323486
681 0 1 -1.916951 3.186571 34.751801
682 0 1 -2.409724 2.457363 34.373810
683 0 1 -2.700521 1.934239 33.657593
684 0 1 -2.375405 1.106308 33.394806
685 0 1 -1.718102 1.343878 32.731293
686 0 1 -0.845424 1.677738 32.753998
687 0 1 0.153607 1.451079 32.586395
688 0 1 0.736535 0.826138 32.971313
689 0 1 1.122258 0.981407 33.896912
690 0 1 1.846078 1.131499 34.461487
691 0 1 1.302358 0.663498 35.082092
692 0 1 0.392778 0.854378 34.987213
693 0 1 -0.305434 1.213997 35.588501
694 0 1 -0.183333 0.261318 35.830811
695 0 1 -0.124843 -0.472652 36.456604
696 0 1 -0.606383 -1.036173 37.023987
697 0 1 -1.329774 -1.442413 36.550507
698 0 1 -0.528453 -1.639362 36.093903
699 0 1 -0.738883 -1.797222 35.164703
700 0 1 -0.639434 -0.821552 35.262787
701 0 1 0.221295 -1.177723 35.052094
702 0 1 0.962697 -1.541473 34.594299
703 0 1 1.167375 -2.254972 34.010101
704 0 1 1.712155 -1.681942 33.487091
705 0 1 2.585404 -1.972273 33.062988
706 0 1 3.202306 -2.423132 32.424896
707 0 1 3.967526 -2.757671 31.904602
708 0 1 4.232026 -3.561813 31.475586
709 0 1 4.816735 -2.974512 30.919708
710 0 1 4.476697 -3.549642 30.161499
711 0 1 4.295407 -3.934732 29.318390
712 0 1 4.640126 -4.823853 29.348511
713 0 1 5.158067 -5.180082 30.146484
714 0 1 5.024106 -6.185352 30.178589
715 0 1 4.466477 -5.869324 30.895996
716 0 1 5.173436 -5.911093 31.482605
717 0 1 6.136765 -5.997063 31.239288
718 0 1 6.039907 -5.098682 31.083008
719 0 1 6.474965 -4.264082 31.107391
720 0 1 5.983808 -3.647613 31.689301
721 0 1 5.150826 -4.163513 31.758606
722 0 1 5.298608 -4.790752 32.526794
723 0 1 5.466027 -4.058434 33.194611
724 0 1 5.220906 -4.865334 33.605713
725 0 1 4.625775 -5.156002 34.306793
726 0 1 3.785836 -5.245033 34.715302
727 0 1 3.516767 -5.617123 33.835205
728 0 1 3.486325 -4.888243 33.240295
729 0 1 3.963918 -4.892712 32.388306
730 0 1 3.318227 -4.950691 31.643494
731 0 1 2.759686 -5.629494 31.919891
732 0 1 1.825318 -5.389322 32.072296
733 0 1 0.972097 -5.429842 32.479492
734 0 1 0.231267 -4.948254 32.669891
735 0 1 -0.725882 -4.935982 32.582214
736 0 1 -0.856692 -5.094704 31.639191
737 0 1 -1.420014 -4.600143 30.976898
738 0 1 -0.771663 -3.831592 30.995392
739 0 1 0.156236 -3.916853 30.905701
740 0 1 -0.058593 -3.535742 30.073486
741 0 1 -0.159762 -4.341331 29.525085
742 0 1 0.368875 -3.773323 28.880188
743 0 1 1.102998 -3.545982 28.275909
744 0 1 0.336415 -4.105852 27.869110
745 0 1 -0.123263 -4.065992 27.018799
746 0 1 -0.753672 -4.463242 26.438904
747 0 1 -1.173564 -4.630413 25.600494
748 0 1 -1.745278 -4.107841 26.199493
749 0 1 -2.622222 -3.737682 26.320892
750 0 1 -2.906133 -3.488662 25.438293
751 0 1 -2.856776 -4.156113 24.790405
752 0 1 -3.621303 -4.749931 24.678192
753 0 1 -3.492057 -5.754452 24.710114
754 0 1 -4.435704 -5.854843 24.756104
755 0 1 -5.355414 -5.636892 24.838104
756 0 1 -5.039943 -4.803734 24.385986
757 0 1 -5.436023 -4.175781 25.081909
758 0 1 -5.578004 -3.675432 24.299896
759 0 1 -4.685203 -3.827171 24.045593
760 0 1 -5.336583 -4.178152 23.411591
761 0 1 -6.130023 -4.736902 23.598389
762 0 1 -7.018413 -5.128094 23.393188
763 0 1 -7.513293 -4.627312 24.044891
764 0 1 -7.685353 -3.704672 23.916107
765 0 1 -8.389783 -3.697902 24.615814
766 0 1 -8.125453 -4.055813 25.476501
767 0 1 -8.085263 -4.893433 25.933014
768 0 1 -8.178464 -5.090622 25.032501
769 0 1 -8.846435 -5.702923 24.521088
770 0 1 -9.332564 -6.159431 25.253387
771 0 1 -9.281054 -7.077953 25.555206
772 0 1 -9.105893 -7.002752 24.601288
773 0 1 -9.375834 -7.564352 23.853912
774 0 1 -9.075953 -8.461653 24.023712
775 0 1 -8.659953 -8.885252 23.286499
776 0 1 -8.525443 -7.983152 22.889191
777 0 1 -8.241263 -7.539951 22.025101
778 0 1 -7.407584 -6.982252 22.048904
779 0 1 -6.540393 -7.395653 22.523987
780 0 1 -6.542123 -8.113354 23.232788
781 0 1 -6.116084 -8.959553 23.285889
782 0 1 -5.469493 -9.275352 22.733215
783 0 1 -6.015183 -9.754753 22.118698
784 0 1 -6.572703 -9.003952 22.156906
785 0 1 -7.157653 -9.639553 21.724304
786 0 1 -7.246135 -9.010452 21.014206
787 0 1 -7.609973 -9.502953 20.277008
788 0 1 -8.638225 -9.559853 20.248505