LAMMPS data file via MDAnalysis

        2000  atoms
        1999  bonds
           0  angles
           0  dihedrals
           0  impropers

           1  atom types
           1  bond types
           0  angle types
           0  dihedral types
           0  improper types

-30.5 30.5 xlo xhi
-30.5 30.5 ylo yhi
-233.5 233.5 zlo zhi


Masses

1 1.000000

Atoms

1 0 1 -8.369768 -6.673357 45.327301
2 0 1 -8.065977 -7.316238 45.987793
3 0 1 -7.104828 -7.569578 45.889404
4 0 1 -6.485447 -8.210847 46.376587
5 0 1 -5.646648 -8.069507 46.774506
6 0 1 -4.825699 -8.230117 47.143097
7 0 1 -4.308147 -9.053956 47.342102
8 0 1 -3.904638 -9.630137 48.083313
9 0 1 -4.109648 -9.678647 49.043884
10 0 1 -3.527668 -9.109147 49.540100
11 0 1 -2.793728 -8.759168 50.128906
12 0 1 -3.303278 -7.975687 50.035492
13 0 1 -2.963799 -8.051076 49.127289
14 0 1 -2.088287 -7.806978 49.437897
15 0 1 -1.903868 -8.775706 49.501190
16 0 1 -1.315720 -9.231977 50.038788
17 0 1 -0.530531 -9.676797 49.671600
18 0 1 0.249662 -10.105767 49.296387
19 0 1 0.144871 -11.025786 49.207001
20 0 1 1.086342 -11.085187 49.176697
21 0 1 0.908951 -11.571298 48.370605
22 0 1 1.268242 -11.115237 47.677490
23 0 1 0.961971 -11.943006 47.206116
24 0 1 0.865852 -12.863097 47.481506
25 0 1 0.381742 -13.688296 47.522095
26 0 1 1.294502 -13.743697 47.062500
27 0 1 1.533802 -14.239198 47.763397
28 0 1 1.104172 -14.821597 48.496796
29 0 1 0.756191 -14.492898 49.306793
30 0 1 0.250572 -15.341996 49.155396
31 0 1 -0.604786 -15.755597 48.932495
32 0 1 -0.745710 -16.373898 48.276703
33 0 1 -0.646132 -16.093897 47.385101
34 0 1 -1.476957 -16.626497 47.289917
35 0 1 -2.467728 -16.409098 47.137207
36 0 1 -1.938788 -16.473597 46.313416
37 0 1 -1.540323 -15.853297 45.661011
38 0 1 -2.280848 -15.409696 45.141907
39 0 1 -2.375387 -15.842797 44.252686
40 0 1 -2.510159 -15.828095 43.313690
41 0 1 -1.991907 -16.181498 42.554688
42 0 1 -2.432888 -16.544497 41.759003
43 0 1 -3.232117 -17.057697 41.600891
44 0 1 -2.474127 -17.569498 41.299011
45 0 1 -1.780251 -17.023098 40.921387
46 0 1 -1.256661 -16.268698 41.193909
47 0 1 -0.543356 -15.938798 40.627686
48 0 1 -1.046230 -16.088598 39.796112
49 0 1 -0.948708 -15.407496 39.173187
50 0 1 -1.227621 -14.728997 39.815796
51 0 1 -1.816578 -14.718097 39.126801
52 0 1 -2.325048 -15.527696 39.101013
53 0 1 -2.463898 -15.825597 38.208313
54 0 1 -2.064318 -15.884797 37.332703
55 0 1 -2.122627 -14.910195 37.159485
56 0 1 -1.779387 -14.381097 37.830597
57 0 1 -2.445438 -13.854596 38.389404
58 0 1 -2.268188 -12.984597 38.009399
59 0 1 -2.410498 -12.283196 38.641602
60 0 1 -2.659119 -11.525947 38.119690
61 0 1 -3.638157 -11.487996 38.163086
62 0 1 -4.549917 -11.869487 38.243988
63 0 1 -4.996058 -11.858037 37.392517
64 0 1 -4.673967 -10.996236 37.684998
65 0 1 -5.163147 -10.049216 37.711792
66 0 1 -5.404207 -10.469235 36.914001
67 0 1 -5.458267 -10.352807 35.924713
68 0 1 -5.764837 -9.666738 35.356201
69 0 1 -5.932468 -10.462457 34.858307
70 0 1 -6.483238 -11.226777 35.152496
71 0 1 -6.378918 -10.826406 36.010406
72 0 1 -7.166307 -10.462026 36.453491
73 0 1 -6.711987 -10.452817 37.292999
74 0 1 -6.835028 -10.191947 38.212311
75 0 1 -7.718908 -9.924558 38.403687
76 0 1 -8.705727 -10.116006 38.427307
77 0 1 -8.790138 -10.304757 39.377411
78 0 1 -9.327679 -11.056497 39.433197
79 0 1 -9.086239 -11.350778 40.304291
80 0 1 -9.367897 -12.122207 39.774109
81 0 1 -8.705048 -12.625596 40.348511
82 0 1 -8.864147 -13.228297 41.139099
83 0 1 -9.143488 -12.286197 41.331207
84 0 1 -8.971046 -12.410897 42.262695
85 0 1 -8.545088 -13.195798 42.699890
86 0 1 -8.064957 -12.406796 42.862610
87 0 1 -7.158777 -12.087176 42.861816
88 0 1 -6.834278 -11.290687 42.388000
89 0 1 -6.020199 -11.887055 42.285706
90 0 1 -5.170547 -11.543607 42.371307
91 0 1 -5.479027 -10.988835 43.086700
92 0 1 -5.410767 -11.122617 44.095001
93 0 1 -4.577438 -10.575208 43.952698
94 0 1 -4.563417 -10.834176 44.886292
95 0 1 -3.771957 -11.414506 44.851105
96 0 1 -2.852608 -11.371575 44.763184
97 0 1 -2.723978 -11.566686 43.806793
98 0 1 -3.162737 -12.103597 43.132111
99 0 1 -3.144009 -11.730107 42.257690
100 0 1 -2.395348 -11.663497 41.677795
101 0 1 -1.739088 -11.786965 40.996002
102 0 1 -1.489300 -11.816888 40.050507
103 0 1 -0.705530 -12.313596 40.412109
104 0 1 -0.120358 -11.884748 40.998688
105 0 1 0.307032 -11.161237 41.571716
106 0 1 0.563223 -11.471246 42.430695
107 0 1 1.073971 -11.973817 41.653900
108 0 1 1.405323 -12.599996 42.303711
109 0 1 2.151634 -12.887296 41.704010
110 0 1 2.279781 -13.030396 40.746490
111 0 1 2.983360 -13.341298 40.204803
112 0 1 3.915012 -12.953298 40.374084
113 0 1 3.714962 -12.204495 40.932892
114 0 1 3.579151 -11.277436 41.064789
115 0 1 3.510780 -10.732846 40.263794
116 0 1 3.743664 -9.845616 40.489990
117 0 1 4.167362 -9.522176 39.708893
118 0 1 3.566761 -10.055757 39.175293
119 0 1 3.701103 -9.982547 38.246887
120 0 1 3.137482 -9.318326 37.906616
121 0 1 2.283741 -9.229787 38.248993
122 0 1 2.689522 -8.359998 37.941406
123 0 1 2.443752 -7.734918 38.580597
124 0 1 2.459244 -7.897537 39.507996
125 0 1 1.797974 -7.228498 39.522705
126 0 1 2.394974 -6.844337 40.213104
127 0 1 2.639812 -7.131357 41.118408
128 0 1 3.342762 -6.809738 41.571808
129 0 1 3.885471 -6.373567 42.289703
130 0 1 3.737221 -7.244287 42.601105
131 0 1 4.694374 -7.038707 42.490387
132 0 1 4.450500 -7.104887 43.403015
133 0 1 5.146152 -6.441976 43.681488
134 0 1 5.316284 -5.691267 43.139404
135 0 1 5.675751 -5.044258 42.502686
136 0 1 5.103592 -5.454347 41.825989
137 0 1 4.927071 -4.973857 41.041901
138 0 1 4.768822 -5.888837 40.830688
139 0 1 5.724682 -6.000467 40.641113
140 0 1 5.835564 -5.531557 39.790710
141 0 1 5.214233 -6.282957 39.557098
142 0 1 5.642902 -6.112737 38.748199
143 0 1 4.818783 -5.914117 38.399597
144 0 1 5.126411 -5.980047 37.472595
145 0 1 4.645821 -5.989948 36.557404
146 0 1 4.783512 -6.122497 35.604004
147 0 1 5.080971 -6.987567 35.360199
148 0 1 6.022423 -7.239967 35.813995
149 0 1 6.119362 -8.174037 35.892212
150 0 1 5.320473 -8.117047 36.363708
151 0 1 5.026581 -8.233626 35.423492
152 0 1 4.246014 -7.566568 35.466888
153 0 1 3.770931 -8.185977 34.942596
154 0 1 3.455383 -7.829467 34.089600
155 0 1 2.959343 -7.464456 34.927399
156 0 1 3.033192 -6.751808 34.252014
157 0 1 2.368073 -6.682107 33.605194
158 0 1 1.770923 -7.291708 33.194305
159 0 1 1.034172 -7.760618 33.554688
160 0 1 0.661522 -7.238027 34.343109
161 0 1 1.006603 -6.507947 33.785187
162 0 1 0.411152 -6.154117 33.066803
163 0 1 -0.325855 -6.056648 32.382111
164 0 1 -0.466242 -5.412887 31.710114
165 0 1 -1.385189 -5.425086 31.466003
166 0 1 -0.779770 -5.585008 30.638214
167 0 1 -0.571657 -6.406337 30.172913
168 0 1 -0.702768 -5.684778 29.571808
169 0 1 0.098677 -6.149927 29.129395
170 0 1 -0.130312 -7.114677 29.288605
171 0 1 -0.384846 -6.900926 28.359711
172 0 1 -1.280739 -7.129617 27.993805
173 0 1 -1.656025 -7.767686 27.267487
174 0 1 -0.723261 -7.976457 27.227692
175 0 1 0.063862 -7.679447 27.772308
176 0 1 0.914162 -8.023877 28.191986
177 0 1 0.663742 -7.873876 29.142792
178 0 1 1.673744 -7.887607 28.898407
179 0 1 2.420723 -7.700807 29.623901
180 0 1 3.169514 -8.346097 29.559692
181 0 1 3.509922 -7.553108 29.071686
182 0 1 3.917282 -7.085207 28.250305
183 0 1 3.119324 -7.073858 27.720612
184 0 1 2.861374 -6.163097 27.782196
185 0 1 2.274803 -5.497678 27.330688
186 0 1 1.953712 -6.282728 26.916595
187 0 1 1.056991 -6.593687 27.080688
188 0 1 0.700443 -7.126466 26.341400
189 0 1 1.300922 -7.473457 25.748413
190 0 1 0.933483 -6.822137 25.222107
191 0 1 1.265381 -6.980987 24.286896
192 0 1 1.881740 -6.230087 24.218506
193 0 1 2.827061 -6.236436 24.092407
194 0 1 2.782124 -6.823598 23.338287
195 0 1 2.228031 -6.538967 22.634796
196 0 1 1.398003 -6.099468 22.718292
197 0 1 2.074142 -5.488597 23.014008
198 0 1 1.564743 -4.824077 23.545013
199 0 1 1.368511 -4.719368 22.659607
200 0 1 0.589872 -4.136978 22.850311
201 0 1 0.306951 -3.178268 22.968689
202 0 1 0.165327 -2.251607 23.227112
203 0 1 -0.679110 -1.897951 23.590210
204 0 1 -0.872225 -2.600547 24.219696
205 0 1 -1.623242 -2.942874 23.687897
206 0 1 -2.313978 -3.549978 23.781189
207 0 1 -2.042149 -4.406707 23.451416
208 0 1 -1.419029 -4.531217 24.238586
209 0 1 -1.138321 -3.722118 24.690002
210 0 1 -2.031548 -3.355897 24.922089
211 0 1 -2.816927 -3.364026 25.436188
212 0 1 -2.220268 -2.791133 26.017090
213 0 1 -1.313959 -3.209077 26.113403
214 0 1 -1.670139 -3.091373 27.047394
215 0 1 -1.576168 -3.877177 27.654999
216 0 1 -1.914448 -3.206296 28.236603
217 0 1 -2.733868 -2.828614 28.583710
218 0 1 -3.517467 -3.452047 28.638702
219 0 1 -4.369448 -3.236278 28.251312
220 0 1 -4.767567 -3.055034 27.364594
221 0 1 -5.194468 -2.960935 26.444794
222 0 1 -4.423517 -3.200017 25.853394
223 0 1 -3.949198 -3.327016 25.061401
224 0 1 -4.372967 -2.491260 25.085297
225 0 1 -4.472607 -2.717908 24.143494
226 0 1 -3.971249 -3.251937 23.474304
227 0 1 -3.580029 -3.587817 22.626587
228 0 1 -2.950998 -3.031783 22.186096
229 0 1 -2.077148 -3.383897 22.428894
230 0 1 -1.699719 -4.049568 21.818298
231 0 1 -2.566498 -4.316198 21.774704
232 0 1 -3.050968 -5.075628 22.079498
233 0 1 -3.796118 -5.434648 21.596405
234 0 1 -4.488049 -5.633478 22.187592
235 0 1 -4.808949 -6.581977 22.317993
236 0 1 -5.282248 -7.101387 22.978607
237 0 1 -5.627357 -7.944637 22.585693
238 0 1 -4.875778 -8.352597 23.080688
239 0 1 -3.906767 -8.482347 23.108490
240 0 1 -3.737608 -9.391637 23.372711
241 0 1 -3.264738 -9.686757 22.617615
242 0 1 -3.758148 -9.618318 21.753098
243 0 1 -4.680628 -9.656976 21.409302
244 0 1 -4.947418 -10.238656 22.104599
245 0 1 -5.868738 -10.410676 22.430298
246 0 1 -6.574177 -10.029487 23.021606
247 0 1 -5.702557 -10.111117 23.471191
248 0 1 -6.151077 -9.895667 24.318604
249 0 1 -6.124119 -10.712358 24.837006
250 0 1 -6.871578 -10.345647 25.409210
251 0 1 -7.410767 -9.628556 25.688202
252 0 1 -7.912708 -9.713918 24.869690
253 0 1 -7.484097 -9.186418 24.095490
254 0 1 -7.226957 -10.093677 24.047699
255 0 1 -7.525507 -10.929708 23.892914
256 0 1 -8.392828 -10.624036 23.580811
257 0 1 -8.481987 -11.155396 24.387299
258 0 1 -8.820498 -10.628888 25.139008
259 0 1 -9.109009 -11.488038 25.511200
260 0 1 -9.450897 -10.897986 26.281403
261 0 1 -10.036469 -10.394135 26.834595
262 0 1 -9.225658 -10.072877 27.106506
263 0 1 -8.962856 -10.233867 28.003510
264 0 1 -8.242878 -10.685838 28.490692
265 0 1 -7.283298 -10.509896 28.551697
266 0 1 -7.551468 -11.255366 29.044189
267 0 1 -7.160618 -12.069007 28.558807
268 0 1 -6.700918 -12.310998 29.354797
269 0 1 -6.195198 -12.960597 29.937500
270 0 1 -6.710968 -13.636897 29.456696
271 0 1 -6.052937 -14.200397 28.937103
272 0 1 -5.994127 -14.982596 29.468506
273 0 1 -6.783598 -15.477498 29.338501
274 0 1 -6.718388 -16.323198 28.856506
275 0 1 -7.045488 -16.007597 27.977692
276 0 1 -6.575619 -15.645696 27.201508
277 0 1 -7.462887 -15.384397 27.002899
278 0 1 -8.274467 -14.764596 26.962402
279 0 1 -7.574827 -14.262498 26.631104
280 0 1 -6.812527 -13.833097 26.229889
281 0 1 -6.923798 -13.920297 25.220215
282 0 1 -6.902477 -13.376798 24.453796
283 0 1 -5.948078 -13.333398 24.417206
284 0 1 -5.792248 -13.361398 25.332214
285 0 1 -5.157417 -13.562797 25.988708
286 0 1 -5.056438 -12.812898 26.554993
287 0 1 -5.259108 -11.883117 26.808289
288 0 1 -4.419277 -11.652667 27.348511
289 0 1 -4.972868 -11.259477 28.047699
290 0 1 -4.288858 -10.665788 28.195709
291 0 1 -4.616138 -9.847457 27.866516
292 0 1 -5.434658 -10.010396 27.377289
293 0 1 -4.955627 -10.415048 26.568695
294 0 1 -4.488798 -10.130927 25.730896
295 0 1 -3.592167 -9.940757 25.855499
296 0 1 -3.703428 -9.984637 26.876099
297 0 1 -3.278057 -10.249106 27.671814
298 0 1 -2.603378 -10.009227 28.333984
299 0 1 -1.750561 -9.971057 27.889008
300 0 1 -0.992857 -10.298398 27.469513
301 0 1 -0.538794 -9.493667 27.370911
302 0 1 0.258713 -9.447997 26.815094
303 0 1 -0.107920 -10.150216 26.388306
304 0 1 -0.289089 -10.954236 26.814514
305 0 1 0.382723 -10.955956 27.535492
306 0 1 0.531513 -10.878577 28.503113
307 0 1 0.796951 -9.937007 28.458099
308 0 1 1.262482 -10.406476 29.123199
309 0 1 2.172821 -10.442376 28.746002
310 0 1 2.234161 -10.250226 27.756989
311 0 1 1.809151 -9.881246 26.951508
312 0 1 2.217373 -10.591487 26.395813
313 0 1 2.269524 -11.431275 26.951416
314 0 1 3.136204 -11.676698 27.322510
315 0 1 3.884121 -11.704427 27.984894
316 0 1 4.655594 -12.358497 28.108307
317 0 1 4.983322 -11.554585 28.555389
318 0 1 4.995213 -10.849465 29.141785
319 0 1 5.684052 -11.285827 29.651794
320 0 1 6.530540 -11.143647 30.119110
321 0 1 6.981853 -11.870477 29.711212
322 0 1 6.592461 -12.665196 29.974915
323 0 1 7.356140 -13.252097 30.073608
324 0 1 7.859303 -12.731397 29.423309
325 0 1 8.695602 -12.651998 29.894196
326 0 1 9.244232 -13.424798 30.167694
327 0 1 9.290333 -13.417296 31.172699
328 0 1 8.608253 -12.852897 30.976410
329 0 1 8.867661 -11.961076 31.316895
330 0 1 9.271133 -11.424157 32.126190
331 0 1 9.972733 -10.770165 32.191803
332 0 1 9.598133 -10.421918 31.327606
333 0 1 10.173931 -9.849908 30.784912
334 0 1 9.937233 -9.056886 31.237488
335 0 1 9.225933 -8.437167 31.439697
336 0 1 9.056843 -7.520927 31.521606
337 0 1 8.964314 -7.201698 32.460999
338 0 1 9.588333 -6.772207 33.047394
339 0 1 9.288532 -5.869398 32.815704
340 0 1 9.242630 -4.965078 32.528412
341 0 1 9.415234 -4.010078 32.396790
342 0 1 9.239532 -3.027938 32.412415
343 0 1 8.333622 -3.038802 32.079590
344 0 1 8.155563 -2.061052 32.097992
345 0 1 7.202713 -2.154176 32.285309
346 0 1 6.789112 -1.309984 32.170288
347 0 1 6.679184 -1.784646 33.071411
348 0 1 6.477932 -1.560165 33.939087
349 0 1 7.053623 -1.726978 34.663086
350 0 1 6.725281 -1.598281 35.541412
351 0 1 6.754494 -2.553783 35.377197
352 0 1 7.437092 -3.201596 35.229187
353 0 1 7.710571 -3.040094 36.143005
354 0 1 7.043694 -3.693317 36.125000
355 0 1 7.459435 -4.245908 35.378906
356 0 1 8.011833 -5.058088 35.779785
357 0 1 7.703312 -5.181966 36.695801
358 0 1 6.796543 -5.322427 36.416412
359 0 1 5.972893 -5.148588 36.920288
360 0 1 5.211823 -4.530567 36.879791
361 0 1 5.014252 -4.589958 37.911499
362 0 1 4.402241 -4.190847 38.636810
363 0 1 3.469433 -4.188028 38.524902
364 0 1 3.775841 -3.290286 38.483002
365 0 1 3.822224 -2.570235 37.801605
366 0 1 4.345024 -1.784744 37.931000
367 0 1 4.452271 -1.501905 37.016785
368 0 1 5.128181 -1.119937 36.430786
369 0 1 4.516571 -0.538537 35.870087
370 0 1 4.178211 -0.291375 35.012909
371 0 1 3.796284 0.614382 35.387695
372 0 1 2.948872 1.039984 35.592010
373 0 1 3.008232 2.021083 35.702911
374 0 1 3.848812 1.713565 36.061188
375 0 1 4.281563 1.682284 36.856689
376 0 1 4.245422 0.773024 36.531708
377 0 1 4.271923 0.623664 37.469788
378 0 1 5.165131 0.465533 37.746307
379 0 1 5.379284 0.205294 36.837585
380 0 1 5.134071 0.571765 35.979401
381 0 1 5.612572 1.421164 35.830109
382 0 1 6.241283 0.722144 35.662598
383 0 1 6.869823 0.091262 35.263306
384 0 1 7.612492 0.761203 35.305786
385 0 1 8.539753 0.722834 35.566803
386 0 1 8.370213 -0.043859 34.998108
387 0 1 8.655334 -0.823737 35.416016
388 0 1 9.529331 -1.034606 35.125092
389 0 1 10.358433 -1.363075 34.773804
390 0 1 9.906631 -2.232631 34.770599
391 0 1 10.077534 -3.187738 34.887787
392 0 1 10.824234 -2.786226 34.449005
393 0 1 11.402634 -2.912526 33.643707
394 0 1 11.900230 -2.686704 32.958099
395 0 1 12.398933 -2.937518 32.195984
396 0 1 11.843533 -2.199203 31.840210
397 0 1 11.942432 -1.276222 31.515289
398 0 1 12.897533 -1.303991 31.822296
399 0 1 13.587631 -1.299905 31.217896
400 0 1 13.568733 -0.390317 31.230103
401 0 1 14.545433 -0.356447 31.101013
402 0 1 15.273132 -0.115438 31.635315
403 0 1 16.157932 0.236575 31.332397
404 0 1 16.620132 1.065692 31.098694
405 0 1 16.253334 1.860884 30.547394
406 0 1 15.778831 1.711722 31.390198
407 0 1 14.980934 2.026091 31.859314
408 0 1 14.334332 1.579093 32.440094
409 0 1 13.937332 2.354842 32.048584
410 0 1 14.108532 2.902083 32.763794
411 0 1 14.861431 3.485652 32.903595
412 0 1 14.723534 4.528292 33.042297
413 0 1 15.199333 5.395804 33.102905
414 0 1 15.072731 5.958582 32.274811
415 0 1 14.666233 6.520854 31.591888
416 0 1 14.697533 5.802863 30.896088
417 0 1 14.003231 6.254523 30.380188
418 0 1 13.225731 6.754984 29.969788
419 0 1 13.584534 6.711894 29.102905
420 0 1 13.212833 5.827731 28.999512
421 0 1 12.620331 5.575842 29.762909
422 0 1 12.000633 6.131323 29.203186
423 0 1 11.100433 6.256922 28.932892
424 0 1 10.213932 5.867861 28.850098
425 0 1 9.303032 5.826594 28.779602
426 0 1 9.323235 6.271533 29.684601
427 0 1 9.635933 6.537302 30.563293
428 0 1 8.668411 6.583533 30.423584
429 0 1 7.848362 6.196593 30.846588
430 0 1 7.325661 6.617804 30.088196
431 0 1 7.809452 6.253943 29.262787
432 0 1 7.421074 5.343562 29.369904
433 0 1 7.880772 4.762724 30.003296
434 0 1 8.032963 3.725505 30.050110
435 0 1 7.787434 3.136431 30.791901
436 0 1 6.942902 3.549311 30.955505
437 0 1 6.777084 3.470492 29.977386
438 0 1 6.505241 2.754744 30.533112
439 0 1 7.172493 2.055644 30.492096
440 0 1 6.618851 1.475382 30.986694
441 0 1 7.363571 1.056452 30.619507
442 0 1 8.128811 0.384265 30.695190
443 0 1 7.756081 -0.289518 31.351990
444 0 1 7.316612 -0.998847 30.837097
445 0 1 7.577522 -0.963046 29.906403
446 0 1 8.543144 -0.672887 29.962097
447 0 1 8.856083 -0.726707 28.979614
448 0 1 8.229671 -0.633039 28.228699
449 0 1 7.716911 -1.407592 27.943695
450 0 1 8.288174 -2.122176 27.726196
451 0 1 7.715893 -2.820211 27.987488
452 0 1 6.957993 -2.934190 28.593292
453 0 1 6.554314 -2.491361 29.402802
454 0 1 6.497791 -3.464668 29.700989
455 0 1 6.874763 -4.352108 29.691803
456 0 1 5.926674 -4.501567 29.643707
457 0 1 6.163292 -4.474458 28.713409
458 0 1 5.980011 -4.869207 27.897308
459 0 1 6.920662 -4.894718 27.646210
460 0 1 7.778610 -5.404407 27.595886
461 0 1 7.855762 -4.594278 27.060913
462 0 1 8.442451 -4.006658 27.490906
463 0 1 8.748474 -3.750137 26.500305
464 0 1 8.965912 -2.953351 26.960297
465 0 1 9.425533 -2.518573 27.619110
466 0 1 10.211933 -2.211498 27.235413
467 0 1 9.556633 -1.563150 27.468994
468 0 1 9.919434 -0.709117 27.539001
469 0 1 10.387733 0.033572 27.196198
470 0 1 10.961132 0.707823 27.710907
471 0 1 11.623032 0.235072 28.262207
472 0 1 11.601730 1.204444 28.460297
473 0 1 12.323235 0.904143 27.920715
474 0 1 12.962032 0.342284 27.524506
475 0 1 13.601032 1.030482 27.583984
476 0 1 14.212032 1.741774 27.441406
477 0 1 13.750732 1.387725 26.651306
478 0 1 14.156731 1.733454 25.852295
479 0 1 15.011631 2.220073 25.726990
480 0 1 14.976532 2.715163 24.859100
481 0 1 14.389633 2.898673 24.090607
482 0 1 13.646732 2.842051 24.742706
483 0 1 13.555733 3.763522 25.052612
484 0 1 13.371231 4.250723 24.195892
485 0 1 13.701530 3.935584 23.357788
486 0 1 13.979733 4.833514 23.227509
487 0 1 13.487434 5.604872 23.504089
488 0 1 13.303432 5.406844 24.452606
489 0 1 12.419033 5.680903 24.707489
490 0 1 12.482632 5.444811 23.760712
491 0 1 12.647934 4.793852 23.041016
492 0 1 12.091133 4.160094 23.498596
493 0 1 11.366734 4.242724 22.756012
494 0 1 10.778133 3.471995 22.692200
495 0 1 10.736732 2.436084 22.454697
496 0 1 9.995033 2.679385 22.957794
497 0 1 9.887131 2.708804 23.848297
498 0 1 9.820633 2.861613 24.781006
499 0 1 10.486534 3.592555 24.722687
500 0 1 11.103432 3.096484 25.347412
501 0 1 10.198532 3.132861 25.808716
502 0 1 9.752232 3.774665 26.329895
503 0 1 9.396431 3.728144 27.227905
504 0 1 8.707233 3.474524 26.519012
505 0 1 8.232864 3.457892 27.371307
506 0 1 7.316833 3.320163 27.129303
507 0 1 6.534542 3.487822 27.500793
508 0 1 6.284424 4.094904 26.790802
509 0 1 5.756054 4.708972 27.343811
510 0 1 5.472412 4.988925 28.199799
511 0 1 4.917770 5.186793 28.944794
512 0 1 4.020363 5.008223 29.200195
513 0 1 4.313953 4.537161 30.010010
514 0 1 5.244392 4.478663 30.313812
515 0 1 5.089790 4.151194 31.197693
516 0 1 4.359241 4.793372 31.341614
517 0 1 3.952961 3.894824 31.605194
518 0 1 3.215473 4.486792 31.372009
519 0 1 2.393234 4.814272 30.942993
520 0 1 1.932541 5.257983 30.258698
521 0 1 1.449673 5.022471 29.443298
522 0 1 0.792621 5.576743 28.891602
523 0 1 0.218681 6.359011 28.826508
524 0 1 -0.218357 6.472872 27.914612
525 0 1 -1.137047 6.299803 27.857208
526 0 1 -1.757490 6.580264 27.201813
527 0 1 -1.807768 7.505671 27.131805
528 0 1 -2.331337 8.083201 27.713989
529 0 1 -2.626787 8.936202 28.212585
530 0 1 -3.096937 8.971404 27.382812
531 0 1 -3.720968 8.508803 26.746307
532 0 1 -3.610157 7.801005 27.403290
533 0 1 -3.773548 8.116603 28.314301
534 0 1 -4.367708 8.856502 28.550903
535 0 1 -4.722878 9.675403 28.112091
536 0 1 -4.362907 9.331004 27.253906
537 0 1 -4.187107 10.349303 27.470612
538 0 1 -4.453238 11.341804 27.425598
539 0 1 -3.940777 11.617503 26.688995
540 0 1 -3.168348 11.359504 26.113586
541 0 1 -3.014797 10.413604 26.332001
542 0 1 -2.714108 9.520003 26.252014
543 0 1 -3.240118 8.940906 25.716888
544 0 1 -3.207088 8.087005 25.361511
545 0 1 -3.259777 8.009501 24.421814
546 0 1 -4.054197 7.877001 23.913086
547 0 1 -3.843317 7.801394 22.983307
548 0 1 -4.733698 7.629714 22.721710
549 0 1 -4.236948 6.857691 22.348907
550 0 1 -3.670858 6.683943 21.548401
551 0 1 -2.840008 6.783232 21.087799
552 0 1 -1.917978 7.103262 21.465393
553 0 1 -1.468313 7.973502 21.384903
554 0 1 -1.587040 8.145404 22.303192
555 0 1 -0.638483 8.173602 22.440094
556 0 1 0.072279 7.649054 22.840088
557 0 1 -0.342308 6.833083 23.220795
558 0 1 -0.517902 6.051592 23.811310
559 0 1 -0.480400 5.205233 24.212585
560 0 1 -0.428738 5.813731 24.973816
561 0 1 -0.912953 6.462763 25.522705
562 0 1 -0.304039 5.864783 26.059204
563 0 1 0.704311 5.637385 26.015289
564 0 1 0.682953 5.556811 26.960602
565 0 1 0.834381 4.577712 26.968811
566 0 1 0.735302 3.648013 26.632996
567 0 1 1.068500 3.416053 25.664490
568 0 1 0.917381 2.424983 25.664490
569 0 1 0.190567 1.989741 25.267212
570 0 1 0.013809 2.284114 24.412994
571 0 1 -0.887018 2.236663 24.773102
572 0 1 -0.896647 2.101783 25.791809
573 0 1 -0.477677 2.854064 26.176514
574 0 1 -0.585476 3.814502 26.134491
575 0 1 -1.126341 4.549204 25.852386
576 0 1 -1.411385 4.658381 26.786713
577 0 1 -2.445057 4.869841 26.887207
578 0 1 -3.212198 4.597754 27.379395
579 0 1 -3.700258 3.839175 27.716095
580 0 1 -4.643818 4.069483 27.896393
581 0 1 -4.672577 4.547003 28.720215
582 0 1 -5.239927 3.732264 29.007690
583 0 1 -5.947958 3.166983 28.632904
584 0 1 -6.563309 3.141024 27.906799
585 0 1 -6.525188 4.102843 27.813995
586 0 1 -6.081398 4.911471 27.523315
587 0 1 -5.497568 5.219122 26.767609
588 0 1 -5.408918 6.132903 26.986298
589 0 1 -5.389288 7.103953 26.722809
590 0 1 -6.299427 7.451384 26.960907
591 0 1 -6.846039 6.697421 27.277008
592 0 1 -7.055458 6.952494 26.312988
593 0 1 -8.037157 6.555354 26.355804
594 0 1 -8.136448 6.496192 25.349091
595 0 1 -8.635347 5.995020 24.665497
596 0 1 -8.911709 5.268633 25.238892
597 0 1 -8.848238 4.377802 25.759888
598 0 1 -8.896229 3.821193 26.517303
599 0 1 -8.000738 3.396823 26.813110
600 0 1 -7.988258 3.187434 27.753601
601 0 1 -8.679058 2.751223 28.301788
602 0 1 -9.071957 2.658202 27.413696
603 0 1 -8.598627 1.861384 27.626801
604 0 1 -9.388178 1.676821 27.090607
605 0 1 -9.247787 0.670344 27.248901
606 0 1 -9.634369 -0.133558 27.644012
607 0 1 -10.172638 -0.850168 27.363007
608 0 1 -9.414017 -0.718908 26.774902
609 0 1 -8.577057 -0.694578 27.309204
610 0 1 -8.748468 -1.479181 27.871887
611 0 1 -8.237648 -1.612327 27.125092
612 0 1 -7.494167 -1.748813 26.502502
613 0 1 -8.067978 -2.273116 25.962006
614 0 1 -8.802559 -2.672195 26.484406
615 0 1 -8.777977 -3.399396 25.800415
616 0 1 -8.959608 -4.292306 25.351288
617 0 1 -9.671738 -4.506628 24.717987
618 0 1 -9.113049 -3.941177 24.119293
619 0 1 -9.735378 -3.400047 23.690002
620 0 1 -9.291767 -3.299398 22.814697
621 0 1 -8.586908 -3.023029 23.399506
622 0 1 -8.034767 -2.978914 22.554199
623 0 1 -8.024307 -3.719507 22.016098
624 0 1 -8.592478 -3.885337 21.276703
625 0 1 -8.824398 -4.701566 21.632706
626 0 1 -9.362846 -5.284936 22.129105
627 0 1 -10.329067 -5.394357 22.159393
628 0 1 -11.050167 -5.950767 22.150696
629 0 1 -11.434467 -6.244077 21.294403
630 0 1 -10.966267 -5.644207 20.666595
631 0 1 -10.970568 -4.762758 20.244003
632 0 1 -10.816368 -4.199178 21.034195
633 0 1 -11.646568 -3.722596 20.781204
634 0 1 -12.537767 -3.967277 21.020599
635 0 1 -13.212269 -4.001108 20.244904
636 0 1 -12.884167 -3.911706 19.366196
637 0 1 -13.140068 -3.097167 18.871307
638 0 1 -12.693768 -2.615852 19.636703
639 0 1 -13.595268 -2.718095 19.793793
640 0 1 -14.512068 -2.499383 19.809402
641 0 1 -14.419767 -2.338977 20.723602
642 0 1 -14.730667 -1.812604 21.416107
643 0 1 -13.963367 -1.200029 21.290604
644 0 1 -13.244867 -1.750411 20.931198
645 0 1 -13.249767 -1.809926 19.990601
646 0 1 -12.912468 -0.960677 20.230804
647 0 1 -12.832968 -0.787366 21.129105
648 0 1 -11.974468 -0.447809 21.371002
649 0 1 -11.480167 -1.215103 21.322601
650 0 1 -11.760168 -1.425804 20.473206
651 0 1 -11.245968 -1.731361 19.737503
652 0 1 -11.406467 -2.659219 19.386200
653 0 1 -11.511269 -3.015613 18.507294
654 0 1 -10.660099 -2.860847 18.110397
655 0 1 -10.591537 -3.641946 17.627701
656 0 1 -11.395367 -4.079248 17.931900
657 0 1 -10.560787 -4.599168 18.177902
658 0 1 -9.908758 -5.266206 17.906494
659 0 1 -9.516598 -6.125568 17.634003
660 0 1 -8.725628 -6.345787 17.022995
661 0 1 -8.869738 -7.218547 16.683701
662 0 1 -8.098137 -7.820188 16.701996
663 0 1 -7.525068 -7.212297 16.228897
664 0 1 -7.539167 -7.737588 15.328202
665 0 1 -8.293848 -8.295087 15.125901
666 0 1 -7.433418 -8.772557 15.149293
667 0 1 -7.845139 -9.341737 15.792802
668 0 1 -7.149887 -9.867827 15.334596
669 0 1 -7.195557 -10.692117 14.880097
670 0 1 -7.774647 -11.395696 15.157899
671 0 1 -8.691708 -11.270127 15.293199
672 0 1 -8.677048 -12.214696 15.721604
673 0 1 -7.883768 -12.745996 15.487901
674 0 1 -8.068748 -12.972695 16.433395
675 0 1 -8.447718 -13.838098 16.401093
676 0 1 -8.314268 -13.720998 17.307892
677 0 1 -8.956337 -12.982198 17.166107
678 0 1 -9.463837 -12.178197 17.337708
679 0 1 -9.706306 -11.863147 16.483002
680 0 1 -10.594608 -12.220498 16.225296
681 0 1 -11.512867 -12.444497 16.624908
682 0 1 -11.650669 -12.772298 17.492996
683 0 1 -12.278168 -13.269795 18.050598
684 0 1 -12.814768 -12.712598 17.377502
685 0 1 -12.788567 -11.884967 16.925293
686 0 1 -12.852467 -10.907796 16.925201
687 0 1 -12.374767 -10.242826 17.403198
688 0 1 -11.934868 -9.411107 17.337097
689 0 1 -11.486668 -9.701417 16.499405
690 0 1 -12.076267 -9.028676 16.136597
691 0 1 -12.148869 -9.851867 15.617997
692 0 1 -12.887466 -9.564546 14.951997
693 0 1 -12.190968 -9.648807 14.278504
694 0 1 -11.782066 -10.481446 14.543900
695 0 1 -10.935867 -10.416688 14.976197
696 0 1 -9.955828 -10.724736 14.887696
697 0 1 -9.785427 -11.070666 13.994599
698 0 1 -9.717377 -11.742375 13.316194
699 0 1 -9.623878 -11.169837 12.522599
700 0 1 -9.807957 -10.250867 12.519807
701 0 1 -9.849077 -9.357907 12.836396
702 0 1 -10.595829 -8.702546 12.884095
703 0 1 -11.313469 -8.735646 12.306199
704 0 1 -11.248367 -9.601497 12.754899
705 0 1 -11.727669 -10.374547 12.420396
706 0 1 -11.951868 -11.102746 11.815095
707 0 1 -12.906467 -11.216718 11.742402
708 0 1 -13.450468 -10.631667 11.234101
709 0 1 -14.020767 -11.331197 11.464601
710 0 1 -13.560966 -11.771935 10.742295
711 0 1 -12.983368 -12.572396 10.733903
712 0 1 -12.741268 -12.372897 9.823319
713 0 1 -13.049267 -11.968387 8.913239
714 0 1 -13.401068 -12.897696 9.067964
715 0 1 -13.981667 -13.379996 8.493226
716 0 1 -13.101368 -13.780797 8.213944
717 0 1 -12.208868 -13.654798 7.853486
718 0 1 -11.906567 -13.475097 6.884888
719 0 1 -11.472267 -14.342698 6.743561
720 0 1 -10.813969 -14.589196 6.106003
721 0 1 -10.998568 -15.353196 6.681702
722 0 1 -10.338898 -16.063898 6.344147
723 0 1 -9.663347 -15.975097 5.684998
724 0 1 -9.579449 -15.476296 4.864563
725 0 1 -9.327347 -14.891297 5.590134
726 0 1 -8.546778 -14.565495 6.040360
727 0 1 -8.452488 -13.717597 5.535889
728 0 1 -7.718887 -13.323396 6.093247
729 0 1 -7.924837 -12.650598 5.430466
730 0 1 -8.735909 -12.498397 4.904892
731 0 1 -8.445267 -13.224996 4.254792
732 0 1 -9.396519 -13.194997 3.930268
733 0 1 -10.135387 -13.012998 3.416505
734 0 1 -9.694057 -12.999597 2.513444
735 0 1 -9.528896 -13.763997 1.994828
736 0 1 -8.659098 -14.161496 1.679795
737 0 1 -8.322308 -14.965398 1.423463
738 0 1 -8.558348 -15.883397 1.249573
739 0 1 -9.201408 -15.703095 0.532044
740 0 1 -10.093407 -15.341697 0.753556
741 0 1 -10.467339 -14.660096 1.296723
742 0 1 -10.309498 -15.456397 1.778702
743 0 1 -10.867668 -16.171898 1.536454
744 0 1 -11.473368 -15.395297 1.580018
745 0 1 -11.667368 -14.436097 1.543290
746 0 1 -11.879967 -13.558396 1.918565
747 0 1 -12.186567 -13.485997 1.013749
748 0 1 -11.961668 -13.142896 0.182130
749 0 1 -12.716667 -12.526795 0.416688
750 0 1 -13.300266 -11.795396 0.309251
751 0 1 -13.760368 -12.099618 -0.432632
752 0 1 -14.207169 -12.885396 -0.839599
753 0 1 -14.849468 -12.121346 -0.919860
754 0 1 -15.713668 -12.227696 -0.539184
755 0 1 -16.287369 -11.596868 -0.035919
756 0 1 -16.318468 -12.108136 0.862366
757 0 1 -15.768968 -12.610196 1.464783
758 0 1 -14.958467 -12.952397 1.892091
759 0 1 -15.539468 -13.456796 2.503220
760 0 1 -15.163168 -14.284097 2.965012
761 0 1 -14.878067 -14.340596 3.871705
762 0 1 -14.100967 -14.367097 4.435441
763 0 1 -14.477169 -13.423097 4.502762
764 0 1 -14.690868 -13.204896 5.430710
765 0 1 -15.133368 -12.568498 5.972474
766 0 1 -15.957767 -12.957295 6.139145
767 0 1 -16.481768 -13.479997 6.709244
768 0 1 -16.630568 -12.838397 7.364136
769 0 1 -17.200668 -12.287797 8.002534
770 0 1 -16.671268 -11.433877 8.008805
771 0 1 -16.559069 -10.491397 8.088075
772 0 1 -17.237968 -10.468467 8.844483
773 0 1 -17.396267 -9.556558 8.617768
774 0 1 -16.816668 -9.391828 9.347886
775 0 1 -16.146168 -9.160726 8.697602
776 0 1 -15.464568 -8.483388 8.900178
777 0 1 -15.724668 -8.981627 9.715226
778 0 1 -16.095568 -8.163177 10.137803
779 0 1 -16.346968 -7.191068 10.190705
780 0 1 -17.244667 -6.881448 10.153794
781 0 1 -17.920467 -6.298997 10.023103
782 0 1 -18.075668 -5.860446 9.153672
783 0 1 -18.635868 -5.124406 9.495210
784 0 1 -18.951468 -4.268888 9.528535
785 0 1 -19.568468 -4.485477 8.809297
786 0 1 -20.205769 -4.232107 9.483796