LAMMPS data file via MDAnalysis

        2000  atoms
        1999  bonds
           0  angles
           0  dihedrals
           0  impropers

           1  atom types
           1  bond types
           0  angle types
           0  dihedral types
           0  improper types

-30.5 30.5 xlo xhi
-30.5 30.5 ylo yhi
-233.5 233.5 zlo zhi


Masses

1 1.000000

Atoms

1 0 1 12.717320 -9.415366 34.662689
2 0 1 13.068509 -10.334556 34.531616
3 0 1 13.835488 -9.845246 34.730896
4 0 1 14.623090 -10.065686 35.226105
5 0 1 15.073770 -10.834155 35.632996
6 0 1 15.900338 -11.092956 35.150604
7 0 1 16.891371 -11.065656 34.826996
8 0 1 17.324018 -10.236756 34.973297
9 0 1 17.898321 -10.000766 35.657593
10 0 1 18.132719 -10.932256 35.736206
11 0 1 18.138521 -11.895755 35.892303
12 0 1 18.172319 -12.666856 35.315399
13 0 1 17.342020 -12.994555 35.731201
14 0 1 17.535822 -13.561557 36.526398
15 0 1 18.086222 -13.094556 37.207489
16 0 1 18.467920 -13.776456 37.783386
17 0 1 19.212019 -14.261556 38.150085
18 0 1 18.841021 -14.614757 39.012390
19 0 1 19.415419 -13.791957 39.149994
20 0 1 20.242819 -14.272155 39.179016
21 0 1 20.743418 -14.853456 39.815399
22 0 1 20.357019 -15.720256 39.870209
23 0 1 21.071321 -16.548456 39.543304
24 0 1 21.290419 -17.426256 39.907593
25 0 1 21.005720 -18.272158 39.340912
26 0 1 21.993120 -18.324556 39.015991
27 0 1 22.017618 -17.355257 39.090393
28 0 1 22.687819 -16.793358 38.700592
29 0 1 22.194521 -16.144556 38.189087
30 0 1 21.656118 -16.306557 37.411591
31 0 1 21.505621 -17.258158 37.379791
32 0 1 22.181120 -17.092857 36.746490
33 0 1 22.446321 -16.099957 36.446991
34 0 1 21.965818 -15.274356 36.296997
35 0 1 22.630220 -15.160156 36.945496
36 0 1 22.871019 -14.347356 37.374817
37 0 1 22.004820 -14.211455 37.619995
38 0 1 21.217218 -13.693255 37.654785
39 0 1 20.488718 -13.177855 37.350189
40 0 1 20.676920 -13.636157 36.565002
41 0 1 20.150320 -13.872657 35.786804
42 0 1 19.421518 -13.236655 35.967194
43 0 1 19.777719 -12.755956 35.197906
44 0 1 19.173620 -12.212356 34.618011
45 0 1 18.832418 -11.300357 34.806488
46 0 1 18.999319 -10.401856 34.987610
47 0 1 19.821817 -10.963956 35.063202
48 0 1 20.580420 -11.234756 35.526794
49 0 1 20.846720 -10.340255 35.772888
50 0 1 21.419420 -10.411256 35.059509
51 0 1 21.707918 -11.083957 34.429688
52 0 1 20.935320 -11.605056 34.136200
53 0 1 20.708220 -11.922957 33.220306
54 0 1 20.081720 -12.238456 32.562317
55 0 1 19.589819 -12.588355 33.405609
56 0 1 18.885920 -13.111457 32.951691
57 0 1 18.958521 -12.498256 32.226501
58 0 1 18.051920 -12.198956 32.314697
59 0 1 17.325720 -12.013656 31.717712
60 0 1 16.497351 -11.541356 31.645203
61 0 1 15.846070 -10.937356 31.349304
62 0 1 15.702107 -10.416957 32.131897
63 0 1 14.870790 -10.003417 32.272217
64 0 1 14.557969 -9.424666 31.655396
65 0 1 14.224839 -8.505046 31.644104
66 0 1 14.026299 -7.660337 31.284607
67 0 1 14.395940 -7.124696 30.613495
68 0 1 14.540460 -6.718406 29.744202
69 0 1 15.386449 -6.700756 29.374084
70 0 1 15.895631 -5.910858 29.363586
71 0 1 15.758069 -5.312887 30.092010
72 0 1 15.430940 -4.410516 30.576202
73 0 1 15.699918 -4.447286 31.584808
74 0 1 15.484071 -4.576066 32.501312
75 0 1 15.142579 -5.447677 32.015594
76 0 1 15.147359 -6.315517 31.691406
77 0 1 14.279809 -6.031967 31.361298
78 0 1 13.449098 -6.537107 31.292786
79 0 1 13.304238 -6.246376 32.162506
80 0 1 13.627847 -6.593467 32.939392
81 0 1 13.703828 -7.440055 32.386810
82 0 1 13.804868 -7.935836 33.237610
83 0 1 13.998040 -7.677566 34.112610
84 0 1 14.655049 -7.006706 34.156708
85 0 1 15.111291 -7.376266 34.989685
86 0 1 14.410359 -7.009727 35.552704
87 0 1 13.793347 -6.264476 35.527405
88 0 1 13.330461 -7.061058 35.252594
89 0 1 12.602757 -6.806816 34.728790
90 0 1 11.699750 -6.638267 34.581299
91 0 1 11.262071 -6.684085 35.465515
92 0 1 10.633279 -6.339267 34.747406
93 0 1 10.227098 -5.502077 34.562317
94 0 1 9.383550 -5.163877 34.158813
95 0 1 9.940999 -5.453727 33.432007
96 0 1 9.770391 -4.495647 33.417999
97 0 1 10.750669 -4.569616 33.445099
98 0 1 11.485410 -4.145887 33.936890
99 0 1 11.958390 -4.549026 33.123810
100 0 1 12.407948 -4.780656 33.913696
101 0 1 12.431928 -4.676357 34.885010
102 0 1 12.177720 -4.229908 35.721985
103 0 1 11.277890 -4.407257 35.882599
104 0 1 11.072530 -4.687677 36.745300
105 0 1 10.827977 -5.375247 36.057495
106 0 1 10.293950 -6.157836 36.110992
107 0 1 9.546807 -5.686536 35.743286
108 0 1 9.084748 -6.224546 36.413605
109 0 1 9.431798 -5.918716 37.260406
110 0 1 9.610860 -5.054706 36.761993
111 0 1 9.867089 -4.922706 37.651306
112 0 1 9.406468 -4.182287 38.071594
113 0 1 9.013028 -4.693798 38.752594
114 0 1 8.548308 -5.371955 39.238312
115 0 1 8.740399 -6.052368 39.903687
116 0 1 9.523217 -6.595167 40.169312
117 0 1 10.302030 -6.832607 39.583405
118 0 1 10.194428 -7.618686 40.114899
119 0 1 10.019269 -7.953577 41.005310
120 0 1 10.626538 -7.494857 41.583588
121 0 1 10.557038 -7.660066 42.484406
122 0 1 11.475987 -7.607107 42.325592
123 0 1 11.916337 -7.030216 42.973999
124 0 1 12.690228 -6.449466 42.812592
125 0 1 12.892980 -6.487377 43.699585
126 0 1 13.659360 -6.028436 43.397217
127 0 1 14.341950 -6.071487 42.686188
128 0 1 13.915940 -6.954866 42.721191
129 0 1 14.040139 -7.360487 43.554993
130 0 1 14.481210 -8.208995 43.477295
131 0 1 15.213677 -8.214335 42.866516
132 0 1 15.763558 -8.874486 42.458588
133 0 1 16.267832 -9.468047 43.148987
134 0 1 16.162321 -9.371085 44.124695
135 0 1 16.249300 -8.929576 44.965302
136 0 1 16.307230 -8.081716 45.408203
137 0 1 15.528108 -7.614656 45.752594
138 0 1 16.106089 -7.325428 46.407104
139 0 1 16.424318 -6.535177 46.863800
140 0 1 15.787728 -6.196086 46.252899
141 0 1 15.119477 -6.756397 46.610809
142 0 1 15.360658 -7.393346 47.292603
143 0 1 15.167390 -8.072745 47.942108
144 0 1 15.498799 -8.453706 48.777893
145 0 1 15.111947 -7.654207 49.099304
146 0 1 14.519338 -7.527217 49.834991
147 0 1 15.080979 -7.730876 50.700104
148 0 1 14.628449 -8.492066 50.312012
149 0 1 13.845708 -8.003627 50.631104
150 0 1 13.095429 -8.288056 51.210388
151 0 1 12.395680 -8.118316 50.576813
152 0 1 11.569787 -8.498427 50.414185
153 0 1 10.797677 -9.090426 50.256989
154 0 1 10.198968 -9.345855 49.497589
155 0 1 9.721578 -10.119956 49.109406
156 0 1 9.705838 -10.656455 49.942291
157 0 1 10.296990 -11.344356 49.817810
158 0 1 10.691487 -10.850356 50.561310
159 0 1 11.392739 -10.216756 50.626007
160 0 1 12.077569 -10.889857 50.853210
161 0 1 12.213578 -11.179656 51.763397
162 0 1 12.543290 -10.292756 51.801208
163 0 1 12.071820 -9.537686 52.239685
164 0 1 12.499700 -8.674567 52.255798
165 0 1 12.161828 -7.806577 52.401001
166 0 1 11.500390 -7.315506 51.933411
167 0 1 11.186578 -6.501787 51.545410
168 0 1 10.393228 -6.071727 51.917999
169 0 1 10.512620 -5.800247 52.895996
170 0 1 10.671899 -6.142816 53.745300
171 0 1 10.124799 -6.919548 53.489014
172 0 1 10.681058 -7.341556 52.825287
173 0 1 10.199967 -8.161635 52.597900
174 0 1 9.455171 -7.589536 52.851410
175 0 1 8.640309 -7.177467 52.751007
176 0 1 8.194638 -7.497146 53.556305
177 0 1 8.498479 -6.716867 54.104614
178 0 1 8.437888 -7.152387 54.902405
179 0 1 8.669599 -7.835126 55.614685
180 0 1 8.194980 -8.467286 55.037506
181 0 1 7.637855 -7.700336 54.903015
182 0 1 6.910768 -7.469577 54.348206
183 0 1 6.543312 -7.916677 55.123108
184 0 1 6.668535 -7.052917 55.501404
185 0 1 6.478778 -6.160575 55.487091
186 0 1 5.521299 -5.806655 55.437500
187 0 1 5.033800 -6.553886 55.785889
188 0 1 5.049089 -7.527706 55.834808
189 0 1 4.683210 -7.593057 54.991608
190 0 1 4.067939 -7.339447 55.646606
191 0 1 3.167348 -7.047687 56.035004
192 0 1 3.758190 -6.345756 56.221497
193 0 1 3.657739 -6.183345 57.139801
194 0 1 3.748979 -5.916137 58.053406
195 0 1 3.069459 -5.485517 58.573486
196 0 1 2.820959 -4.781127 59.267090
197 0 1 2.366209 -4.185426 58.655609
198 0 1 2.342140 -3.842077 57.737701
199 0 1 2.759859 -3.004596 57.618591
200 0 1 2.791830 -3.147857 58.561401
201 0 1 3.747018 -2.966356 58.493988
202 0 1 4.018699 -2.390436 59.174316
203 0 1 3.809619 -1.489927 58.915009
204 0 1 4.212598 -1.785957 58.157593
205 0 1 4.820030 -0.997331 58.340607
206 0 1 4.681610 -1.256807 57.412415
207 0 1 4.340200 -1.025548 56.514313
208 0 1 4.202629 -0.069173 56.432800
209 0 1 4.008119 0.901013 56.536407
210 0 1 3.155180 1.072573 56.882111
211 0 1 2.469860 0.453599 56.846405
212 0 1 2.291040 0.234690 55.942810
213 0 1 1.875459 -0.658243 55.972809
214 0 1 1.471780 -0.972885 56.742493
215 0 1 0.609708 -0.812074 56.197693
216 0 1 -0.103560 -0.200439 56.256012
217 0 1 -0.959422 0.119273 56.545502
218 0 1 -1.849720 -0.123130 56.197205
219 0 1 -2.346560 0.151526 55.427887
220 0 1 -2.062689 -0.798492 55.366211
221 0 1 -1.473952 -1.553497 55.117004
222 0 1 -1.717452 -1.801006 55.978394
223 0 1 -2.243170 -2.414356 56.485809
224 0 1 -2.696032 -3.207197 56.978516
225 0 1 -3.422480 -3.237257 57.549713
226 0 1 -3.729781 -3.505056 58.379395
227 0 1 -4.430981 -3.469627 59.174011
228 0 1 -5.058280 -2.925977 59.795715
229 0 1 -5.944682 -2.475517 60.096893
230 0 1 -6.891779 -2.612426 59.846497
231 0 1 -7.708081 -2.643337 59.331390
232 0 1 -8.458081 -3.115686 58.947205
233 0 1 -7.956781 -3.877136 58.522888
234 0 1 -7.092381 -3.521427 58.765503
235 0 1 -6.624180 -4.323137 58.618011
236 0 1 -7.350781 -5.014457 58.597107
237 0 1 -7.509981 -4.430076 57.793884
238 0 1 -7.266482 -3.732027 57.214508
239 0 1 -7.344180 -4.064407 56.250916
240 0 1 -7.712481 -3.204206 55.992493
241 0 1 -8.103581 -3.908987 55.498993
242 0 1 -7.976881 -4.849166 55.521912
243 0 1 -8.201081 -5.653926 56.058990
244 0 1 -7.876280 -5.764486 56.919708
245 0 1 -7.049281 -5.725566 57.320190
246 0 1 -6.704381 -6.495327 56.872711
247 0 1 -7.457981 -6.896646 57.238098
248 0 1 -7.274981 -7.792867 57.539185
249 0 1 -7.435681 -7.155616 58.224396
250 0 1 -7.964080 -7.763036 58.679810
251 0 1 -8.831982 -7.342956 58.563599
252 0 1 -9.171182 -6.930856 59.373688
253 0 1 -8.811381 -7.123506 60.202789
254 0 1 -9.155282 -6.675306 60.946716
255 0 1 -10.122182 -6.562007 61.074097
256 0 1 -10.483682 -7.368066 60.706604
257 0 1 -11.246581 -7.513437 60.068115
258 0 1 -11.669181 -6.656005 60.152100
259 0 1 -12.530881 -6.137956 60.249908
260 0 1 -13.036582 -6.426816 61.004700
261 0 1 -13.087581 -7.171916 60.406006
262 0 1 -12.565681 -7.866645 59.925507
263 0 1 -12.937781 -7.653797 59.045410
264 0 1 -13.563581 -7.045436 58.624390
265 0 1 -13.415181 -6.269216 58.141113
266 0 1 -12.421081 -6.367197 57.810089
267 0 1 -12.615781 -5.629676 58.423889
268 0 1 -11.720080 -5.187686 58.653900
269 0 1 -11.232081 -5.726547 59.332092
270 0 1 -10.742181 -6.237815 58.734802
271 0 1 -10.094281 -5.697505 58.304901
272 0 1 -10.025981 -5.978866 57.384216
273 0 1 -9.354781 -5.301345 57.530487
274 0 1 -8.986981 -5.288297 56.646393
275 0 1 -9.757781 -5.765256 56.323212
276 0 1 -10.719481 -5.638526 55.912994
277 0 1 -11.240781 -6.191837 56.455811
278 0 1 -11.268182 -6.582376 55.516205
279 0 1 -11.929082 -7.180915 54.966705
280 0 1 -12.505980 -6.670696 55.533386
281 0 1 -13.366881 -6.385347 55.826691
282 0 1 -13.833982 -6.406986 55.001099
283 0 1 -14.069982 -5.472087 54.893890
284 0 1 -14.827481 -6.098726 55.158203
285 0 1 -15.257081 -6.284866 56.003204
286 0 1 -15.561582 -5.813646 56.761993
287 0 1 -15.159680 -5.289836 57.509308
288 0 1 -14.581681 -5.300416 58.231384
289 0 1 -13.932881 -4.615827 58.198792
290 0 1 -14.172881 -3.774536 57.788391
291 0 1 -13.642781 -3.033716 58.105713
292 0 1 -12.968282 -3.558046 57.622406
293 0 1 -13.228480 -4.322757 56.995300
294 0 1 -12.981782 -5.237436 57.131989
295 0 1 -12.073981 -5.372316 57.461212
296 0 1 -11.231082 -4.980766 57.200104
297 0 1 -11.222180 -4.435266 56.375397
298 0 1 -10.337281 -4.388347 55.970215
299 0 1 -10.847180 -4.045076 55.206299
300 0 1 -11.689582 -4.511386 55.087799
301 0 1 -10.884881 -4.774707 54.449310
302 0 1 -10.220281 -4.133895 54.056213
303 0 1 -10.255481 -4.308357 53.120209
304 0 1 -11.264482 -4.195337 53.210815
305 0 1 -11.709481 -4.297718 52.358795
306 0 1 -12.149880 -5.108737 51.843384
307 0 1 -11.217782 -5.053087 51.649597
308 0 1 -10.511682 -4.436407 52.006897
309 0 1 -10.244882 -5.375537 52.275391
310 0 1 -10.087481 -6.358737 52.581207
311 0 1 -9.405082 -7.066717 52.412109
312 0 1 -9.375482 -7.551055 51.569397
313 0 1 -9.198380 -7.260257 50.669891
314 0 1 -9.995782 -7.650667 50.248993
315 0 1 -9.192182 -8.152545 50.026917
316 0 1 -8.432181 -8.473966 49.529114
317 0 1 -8.041182 -8.650596 50.398987
318 0 1 -7.097380 -8.877286 50.477783
319 0 1 -6.331782 -8.392306 50.086395
320 0 1 -5.625981 -9.005486 50.262390
321 0 1 -5.975180 -9.898757 50.197693
322 0 1 -5.901181 -10.191356 49.303284
323 0 1 -6.421080 -10.445357 48.517883
324 0 1 -6.484080 -11.271457 48.049591
325 0 1 -6.883181 -10.781156 47.369995
326 0 1 -6.348380 -10.081956 47.040588
327 0 1 -7.087679 -9.569776 46.971008
328 0 1 -7.851481 -10.155757 47.054596
329 0 1 -7.689981 -10.875255 46.439911
330 0 1 -7.038781 -11.397256 45.958496
331 0 1 -6.652682 -12.294456 45.906403
332 0 1 -6.364882 -12.983756 45.303101
333 0 1 -7.072880 -12.696956 44.605896
334 0 1 -7.924981 -12.326856 44.303802
335 0 1 -8.677081 -12.458856 44.850403
336 0 1 -9.619081 -12.459155 44.855286
337 0 1 -10.313981 -11.924457 44.345215
338 0 1 -10.476182 -12.304656 43.501190
339 0 1 -10.167081 -11.668456 42.867798
340 0 1 -10.799182 -11.949355 42.132507
341 0 1 -10.109080 -12.588656 41.816101
342 0 1 -9.622981 -13.422156 42.151093
343 0 1 -10.044881 -13.931056 41.455109
344 0 1 -10.703582 -14.381255 41.985413
345 0 1 -11.161681 -15.195756 41.603088
346 0 1 -11.857881 -14.781856 42.171814
347 0 1 -12.288581 -13.988856 41.753204
348 0 1 -11.654681 -13.289956 41.574402
349 0 1 -12.149581 -13.318255 40.738190
350 0 1 -11.902881 -13.565757 39.801208
351 0 1 -11.700082 -13.253657 38.918610
352 0 1 -11.459580 -12.542956 39.553802
353 0 1 -10.625180 -13.022155 39.778809
354 0 1 -9.921382 -12.637456 40.347687
355 0 1 -9.512582 -12.859456 39.520294
356 0 1 -9.309581 -13.046855 38.614899
357 0 1 -10.093581 -12.901355 38.107788
358 0 1 -10.417882 -12.111957 37.668396
359 0 1 -11.236381 -12.085555 38.098907
360 0 1 -11.048282 -11.187556 37.662292
361 0 1 -11.141480 -10.321555 37.317291
362 0 1 -10.701180 -10.381057 38.204102
363 0 1 -10.407081 -9.528987 38.493195
364 0 1 -9.726781 -9.915286 37.886505
365 0 1 -9.105281 -9.837096 37.188293
366 0 1 -9.474582 -10.551856 36.672089
367 0 1 -9.374581 -10.181556 35.784698
368 0 1 -8.444781 -10.334155 35.568298
369 0 1 -8.504581 -11.047355 36.223816
370 0 1 -7.953580 -10.363156 36.724396
371 0 1 -7.325079 -10.597556 37.483887
372 0 1 -6.599680 -10.914355 38.033905
373 0 1 -6.249682 -10.163657 37.425598
374 0 1 -5.533782 -10.468656 36.895386
375 0 1 -4.664280 -10.607055 36.483215
376 0 1 -5.282382 -10.255456 35.888000
377 0 1 -4.521281 -10.032836 35.273895
378 0 1 -3.860381 -9.860465 35.909607
379 0 1 -2.991080 -10.201255 36.134613
380 0 1 -2.814909 -9.831956 37.005615
381 0 1 -2.540921 -9.023707 37.426392
382 0 1 -3.169280 -8.289905 37.244293
383 0 1 -3.357180 -7.740716 36.503387
384 0 1 -4.037581 -7.404426 37.199310
385 0 1 -4.993580 -7.283136 37.080017
386 0 1 -5.850781 -7.664096 36.793701
387 0 1 -6.166480 -6.835046 36.411194
388 0 1 -6.881979 -7.318798 35.958588
389 0 1 -7.691781 -7.689487 36.326294
390 0 1 -8.448581 -7.084556 36.250702
391 0 1 -9.340581 -7.527217 36.256897
392 0 1 -9.930181 -7.774147 36.963013
393 0 1 -10.607781 -7.333286 37.470215
394 0 1 -10.149880 -6.487777 37.501099
395 0 1 -10.082181 -6.127326 38.396301
396 0 1 -10.725482 -5.992486 39.076416
397 0 1 -11.536481 -5.543087 38.813507
398 0 1 -12.364181 -5.945827 38.527313
399 0 1 -12.564382 -5.007856 38.275604
400 0 1 -13.426881 -4.822437 37.864594
401 0 1 -13.931981 -5.109836 37.053192
402 0 1 -14.877082 -5.024347 37.258789
403 0 1 -15.179582 -4.590335 38.078613
404 0 1 -16.004280 -4.359016 38.485687
405 0 1 -16.460081 -4.295986 39.322601
406 0 1 -17.221081 -4.379257 38.765808
407 0 1 -17.746580 -3.544456 38.948914
408 0 1 -17.027781 -3.492317 38.281616
409 0 1 -16.481581 -2.760667 38.411194
410 0 1 -15.918382 -3.195056 39.040588
411 0 1 -15.656581 -2.657886 39.841187
412 0 1 -16.178381 -2.567676 40.691406
413 0 1 -16.694080 -2.026817 40.111206
414 0 1 -16.422279 -1.659507 39.310913
415 0 1 -16.241581 -0.777387 39.056610
416 0 1 -15.893382 -0.968801 39.903900
417 0 1 -14.952981 -1.008014 39.866699
418 0 1 -15.008080 -1.251966 38.918884
419 0 1 -15.115882 -0.423667 38.385193
420 0 1 -14.841580 0.055802 37.491089
421 0 1 -13.915980 0.132018 37.734802
422 0 1 -13.192382 -0.205213 38.397400
423 0 1 -12.249082 -0.479427 38.152710
424 0 1 -11.390780 -0.118854 38.350403
425 0 1 -10.564582 -0.106895 37.984406
426 0 1 -11.244281 0.209866 37.257599
427 0 1 -11.280782 1.041024 37.585907
428 0 1 -12.129281 1.152203 37.950104
429 0 1 -12.381982 2.022553 37.652496
430 0 1 -11.485181 2.381363 37.246094
431 0 1 -11.415681 3.012722 36.626709
432 0 1 -12.366281 2.754582 36.780487
433 0 1 -13.218982 2.858632 36.413605
434 0 1 -13.553580 3.040833 35.536987
435 0 1 -13.897681 3.416462 34.755005
436 0 1 -14.304881 3.987263 34.101807
437 0 1 -13.694180 4.702942 33.760895
438 0 1 -13.228881 5.270684 34.380005
439 0 1 -13.156682 6.208382 34.190094
440 0 1 -12.496680 6.784443 33.763489
441 0 1 -11.724980 6.230954 33.979797
442 0 1 -11.202981 5.464512 33.799011
443 0 1 -10.606082 5.107193 34.544800
444 0 1 -10.680680 4.215912 34.343109
445 0 1 -11.388982 4.031884 33.811005
446 0 1 -12.028380 4.708252 34.001892
447 0 1 -12.497581 5.327134 33.366211
448 0 1 -12.020482 4.838974 32.783508
449 0 1 -12.734481 4.521462 32.205902
450 0 1 -12.887181 5.024773 31.397186
451 0 1 -13.696382 5.082104 30.881592
452 0 1 -14.598580 5.503125 30.770203
453 0 1 -14.855781 6.294392 31.282410
454 0 1 -14.987981 6.956013 31.978394
455 0 1 -15.087682 7.512673 32.749603
456 0 1 -14.689681 6.704472 33.093109
457 0 1 -14.729981 5.824505 32.674805
458 0 1 -15.329680 5.165402 32.786713
459 0 1 -15.972180 4.483525 32.459290
460 0 1 -16.946680 4.404313 32.617493
461 0 1 -16.884781 5.031415 33.356506
462 0 1 -16.366180 5.917115 33.516602
463 0 1 -16.181681 6.783024 33.199799
464 0 1 -16.567480 7.521794 33.662506
465 0 1 -15.995280 8.154553 33.225189
466 0 1 -16.744080 8.506154 32.778809
467 0 1 -16.908680 9.292043 32.313293
468 0 1 -16.494280 9.534303 33.138306
469 0 1 -16.918180 10.442746 33.150299
470 0 1 -16.470581 11.095944 33.658112
471 0 1 -16.659580 11.952744 34.002411
472 0 1 -16.791180 11.772145 34.898499
473 0 1 -16.456980 12.575742 35.295807
474 0 1 -15.870481 12.410146 35.973602
475 0 1 -15.076482 11.876042 36.210388
476 0 1 -15.238980 11.840245 37.175507
477 0 1 -15.976781 12.261945 37.609009
478 0 1 -16.560680 13.006845 37.666412
479 0 1 -16.181379 13.912343 38.041504
480 0 1 -15.517482 14.201745 38.642517
481 0 1 -14.953181 13.592145 39.078888
482 0 1 -14.654582 12.718545 38.820984
483 0 1 -14.226481 13.265344 38.135803
484 0 1 -14.637582 12.741643 37.479095
485 0 1 -13.931581 13.285542 37.130402
486 0 1 -13.154681 12.812844 37.287506
487 0 1 -13.327481 13.129743 36.317200
488 0 1 -13.176181 12.167443 36.434113
489 0 1 -13.209382 11.310643 35.965698
490 0 1 -14.028682 11.226346 35.423401
491 0 1 -13.642880 11.075643 34.544495
492 0 1 -14.334682 10.956944 33.935608
493 0 1 -14.966382 11.056645 33.209595
494 0 1 -14.475381 10.788045 32.486084
495 0 1 -13.684281 11.118745 32.808899
496 0 1 -12.780982 11.257245 33.129913
497 0 1 -12.490380 10.600842 32.562195
498 0 1 -11.690681 10.511846 31.996887
499 0 1 -12.043382 9.664052 32.166107
500 0 1 -11.368781 9.298253 32.705688
501 0 1 -10.457982 9.294942 32.486206
502 0 1 -9.620280 8.970784 32.286591
503 0 1 -9.161181 9.622365 32.847290
504 0 1 -8.511682 9.870084 33.478210
505 0 1 -8.156481 9.616353 34.440796
506 0 1 -7.289382 9.347695 34.720306
507 0 1 -7.580680 9.333043 35.635986
508 0 1 -6.717881 9.803723 35.662415
509 0 1 -6.060381 10.453343 35.799500
510 0 1 -5.942681 11.270444 36.321808
511 0 1 -5.817181 11.389142 35.348297
512 0 1 -5.689381 11.494145 34.362396
513 0 1 -4.794180 11.835546 34.579712
514 0 1 -5.137881 12.657144 34.292786
515 0 1 -5.372780 12.924344 33.394501
516 0 1 -6.028880 13.478742 33.901489
517 0 1 -6.655280 14.221745 33.878387
518 0 1 -6.607680 13.976243 32.952515
519 0 1 -7.445780 14.324243 32.588684
520 0 1 -8.134281 14.959844 32.913696
521 0 1 -8.145082 14.660344 31.929413
522 0 1 -9.075681 14.684545 32.110107
523 0 1 -10.005881 14.379243 31.926392
524 0 1 -10.016381 13.855744 31.112091
525 0 1 -10.549281 13.912145 30.268494
526 0 1 -10.183282 13.035245 30.294098
527 0 1 -9.665782 12.665643 29.592102
528 0 1 -9.232581 11.822942 29.509491
529 0 1 -8.344081 11.627244 29.112396
530 0 1 -7.633681 11.036843 28.685699
531 0 1 -7.094780 11.850045 28.505707
532 0 1 -6.501481 11.677243 29.319794
533 0 1 -5.718882 11.191545 29.427185
534 0 1 -5.312281 10.626645 30.221191
535 0 1 -6.185681 10.306844 30.563507
536 0 1 -5.318881 9.829255 30.824585
537 0 1 -4.475482 9.627683 31.108612
538 0 1 -3.949080 8.905164 30.942291
539 0 1 -4.663781 8.340032 31.324799
540 0 1 -4.665381 8.296292 30.274689
541 0 1 -5.162982 7.527043 30.134308
542 0 1 -4.743081 7.418835 30.973602
543 0 1 -4.262881 6.813633 31.486786
544 0 1 -4.026980 6.583165 30.556213
545 0 1 -3.416979 6.139782 29.974091
546 0 1 -3.698981 6.550034 29.148407
547 0 1 -2.779641 6.755673 29.036102
548 0 1 -3.306681 6.866784 28.202087
549 0 1 -4.208781 7.276303 28.241394
550 0 1 -4.794482 7.058175 27.534698
551 0 1 -5.032280 6.175652 27.258911
552 0 1 -5.404681 5.663785 26.509186
553 0 1 -5.581881 6.266865 25.788788
554 0 1 -6.450980 6.707173 25.861389
555 0 1 -7.066081 7.389454 25.596313
556 0 1 -6.622281 7.674824 26.413391
557 0 1 -6.756381 8.483174 25.970001
558 0 1 -7.238081 8.735272 26.824585
559 0 1 -7.604480 9.133233 26.005188
560 0 1 -8.624581 9.084123 25.948608
561 0 1 -9.341882 9.705144 25.823303
562 0 1 -9.898381 9.578813 26.571411
563 0 1 -10.461581 9.727735 25.834412
564 0 1 -10.078980 9.506124 24.953003
565 0 1 -9.999982 9.672555 24.009003
566 0 1 -10.778981 10.164544 23.772308
567 0 1 -10.528182 10.135945 22.841614
568 0 1 -11.406381 9.702985 22.882385
569 0 1 -12.238481 9.896745 22.515411
570 0 1 -12.951482 9.778653 21.825897
571 0 1 -13.179082 10.698545 21.556198
572 0 1 -13.768781 11.510144 21.375000
573 0 1 -12.959580 11.496045 20.802200
574 0 1 -13.005280 11.724545 19.891403
575 0 1 -12.816081 12.530244 19.393295
576 0 1 -12.033881 12.996846 19.082306
577 0 1 -11.410981 12.228143 19.049896
578 0 1 -10.837481 12.854043 19.469604
579 0 1 -9.981280 12.979745 19.022400
580 0 1 -9.074981 13.170644 18.643402
581 0 1 -9.007380 14.093442 18.807007
582 0 1 -9.698981 14.700643 18.686996
583 0 1 -9.105981 15.308644 19.104706
584 0 1 -8.969981 15.959245 19.848495
585 0 1 -9.288081 16.822445 19.714706
586 0 1 -8.418681 17.002342 19.413406
587 0 1 -8.396781 16.708443 20.375595
588 0 1 -7.548481 16.737942 19.833008
589 0 1 -6.806481 16.692944 20.467804
590 0 1 -5.962180 16.535442 20.023499
591 0 1 -5.667880 17.066944 19.364502
592 0 1 -5.679781 17.998444 19.592194
593 0 1 -5.639182 18.897442 19.932098
594 0 1 -4.652682 18.818142 20.014008
595 0 1 -4.348681 18.882145 19.117004
596 0 1 -4.091082 18.362446 18.295593
597 0 1 -3.947680 17.435345 18.438293
598 0 1 -3.197279 17.800541 18.858093
599 0 1 -3.271582 17.129944 19.446808
600 0 1 -2.820342 16.596142 18.723907
601 0 1 -2.152682 16.696243 19.336304
602 0 1 -1.673501 17.071545 20.105698
603 0 1 -0.710341 17.275440 19.768204
604 0 1 -0.573882 16.309940 19.892395
605 0 1 -0.736321 16.275642 18.893295
606 0 1 -0.522111 15.517644 18.365097
607 0 1 -0.933150 14.692746 18.697403
608 0 1 -0.014561 14.796544 19.201706
609 0 1 0.692380 15.409745 19.428299
610 0 1 0.977010 15.703046 20.334991
611 0 1 0.453510 16.437843 20.732895
612 0 1 1.134109 17.190540 20.592606
613 0 1 1.163860 17.672844 19.716492
614 0 1 0.676849 18.207340 19.069092
615 0 1 0.135759 19.039845 19.002899
616 0 1 0.906990 19.587143 19.256699
617 0 1 1.788480 19.216946 19.101105
618 0 1 1.913620 18.685143 18.328094
619 0 1 2.534210 19.299744 17.842804
620 0 1 2.519639 19.690243 16.906906
621 0 1 2.753129 20.609543 16.997192
622 0 1 3.295419 20.713043 16.267593
623 0 1 4.160459 20.292843 16.408096
624 0 1 4.791540 19.653545 16.230804
625 0 1 5.032939 20.510742 15.878800
626 0 1 5.906429 20.675343 16.222900
627 0 1 6.245553 21.426643 16.638092
628 0 1 6.334157 22.412743 16.281006
629 0 1 5.962549 22.041344 15.516603
630 0 1 6.816595 22.270042 15.007508
631 0 1 6.888074 22.423641 14.071702
632 0 1 6.895845 23.334244 13.700395
633 0 1 7.775314 23.700043 13.852708
634 0 1 8.097159 23.999844 12.954103
635 0 1 8.201018 24.067642 12.000794
636 0 1 8.472058 24.877644 12.506196
637 0 1 9.383550 24.708241 12.636903
638 0 1 9.826978 24.633343 13.496903
639 0 1 8.978547 24.075245 13.395402
640 0 1 9.143060 24.390942 14.309602
641 0 1 10.058747 24.134441 14.374696
642 0 1 11.024858 24.199142 14.604402
643 0 1 11.333020 24.387543 13.688508
644 0 1 11.272340 23.968342 12.829103
645 0 1 10.403657 23.973343 12.463593
646 0 1 10.096379 23.207943 11.990098
647 0 1 10.003518 22.397243 12.605607
648 0 1 10.479550 21.892242 11.975495
649 0 1 10.142617 21.015644 11.945893
650 0 1 10.140187 20.183144 12.538407
651 0 1 10.606519 19.888943 13.304505
652 0 1 11.187779 19.168545 13.559297
653 0 1 11.152867 19.458241 14.488496
654 0 1 11.919618 19.402645 15.075196
655 0 1 11.922910 19.208645 16.008392
656 0 1 12.752049 19.456745 16.498505
657 0 1 13.652917 19.826843 16.119095
658 0 1 13.244908 20.244442 15.328706
659 0 1 13.930268 20.876343 15.188004
660 0 1 14.073888 21.565643 14.605195
661 0 1 14.668328 21.787945 13.847901
662 0 1 14.789117 22.594746 14.463304
663 0 1 15.575498 22.451042 15.027406
664 0 1 15.428128 21.571342 15.483598
665 0 1 15.635709 21.568745 16.476807
666 0 1 15.658559 20.855442 17.058899
667 0 1 14.729310 20.786842 16.796204
668 0 1 15.302629 20.350346 16.118805
669 0 1 15.265718 19.522743 16.711594
670 0 1 15.062249 19.571941 17.638306
671 0 1 15.721520 19.264240 18.248108
672 0 1 15.998540 18.325642 18.251404
673 0 1 16.652319 18.409943 17.568497
674 0 1 16.966082 18.839542 18.391998
675 0 1 17.833021 18.463943 18.481400
676 0 1 17.937418 17.663242 17.977509
677 0 1 17.906321 17.047943 17.206802
678 0 1 17.307322 16.482742 16.715500
679 0 1 16.517038 15.999345 16.851196
680 0 1 16.671850 15.948545 17.787796
681 0 1 16.648890 15.894742 18.727097
682 0 1 17.332918 15.184644 18.908203
683 0 1 18.085718 15.430543 19.461899
684 0 1 18.435019 14.811543 18.931702
685 0 1 19.095221 14.963246 18.318893
686 0 1 18.667021 14.208543 17.894897
687 0 1 19.448019 13.797742 17.578705
688 0 1 19.766119 13.006944 17.938507
689 0 1 20.330519 13.167645 18.702103
690 0 1 20.766420 13.032643 19.564606
691 0 1 21.418219 12.497445 19.978500
692 0 1 21.938417 13.196244 20.415802
693 0 1 22.869822 12.943845 20.534103
694 0 1 23.334520 12.099843 20.520004
695 0 1 23.962320 12.576543 19.899597
696 0 1 23.722322 12.859242 19.017502
697 0 1 22.806322 12.676545 18.968201
698 0 1 23.148722 11.839742 19.308701
699 0 1 23.392019 11.004743 18.919907
700 0 1 24.077021 10.431142 19.320602
701 0 1 24.861818 10.300843 18.792801
702 0 1 24.556421 9.402574 18.612701
703 0 1 23.960321 8.825994 18.156006
704 0 1 24.374319 8.224473 17.507095
705 0 1 25.276220 7.916825 17.613708
706 0 1 24.873819 8.135064 18.571899
707 0 1 25.732721 8.536233 18.697601
708 0 1 25.808519 7.878705 19.322296
709 0 1 24.956522 8.239514 19.644302
710 0 1 24.613920 8.441445 20.583206
711 0 1 25.421419 8.370053 21.109100
712 0 1 25.087519 7.849041 21.826904
713 0 1 25.886522 7.485852 22.181000
714 0 1 25.664721 8.163674 22.743195
715 0 1 26.339621 8.810395 22.407501
716 0 1 26.717920 9.590695 21.911102
717 0 1 27.786119 9.635385 21.972198
718 0 1 27.645620 9.724664 22.936096
719 0 1 26.947321 10.368245 23.035400
720 0 1 27.286821 11.240445 23.070496
721 0 1 27.067621 11.471345 23.990906
722 0 1 27.669718 12.118745 23.573090
723 0 1 27.226919 13.019444 23.446991
724 0 1 26.487917 13.301442 22.952209
725 0 1 26.197821 12.996243 23.790710
726 0 1 26.733019 13.712544 24.124390
727 0 1 27.372820 13.302545 24.682404
728 0 1 27.303320 12.782743 25.534607
729 0 1 27.687021 13.166444 26.307495
730 0 1 27.028017 12.748242 26.927612
731 0 1 26.545519 12.929143 27.755493
732 0 1 26.808020 12.452344 28.576599
733 0 1 27.398020 12.732244 29.333405
734 0 1 27.951921 12.011243 29.210815
735 0 1 28.818819 12.419446 29.022400
736 0 1 29.013121 13.057443 29.683716
737 0 1 29.383921 12.185845 29.792114
738 0 1 29.227518 11.308942 29.424988
739 0 1 28.650419 10.601045 28.951294
740 0 1 29.415117 10.289746 29.353607
741 0 1 28.645121 10.037843 29.875214
742 0 1 27.964319 9.705804 29.291290
743 0 1 27.633619 9.000455 29.827789
744 0 1 26.854822 9.114495 30.408997
745 0 1 26.069918 8.633565 30.180511
746 0 1 25.303919 9.159173 29.868011
747 0 1 24.479517 8.688584 30.026184
748 0 1 25.138819 8.212163 30.566101
749 0 1 24.503321 7.605084 30.060791
750 0 1 23.647722 7.914933 29.984314
751 0 1 23.617819 7.541665 29.132996
752 0 1 22.708319 7.277913 29.045410
753 0 1 22.019518 6.668355 28.775513
754 0 1 21.741621 6.133873 27.976196
755 0 1 22.185419 7.011685 27.739990
756 0 1 22.948919 7.308785 27.236389
757 0 1 22.770319 6.533364 26.653198
758 0 1 23.412119 5.740784 26.626404
759 0 1 23.469320 4.788365 26.903992
760 0 1 22.575621 5.100373 26.827606
761 0 1 22.712019 4.381135 27.445007
762 0 1 21.779619 4.867733 27.347107
763 0 1 21.474321 4.649064 26.494385
764 0 1 22.298418 4.675251 25.935303
765 0 1 22.863321 5.053475 25.229401
766 0 1 23.370020 5.907574 25.276611
767 0 1 23.283419 6.381085 24.410095
768 0 1 22.482721 6.328404 23.941101
769 0 1 22.331018 6.715523 23.067291
770 0 1 22.588419 6.206883 22.286896
771 0 1 22.788321 6.030133 21.350006
772 0 1 23.079420 6.850483 21.039505
773 0 1 22.961420 7.657704 20.532806
774 0 1 22.353220 8.076943 19.915497
775 0 1 22.031820 7.964013 18.927597
776 0 1 21.376120 7.603573 18.269699
777 0 1 20.612421 7.042183 18.537399
778 0 1 19.781420 7.121003 19.078995
779 0 1 20.116518 6.649502 19.935196
780 0 1 19.813822 7.091813 20.765900