LAMMPS data file via MDAnalysis

        2000  atoms
        1999  bonds
           0  angles
           0  dihedrals
           0  impropers

           1  atom types
           1  bond types
           0  angle types
           0  dihedral types
           0  improper types

-30.5 30.5 xlo xhi
-30.5 30.5 ylo yhi
-233.5 233.5 zlo zhi


Masses

1 1.000000

Atoms

1 0 1 -13.679047 -5.749732 58.181213
2 0 1 -13.633146 -4.864913 57.765106
3 0 1 -13.374746 -5.508483 57.126495
4 0 1 -12.430347 -5.470933 57.224091
5 0 1 -11.789248 -4.693152 57.112305
6 0 1 -11.156147 -4.032903 57.246216
7 0 1 -10.453648 -4.815473 57.117706
8 0 1 -9.465147 -4.942012 56.960083
9 0 1 -10.008448 -5.708043 56.914490
10 0 1 -9.314148 -6.021894 57.514893
11 0 1 -8.825348 -6.660443 57.964996
12 0 1 -8.190348 -5.931252 57.996094
13 0 1 -8.117748 -5.148053 57.433411
14 0 1 -7.965348 -4.197223 57.312195
15 0 1 -7.599747 -3.333602 57.573395
16 0 1 -7.483647 -2.662522 58.242493
17 0 1 -6.971447 -2.780463 59.050690
18 0 1 -6.879248 -3.581874 59.617310
19 0 1 -6.688048 -4.359633 60.227783
20 0 1 -6.369648 -3.725543 60.884491
21 0 1 -6.826748 -4.385962 61.408813
22 0 1 -6.360848 -4.352054 62.208008
23 0 1 -5.619149 -4.946643 62.561401
24 0 1 -4.899968 -4.411872 62.277100
25 0 1 -4.575818 -5.283233 62.653900
26 0 1 -3.643029 -5.427453 62.506012
27 0 1 -3.906147 -4.480353 62.475006
28 0 1 -3.341938 -3.748374 62.203400
29 0 1 -3.359877 -2.820764 62.292206
30 0 1 -2.782727 -3.055423 61.557404
31 0 1 -2.180348 -3.084453 60.747986
32 0 1 -2.478888 -2.299953 60.210297
33 0 1 -2.279208 -1.382993 60.481812
34 0 1 -1.698468 -0.842143 59.959198
35 0 1 -0.760687 -1.050822 59.832794
36 0 1 -0.455239 -1.749753 60.474701
37 0 1 -0.904766 -0.994582 60.906616
38 0 1 -1.064187 -1.035392 61.914001
39 0 1 -0.457219 -1.820212 62.078308
40 0 1 -0.111538 -2.590743 61.678497
41 0 1 -0.511877 -3.390103 61.863708
42 0 1 -0.723957 -3.445144 60.952087
43 0 1 -0.183938 -4.146943 60.628204
44 0 1 0.476072 -3.808763 61.230499
45 0 1 0.892013 -4.563252 61.666107
46 0 1 1.507312 -5.165702 62.115784
47 0 1 2.173542 -5.802213 62.308990
48 0 1 2.699323 -6.500302 61.974792
49 0 1 2.818563 -6.855872 62.790710
50 0 1 2.685243 -7.219743 63.689087
51 0 1 2.838752 -7.845933 64.435089
52 0 1 3.305582 -6.934352 64.508118
53 0 1 3.969455 -6.969844 65.295715
54 0 1 3.108861 -6.887673 65.642090
55 0 1 2.899162 -6.279292 66.333801
56 0 1 3.456552 -5.597573 66.691589
57 0 1 3.736343 -4.665593 66.785309
58 0 1 3.232082 -4.162772 66.135590
59 0 1 3.716375 -3.705113 65.454498
60 0 1 3.914783 -4.455832 64.895294
61 0 1 4.785388 -4.263883 65.311096
62 0 1 4.926145 -3.992763 66.209717
63 0 1 4.863138 -4.279553 67.127197
64 0 1 4.091573 -4.453763 67.739105
65 0 1 4.402809 -4.172122 68.552490
66 0 1 3.868869 -3.580564 69.120209
67 0 1 3.471302 -4.222392 69.745392
68 0 1 2.718612 -4.673013 69.621307
69 0 1 2.596622 -4.416003 70.529297
70 0 1 1.989763 -3.680623 70.354797
71 0 1 1.255413 -4.180343 70.039093
72 0 1 0.722393 -4.818202 70.424408
73 0 1 0.526413 -4.625182 71.361511
74 0 1 0.101652 -5.375804 71.855011
75 0 1 0.489942 -6.028323 72.403595
76 0 1 -0.403279 -6.166453 72.321289
77 0 1 -0.226988 -7.108222 72.277802
78 0 1 -0.009867 -7.789742 71.666382
79 0 1 0.678302 -7.713933 70.965393
80 0 1 1.555751 -7.982764 70.732391
81 0 1 1.724773 -7.665023 69.814301
82 0 1 1.845243 -6.898843 69.368103
83 0 1 1.957443 -6.105033 68.924591
84 0 1 1.317543 -5.812654 69.537811
85 0 1 1.125373 -6.620732 70.052307
86 0 1 0.247102 -7.045583 70.045288
87 0 1 0.054372 -7.112283 69.086090
88 0 1 0.483423 -6.671533 68.347504
89 0 1 0.093153 -5.842153 68.072601
90 0 1 -0.741478 -6.311572 68.057190
91 0 1 -1.305588 -6.288894 68.798309
92 0 1 -2.190148 -6.534553 69.010315
93 0 1 -2.185118 -5.735744 68.437012
94 0 1 -2.179968 -6.238362 67.627106
95 0 1 -1.794398 -5.527522 67.105804
96 0 1 -2.340008 -5.917724 66.494904
97 0 1 -2.970017 -6.744353 66.594696
98 0 1 -3.004748 -7.593402 66.155518
99 0 1 -3.439538 -7.614444 65.313416
100 0 1 -3.455117 -8.280013 64.661499
101 0 1 -3.496687 -9.179172 65.151489
102 0 1 -2.543448 -9.263373 65.157196
103 0 1 -1.663607 -9.342973 64.828186
104 0 1 -0.773518 -9.675673 65.050201
105 0 1 0.035373 -9.281772 64.665009
106 0 1 0.460113 -10.148273 64.409485
107 0 1 1.341823 -10.310473 64.789093
108 0 1 0.931423 -9.912074 65.530884
109 0 1 0.063571 -10.264274 65.789307
110 0 1 -0.580758 -10.883973 65.411987
111 0 1 -0.009339 -11.533072 65.021210
112 0 1 0.863182 -11.548873 65.246216
113 0 1 1.551092 -12.220473 65.658905
114 0 1 1.479772 -12.949573 65.080688
115 0 1 0.856752 -13.631073 65.228394
116 0 1 1.198873 -13.826572 64.366699
117 0 1 2.148433 -13.813972 64.605103
118 0 1 2.217632 -14.805573 64.593201
119 0 1 2.434713 -15.831872 64.614502
120 0 1 3.154272 -15.392472 63.960693
121 0 1 2.830242 -14.472873 63.875000
122 0 1 3.095003 -13.917973 63.122101
123 0 1 3.918001 -13.516172 62.568390
124 0 1 4.505985 -14.006973 61.880707
125 0 1 4.631963 -14.454073 61.061096
126 0 1 4.109266 -14.742773 60.312988
127 0 1 3.951711 -14.334573 59.460999
128 0 1 3.414232 -14.425073 58.701202
129 0 1 3.314302 -13.437472 58.754303
130 0 1 2.805933 -13.229573 59.624390
131 0 1 2.460832 -14.013773 59.192291
132 0 1 1.823862 -14.125173 58.398102
133 0 1 1.752422 -13.443673 57.764404
134 0 1 1.696142 -12.886271 57.036499
135 0 1 1.061962 -12.606772 56.410706
136 0 1 1.256221 -11.710273 56.133301
137 0 1 1.545503 -12.424273 55.522705
138 0 1 1.728902 -13.101573 54.849396
139 0 1 1.094852 -13.854473 54.816406
140 0 1 1.426742 -13.551473 53.964111
141 0 1 0.574672 -13.768773 53.437805
142 0 1 -0.366967 -13.919972 53.835083
143 0 1 -1.017977 -14.030373 53.109802
144 0 1 -1.745938 -13.682572 53.644592
145 0 1 -1.616377 -14.281173 54.352295
146 0 1 -0.773468 -14.182773 54.751190
147 0 1 -0.399918 -14.983573 54.311890
148 0 1 0.344883 -15.548472 54.311310
149 0 1 0.680091 -16.078474 53.486206
150 0 1 0.676052 -15.426574 52.766113
151 0 1 1.431201 -15.999173 52.625488
152 0 1 1.536752 -15.961772 51.667511
153 0 1 1.979272 -15.941672 50.790894
154 0 1 2.152692 -16.403975 49.927185
155 0 1 2.645092 -17.138674 49.512909
156 0 1 2.449913 -17.509674 50.337708
157 0 1 2.721363 -18.388374 50.001495
158 0 1 3.132053 -18.575474 49.095886
159 0 1 3.114553 -18.124273 48.201599
160 0 1 3.604572 -17.335474 48.309296
161 0 1 3.899259 -16.421873 48.196594
162 0 1 4.199380 -16.340574 47.322693
163 0 1 4.895109 -15.893474 46.725494
164 0 1 5.566883 -15.294072 47.009613
165 0 1 5.953222 -14.405673 46.819092
166 0 1 5.308540 -14.598773 46.170807
167 0 1 4.918781 -13.701673 46.307709
168 0 1 4.576082 -13.047873 45.631592
169 0 1 4.194055 -12.185172 45.308502
170 0 1 3.594856 -12.551873 44.692810
171 0 1 2.819812 -11.970073 45.042297
172 0 1 1.933473 -11.551574 45.057709
173 0 1 2.286363 -11.096572 44.312012
174 0 1 1.918012 -10.640073 43.529297
175 0 1 1.379423 -9.880073 43.472687
176 0 1 1.254802 -9.005584 43.017212
177 0 1 2.089992 -8.472243 43.082703
178 0 1 2.912742 -8.779563 42.751007
179 0 1 3.362512 -9.076274 43.511902
180 0 1 3.918403 -8.323844 43.577515
181 0 1 3.288602 -8.117164 44.251495
182 0 1 2.423023 -7.849523 44.626404
183 0 1 2.190662 -8.448533 45.331116
184 0 1 2.431562 -7.732112 45.860199
185 0 1 1.787153 -7.116023 45.445496
186 0 1 1.365182 -6.246432 45.781708
187 0 1 2.171272 -6.097953 46.245087
188 0 1 2.089553 -6.346324 47.166107
189 0 1 1.690223 -5.470103 47.131287
190 0 1 1.821622 -5.176923 48.036011
191 0 1 1.328983 -4.889653 48.826416
192 0 1 2.140773 -4.757392 49.359894
193 0 1 1.353712 -4.987132 49.894806
194 0 1 1.876892 -5.464253 50.613403
195 0 1 2.209522 -6.261592 50.282410
196 0 1 1.496892 -6.801364 50.730286
197 0 1 1.323423 -7.761592 50.697601
198 0 1 1.526912 -7.936461 51.671600
199 0 1 1.663242 -7.234462 52.383606
200 0 1 2.583713 -7.097842 52.803802
201 0 1 2.543563 -7.939384 53.408813
202 0 1 2.111322 -7.846473 54.243103
203 0 1 2.115892 -6.926162 54.505798
204 0 1 1.600782 -6.402362 55.134308
205 0 1 0.837802 -6.481044 54.594604
206 0 1 0.540512 -5.627704 54.402496
207 0 1 0.465293 -5.968364 53.515808
208 0 1 -0.231717 -5.458602 53.199799
209 0 1 -0.660138 -6.214993 52.792786
210 0 1 -1.167279 -6.217473 53.667999
211 0 1 -1.170168 -5.297362 54.084991
212 0 1 -1.217808 -4.732953 54.847504
213 0 1 -1.121117 -5.055274 55.751587
214 0 1 -1.646878 -4.770373 56.498291
215 0 1 -2.396237 -5.227193 56.939697
216 0 1 -2.798447 -5.613982 57.721100
217 0 1 -2.380478 -6.516973 57.690704
218 0 1 -2.587868 -6.832963 58.598907
219 0 1 -2.518178 -7.778483 58.858002
220 0 1 -2.768778 -8.580033 59.326508
221 0 1 -2.250128 -9.246873 58.932800
222 0 1 -1.578827 -9.909173 58.805298
223 0 1 -0.767327 -10.140073 59.125488
224 0 1 -0.925627 -11.095473 59.102600
225 0 1 -1.511498 -10.943374 59.823395
226 0 1 -2.162877 -11.616874 59.915100
227 0 1 -2.873808 -10.891673 59.829590
228 0 1 -3.078717 -11.700572 59.303802
229 0 1 -2.465767 -12.040072 58.649597
230 0 1 -2.014018 -11.291972 58.351685
231 0 1 -1.733468 -11.309672 57.377289
232 0 1 -2.384167 -10.681773 57.153503
233 0 1 -2.777758 -10.247073 56.432587
234 0 1 -3.365838 -10.792573 57.050903
235 0 1 -4.193778 -11.253474 56.953888
236 0 1 -5.031487 -11.209872 56.450104
237 0 1 -5.927147 -11.487073 56.556610
238 0 1 -6.028248 -11.897372 55.714996
239 0 1 -5.875847 -12.244472 54.852692
240 0 1 -5.324856 -12.939773 54.479797
241 0 1 -6.253148 -13.200473 54.314911
242 0 1 -6.976147 -13.020274 54.907410
243 0 1 -6.951548 -13.978673 54.922089
244 0 1 -6.254748 -14.594473 54.599701
245 0 1 -6.933648 -14.987573 54.074890
246 0 1 -7.351647 -14.795073 53.237000
247 0 1 -8.262848 -14.776373 52.977997
248 0 1 -8.671547 -15.564473 52.585083
249 0 1 -9.327047 -16.340775 52.458008
250 0 1 -9.746948 -17.180174 52.570190
251 0 1 -8.871347 -17.565575 52.120392
252 0 1 -8.853148 -18.154373 52.826691
253 0 1 -8.630047 -18.894274 53.463898
254 0 1 -9.464647 -18.434374 53.618713
255 0 1 -9.965447 -17.608873 53.690094
256 0 1 -10.598747 -16.894373 53.316101
257 0 1 -11.176747 -17.461773 52.688995
258 0 1 -10.936148 -18.327274 52.914795
259 0 1 -11.938646 -18.270773 52.986908
260 0 1 -12.835047 -18.245274 52.579590
261 0 1 -12.789948 -19.053474 52.129517
262 0 1 -12.292646 -19.846273 51.750916
263 0 1 -12.883047 -20.592974 51.804016
264 0 1 -13.564447 -20.019974 51.190186
265 0 1 -13.357548 -19.066174 50.952515
266 0 1 -13.892647 -18.811773 50.187195
267 0 1 -13.499947 -17.947874 50.184906
268 0 1 -14.423447 -17.722874 50.210907
269 0 1 -14.354948 -17.305174 51.096008
270 0 1 -15.025146 -16.747974 50.749817
271 0 1 -14.803448 -16.692873 49.838409
272 0 1 -14.887148 -15.837274 50.379700
273 0 1 -14.794947 -14.893373 50.061584
274 0 1 -15.153847 -14.492972 49.219116
275 0 1 -14.741047 -13.911373 48.569000
276 0 1 -14.528448 -13.487174 47.701508
277 0 1 -15.170847 -12.994472 47.143494
278 0 1 -15.669147 -12.580573 46.403900
279 0 1 -16.061447 -13.333373 45.926697
280 0 1 -15.085747 -13.595073 45.903992
281 0 1 -14.188747 -13.126674 46.077911
282 0 1 -13.449247 -12.905972 45.511292
283 0 1 -13.498346 -12.633674 44.584717
284 0 1 -13.571947 -11.582572 44.348083
285 0 1 -13.964247 -10.727973 44.277588
286 0 1 -13.508648 -10.631072 43.420502
287 0 1 -12.521048 -10.554273 43.537292
288 0 1 -11.658947 -10.321473 43.241394
289 0 1 -11.243447 -10.454574 42.397888
290 0 1 -10.539547 -10.871873 42.967590
291 0 1 -11.090847 -11.633073 43.062317
292 0 1 -11.957247 -11.933873 42.636505
293 0 1 -11.306647 -12.375274 42.142609
294 0 1 -11.491148 -13.254073 41.738312
295 0 1 -11.432848 -12.808574 40.859100
296 0 1 -10.664747 -13.360972 40.569000
297 0 1 -11.026547 -14.228573 40.480286
298 0 1 -11.976646 -14.421673 40.502014
299 0 1 -11.894947 -15.041772 41.235901
300 0 1 -12.003847 -15.553273 40.393097
301 0 1 -12.114748 -15.137673 39.580811
302 0 1 -12.902147 -14.916873 39.107483
303 0 1 -12.651247 -14.062073 39.379395
304 0 1 -12.736748 -13.336272 38.716003
305 0 1 -12.859447 -13.160872 37.761414
306 0 1 -12.009148 -13.318774 37.297913
307 0 1 -11.516947 -12.727273 37.998108
308 0 1 -11.821547 -12.629874 38.922791
309 0 1 -12.080948 -11.957273 38.368500
310 0 1 -11.446148 -11.400073 37.883698
311 0 1 -11.990646 -11.735272 37.196503
312 0 1 -11.662746 -12.344872 36.561798
313 0 1 -12.241447 -12.240573 35.824402
314 0 1 -12.992947 -11.573373 35.757294
315 0 1 -13.786148 -11.384673 35.210297
316 0 1 -13.064547 -11.316272 34.595795
317 0 1 -12.559847 -11.775373 33.997589
318 0 1 -12.911346 -12.663474 34.013000
319 0 1 -13.035347 -13.580173 33.727112
320 0 1 -13.833748 -13.110673 33.582703
321 0 1 -14.128748 -13.039172 32.708710
322 0 1 -14.104548 -12.602473 31.828400
323 0 1 -13.281847 -13.059974 31.596497
324 0 1 -13.004646 -12.944274 30.743591
325 0 1 -13.632248 -12.557572 30.123199
326 0 1 -12.944048 -11.752372 30.332001
327 0 1 -13.301647 -10.966872 29.968811
328 0 1 -13.102747 -9.980073 29.801697
329 0 1 -12.263046 -9.858272 29.288910
330 0 1 -12.999548 -9.950171 28.736389
331 0 1 -13.592247 -10.226773 28.008911
332 0 1 -13.995247 -10.271373 27.125793
333 0 1 -14.044147 -10.341174 26.178802
334 0 1 -13.850647 -9.394973 26.100311
335 0 1 -13.303648 -9.548173 25.341095
336 0 1 -12.561447 -9.812274 25.888000
337 0 1 -12.711048 -10.737872 25.665802
338 0 1 -12.247547 -11.620173 25.845093
339 0 1 -12.396448 -12.217772 25.108307
340 0 1 -11.683647 -12.477073 24.597412
341 0 1 -11.738747 -13.122172 23.836792
342 0 1 -11.036548 -13.286872 23.130402
343 0 1 -11.237147 -14.208173 23.537506
344 0 1 -10.259848 -14.258973 23.649902
345 0 1 -9.458647 -14.581373 23.941193
346 0 1 -9.176949 -15.251273 23.211304
347 0 1 -8.506647 -15.804772 23.497711
348 0 1 -7.855347 -15.184173 23.093597
349 0 1 -7.114848 -14.562473 23.078613
350 0 1 -6.655848 -13.727073 23.460602
351 0 1 -6.260449 -13.123273 22.764008
352 0 1 -5.526349 -13.656973 23.075806
353 0 1 -5.336607 -12.998973 23.786499
354 0 1 -5.184588 -12.186473 23.208191
355 0 1 -5.603749 -11.343074 23.206787
356 0 1 -6.365147 -11.907273 23.264099
357 0 1 -6.836747 -11.415273 23.927307
358 0 1 -7.091948 -10.596673 24.396210
359 0 1 -7.421547 -9.805173 24.887512
360 0 1 -6.995049 -9.795074 25.748993
361 0 1 -6.229249 -10.416972 25.994385
362 0 1 -5.554547 -10.133073 26.727112
363 0 1 -5.860547 -10.884673 27.211700
364 0 1 -6.634648 -10.375873 27.319214
365 0 1 -7.266747 -10.113072 27.996796
366 0 1 -7.698449 -9.575473 27.301788
367 0 1 -7.231747 -8.912723 27.813110
368 0 1 -7.556048 -8.419473 27.092285
369 0 1 -6.983548 -7.873353 26.553314
370 0 1 -7.744347 -7.856704 25.933014
371 0 1 -8.468348 -7.309882 25.985809
372 0 1 -8.714748 -6.744014 25.243408
373 0 1 -9.078747 -6.918162 24.389099
374 0 1 -8.689148 -7.347783 23.614410
375 0 1 -7.846047 -7.538203 23.158813
376 0 1 -8.311749 -8.349402 23.517090
377 0 1 -8.580547 -9.048072 22.927002
378 0 1 -7.732548 -9.121472 22.400497
379 0 1 -8.301346 -9.798572 22.068298
380 0 1 -7.485348 -9.614573 21.557098
381 0 1 -6.661448 -9.808972 22.061905
382 0 1 -6.168549 -10.167373 21.318695
383 0 1 -5.578846 -9.817473 21.991608
384 0 1 -4.861258 -9.260974 21.726593
385 0 1 -5.092528 -8.445912 22.159805
386 0 1 -4.399987 -8.038173 22.660400
387 0 1 -3.990578 -7.418363 22.107803
388 0 1 -3.846817 -6.798512 22.989014
389 0 1 -3.752266 -6.213382 23.713989
390 0 1 -3.501458 -5.793073 22.933502
391 0 1 -3.313807 -4.996873 23.536896
392 0 1 -3.554188 -4.935822 24.467590
393 0 1 -3.398938 -4.999013 25.410492
394 0 1 -3.736828 -5.849372 25.541504
395 0 1 -2.887537 -6.015613 26.122986
396 0 1 -2.009037 -6.081954 26.536713
397 0 1 -1.239237 -5.778033 27.074005
398 0 1 -1.390587 -4.837363 26.881409
399 0 1 -0.732138 -4.320472 26.419403
400 0 1 -1.504248 -3.693843 26.597198
401 0 1 -0.670437 -3.270593 26.463287
402 0 1 -0.056948 -2.520244 26.245087
403 0 1 -0.181128 -2.565223 27.162415
404 0 1 0.722353 -2.761323 26.926300
405 0 1 1.123252 -2.113463 27.491608
406 0 1 1.773643 -1.929702 26.850189
407 0 1 1.874992 -1.199344 26.156616
408 0 1 1.458482 -0.617084 26.796906
409 0 1 2.187152 -0.245152 26.210114
410 0 1 2.939773 -0.863523 26.440002
411 0 1 3.339862 -0.063323 26.145203
412 0 1 3.814565 0.368291 26.897400
413 0 1 4.544734 0.964124 26.970490
414 0 1 5.185588 1.037530 26.265686
415 0 1 5.188617 1.941092 26.073792
416 0 1 5.120458 2.710038 25.495605
417 0 1 4.234334 2.915277 26.012085
418 0 1 4.070755 3.609929 25.329285
419 0 1 3.839305 4.474568 25.063293
420 0 1 3.150913 4.469106 25.742889
421 0 1 2.656173 5.170129 25.355011
422 0 1 2.123342 5.656297 24.751099
423 0 1 1.476213 6.370656 25.014404
424 0 1 1.282192 7.157849 24.455200
425 0 1 2.009132 7.702275 24.342712
426 0 1 1.748903 8.424897 25.013000
427 0 1 0.773841 8.556127 24.729401
428 0 1 1.213762 8.977078 23.968109
429 0 1 0.885173 9.875009 24.238190
430 0 1 0.372713 10.644837 24.157501
431 0 1 1.081022 11.284825 24.136688
432 0 1 1.208473 11.505128 23.213593
433 0 1 1.318603 11.411527 22.246994
434 0 1 0.629213 11.999425 21.945999
435 0 1 1.348173 12.332829 21.376892
436 0 1 1.191242 13.058228 20.693604
437 0 1 2.015983 12.597428 20.457794
438 0 1 2.251482 13.237828 19.738998
439 0 1 1.689882 12.770028 19.108994
440 0 1 1.412353 13.190625 18.286499
441 0 1 0.461921 13.026727 18.031097
442 0 1 1.019403 12.408227 17.528793
443 0 1 1.976692 12.199628 17.588104
444 0 1 2.804582 11.780026 17.921494
445 0 1 3.661579 12.000325 17.576996
446 0 1 3.618024 12.645528 18.284500
447 0 1 3.844265 13.117227 17.468002
448 0 1 4.085580 13.657628 16.685303
449 0 1 3.834520 13.462228 15.755600
450 0 1 4.445575 14.233827 15.965607
451 0 1 5.292976 14.773328 15.915298
452 0 1 6.021322 14.503327 16.528900
453 0 1 6.594661 14.991326 17.189896
454 0 1 6.964771 15.767827 16.787994
455 0 1 7.216064 15.531026 17.733994
456 0 1 7.812622 15.435128 18.522598
457 0 1 7.810623 14.972325 19.309402
458 0 1 7.464931 14.181027 19.468597
459 0 1 7.291671 13.691926 18.654907
460 0 1 7.511001 12.859029 18.207397
461 0 1 7.694843 12.236226 18.937805
462 0 1 7.802803 11.554627 19.623901
463 0 1 6.852882 11.577527 19.347305
464 0 1 6.824192 10.837377 18.735992
465 0 1 6.124271 10.121289 18.636002
466 0 1 5.224651 9.909787 18.559998
467 0 1 4.403690 9.698659 18.109894
468 0 1 3.551473 9.876687 17.696899
469 0 1 3.637380 9.583905 16.803406
470 0 1 2.860893 9.425107 16.162903
471 0 1 3.443273 9.081597 15.490799
472 0 1 3.892429 9.938199 15.569107
473 0 1 3.780902 10.207059 14.642197
474 0 1 3.408842 10.681798 13.863297
475 0 1 2.719282 10.136697 13.472305
476 0 1 1.770103 10.328336 13.844299
477 0 1 0.897132 9.925366 13.689896
478 0 1 0.955282 10.810956 14.225708
479 0 1 1.538782 11.600926 14.142593
480 0 1 2.432342 11.333528 13.806198
481 0 1 2.748703 12.177526 13.529205
482 0 1 3.662754 12.179128 13.891602
483 0 1 4.229858 12.698728 13.314804
484 0 1 4.764623 13.184026 12.728104
485 0 1 5.093746 12.975228 11.874695
486 0 1 4.537431 12.182626 11.752899
487 0 1 3.748878 11.642426 11.760193
488 0 1 3.562871 12.597928 11.910797
489 0 1 3.656568 12.361226 10.941605
490 0 1 3.243362 11.531125 10.653595
491 0 1 3.777326 11.255128 9.953156
492 0 1 4.566553 11.725327 10.180801
493 0 1 4.818809 11.714227 9.163986
494 0 1 5.209239 12.616227 9.106232
495 0 1 5.183025 12.862226 8.161682
496 0 1 4.331367 13.120427 7.802338
497 0 1 4.591453 13.511327 6.935257
498 0 1 4.078496 12.961026 6.319595
499 0 1 3.881919 13.761827 5.812881
500 0 1 3.856050 12.987626 5.205246
501 0 1 3.474353 12.145127 4.945633
502 0 1 3.469882 12.074128 3.965042
503 0 1 3.175312 12.985127 4.029404
504 0 1 2.251762 13.108129 3.942200
505 0 1 2.181373 13.429128 4.830704
506 0 1 2.466602 14.334027 5.131454
507 0 1 2.171762 14.983525 5.786438
508 0 1 3.154033 14.742326 5.837433
509 0 1 2.771331 15.271329 6.620316
510 0 1 2.624063 16.150627 6.354706
511 0 1 3.215911 16.637726 5.799316
512 0 1 3.831249 17.304127 5.916336
513 0 1 3.248453 18.011227 5.707764
514 0 1 2.349693 18.092625 5.881409
515 0 1 1.957853 17.229927 6.181625
516 0 1 1.924032 17.266224 7.116486
517 0 1 1.466213 17.325825 7.970627
518 0 1 1.930662 18.197224 7.968979
519 0 1 1.767932 19.151524 7.888199
520 0 1 2.698923 19.543324 8.085175
521 0 1 2.839023 18.608425 8.391891
522 0 1 3.646562 18.958927 8.693069
523 0 1 4.544727 18.585026 8.812119
524 0 1 5.311866 19.136326 8.658768
525 0 1 5.983861 19.458424 9.261734
526 0 1 5.829332 20.158428 9.915558
527 0 1 5.726142 19.736526 10.805603
528 0 1 6.144054 20.518429 11.208206
529 0 1 5.624683 21.214725 10.710999
530 0 1 5.909082 22.007427 10.205597
531 0 1 5.316036 21.684925 9.574783
532 0 1 4.540830 22.379429 9.606216
533 0 1 5.108995 23.067627 9.218094
534 0 1 4.441217 23.171726 8.551956
535 0 1 5.118444 23.374928 7.911774
536 0 1 5.201995 22.336426 8.028885
537 0 1 5.903183 21.777626 8.157288
538 0 1 6.366683 22.546528 7.667831
539 0 1 6.948493 21.761127 7.548553
540 0 1 6.504661 21.807728 6.708466
541 0 1 6.398834 22.051327 5.781158
542 0 1 6.672054 22.898624 5.546906
543 0 1 7.456104 23.105625 5.036667
544 0 1 6.896953 23.500126 4.345581
545 0 1 5.999683 23.667828 4.062653
546 0 1 5.542833 23.225529 3.339447
547 0 1 4.889558 23.540325 3.961777
548 0 1 5.263725 23.147926 4.770477
549 0 1 5.033838 23.524929 5.597443
550 0 1 5.244174 24.370228 5.324783
551 0 1 4.732410 25.051025 5.771576
552 0 1 4.664627 25.136929 4.824844
553 0 1 5.656822 25.350224 4.568069
554 0 1 6.374214 25.152927 3.972321
555 0 1 6.000432 24.507427 3.326844
556 0 1 5.320020 24.640026 3.949524
557 0 1 4.872556 24.176926 3.150421
558 0 1 4.145099 24.549625 2.619690
559 0 1 4.080047 24.437527 1.632401
560 0 1 4.751369 23.877224 1.168656
561 0 1 5.387865 23.642025 0.521164
562 0 1 4.995447 23.520126 -0.355621
563 0 1 5.117324 23.591724 -1.369476
564 0 1 5.513084 24.216927 -1.988373
565 0 1 4.601331 24.409225 -2.253418
566 0 1 4.374979 23.560925 -2.719742
567 0 1 5.230455 23.809425 -3.030792
568 0 1 5.643823 23.042324 -2.673477
569 0 1 5.337741 22.298328 -2.106415
570 0 1 6.126873 21.849426 -1.732834
571 0 1 6.497043 22.390026 -1.041107
572 0 1 5.979621 21.750126 -0.637451
573 0 1 5.019615 21.864223 -0.665252
574 0 1 4.989963 20.926525 -0.952804
575 0 1 4.362268 21.063927 -0.234329
576 0 1 4.807359 21.655727 0.400818
577 0 1 4.309797 21.290627 1.146012
578 0 1 3.782232 20.474728 1.234345
579 0 1 3.784080 19.520824 1.431656
580 0 1 4.434906 18.845127 1.537583
581 0 1 5.258199 18.798626 1.973145
582 0 1 5.472045 17.935226 1.638336
583 0 1 6.264942 18.347527 1.207627
584 0 1 6.780120 18.545326 0.400620
585 0 1 7.218982 17.678524 0.386627
586 0 1 8.028534 17.140125 0.396042
587 0 1 7.969211 17.614628 1.274536
588 0 1 7.555114 16.783325 1.191086
589 0 1 8.420494 16.409927 1.334458
590 0 1 9.296864 16.284725 1.793076
591 0 1 9.614983 15.991429 2.672638
592 0 1 9.675491 15.953126 3.628693
593 0 1 10.419132 16.203026 4.259476
594 0 1 9.929955 15.612329 4.845413
595 0 1 9.167633 16.028126 5.235565
596 0 1 8.499634 16.078426 5.879807
597 0 1 7.710182 16.536427 5.977264
598 0 1 7.252193 15.787526 5.615311
599 0 1 6.901573 15.076329 6.329971
600 0 1 6.165493 14.444028 6.401291
601 0 1 6.634281 13.985425 7.103424
602 0 1 6.119983 13.207627 6.849030
603 0 1 6.282493 12.189229 6.997147
604 0 1 5.355648 12.443028 7.025146
605 0 1 5.094846 11.553628 6.705505
606 0 1 5.943511 11.608628 6.141785
607 0 1 5.454956 10.860967 5.839554
608 0 1 5.799823 10.326726 6.624054
609 0 1 6.658294 9.952306 6.368317
610 0 1 6.821083 9.424417 5.576523
611 0 1 7.639171 9.259625 4.969849
612 0 1 7.489322 10.296407 4.853745
613 0 1 8.032162 10.140805 4.116760
614 0 1 8.965862 10.114217 4.453949
615 0 1 8.889404 9.875627 5.407867
616 0 1 9.127861 10.338849 6.220413
617 0 1 8.458504 10.362065 6.855225
618 0 1 8.947205 10.013776 7.609924
619 0 1 9.527672 10.236058 8.284195
620 0 1 10.181511 10.903775 8.366913
621 0 1 9.676262 11.569127 8.947723
622 0 1 8.972382 11.119626 9.319595
623 0 1 8.967415 10.768678 10.209106
624 0 1 9.297493 9.828786 10.082504
625 0 1 9.137215 9.065389 10.707901
626 0 1 9.848663 8.921117 11.337204
627 0 1 10.320423 8.810876 10.470505
628 0 1 10.881783 7.969838 10.324203
629 0 1 9.972855 7.800378 10.058502
630 0 1 9.357391 8.002229 10.791199
631 0 1 8.658302 8.026578 10.124893
632 0 1 8.863045 7.151998 9.938797
633 0 1 8.283264 6.444318 10.187805
634 0 1 8.780701 5.685166 9.914352
635 0 1 9.211483 5.229669 9.218079
636 0 1 9.752045 4.763455 9.931717
637 0 1 9.146805 4.068326 9.506775
638 0 1 9.373173 4.257817 8.500214
639 0 1 10.314964 4.425939 8.169617
640 0 1 11.000584 5.165578 8.119080
641 0 1 11.235104 4.420617 7.600662
642 0 1 11.957111 4.329999 6.901215
643 0 1 12.130344 5.160199 6.419998
644 0 1 12.297974 6.186559 6.494263
645 0 1 13.272041 6.299626 6.517517
646 0 1 13.814453 7.040868 6.940445
647 0 1 14.666054 6.593076 7.139694
648 0 1 14.912254 7.345105 7.639053
649 0 1 14.143002 7.439069 8.246475
650 0 1 13.881943 8.038438 7.496033
651 0 1 13.794205 8.110238 6.523300
652 0 1 14.734154 8.265988 6.633759
653 0 1 14.505531 8.375146 5.714203
654 0 1 15.185051 7.897519 5.288391
655 0 1 15.198452 7.605126 4.390305
656 0 1 15.899155 7.334947 3.826691
657 0 1 16.782154 6.985269 3.913773
658 0 1 16.226852 6.371228 4.380157
659 0 1 15.982452 5.480966 3.999939
660 0 1 15.842953 4.539197 3.992783
661 0 1 15.335953 4.362515 4.764801
662 0 1 15.222351 4.467267 5.765533
663 0 1 14.437904 4.053277 6.284424
664 0 1 14.664852 3.092679 6.319077
665 0 1 15.190453 2.375247 6.745773
666 0 1 15.785954 1.620931 6.973587
667 0 1 16.552853 1.687821 6.320892
668 0 1 16.973652 0.903340 5.994812
669 0 1 17.450253 0.795281 5.139679
670 0 1 18.124855 0.149882 5.138153
671 0 1 18.727951 0.400872 4.423172
672 0 1 19.211151 0.872987 3.701142
673 0 1 19.273952 1.406510 2.860886
674 0 1 19.059853 0.505826 2.439255
675 0 1 19.406853 -0.393983 2.623093
676 0 1 19.416252 -1.118573 3.271912
677 0 1 18.754154 -1.851453 3.558304
678 0 1 17.811653 -1.696733 3.360352
679 0 1 17.710953 -0.987893 2.728501
680 0 1 17.261353 -0.171382 2.918442
681 0 1 17.326454 -0.505954 3.859085
682 0 1 16.712051 -1.219882 4.086945
683 0 1 16.172455 -0.943273 4.836807
684 0 1 16.153854 -1.747943 5.327286
685 0 1 15.296154 -1.878524 4.913300
686 0 1 15.101254 -2.635444 5.478683
687 0 1 14.135071 -2.723992 5.643539
688 0 1 13.205654 -2.677712 5.881424
689 0 1 13.231194 -1.970113 6.477036
690 0 1 13.368664 -1.704772 7.386795
691 0 1 13.447784 -2.204852 8.240906
692 0 1 13.425274 -2.061353 9.192871
693 0 1 13.136581 -1.160762 9.299484
694 0 1 14.039612 -1.312823 9.526901
695 0 1 14.788952 -1.872983 9.791595
696 0 1 15.656551 -2.290572 9.650345
697 0 1 15.918953 -2.079083 10.514206
698 0 1 16.042953 -2.919072 10.875000
699 0 1 16.950153 -3.125592 10.573502
700 0 1 17.905552 -3.082402 10.506699
701 0 1 18.005253 -3.053672 9.563446
702 0 1 18.717255 -3.515563 9.155457
703 0 1 18.127655 -3.600472 8.369034
704 0 1 18.106354 -3.173703 7.512955
705 0 1 18.054852 -4.109054 7.189590
706 0 1 17.815453 -3.479194 6.502747
707 0 1 16.896454 -3.446723 6.617630
708 0 1 16.383652 -3.815562 7.342819
709 0 1 15.963951 -4.611243 7.031021
710 0 1 16.746651 -5.150533 6.884720
711 0 1 17.086853 -6.056083 7.025284
712 0 1 16.216354 -6.369073 6.817474
713 0 1 16.761055 -6.669822 6.025146
714 0 1 17.413952 -6.190364 5.418854
715 0 1 17.446953 -7.110383 5.501740
716 0 1 17.250751 -7.654313 6.205719
717 0 1 17.083454 -8.296012 5.508820
718 0 1 16.426353 -8.201463 4.842041
719 0 1 17.206154 -7.627753 4.619675
720 0 1 17.949154 -7.317554 4.066116
721 0 1 18.362553 -7.766833 4.801971
722 0 1 18.357651 -8.743783 4.651520
723 0 1 18.593452 -9.330073 5.397186
724 0 1 19.066551 -10.039672 4.884476
725 0 1 18.703053 -9.744674 4.066711
726 0 1 18.566254 -10.352273 3.348801
727 0 1 19.073654 -10.088273 2.575653
728 0 1 18.368252 -10.234374 1.967728
729 0 1 18.569855 -9.329772 1.562226
730 0 1 17.594154 -9.192473 1.700775
731 0 1 17.749954 -8.510253 1.048996
732 0 1 18.292553 -8.186454 0.290879
733 0 1 17.897453 -8.755803 -0.384109
734 0 1 17.202854 -8.461284 -0.955414
735 0 1 16.886654 -9.159472 -0.330231
736 0 1 15.992752 -9.563972 -0.244812
737 0 1 15.539654 -9.490474 -1.107773
738 0 1 16.118652 -8.717223 -1.113434
739 0 1 15.157852 -8.441653 -1.381134
740 0 1 14.568203 -8.804534 -0.735840
741 0 1 13.852413 -8.607553 -1.290817
742 0 1 12.905701 -8.591033 -1.515045
743 0 1 13.123093 -9.397174 -0.993133
744 0 1 12.106064 -9.656173 -1.024826
745 0 1 11.440304 -10.378272 -0.797073
746 0 1 10.667061 -10.821973 -1.052414
747 0 1 10.675491 -11.754272 -1.455597
748 0 1 10.370132 -12.394973 -2.050201
749 0 1 10.367004 -12.972774 -1.222732
750 0 1 9.875313 -12.861274 -0.323761
751 0 1 8.968632 -13.199573 -0.382431
752 0 1 8.201813 -13.284673 0.108978
753 0 1 8.284683 -12.750274 0.927902
754 0 1 7.792671 -12.585773 1.658692
755 0 1 7.810371 -11.653071 1.906784
756 0 1 6.816803 -11.767173 1.739533
757 0 1 5.931543 -11.949573 2.165573
758 0 1 5.650552 -11.293372 1.455292
759 0 1 6.277030 -10.785073 0.908203
760 0 1 5.774272 -10.430072 0.169251
761 0 1 6.225933 -9.889773 -0.569305
762 0 1 5.605402 -9.192672 -0.743423
763 0 1 5.200965 -8.750173 -0.067611
764 0 1 5.471206 -9.325473 0.564499
765 0 1 4.555561 -9.580672 0.689438
766 0 1 4.031101 -10.254474 0.394394
767 0 1 4.766059 -10.670474 0.042130
768 0 1 4.920421 -10.097373 -0.728439
769 0 1 4.996168 -9.909173 -1.691482
770 0 1 4.179428 -9.571574 -1.294235
771 0 1 3.513082 -8.883683 -0.915863
772 0 1 2.804542 -9.465373 -1.068893
773 0 1 2.560472 -10.188174 -0.542816
774 0 1 3.135343 -10.869773 -0.076507
775 0 1 2.366893 -11.429374 0.050858
776 0 1 1.767463 -12.122373 0.057144
777 0 1 2.321752 -12.832473 -0.378433
778 0 1 2.672431 -13.700872 -0.619110
779 0 1 2.544542 -14.408673 -0.047088
780 0 1 2.327753 -13.696573 0.575547
781 0 1 1.912393 -13.038873 1.138703
782 0 1 2.066463 -12.271071 1.713944
783 0 1 3.011531 -12.500472 1.550278
784 0 1 3.675443 -13.001372 0.975876
785 0 1 3.268013 -13.187972 0.190567
786 0 1 4.063167 -12.622073 0.064286
787 0 1 4.300338 -12.877973 -0.864822
788 0 1 5.151916 -13.298673 -0.819488
789 0 1 6.107433 -13.114974 -1.114746
790 0 1 6.546463 -13.788373 -1.656006
791 0 1 6.880893 -14.603673 -2.000824
792 0 1 7.448112 -13.935073 -2.227386