LAMMPS data file via MDAnalysis

        2000  atoms
        1999  bonds
           0  angles
           0  dihedrals
           0  impropers

           1  atom types
           1  bond types
           0  angle types
           0  dihedral types
           0  improper types

-30.5 30.5 xlo xhi
-30.5 30.5 ylo yhi
-233.5 233.5 zlo zhi


Masses

1 1.000000

Atoms

1 0 1 -19.005148 -5.859386 78.483582
2 0 1 -18.021149 -6.016685 78.355011
3 0 1 -17.839748 -6.757317 78.873291
4 0 1 -16.956249 -7.133698 79.126190
5 0 1 -16.865549 -7.176857 80.088318
6 0 1 -17.421148 -7.189796 80.868805
7 0 1 -17.740448 -6.311876 80.773315
8 0 1 -18.263449 -6.515547 79.972504
9 0 1 -17.909548 -5.717766 79.562317
10 0 1 -17.114849 -5.247356 79.337189
11 0 1 -16.389948 -5.467157 79.964203
12 0 1 -15.957748 -5.138237 79.220703
13 0 1 -15.387049 -5.546877 78.556793
14 0 1 -14.731148 -6.037296 78.985901
15 0 1 -14.077049 -5.335026 79.096619
16 0 1 -13.210749 -5.458237 79.354004
17 0 1 -13.657148 -6.271467 79.578918
18 0 1 -13.733049 -6.468597 78.595001
19 0 1 -13.907448 -7.485275 78.561310
20 0 1 -14.449249 -8.030956 79.165009
21 0 1 -15.337448 -7.651146 79.381287
22 0 1 -15.054449 -8.368538 79.899902
23 0 1 -14.737349 -9.051758 79.290405
24 0 1 -14.429548 -9.494057 78.459198
25 0 1 -13.797049 -9.599657 79.173798
26 0 1 -13.398748 -9.143557 79.855896
27 0 1 -12.613949 -9.071457 79.320618
28 0 1 -11.903448 -9.709156 79.477509
29 0 1 -11.394348 -10.434757 79.925201
30 0 1 -10.557849 -10.155857 79.688416
31 0 1 -10.533249 -11.038456 79.288300
32 0 1 -10.233849 -11.928957 79.313202
33 0 1 -10.373249 -12.532557 78.604401
34 0 1 -9.364149 -12.166857 78.669495
35 0 1 -9.121849 -12.408157 79.587006
36 0 1 -9.880049 -12.396255 80.148193
37 0 1 -10.367549 -13.249657 80.251404
38 0 1 -11.069649 -13.401056 80.892609
39 0 1 -11.571848 -13.587156 80.175293
40 0 1 -11.806549 -14.386057 79.791016
41 0 1 -11.716749 -14.306256 78.797302
42 0 1 -10.885248 -14.439656 79.301605
43 0 1 -10.518449 -15.245056 79.043518
44 0 1 -9.736649 -15.288557 78.509094
45 0 1 -9.318148 -14.970356 79.314087
46 0 1 -8.978748 -14.300257 78.633606
47 0 1 -8.428549 -13.690057 79.069214
48 0 1 -7.409249 -13.394056 79.192596
49 0 1 -6.807848 -12.695957 78.825104
50 0 1 -6.049550 -13.213057 79.173889
51 0 1 -5.873549 -14.167657 79.283081
52 0 1 -6.623148 -14.370457 78.658081
53 0 1 -6.570250 -15.339657 78.587891
54 0 1 -7.406050 -15.128656 78.971985
55 0 1 -7.614050 -15.029356 78.044617
56 0 1 -7.249249 -15.290358 77.178894
57 0 1 -7.960150 -15.388756 76.599091
58 0 1 -8.059649 -14.656757 77.197998
59 0 1 -7.214148 -14.279357 76.818298
60 0 1 -6.974150 -13.384657 76.950897
61 0 1 -6.337349 -13.227857 76.319702
62 0 1 -6.147448 -13.052258 75.357788
63 0 1 -5.836949 -13.517357 74.593018
64 0 1 -5.889349 -14.388957 75.027710
65 0 1 -6.348750 -15.248257 74.917297
66 0 1 -7.007849 -15.529856 74.332397
67 0 1 -6.267550 -15.201757 73.795105
68 0 1 -6.872649 -14.769657 73.201111
69 0 1 -6.426049 -15.276056 72.515686
70 0 1 -5.884749 -15.759056 71.885498
71 0 1 -5.735749 -15.462656 70.970215
72 0 1 -5.634650 -14.660957 70.397797
73 0 1 -5.598250 -13.874157 69.882690
74 0 1 -6.278849 -13.224657 69.729095
75 0 1 -7.065550 -13.352157 70.329895
76 0 1 -7.314950 -14.105057 70.898315
77 0 1 -6.914649 -14.514657 70.096497
78 0 1 -6.649748 -14.705357 69.154297
79 0 1 -7.594550 -14.904957 69.111298
80 0 1 -8.063749 -15.241556 69.873199
81 0 1 -8.675848 -14.811857 69.342102
82 0 1 -8.714949 -14.160057 68.617096
83 0 1 -9.302050 -13.881557 69.267303
84 0 1 -10.121549 -14.216757 69.505005
85 0 1 -10.939949 -14.664658 69.683899
86 0 1 -11.251549 -14.958057 68.831482
87 0 1 -11.934750 -14.300957 68.826599
88 0 1 -11.521448 -13.696656 68.184296
89 0 1 -12.465748 -13.594657 68.056793
90 0 1 -13.200348 -13.364057 67.406982
91 0 1 -14.039749 -13.007755 67.001282
92 0 1 -14.433849 -12.841557 66.135590
93 0 1 -13.759048 -12.757957 65.457306
94 0 1 -12.877348 -12.866457 64.998505
95 0 1 -12.665148 -13.534456 64.408508
96 0 1 -13.296648 -14.271357 64.732788
97 0 1 -14.222549 -14.150057 64.475006
98 0 1 -14.509048 -14.444257 63.546906
99 0 1 -15.236248 -15.037056 63.335388
100 0 1 -15.326448 -15.851458 62.857910
101 0 1 -16.175648 -15.748957 63.216309
102 0 1 -16.205050 -14.933256 62.714294
103 0 1 -16.184948 -13.991357 62.498810
104 0 1 -16.690449 -13.230556 62.171509
105 0 1 -17.165749 -13.543257 61.426910
106 0 1 -16.528049 -14.155857 61.130798
107 0 1 -16.602949 -13.804256 60.221008
108 0 1 -16.380650 -12.940157 59.854706
109 0 1 -15.465649 -12.801556 60.216614
110 0 1 -14.616949 -13.282157 60.237305
111 0 1 -14.573448 -12.748158 61.048309
112 0 1 -14.439548 -12.238556 61.927704
113 0 1 -14.494749 -11.563156 61.220612
114 0 1 -14.327250 -10.820557 60.675903
115 0 1 -13.722248 -10.859657 60.028992
116 0 1 -12.999649 -10.799757 60.731995
117 0 1 -13.182449 -10.459957 61.705292
118 0 1 -13.199249 -11.433956 61.849915
119 0 1 -12.358149 -11.700855 62.345398
120 0 1 -11.720549 -11.061657 62.696594
121 0 1 -11.071749 -11.026056 63.404694
122 0 1 -10.472249 -10.443058 62.949097
123 0 1 -10.055948 -10.996555 63.573212
124 0 1 -9.902449 -10.883656 64.518707
125 0 1 -9.851548 -10.654358 65.467712
126 0 1 -10.209748 -11.011757 66.268982
127 0 1 -10.500249 -10.707157 67.173492
128 0 1 -9.780748 -10.495155 67.822296
129 0 1 -10.240549 -10.519457 68.705200
130 0 1 -11.136549 -10.604958 68.532715
131 0 1 -11.864849 -10.598557 69.117401
132 0 1 -10.992949 -10.264256 69.574890
133 0 1 -10.654948 -9.384155 69.648682
134 0 1 -11.152449 -8.593027 69.757294
135 0 1 -11.185049 -7.836876 70.358704
136 0 1 -10.695349 -7.321976 69.764404
137 0 1 -10.102649 -8.163326 69.765503
138 0 1 -9.296949 -8.109556 69.177094
139 0 1 -9.407748 -7.222385 69.600586
140 0 1 -9.344449 -7.232737 68.588501
141 0 1 -9.020849 -7.694036 67.897888
142 0 1 -9.773249 -7.377787 67.298096
143 0 1 -9.676848 -6.962498 66.358887
144 0 1 -9.700949 -6.179787 66.936096
145 0 1 -10.098449 -5.643467 66.247589
146 0 1 -9.888948 -5.198906 65.419403
147 0 1 -9.153149 -4.634386 65.478394
148 0 1 -9.045950 -4.689037 64.482605
149 0 1 -9.833448 -4.304636 64.017609
150 0 1 -9.420448 -3.577736 63.511597
151 0 1 -8.697149 -3.130367 63.907806
152 0 1 -8.193148 -3.098707 64.722900
153 0 1 -7.795249 -3.402866 65.556702
154 0 1 -7.407849 -4.134756 66.059204
155 0 1 -7.690449 -4.150476 67.026184
156 0 1 -6.847649 -4.116087 67.519501
157 0 1 -6.631949 -3.308117 68.007019
158 0 1 -6.207749 -2.461397 67.742188
159 0 1 -5.443850 -2.856466 68.156311
160 0 1 -5.024550 -2.109066 68.614502
161 0 1 -5.616850 -1.967605 69.360413
162 0 1 -6.535349 -1.814266 69.078308
163 0 1 -6.771048 -2.402916 69.850189
164 0 1 -6.310750 -1.552387 70.046204
165 0 1 -6.539450 -0.702076 70.527405
166 0 1 -6.545748 -0.361566 71.494019
167 0 1 -5.734648 -0.009016 71.126801
168 0 1 -5.052649 -0.148636 70.459595
169 0 1 -4.394669 0.170473 71.080017
170 0 1 -5.146250 0.831789 71.210815
171 0 1 -6.010550 0.982977 71.555115
172 0 1 -6.531050 1.664410 71.012604
173 0 1 -6.165949 2.533434 70.754303
174 0 1 -7.100449 2.580833 71.035583
175 0 1 -7.745450 2.184570 70.385986
176 0 1 -7.251650 2.789963 69.836395
177 0 1 -7.176449 3.642742 70.208099
178 0 1 -6.491049 4.146992 69.779419
179 0 1 -5.635849 4.126045 69.320496
180 0 1 -6.073451 4.238441 68.495605
181 0 1 -6.086348 4.975792 67.918396
182 0 1 -5.545249 5.557823 68.380615
183 0 1 -5.954051 6.476974 68.391693
184 0 1 -6.573550 6.458633 69.128204
185 0 1 -7.470049 6.395103 68.716492
186 0 1 -7.851849 7.033165 69.454590
187 0 1 -7.932448 7.990883 69.326782
188 0 1 -6.989348 7.868584 69.266205
189 0 1 -6.477850 8.356853 69.888611
190 0 1 -6.009150 9.156235 69.968811
191 0 1 -5.683550 8.639725 69.176605
192 0 1 -4.744830 8.549614 69.249908
193 0 1 -4.445479 8.916512 68.411804
194 0 1 -4.259058 9.037033 67.439514
195 0 1 -4.027178 8.314484 66.765106
196 0 1 -3.183428 8.264542 66.319885
197 0 1 -2.373240 7.913155 65.970886
198 0 1 -2.280869 8.356804 66.884216
199 0 1 -2.325850 8.265453 67.869110
200 0 1 -2.521048 7.343254 67.477905
201 0 1 -2.019129 7.257793 66.674591
202 0 1 -1.396708 7.693104 66.115112
203 0 1 -0.670149 7.839653 65.391418
204 0 1 -0.056689 7.102222 65.252106
205 0 1 0.603961 7.107224 66.005981
206 0 1 1.411130 6.552124 66.113586
207 0 1 2.074972 5.815075 66.239319
208 0 1 2.965480 5.833435 66.614105
209 0 1 2.895681 6.428741 65.835205
210 0 1 3.692041 7.001793 65.627808
211 0 1 4.328327 6.516975 65.118286
212 0 1 4.829658 6.093494 64.329590
213 0 1 4.741588 6.978493 64.054504
214 0 1 3.839691 6.811272 63.947296
215 0 1 3.509801 6.784954 62.999603
216 0 1 3.723381 7.668072 63.308411
217 0 1 3.947410 8.357094 62.669800
218 0 1 4.267679 8.949623 61.934509
219 0 1 3.735212 9.064754 61.162292
220 0 1 3.104940 8.408165 61.213501
221 0 1 2.974271 8.306305 60.233215
222 0 1 2.846811 7.733154 59.387512
223 0 1 2.347320 7.590614 58.602600
224 0 1 3.047620 7.004852 58.611206
225 0 1 3.670400 6.699265 59.259796
226 0 1 4.635503 6.710903 59.416992
227 0 1 4.672651 7.071342 58.597412
228 0 1 4.160551 6.403893 57.993408
229 0 1 3.822502 7.330952 57.740295
230 0 1 2.885702 7.268463 57.548798
231 0 1 3.047922 7.676792 56.652802
232 0 1 2.246240 8.184124 56.704102
233 0 1 1.652172 7.592823 56.187897
234 0 1 1.662570 6.684322 56.468903
235 0 1 1.922801 6.125805 57.216400
236 0 1 1.102451 6.381325 57.545410
237 0 1 0.261270 5.691853 57.412506
238 0 1 -0.275670 6.445004 57.236084
239 0 1 -0.588639 5.607483 56.743011
240 0 1 -0.398669 5.394314 55.818909
241 0 1 0.454740 5.011913 55.668884
242 0 1 0.979410 5.286304 56.442902
243 0 1 1.201150 4.793835 57.293884
244 0 1 1.770391 4.540524 57.979889
245 0 1 1.457321 5.391613 58.107208
246 0 1 1.725881 5.628864 58.978790
247 0 1 2.166971 5.079582 59.708893
248 0 1 3.006610 5.395142 60.092194
249 0 1 2.671300 6.054363 60.726013
250 0 1 2.147380 5.553623 61.291687
251 0 1 1.454551 5.018345 61.692596
252 0 1 0.782442 4.381905 61.888489
253 0 1 -0.003579 3.882374 62.171295
254 0 1 0.778020 3.352413 61.896606
255 0 1 1.577751 2.778013 62.169403
256 0 1 2.424051 2.555824 62.592102
257 0 1 1.777061 1.820221 62.888489
258 0 1 2.253782 1.602984 63.799011
259 0 1 2.335222 2.180096 64.597412
260 0 1 3.137561 1.790796 64.319519
261 0 1 3.988971 1.502567 64.011292
262 0 1 4.505289 0.696743 63.551605
263 0 1 5.241350 1.297554 63.678284
264 0 1 5.619546 0.343594 63.633698
265 0 1 5.665224 -0.588337 63.279999
266 0 1 6.185871 -0.838617 64.055481
267 0 1 6.696371 -1.107715 63.296295
268 0 1 6.911680 -0.317247 62.755005
269 0 1 7.471780 -0.775856 62.018707
270 0 1 6.825681 -0.967047 61.337494
271 0 1 6.090116 -1.339046 61.892303
272 0 1 5.275548 -1.812527 61.826996
273 0 1 4.490180 -1.594297 62.312683
274 0 1 4.373596 -2.518467 62.252899
275 0 1 3.901041 -3.355047 61.998993
276 0 1 3.996400 -3.899456 61.223206
277 0 1 3.893041 -4.292547 60.373291
278 0 1 3.292371 -4.862087 60.783905
279 0 1 2.744531 -5.636127 60.960510
280 0 1 2.128622 -4.966927 60.615692
281 0 1 2.660202 -4.082226 60.848083
282 0 1 2.181482 -3.721357 60.058289
283 0 1 3.018840 -3.336687 59.809906
284 0 1 2.571352 -3.787867 59.038513
285 0 1 3.401161 -3.573467 58.761108
286 0 1 3.735370 -3.545456 57.880096
287 0 1 4.558343 -3.925537 57.714813
288 0 1 4.026741 -4.679346 57.389801
289 0 1 4.662931 -5.109846 57.956909
290 0 1 3.867921 -5.588747 57.849701
291 0 1 4.108381 -6.443407 57.546600
292 0 1 4.166425 -7.009277 56.768799
293 0 1 3.515880 -6.325436 56.388306
294 0 1 2.977420 -5.636257 55.853302
295 0 1 3.916641 -5.697636 55.614288
296 0 1 4.144590 -5.380257 54.751495
297 0 1 4.596422 -5.432636 53.959808
298 0 1 4.024452 -6.144398 54.110291
299 0 1 3.583501 -6.590107 53.325287
300 0 1 4.069082 -6.633408 52.451508
301 0 1 4.977575 -6.909626 52.648193
302 0 1 5.745592 -6.335316 52.625092
303 0 1 5.285221 -6.442417 53.501495
304 0 1 5.873880 -6.141037 54.232483
305 0 1 6.666341 -5.543686 54.316406
306 0 1 6.231370 -4.656097 54.461304
307 0 1 6.012924 -4.149326 53.700989
308 0 1 5.191000 -4.202286 53.192108
309 0 1 4.868219 -3.470325 53.702209
310 0 1 4.350141 -2.738358 53.451294
311 0 1 5.032207 -2.106216 53.007904
312 0 1 5.380334 -1.746626 52.123291
313 0 1 5.176723 -0.905996 51.668091
314 0 1 4.668062 -0.089306 51.788788
315 0 1 5.305580 0.317083 51.046509
316 0 1 5.955228 1.019142 51.088501
317 0 1 6.220800 1.365391 51.959106
318 0 1 7.079942 0.999256 51.843689
319 0 1 7.973463 0.615816 51.843811
320 0 1 8.859510 0.803400 52.036987
321 0 1 9.102133 1.695456 51.782898
322 0 1 9.164080 2.012329 52.671387
323 0 1 8.308321 1.800207 53.041687
324 0 1 8.406412 1.880116 53.953888
325 0 1 8.931532 2.416113 54.625397
326 0 1 9.093012 2.510874 55.574310
327 0 1 9.172392 1.529074 55.567505
328 0 1 9.902300 1.269444 54.983795
329 0 1 10.519110 2.074396 54.811584
330 0 1 10.539583 1.901110 53.848816
331 0 1 10.494249 2.831774 53.718811
332 0 1 11.047941 3.676533 53.920410
333 0 1 11.494192 4.518555 54.033691
334 0 1 12.476992 4.775555 53.885590
335 0 1 12.384081 4.730354 52.932098
336 0 1 12.485960 5.540974 52.458496
337 0 1 13.107241 5.912811 51.844604
338 0 1 13.488821 5.106083 51.599609
339 0 1 13.007181 4.288551 51.825287
340 0 1 13.652243 3.786133 51.371094
341 0 1 14.063631 3.543785 50.497803
342 0 1 14.188540 3.916012 49.645813
343 0 1 13.825113 4.814083 49.557709
344 0 1 14.441481 5.324924 48.926788
345 0 1 14.258112 4.986305 48.022308
346 0 1 13.629160 5.749275 48.097809
347 0 1 13.421461 6.405735 48.766998
348 0 1 14.264299 6.702072 48.479309
349 0 1 14.592524 7.608894 48.798492
350 0 1 15.072542 8.365433 49.119110
351 0 1 16.016352 8.508892 49.217102
352 0 1 16.267950 7.550705 49.145111
353 0 1 17.021151 7.024742 48.838104
354 0 1 17.421152 6.397923 48.214691
355 0 1 16.673151 6.273903 47.626404
356 0 1 16.106150 5.716743 47.070099
357 0 1 15.555849 5.053875 46.621490
358 0 1 16.259653 5.115784 45.858612
359 0 1 15.659349 5.625523 45.230591
360 0 1 16.580851 5.500504 44.896210
361 0 1 17.589552 5.301544 44.723816
362 0 1 17.721952 5.319714 43.669189
363 0 1 17.800753 4.416912 43.377014
364 0 1 17.265051 3.912785 42.738708
365 0 1 16.349051 3.758923 42.436401
366 0 1 16.838552 3.882164 41.695496
367 0 1 16.371450 3.296734 41.067291
368 0 1 16.051851 3.725903 40.282990
369 0 1 15.029661 3.712143 40.141602
370 0 1 15.288450 4.545975 40.571198
371 0 1 14.682432 5.376144 40.601288
372 0 1 13.843191 5.795483 40.634094
373 0 1 13.930311 6.724945 40.415405
374 0 1 13.615721 7.595734 40.085510
375 0 1 13.622641 8.068764 39.283203
376 0 1 13.676523 7.080292 39.163391
377 0 1 13.124582 6.586353 38.491699
378 0 1 13.987032 6.326355 38.180786
379 0 1 14.362852 7.185875 37.932587
380 0 1 14.737810 6.674244 37.196106
381 0 1 15.324053 7.358692 36.859497
382 0 1 15.746050 7.929142 37.429993
383 0 1 16.001253 8.610985 38.156403
384 0 1 15.967051 9.377632 37.604889
385 0 1 16.159552 10.333916 37.599304
386 0 1 16.290552 10.453972 36.628998
387 0 1 16.839151 9.690392 36.475800
388 0 1 17.582651 9.800232 35.829895
389 0 1 18.464251 9.529144 35.801208
390 0 1 18.171152 8.613934 35.717499
391 0 1 17.212652 8.792542 35.688416
392 0 1 16.298250 8.423225 35.803192
393 0 1 15.424650 8.741512 35.743195
394 0 1 15.304850 9.029472 34.862091
395 0 1 15.378851 8.044144 34.794495
396 0 1 16.040052 7.588463 34.317505
397 0 1 16.387651 8.453941 34.592285
398 0 1 16.617952 8.705292 33.672211
399 0 1 17.506052 8.533024 33.576111
400 0 1 18.322451 8.177273 33.191010
401 0 1 19.027452 8.406845 32.592896
402 0 1 19.969049 8.436962 32.849701
403 0 1 20.602053 9.033524 32.350403
404 0 1 21.470949 9.305763 32.801514
405 0 1 21.595652 10.168945 32.381195
406 0 1 22.214651 10.794575 32.796112
407 0 1 22.564352 11.496544 33.334991
408 0 1 23.147249 12.218445 33.156799
409 0 1 23.158251 12.662544 32.279297
410 0 1 22.286551 13.062943 32.147217
411 0 1 21.579451 13.444145 32.596710
412 0 1 21.144651 12.993942 33.240906
413 0 1 20.310053 12.571743 32.921906
414 0 1 20.232149 11.855644 32.274994
415 0 1 19.614450 11.436344 31.719391
416 0 1 20.404150 10.913391 31.936401
417 0 1 21.148951 10.893745 31.333893
418 0 1 21.476152 10.189735 30.707092
419 0 1 21.976851 10.565292 29.876495
420 0 1 22.841951 10.118462 29.885101
421 0 1 23.067350 9.465054 29.182007
422 0 1 23.750051 10.154533 29.005493
423 0 1 24.224154 10.138641 29.852386
424 0 1 24.675653 10.961922 30.215210
425 0 1 25.463953 10.785053 30.662994
426 0 1 25.412951 11.617943 30.143799
427 0 1 25.007952 12.195843 29.459808
428 0 1 25.404551 11.847443 28.707794
429 0 1 25.207949 11.115314 28.060699
430 0 1 25.062754 11.999146 27.709106
431 0 1 24.758451 12.799343 27.288910
432 0 1 23.852152 13.097843 27.106384
433 0 1 24.547750 13.139046 26.356903
434 0 1 25.146250 12.302742 26.344299
435 0 1 25.198851 11.676243 25.619202
436 0 1 25.686651 12.076645 24.911499
437 0 1 25.195650 12.477745 24.230591
438 0 1 24.536654 12.163742 23.566986
439 0 1 23.998453 12.553844 22.835815
440 0 1 23.548853 12.255344 22.015594
441 0 1 23.240652 11.343056 21.854095
442 0 1 22.732252 11.070312 21.107208
443 0 1 21.723951 10.948982 21.050201
444 0 1 21.603952 10.048454 21.442108
445 0 1 20.900553 9.926895 20.857498
446 0 1 19.990549 9.864964 21.042404
447 0 1 20.347452 8.924263 21.255096
448 0 1 19.811251 8.162422 21.450195
449 0 1 19.446951 8.335014 20.610107
450 0 1 20.170752 7.703564 20.501297
451 0 1 20.976954 7.762005 20.077499
452 0 1 20.858850 7.006672 19.478195
453 0 1 20.289949 6.321934 19.316193
454 0 1 19.553553 6.840763 18.968506
455 0 1 18.577852 6.700424 18.946701
456 0 1 18.244852 6.508373 19.822800
457 0 1 17.848452 5.689625 20.081696
458 0 1 16.940653 5.507912 19.702393
459 0 1 16.575251 6.308125 19.249908
460 0 1 17.065851 7.095123 19.651093
461 0 1 16.211153 7.307602 20.009903
462 0 1 15.429453 6.786724 20.309494
463 0 1 14.810862 6.181713 20.805405
464 0 1 15.278151 5.590332 21.352203
465 0 1 14.797213 4.741783 21.239502
466 0 1 13.938471 4.878433 20.688705
467 0 1 13.241011 5.239773 20.154999
468 0 1 13.297602 4.289284 20.167694
469 0 1 13.089640 3.793972 20.998001
470 0 1 13.672682 3.149742 21.206100
471 0 1 13.645452 3.110985 20.246399
472 0 1 13.485701 2.615173 19.392899
473 0 1 13.775351 1.718390 19.326996
474 0 1 14.447783 2.313597 18.926605
475 0 1 14.783590 3.114754 18.639893
476 0 1 14.801413 3.030533 17.705002
477 0 1 14.220499 3.793503 17.859604
478 0 1 13.910490 3.576633 17.003403
479 0 1 13.743059 2.645054 16.875702
480 0 1 14.050493 1.740429 16.820892
481 0 1 13.463430 1.650297 17.694000
482 0 1 13.663862 0.819740 17.352402
483 0 1 12.906763 0.210583 17.305801
484 0 1 13.181902 0.475731 18.223495
485 0 1 13.097830 -0.474007 18.292099
486 0 1 14.040171 -0.505646 18.174301
487 0 1 14.698240 -1.230436 18.264099
488 0 1 15.629652 -0.964836 18.438599
489 0 1 16.480150 -0.696487 18.774796
490 0 1 16.997553 -0.959328 19.555603
491 0 1 17.068354 -0.351467 20.273804
492 0 1 16.999353 -0.758196 21.136292
493 0 1 16.605352 0.109184 21.052200
494 0 1 17.041250 0.922232 20.716797
495 0 1 17.745951 1.517096 20.687302
496 0 1 18.559549 1.407610 20.191605
497 0 1 19.221552 1.549063 20.877304
498 0 1 19.798052 2.284807 20.497299
499 0 1 20.420252 1.890495 21.112595
500 0 1 19.877050 2.542393 21.656204
501 0 1 18.976751 2.804733 22.129303
502 0 1 19.014853 2.662054 23.086487
503 0 1 18.543753 1.923002 23.624908
504 0 1 18.130251 2.060320 24.459106
505 0 1 17.738451 2.922543 24.707489
506 0 1 17.919050 3.722275 25.192993
507 0 1 18.748751 4.050983 25.497192
508 0 1 18.772951 3.312515 26.041901
509 0 1 17.820051 3.513302 26.253510
510 0 1 16.950953 3.037483 26.278992
511 0 1 16.187052 3.671963 26.354095
512 0 1 15.641050 3.456505 25.610291
513 0 1 15.246450 2.668764 25.358307
514 0 1 15.044512 2.986492 24.414886
515 0 1 15.439550 3.016445 23.514008
516 0 1 15.417051 2.302885 22.816406
517 0 1 14.961302 1.728729 23.362793
518 0 1 14.823141 0.992220 22.742401
519 0 1 15.184752 0.279614 23.199188
520 0 1 15.092333 0.327454 24.193390
521 0 1 14.671232 -0.367927 24.771790
522 0 1 13.718790 -0.253017 24.964111
523 0 1 13.346251 -1.045246 24.452606
524 0 1 13.258322 -1.815197 25.016388
525 0 1 12.865602 -1.262417 25.737213
526 0 1 13.606661 -1.562767 26.325806
527 0 1 14.317270 -2.191137 26.267395
528 0 1 15.203550 -2.122177 26.676392
529 0 1 15.430052 -3.019196 26.571503
530 0 1 15.334650 -3.924437 26.272095
531 0 1 16.065149 -3.757256 26.937286
532 0 1 17.071154 -3.585917 27.251495
533 0 1 17.940050 -3.975046 27.196289
534 0 1 18.018152 -4.212557 26.241211
535 0 1 18.185850 -4.323246 25.347809
536 0 1 17.889952 -3.352306 25.640289
537 0 1 18.171450 -2.455048 25.764893
538 0 1 18.717951 -2.418407 24.946198
539 0 1 19.169352 -1.639116 24.716095
540 0 1 18.909452 -0.843786 25.132599
541 0 1 19.568151 -0.804386 25.856201
542 0 1 19.097151 -0.818706 26.719604
543 0 1 18.354349 -0.245247 26.968109
544 0 1 18.694750 -0.828728 27.688599
545 0 1 19.329149 -0.559257 28.333710
546 0 1 18.639853 0.101074 28.418610
547 0 1 18.753752 0.045563 29.356903
548 0 1 17.837450 -0.126247 29.245789
549 0 1 17.219450 -0.510246 29.917206
550 0 1 17.463953 0.177454 30.515198
551 0 1 16.662851 0.569904 30.328705
552 0 1 16.742052 1.094004 31.219208
553 0 1 16.747553 2.035961 31.030304
554 0 1 16.248453 2.787493 30.442596
555 0 1 15.510752 2.335678 29.953186
556 0 1 15.287653 3.229214 30.239288
557 0 1 14.432261 2.970535 29.837708
558 0 1 14.223322 2.136061 30.200714
559 0 1 13.407320 1.852760 29.704285
560 0 1 12.678003 1.701496 29.082092
561 0 1 12.037821 2.349895 28.729095
562 0 1 11.484541 2.599684 29.446106
563 0 1 11.874731 3.267395 29.985107
564 0 1 11.557722 3.163704 30.880798
565 0 1 10.718073 2.934235 31.353516
566 0 1 11.143480 2.836823 32.218201
567 0 1 11.160990 1.939573 32.398499
568 0 1 10.650583 1.870749 33.190002
569 0 1 10.804392 2.745024 33.462402
570 0 1 9.889952 2.728653 33.201996
571 0 1 9.611170 3.565464 33.683502
572 0 1 9.452391 3.310642 34.589203
573 0 1 9.396692 2.404703 34.273590
574 0 1 9.460932 1.533310 34.637512
575 0 1 8.591002 1.156859 34.454712
576 0 1 7.771650 1.610085 34.424591
577 0 1 8.254892 2.357317 34.868103
578 0 1 7.474821 2.319014 35.421814
579 0 1 7.685281 2.428843 36.398804
580 0 1 7.840322 3.330933 36.845795
581 0 1 7.527643 4.186493 37.024414
582 0 1 7.342729 5.080994 37.103912
583 0 1 6.856851 5.547752 36.263794
584 0 1 6.542800 5.845623 37.109406
585 0 1 5.834924 6.366734 37.539307
586 0 1 5.157558 5.702503 37.511810
587 0 1 4.975280 6.320774 36.776306
588 0 1 4.433914 6.013252 36.049500
589 0 1 3.839601 5.553902 36.658813
590 0 1 3.664602 4.974045 35.863403
591 0 1 2.722351 5.008812 35.792694
592 0 1 2.369340 5.218975 34.941010
593 0 1 2.162681 4.881413 34.014313
594 0 1 1.235610 5.049294 34.284790
595 0 1 0.925571 4.431202 33.618713
596 0 1 0.361150 5.162815 33.523315
597 0 1 -0.128958 5.159164 32.623596
598 0 1 0.348630 5.339703 31.737915
599 0 1 1.208850 5.539375 31.492096
600 0 1 0.646261 5.167133 30.797913
601 0 1 1.040571 4.317154 30.873596
602 0 1 1.486412 4.042103 30.087494
603 0 1 1.247732 4.893814 29.656403
604 0 1 1.547830 5.623161 30.243805
605 0 1 1.413560 6.477852 30.706604
606 0 1 1.512990 7.092361 31.417297
607 0 1 1.072561 7.005314 32.311707
608 0 1 1.369291 7.626694 32.901917
609 0 1 0.490030 7.956322 32.638184
610 0 1 -0.313769 8.231693 33.067505
611 0 1 -0.494809 7.455704 32.423492
612 0 1 -1.103770 8.017902 31.935699
613 0 1 -1.464089 8.202885 32.794006
614 0 1 -2.383729 8.417782 32.812012
615 0 1 -2.481120 8.257782 33.780487
616 0 1 -1.541480 8.397255 33.999298
617 0 1 -2.083809 8.004864 34.714600
618 0 1 -1.646578 7.850044 35.517700
619 0 1 -2.211390 8.526283 35.889191
620 0 1 -2.739630 7.942852 36.434601
621 0 1 -3.552710 7.528423 36.687592
622 0 1 -2.892130 7.133942 37.267212
623 0 1 -3.396889 6.317673 37.470398
624 0 1 -3.754179 7.017593 38.000305
625 0 1 -3.797820 6.221275 38.690613
626 0 1 -3.479628 5.407455 39.070404
627 0 1 -4.064158 5.018944 39.748901
628 0 1 -3.253489 5.257362 40.313812
629 0 1 -2.284869 5.171215 39.942902
630 0 1 -2.393939 5.156643 39.000916
631 0 1 -1.664408 5.696064 38.598206
632 0 1 -1.010399 4.993595 38.316803
633 0 1 -0.028220 5.270863 38.187988
634 0 1 -0.205489 5.518692 37.291504
635 0 1 -0.115189 4.597443 37.274994
636 0 1 -0.877310 4.045933 37.194397
637 0 1 -1.130938 4.725792 36.535583
638 0 1 -0.437880 5.295555 36.234589
639 0 1 -0.788439 6.182682 36.515411
640 0 1 -0.817629 6.799244 35.776093
641 0 1 -0.378689 7.461143 36.247894
642 0 1 -0.247729 7.760983 37.166412
643 0 1 -0.514180 8.744755 36.938599
644 0 1 -0.359488 9.582554 36.422913
645 0 1 0.042230 10.228832 35.860596
646 0 1 0.728830 10.486061 35.250610
647 0 1 1.590890 10.111694 35.164490
648 0 1 2.586860 9.881454 35.207001
649 0 1 3.057630 10.751625 35.086914
650 0 1 3.362251 11.101723 35.959808
651 0 1 3.514030 11.851944 35.282806
652 0 1 3.345232 12.755241 35.282898
653 0 1 4.030462 12.972843 35.922485
654 0 1 3.590021 13.793343 36.105408
655 0 1 4.207317 14.434242 35.743805
656 0 1 4.706045 13.970943 36.345398
657 0 1 5.442417 13.432545 36.445007
658 0 1 5.192708 12.636845 36.954803
659 0 1 5.143558 13.374245 37.641907
660 0 1 4.389814 14.001144 37.566284
661 0 1 3.897602 14.779442 37.423309
662 0 1 4.156631 14.686844 38.324402
663 0 1 4.071830 15.591145 38.656006
664 0 1 3.182111 15.582344 38.309296
665 0 1 3.239000 16.330944 37.715210
666 0 1 2.761261 16.867043 38.294891
667 0 1 2.023401 17.469841 38.447906
668 0 1 1.261131 17.157845 37.962311
669 0 1 0.671611 16.794342 37.219788
670 0 1 -0.101550 16.805443 36.530609
671 0 1 -0.465569 17.232544 35.701813
672 0 1 -1.422280 17.501541 35.911591
673 0 1 -1.937079 18.323242 35.607697
674 0 1 -2.507079 17.744644 36.248413
675 0 1 -2.148129 17.854744 37.112793
676 0 1 -1.976988 18.675144 36.683105
677 0 1 -1.901759 19.610943 36.476501
678 0 1 -1.120240 19.447342 37.119690
679 0 1 -0.884469 20.058342 36.376007
680 0 1 -0.597029 20.349243 35.538910
681 0 1 -1.243258 21.016644 35.623993
682 0 1 -1.516219 20.954742 36.551208
683 0 1 -1.411210 20.828545 37.514587
684 0 1 -2.090258 21.456245 37.770203
685 0 1 -2.464228 20.871544 38.492615
686 0 1 -2.639390 19.931744 38.351410
687 0 1 -2.906529 19.137741 37.795105
688 0 1 -3.626679 18.543045 38.235291
689 0 1 -4.335139 18.382843 37.634888
690 0 1 -5.121050 18.648743 37.075409
691 0 1 -6.063149 18.659843 37.420410
692 0 1 -6.333449 18.986641 38.260315
693 0 1 -7.191748 18.875046 38.665405
694 0 1 -7.590949 19.763542 38.440704
695 0 1 -8.286549 20.307343 38.044800
696 0 1 -7.605250 20.933243 38.566498
697 0 1 -7.462451 21.914543 38.500397
698 0 1 -7.452651 22.713943 37.999512
699 0 1 -8.382048 22.967545 37.777710
700 0 1 -8.892050 23.134243 36.958191
701 0 1 -8.360350 22.861145 36.178192
702 0 1 -7.531649 22.563744 36.629913
703 0 1 -7.228749 22.907444 35.703400
704 0 1 -7.707749 23.764843 35.662811
705 0 1 -8.100948 24.409645 35.052094
706 0 1 -9.025848 24.732143 35.068695
707 0 1 -9.753248 24.115643 35.262604
708 0 1 -10.124449 24.745041 34.587006
709 0 1 -9.797949 24.681843 33.618103
710 0 1 -9.798849 24.177246 32.750793
711 0 1 -10.416149 23.517746 33.159393
712 0 1 -10.497748 23.542145 32.179108
713 0 1 -10.622048 22.592743 32.040497
714 0 1 -11.373949 23.004642 32.497314
715 0 1 -11.351749 22.115543 32.767792
716 0 1 -11.115948 21.187344 32.956696
717 0 1 -11.106348 21.741444 33.700195
718 0 1 -11.590448 20.973946 34.138397
719 0 1 -10.927549 20.314941 33.875092
720 0 1 -10.827349 19.704445 34.626404
721 0 1 -10.734949 19.299446 35.557312
722 0 1 -11.379349 18.709843 35.103607
723 0 1 -11.730049 18.715645 35.993286
724 0 1 -11.343349 17.863342 35.792786
725 0 1 -10.821348 18.163345 36.530487
726 0 1 -10.693748 19.002541 37.080811
727 0 1 -10.345149 18.068245 37.454193
728 0 1 -10.601449 17.200142 37.207611
729 0 1 -10.281249 16.673843 37.940796
730 0 1 -10.605449 16.946545 38.839111
731 0 1 -11.208549 16.297142 39.223389
732 0 1 -11.981348 16.342144 38.744110
733 0 1 -11.898748 15.404644 38.735199
734 0 1 -12.802349 15.729343 38.557404
735 0 1 -12.956348 15.033943 39.251312
736 0 1 -12.400249 14.920944 40.070007
737 0 1 -11.892349 14.131245 40.177185
738 0 1 -11.042549 14.643745 39.888702
739 0 1 -11.026649 14.210945 39.043884
740 0 1 -11.407549 13.588745 38.480286
741 0 1 -12.135448 13.756943 39.091095
742 0 1 -12.969349 13.426842 39.289703
743 0 1 -13.914949 13.215443 39.046387
744 0 1 -14.345949 13.694344 39.853394
745 0 1 -15.060450 13.891945 40.537994
746 0 1 -15.559948 14.502644 41.070007
747 0 1 -15.310749 14.945942 40.256287
748 0 1 -15.438349 14.632942 39.373291
749 0 1 -15.516348 13.660042 39.450409
750 0 1 -15.840549 13.134045 40.086792
751 0 1 -15.847549 13.040844 41.035797
752 0 1 -15.522848 12.837543 41.959106
753 0 1 -16.317749 12.140343 42.175415
754 0 1 -17.093248 12.475044 41.746399
755 0 1 -17.367048 12.586544 42.683289
756 0 1 -17.805948 13.332745 42.974701
757 0 1 -17.380548 13.927742 43.633087
758 0 1 -17.460749 13.177242 44.296112
759 0 1 -17.164749 12.342842 44.579590
760 0 1 -17.190350 11.880444 43.801697
761 0 1 -17.806448 11.317215 43.331696
762 0 1 -18.479248 10.688095 43.141785
763 0 1 -19.268648 11.016693 43.656708
764 0 1 -18.499748 10.819393 44.212891
765 0 1 -18.711649 10.780323 45.142883
766 0 1 -18.376749 11.269363 45.951904
767 0 1 -17.595749 10.905094 45.580017
768 0 1 -17.072449 10.715744 46.350006
769 0 1 -17.188848 10.993202 47.263306
770 0 1 -17.344049 10.768684 48.238800
771 0 1 -17.207048 10.619682 49.170105
772 0 1 -17.049448 9.687752 49.327515
773 0 1 -16.168148 9.960281 49.393188
774 0 1 -15.433649 10.585953 49.518799
775 0 1 -14.747648 9.977283 49.378784
776 0 1 -13.951849 9.988884 48.795105
777 0 1 -13.597849 9.849945 47.910004
778 0 1 -13.565548 9.212772 47.168304
779 0 1 -13.351549 8.462273 47.747498
780 0 1 -12.629749 8.395523 47.194397
781 0 1 -12.232748 7.580124 46.982483
782 0 1 -12.618248 7.698395 47.872803
783 0 1 -13.337648 7.043884 47.808105
784 0 1 -13.930048 6.554363 47.303284
785 0 1 -14.238749 7.463413 47.019287
786 0 1 -14.777649 8.226673 47.231201
787 0 1 -15.449848 8.572582 47.791412
788 0 1 -15.517649 8.006504 48.568390
789 0 1 -15.313848 7.853333 49.480103