LAMMPS data file via MDAnalysis

        2000  atoms
        1999  bonds
           0  angles
           0  dihedrals
           0  impropers

           1  atom types
           1  bond types
           0  angle types
           0  dihedral types
           0  improper types

-30.5 30.5 xlo xhi
-30.5 30.5 ylo yhi
-233.5 233.5 zlo zhi


Masses

1 1.000000

Atoms

1 0 1 18.226595 -14.190316 30.748596
2 0 1 19.032694 -14.395215 31.121613
3 0 1 19.188395 -14.540315 32.049194
4 0 1 19.108496 -15.501515 31.877686
5 0 1 18.539598 -16.022615 32.417206
6 0 1 19.201395 -16.728716 32.454010
7 0 1 19.490198 -16.134516 33.165588
8 0 1 19.366297 -15.116015 33.319611
9 0 1 19.992197 -15.355415 33.965515
10 0 1 19.077196 -15.700815 34.316895
11 0 1 18.631197 -16.515917 34.697906
12 0 1 19.114298 -16.172316 35.408600
13 0 1 18.869898 -15.242516 35.306091
14 0 1 18.170397 -14.707715 35.595490
15 0 1 17.621897 -14.680017 34.805695
16 0 1 17.579496 -13.880515 34.262695
17 0 1 16.984896 -13.168916 34.071503
18 0 1 17.220598 -12.183816 34.122589
19 0 1 16.712694 -11.937215 33.307007
20 0 1 15.853395 -12.261516 33.008911
21 0 1 15.115796 -11.862615 33.515106
22 0 1 14.787995 -11.830216 34.444702
23 0 1 14.522294 -10.971616 34.140808
24 0 1 14.640595 -10.850415 35.174194
25 0 1 14.441598 -10.282565 35.866791
26 0 1 15.199494 -9.955726 36.406494
27 0 1 15.622598 -10.740914 36.779114
28 0 1 16.350695 -11.263415 36.462494
29 0 1 16.783998 -12.080014 36.178589
30 0 1 16.233896 -12.096715 35.333099
31 0 1 16.904497 -11.368615 35.472992
32 0 1 16.711496 -10.490495 35.244110
33 0 1 16.561697 -9.497174 35.351990
34 0 1 17.437796 -9.819554 35.608887
35 0 1 18.239096 -9.388856 35.620697
36 0 1 19.191797 -9.294927 35.342194
37 0 1 19.706896 -8.691695 35.951904
38 0 1 20.142897 -9.347955 36.592194
39 0 1 19.178995 -9.210786 36.754700
40 0 1 18.239897 -9.376946 36.846588
41 0 1 17.661497 -9.974687 37.257904
42 0 1 17.145998 -10.387567 37.921906
43 0 1 16.533594 -11.028615 37.472900
44 0 1 15.782998 -10.563165 37.873108
45 0 1 14.946298 -11.057216 37.820709
46 0 1 15.406297 -11.881017 38.050201
47 0 1 15.698297 -12.841315 38.055786
48 0 1 16.315096 -13.137515 38.695709
49 0 1 15.922795 -13.948216 39.036407
50 0 1 14.991796 -13.982217 39.189911
51 0 1 15.208295 -14.515416 39.981995
52 0 1 14.389295 -13.964715 40.160706
53 0 1 14.005696 -14.651616 39.625000
54 0 1 13.400697 -14.053914 39.191498
55 0 1 12.600694 -14.575715 39.541901
56 0 1 12.388597 -13.666314 39.354889
57 0 1 11.376195 -13.794316 39.333588
58 0 1 11.573396 -14.705716 39.113007
59 0 1 11.264096 -15.429416 39.693787
60 0 1 10.433995 -15.160715 40.083008
61 0 1 9.830297 -15.886415 40.233002
62 0 1 10.415895 -15.972415 41.048889
63 0 1 11.354596 -16.007215 40.948608
64 0 1 11.922593 -15.609216 41.592194
65 0 1 12.291696 -14.625016 41.729187
66 0 1 13.060594 -14.443416 42.209412
67 0 1 13.464097 -15.202815 41.757690
68 0 1 13.466794 -16.179216 41.834717
69 0 1 14.315495 -16.296717 41.437500
70 0 1 14.397695 -16.922716 42.146912
71 0 1 14.198693 -16.668316 43.149994
72 0 1 13.220597 -16.571115 43.157898
73 0 1 12.492097 -17.009516 42.735901
74 0 1 12.322694 -17.772516 43.314301
75 0 1 12.465997 -18.442917 43.932587
76 0 1 12.082597 -18.983316 43.301392
77 0 1 11.977796 -19.709017 42.792786
78 0 1 11.421098 -20.489517 43.017090
79 0 1 10.822095 -19.866816 43.359802
80 0 1 10.068395 -19.866417 43.937897
81 0 1 9.277696 -19.359417 44.103210
82 0 1 8.846795 -19.989616 44.703094
83 0 1 8.197797 -19.581017 44.069794
84 0 1 8.038796 -19.158916 44.876404
85 0 1 7.613306 -18.319317 45.118286
86 0 1 6.922914 -17.852217 44.649689
87 0 1 6.876626 -18.048016 43.707397
88 0 1 6.759828 -19.000616 43.544708
89 0 1 6.272867 -18.623716 42.795502
90 0 1 5.420644 -19.086916 42.690491
91 0 1 4.654676 -18.671816 42.215515
92 0 1 4.933156 -18.769316 41.295288
93 0 1 4.154336 -18.493317 40.713104
94 0 1 4.425508 -18.227516 39.847595
95 0 1 4.493215 -17.975916 38.867401
96 0 1 5.204256 -17.666817 39.397400
97 0 1 5.493448 -16.734316 39.212585
98 0 1 6.130407 -16.788116 38.520599
99 0 1 6.438844 -16.239117 37.811005
100 0 1 5.669725 -15.892116 37.354706
101 0 1 4.902666 -16.406916 37.158386
102 0 1 5.321855 -16.794716 36.375793
103 0 1 6.020345 -16.496416 35.701111
104 0 1 6.145784 -17.390116 35.895203
105 0 1 6.885366 -17.988417 35.774597
106 0 1 7.051828 -17.099216 36.357391
107 0 1 7.601346 -17.897417 36.711792
108 0 1 7.754495 -18.439716 37.408112
109 0 1 8.460195 -19.086817 37.746307
110 0 1 8.127496 -19.740217 37.080811
111 0 1 7.363466 -19.498716 37.578094
112 0 1 6.613985 -19.058416 37.154297
113 0 1 6.645654 -19.813316 36.584198
114 0 1 6.830045 -19.763416 35.608307
115 0 1 6.480608 -20.260616 34.856110
116 0 1 7.059076 -21.124817 34.969604
117 0 1 6.552278 -21.991016 35.046692
118 0 1 5.625185 -21.695017 35.209991
119 0 1 4.659437 -21.913416 35.256104
120 0 1 4.372266 -22.028116 34.309814
121 0 1 4.283327 -21.603516 33.432404
122 0 1 5.099275 -21.664417 32.902313
123 0 1 5.919187 -22.093016 32.523987
124 0 1 6.589696 -21.997717 33.243286
125 0 1 6.325227 -21.067616 33.483002
126 0 1 7.247587 -21.399817 33.824402
127 0 1 7.776597 -20.630116 34.029510
128 0 1 8.454495 -19.940216 34.032501
129 0 1 7.537107 -19.551617 34.036896
130 0 1 7.840795 -19.343117 33.141113
131 0 1 8.687394 -19.059616 32.796906
132 0 1 9.012895 -18.882017 33.655090
133 0 1 9.611398 -18.684517 32.875397
134 0 1 9.278295 -18.933416 31.955109
135 0 1 8.582597 -18.201616 31.713287
136 0 1 8.052896 -17.509916 31.250610
137 0 1 7.634058 -18.364216 30.949493
138 0 1 7.022066 -17.955317 31.502686
139 0 1 6.218496 -18.526117 31.646790
140 0 1 5.811857 -19.002617 30.943909
141 0 1 5.966177 -20.008316 31.171112
142 0 1 6.164426 -20.689417 31.798798
143 0 1 6.772844 -20.767916 31.026489
144 0 1 7.255865 -20.011415 30.679688
145 0 1 6.724977 -19.228216 30.373413
146 0 1 6.299028 -19.962816 29.861908
147 0 1 5.508737 -19.928717 29.304291
148 0 1 5.745798 -20.507517 28.523407
149 0 1 4.921808 -20.040417 28.399200
150 0 1 4.514406 -20.824316 28.809387
151 0 1 3.906835 -20.327217 28.226013
152 0 1 3.153196 -20.241716 28.751587
153 0 1 3.266996 -20.317217 29.669312
154 0 1 3.994794 -19.764017 29.417206
155 0 1 3.897226 -19.223816 30.272888
156 0 1 4.217294 -19.701616 31.086792
157 0 1 4.315294 -19.165316 31.940491
158 0 1 4.934576 -19.106417 32.691010
159 0 1 5.666296 -18.846516 33.315613
160 0 1 6.484907 -18.310616 33.718384
161 0 1 6.121736 -17.458715 33.648895
162 0 1 6.803335 -16.886517 33.909912
163 0 1 7.287904 -17.739016 34.001709
164 0 1 8.051396 -17.526617 33.412994
165 0 1 8.926698 -17.686916 33.726501
166 0 1 9.706296 -17.431416 33.312408
167 0 1 10.671594 -17.397316 33.231903
168 0 1 11.569394 -17.194715 33.411591
169 0 1 11.851396 -16.735916 34.279205
170 0 1 12.694394 -16.565716 34.656799
171 0 1 12.801396 -15.874516 34.052094
172 0 1 12.832295 -15.458415 33.191589
173 0 1 13.025598 -16.269217 32.711487
174 0 1 13.376893 -17.242117 32.786011
175 0 1 13.523496 -16.791916 33.675415
176 0 1 14.123296 -16.192816 33.967407
177 0 1 14.482797 -16.916317 33.503387
178 0 1 14.469995 -16.387016 32.695801
179 0 1 15.036798 -15.821115 32.138489
180 0 1 15.184297 -15.440115 31.293304
181 0 1 14.446095 -14.847116 30.858887
182 0 1 15.023393 -14.510514 30.196503
183 0 1 14.905694 -14.124516 29.341187
184 0 1 14.012094 -14.284314 29.517700
185 0 1 13.218293 -13.718316 29.720306
186 0 1 13.802495 -13.157617 30.256714
187 0 1 13.922997 -12.243815 30.007690
188 0 1 14.262395 -11.345916 30.221497
189 0 1 14.909295 -11.189216 29.462006
190 0 1 14.316598 -11.151715 28.575287
191 0 1 13.975793 -11.322015 27.691193
192 0 1 14.326097 -12.212115 27.746613
193 0 1 13.720094 -12.917315 27.375793
194 0 1 13.157296 -12.179116 27.405884
195 0 1 13.489694 -11.797616 26.534302
196 0 1 12.619096 -11.430715 26.646484
197 0 1 12.308896 -11.115014 27.528107
198 0 1 11.563195 -11.681916 27.121613
199 0 1 11.674897 -12.451415 26.556488
200 0 1 11.310895 -12.751016 27.395111
201 0 1 10.388696 -13.037215 27.278503
202 0 1 9.617196 -12.488416 27.403900
203 0 1 8.679498 -12.186517 27.417603
204 0 1 8.848996 -11.450715 26.795990
205 0 1 9.708997 -10.989116 26.896698
206 0 1 9.941594 -10.149926 27.283508
207 0 1 9.050496 -9.752484 27.047791
208 0 1 8.268994 -9.582227 26.683899
209 0 1 7.603837 -8.994885 26.889404
210 0 1 8.385194 -8.477605 26.893097
211 0 1 8.832894 -8.589684 26.057190
212 0 1 9.249696 -7.989795 25.453491
213 0 1 8.936097 -8.683564 24.872711
214 0 1 9.352395 -7.962445 24.135712
215 0 1 8.420495 -7.722146 24.333099
216 0 1 7.811796 -8.422765 24.562103
217 0 1 8.289598 -8.990796 24.021210
218 0 1 7.724897 -8.744805 23.297791
219 0 1 7.843595 -7.949166 22.778687
220 0 1 7.776395 -7.240045 22.120697
221 0 1 8.436593 -6.640035 22.423004
222 0 1 8.925393 -5.835206 22.266296
223 0 1 9.207894 -5.720284 21.356003
224 0 1 9.969796 -6.223365 21.005798
225 0 1 10.687097 -6.863656 21.207001
226 0 1 11.062394 -6.300836 20.615692
227 0 1 10.924294 -5.425605 20.997604
228 0 1 10.626195 -4.846255 20.320007
229 0 1 9.899896 -4.664275 21.009003
230 0 1 9.944596 -4.026486 21.698303
231 0 1 9.944795 -3.768886 22.653809
232 0 1 9.833795 -4.279614 23.434113
233 0 1 10.161996 -3.298936 23.785095
234 0 1 10.949395 -3.363866 24.361694
235 0 1 11.442094 -4.199105 24.163391
236 0 1 11.944894 -4.209296 23.365295
237 0 1 12.196397 -3.582095 22.647400
238 0 1 12.228997 -2.631566 22.753906
239 0 1 12.606797 -2.217645 21.970901
240 0 1 12.955396 -1.404738 22.351196
241 0 1 12.904096 -0.491733 22.793213
242 0 1 12.663697 0.215451 23.406097
243 0 1 12.642396 0.665055 24.269196
244 0 1 13.322396 1.348205 24.295013
245 0 1 13.961896 1.034984 24.947998
246 0 1 13.387094 0.454564 25.393097
247 0 1 13.395894 1.331023 25.822998
248 0 1 13.805795 2.189055 25.665588
249 0 1 14.276193 2.738006 25.039490
250 0 1 14.608994 3.273013 24.346191
251 0 1 14.870294 4.010196 24.789307
252 0 1 14.815095 4.958526 24.630188
253 0 1 15.759393 4.668204 24.401886
254 0 1 16.361994 5.097693 25.059113
255 0 1 16.861498 5.168406 24.182892
256 0 1 16.179197 5.816615 23.766907
257 0 1 16.533697 5.894706 22.860199
258 0 1 16.525194 6.759273 22.379395
259 0 1 17.336298 6.825076 21.848206
260 0 1 17.451097 7.725856 22.030899
261 0 1 18.267096 7.582637 22.487595
262 0 1 18.501997 8.546496 22.411606
263 0 1 17.993597 9.392585 22.315308
264 0 1 17.914598 9.362464 23.315399
265 0 1 17.265097 10.141284 23.407593
266 0 1 16.447397 10.555285 23.073486
267 0 1 15.654096 10.827685 23.529999
268 0 1 15.273698 11.062285 22.702393
269 0 1 15.586995 11.935283 22.875702
270 0 1 16.081095 12.751483 23.209106
271 0 1 15.834096 13.339484 23.977203
272 0 1 16.196497 13.953383 24.631104
273 0 1 16.184198 13.758983 25.521606
274 0 1 16.550699 12.984683 25.122894
275 0 1 16.854395 13.119983 26.057892
276 0 1 17.225695 12.579585 26.791016
277 0 1 17.426596 11.985885 27.546295
278 0 1 17.388498 11.566485 28.457092
279 0 1 16.400297 11.471885 28.486389
280 0 1 15.758096 11.586585 27.769104
281 0 1 15.361295 10.876185 27.246216
282 0 1 15.955697 10.111983 27.333801
283 0 1 16.712397 10.131583 27.954895
284 0 1 17.699495 9.856982 28.200012
285 0 1 18.227297 10.579387 28.016296
286 0 1 18.600996 11.105083 28.780792
287 0 1 18.420996 12.026385 29.094513
288 0 1 18.725096 12.274085 29.929291
289 0 1 18.051497 12.484183 30.560303
290 0 1 17.994596 12.616485 31.554810
291 0 1 18.165995 12.734183 32.491608
292 0 1 17.372095 12.836486 33.059296
293 0 1 17.641497 13.772586 32.798798
294 0 1 18.497896 13.963584 33.183502
295 0 1 18.636095 14.858386 33.372711
296 0 1 17.943995 15.470286 33.641693
297 0 1 17.068995 15.747485 33.742493
298 0 1 17.496294 15.826686 34.639587
299 0 1 16.666994 15.520484 35.227295
300 0 1 15.709996 15.628985 34.905090
301 0 1 15.743493 16.588583 34.801514
302 0 1 15.271897 16.831484 35.621002
303 0 1 14.678895 16.161882 35.528809
304 0 1 13.830396 16.269484 35.956116
305 0 1 13.760797 17.200281 36.359894
306 0 1 12.895196 16.823282 36.333496
307 0 1 12.842195 17.495981 35.554688
308 0 1 12.030995 17.750086 35.116394
309 0 1 11.463494 18.275984 35.692413
310 0 1 11.694596 18.691385 36.531494
311 0 1 11.016297 18.089785 36.741699
312 0 1 10.758897 17.342081 37.332794
313 0 1 10.287396 17.445482 36.448486
314 0 1 9.693295 17.803186 35.697388
315 0 1 9.355996 18.515985 35.112610
316 0 1 8.956697 19.393282 35.291992
317 0 1 8.183297 18.832682 35.056213
318 0 1 7.663045 19.050283 35.819397
319 0 1 6.924375 18.449583 35.820190
320 0 1 6.178617 18.609385 36.408386
321 0 1 6.158426 17.721483 36.873413
322 0 1 6.152505 16.848581 36.446198
323 0 1 6.394067 16.412081 37.270111
324 0 1 6.752397 16.855585 38.023712
325 0 1 7.424116 16.606882 38.731201
326 0 1 8.084294 15.994983 38.350189
327 0 1 7.702245 16.513086 37.647705
328 0 1 8.381494 17.029383 37.221100
329 0 1 8.297097 17.425283 36.332001
330 0 1 8.697797 16.733583 35.748596
331 0 1 9.287194 16.713484 34.954285
332 0 1 10.016297 16.667383 34.301788
333 0 1 10.577195 16.450083 33.632599
334 0 1 11.545396 16.481783 33.481201
335 0 1 11.920197 15.979384 32.772308
336 0 1 12.089295 15.404685 32.031403
337 0 1 11.269593 15.264483 31.578705
338 0 1 10.896295 14.457385 31.951416
339 0 1 10.272096 14.725684 32.626709
340 0 1 9.921494 14.562884 33.575409
341 0 1 9.066396 14.942183 33.817505
342 0 1 8.555196 15.032786 34.575012
343 0 1 7.694086 15.114585 34.098816
344 0 1 7.301088 14.533183 34.772583
345 0 1 6.726285 13.807784 34.662811
346 0 1 6.310205 14.594287 34.319885
347 0 1 6.598817 15.547984 34.062683
348 0 1 5.642065 15.481284 33.851288
349 0 1 5.212507 15.932986 34.546600
350 0 1 5.542715 16.834085 34.552887
351 0 1 4.943666 17.166582 33.836090
352 0 1 4.330137 17.835283 33.489014
353 0 1 4.344224 18.632284 34.035706
354 0 1 4.142835 19.572584 33.819000
355 0 1 4.499906 19.882883 34.592499
356 0 1 3.877046 20.655184 34.804810
357 0 1 3.396375 20.908484 35.570007
358 0 1 3.525335 21.821383 35.686401
359 0 1 3.972757 22.565882 35.968597
360 0 1 4.523485 22.994982 36.631287
361 0 1 4.468046 22.360384 37.304016
362 0 1 4.716077 23.021383 38.023804
363 0 1 5.101217 23.229383 38.910583
364 0 1 5.448595 23.034586 39.800201
365 0 1 6.380956 23.321684 39.718506
366 0 1 6.259565 22.368181 39.885803
367 0 1 6.564825 22.000883 40.706299
368 0 1 5.874555 21.337584 40.310913
369 0 1 6.181734 20.440981 40.220490
370 0 1 6.155717 20.022684 39.306091
371 0 1 5.219495 20.177385 39.629211
372 0 1 4.425928 20.467981 40.125305
373 0 1 4.032815 19.943285 39.319489
374 0 1 3.955796 19.530283 40.163910
375 0 1 3.794587 19.974382 41.057007
376 0 1 3.256654 20.701784 41.457886
377 0 1 3.759004 20.372484 42.198700
378 0 1 4.179887 19.595984 42.608612
379 0 1 5.120855 19.634485 42.730011
380 0 1 5.987127 19.292185 42.778015
381 0 1 6.967004 19.336184 43.065002
382 0 1 6.843015 18.463282 43.376007
383 0 1 7.419286 17.836985 42.899292
384 0 1 6.930757 17.132586 42.432587
385 0 1 6.597276 17.084284 43.377411
386 0 1 7.118696 17.277582 44.180511
387 0 1 7.971796 17.224382 43.708313
388 0 1 7.626867 16.327684 43.920593
389 0 1 7.404817 16.126284 44.768890
390 0 1 8.060796 16.328081 45.476501
391 0 1 8.867894 16.423285 45.897705
392 0 1 9.499894 15.908282 46.455383
393 0 1 9.681996 15.151786 47.114685
394 0 1 10.560296 14.959483 47.519287
395 0 1 10.633195 14.131583 48.000305
396 0 1 10.654595 13.293986 48.576813
397 0 1 11.582597 13.173984 48.243011
398 0 1 12.379796 12.656886 48.052185
399 0 1 12.048997 12.735583 49.021912
400 0 1 12.596196 12.837184 49.755615
401 0 1 12.228997 12.981383 50.623596
402 0 1 13.220395 12.960986 50.636414
403 0 1 13.439797 12.149283 50.200287
404 0 1 13.534097 11.429484 49.549591
405 0 1 13.237996 10.541682 49.546112
406 0 1 14.007493 10.024486 49.916901
407 0 1 14.114297 10.104785 48.943512
408 0 1 14.245797 9.504184 48.244385
409 0 1 13.663896 8.934653 47.647583
410 0 1 13.556497 8.724116 48.538086
411 0 1 13.846696 7.822425 48.778809
412 0 1 14.116696 7.598334 47.859894
413 0 1 13.625997 6.892974 47.342590
414 0 1 13.942994 7.429652 46.653198
415 0 1 14.721993 7.060504 47.104401
416 0 1 15.471093 7.265655 46.629395
417 0 1 16.112997 6.449122 46.587494
418 0 1 16.634897 5.615283 46.599213
419 0 1 17.392397 5.604865 47.214905
420 0 1 18.197897 5.569354 46.649292
421 0 1 18.657896 6.431964 46.580902
422 0 1 19.370798 6.996474 46.290497
423 0 1 18.721296 6.645633 45.647797
424 0 1 18.891695 7.479804 45.200500
425 0 1 18.025095 7.787036 45.051910
426 0 1 17.580797 7.521155 44.221710
427 0 1 16.751097 7.144496 43.974091
428 0 1 16.215197 7.556655 44.653595
429 0 1 15.451295 8.132476 44.451294
430 0 1 14.676396 8.731013 44.496094
431 0 1 14.351995 8.464744 45.362488
432 0 1 13.670094 9.193534 45.175201
433 0 1 12.750196 9.085155 45.488586
434 0 1 11.868394 8.884494 45.336792
435 0 1 11.003995 8.516955 45.300812
436 0 1 10.545094 7.880153 44.753693
437 0 1 9.608495 7.598063 44.618805
438 0 1 9.355195 7.555255 45.598297
439 0 1 8.550393 7.675475 45.132996
440 0 1 8.492295 7.132476 44.341797
441 0 1 8.646695 7.830115 43.632111
442 0 1 8.754495 7.327853 42.797302
443 0 1 9.199895 7.729644 41.991791
444 0 1 8.260297 7.992496 42.011810
445 0 1 7.356294 7.903884 41.656097
446 0 1 6.555887 8.249885 41.200500
447 0 1 6.869134 8.923274 40.561005
448 0 1 5.949445 8.928157 40.252594
449 0 1 5.489694 8.904567 39.395813
450 0 1 4.815378 9.397384 38.810913
451 0 1 5.588605 9.004004 38.264008
452 0 1 6.187677 8.542827 37.686890
453 0 1 6.286127 7.845546 38.217102
454 0 1 6.540674 7.284144 37.455109
455 0 1 7.403154 6.861274 37.567200
456 0 1 8.365895 6.718432 37.392303
457 0 1 8.608994 6.360576 36.439606
458 0 1 7.864095 5.753066 36.538300
459 0 1 8.039796 4.926753 36.038086
460 0 1 8.424096 5.553775 35.487610
461 0 1 8.944997 6.239913 35.112396
462 0 1 9.040296 6.460032 34.156494
463 0 1 8.974496 7.450633 34.046112
464 0 1 8.892396 7.799052 33.207214
465 0 1 9.331197 8.583743 33.148407
466 0 1 9.738496 9.139525 33.779388
467 0 1 9.874093 10.120185 33.628387
468 0 1 10.490895 10.683284 34.063904
469 0 1 11.066094 10.383983 33.381012
470 0 1 11.293897 10.525485 32.359589
471 0 1 12.189996 10.330684 32.609985
472 0 1 13.159795 10.039287 32.582092
473 0 1 13.951394 9.575984 32.302399
474 0 1 13.453195 8.705775 32.255615
475 0 1 14.282693 8.471824 32.037201
476 0 1 14.467595 8.575854 32.972198
477 0 1 15.315095 8.938495 33.038300
478 0 1 15.716798 9.695285 33.545105
479 0 1 16.538397 9.588386 34.007690
480 0 1 16.793097 8.944552 34.631195
481 0 1 15.971295 8.632304 35.085602
482 0 1 14.995095 8.428306 35.259003
483 0 1 15.067498 7.584765 35.784698
484 0 1 14.255494 7.136954 36.042786
485 0 1 14.759393 6.431685 35.659485
486 0 1 15.486196 6.090705 36.157013
487 0 1 15.554994 5.335654 36.673401
488 0 1 15.855195 4.547416 36.140015
489 0 1 16.684797 5.087604 36.052490
490 0 1 17.515997 4.524985 35.910095
491 0 1 18.435396 4.194766 35.962585
492 0 1 18.210196 3.897555 36.865509
493 0 1 18.901194 4.408565 37.305695
494 0 1 18.960596 4.046683 38.226410
495 0 1 19.256395 4.835845 38.809692
496 0 1 18.296999 4.611445 38.990997
497 0 1 17.499895 4.900935 39.563690
498 0 1 18.155397 5.084434 40.278198
499 0 1 17.950098 4.737494 41.169189
500 0 1 17.315897 5.008784 41.822388
501 0 1 17.184996 5.878913 42.148895
502 0 1 16.357897 5.705684 42.704285
503 0 1 15.898595 5.187896 43.334991
504 0 1 16.117796 4.429404 43.915283
505 0 1 15.710893 3.653666 43.582306
506 0 1 14.836793 3.733867 43.239014
507 0 1 14.170793 4.444484 43.313995
508 0 1 14.272294 3.839385 44.096588
509 0 1 14.415193 3.353286 44.906311
510 0 1 14.194695 3.944465 45.572815
511 0 1 14.313493 4.895003 45.393311
512 0 1 13.702096 5.667655 45.374207
513 0 1 12.834893 5.221793 45.017883
514 0 1 12.175195 5.432063 45.616394
515 0 1 11.600095 4.855754 46.092896
516 0 1 11.413896 4.543994 46.983612
517 0 1 10.657395 5.158843 46.774109
518 0 1 10.629197 4.353854 46.273804
519 0 1 10.162194 3.520495 46.422485
520 0 1 9.986596 3.367675 45.468903
521 0 1 10.662595 2.679755 45.816101
522 0 1 10.690495 2.233714 44.864685
523 0 1 9.702897 1.888675 44.931885
524 0 1 9.384397 1.869464 44.044708
525 0 1 9.181195 2.335155 43.226288
526 0 1 9.322396 2.369403 42.261505
527 0 1 8.412995 2.284873 42.420593
528 0 1 7.532297 1.970286 42.499390
529 0 1 7.640325 1.053775 42.394196
530 0 1 7.575128 0.195140 41.840088
531 0 1 8.183995 -0.540652 42.028992
532 0 1 7.321065 -0.916289 41.863586
533 0 1 6.720666 -0.828900 41.149506
534 0 1 6.525217 -1.598622 40.694885
535 0 1 5.495245 -1.370507 40.806793
536 0 1 4.747335 -1.870116 40.363190
537 0 1 4.455816 -2.570825 39.773315
538 0 1 4.311327 -2.664765 38.857300
539 0 1 4.505548 -3.541226 39.237000
540 0 1 4.230745 -4.351205 38.735596
541 0 1 4.392995 -5.289556 38.441101
542 0 1 4.947446 -4.632945 37.953705
543 0 1 5.726694 -5.048095 38.156403
544 0 1 6.515314 -4.948455 37.573914
545 0 1 6.667795 -5.866305 37.579407
546 0 1 6.228456 -6.740506 37.484711
547 0 1 5.547708 -6.851655 38.168396
548 0 1 5.279485 -6.460694 39.055389
549 0 1 4.457277 -6.125955 39.378113
550 0 1 4.713094 -6.849404 39.932098
551 0 1 4.290628 -7.682555 40.149994
552 0 1 3.840936 -7.122025 40.817810
553 0 1 4.170667 -7.325456 41.675598
554 0 1 4.351926 -8.276986 41.499207
555 0 1 4.526666 -8.640555 42.409302
556 0 1 4.749666 -7.868476 42.964111
557 0 1 4.686037 -6.847255 42.857117
558 0 1 4.504247 -6.016585 43.346313
559 0 1 5.197244 -5.857385 42.653198
560 0 1 5.441167 -5.636985 43.515991
561 0 1 5.958295 -4.836286 43.770691
562 0 1 5.920995 -3.906775 43.649109
563 0 1 4.986997 -3.743405 43.539001
564 0 1 4.084898 -3.331605 43.398499
565 0 1 4.014585 -2.379836 43.064911
566 0 1 3.414785 -2.158116 42.358002
567 0 1 2.949865 -1.741895 41.636597
568 0 1 2.072374 -1.439479 41.962891
569 0 1 1.941915 -0.700252 41.337189
570 0 1 2.205434 -0.016240 41.975189
571 0 1 1.917176 0.862556 42.355988
572 0 1 2.713487 0.647294 42.804596
573 0 1 3.276094 0.557094 42.063995
574 0 1 3.693517 1.397006 41.829712
575 0 1 4.015474 1.507865 40.968994
576 0 1 4.419015 2.271735 40.359192
577 0 1 4.064676 1.944304 39.492096
578 0 1 4.791208 1.256026 39.316589
579 0 1 5.659685 1.380794 38.924988
580 0 1 5.005926 1.604503 38.182007
581 0 1 4.557077 1.988925 37.457001
582 0 1 4.118364 2.856456 37.576416
583 0 1 3.901815 3.806323 37.548584
584 0 1 2.902536 3.498763 37.572113
585 0 1 1.909395 3.573905 37.600494
586 0 1 0.991346 3.735175 37.371613
587 0 1 1.188527 4.579936 36.904602
588 0 1 1.991616 4.837832 36.401306
589 0 1 2.688874 4.243163 35.984589
590 0 1 3.289045 3.577785 35.712311
591 0 1 4.156694 3.488963 36.192596
592 0 1 4.481695 3.444865 35.247589
593 0 1 5.392156 3.819816 35.227692
594 0 1 5.038835 4.096793 34.311310
595 0 1 6.050714 4.098014 34.130493
596 0 1 5.928617 3.104594 34.222595
597 0 1 5.272916 3.170566 33.579102
598 0 1 4.251726 3.114333 33.498413
599 0 1 3.603868 2.804694 32.788300
600 0 1 2.735406 2.419555 33.064087
601 0 1 2.555124 2.355716 34.061890
602 0 1 3.311586 1.795043 33.834595
603 0 1 3.188257 0.813865 33.692902
604 0 1 4.056345 0.846305 33.320801
605 0 1 4.682165 0.964934 32.616699
606 0 1 5.362997 0.809964 31.979614
607 0 1 5.421636 0.902125 30.969208
608 0 1 5.900495 0.995234 30.096191
609 0 1 5.165826 0.483054 29.634399
610 0 1 4.646177 0.755235 28.871002
611 0 1 3.735475 0.545915 29.071991
612 0 1 2.748815 0.436404 29.077789
613 0 1 2.373224 0.445624 28.163696
614 0 1 2.314187 -0.505612 28.312592
615 0 1 1.865236 -0.968286 27.622406
616 0 1 1.448964 -1.436080 28.367096
617 0 1 1.171586 -1.171380 29.297913
618 0 1 0.478097 -0.492528 29.201294
619 0 1 0.729055 0.208474 28.613800
620 0 1 0.002046 0.512235 29.185211
621 0 1 -0.483554 0.977996 29.825714
622 0 1 0.063566 0.449405 30.449310
623 0 1 1.035016 0.482305 30.327301
624 0 1 0.829175 0.986773 31.085114
625 0 1 0.952394 0.295482 31.750793
626 0 1 -0.001773 0.168399 31.991394
627 0 1 -0.003363 1.168906 32.013000
628 0 1 -0.778125 0.656875 32.342896
629 0 1 -1.048804 1.608813 32.388306
630 0 1 -1.322943 2.003703 31.596802
631 0 1 -1.371867 2.851153 31.105011
632 0 1 -0.427493 2.822013 31.131592
633 0 1 0.383687 3.244906 30.923798
634 0 1 0.636926 4.181983 30.780212
635 0 1 0.577977 5.159564 31.083801
636 0 1 0.850847 5.969035 31.476196
637 0 1 1.461236 6.646934 31.065887
638 0 1 1.049707 6.723346 30.234589
639 0 1 0.134015 6.707343 30.074890
640 0 1 -0.668334 6.248996 30.192810
641 0 1 -0.604403 5.924056 29.232697
642 0 1 -1.397195 5.866305 28.711487
643 0 1 -2.296740 6.107566 28.829193
644 0 1 -2.433299 6.050715 27.864197
645 0 1 -3.273953 5.708934 27.530884
646 0 1 -3.349074 4.923965 28.079193
647 0 1 -4.150214 4.941714 28.664703
648 0 1 -4.640355 5.750903 28.765106
649 0 1 -4.381495 6.430934 29.301392
650 0 1 -5.012703 7.071506 29.648499
651 0 1 -5.514235 7.595866 28.986389
652 0 1 -6.426634 7.540565 28.693695
653 0 1 -7.132853 7.686732 29.335999
654 0 1 -7.356453 7.805514 30.321899
655 0 1 -7.309844 8.458903 30.995789
656 0 1 -7.432925 9.245986 30.477997
657 0 1 -8.408584 9.354285 30.636505
658 0 1 -9.287395 9.165652 30.414001
659 0 1 -8.987824 9.849685 29.693787
660 0 1 -9.534823 9.750087 28.820496
661 0 1 -9.022334 9.773784 28.015289
662 0 1 -8.268365 9.641185 27.286194
663 0 1 -8.914596 9.317103 26.625000
664 0 1 -9.565345 8.651706 26.794800
665 0 1 -10.436034 8.297664 26.927185
666 0 1 -10.911265 8.467494 26.105988
667 0 1 -11.136275 7.547885 25.665009
668 0 1 -11.665925 7.119235 26.360413
669 0 1 -12.544105 7.037124 25.945984
670 0 1 -12.974805 7.068496 26.800995
671 0 1 -12.959105 7.845176 27.283905
672 0 1 -13.118705 8.366282 28.130402
673 0 1 -13.518905 9.168956 28.496307
674 0 1 -12.992604 9.702483 29.101013
675 0 1 -12.698705 10.139583 28.295715
676 0 1 -13.338504 10.637683 27.804504
677 0 1 -14.025405 10.284884 28.431488
678 0 1 -14.675803 11.036586 28.348694
679 0 1 -15.105405 10.929584 27.510193
680 0 1 -15.245906 10.501784 26.601196
681 0 1 -15.738006 11.231982 26.212891
682 0 1 -15.306005 11.775683 25.451508
683 0 1 -14.702905 12.454085 25.922607
684 0 1 -14.298804 13.168784 25.438995
685 0 1 -13.656705 12.660186 25.034393
686 0 1 -13.514804 13.113185 24.124908
687 0 1 -12.974105 12.539485 23.413910
688 0 1 -12.319804 13.259185 23.483795
689 0 1 -11.877826 12.462085 23.808014
690 0 1 -11.951884 11.505282 23.943207
691 0 1 -12.163924 11.987582 24.729889
692 0 1 -12.498204 11.962684 25.696991
693 0 1 -12.170995 12.173182 26.543488
694 0 1 -11.375495 11.804786 26.169800
695 0 1 -10.857015 11.736186 25.304016
696 0 1 -10.969066 12.650683 25.633301
697 0 1 -10.760585 12.847285 24.710297
698 0 1 -10.524594 13.824985 24.593109
699 0 1 -11.264905 14.016086 25.164307
700 0 1 -11.918735 14.890384 25.443512
701 0 1 -12.257995 14.753284 24.607208
702 0 1 -12.965505 15.130084 25.058197
703 0 1 -12.845504 15.657584 24.272797
704 0 1 -12.068904 16.112684 23.998688
705 0 1 -11.765063 16.673784 23.332489
706 0 1 -11.504153 16.600985 22.376205
707 0 1 -12.172904 16.365984 21.834702
708 0 1 -12.829505 15.824985 21.425598
709 0 1 -12.023105 15.282084 21.482300
710 0 1 -12.313605 14.396483 21.480606
711 0 1 -12.196025 13.439982 21.358398
712 0 1 -11.301755 13.524985 20.909103
713 0 1 -10.505435 13.099887 21.255005
714 0 1 -10.388314 13.923182 20.792206
715 0 1 -9.929275 14.148784 19.986908
716 0 1 -9.754226 15.126685 20.135101
717 0 1 -9.963204 16.051283 19.873001
718 0 1 -9.375896 16.785883 19.594803
719 0 1 -9.505084 16.864283 18.661102
720 0 1 -9.200465 17.748384 18.947998
721 0 1 -8.763724 18.718981 19.094299
722 0 1 -9.081895 18.967283 19.901306
723 0 1 -9.646544 18.544184 20.724701
724 0 1 -9.788394 17.765383 20.150406
725 0 1 -10.510755 17.415483 20.741898
726 0 1 -10.169234 16.634283 21.239105
727 0 1 -9.877675 16.095285 21.960999
728 0 1 -10.366214 16.239283 22.733398
729 0 1 -9.644204 15.592982 22.962097
730 0 1 -10.082274 15.056785 23.564606
731 0 1 -10.131724 14.517783 22.739807
732 0 1 -9.758605 13.914985 23.438904
733 0 1 -8.915214 14.092185 23.122101
734 0 1 -8.522555 14.535285 23.836090
735 0 1 -8.169555 15.378486 23.603699
736 0 1 -7.704274 16.211683 23.535797
737 0 1 -7.854584 16.515985 22.670990
738 0 1 -7.128125 17.074785 22.397202
739 0 1 -6.266955 17.185583 22.772308
740 0 1 -5.861474 16.906382 21.959198
741 0 1 -5.445855 16.489382 21.225708
742 0 1 -4.611174 15.996184 21.303497
743 0 1 -4.567484 15.211684 20.799301
744 0 1 -4.763554 14.255183 20.625702
745 0 1 -5.412684 14.866084 20.229706
746 0 1 -5.954564 14.763083 21.061493
747 0 1 -6.620715 15.251884 20.690903
748 0 1 -6.495863 15.110785 19.784302
749 0 1 -6.195275 14.175586 19.517899
750 0 1 -7.178435 13.877585 19.678101
751 0 1 -8.026645 14.057586 19.307007
752 0 1 -8.830104 13.737483 18.794907
753 0 1 -8.139464 13.266383 18.251495
754 0 1 -8.203174 14.225486 18.113800
755 0 1 -8.652125 13.938285 17.330399
756 0 1 -8.910735 13.548083 16.517105
757 0 1 -8.920415 13.525584 15.540496
758 0 1 -8.238925 14.155185 15.565505
759 0 1 -7.954464 13.242084 15.753005
760 0 1 -7.541424 12.744685 14.955001
761 0 1 -8.179164 12.173587 14.452102
762 0 1 -9.142734 12.096084 14.521499
763 0 1 -9.006505 11.630584 15.310699
764 0 1 -9.784884 11.952483 15.863006
765 0 1 -9.680804 11.336383 16.639999
766 0 1 -9.063365 10.697085 16.861206
767 0 1 -8.648395 10.916484 17.684601
768 0 1 -7.965334 10.919684 18.311798
769 0 1 -7.057574 10.627185 18.444397
770 0 1 -6.321515 10.618587 17.862106
771 0 1 -6.088294 11.104884 18.697800
772 0 1 -6.177954 11.846286 19.352402
773 0 1 -5.371695 12.378383 19.258499
774 0 1 -5.123574 11.534183 18.830002
775 0 1 -5.289984 10.696086 19.325302
776 0 1 -5.010085 9.730083 19.135605
777 0 1 -5.429694 10.080283 18.390594
778 0 1 -4.969985 9.405784 17.831100
779 0 1 -5.073784 9.715484 16.870697
780 0 1 -4.382514 9.196944 16.599396
781 0 1 -3.476374 9.249743 16.345200
782 0 1 -3.384215 10.232387 16.574295
783 0 1 -4.178584 10.036784 15.975005
784 0 1 -4.287163 9.870784 15.013503
785 0 1 -5.286294 10.044086 14.958205
786 0 1 -5.797293 9.561885 14.283492
787 0 1 -4.901055 9.265506 14.010406
788 0 1 -5.092604 8.412204 13.744994
789 0 1 -4.498545 8.025985 13.080703
790 0 1 -4.289183 7.491855 12.335097
791 0 1 -4.661784 8.283545 11.885406