LAMMPS data file via MDAnalysis

        2000  atoms
        1999  bonds
           0  angles
           0  dihedrals
           0  impropers

           1  atom types
           1  bond types
           0  angle types
           0  dihedral types
           0  improper types

-30.5 30.5 xlo xhi
-30.5 30.5 ylo yhi
-233.5 233.5 zlo zhi


Masses

1 1.000000

Atoms

1 0 1 11.618189 -2.828635 79.794800
2 0 1 11.163191 -1.850134 79.765686
3 0 1 11.763189 -1.107235 79.646301
4 0 1 11.381090 -0.393525 79.132996
5 0 1 11.427889 -1.306054 78.652802
6 0 1 10.578890 -1.066586 78.314209
7 0 1 10.195890 -0.209904 78.552002
8 0 1 9.268488 -0.486096 78.487488
9 0 1 8.344690 -0.870505 78.585907
10 0 1 8.947790 -1.574194 78.532288
11 0 1 9.572092 -2.029934 77.972992
12 0 1 9.532290 -2.716534 77.274414
13 0 1 9.629591 -3.650435 77.135498
14 0 1 10.099089 -3.847134 76.376892
15 0 1 9.341990 -3.556034 75.797913
16 0 1 8.722990 -2.882134 76.067505
17 0 1 7.822970 -2.964535 76.447205
18 0 1 6.960051 -3.229233 76.217590
19 0 1 6.159312 -3.183033 76.805206
20 0 1 5.728461 -3.481034 75.909698
21 0 1 5.086249 -3.091336 76.504517
22 0 1 5.463259 -2.516135 77.153381
23 0 1 6.234061 -2.093933 76.619293
24 0 1 5.751959 -1.311985 76.280212
25 0 1 5.215331 -0.737515 76.663818
26 0 1 5.106879 -0.454995 75.746216
27 0 1 5.653601 0.208795 75.289490
28 0 1 4.922091 0.042434 74.773193
29 0 1 5.393191 0.742715 74.289307
30 0 1 5.396212 0.672355 73.264099
31 0 1 5.922369 1.390957 73.037903
32 0 1 6.234820 1.859996 72.225586
33 0 1 6.638731 2.248445 71.386810
34 0 1 7.344172 1.894796 70.941589
35 0 1 7.375170 1.260095 70.172791
36 0 1 7.449049 0.856495 71.105499
37 0 1 7.238932 -0.155316 71.046295
38 0 1 6.337260 0.097505 70.936798
39 0 1 6.226599 0.611116 70.016296
40 0 1 5.310099 0.957746 70.159393
41 0 1 4.502532 1.227436 69.592102
42 0 1 5.009421 1.321596 68.827209
43 0 1 5.728770 1.757526 68.466187
44 0 1 6.316000 1.475706 67.729706
45 0 1 7.142500 1.809576 67.337189
46 0 1 7.316210 1.717506 68.311218
47 0 1 6.974841 1.036316 68.914001
48 0 1 6.342310 0.342685 68.809814
49 0 1 5.585162 -0.273955 69.122803
50 0 1 5.143050 -0.220703 69.990295
51 0 1 4.421660 -0.286024 69.236206
52 0 1 4.641089 -1.163514 68.737183
53 0 1 3.711070 -1.511475 68.484406
54 0 1 3.440722 -2.155735 67.814911
55 0 1 2.786700 -1.437806 67.527496
56 0 1 3.474219 -1.125145 66.932404
57 0 1 4.340769 -0.853844 67.187317
58 0 1 5.192542 -0.847735 67.669617
59 0 1 5.868880 -0.232975 67.340210
60 0 1 5.464362 0.371376 66.644501
61 0 1 5.744799 -0.081025 65.857300
62 0 1 6.261290 -0.724795 65.458008
63 0 1 6.774260 -0.911604 64.659790
64 0 1 7.221758 -1.840634 64.733490
65 0 1 6.902060 -2.708935 64.405212
66 0 1 7.063422 -3.126635 63.655884
67 0 1 6.303610 -2.786534 63.291016
68 0 1 5.795580 -2.342434 62.597992
69 0 1 6.169119 -2.341734 61.636292
70 0 1 6.115672 -3.027035 60.958405
71 0 1 5.256869 -3.239134 61.242706
72 0 1 4.796370 -4.056435 61.635498
73 0 1 4.103690 -4.073834 60.976105
74 0 1 4.370291 -4.954834 60.883789
75 0 1 5.014380 -5.003933 60.164795
76 0 1 5.920741 -5.042435 60.004791
77 0 1 6.373072 -5.831334 60.227783
78 0 1 5.783709 -5.966134 60.976990
79 0 1 6.455203 -5.832135 61.653595
80 0 1 5.750140 -6.266935 62.148010
81 0 1 5.803080 -7.050234 61.502594
82 0 1 5.211070 -7.402134 62.177002
83 0 1 5.744921 -8.180634 62.269104
84 0 1 4.771182 -8.329235 62.311188
85 0 1 4.038172 -8.962133 62.125183
86 0 1 3.403922 -9.702934 62.069214
87 0 1 2.888731 -10.544334 62.302887
88 0 1 1.905402 -10.457535 62.203308
89 0 1 2.256011 -11.259834 61.852417
90 0 1 1.664011 -11.594133 62.571899
91 0 1 1.163359 -12.116934 61.967896
92 0 1 0.259932 -12.396235 62.269714
93 0 1 -0.443559 -12.034035 61.783997
94 0 1 -0.445680 -11.106033 61.378601
95 0 1 -0.920110 -10.714933 62.112000
96 0 1 -1.253694 -10.047335 61.541992
97 0 1 -1.811189 -9.446135 61.161407
98 0 1 -1.697761 -8.754635 60.545502
99 0 1 -1.894428 -9.396935 59.832001
100 0 1 -1.258541 -10.133135 60.214691
101 0 1 -1.984182 -10.825634 60.057800
102 0 1 -1.342090 -11.342535 59.717102
103 0 1 -0.507200 -11.637135 59.415100
104 0 1 0.004721 -10.831034 59.088501
105 0 1 0.562319 -10.477335 58.356110
106 0 1 1.410601 -10.140734 58.201508
107 0 1 1.768572 -9.347034 58.704712
108 0 1 2.412161 -10.024534 58.549713
109 0 1 2.546381 -10.682335 59.336212
110 0 1 3.248782 -11.357334 59.499390
111 0 1 3.704051 -10.869534 58.718384
112 0 1 2.791220 -11.265934 58.362488
113 0 1 3.518530 -11.916834 58.414307
114 0 1 3.273860 -12.787933 58.113495
115 0 1 2.874079 -13.630434 58.287811
116 0 1 3.791079 -13.736834 58.000793
117 0 1 3.910510 -14.590034 58.435791
118 0 1 3.573779 -15.522234 58.285583
119 0 1 2.826281 -16.014034 58.723907
120 0 1 3.153891 -16.169035 59.635101
121 0 1 4.063269 -15.894434 59.572510
122 0 1 4.162932 -16.324835 58.694611
123 0 1 5.045840 -16.509933 59.029114
124 0 1 5.252539 -16.111435 58.212891
125 0 1 4.920710 -16.194235 57.297485
126 0 1 5.158400 -16.171034 56.357483
127 0 1 4.429350 -16.163633 55.757507
128 0 1 4.800692 -17.071335 55.611694
129 0 1 4.058539 -17.150835 55.059906
130 0 1 4.202429 -18.132334 54.862610
131 0 1 5.193030 -18.161335 54.671295
132 0 1 6.048441 -17.769135 54.406708
133 0 1 5.444411 -17.305334 53.756104
134 0 1 5.895709 -16.950134 52.923584
135 0 1 6.500430 -16.944035 53.664703
136 0 1 7.414912 -16.526834 53.726410
137 0 1 7.651110 -16.548634 54.666687
138 0 1 8.384790 -16.168034 54.100403
139 0 1 8.354689 -17.114235 54.273590
140 0 1 8.084589 -17.681234 54.975006
141 0 1 8.791491 -17.061535 55.251404
142 0 1 9.093290 -16.163235 55.407806
143 0 1 8.388491 -15.546333 55.662903
144 0 1 8.817289 -14.899134 56.274597
145 0 1 9.616590 -14.407234 56.510193
146 0 1 10.425188 -14.975735 56.673096
147 0 1 10.305292 -15.601534 57.462708
148 0 1 10.286188 -15.197433 58.355499
149 0 1 11.083391 -14.508934 58.445892
150 0 1 11.220289 -13.814034 59.141785
151 0 1 11.673388 -13.664835 58.299316
152 0 1 12.440489 -13.263535 57.862000
153 0 1 12.660791 -12.323435 57.495483
154 0 1 12.185091 -11.851034 56.789185
155 0 1 12.606291 -11.164534 57.250702
156 0 1 12.793791 -10.248034 57.374390
157 0 1 13.468191 -10.393934 58.091187
158 0 1 14.279390 -10.343433 57.570312
159 0 1 14.483191 -9.782635 56.780884
160 0 1 15.213289 -9.094034 56.620300
161 0 1 16.164190 -9.273233 56.494904
162 0 1 16.272089 -8.624434 57.161804
163 0 1 16.399187 -9.343235 57.726593
164 0 1 17.138887 -8.758335 57.740784
165 0 1 17.755388 -8.042034 57.835999
166 0 1 18.348890 -8.265635 58.586395
167 0 1 17.658289 -7.491735 58.789093
168 0 1 17.050989 -7.744734 59.529114
169 0 1 17.392889 -7.232834 60.300598
170 0 1 17.572588 -6.453835 59.778595
171 0 1 17.536489 -5.750935 60.484589
172 0 1 17.885790 -4.822033 60.733490
173 0 1 18.732691 -5.127335 60.437408
174 0 1 18.684690 -4.090836 60.372314
175 0 1 19.440592 -4.119133 61.006104
176 0 1 19.081888 -3.941334 61.933197
177 0 1 19.544687 -3.251034 61.507599
178 0 1 19.607492 -2.595333 60.754913
179 0 1 18.903589 -2.819035 60.108704
180 0 1 19.471090 -3.354134 59.556610
181 0 1 20.128889 -3.316433 58.837006
182 0 1 20.109690 -2.354334 58.873596
183 0 1 20.370989 -2.117134 58.000183
184 0 1 21.049791 -1.521365 57.740906
185 0 1 20.568991 -1.383475 56.935486
186 0 1 20.977591 -0.813836 56.324402
187 0 1 20.875090 -0.014916 55.724091
188 0 1 20.190989 0.348056 56.229309
189 0 1 20.466990 1.332506 56.398895
190 0 1 19.940187 1.686485 57.094910
191 0 1 20.832392 1.799717 57.512604
192 0 1 21.105890 1.701336 58.413086
193 0 1 21.861090 2.205995 58.132599
194 0 1 21.904890 3.002746 58.693909
195 0 1 22.401690 3.468105 57.962708
196 0 1 22.682791 3.610506 57.096985
197 0 1 23.582293 3.734985 57.267303
198 0 1 24.414789 3.247465 57.457703
199 0 1 24.349489 2.371225 57.153198
200 0 1 23.912790 1.513435 57.118408
201 0 1 24.391489 0.594736 57.080505
202 0 1 24.119188 0.108387 56.279114
203 0 1 24.718493 -0.440445 55.879395
204 0 1 25.378489 -0.983994 56.547394
205 0 1 25.060389 -1.611683 55.793396
206 0 1 24.224291 -1.364933 56.137909
207 0 1 23.284288 -1.341626 56.111908
208 0 1 22.866892 -1.683934 55.284790
209 0 1 23.730288 -2.074635 55.084900
210 0 1 23.631189 -2.710934 55.741394
211 0 1 23.417192 -3.648533 55.588989
212 0 1 22.942591 -4.225834 54.957794
213 0 1 22.912989 -4.626935 54.105194
214 0 1 22.020388 -4.341336 54.284302
215 0 1 21.626787 -5.162735 53.967896
216 0 1 20.671587 -5.335835 53.779694
217 0 1 20.692392 -4.729233 53.043091
218 0 1 21.229990 -4.080035 52.680115
219 0 1 21.360991 -3.769535 51.751007
220 0 1 21.669291 -2.968834 51.359589
221 0 1 21.375292 -2.552334 52.201111
222 0 1 20.487589 -2.173435 52.026093
223 0 1 20.601892 -1.478054 51.330292
224 0 1 20.047792 -0.748734 51.693909
225 0 1 20.182291 0.200845 51.653503
226 0 1 20.215693 1.162016 51.514893
227 0 1 20.129789 1.880266 52.153687
228 0 1 19.264292 1.962265 51.991791
229 0 1 18.466791 1.574436 51.516602
230 0 1 18.505190 0.899385 52.200012
231 0 1 18.670191 0.691566 53.089294
232 0 1 18.938890 0.497915 54.037109
233 0 1 19.678591 0.482866 54.725586
234 0 1 19.017889 -0.059994 55.042297
235 0 1 18.956591 -0.868985 54.525513
236 0 1 18.064692 -0.752823 54.212097
237 0 1 17.831690 -0.893505 53.334106
238 0 1 17.880690 -1.809334 53.612305
239 0 1 17.250090 -2.020733 54.298584
240 0 1 17.269590 -1.852333 55.342010
241 0 1 17.716288 -2.542235 54.930206
242 0 1 17.611090 -3.448935 55.105713
243 0 1 16.782290 -3.750836 54.756409
244 0 1 16.176790 -4.432034 54.359711
245 0 1 15.499491 -3.748734 54.556610
246 0 1 15.271692 -2.892534 54.155212
247 0 1 14.776987 -2.945235 53.265686
248 0 1 14.539289 -3.725535 52.635315
249 0 1 15.073893 -3.286434 52.008698
250 0 1 14.914789 -3.336834 50.960999
251 0 1 15.770792 -3.022934 50.677185
252 0 1 16.281790 -2.911434 51.506012
253 0 1 16.833590 -2.507735 50.866211
254 0 1 16.869989 -1.733834 51.434814
255 0 1 16.913591 -0.779354 51.040497
256 0 1 16.987787 -0.506726 51.993713
257 0 1 17.048388 0.158664 52.634216
258 0 1 16.212091 0.487285 52.950592
259 0 1 15.743792 0.681995 53.829010
260 0 1 14.879587 1.092546 54.185089
261 0 1 14.338190 0.359895 54.004700
262 0 1 13.474989 -0.095385 54.214203
263 0 1 13.493288 -0.934615 54.681885
264 0 1 13.850588 -1.057743 53.789795
265 0 1 13.414888 -0.664135 53.084290
266 0 1 14.083090 0.107795 52.885986
267 0 1 13.623392 0.903206 52.511810
268 0 1 13.309790 0.988266 51.594299
269 0 1 13.602690 1.467205 50.770905
270 0 1 14.073389 0.776186 50.277496
271 0 1 14.051390 0.296486 49.464417
272 0 1 14.341089 -0.644394 49.497589
273 0 1 14.604891 -0.643166 50.434204
274 0 1 14.378691 -1.617115 50.592285
275 0 1 14.302191 -2.496735 50.969208
276 0 1 13.390890 -2.618134 50.893005
277 0 1 12.434992 -2.803234 50.603912
278 0 1 12.405291 -2.800034 49.585083
279 0 1 13.035692 -2.971035 48.852997
280 0 1 13.939489 -3.259934 48.838501
281 0 1 13.546892 -4.062535 48.443604
282 0 1 13.761889 -4.066235 49.428406
283 0 1 13.039091 -4.546935 49.945404
284 0 1 13.048792 -4.458334 50.930695
285 0 1 13.476889 -5.362534 51.199493
286 0 1 13.401091 -5.991536 50.392090
287 0 1 14.324389 -5.664135 50.662598
288 0 1 14.599791 -6.538735 50.930786
289 0 1 15.021090 -7.425035 50.950012
290 0 1 15.876989 -7.322935 50.449310
291 0 1 16.079390 -8.025835 49.844788
292 0 1 16.450090 -8.708035 49.260101
293 0 1 16.288889 -9.352634 48.561188
294 0 1 16.575689 -10.072334 47.932312
295 0 1 16.132990 -10.604633 47.309113
296 0 1 15.440390 -10.867735 47.945190
297 0 1 15.088388 -9.999535 48.154785
298 0 1 14.584990 -10.199533 47.309509
299 0 1 14.316591 -9.310034 47.582092
300 0 1 14.110491 -8.339535 47.512207
301 0 1 13.190390 -8.174435 47.470093
302 0 1 12.471888 -8.043034 48.073395
303 0 1 13.065489 -8.249735 48.825409
304 0 1 12.328890 -8.677134 49.260712
305 0 1 11.772390 -9.480234 49.591309
306 0 1 11.102690 -9.929634 49.081909
307 0 1 10.545691 -10.311434 49.772491
308 0 1 10.161989 -10.934734 50.443909
309 0 1 10.996988 -11.022533 50.859711
310 0 1 11.573790 -11.291334 51.579712
311 0 1 11.070688 -11.159735 52.330383
312 0 1 10.390589 -10.496035 52.149506
313 0 1 9.901190 -11.352234 52.223602
314 0 1 9.123690 -11.945034 52.385193
315 0 1 8.226191 -12.315035 52.305908
316 0 1 8.017611 -11.574234 51.824799
317 0 1 7.394530 -11.419834 52.550293
318 0 1 7.092631 -10.813435 53.230591
319 0 1 6.418231 -11.426134 52.903503
320 0 1 6.864600 -12.270634 53.114410
321 0 1 7.408431 -12.950233 53.572205
322 0 1 6.597350 -13.251135 53.944000
323 0 1 6.594061 -14.056934 53.450592
324 0 1 7.430670 -14.180834 52.962097
325 0 1 8.232592 -14.532534 52.547485
326 0 1 7.455851 -14.720734 51.903900
327 0 1 6.875712 -15.248034 51.414490
328 0 1 6.832263 -15.497334 50.532593
329 0 1 7.709219 -15.152235 50.614594
330 0 1 7.949061 -15.581034 49.771393
331 0 1 7.503340 -14.765734 49.525604
332 0 1 7.892481 -14.892435 48.675903
333 0 1 8.581591 -14.274134 48.501587
334 0 1 8.104189 -13.570934 48.056091
335 0 1 7.159461 -13.598234 48.138306
336 0 1 7.491938 -13.679134 47.234100
337 0 1 7.636229 -12.798334 47.506805
338 0 1 6.764430 -12.858534 47.223389
339 0 1 6.212321 -13.619635 46.938904
340 0 1 5.796061 -13.361734 46.115906
341 0 1 5.479430 -12.445435 46.365601
342 0 1 4.624281 -12.355434 46.865204
343 0 1 4.052351 -12.033634 46.119507
344 0 1 3.867621 -12.884933 45.711700
345 0 1 3.801341 -13.352934 44.907104
346 0 1 3.124800 -12.826035 44.458313
347 0 1 2.908762 -12.470434 45.325500
348 0 1 2.254412 -12.695333 46.042389
349 0 1 2.870722 -12.583235 46.698914
350 0 1 3.124739 -11.770634 47.217712
351 0 1 2.597109 -12.347235 47.708313
352 0 1 2.093169 -11.463335 47.492310
353 0 1 1.909922 -11.500935 48.425690
354 0 1 2.513842 -11.746534 49.072998
355 0 1 2.384840 -11.726334 50.004303
356 0 1 2.515082 -10.847633 49.704102
357 0 1 1.590060 -11.088034 49.454895
358 0 1 0.974810 -11.755033 49.823700
359 0 1 0.491621 -10.956734 49.946899
360 0 1 0.208529 -11.627535 50.558716
361 0 1 -0.225461 -11.708134 51.436493
362 0 1 -0.742099 -11.494135 52.196289
363 0 1 -0.513179 -11.958633 53.005310
364 0 1 0.054610 -12.549334 53.410004
365 0 1 0.782012 -12.749134 52.856506
366 0 1 0.391879 -13.464334 52.403809
367 0 1 -0.125001 -14.306234 52.331787
368 0 1 -0.923049 -14.811934 52.200012
369 0 1 -1.121818 -14.527834 53.111908
370 0 1 -1.752895 -13.960634 53.579712
371 0 1 -2.278821 -14.471434 52.940613
372 0 1 -2.562505 -13.980434 52.210388
373 0 1 -3.062110 -14.680334 51.898895
374 0 1 -3.463150 -14.810934 52.786194
375 0 1 -4.496799 -14.597633 52.669800
376 0 1 -5.035030 -14.829535 51.889587
377 0 1 -6.000890 -14.503035 52.061798
378 0 1 -6.714630 -15.247034 52.449097
379 0 1 -7.308149 -15.798834 52.946716
380 0 1 -7.836641 -16.596233 52.999603
381 0 1 -8.710039 -16.632034 52.723206
382 0 1 -8.775381 -16.341835 53.678101
383 0 1 -8.352720 -15.747734 54.381500
384 0 1 -7.908571 -15.010534 54.854797
385 0 1 -7.350660 -14.364534 54.323486
386 0 1 -6.847230 -13.499535 53.867401
387 0 1 -7.002939 -12.663034 53.401184
388 0 1 -6.577770 -12.240833 52.676697
389 0 1 -5.714799 -12.456533 52.345215
390 0 1 -5.744220 -11.582933 51.983307
391 0 1 -4.992700 -11.042435 52.266113
392 0 1 -4.204710 -10.691534 52.615692
393 0 1 -3.440849 -10.203434 52.255188
394 0 1 -2.514770 -10.530535 52.111389
395 0 1 -1.942962 -11.244135 52.434113
396 0 1 -1.358463 -11.440535 53.139008
397 0 1 -1.634061 -10.574234 53.205017
398 0 1 -1.791406 -9.790234 52.668793
399 0 1 -2.062223 -8.885435 52.976013
400 0 1 -2.980682 -8.722235 53.059387
401 0 1 -3.625329 -8.554234 52.424408
402 0 1 -3.993700 -8.619434 51.503998
403 0 1 -4.384790 -8.111734 50.751007
404 0 1 -5.086730 -7.479835 50.473389
405 0 1 -4.298360 -7.034535 50.841888
406 0 1 -4.414880 -6.161234 51.155090
407 0 1 -4.493579 -5.815335 52.075989
408 0 1 -4.115230 -5.205935 52.669312
409 0 1 -4.143159 -4.532235 53.369904
410 0 1 -5.090009 -4.512333 53.065491
411 0 1 -5.149759 -3.965735 53.852295
412 0 1 -5.698720 -4.604334 54.275299
413 0 1 -5.361480 -4.208134 55.047699
414 0 1 -4.487949 -4.578335 54.680298
415 0 1 -4.380859 -3.639336 54.483612
416 0 1 -4.825399 -2.845036 54.252014
417 0 1 -4.993150 -2.411934 53.401001
418 0 1 -4.445949 -1.715535 53.042786
419 0 1 -4.992811 -1.883734 52.231995
420 0 1 -4.179309 -2.330136 52.165894
421 0 1 -3.339920 -2.234734 52.478516
422 0 1 -2.851020 -1.857535 53.192291
423 0 1 -3.036989 -0.971835 53.068787
424 0 1 -3.365760 -0.445605 52.278595
425 0 1 -3.493270 -0.432505 51.317993
426 0 1 -4.190290 0.143684 51.649506
427 0 1 -4.375310 -0.183264 50.801392
428 0 1 -4.299829 -0.273415 49.809814
429 0 1 -4.687910 0.245327 49.137787
430 0 1 -4.005399 0.866815 49.372009
431 0 1 -4.190629 1.777376 49.165588
432 0 1 -4.385099 2.602936 48.733612
433 0 1 -5.286779 2.888725 49.037292
434 0 1 -6.273799 2.894356 49.155090
435 0 1 -7.079359 2.715736 48.691711
436 0 1 -6.815599 2.935055 47.799194
437 0 1 -7.571680 3.588606 47.941193
438 0 1 -8.072050 3.792745 48.726288
439 0 1 -8.647190 3.512306 48.052795
440 0 1 -9.540930 3.311765 48.222992
441 0 1 -9.437429 2.338846 48.513916
442 0 1 -8.504259 2.665275 48.716400
443 0 1 -8.451160 3.198566 49.546387
444 0 1 -8.286030 3.986995 50.081604
445 0 1 -7.547050 4.564886 50.216003
446 0 1 -7.396579 5.167236 49.483887
447 0 1 -6.591939 4.913196 49.831604
448 0 1 -6.142219 5.134336 48.994110
449 0 1 -5.662269 5.922115 49.123108
450 0 1 -5.049200 5.991775 49.827698
451 0 1 -4.628549 5.905855 48.930511
452 0 1 -5.004619 5.823545 48.047394
453 0 1 -5.779329 5.230155 47.766785
454 0 1 -6.615169 5.429096 47.268799
455 0 1 -6.948289 6.370426 47.225494
456 0 1 -7.372480 7.233066 46.928802
457 0 1 -7.568250 7.474914 46.006805
458 0 1 -6.576080 7.453510 45.848297
459 0 1 -6.514699 6.805336 45.180206
460 0 1 -6.790470 6.634775 44.190094
461 0 1 -7.625930 6.754396 43.717804
462 0 1 -8.281141 7.217006 44.316711
463 0 1 -9.050119 7.770284 44.100403
464 0 1 -9.513151 8.589575 44.289307
465 0 1 -9.805651 8.834822 43.396790
466 0 1 -8.868971 8.688820 43.115784
467 0 1 -8.005541 8.477757 42.751892
468 0 1 -7.532600 9.222921 42.371399
469 0 1 -7.884099 9.770447 43.063507
470 0 1 -7.066499 10.283237 43.131287
471 0 1 -7.072999 11.028965 43.791687
472 0 1 -8.052629 11.199585 43.725189
473 0 1 -8.945391 10.906548 43.648712
474 0 1 -9.500370 10.418804 43.061584
475 0 1 -10.279001 10.273464 42.403412
476 0 1 -9.983721 10.670155 41.582489
477 0 1 -9.793430 10.669678 40.621307
478 0 1 -9.262051 11.001556 39.910706
479 0 1 -9.901739 11.710346 39.853302
480 0 1 -9.459040 11.914017 39.080811
481 0 1 -10.244030 11.907948 38.492889
482 0 1 -10.062101 10.877827 38.415802
483 0 1 -10.918741 10.932446 38.987213
484 0 1 -11.146120 10.014378 38.838806
485 0 1 -11.283300 9.085724 38.990997
486 0 1 -12.192709 8.683666 39.122803
487 0 1 -11.855181 8.419565 40.007599
488 0 1 -11.850069 7.537214 40.584412
489 0 1 -11.360769 6.827255 40.183807
490 0 1 -12.348810 6.677885 40.522095
491 0 1 -12.795012 6.210105 39.754913
492 0 1 -13.725309 6.651725 39.728516
493 0 1 -13.780010 5.666746 39.512604
494 0 1 -13.095209 5.775575 38.857605
495 0 1 -12.772511 6.351425 38.103516
496 0 1 -11.864840 6.313035 37.836700
497 0 1 -11.163641 6.746625 37.310791
498 0 1 -10.587400 7.458389 37.235809
499 0 1 -10.047180 7.190465 36.417908
500 0 1 -9.348440 6.974845 37.133301
501 0 1 -8.522291 6.574806 37.480286
502 0 1 -7.900049 5.975116 37.212311
503 0 1 -6.963209 6.221706 37.185913
504 0 1 -7.123621 6.549884 36.272797
505 0 1 -7.643079 7.168745 35.718384
506 0 1 -7.950201 7.988271 35.325592
507 0 1 -8.857550 7.822265 35.022491
508 0 1 -8.855700 7.722524 34.044495
509 0 1 -9.841909 7.808052 33.940186
510 0 1 -10.260040 8.596596 33.551697
511 0 1 -9.964991 9.024994 32.713684
512 0 1 -10.737131 9.562826 32.465607
513 0 1 -10.838650 9.630257 31.419495
514 0 1 -11.551611 9.307781 30.861786
515 0 1 -11.746550 8.527746 30.317291
516 0 1 -12.642111 8.207747 30.243713
517 0 1 -12.804710 7.308786 30.030396
518 0 1 -12.773809 7.109266 29.057800
519 0 1 -13.381910 7.320575 28.276001
520 0 1 -13.448309 6.404766 27.780792
521 0 1 -13.616610 5.640085 27.191406
522 0 1 -14.526110 5.771755 26.705505
523 0 1 -14.383310 5.791015 25.695984
524 0 1 -15.124811 6.382085 25.256989
525 0 1 -15.808510 5.608585 25.555206
526 0 1 -16.511810 4.961906 25.450592
527 0 1 -15.987009 4.638395 24.752014
528 0 1 -15.708210 3.738907 24.897491
529 0 1 -15.617609 2.874555 25.374207
530 0 1 -15.136810 2.679445 26.140503
531 0 1 -15.310011 2.537275 27.032410
532 0 1 -15.598810 2.368606 27.984192
533 0 1 -14.694811 2.749546 27.754211
534 0 1 -13.841311 3.084205 27.678101
535 0 1 -13.193411 2.363617 27.778992
536 0 1 -13.221910 1.547636 27.178192
537 0 1 -12.538910 1.507965 27.897614
538 0 1 -12.849710 1.647495 28.799286
539 0 1 -12.978010 0.765155 29.127899
540 0 1 -13.057510 -0.170834 28.789001
541 0 1 -13.763510 -0.824685 28.586090
542 0 1 -14.473211 -0.192974 28.398499
543 0 1 -15.169310 0.229126 28.033997
544 0 1 -15.561010 -0.708794 28.227386
545 0 1 -16.315809 -0.090393 27.867706
546 0 1 -16.899611 -0.149245 26.964813
547 0 1 -16.914110 -1.063504 27.326202
548 0 1 -16.640709 -1.807434 26.693512
549 0 1 -15.801510 -2.234734 26.700195
550 0 1 -14.917610 -2.233635 26.435211
551 0 1 -14.870409 -2.632534 25.495605
552 0 1 -14.181211 -3.316635 25.380615
553 0 1 -14.344610 -3.553435 24.415192
554 0 1 -13.529711 -4.128834 24.650391
555 0 1 -12.854311 -4.022934 24.024994
556 0 1 -13.457411 -3.455334 23.516602
557 0 1 -13.221312 -2.588536 23.036804
558 0 1 -13.375010 -2.737234 22.125504
559 0 1 -12.501410 -3.022234 22.585114
560 0 1 -11.915171 -3.083534 23.353516
561 0 1 -11.287561 -2.554936 22.873901
562 0 1 -11.868670 -1.922936 23.320404
563 0 1 -11.433390 -1.692234 24.101013
564 0 1 -12.054609 -1.514626 24.791901
565 0 1 -12.473711 -1.191025 25.572998
566 0 1 -13.148409 -1.598065 26.092194
567 0 1 -13.868811 -2.241333 25.894989
568 0 1 -14.056711 -1.462124 25.434998
569 0 1 -13.798609 -0.571885 25.127991
570 0 1 -13.327810 0.111696 24.713684
571 0 1 -13.298710 0.298296 23.710907
572 0 1 -12.804911 -0.319603 23.014404
573 0 1 -11.919010 -0.341284 22.651886
574 0 1 -12.436811 0.249324 22.051300
575 0 1 -13.088911 0.759756 22.511810
576 0 1 -13.847311 0.243616 22.262100
577 0 1 -14.343809 -0.633503 22.352402
578 0 1 -14.425611 -0.337235 21.452606
579 0 1 -15.298710 -0.851315 21.406006
580 0 1 -15.669611 0.069265 21.706406
581 0 1 -15.358511 -0.183495 22.605103
582 0 1 -15.417810 0.401186 23.334900
583 0 1 -15.657011 0.843444 24.145691
584 0 1 -15.591810 1.710615 24.578308
585 0 1 -15.052111 1.956165 23.784210
586 0 1 -14.952311 2.726005 23.276093
587 0 1 -14.417610 2.235746 22.763794
588 0 1 -14.809111 2.254097 21.953400
589 0 1 -15.159510 2.272396 21.016296
590 0 1 -15.177210 2.436165 20.123108
591 0 1 -15.476110 1.928026 19.283600
592 0 1 -14.757010 1.673694 18.591904
593 0 1 -14.136610 2.295816 18.398499
594 0 1 -13.479910 1.664905 18.102905
595 0 1 -14.002111 0.945797 17.722198
596 0 1 -13.696611 0.179685 18.310608
597 0 1 -12.903509 0.579006 18.822403
598 0 1 -12.304411 1.253866 18.576294
599 0 1 -11.894680 2.139705 18.556503
600 0 1 -11.257401 2.936207 18.470093
601 0 1 -10.913780 3.625145 17.799896
602 0 1 -10.704981 2.802246 17.318298
603 0 1 -11.224920 2.304596 16.726807
604 0 1 -11.734449 1.938106 15.992493
605 0 1 -11.207521 2.616256 15.522797
606 0 1 -11.630201 3.397877 15.816895
607 0 1 -10.783390 3.938675 15.778793
608 0 1 -10.800270 4.268806 14.885803
609 0 1 -9.872961 4.299304 14.553894
610 0 1 -10.004400 4.333564 13.536407
611 0 1 -10.737509 4.709165 13.032104
612 0 1 -10.130239 5.200815 12.484695
613 0 1 -10.434881 5.887155 11.853699
614 0 1 -10.803541 6.039575 10.910004
615 0 1 -10.138430 6.267875 10.297806
616 0 1 -9.463949 6.902956 10.818298
617 0 1 -9.140791 7.226976 9.928131
618 0 1 -8.305120 7.183074 9.373459
619 0 1 -7.704969 8.009642 9.535873
620 0 1 -7.647810 8.982618 9.270615
621 0 1 -7.751581 9.863407 9.548309
622 0 1 -7.051980 10.467987 9.775558
623 0 1 -7.190279 11.331245 9.428024
624 0 1 -7.972320 10.932217 9.066345
625 0 1 -8.300270 10.573647 8.206039
626 0 1 -8.847750 11.330997 8.386902
627 0 1 -8.885000 11.919025 7.647812
628 0 1 -7.964889 11.687325 8.029266
629 0 1 -7.278059 12.203384 8.457886
630 0 1 -6.487550 12.334755 8.996948
631 0 1 -5.726039 12.212444 9.556473
632 0 1 -4.853910 11.865917 9.675705
633 0 1 -5.322889 11.012634 9.650131
634 0 1 -5.689540 11.045795 10.608795
635 0 1 -4.805509 11.471714 10.761703
636 0 1 -4.505090 12.299995 10.534607
637 0 1 -4.054630 12.787727 9.699600
638 0 1 -3.289720 12.263935 9.956924
639 0 1 -3.106609 13.103447 9.475906
640 0 1 -2.814315 12.332645 9.063705
641 0 1 -1.907148 12.652878 9.104187
642 0 1 -0.979600 12.460285 9.117584
643 0 1 -0.544960 12.241386 8.259659
644 0 1 -0.210901 12.772297 7.501114
645 0 1 0.323119 13.435486 6.958344
646 0 1 0.828242 14.224976 6.893173
647 0 1 -0.005689 14.485676 7.114990
648 0 1 -0.133871 15.419235 6.709167
649 0 1 -0.368291 15.826874 7.472931
650 0 1 -1.264041 16.181644 7.359406
651 0 1 -1.306081 15.906445 8.256378
652 0 1 -0.734159 15.216755 8.545090
653 0 1 0.138289 15.505707 8.741776
654 0 1 0.799632 15.340244 9.388092
655 0 1 0.512480 14.940647 10.258896
656 0 1 1.413641 15.127384 10.514496
657 0 1 1.252402 16.067024 10.409897
658 0 1 1.456049 16.989014 10.686005
659 0 1 1.477969 17.398426 11.626495
660 0 1 1.822482 17.786995 12.416901
661 0 1 1.749159 18.567368 12.968796
662 0 1 2.293169 18.018627 13.495895
663 0 1 2.891440 17.890507 12.608994
664 0 1 2.645892 18.679565 12.144501
665 0 1 2.461180 18.004158 11.319504
666 0 1 1.799082 18.640167 10.994507
667 0 1 0.890891 18.470764 10.744705
668 0 1 0.182120 18.150208 11.316498
669 0 1 -0.759389 18.274338 11.376099
670 0 1 -1.478975 17.691574 11.179794
671 0 1 -1.811279 18.559464 10.975708
672 0 1 -1.751094 19.059464 11.849792
673 0 1 -2.176626 19.926765 11.576797
674 0 1 -2.694419 20.717667 11.829407
675 0 1 -3.522010 21.256165 11.863693
676 0 1 -4.458580 20.950565 11.777008
677 0 1 -3.946001 20.145966 11.541504
678 0 1 -3.441530 19.533768 12.070602
679 0 1 -4.035930 19.834465 12.747299
680 0 1 -3.394540 19.523365 13.465103
681 0 1 -3.805910 19.395668 14.339005
682 0 1 -3.278890 19.594166 15.101501
683 0 1 -3.762239 18.859367 15.528595
684 0 1 -2.849788 18.954166 15.875107
685 0 1 -2.301486 18.272926 16.356003
686 0 1 -3.128459 18.345505 16.907394
687 0 1 -3.894380 17.911846 16.637695
688 0 1 -3.968629 17.549896 17.625702
689 0 1 -4.210859 17.478947 18.542099
690 0 1 -3.368219 17.875046 18.807800
691 0 1 -2.990749 17.265156 18.195099
692 0 1 -3.162450 16.311546 18.362701
693 0 1 -4.037401 16.367455 17.939102
694 0 1 -4.306209 16.010956 18.786407
695 0 1 -4.307569 15.096157 18.650101
696 0 1 -4.950490 14.556217 18.204895
697 0 1 -5.542669 14.897655 17.477005
698 0 1 -6.149499 15.359547 18.039307
699 0 1 -5.752569 15.103664 18.836899
700 0 1 -6.249799 14.343365 19.197296
701 0 1 -6.665250 13.630756 19.685196
702 0 1 -6.297670 13.057156 19.004105
703 0 1 -6.154291 12.482437 18.264496
704 0 1 -7.122989 12.500095 17.952499
705 0 1 -7.872760 12.997395 17.804993
706 0 1 -8.497850 13.371437 17.254700
707 0 1 -8.533810 13.640274 16.314102
708 0 1 -8.255899 13.690987 15.419495
709 0 1 -7.739210 12.986748 15.785400
710 0 1 -7.157079 12.719284 16.497894
711 0 1 -6.936189 13.568047 16.862701
712 0 1 -6.137109 13.752068 16.437195
713 0 1 -5.810619 13.423454 15.551102
714 0 1 -4.988430 13.511345 15.021606
715 0 1 -4.044080 13.353188 14.897995
716 0 1 -3.966711 12.865845 15.731201
717 0 1 -4.152050 12.129906 16.375702
718 0 1 -3.423379 11.584637 16.556793
719 0 1 -2.463670 11.643837 16.541306
720 0 1 -1.947999 12.238636 15.901199
721 0 1 -1.207292 11.779675 16.283203
722 0 1 -0.448678 12.224976 16.056793
723 0 1 0.262141 12.274364 15.405396
724 0 1 -0.256570 11.874866 14.685394
725 0 1 -0.395360 10.991337 14.226593
726 0 1 -0.490140 10.615017 15.089096
727 0 1 -1.220710 10.085724 14.691406
728 0 1 -0.988592 9.275682 14.308105
729 0 1 -0.482151 8.784506 14.945602
730 0 1 -0.633630 8.888004 15.890594
731 0 1 0.304530 9.032522 15.858398
732 0 1 0.562220 9.213850 16.718994
733 0 1 1.419932 8.777153 16.884705
734 0 1 1.615649 8.058661 16.268906
735 0 1 2.369120 8.350662 15.740402
736 0 1 2.160159 7.571935 15.195694
737 0 1 1.474539 7.133766 15.748108
738 0 1 1.281222 6.338396 15.176407
739 0 1 0.550959 6.971395 15.329697
740 0 1 0.237570 7.330396 16.175797
741 0 1 -0.631490 7.463619 15.760895
742 0 1 -0.985183 7.094526 16.604492
743 0 1 -0.816459 6.392585 17.283905
744 0 1 0.050101 6.164714 17.597992
745 0 1 0.936160 6.477886 17.317200
746 0 1 1.120230 7.403831 17.440201
747 0 1 2.023890 7.663085 17.502197
748 0 1 2.787089 7.490556 18.030792
749 0 1 3.634211 7.490074 18.438004
750 0 1 4.465559 7.066375 18.590897
751 0 1 4.021372 6.559946 19.227402
752 0 1 3.160010 6.452135 19.686707
753 0 1 2.551310 5.699935 20.011108
754 0 1 1.830420 6.294006 20.184494
755 0 1 1.140688 6.285846 20.875397
756 0 1 1.056220 7.247606 21.006195
757 0 1 1.652789 7.918581 20.677094
758 0 1 0.950259 8.569176 21.023895
759 0 1 1.856169 9.023207 21.024399
760 0 1 1.804190 8.624233 21.895401
761 0 1 2.767279 8.457020 21.566193
762 0 1 3.250350 9.305819 21.685501
763 0 1 4.010600 9.747076 21.276093
764 0 1 4.731520 10.372826 21.033707
765 0 1 5.029101 10.973335 20.406296
766 0 1 4.161150 10.940605 19.927994
767 0 1 3.376559 10.720715 20.410294
768 0 1 2.734339 10.234417 19.891998
769 0 1 2.838469 10.250237 18.930908
770 0 1 2.940798 11.058247 19.341995
771 0 1 2.580161 11.763805 19.815399
772 0 1 1.952219 12.368916 19.415009
773 0 1 1.560980 11.501354 19.844101
774 0 1 1.016360 11.121006 19.242004
775 0 1 1.532488 11.132675 18.461792
776 0 1 0.977129 11.315266 17.660904
777 0 1 0.160040 11.632935 18.069504
778 0 1 -0.373678 12.096985 18.694305
779 0 1 -1.296453 11.913837 18.743896
780 0 1 -2.176591 11.461784 18.999695
781 0 1 -2.804693 12.237385 18.942200
782 0 1 -2.947778 11.806747 19.787003
783 0 1 -3.197950 12.208725 20.649002
784 0 1 -4.172010 12.135376 20.800293
785 0 1 -4.371749 11.235004 20.926392
786 0 1 -4.599760 11.269516 19.925507
787 0 1 -4.082050 10.506687 20.135300
788 0 1 -3.173299 10.743217 19.966400