LAMMPS data file via MDAnalysis

        2000  atoms
        1999  bonds
           0  angles
           0  dihedrals
           0  impropers

           1  atom types
           1  bond types
           0  angle types
           0  dihedral types
           0  improper types

-30.5 30.5 xlo xhi
-30.5 30.5 ylo yhi
-233.5 233.5 zlo zhi


Masses

1 1.000000

Atoms

1 0 1 5.911728 7.273034 28.249390
2 0 1 6.348015 7.748833 27.529907
3 0 1 5.873387 8.550934 27.161011
4 0 1 6.308499 9.172134 26.501495
5 0 1 7.157437 8.903233 26.090607
6 0 1 7.871918 8.441231 26.550507
7 0 1 8.488586 8.715332 27.244812
8 0 1 8.840649 8.122433 26.552490
9 0 1 9.710545 7.775933 27.006500
10 0 1 10.316345 8.467632 27.163208
11 0 1 9.846745 8.959030 27.787689
12 0 1 10.275349 9.258732 28.523315
13 0 1 10.306644 10.182732 28.582703
14 0 1 10.458546 11.000832 28.132904
15 0 1 11.232845 11.402634 28.595490
16 0 1 11.661346 10.467834 28.544495
17 0 1 11.666546 10.798832 27.705597
18 0 1 12.618145 10.855133 27.677704
19 0 1 12.940845 10.421833 28.545593
20 0 1 12.644646 11.328331 28.604309
21 0 1 13.342846 12.053532 28.569092
22 0 1 14.059246 12.630234 28.968109
23 0 1 14.879948 13.110634 29.295197
24 0 1 14.882648 14.080032 29.366089
25 0 1 15.651646 13.721634 29.835602
26 0 1 15.011845 13.684132 30.599701
27 0 1 14.249546 14.243832 30.660400
28 0 1 13.826244 14.478134 29.822113
29 0 1 12.902248 14.357834 29.985291
30 0 1 13.335049 13.508232 29.988403
31 0 1 13.054447 13.840935 29.083984
32 0 1 12.503345 14.577530 28.720612
33 0 1 12.859146 14.691032 27.818207
34 0 1 12.432747 15.642132 27.982513
35 0 1 11.987446 16.354832 27.406708
36 0 1 11.538548 16.208233 28.217010
37 0 1 11.138947 15.569031 27.637207
38 0 1 11.161045 14.662430 27.922302
39 0 1 10.791546 13.952732 27.277893
40 0 1 10.155148 14.700333 27.339905
41 0 1 10.605946 14.959633 26.557892
42 0 1 11.152546 14.425934 26.079895
43 0 1 11.938446 14.157532 25.630798
44 0 1 11.165546 13.825333 25.218903
45 0 1 11.356747 13.031033 24.746796
46 0 1 11.021046 12.849033 23.834290
47 0 1 11.381046 11.976730 24.065002
48 0 1 10.526348 11.494331 24.147705
49 0 1 9.752949 11.044132 23.801392
50 0 1 9.635548 11.227234 22.864807
51 0 1 9.511948 11.588432 22.023193
52 0 1 8.890247 11.775433 21.237198
53 0 1 8.169327 12.216633 20.788696
54 0 1 7.956826 12.821133 20.080002
55 0 1 7.190056 12.496834 19.687500
56 0 1 6.237916 12.231430 19.976303
57 0 1 5.986485 11.454834 19.425598
58 0 1 5.193985 11.652634 18.888504
59 0 1 4.583966 11.728630 19.657593
60 0 1 4.074776 12.568733 19.525101
61 0 1 3.696179 13.125832 20.249298
62 0 1 3.712117 14.133331 20.119904
63 0 1 4.638028 14.327133 20.035004
64 0 1 4.620488 13.581230 20.712601
65 0 1 3.951458 13.961830 21.311798
66 0 1 2.963238 13.967232 21.531601
67 0 1 2.974888 14.346233 22.412994
68 0 1 2.268296 14.278435 23.052490
69 0 1 2.969868 13.741730 23.316895
70 0 1 2.462845 13.083130 22.725494
71 0 1 2.469777 12.655632 23.620789
72 0 1 2.080567 12.317833 24.432404
73 0 1 1.596478 13.061733 24.840698
74 0 1 1.925747 13.109734 25.739685
75 0 1 2.490345 13.890831 25.941895
76 0 1 2.744336 14.020233 26.812714
77 0 1 1.862526 13.583233 26.730988
78 0 1 2.141236 12.735130 27.144501
79 0 1 1.186268 12.660835 27.322113
80 0 1 0.548829 12.289734 27.947998
81 0 1 -0.206073 11.990433 28.358612
82 0 1 -0.756061 11.210632 28.532288
83 0 1 -1.486864 11.526733 27.972290
84 0 1 -1.403812 12.579033 28.097992
85 0 1 -1.510795 13.525433 27.914703
86 0 1 -1.808935 13.975132 28.812500
87 0 1 -2.799823 13.924530 28.422089
88 0 1 -3.323192 13.166634 28.560791
89 0 1 -3.960292 13.001732 27.827087
90 0 1 -3.711494 12.738335 26.919403
91 0 1 -4.653163 12.978935 26.652405
92 0 1 -5.249063 12.297134 26.279205
93 0 1 -6.018722 12.261433 25.676300
94 0 1 -5.998073 12.853333 24.911987
95 0 1 -6.051292 12.186630 24.304993
96 0 1 -5.098114 12.314934 24.538788
97 0 1 -4.895122 13.092834 24.119202
98 0 1 -4.136323 13.378731 24.701599
99 0 1 -4.246824 14.277031 24.389404
100 0 1 -4.408153 15.219032 24.741913
101 0 1 -5.297763 15.446831 24.569702
102 0 1 -6.189153 14.956432 24.549713
103 0 1 -6.995313 14.457634 24.666595
104 0 1 -6.836223 14.326035 25.608398
105 0 1 -7.739673 14.366833 25.978516
106 0 1 -8.550493 14.473232 26.480591
107 0 1 -8.969473 15.274231 26.342499
108 0 1 -9.817904 15.598133 26.445892
109 0 1 -10.056923 15.011833 25.736298
110 0 1 -10.408104 14.132133 25.631897
111 0 1 -10.793503 14.357033 26.480011
112 0 1 -10.080765 13.766830 26.804413
113 0 1 -10.647713 13.686035 27.583496
114 0 1 -11.411674 13.461632 28.098206
115 0 1 -11.323343 12.837730 27.426086
116 0 1 -11.834354 12.561134 28.158813
117 0 1 -12.729553 12.773132 27.857910
118 0 1 -13.456953 13.077431 28.477112
119 0 1 -14.140354 12.912533 27.829193
120 0 1 -14.599255 13.676533 28.187012
121 0 1 -15.098553 13.209232 27.559509
122 0 1 -15.045753 12.395134 28.124207
123 0 1 -14.413054 11.715332 28.100403
124 0 1 -14.147854 10.795033 28.201599
125 0 1 -14.020554 9.831333 28.121704
126 0 1 -13.084654 9.703632 28.026489
127 0 1 -13.238052 9.159233 28.829803
128 0 1 -12.491955 8.454834 28.721588
129 0 1 -12.641853 7.532235 29.086487
130 0 1 -11.769054 7.667733 29.444611
131 0 1 -11.379044 6.768235 29.613403
132 0 1 -10.445374 7.171132 29.776184
133 0 1 -10.143764 7.429234 30.714905
134 0 1 -10.303673 8.350933 30.358093
135 0 1 -11.068264 8.423134 29.760010
136 0 1 -11.541855 8.861233 30.379303
137 0 1 -10.999554 9.577831 30.010590
138 0 1 -10.284103 9.469532 30.565704
139 0 1 -10.867912 9.481731 31.339386
140 0 1 -10.903435 10.044830 32.132599
141 0 1 -10.057144 10.221333 32.521698
142 0 1 -10.332434 11.193130 32.504913
143 0 1 -9.978033 11.554531 31.664093
144 0 1 -10.643324 10.846432 31.404388
145 0 1 -11.240164 11.036232 32.078705
146 0 1 -11.051264 11.834534 31.631409
147 0 1 -10.498074 12.573730 31.632996
148 0 1 -10.854485 13.387230 31.244904
149 0 1 -10.548023 14.194031 31.630798
150 0 1 -10.188713 14.426632 32.518188
151 0 1 -10.311653 14.909134 33.315094
152 0 1 -9.501154 15.325233 32.992310
153 0 1 -9.705673 16.210930 32.675903
154 0 1 -9.075733 16.895332 32.892883
155 0 1 -8.349203 16.437035 33.436188
156 0 1 -7.500034 16.114334 33.043701
157 0 1 -6.646114 15.634232 32.735687
158 0 1 -5.849994 15.014633 32.542603
159 0 1 -5.283063 14.370430 32.093811
160 0 1 -5.048784 13.445232 32.357208
161 0 1 -5.727693 13.262634 31.768890
162 0 1 -4.875753 13.163834 31.369507
163 0 1 -4.030014 12.732433 30.964905
164 0 1 -3.239053 12.080532 30.696411
165 0 1 -2.268116 12.298931 30.673706
166 0 1 -2.229410 11.334930 30.964203
167 0 1 -1.885023 10.497433 31.107697
168 0 1 -1.745620 10.236332 32.051910
169 0 1 -2.653972 10.615234 31.734009
170 0 1 -2.959934 9.868633 32.320587
171 0 1 -3.356014 10.326733 33.061493
172 0 1 -4.055343 9.614532 32.910797
173 0 1 -3.637514 9.054031 33.576599
174 0 1 -2.799573 8.574932 33.352417
175 0 1 -2.888612 7.609833 33.369293
176 0 1 -3.468442 7.468632 32.562988
177 0 1 -3.827903 7.039132 33.282501
178 0 1 -4.380273 7.659234 33.756592
179 0 1 -5.311304 7.672432 33.819092
180 0 1 -5.834993 8.278233 33.244110
181 0 1 -6.275302 7.525635 32.823486
182 0 1 -5.489374 7.054432 32.529510
183 0 1 -5.502023 6.088353 32.429688
184 0 1 -6.216283 5.516991 32.718689
185 0 1 -6.407663 5.150982 33.555908
186 0 1 -6.880104 4.386113 33.479797
187 0 1 -6.831453 3.676224 34.126709
188 0 1 -7.561613 3.309532 33.644592
189 0 1 -7.596214 3.560463 32.655396
190 0 1 -7.471643 3.991604 31.803802
191 0 1 -7.874273 4.585343 31.226105
192 0 1 -8.519663 3.967892 30.951996
193 0 1 -7.756673 3.668782 30.451599
194 0 1 -7.643043 3.037014 31.223206
195 0 1 -7.791324 2.410942 30.538696
196 0 1 -6.848793 2.443753 30.437500
197 0 1 -7.043552 1.753094 31.207397
198 0 1 -7.706813 1.250031 31.749084
199 0 1 -8.323063 1.228844 32.495483
200 0 1 -8.999733 0.618862 32.129089
201 0 1 -9.292793 1.509804 32.227600
202 0 1 -8.933243 2.129143 32.919006
203 0 1 -8.479494 3.071423 32.796600
204 0 1 -8.634304 3.184212 33.704010
205 0 1 -9.471375 3.379334 34.195801
206 0 1 -9.752792 3.159092 35.079285
207 0 1 -9.154394 2.698742 35.736298
208 0 1 -9.199383 1.988602 35.004303
209 0 1 -9.484163 1.093022 34.834290
210 0 1 -9.427414 0.171932 35.023804
211 0 1 -8.746374 -0.380077 34.616608
212 0 1 -9.498653 -0.425468 34.055695
213 0 1 -10.370974 -0.904739 33.995605
214 0 1 -11.031933 -1.524906 33.731506
215 0 1 -10.874695 -2.027416 34.504608
216 0 1 -11.736454 -1.922336 35.020813
217 0 1 -11.073204 -2.397108 35.513794
218 0 1 -11.661354 -2.893005 36.038300
219 0 1 -12.579153 -2.682190 36.341797
220 0 1 -12.998453 -2.149317 36.946991
221 0 1 -13.141554 -1.553188 37.667114
222 0 1 -13.997053 -1.383457 37.460999
223 0 1 -13.965553 -0.414497 37.354614
224 0 1 -13.861553 -0.611908 38.325104
225 0 1 -14.689854 -0.184246 38.362793
226 0 1 -15.581352 -0.521526 38.656799
227 0 1 -15.063253 0.067063 39.251892
228 0 1 -14.267353 0.562794 39.518494
229 0 1 -13.629753 0.324612 38.819885
230 0 1 -13.270153 0.553711 37.971985
231 0 1 -12.385954 0.348011 38.312592
232 0 1 -11.821552 0.129944 39.048798
233 0 1 -10.813774 -0.021408 39.158905
234 0 1 -10.825043 0.563282 38.310089
235 0 1 -10.516233 1.260514 38.922913
236 0 1 -9.584343 1.533474 38.982697
237 0 1 -9.214834 1.282284 38.145508
238 0 1 -9.506853 0.388024 37.883606
239 0 1 -9.708004 0.241131 36.944305
240 0 1 -8.955694 0.529003 36.314606
241 0 1 -8.057314 0.443112 36.462311
242 0 1 -7.535423 1.020172 36.975800
243 0 1 -7.848703 1.903054 37.262085
244 0 1 -7.680343 2.954182 37.099701
245 0 1 -6.825384 2.875164 37.485901
246 0 1 -6.943754 3.371422 38.347687
247 0 1 -6.284782 3.921284 38.763611
248 0 1 -5.411104 3.476975 38.614594
249 0 1 -4.644252 3.335793 39.250305
250 0 1 -4.927894 2.397934 39.030792
251 0 1 -4.597864 1.477093 39.121613
252 0 1 -4.113063 0.748162 38.571289
253 0 1 -3.436983 0.111584 38.706787
254 0 1 -3.027624 0.935353 39.039612
255 0 1 -2.137487 0.995484 39.466309
256 0 1 -2.538173 0.887863 40.295410
257 0 1 -1.764774 0.247101 40.208893
258 0 1 -2.031341 -0.131256 41.055908
259 0 1 -1.905801 -1.030369 40.847198
260 0 1 -1.413629 -1.706787 40.359100
261 0 1 -1.358430 -0.956917 39.718811
262 0 1 -0.835542 -1.071228 38.916809
263 0 1 -0.831871 -1.745098 38.219116
264 0 1 -1.485235 -2.517236 38.266998
265 0 1 -0.530056 -2.819587 38.287903
266 0 1 -0.514162 -3.018251 37.415283
267 0 1 -0.961855 -2.409347 36.898499
268 0 1 -0.197942 -2.262007 36.322388
269 0 1 0.541096 -1.572345 36.553406
270 0 1 0.287495 -1.497749 37.453094
271 0 1 -0.470354 -0.860508 37.664093
272 0 1 -0.084363 -0.338836 36.847687
273 0 1 0.651188 0.169541 36.715607
274 0 1 1.502995 0.187844 36.216003
275 0 1 2.217915 0.063992 36.842712
276 0 1 3.051236 0.067742 36.373291
277 0 1 3.690815 -0.679767 36.362213
278 0 1 4.364686 -0.852787 36.962494
279 0 1 5.316597 -1.063896 36.884888
280 0 1 6.098336 -1.625019 36.732788
281 0 1 5.534356 -1.840477 37.596008
282 0 1 6.110688 -2.063337 38.297485
283 0 1 5.422268 -1.969787 38.867798
284 0 1 5.010396 -1.133186 38.926605
285 0 1 4.300496 -1.222389 38.190613
286 0 1 4.530537 -1.953308 37.643707
287 0 1 4.044949 -2.784940 37.557312
288 0 1 3.846577 -3.446148 36.802795
289 0 1 3.772767 -4.260931 36.379303
290 0 1 4.543335 -4.497919 35.800110
291 0 1 5.442845 -4.108566 35.883911
292 0 1 6.337109 -4.529190 35.745483
293 0 1 6.911488 -3.705168 35.957611
294 0 1 7.319787 -3.897363 36.860901
295 0 1 7.835328 -4.642766 36.412415
296 0 1 8.309708 -5.079816 37.109192
297 0 1 7.397576 -5.177368 37.480194
298 0 1 7.341198 -6.026388 37.874603
299 0 1 7.439637 -5.546136 38.705109
300 0 1 8.029446 -4.946517 38.329407
301 0 1 8.659245 -4.770486 38.997986
302 0 1 9.283848 -4.782676 39.643097
303 0 1 9.684345 -4.482378 38.792786
304 0 1 10.481346 -4.281826 39.350311
305 0 1 11.007545 -4.640497 40.049103
306 0 1 11.653847 -4.443239 40.679199
307 0 1 12.527348 -4.633716 40.916809
308 0 1 13.030247 -5.233217 41.439789
309 0 1 12.929047 -5.580467 42.338287
310 0 1 12.479649 -6.080667 43.029205
311 0 1 11.723545 -6.591308 42.812500
312 0 1 11.659546 -6.626277 41.848907
313 0 1 12.116245 -7.400836 41.517303
314 0 1 12.298546 -7.336008 40.610504
315 0 1 12.673244 -6.456836 40.992889
316 0 1 13.297047 -7.090377 41.292908
317 0 1 13.864246 -7.748737 40.831390
318 0 1 14.419846 -8.573057 40.935486
319 0 1 13.731747 -9.299747 40.770599
320 0 1 13.021046 -9.759588 40.480499
321 0 1 12.429546 -9.606558 41.211792
322 0 1 11.531845 -9.334698 41.415192
323 0 1 11.569347 -9.123068 40.506195
324 0 1 11.201649 -9.897198 40.095795
325 0 1 10.670147 -10.133648 39.308502
326 0 1 11.264847 -10.874147 39.015198
327 0 1 10.489048 -10.788427 38.459717
328 0 1 9.805447 -10.230127 38.705292
329 0 1 9.801147 -9.904797 37.798798
330 0 1 10.366547 -10.462778 37.223694
331 0 1 11.252544 -10.790478 37.236206
332 0 1 12.179646 -10.572388 36.973206
333 0 1 12.620548 -9.773869 37.134796
334 0 1 13.075848 -9.248278 36.492188
335 0 1 12.893448 -9.959578 35.795593
336 0 1 12.364445 -10.779577 35.669891
337 0 1 11.851547 -11.557468 35.886688
338 0 1 11.776146 -12.489428 35.931305
339 0 1 11.387745 -12.229267 36.723389
340 0 1 11.091846 -13.154789 36.601593
341 0 1 10.468746 -13.784967 36.313110
342 0 1 10.397846 -14.313368 35.454498
343 0 1 9.631348 -13.623568 35.528900
344 0 1 9.647549 -13.942467 34.553711
345 0 1 9.360046 -13.955368 33.628387
346 0 1 8.510338 -13.786867 33.906616
347 0 1 7.697686 -14.145067 34.235413
348 0 1 7.182717 -13.406998 34.568909
349 0 1 7.066136 -12.617517 35.044312
350 0 1 6.602868 -13.159416 35.611603
351 0 1 5.714028 -13.260567 35.827209
352 0 1 5.226326 -12.437887 35.987396
353 0 1 4.426037 -11.910679 36.145386
354 0 1 4.024159 -12.664848 35.775696
355 0 1 4.139355 -13.375038 35.041290
356 0 1 4.419838 -13.760668 35.855499
357 0 1 4.900956 -14.411167 36.347687
358 0 1 4.009118 -14.680569 36.547211
359 0 1 3.922375 -15.338568 35.700012
360 0 1 4.574658 -14.861568 35.196991
361 0 1 4.395737 -15.391468 34.469116
362 0 1 3.959515 -16.060669 33.907806
363 0 1 3.625966 -15.290169 33.477783
364 0 1 3.260487 -15.475166 32.655487
365 0 1 4.243115 -15.224468 32.690613
366 0 1 4.784588 -14.730766 33.350586
367 0 1 4.523129 -14.225567 32.598511
368 0 1 4.025158 -13.436268 32.893707
369 0 1 3.356377 -12.819088 33.346313
370 0 1 3.191498 -12.048717 32.756714
371 0 1 3.895428 -11.799198 32.248810
372 0 1 3.725117 -11.503098 31.335907
373 0 1 3.797677 -11.366697 30.322998
374 0 1 4.529446 -12.032017 30.181793
375 0 1 4.140378 -12.135979 29.299103
376 0 1 3.916699 -13.118868 29.041412
377 0 1 3.425908 -13.884666 28.908691
378 0 1 2.644757 -14.457268 28.587189
379 0 1 2.676346 -14.537868 27.667114
380 0 1 2.083146 -14.045967 27.093201
381 0 1 1.539196 -14.598167 27.746490
382 0 1 1.479676 -14.073269 28.521606
383 0 1 0.527298 -14.132969 28.692413
384 0 1 -0.051134 -14.866268 29.041016
385 0 1 -1.005054 -14.769867 29.248810
386 0 1 -0.883686 -14.005867 29.805511
387 0 1 -0.812555 -13.031277 29.738007
388 0 1 -1.735721 -13.027088 30.099396
389 0 1 -1.337690 -12.108788 29.988800
390 0 1 -1.765335 -11.336369 29.532196
391 0 1 -1.432584 -11.058167 28.634796
392 0 1 -1.756324 -10.262268 29.197510
393 0 1 -2.494764 -9.737368 29.485687
394 0 1 -2.831373 -9.463547 30.330688
395 0 1 -2.435682 -10.364588 30.414490
396 0 1 -1.992126 -10.078308 31.214203
397 0 1 -2.284994 -11.010538 31.489594
398 0 1 -2.564853 -11.878498 31.533508
399 0 1 -3.365352 -12.403948 31.494690
400 0 1 -3.538852 -12.781147 30.572815
401 0 1 -3.195943 -13.045868 29.703796
402 0 1 -3.297184 -14.086267 29.877808
403 0 1 -2.661764 -14.723969 30.028809
404 0 1 -1.876005 -15.191668 30.469696
405 0 1 -2.132465 -16.015368 30.941101
406 0 1 -2.612234 -16.772167 31.291595
407 0 1 -3.525213 -16.994167 31.032715
408 0 1 -3.370622 -17.390768 30.145386
409 0 1 -3.724422 -18.153967 30.665894
410 0 1 -3.526002 -17.997667 31.571808
411 0 1 -3.559232 -17.872467 32.523712
412 0 1 -3.529792 -17.995468 33.461090
413 0 1 -4.408662 -17.589567 33.380310
414 0 1 -4.822793 -17.659367 34.255402
415 0 1 -4.201324 -17.805069 34.982208
416 0 1 -4.805664 -18.258867 35.607788
417 0 1 -4.492942 -18.450466 36.497803
418 0 1 -4.037344 -19.086468 37.089508
419 0 1 -3.882774 -20.048468 37.334595
420 0 1 -4.422224 -19.761467 38.135712
421 0 1 -5.385303 -19.469168 37.922394
422 0 1 -5.935773 -18.804167 37.589996
423 0 1 -6.237224 -18.015469 37.148895
424 0 1 -5.888732 -17.732868 37.989288
425 0 1 -5.557632 -17.212868 38.778992
426 0 1 -6.379524 -17.391768 39.174316
427 0 1 -6.136524 -16.867168 39.955902
428 0 1 -5.181022 -16.939968 39.769592
429 0 1 -4.195043 -17.119667 39.640808
430 0 1 -4.492143 -17.720568 40.352417
431 0 1 -3.562004 -17.602669 40.364288
432 0 1 -2.996192 -16.963768 40.869690
433 0 1 -3.624094 -16.360569 41.329590
434 0 1 -4.396743 -15.931767 41.793884
435 0 1 -4.131103 -15.585869 42.615295
436 0 1 -4.591943 -14.806868 42.939606
437 0 1 -4.277383 -14.621468 43.857697
438 0 1 -3.484193 -15.110168 43.685089
439 0 1 -3.916093 -15.398666 44.521088
440 0 1 -3.615512 -15.405968 45.399506
441 0 1 -4.334434 -16.156668 45.343201
442 0 1 -5.270273 -16.157667 45.138000
443 0 1 -5.674383 -16.567167 45.976105
444 0 1 -6.526033 -16.579868 45.570587
445 0 1 -7.192832 -16.397968 46.293610
446 0 1 -6.737133 -16.648767 47.128693
447 0 1 -7.614654 -16.861767 47.586609
448 0 1 -8.179773 -16.533068 46.929901
449 0 1 -8.363304 -15.582668 46.756897
450 0 1 -7.462932 -15.176666 46.592407
451 0 1 -7.984773 -14.650066 47.225403
452 0 1 -8.464483 -14.060867 46.623993
453 0 1 -8.959423 -14.122269 47.499908
454 0 1 -9.413235 -13.807266 48.329895
455 0 1 -10.339224 -13.847967 48.546906
456 0 1 -10.393345 -13.264809 49.342987
457 0 1 -10.754904 -12.637379 49.990692
458 0 1 -11.496853 -12.980078 50.476105
459 0 1 -11.710154 -13.892467 50.575012
460 0 1 -12.250854 -13.781368 51.365387
461 0 1 -12.002653 -14.534967 51.864014
462 0 1 -11.075043 -14.473068 51.653412
463 0 1 -10.238983 -14.085667 51.886505
464 0 1 -9.586924 -14.566368 52.437683
465 0 1 -9.287544 -14.811367 51.478912
466 0 1 -9.093643 -14.893568 50.491791
467 0 1 -8.168243 -15.005268 50.563690
468 0 1 -7.527303 -14.305767 50.429993
469 0 1 -7.829233 -14.437468 49.515900
470 0 1 -7.736593 -13.514359 49.359802
471 0 1 -6.971733 -13.496088 49.898590
472 0 1 -6.540012 -14.153969 50.425690
473 0 1 -6.432052 -14.593868 49.577301
474 0 1 -5.640422 -15.145168 49.537811
475 0 1 -5.557783 -16.088167 49.737915
476 0 1 -5.377492 -16.159668 50.669189
477 0 1 -6.056253 -16.596067 51.253784
478 0 1 -5.430093 -16.770468 51.966095
479 0 1 -4.485013 -16.825867 51.882294
480 0 1 -4.998462 -17.483067 52.419891
481 0 1 -5.602952 -18.159767 52.753296
482 0 1 -5.547773 -19.032066 53.184387
483 0 1 -5.743293 -18.535967 54.084198
484 0 1 -5.366952 -17.783268 54.591003
485 0 1 -4.815134 -16.967167 54.819397
486 0 1 -3.835073 -16.884869 54.936310
487 0 1 -3.532503 -16.426968 54.127014
488 0 1 -3.673833 -15.790367 53.484406
489 0 1 -4.031932 -15.105867 54.114197
490 0 1 -4.841632 -14.675968 54.400604
491 0 1 -4.585763 -15.382767 55.034210
492 0 1 -4.493463 -16.046066 55.736694
493 0 1 -3.684633 -15.809467 56.312408
494 0 1 -3.219923 -15.065166 56.698212
495 0 1 -2.990463 -15.169968 55.755402
496 0 1 -2.374572 -15.883568 55.502106
497 0 1 -1.831012 -16.599567 55.407013
498 0 1 -1.633056 -17.490168 55.050110
499 0 1 -1.326053 -18.126867 54.333801
500 0 1 -1.685195 -18.945566 54.628693
501 0 1 -1.950153 -19.430967 55.389893
502 0 1 -1.454387 -19.664167 56.272797
503 0 1 -1.488018 -20.144968 57.079285
504 0 1 -0.741962 -19.848969 57.550690
505 0 1 -0.906950 -18.966568 57.882507
506 0 1 -1.810497 -18.731167 57.954193
507 0 1 -1.751930 -18.407667 57.082306
508 0 1 -1.640911 -17.722868 57.713684
509 0 1 -2.164453 -17.416067 58.481110
510 0 1 -2.599304 -18.216568 58.753204
511 0 1 -2.612873 -17.965467 59.720001
512 0 1 -2.166231 -17.853067 60.507996
513 0 1 -1.855007 -18.696068 60.713196
514 0 1 -1.437917 -18.829668 61.530487
515 0 1 -2.323514 -19.295767 61.563904
516 0 1 -2.759094 -19.001266 62.338409
517 0 1 -2.167436 -18.711166 63.065613
518 0 1 -1.370151 -18.153868 62.813995
519 0 1 -1.516656 -17.534569 62.064697
520 0 1 -0.666212 -17.108067 61.970398
521 0 1 0.060338 -17.051369 61.282501
522 0 1 0.127026 -16.135567 60.987396
523 0 1 1.073166 -16.056068 61.069885
524 0 1 1.960846 -16.099367 60.652802
525 0 1 2.191437 -16.646168 59.826599
526 0 1 3.102208 -16.578367 59.422607
527 0 1 3.591668 -17.086767 58.781891
528 0 1 3.419026 -16.880169 57.872101
529 0 1 3.527577 -17.672968 57.342285
530 0 1 4.064167 -18.218067 56.719299
531 0 1 3.745678 -18.890768 57.320496
532 0 1 3.975155 -19.525467 58.037109
533 0 1 5.018437 -19.668568 57.884796
534 0 1 4.908257 -20.406067 57.292908
535 0 1 5.222966 -21.308367 57.414398
536 0 1 5.958428 -22.012667 57.557404
537 0 1 6.600628 -22.303368 56.890808
538 0 1 7.049328 -23.043867 57.255096
539 0 1 7.921868 -22.708168 57.369598
540 0 1 8.670849 -22.841667 56.781708
541 0 1 9.356747 -23.149467 56.132599
542 0 1 9.373245 -24.036768 55.892090
543 0 1 10.174847 -23.689768 55.480804
544 0 1 10.204346 -22.681868 55.500610
545 0 1 10.180744 -22.034468 54.778992
546 0 1 9.318447 -21.605768 54.676605
547 0 1 8.363415 -21.770567 54.802185
548 0 1 8.187096 -20.843767 54.618011
549 0 1 8.514187 -20.438068 53.798889
550 0 1 7.775887 -21.022568 53.727692
551 0 1 8.396694 -21.340767 53.068909
552 0 1 8.765545 -22.180668 52.693604
553 0 1 9.325047 -22.440468 51.965698
554 0 1 10.090244 -22.569368 52.493500
555 0 1 10.604748 -21.859468 52.869690
556 0 1 11.033749 -21.517868 52.054413
557 0 1 10.732147 -20.799267 52.690704
558 0 1 10.839848 -19.973068 53.095093
559 0 1 11.117046 -19.879667 52.160583
560 0 1 10.556946 -19.212168 51.718903
561 0 1 9.602345 -19.059366 51.579285
562 0 1 9.986946 -18.803267 50.741913
563 0 1 10.182148 -17.827568 50.663910
564 0 1 10.336445 -17.628967 49.809601
565 0 1 11.202347 -17.537369 49.501801
566 0 1 11.578445 -17.573769 50.339417
567 0 1 12.464848 -17.440666 50.678589
568 0 1 13.432446 -17.139467 50.603607
569 0 1 12.887745 -16.391666 50.520996
570 0 1 12.690449 -16.495068 49.577606
571 0 1 13.328846 -16.087667 48.969116
572 0 1 13.972046 -16.697666 48.548401
573 0 1 14.529446 -16.491367 47.794800
574 0 1 13.993244 -16.785368 47.081512
575 0 1 14.197746 -16.552269 46.220612
576 0 1 14.642246 -15.688068 46.251801
577 0 1 14.168446 -14.868868 46.414917
578 0 1 14.227745 -15.316467 45.443390
579 0 1 13.636047 -14.991867 44.762604
580 0 1 13.348644 -15.803167 44.278992
581 0 1 13.610146 -16.723969 44.272888
582 0 1 14.019848 -16.898369 43.440613
583 0 1 14.642948 -17.579468 43.806091
584 0 1 14.535748 -18.432467 44.313690
585 0 1 14.327145 -17.858667 45.062988
586 0 1 13.487946 -18.138866 45.417999
587 0 1 13.268047 -18.677067 46.219116
588 0 1 12.570946 -19.223267 46.544098
589 0 1 12.646748 -18.301367 46.807709
590 0 1 11.904545 -17.903969 47.296509
591 0 1 11.391846 -17.175768 47.730591
592 0 1 11.603146 -16.281769 47.587311
593 0 1 12.528149 -16.130068 47.860413
594 0 1 12.946148 -15.290068 48.012909
595 0 1 13.401447 -14.794968 48.674011
596 0 1 12.867847 -14.020367 48.454010
597 0 1 12.392246 -13.253878 48.699799
598 0 1 12.300945 -13.242767 49.753693
599 0 1 12.858349 -12.440968 49.453613
600 0 1 12.528946 -11.495747 49.391785
601 0 1 12.693447 -10.888866 48.693909
602 0 1 11.990345 -10.838638 48.035492
603 0 1 12.510345 -10.986597 47.264008
604 0 1 12.974049 -10.890047 46.453491
605 0 1 13.503647 -11.418018 45.723206
606 0 1 14.196846 -11.570578 45.014404
607 0 1 15.015347 -11.840307 44.587585
608 0 1 15.727749 -11.896828 45.290588
609 0 1 15.785244 -12.020758 46.224915
610 0 1 16.714046 -11.846077 46.456390
611 0 1 17.627247 -12.133787 46.321594
612 0 1 17.920948 -12.505247 45.510803
613 0 1 17.745747 -12.921568 44.654785
614 0 1 18.214146 -12.157938 44.340088
615 0 1 19.081348 -12.075706 43.976685
616 0 1 19.188747 -11.052788 44.064789
617 0 1 20.056545 -11.387857 43.691284
618 0 1 20.634346 -12.055359 43.393402
619 0 1 20.585644 -12.142138 44.346802
620 0 1 21.010448 -12.383766 45.173309
621 0 1 20.258945 -12.419098 45.734192
622 0 1 20.328846 -11.837128 46.484802
623 0 1 19.650646 -12.118477 47.138702
624 0 1 19.427448 -11.333317 46.656799
625 0 1 18.579044 -11.270128 46.235901
626 0 1 18.655445 -10.615877 45.497498
627 0 1 18.621147 -9.637009 45.575012
628 0 1 18.776947 -8.641708 45.549103
629 0 1 17.944248 -8.072906 45.487793
630 0 1 18.642147 -7.941186 44.854492
631 0 1 19.145344 -7.102987 44.847504
632 0 1 19.819447 -6.520397 44.473602
633 0 1 20.226444 -7.241888 45.010498
634 0 1 20.124546 -7.815498 44.239105
635 0 1 20.972546 -7.661027 43.777100
636 0 1 20.797848 -6.793067 43.335205
637 0 1 20.049145 -6.864658 42.771912
638 0 1 20.024944 -6.653778 41.849487
639 0 1 20.602245 -6.913288 41.216400
640 0 1 21.101948 -6.827707 40.399506
641 0 1 21.655048 -7.458356 39.877594
642 0 1 20.733944 -7.549257 39.465912
643 0 1 20.351948 -8.242577 39.942505
644 0 1 20.394447 -9.181467 39.732605
645 0 1 20.144146 -9.944597 40.232117
646 0 1 19.172047 -9.839918 40.308594
647 0 1 19.273548 -10.557047 39.732697
648 0 1 19.712646 -11.378899 39.970490
649 0 1 20.195049 -12.186237 39.676392
650 0 1 19.809246 -12.257467 38.784698
651 0 1 19.786945 -11.807587 37.911987
652 0 1 19.730145 -11.044579 38.519806
653 0 1 20.425045 -10.691458 37.887085
654 0 1 20.855244 -11.577377 37.802307
655 0 1 21.040745 -11.678017 36.872192
656 0 1 21.288944 -11.163958 36.094604
657 0 1 20.821346 -10.406857 36.320007
658 0 1 21.749546 -10.206327 36.709503
659 0 1 21.448647 -9.294817 36.577911
660 0 1 22.176945 -9.164398 36.003906
661 0 1 22.963749 -8.935429 35.488708
662 0 1 23.689045 -9.277378 34.970001
663 0 1 23.973846 -10.163088 35.210205
664 0 1 24.110249 -10.333878 36.170898
665 0 1 24.159649 -9.528637 36.653290
666 0 1 23.268848 -9.217058 36.697388
667 0 1 23.798748 -8.464619 36.495209
668 0 1 22.992344 -8.155937 36.925507
669 0 1 22.825245 -7.194948 37.063995
670 0 1 23.551945 -7.091117 37.695312
671 0 1 22.786549 -6.577568 37.828003
672 0 1 22.033546 -5.934328 37.708496
673 0 1 21.526047 -5.251318 37.408813
674 0 1 21.193844 -5.937726 36.673401
675 0 1 20.628048 -5.982177 35.912811
676 0 1 20.575546 -5.375867 35.160583
677 0 1 20.795948 -6.313938 34.975403
678 0 1 20.041348 -6.100976 34.495911
679 0 1 20.207947 -7.017038 34.077698
680 0 1 20.214649 -7.690927 33.431000
681 0 1 20.525246 -6.810256 33.135406
682 0 1 21.278248 -6.264997 33.240387
683 0 1 22.043644 -5.790336 33.611298
684 0 1 22.052547 -4.893257 34.026306
685 0 1 21.407246 -4.403930 33.567505
686 0 1 20.815845 -4.602718 32.873810
687 0 1 20.180046 -4.038698 33.367004
688 0 1 20.160847 -3.853172 32.404205
689 0 1 20.252445 -2.887012 32.549103
690 0 1 20.176449 -3.021782 31.593903
691 0 1 19.289246 -3.014812 31.214294
692 0 1 18.892147 -2.960228 30.300812
693 0 1 18.643246 -3.978292 30.579895
694 0 1 17.916946 -4.420913 30.194489
695 0 1 17.926846 -4.951766 31.076416
696 0 1 17.726345 -5.817188 30.589508
697 0 1 18.479946 -6.054298 30.031403
698 0 1 18.544346 -6.678676 29.354401
699 0 1 18.830044 -6.083698 28.704193
700 0 1 17.999249 -6.464807 28.514008
701 0 1 17.208546 -6.948476 28.270691
702 0 1 16.218346 -6.846517 28.368103
703 0 1 15.700848 -6.327417 27.695801
704 0 1 16.045147 -5.450126 27.943115
705 0 1 16.865345 -5.205846 27.561096
706 0 1 16.611446 -4.649007 26.796112
707 0 1 15.773045 -4.783927 26.336700
708 0 1 15.583149 -4.198690 25.578308
709 0 1 15.231247 -5.016857 25.184296
710 0 1 15.797546 -5.542787 25.676300
711 0 1 16.733246 -5.260738 25.673889
712 0 1 17.159447 -5.677846 24.860504
713 0 1 17.213646 -4.741546 24.724091
714 0 1 18.118446 -4.874517 24.394501
715 0 1 18.751049 -5.608266 24.501587
716 0 1 18.535446 -5.441667 25.445496
717 0 1 18.913349 -6.075986 26.052490
718 0 1 19.513744 -6.518466 26.668701
719 0 1 20.482944 -6.517658 26.559601
720 0 1 21.029949 -6.964206 25.956390
721 0 1 21.517246 -6.501657 25.213898
722 0 1 21.876949 -7.352197 24.850708
723 0 1 21.065845 -7.036056 24.367889
724 0 1 20.891445 -7.854427 23.965302
725 0 1 20.927647 -8.296047 24.856201
726 0 1 19.956146 -8.007908 24.812103
727 0 1 19.232845 -8.462559 24.489685
728 0 1 18.416447 -8.701658 23.911407
729 0 1 18.459446 -9.620638 23.614807
730 0 1 19.181149 -9.117958 23.296600
731 0 1 18.793644 -8.767529 22.393402
732 0 1 18.991146 -8.665018 21.473694
733 0 1 18.036747 -8.857347 21.218796
734 0 1 17.670849 -8.596748 22.063507
735 0 1 16.754948 -8.675549 21.561798
736 0 1 16.110645 -8.362717 20.917404
737 0 1 16.331646 -8.130268 19.950897
738 0 1 15.454945 -7.776996 19.743301
739 0 1 15.938648 -7.250408 20.389404
740 0 1 14.989346 -7.216386 20.576706
741 0 1 14.281548 -7.142368 19.874405
742 0 1 13.447048 -6.758398 19.472794
743 0 1 12.909447 -6.737957 20.310898
744 0 1 11.868649 -6.766138 20.160294
745 0 1 11.047047 -7.240608 19.879807
746 0 1 10.308647 -7.661598 20.219803
747 0 1 10.326046 -8.504677 19.744598
748 0 1 9.882446 -7.839677 19.186005
749 0 1 10.028645 -7.085338 18.619904
750 0 1 9.431747 -7.551157 18.018600
751 0 1 9.805847 -8.221268 17.457794
752 0 1 10.698048 -8.416477 17.103394
753 0 1 10.807945 -7.775348 17.784195
754 0 1 11.421947 -7.678077 17.040405
755 0 1 11.545444 -7.237167 16.211899
756 0 1 11.048946 -8.106848 16.117203
757 0 1 10.782246 -7.843427 15.241806
758 0 1 10.567646 -6.979208 15.664001
759 0 1 9.782345 -6.970508 15.099106
760 0 1 9.607548 -6.447948 14.378403
761 0 1 8.941746 -5.752866 14.087708
762 0 1 9.729046 -5.192518 14.208008
763 0 1 9.770447 -4.553083 13.536102
764 0 1 10.476746 -3.799846 13.313004
765 0 1 10.659546 -4.139938 12.449707
766 0 1 10.924248 -4.900506 11.963196
767 0 1 10.468044 -5.010967 11.067398
768 0 1 10.805546 -5.161216 10.105896
769 0 1 11.078445 -4.660007 9.322968
770 0 1 10.294346 -5.153127 9.067261
771 0 1 9.442047 -4.843917 9.249756
772 0 1 9.365646 -5.786468 9.369766
773 0 1 9.643848 -5.612577 10.258896
774 0 1 8.852745 -5.488058 10.818298
775 0 1 8.077896 -5.888277 10.328705
776 0 1 7.459786 -6.309507 9.616425
777 0 1 7.028786 -5.923458 8.865524
778 0 1 6.402077 -5.312517 9.249359
779 0 1 5.728898 -5.238126 10.019302