LAMMPS data file via MDAnalysis

        2000  atoms
        1999  bonds
           0  angles
           0  dihedrals
           0  impropers

           1  atom types
           1  bond types
           0  angle types
           0  dihedral types
           0  improper types

-30.5 30.5 xlo xhi
-30.5 30.5 ylo yhi
-233.5 233.5 zlo zhi


Masses

1 1.000000

Atoms

1 0 1 -3.415004 -2.976253 16.430405
2 0 1 -3.823504 -3.846184 16.443405
3 0 1 -4.643343 -3.517984 16.919098
4 0 1 -4.616354 -4.198072 17.603195
5 0 1 -4.360613 -3.970484 18.476303
6 0 1 -4.249533 -3.464733 19.337296
7 0 1 -4.961504 -2.972093 19.777802
8 0 1 -5.124163 -3.310764 20.647491
9 0 1 -5.392945 -3.737383 21.440201
10 0 1 -5.457705 -2.907503 21.877701
11 0 1 -5.479704 -2.068802 21.315399
12 0 1 -5.540574 -1.298458 20.725098
13 0 1 -5.587084 -0.557937 21.324295
14 0 1 -6.337655 -0.395191 20.749695
15 0 1 -6.632103 -0.597606 19.911301
16 0 1 -6.909104 -0.777315 19.066101
17 0 1 -6.352154 0.003847 18.788406
18 0 1 -6.789044 0.780756 19.226898
19 0 1 -7.238875 1.633059 19.246002
20 0 1 -7.921814 1.598875 18.527008
21 0 1 -8.800334 1.640505 18.842896
22 0 1 -8.740335 0.844805 18.289001
23 0 1 -8.664184 0.304037 19.073700
24 0 1 -9.020345 -0.606767 19.001694
25 0 1 -8.253203 -0.710455 18.459503
26 0 1 -7.644095 -1.403961 18.149994
27 0 1 -7.560154 -1.001459 17.296204
28 0 1 -7.812254 -0.983640 16.353500
29 0 1 -7.909483 -0.065923 15.964204
30 0 1 -8.893603 0.099667 15.754395
31 0 1 -9.623096 0.342108 16.268204
32 0 1 -10.411494 0.109896 15.800401
33 0 1 -10.468095 -0.106924 14.793595
34 0 1 -11.272296 -0.636169 14.855805
35 0 1 -11.944795 -0.761228 15.511506
36 0 1 -11.895896 -1.424968 14.791795
37 0 1 -12.107995 -2.337423 14.846101
38 0 1 -12.538295 -3.163664 14.656709
39 0 1 -13.460296 -3.521932 14.744508
40 0 1 -13.523295 -3.351213 15.697404
41 0 1 -14.257295 -3.986133 15.590898
42 0 1 -13.868495 -4.040733 16.533508
43 0 1 -13.125794 -3.809522 17.219208
44 0 1 -13.147695 -4.807724 17.254807
45 0 1 -12.306794 -4.883474 16.843597
46 0 1 -11.537494 -5.457792 16.874603
47 0 1 -11.073394 -5.443033 17.690399
48 0 1 -10.812594 -4.556562 17.544296
49 0 1 -10.673694 -4.106384 18.510193
50 0 1 -10.182796 -4.921983 18.766205
51 0 1 -9.575194 -5.549293 19.024597
52 0 1 -8.539945 -5.320573 19.071503
53 0 1 -8.302754 -5.335844 18.124908
54 0 1 -7.636935 -4.732414 18.403107
55 0 1 -7.382853 -5.622034 18.567993
56 0 1 -7.123213 -6.507143 18.150299
57 0 1 -7.078034 -7.146524 17.341492
58 0 1 -6.103064 -7.254953 17.526596
59 0 1 -5.358984 -6.675912 17.700806
60 0 1 -5.469454 -6.781442 16.736908
61 0 1 -5.138693 -5.898733 16.938995
62 0 1 -4.389794 -5.906763 16.330597
63 0 1 -3.746514 -5.219863 16.491501
64 0 1 -3.900634 -4.860572 15.530000
65 0 1 -3.305905 -4.129934 15.355805
66 0 1 -4.072245 -3.615633 15.076402
67 0 1 -3.938273 -4.004194 14.193101
68 0 1 -3.794554 -3.501882 13.389298
69 0 1 -3.590194 -2.763044 14.043504
70 0 1 -3.386664 -2.103988 14.729707
71 0 1 -2.571624 -1.907606 15.249101
72 0 1 -2.495755 -1.474455 16.074997
73 0 1 -3.464015 -1.364545 15.920594
74 0 1 -3.092505 -0.519476 15.650102
75 0 1 -2.271424 -0.099933 16.123901
76 0 1 -1.892405 0.197447 16.986404
77 0 1 -1.146044 -0.313713 17.068207
78 0 1 -0.360255 0.149006 16.666107
79 0 1 0.466390 0.417097 17.028305
80 0 1 0.396150 0.973116 17.792999
81 0 1 0.435245 0.324736 18.523605
82 0 1 -0.011780 -0.558864 18.459991
83 0 1 0.216329 -1.188636 17.791504
84 0 1 1.174943 -1.464304 17.737106
85 0 1 1.937255 -1.230781 17.289505
86 0 1 1.817626 -0.591760 16.561798
87 0 1 2.231134 0.193686 16.347305
88 0 1 2.249257 -0.137893 15.459306
89 0 1 2.569665 -0.984853 15.812196
90 0 1 3.004487 -1.753286 15.437394
91 0 1 3.157075 -1.844122 14.542695
92 0 1 2.584756 -1.894556 13.712602
93 0 1 1.709085 -1.585203 13.971498
94 0 1 1.489206 -0.694982 14.175004
95 0 1 1.862707 -0.263403 13.386704
96 0 1 2.259706 0.527636 13.727204
97 0 1 3.067888 1.082945 13.791505
98 0 1 3.122655 2.028437 13.639100
99 0 1 3.893975 2.609778 13.627107
100 0 1 4.214456 3.074576 12.851594
101 0 1 3.410325 3.506216 13.206300
102 0 1 3.252504 3.793917 12.266999
103 0 1 2.308366 3.601965 12.333695
104 0 1 1.690606 3.033228 11.877000
105 0 1 1.252817 3.880518 11.532105
106 0 1 0.915798 4.105689 12.372193
107 0 1 0.536077 4.246829 13.251206
108 0 1 -0.306000 4.096076 13.722993
109 0 1 -0.441210 4.663386 14.453599
110 0 1 -0.891804 4.010928 15.031602
111 0 1 -0.676045 4.809298 15.499497
112 0 1 -0.703274 5.348906 16.327499
113 0 1 -0.389727 4.754397 17.019806
114 0 1 0.138316 5.525038 16.959305
115 0 1 0.511957 5.717547 16.073395
116 0 1 0.593318 6.640788 16.151306
117 0 1 -0.322203 6.892787 15.940705
118 0 1 -0.716303 7.303977 16.764206
119 0 1 -0.962044 6.340857 16.945099
120 0 1 -1.217215 6.627726 17.867905
121 0 1 -0.513295 6.208758 18.390900
122 0 1 0.156392 5.608889 18.033905
123 0 1 0.586057 6.425478 18.338898
124 0 1 1.310518 7.020468 18.650604
125 0 1 1.608957 6.125147 18.794800
126 0 1 2.427118 5.991099 18.184601
127 0 1 2.551347 5.332167 18.851700
128 0 1 2.669236 4.370806 19.097198
129 0 1 2.040696 4.444567 19.813400
130 0 1 2.113614 4.401106 20.812302
131 0 1 1.178314 4.305918 20.530792
132 0 1 0.237474 4.376837 20.467499
133 0 1 -0.529235 4.787905 20.843704
134 0 1 -1.268445 5.299807 21.109695
135 0 1 -1.721394 4.599375 21.596405
136 0 1 -2.094525 4.232897 22.416306
137 0 1 -1.540444 3.483427 22.621490
138 0 1 -0.663445 3.783495 22.366898
139 0 1 -0.004765 4.174078 22.954010
140 0 1 0.120408 3.207457 23.188812
141 0 1 1.016857 3.288447 23.380707
142 0 1 1.642066 2.568247 23.335297
143 0 1 2.367006 2.970568 22.901611
144 0 1 2.961847 2.185786 22.931702
145 0 1 2.581617 1.747317 23.692993
146 0 1 1.715686 1.647559 24.111389
147 0 1 0.781822 1.485365 24.140411
148 0 1 1.121538 0.965117 24.958588
149 0 1 0.380195 1.416918 25.401184
150 0 1 0.837377 1.280238 26.252686
151 0 1 0.026464 1.446719 26.782013
152 0 1 0.750690 1.132185 27.351410
153 0 1 1.515716 0.616175 27.298096
154 0 1 0.705158 0.014798 27.158112
155 0 1 -0.213380 0.244017 26.887207
156 0 1 -0.543765 -0.279474 26.089813
157 0 1 0.360668 -0.423422 26.373291
158 0 1 0.438588 -1.348037 26.557404
159 0 1 0.624479 -1.613191 27.496002
160 0 1 0.864246 -2.561662 27.516602
161 0 1 1.695365 -3.031513 27.505890
162 0 1 1.472410 -3.828333 27.151611
163 0 1 2.371797 -3.792974 26.846893
164 0 1 2.432985 -4.214483 25.981903
165 0 1 2.162114 -4.470024 25.103210
166 0 1 1.761186 -3.859123 24.515594
167 0 1 1.580495 -4.296724 23.629791
168 0 1 2.332315 -4.899454 23.513794
169 0 1 2.534436 -5.481073 22.840790
170 0 1 2.288266 -5.926273 23.679108
171 0 1 2.457067 -5.500703 24.553711
172 0 1 1.547876 -5.480752 24.991394
173 0 1 1.148273 -6.119302 25.595215
174 0 1 0.249996 -6.190612 25.372894
175 0 1 0.333652 -6.767953 26.062805
176 0 1 0.492984 -5.956453 26.553711
177 0 1 1.159814 -5.458902 27.075897
178 0 1 1.678245 -5.738382 27.830811
179 0 1 1.581945 -4.793413 27.862000
180 0 1 1.374822 -4.166294 28.605011
181 0 1 2.013305 -4.528593 29.253693
182 0 1 1.976316 -5.428234 29.554688
183 0 1 1.258340 -5.683824 29.012604
184 0 1 0.474519 -5.414993 28.532013
185 0 1 -0.171139 -5.248853 29.318695
186 0 1 0.295116 -4.431684 29.183899
187 0 1 0.979665 -4.515533 29.873413
188 0 1 1.247146 -3.624174 29.999207
189 0 1 0.534223 -3.591083 30.664185
190 0 1 1.251781 -3.177522 31.262207
191 0 1 0.743621 -2.898683 32.092590
192 0 1 0.247674 -3.733713 32.238190
193 0 1 -0.601174 -3.444732 32.668304
194 0 1 -1.003564 -2.828344 33.310303
195 0 1 -0.215132 -3.073404 33.786011
196 0 1 0.589111 -3.559994 33.507202
197 0 1 0.743257 -4.410842 33.084991
198 0 1 0.650367 -4.872913 33.868896
199 0 1 0.074476 -4.559034 34.660309
200 0 1 -0.742734 -4.103313 34.474915
201 0 1 -1.504155 -3.519434 34.596405
202 0 1 -0.809514 -2.947162 35.051605
203 0 1 -1.296303 -3.192734 35.840302
204 0 1 -2.248503 -3.427284 36.179291
205 0 1 -1.834284 -4.289842 35.911316
206 0 1 -1.853884 -5.210344 35.579010
207 0 1 -1.055255 -5.167053 35.085693
208 0 1 -0.531294 -5.502584 34.361298
209 0 1 -0.543414 -5.062944 33.513916
210 0 1 -0.920085 -5.945093 33.295410
211 0 1 -1.158354 -6.644403 33.980286
212 0 1 -0.554043 -7.347574 34.337708
213 0 1 -1.276524 -7.891912 33.971405
214 0 1 -2.173634 -7.650962 33.899597
215 0 1 -2.305335 -8.564493 34.125916
216 0 1 -3.071334 -9.284674 34.251495
217 0 1 -3.647074 -9.109894 33.475098
218 0 1 -3.992114 -9.343004 32.609894
219 0 1 -3.524144 -9.773993 31.953888
220 0 1 -3.212313 -9.778294 31.040314
221 0 1 -4.135363 -10.006804 30.890015
222 0 1 -4.906474 -10.451754 30.513092
223 0 1 -5.549304 -10.590734 31.237915
224 0 1 -5.312584 -11.484364 30.936188
225 0 1 -5.338374 -12.303663 31.401306
226 0 1 -4.792744 -12.806864 31.999512
227 0 1 -3.836835 -12.902563 32.098511
228 0 1 -3.540694 -12.066065 31.666901
229 0 1 -2.755574 -11.493765 31.661407
230 0 1 -1.841054 -11.417664 31.172791
231 0 1 -2.079964 -10.725603 31.775208
232 0 1 -2.246314 -9.737974 31.943298
233 0 1 -1.579074 -9.001614 32.048798
234 0 1 -1.527335 -9.213234 32.939209
235 0 1 -0.668414 -9.297943 32.415710
236 0 1 -0.605303 -9.309324 33.407715
237 0 1 -0.264081 -8.607214 33.969116
238 0 1 -0.208874 -8.001432 33.169189
239 0 1 0.493116 -8.594673 32.796692
240 0 1 1.376565 -9.045464 32.773010
241 0 1 2.096116 -9.616724 32.925110
242 0 1 1.989295 -9.723753 33.890198
243 0 1 2.097184 -8.958584 34.411407
244 0 1 2.940175 -8.488184 34.242096
245 0 1 3.250707 -9.345734 33.852295
246 0 1 3.708535 -10.089415 33.531311
247 0 1 4.383554 -9.531904 33.960602
248 0 1 4.746034 -8.642014 34.113892
249 0 1 5.141946 -7.972602 34.673096
250 0 1 4.343156 -7.524362 34.810303
251 0 1 4.304765 -7.445493 35.773407
252 0 1 4.516115 -6.682924 36.317413
253 0 1 4.599046 -6.878273 37.257996
254 0 1 5.506467 -7.028932 37.561493
255 0 1 6.232378 -6.631834 38.061707
256 0 1 6.456316 -6.374053 38.915192
257 0 1 6.780187 -5.474613 38.841400
258 0 1 7.386007 -5.855573 39.473206
259 0 1 7.777696 -5.653183 40.264587
260 0 1 8.620828 -5.192234 40.316193
261 0 1 8.322656 -4.285154 39.983215
262 0 1 7.702096 -4.118383 40.778809
263 0 1 7.743616 -3.202043 40.704712
264 0 1 6.934305 -2.773243 40.503113
265 0 1 6.163427 -3.350693 40.322815
266 0 1 5.836896 -4.242063 40.682709
267 0 1 5.536355 -4.810903 41.403809
268 0 1 6.261636 -4.379472 41.992798
269 0 1 6.485185 -5.338102 41.858215
270 0 1 5.849256 -5.749193 42.460693
271 0 1 6.214895 -5.696672 43.359589
272 0 1 6.181036 -5.704134 44.352417
273 0 1 5.381586 -5.514402 44.849701
274 0 1 4.813135 -6.219953 44.615601
275 0 1 4.052667 -5.985582 45.240204
276 0 1 3.232126 -5.422264 45.184387
277 0 1 4.011266 -4.927152 45.529297
278 0 1 3.480214 -4.961153 46.280701
279 0 1 3.440625 -5.659692 46.947510
280 0 1 2.703206 -5.250112 47.417786
281 0 1 3.457105 -4.616853 47.682892
282 0 1 4.214986 -4.117834 47.358093
283 0 1 4.198045 -3.392402 48.038696
284 0 1 4.889516 -3.078872 48.592987
285 0 1 5.045846 -2.080805 48.708893
286 0 1 4.718576 -1.207264 48.944611
287 0 1 5.019636 -0.778150 49.727692
288 0 1 4.474355 -0.153734 49.167206
289 0 1 5.040494 0.699278 49.277710
290 0 1 4.225065 0.668097 49.787689
291 0 1 4.235918 0.667548 50.766693
292 0 1 3.567037 1.161936 51.234985
293 0 1 2.655996 1.383356 51.317596
294 0 1 2.812024 2.311728 51.638916
295 0 1 2.751447 2.942156 52.336304
296 0 1 3.049527 2.181418 52.902588
297 0 1 3.287336 3.118517 53.162201
298 0 1 4.099237 3.446448 52.795288
299 0 1 4.154466 4.374396 53.246216
300 0 1 4.881734 4.145178 53.895386
301 0 1 5.272195 4.761015 54.598816
302 0 1 5.209726 4.935835 55.589813
303 0 1 5.155557 4.221758 56.217499
304 0 1 5.096445 4.767367 57.071899
305 0 1 5.070196 4.567946 58.055786
306 0 1 4.573797 3.865126 58.574493
307 0 1 4.827066 4.283976 59.425995
308 0 1 5.567876 3.648775 59.376495
309 0 1 5.768655 3.424845 60.367004
310 0 1 5.992166 3.432768 61.292999
311 0 1 6.908716 3.076346 61.173584
312 0 1 6.545045 2.190947 61.135101
313 0 1 7.041498 1.818636 61.845306
314 0 1 7.383565 1.359198 62.671692
315 0 1 6.699327 1.773627 63.234589
316 0 1 5.772787 2.028979 63.313202
317 0 1 5.919775 1.485907 64.107391
318 0 1 5.401197 2.311178 64.296295
319 0 1 4.495126 2.312327 64.205597
320 0 1 3.702657 2.123038 64.541595
321 0 1 4.067754 1.230067 64.451599
322 0 1 3.603887 0.408526 64.369110
323 0 1 3.438516 -0.218153 63.660004
324 0 1 4.184816 -0.783826 63.419495
325 0 1 4.865537 -1.401634 63.325409
326 0 1 4.893648 -2.347263 63.453613
327 0 1 5.055246 -3.244684 63.124512
328 0 1 4.621507 -2.731104 62.454803
329 0 1 5.628915 -2.865722 62.299500
330 0 1 5.212854 -2.543123 61.436707
331 0 1 5.953027 -2.487173 60.825500
332 0 1 5.576036 -2.401273 59.911987
333 0 1 6.458917 -2.236414 59.531311
334 0 1 7.492685 -2.076544 59.574890
335 0 1 8.171605 -1.385004 59.496887
336 0 1 7.915407 -0.412264 59.530884
337 0 1 7.760755 -0.516748 60.505402
338 0 1 7.134187 -0.151853 61.212189
339 0 1 7.297945 -0.896942 61.804993
340 0 1 8.106835 -1.553032 61.989502
341 0 1 8.376954 -1.186065 62.818207
342 0 1 7.854707 -1.458091 63.618805
343 0 1 7.660448 -2.423933 63.774414
344 0 1 7.160104 -2.001686 63.089813
345 0 1 7.230936 -2.938734 63.029388
346 0 1 7.655706 -3.823663 62.985687
347 0 1 8.264367 -3.090763 63.156799
348 0 1 8.250436 -3.415174 64.103790
349 0 1 9.166215 -3.500223 64.472595
350 0 1 10.031877 -3.337074 65.011719
351 0 1 9.844438 -2.700083 65.722412
352 0 1 9.532113 -1.774904 65.796997
353 0 1 8.755265 -1.293701 66.093109
354 0 1 9.206605 -0.731735 66.742188
355 0 1 8.429727 -0.353077 67.179108
356 0 1 7.880304 0.488627 67.111389
357 0 1 7.854356 0.754076 66.192383
358 0 1 6.919225 0.908148 66.180298
359 0 1 6.642255 1.254069 65.307983
360 0 1 7.576944 1.327326 65.342010
361 0 1 8.354917 1.792818 64.955505
362 0 1 8.168965 2.740595 64.795105
363 0 1 8.039624 3.631678 64.517517
364 0 1 7.909647 3.802675 65.400085
365 0 1 8.651567 4.418665 65.319214
366 0 1 9.442475 4.874506 65.522888
367 0 1 10.409795 5.068957 65.337189
368 0 1 10.270127 5.962359 65.654419
369 0 1 10.558805 6.687037 65.084808
370 0 1 11.118203 7.457137 64.920807
371 0 1 11.848706 7.450076 65.616608
372 0 1 12.449807 6.907416 66.116211
373 0 1 11.540906 6.448489 66.319214
374 0 1 11.836305 6.070185 67.143097
375 0 1 12.669106 5.863459 66.686310
376 0 1 12.333505 5.352358 65.909393
377 0 1 12.092103 4.614539 66.498199
378 0 1 12.491105 3.889757 66.085693
379 0 1 12.961503 3.166617 65.739319
380 0 1 12.525804 2.310576 65.743408
381 0 1 12.107507 1.597147 65.200989
382 0 1 12.222104 1.157008 64.311005
383 0 1 13.171304 0.999888 64.242889
384 0 1 13.394204 0.075917 64.509491
385 0 1 14.174706 -0.624487 64.513184
386 0 1 14.344205 -1.551796 64.822693
387 0 1 14.704705 -2.431534 64.448395
388 0 1 15.179704 -2.559852 63.563110
389 0 1 15.580007 -3.207523 63.023712
390 0 1 15.831307 -3.679424 63.904694
391 0 1 16.385107 -4.320163 64.419800
392 0 1 16.014208 -5.137443 64.230286
393 0 1 16.043207 -5.736654 63.490784
394 0 1 15.515805 -6.523553 63.439087
395 0 1 15.085305 -6.712623 62.613312
396 0 1 14.422204 -6.066522 62.398193
397 0 1 13.672708 -6.422754 61.879303
398 0 1 14.042806 -5.664102 61.365784
399 0 1 14.686906 -5.696662 60.684998
400 0 1 14.964707 -6.616123 60.370605
401 0 1 15.893006 -6.810623 60.457092
402 0 1 16.050608 -7.661743 59.990509
403 0 1 16.288305 -7.121454 59.273102
404 0 1 17.193106 -6.771873 59.299011
405 0 1 18.065905 -6.618223 58.830597
406 0 1 18.544706 -5.785093 59.159393
407 0 1 19.424307 -6.103633 58.734985
408 0 1 20.249704 -6.474302 58.307983
409 0 1 19.913805 -7.265583 58.637604
410 0 1 19.011705 -7.539514 58.357697
411 0 1 19.494307 -7.316913 57.534088
412 0 1 19.186304 -7.886644 56.857605
413 0 1 19.495104 -8.846663 56.957611
414 0 1 19.554106 -8.315723 57.750000
415 0 1 18.578707 -8.317484 57.928009
416 0 1 18.151506 -8.447523 56.960999
417 0 1 18.370806 -8.624323 56.081909
418 0 1 17.456907 -8.325943 56.103699
419 0 1 16.907007 -8.871883 55.547302
420 0 1 16.275106 -8.783943 54.845215
421 0 1 16.221209 -7.836633 54.628510
422 0 1 15.992806 -8.033693 53.691589
423 0 1 16.214808 -8.791553 53.027100
424 0 1 16.709009 -8.538673 52.204803
425 0 1 16.869104 -9.468683 52.356812
426 0 1 16.433607 -9.955873 51.689087
427 0 1 16.436506 -10.429705 50.810089
428 0 1 17.194807 -10.963823 50.577515
429 0 1 16.773607 -11.408663 51.343201
430 0 1 17.527906 -11.886564 51.617096
431 0 1 18.048006 -12.556164 52.140991
432 0 1 17.543806 -13.305563 52.622894
433 0 1 17.334307 -12.548662 53.262512
434 0 1 16.689405 -13.046263 53.770294
435 0 1 16.806807 -13.926462 54.264496
436 0 1 16.698107 -14.579165 53.591187
437 0 1 16.630404 -15.086063 52.815186
438 0 1 16.503107 -16.118263 52.827087
439 0 1 16.026407 -16.363764 53.613312
440 0 1 16.052305 -16.601164 54.561707
441 0 1 15.832505 -17.539864 54.232117
442 0 1 16.763006 -17.673264 54.563599
443 0 1 17.293306 -18.474863 54.446991
444 0 1 17.112009 -18.733164 55.380707
445 0 1 17.764605 -19.422964 55.151611
446 0 1 17.624208 -19.352163 56.087311
447 0 1 16.865107 -19.923363 55.912201
448 0 1 16.554106 -20.089464 55.033112
449 0 1 15.686505 -19.676863 55.021606
450 0 1 15.956204 -20.103163 54.164093
451 0 1 16.195604 -20.009163 53.216187
452 0 1 15.964906 -20.910864 53.161407
453 0 1 15.937905 -20.947464 52.115204
454 0 1 15.854203 -20.807863 51.152588
455 0 1 15.819005 -19.812963 51.177094
456 0 1 16.082407 -19.642664 50.243011
457 0 1 16.968706 -19.277763 50.313507
458 0 1 16.383104 -18.570063 50.426514
459 0 1 16.781206 -17.924263 50.997986
460 0 1 16.219107 -17.397463 50.409393
461 0 1 17.014807 -17.289663 50.014496
462 0 1 16.460505 -17.337364 49.197510
463 0 1 15.643403 -17.376663 48.604309
464 0 1 14.719605 -17.506563 48.468903
465 0 1 14.610307 -16.799864 47.947815
466 0 1 15.388906 -16.128662 48.073303
467 0 1 14.872605 -15.459164 47.586792
468 0 1 15.437707 -14.733763 47.750092
469 0 1 14.907105 -14.709663 48.531006
470 0 1 14.223504 -13.974064 48.730286
471 0 1 13.575303 -13.662764 49.327515
472 0 1 13.449807 -12.775864 49.014008
473 0 1 13.512605 -12.258562 48.233704
474 0 1 14.422105 -12.009064 48.283997
475 0 1 15.164407 -11.372663 48.396393
476 0 1 15.619004 -12.211763 48.436188
477 0 1 16.516607 -12.533764 48.542603
478 0 1 17.405207 -12.548864 48.941406
479 0 1 18.040907 -13.184862 48.760010
480 0 1 18.913408 -12.824762 48.797394
481 0 1 19.034006 -12.000563 49.232483
482 0 1 18.933306 -11.020113 49.434692
483 0 1 18.885408 -10.929834 50.329193
484 0 1 18.695005 -10.013323 50.583801
485 0 1 19.353506 -9.593084 50.023499
486 0 1 20.022608 -10.025965 49.504700
487 0 1 20.955606 -9.891954 49.818390
488 0 1 20.706907 -10.648643 50.431091
489 0 1 21.166605 -11.197165 51.094391
490 0 1 21.730806 -11.952963 50.820496
491 0 1 22.633806 -11.851263 50.684296
492 0 1 23.441904 -11.486464 50.395386
493 0 1 23.792109 -11.089212 49.570709
494 0 1 23.793909 -11.499264 48.699799
495 0 1 24.601809 -11.918364 48.454285
496 0 1 24.587206 -12.536764 47.745605
497 0 1 24.766909 -12.983864 46.950195
498 0 1 24.417006 -13.877264 46.878906
499 0 1 23.934706 -13.659662 46.037292
500 0 1 23.604609 -12.790764 46.084595
501 0 1 22.835806 -12.976164 45.627014
502 0 1 22.557207 -13.626863 45.032196
503 0 1 22.993906 -13.991762 44.250305
504 0 1 22.318007 -13.882063 43.580505
505 0 1 21.652704 -13.286863 43.064789
506 0 1 20.887007 -13.788664 43.380707
507 0 1 20.067308 -14.236963 43.138702
508 0 1 19.175608 -14.480164 43.395111
509 0 1 19.107904 -14.548864 42.432800
510 0 1 18.645609 -13.968563 41.809387
511 0 1 17.585604 -13.835363 41.850006
512 0 1 17.830206 -13.249563 42.552307
513 0 1 17.504206 -12.305264 42.748810
514 0 1 17.555407 -12.688963 43.614105
515 0 1 18.395609 -12.095762 43.606903
516 0 1 18.515306 -11.670862 42.736389
517 0 1 19.104807 -10.883963 42.482910
518 0 1 18.586504 -10.136885 42.783813
519 0 1 18.106207 -9.471024 42.338287
520 0 1 18.179907 -8.551434 42.049500
521 0 1 19.171106 -8.384233 41.904114
522 0 1 19.109705 -7.477792 42.298706
523 0 1 18.480509 -7.357913 43.019104
524 0 1 18.069605 -6.519582 43.304016
525 0 1 18.224207 -5.611444 43.118988
526 0 1 17.477304 -5.665983 43.672302
527 0 1 16.678106 -6.078214 43.968292
528 0 1 16.145205 -5.329303 44.252808
529 0 1 16.238405 -4.336383 44.480499
530 0 1 16.327707 -4.031244 43.589996
531 0 1 16.135206 -3.198044 43.112793
532 0 1 15.668004 -2.467144 42.580383
533 0 1 15.443105 -1.971986 41.764313
534 0 1 15.019506 -1.510460 42.487213
535 0 1 14.176904 -1.003824 42.654602
536 0 1 14.086503 -1.530412 43.511505
537 0 1 14.614305 -2.341654 43.536102
538 0 1 13.932706 -2.673704 44.108307
539 0 1 12.983705 -2.645853 44.171295
540 0 1 12.724305 -3.583904 44.241394
541 0 1 12.584603 -3.517732 43.255402
542 0 1 13.038903 -4.350044 43.259216
543 0 1 13.313504 -4.378263 42.372589
544 0 1 14.174104 -4.608083 41.855591
545 0 1 14.695004 -4.143253 41.190002
546 0 1 14.546006 -3.926443 40.278595
547 0 1 14.430005 -3.010803 40.557800
548 0 1 13.527905 -2.997762 40.256195
549 0 1 13.162004 -3.772804 40.659393
550 0 1 12.694604 -4.375663 40.161804
551 0 1 12.523305 -5.259183 40.549316
552 0 1 13.211907 -5.308103 39.888702
553 0 1 13.735005 -5.789144 39.322388
554 0 1 14.284604 -5.325572 39.974792
555 0 1 15.171006 -5.042213 40.359406
556 0 1 15.788007 -5.764524 40.123505
557 0 1 15.613206 -5.330083 39.258301
558 0 1 16.201307 -4.645153 39.104492
559 0 1 16.441008 -3.942413 39.709900
560 0 1 15.740506 -3.637663 39.108490
561 0 1 15.060304 -4.319673 38.640991
562 0 1 14.801003 -3.968994 37.819489
563 0 1 14.740506 -4.895483 37.515198
564 0 1 14.252007 -5.689212 37.596893
565 0 1 14.550206 -5.912313 36.663696
566 0 1 15.449407 -5.970472 36.928497
567 0 1 16.230104 -5.571743 36.589600
568 0 1 15.613706 -5.908823 35.875305
569 0 1 15.062203 -6.673383 36.118011
570 0 1 14.825707 -6.208284 35.315704
571 0 1 14.832906 -6.965932 34.685699
572 0 1 15.211106 -6.682212 33.808289
573 0 1 14.681207 -5.972044 33.292999
574 0 1 13.769105 -6.052383 32.907715
575 0 1 13.081105 -6.325624 33.492889
576 0 1 12.187005 -6.424814 33.336487
577 0 1 11.666104 -5.679353 33.187805
578 0 1 11.105706 -6.073503 33.869385
579 0 1 10.424436 -5.510044 33.400909
580 0 1 10.593705 -5.665823 32.461395
581 0 1 10.440187 -6.662454 32.433289
582 0 1 10.686303 -7.420263 31.835114
583 0 1 11.321504 -7.260683 31.120697
584 0 1 10.981305 -6.529853 30.639313
585 0 1 11.648305 -6.528432 29.878387
586 0 1 11.628106 -5.607133 29.550598
587 0 1 11.967706 -5.257352 30.400391
588 0 1 12.816804 -4.978403 30.031891
589 0 1 13.633805 -4.647253 30.322113
590 0 1 14.018403 -4.532222 31.208099
591 0 1 13.536305 -4.955614 31.877411
592 0 1 12.811807 -5.509092 31.599213
593 0 1 13.098706 -6.365663 31.813110
594 0 1 12.855206 -7.238782 31.817596
595 0 1 12.517205 -7.825323 32.507599
596 0 1 12.900907 -8.489233 31.940704
597 0 1 12.297807 -8.686813 31.233490
598 0 1 11.450707 -8.608124 30.892395
599 0 1 11.358106 -8.726173 29.956116
600 0 1 12.289506 -8.997774 29.893311
601 0 1 11.686807 -9.840544 29.848511
602 0 1 11.102105 -10.138554 30.571411
603 0 1 10.545377 -10.264673 29.813416
604 0 1 10.928105 -11.143494 29.809387
605 0 1 10.278955 -11.540964 30.401398
606 0 1 10.112473 -12.059065 29.683899
607 0 1 9.916253 -11.817663 28.766907
608 0 1 10.300958 -12.769064 28.518097
609 0 1 9.885175 -12.466265 27.702698
610 0 1 10.668405 -12.927862 27.374207
611 0 1 11.282304 -12.663862 26.730713
612 0 1 11.833306 -12.286463 25.968689
613 0 1 12.606206 -12.872663 25.703308
614 0 1 12.813004 -13.777662 25.446808
615 0 1 13.451005 -14.443363 25.595398
616 0 1 13.268006 -15.391962 25.297913
617 0 1 13.132306 -14.782763 24.642487
618 0 1 12.572606 -13.984364 24.409393
619 0 1 12.587007 -14.593763 23.642609
620 0 1 12.676507 -15.548864 23.436096
621 0 1 13.354707 -16.118063 23.701202
622 0 1 13.322705 -17.021563 23.386108
623 0 1 12.834207 -17.814764 22.956787
624 0 1 13.320706 -17.366463 22.301804
625 0 1 14.120404 -17.409264 21.722198
626 0 1 13.702004 -17.692263 20.843903
627 0 1 14.542207 -17.218363 20.668701
628 0 1 14.199105 -16.355164 20.656403
629 0 1 14.649304 -15.766764 21.279694
630 0 1 14.976605 -15.338663 22.110397
631 0 1 15.472707 -15.844363 22.773712
632 0 1 16.317408 -16.300364 22.823608
633 0 1 17.285707 -16.535463 22.856598
634 0 1 17.080706 -16.871264 23.799011
635 0 1 16.947908 -16.358263 24.608093
636 0 1 16.930704 -16.132063 25.499695
637 0 1 16.248106 -16.763662 25.873291
638 0 1 16.703608 -17.652763 25.801605
639 0 1 16.772306 -18.345764 25.056488
640 0 1 16.164804 -18.731363 24.412598
641 0 1 15.379403 -19.283663 24.213989
642 0 1 15.824906 -20.030363 24.510986
643 0 1 15.653806 -19.930063 23.582001
644 0 1 15.328103 -20.785564 23.953003
645 0 1 16.030706 -21.519363 23.820190
646 0 1 15.364907 -21.898964 23.299713
647 0 1 14.889806 -22.558964 22.754211
648 0 1 14.017205 -22.734264 22.350800
649 0 1 13.511506 -21.935064 22.222397
650 0 1 12.655404 -21.486763 22.195801
651 0 1 12.109406 -22.179363 22.577515
652 0 1 11.641503 -22.216763 23.398102
653 0 1 10.989106 -21.705763 22.962891
654 0 1 11.086503 -20.817364 22.617889
655 0 1 11.563405 -20.169563 23.148102
656 0 1 11.854505 -20.754864 23.830902
657 0 1 10.983106 -20.910063 24.236786
658 0 1 10.991006 -21.893763 24.307098
659 0 1 10.039094 -22.181463 24.465088
660 0 1 9.238877 -22.068163 24.911591
661 0 1 9.396653 -22.776264 25.605011
662 0 1 9.524297 -22.143463 26.282715
663 0 1 9.476544 -21.479364 27.003693
664 0 1 8.527123 -21.336264 27.402496
665 0 1 7.816335 -21.974363 27.317413
666 0 1 6.977945 -22.311563 27.511688
667 0 1 6.203714 -22.412664 26.924591
668 0 1 5.469987 -23.086563 26.927307
669 0 1 5.539674 -24.058563 27.274506
670 0 1 5.835626 -24.303463 28.101807
671 0 1 5.038045 -23.870863 28.349091
672 0 1 4.521406 -23.188963 28.846985
673 0 1 3.732766 -23.590263 29.349304
674 0 1 3.498006 -24.015064 28.523895
675 0 1 2.816827 -23.894863 27.817413
676 0 1 2.033895 -23.414463 27.406097
677 0 1 1.308816 -23.212563 26.816406
678 0 1 1.188640 -24.071363 27.474304
679 0 1 0.910026 -24.501863 28.274689
680 0 1 -0.030900 -24.573463 28.096893
681 0 1 -0.319806 -23.698364 27.732300
682 0 1 -0.691485 -23.584164 26.766785
683 0 1 -0.052846 -23.518564 26.075500
684 0 1 0.052812 -23.636164 25.136414
685 0 1 0.001331 -23.896664 24.214813
686 0 1 0.884649 -24.269863 23.981598
687 0 1 1.298168 -23.660063 23.341492
688 0 1 1.986926 -22.983763 23.554688
689 0 1 1.660045 -22.830164 24.422394
690 0 1 1.174886 -22.027264 24.710815
691 0 1 1.443681 -21.106863 24.482208
692 0 1 1.354522 -21.682463 23.704407
693 0 1 0.532880 -21.512764 23.274597
694 0 1 0.185054 -20.762764 22.811584
695 0 1 0.750831 -20.015263 22.776794
696 0 1 0.419103 -19.220064 23.185791
697 0 1 -0.246047 -19.232264 22.536102
698 0 1 0.469476 -18.770563 21.942398
699 0 1 0.643751 -17.852863 21.526199
700 0 1 0.269868 -18.488863 20.891998
701 0 1 -0.457404 -17.847364 20.648102
702 0 1 -1.068465 -18.008064 19.903503
703 0 1 -1.453425 -17.174362 19.801392
704 0 1 -2.011435 -17.634064 19.219696
705 0 1 -2.395634 -18.434164 19.631104
706 0 1 -3.136424 -18.911564 19.208206
707 0 1 -2.882674 -18.670164 18.347504
708 0 1 -2.730164 -19.705164 18.458008
709 0 1 -3.069514 -19.375864 17.638901
710 0 1 -2.897935 -20.103464 16.876999
711 0 1 -2.079774 -19.622864 16.964905
712 0 1 -1.306384 -19.171064 16.539307
713 0 1 -0.810713 -19.557964 15.804505
714 0 1 0.195985 -19.550764 15.686494
715 0 1 -0.011735 -18.881863 14.959107
716 0 1 -0.733254 -18.765263 14.309205
717 0 1 -0.797385 -18.347164 13.313004
718 0 1 -1.379553 -18.703964 12.645005
719 0 1 -0.853524 -19.201363 11.992005
720 0 1 -1.123355 -18.847464 11.155396
721 0 1 -0.451808 -19.116463 10.496507
722 0 1 0.397565 -19.045563 10.866502
723 0 1 0.810806 -18.597664 11.594209
724 0 1 1.268510 -18.979464 12.452897
725 0 1 0.775453 -18.494064 13.102906
726 0 1 0.511426 -17.571064 12.878800
727 0 1 0.180189 -16.727163 13.231507
728 0 1 -0.474425 -16.266863 13.825807
729 0 1 -0.997763 -15.410063 13.998796
730 0 1 -1.470235 -14.706863 13.509309
731 0 1 -1.590933 -14.446062 12.541795
732 0 1 -2.064055 -14.393663 11.643708
733 0 1 -1.203585 -13.985662 11.485002
734 0 1 -0.647935 -13.776262 10.744203
735 0 1 -1.534785 -13.509563 10.549302
736 0 1 -2.124665 -13.962564 9.961884
737 0 1 -1.366744 -14.332464 9.456742
738 0 1 -1.677905 -13.960665 8.613862
739 0 1 -1.871695 -14.739363 8.042237
740 0 1 -2.817145 -14.814062 8.054429
741 0 1 -2.842984 -15.701063 8.416184
742 0 1 -3.532134 -15.493563 7.774384
743 0 1 -4.460555 -15.429262 7.595383
744 0 1 -4.092904 -14.483763 7.543915
745 0 1 -3.254035 -13.900663 7.507477
746 0 1 -3.357865 -12.971663 7.548066
747 0 1 -3.730874 -12.577562 8.317399
748 0 1 -3.073844 -12.450163 9.063996
749 0 1 -2.310885 -12.989964 9.408998
750 0 1 -1.943925 -12.350264 10.022294
751 0 1 -2.249474 -12.518564 10.962296
752 0 1 -1.429654 -12.238363 11.328797
753 0 1 -1.005953 -12.381763 12.138795
754 0 1 -0.284709 -12.773165 12.563706
755 0 1 0.486747 -12.274263 12.616700
756 0 1 0.861154 -12.929663 13.203507
757 0 1 1.783786 -12.730364 13.157701
758 0 1 1.611066 -13.127665 14.048402
759 0 1 1.845405 -13.915262 13.509202
760 0 1 1.884685 -14.374063 14.390901
761 0 1 2.738878 -14.107763 14.777696
762 0 1 2.838044 -13.361364 15.340501
763 0 1 2.930837 -13.192064 16.309402
764 0 1 2.203424 -12.645763 15.981400
765 0 1 1.715095 -13.535364 16.025803
766 0 1 1.053201 -13.594463 16.707703
767 0 1 0.784931 -12.822063 16.112198
768 0 1 0.736987 -12.027662 16.651794
769 0 1 1.619007 -11.722263 16.795700
770 0 1 1.917295 -11.085222 17.436203
771 0 1 0.990423 -11.193434 17.774902
772 0 1 0.117759 -11.587362 17.494400
773 0 1 -0.127146 -12.605364 17.634506
774 0 1 0.423591 -12.252962 18.324600
775 0 1 1.130416 -11.855364 18.772903
776 0 1 1.386129 -11.168253 19.379608
777 0 1 1.816606 -10.517754 18.769104
778 0 1 2.155305 -10.038303 18.041000
779 0 1 2.704606 -9.962784 18.803299
780 0 1 3.135045 -10.534063 18.205994
781 0 1 3.640664 -9.915684 17.651794
782 0 1 3.830636 -9.344564 16.805496
783 0 1 3.196435 -8.671013 17.131393
784 0 1 2.943967 -7.986392 16.509003
785 0 1 2.157575 -7.565032 16.923004
786 0 1 2.640966 -6.723503 16.528503