LAMMPS data file via MDAnalysis

        2000  atoms
        1999  bonds
           0  angles
           0  dihedrals
           0  impropers

           1  atom types
           1  bond types
           0  angle types
           0  dihedral types
           0  improper types

-30.5 30.5 xlo xhi
-30.5 30.5 ylo yhi
-233.5 233.5 zlo zhi


Masses

1 1.000000

Atoms

1 0 1 -6.682966 10.258550 37.329590
2 0 1 -7.425165 10.623971 36.874298
3 0 1 -8.052866 10.902329 36.169891
4 0 1 -7.095066 11.072232 35.948395
5 0 1 -7.250666 10.334432 35.303589
6 0 1 -8.183466 10.093152 35.128906
7 0 1 -8.886065 10.818021 35.035706
8 0 1 -9.186266 11.638330 35.502014
9 0 1 -9.236666 11.591729 36.410095
10 0 1 -9.228567 12.297730 37.142517
11 0 1 -9.356565 11.426530 37.577606
12 0 1 -10.126566 11.963330 37.756195
13 0 1 -10.571966 12.685231 38.205109
14 0 1 -10.812666 11.869031 38.677307
15 0 1 -10.372665 11.004731 38.400787
16 0 1 -10.443366 10.251771 38.974609
17 0 1 -10.995165 9.495992 38.580902
18 0 1 -10.955166 8.622701 38.944611
19 0 1 -11.353167 9.204541 39.607117
20 0 1 -11.913065 9.568189 40.276306
21 0 1 -11.062265 9.354070 40.752197
22 0 1 -10.805765 8.482060 41.077301
23 0 1 -10.632166 8.492848 42.028900
24 0 1 -10.990067 9.336019 41.954590
25 0 1 -11.166866 10.204030 41.556213
26 0 1 -12.060066 10.273572 41.972900
27 0 1 -12.181866 11.080480 41.453003
28 0 1 -13.064066 11.194150 41.685913
29 0 1 -13.399965 10.322179 41.434204
30 0 1 -14.374166 10.493901 41.489807
31 0 1 -14.464966 11.338731 41.010590
32 0 1 -15.232466 11.385930 41.492798
33 0 1 -15.548166 11.131070 40.618408
34 0 1 -15.695366 12.052129 40.514099
35 0 1 -16.212566 12.579831 41.232697
36 0 1 -16.036766 12.467431 42.159485
37 0 1 -16.607866 13.150128 41.998993
38 0 1 -17.494066 13.365731 41.781189
39 0 1 -17.466967 13.873330 42.605804
40 0 1 -18.175266 14.376229 43.035889
41 0 1 -18.409466 14.466630 42.116089
42 0 1 -18.756466 13.582131 42.054108
43 0 1 -18.646265 12.996530 42.815002
44 0 1 -18.350065 12.060628 42.683594
45 0 1 -19.081766 11.512830 42.916412
46 0 1 -18.957365 11.133130 43.782898
47 0 1 -18.221766 10.714200 43.205017
48 0 1 -17.678766 11.019250 42.407288
49 0 1 -17.512865 10.076989 42.637299
50 0 1 -17.036066 9.282392 42.762299
51 0 1 -17.176867 8.723260 43.592194
52 0 1 -17.826466 7.985742 43.628510
53 0 1 -18.624666 7.416810 43.365906
54 0 1 -19.360466 7.398709 43.945984
55 0 1 -19.772165 8.013921 43.322601
56 0 1 -20.598665 7.773492 42.919800
57 0 1 -21.012566 8.413892 42.386414
58 0 1 -21.302366 8.977052 41.691010
59 0 1 -22.072367 8.905091 42.249908
60 0 1 -22.441067 8.716031 41.384613
61 0 1 -22.959665 7.888841 40.894104
62 0 1 -22.960667 7.295018 41.713684
63 0 1 -22.078865 7.632310 41.764404
64 0 1 -21.656765 8.021859 40.959808
65 0 1 -21.224766 7.336869 40.432098
66 0 1 -21.233166 6.512601 40.976288
67 0 1 -20.838966 6.012460 40.243591
68 0 1 -21.488066 5.256669 40.586304
69 0 1 -21.418766 4.487329 41.179993
70 0 1 -21.518967 3.563272 41.470093
71 0 1 -20.677965 3.710858 41.932892
72 0 1 -20.296465 3.788121 42.794708
73 0 1 -20.055367 2.898171 42.944214
74 0 1 -20.373466 2.502709 43.736694
75 0 1 -20.129267 3.381932 43.909302
76 0 1 -19.240866 3.625772 43.992096
77 0 1 -18.307467 3.222501 44.094299
78 0 1 -17.702566 3.086469 44.877899
79 0 1 -16.886866 3.082601 44.351898
80 0 1 -15.950766 3.253812 44.175507
81 0 1 -16.122766 4.200250 44.304688
82 0 1 -16.698366 4.867509 44.538513
83 0 1 -16.718466 5.511640 45.273987
84 0 1 -15.897766 5.316529 45.725311
85 0 1 -14.929667 5.379510 45.669800
86 0 1 -14.498066 5.535451 44.826202
87 0 1 -15.033566 6.295171 44.603790
88 0 1 -14.676867 6.089921 43.738708
89 0 1 -14.742266 5.129399 43.744690
90 0 1 -14.866467 4.575662 44.619690
91 0 1 -14.961367 4.218480 45.528992
92 0 1 -15.201065 3.537519 46.198303
93 0 1 -15.673765 2.846471 45.672302
94 0 1 -15.715065 1.949576 45.326508
95 0 1 -15.253166 1.965842 44.531799
96 0 1 -15.746166 1.117108 44.420197
97 0 1 -15.435766 0.674596 45.282104
98 0 1 -15.910866 0.086480 44.635010
99 0 1 -16.678465 0.437886 45.056488
100 0 1 -17.287066 0.555194 44.356812
101 0 1 -16.869766 0.154830 43.541504
102 0 1 -16.645367 0.772828 42.806793
103 0 1 -15.841866 0.364507 43.212189
104 0 1 -15.715366 0.819207 42.347198
105 0 1 -15.191666 0.180140 41.776093
106 0 1 -14.798765 -0.703900 41.580902
107 0 1 -14.233767 -1.404620 41.350006
108 0 1 -13.844366 -2.241090 41.094910
109 0 1 -13.325266 -2.983880 41.147491
110 0 1 -13.182766 -2.580169 42.016205
111 0 1 -12.911766 -1.657960 41.944092
112 0 1 -12.334566 -0.910390 42.094604
113 0 1 -11.387066 -1.055780 41.915100
114 0 1 -11.299067 -1.892850 41.333313
115 0 1 -11.781866 -2.366050 41.995209
116 0 1 -11.176867 -2.959449 41.600311
117 0 1 -11.637766 -3.804179 41.661896
118 0 1 -12.600866 -3.592530 41.868591
119 0 1 -12.928366 -4.351880 41.391785
120 0 1 -12.167166 -4.205180 40.766998
121 0 1 -12.447367 -4.531199 39.910706
122 0 1 -11.840166 -3.886130 39.469513
123 0 1 -11.877867 -4.165851 38.547699
124 0 1 -10.984165 -4.310870 38.271790
125 0 1 -10.503965 -4.710349 39.127686
126 0 1 -9.892365 -4.025241 39.348694
127 0 1 -9.313366 -3.492919 39.862091
128 0 1 -9.532266 -2.719119 39.305115
129 0 1 -10.161566 -1.985009 38.921814
130 0 1 -10.145766 -1.171210 38.273590
131 0 1 -9.230665 -1.061320 38.055206
132 0 1 -8.758265 -0.301089 37.760895
133 0 1 -8.426165 0.276362 37.138092
134 0 1 -7.687965 0.800832 37.518005
135 0 1 -6.939766 1.236070 38.142700
136 0 1 -7.772366 1.063821 38.556305
137 0 1 -7.118265 0.573750 39.058289
138 0 1 -7.612165 0.147031 39.758606
139 0 1 -7.507866 -0.767141 39.483490
140 0 1 -6.954866 -1.028171 38.779114
141 0 1 -7.508865 -1.815419 38.771790
142 0 1 -7.538866 -2.706611 39.227295
143 0 1 -6.796267 -3.100539 38.716705
144 0 1 -6.304167 -2.341290 38.945007
145 0 1 -5.643667 -2.992160 39.141602
146 0 1 -5.303465 -2.982949 40.036011
147 0 1 -4.799467 -2.457610 40.709412
148 0 1 -5.435066 -1.727010 40.477417
149 0 1 -4.524216 -1.296559 40.458313
150 0 1 -4.691296 -0.321290 40.636993
151 0 1 -4.811266 -0.902089 41.432190
152 0 1 -4.634886 -0.156840 41.969604
153 0 1 -3.719175 -0.371841 42.075500
154 0 1 -3.827055 0.589043 42.131195
155 0 1 -3.407646 0.278119 42.960510
156 0 1 -3.337557 -0.337600 43.669983
157 0 1 -3.244125 0.554669 44.075684
158 0 1 -2.668486 1.218245 44.428711
159 0 1 -1.817385 0.671862 44.317596
160 0 1 -1.097166 1.309628 44.483002
161 0 1 -0.558077 1.701911 45.249908
162 0 1 -1.040335 0.917544 45.564606
163 0 1 -0.275986 0.521781 45.974487
164 0 1 -0.679886 -0.249919 45.442108
165 0 1 0.218414 -0.688701 45.329407
166 0 1 -0.232046 -1.339690 44.761292
167 0 1 -0.447676 -0.810660 43.996704
168 0 1 0.195024 -0.765760 43.234314
169 0 1 0.633434 -1.612590 43.258606
170 0 1 1.530195 -1.762879 42.825806
171 0 1 2.233574 -2.260470 43.253601
172 0 1 2.781384 -1.511140 43.464111
173 0 1 3.754845 -1.403739 43.629913
174 0 1 3.685015 -2.349559 43.679688
175 0 1 4.633736 -2.433681 43.572815
176 0 1 4.604488 -1.928880 44.433197
177 0 1 5.199923 -1.324050 43.957214
178 0 1 5.871437 -1.987849 44.258301
179 0 1 5.832462 -1.245460 44.992004
180 0 1 5.332695 -0.645730 45.658386
181 0 1 5.917273 -1.046590 46.455505
182 0 1 6.451975 -1.341649 47.200592
183 0 1 5.568911 -1.393090 47.720703
184 0 1 5.860878 -1.152780 48.592285
185 0 1 5.073013 -1.379550 49.097290
186 0 1 4.667259 -2.091460 48.651001
187 0 1 4.093504 -2.119790 49.431396
188 0 1 3.297403 -2.273009 48.911987
189 0 1 2.279043 -2.248240 48.928284
190 0 1 1.369974 -1.995759 48.592102
191 0 1 1.337765 -1.425210 49.392212
192 0 1 2.189934 -1.012719 49.010010
193 0 1 1.910484 -0.845639 48.079498
194 0 1 1.716555 -1.616590 47.583405
195 0 1 0.955934 -1.868800 47.173706
196 0 1 1.313475 -2.254430 46.389313
197 0 1 1.522344 -1.366050 45.997711
198 0 1 2.273634 -1.230529 45.359192
199 0 1 3.116545 -1.633529 45.694885
200 0 1 2.806684 -0.930221 46.345612
201 0 1 2.913694 -0.345849 47.158691
202 0 1 3.749754 0.158950 47.155884
203 0 1 3.924894 1.022086 47.451691
204 0 1 4.540087 0.673592 48.073914
205 0 1 4.502951 0.405532 49.016510
206 0 1 5.139454 0.399568 49.713104
207 0 1 4.278702 0.152961 50.039307
208 0 1 3.695894 -0.502971 50.401703
209 0 1 2.824003 -0.696410 50.752197
210 0 1 1.892383 -1.071830 51.014801
211 0 1 1.614664 -1.500840 51.787994
212 0 1 1.888325 -1.110931 52.606201
213 0 1 1.508434 -1.959680 52.675110
214 0 1 1.354294 -2.724929 53.171692
215 0 1 1.199034 -2.057170 53.881012
216 0 1 0.387564 -2.525710 53.678284
217 0 1 -0.392906 -1.940810 53.644012
218 0 1 -0.381685 -1.705011 52.690613
219 0 1 -0.000446 -2.625310 52.715393
220 0 1 0.364424 -3.258609 52.067810
221 0 1 0.700554 -2.456069 51.695892
222 0 1 1.528084 -2.578059 51.192993
223 0 1 2.146595 -2.958350 50.562103
224 0 1 2.004755 -3.263511 49.587494
225 0 1 1.836445 -4.258370 49.536896
226 0 1 2.348095 -4.884521 50.179688
227 0 1 3.182983 -4.340499 50.035004
228 0 1 3.483774 -4.537749 49.151794
229 0 1 3.348354 -4.672271 48.235687
230 0 1 2.470755 -4.506089 48.609406
231 0 1 1.739645 -4.951890 48.157715
232 0 1 2.169964 -5.767261 48.446106
233 0 1 1.618374 -6.339200 47.887299
234 0 1 2.375303 -6.611489 47.435486
235 0 1 2.523224 -7.309211 48.107300
236 0 1 2.931105 -8.112870 47.758911
237 0 1 3.190804 -8.799869 48.475098
238 0 1 2.958574 -9.415069 49.245087
239 0 1 2.263374 -9.972569 49.172089
240 0 1 2.950735 -10.587371 48.990509
241 0 1 2.133394 -10.836268 48.452209
242 0 1 2.910524 -11.060771 47.935211
243 0 1 2.819115 -12.023471 47.609406
244 0 1 2.776754 -12.101569 48.650299
245 0 1 2.509853 -11.883769 49.527893
246 0 1 1.664413 -12.392871 49.500488
247 0 1 2.208513 -13.150270 49.876892
248 0 1 1.825683 -14.104170 49.948792
249 0 1 1.495825 -14.247069 50.854187
250 0 1 1.650494 -13.435670 51.388794
251 0 1 2.499044 -13.457170 51.786896
252 0 1 2.300524 -14.455970 51.684204
253 0 1 3.091105 -15.140470 51.672211
254 0 1 2.383715 -15.687570 52.114502
255 0 1 3.090445 -15.438870 52.678497
256 0 1 3.889584 -14.929770 52.692993
257 0 1 3.493784 -14.028170 52.682983
258 0 1 4.478270 -13.847770 52.722595
259 0 1 5.012119 -14.553070 52.402405
260 0 1 4.439964 -14.737670 51.589996
261 0 1 4.104235 -15.057870 50.795288
262 0 1 3.713715 -14.193970 50.846100
263 0 1 2.789354 -14.517469 50.586914
264 0 1 3.257225 -15.091371 49.927185
265 0 1 2.510754 -15.642671 49.770203
266 0 1 3.054893 -16.162071 49.095215
267 0 1 3.218304 -16.193670 48.102112
268 0 1 2.317474 -16.075272 48.146088
269 0 1 2.035654 -16.957470 47.932495
270 0 1 2.595425 -16.929771 47.142090
271 0 1 2.174284 -17.011570 46.273010
272 0 1 2.519714 -16.359671 45.589417
273 0 1 2.233734 -15.605769 45.018188
274 0 1 2.018644 -14.787070 45.402893
275 0 1 2.411455 -14.212570 44.703186
276 0 1 2.441614 -14.996869 44.091797
277 0 1 3.357954 -15.048869 44.349701
278 0 1 4.275219 -15.045671 44.541107
279 0 1 4.154345 -14.992070 45.509216
280 0 1 4.249062 -15.995269 45.552704
281 0 1 3.734394 -16.681070 45.833191
282 0 1 4.039394 -17.106171 45.063202
283 0 1 4.190884 -17.138971 44.134796
284 0 1 3.774134 -16.971771 43.302887
285 0 1 3.532795 -17.330471 42.437012
286 0 1 3.275524 -16.779671 41.617310
287 0 1 2.719105 -16.398670 42.311798
288 0 1 2.152054 -15.908170 42.952789
289 0 1 1.390413 -15.529269 43.444214
290 0 1 1.458713 -16.204670 44.155090
291 0 1 1.542274 -17.076771 44.541901
292 0 1 0.851084 -16.898571 45.115784
293 0 1 1.117235 -16.790470 46.050690
294 0 1 0.578573 -16.451571 46.744598
295 0 1 -0.167055 -17.025070 46.636902
296 0 1 -1.100405 -17.050571 46.324585
297 0 1 -1.646116 -17.903471 46.261993
298 0 1 -2.207645 -17.130671 46.395508
299 0 1 -3.164297 -17.287571 46.372803
300 0 1 -3.600027 -18.088171 46.265015
301 0 1 -4.265795 -17.628672 46.784698
302 0 1 -4.676207 -17.827770 47.693695
303 0 1 -4.854967 -18.372070 48.476685
304 0 1 -5.096666 -19.051271 49.120483
305 0 1 -5.475466 -18.340370 49.681885
306 0 1 -4.790066 -18.589170 50.283203
307 0 1 -3.882025 -18.581871 50.032288
308 0 1 -3.873877 -19.396370 49.557709
309 0 1 -3.005146 -19.704370 49.357208
310 0 1 -3.157866 -19.254271 48.473602
311 0 1 -3.069876 -19.549871 47.521484
312 0 1 -3.442514 -20.133371 46.870392
313 0 1 -2.796946 -20.799070 46.452911
314 0 1 -2.291605 -21.573271 46.102112
315 0 1 -1.551685 -21.980970 45.659607
316 0 1 -1.697146 -21.624870 44.782715
317 0 1 -1.424736 -21.083971 44.026093
318 0 1 -0.776446 -20.444971 43.604614
319 0 1 -0.209236 -21.002272 43.124603
320 0 1 -0.383686 -21.977371 43.231903
321 0 1 -0.083555 -22.302071 44.110291
322 0 1 0.484255 -23.023670 43.953491
323 0 1 1.373243 -23.165270 43.499207
324 0 1 1.155434 -23.555170 42.642792
325 0 1 1.066645 -24.333170 42.057190
326 0 1 1.065624 -25.214670 41.698700
327 0 1 0.161203 -24.901871 41.614899
328 0 1 -0.324246 -24.450571 40.939911
329 0 1 -0.089016 -23.942871 40.157410
330 0 1 0.573923 -24.753971 40.148102
331 0 1 1.144693 -24.645670 39.387604
332 0 1 0.706234 -25.469070 39.178406
333 0 1 1.186224 -26.267870 39.163513
334 0 1 1.789404 -25.588572 38.962585
335 0 1 2.336525 -24.827770 38.659698
336 0 1 3.323515 -24.948671 38.618408
337 0 1 4.073994 -24.368071 38.782806
338 0 1 4.416819 -23.474571 38.734192
339 0 1 4.218115 -22.550070 38.435211
340 0 1 3.394653 -22.490570 38.040405
341 0 1 2.803675 -22.430670 37.247986
342 0 1 2.476734 -22.255072 36.337708
343 0 1 2.038054 -22.295971 35.509796
344 0 1 2.893545 -21.791571 35.532288
345 0 1 3.654284 -21.653671 35.058289
346 0 1 2.988415 -21.492271 34.375916
347 0 1 2.459784 -22.343071 34.231598
348 0 1 1.688743 -21.846771 33.913391
349 0 1 1.220974 -21.357870 34.559814
350 0 1 0.791445 -20.956371 35.352783
351 0 1 1.653894 -20.505871 35.282715
352 0 1 1.818874 -19.697170 34.723297
353 0 1 2.790825 -19.693871 34.833405
354 0 1 2.660984 -19.959471 33.902008
355 0 1 3.176445 -20.234470 33.106201
356 0 1 3.958815 -20.792070 33.037689
357 0 1 4.864317 -20.532871 32.810303
358 0 1 5.459707 -20.992771 32.221802
359 0 1 5.925648 -21.618370 31.591492
360 0 1 6.838675 -21.327271 31.317902
361 0 1 7.294893 -20.982571 32.168396
362 0 1 7.974665 -21.132071 32.768494
363 0 1 8.749945 -20.769171 32.397797
364 0 1 9.270426 -20.022171 31.997009
365 0 1 9.876204 -19.351070 31.566284
366 0 1 10.678305 -19.264370 31.095886
367 0 1 10.923536 -18.951271 32.019409
368 0 1 10.681875 -19.792671 32.454498
369 0 1 10.594305 -19.102970 33.065186
370 0 1 11.185015 -18.635771 33.665710
371 0 1 12.012533 -18.710772 34.291809
372 0 1 12.545275 -18.435270 35.056305
373 0 1 12.033842 -18.385672 35.902893
374 0 1 12.703485 -19.069071 36.063812
375 0 1 13.474974 -18.495071 35.889008
376 0 1 14.283796 -18.248770 35.371307
377 0 1 14.739054 -19.151670 35.636414
378 0 1 15.345335 -19.468370 34.990784
379 0 1 15.392534 -18.746271 34.435608
380 0 1 16.256933 -18.343771 34.383392
381 0 1 15.992537 -18.268372 33.464508
382 0 1 15.834734 -18.487570 32.532104
383 0 1 16.276632 -18.947670 31.852814
384 0 1 17.140036 -18.708170 32.061005
385 0 1 17.329935 -19.690271 31.896912
386 0 1 17.786535 -19.360371 31.103912
387 0 1 17.602934 -18.947771 30.146606
388 0 1 17.980932 -18.186071 30.549591
389 0 1 18.842733 -18.482370 30.832001
390 0 1 19.183935 -17.938871 31.520996
391 0 1 18.732134 -18.645472 32.222687
392 0 1 17.988535 -18.291870 32.745911
393 0 1 18.494833 -17.714571 33.423187
394 0 1 17.814035 -18.039270 34.074493
395 0 1 17.864534 -17.065472 34.030304
396 0 1 17.602434 -16.130671 33.973907
397 0 1 17.296633 -15.188569 33.967194
398 0 1 17.547434 -14.274469 33.787109
399 0 1 18.434835 -14.582270 34.049591
400 0 1 19.192034 -14.118670 33.596710
401 0 1 19.568136 -13.996170 34.442902
402 0 1 18.898935 -14.094170 35.051514
403 0 1 19.425535 -13.736770 35.809113
404 0 1 19.308332 -14.128570 36.718689
405 0 1 19.562536 -13.562670 37.472504
406 0 1 19.604933 -12.621871 37.596100
407 0 1 19.515432 -12.013570 38.368011
408 0 1 19.207735 -12.791270 38.792999
409 0 1 20.064634 -13.045470 38.572906
410 0 1 20.659834 -13.636570 37.986298
411 0 1 21.331434 -13.476669 37.326904
412 0 1 22.245134 -13.453270 37.463989
413 0 1 22.979734 -13.895969 37.861908
414 0 1 23.689535 -14.033669 37.131989
415 0 1 23.839636 -13.070270 36.623413
416 0 1 24.645033 -13.351170 37.012695
417 0 1 25.390837 -13.487070 36.418884
418 0 1 25.423433 -12.947970 35.661804
419 0 1 26.189634 -12.700870 35.109985
420 0 1 26.131033 -12.116969 34.343903
421 0 1 25.190435 -12.272368 34.355011
422 0 1 24.717337 -11.447471 34.532593
423 0 1 24.531935 -10.519271 34.281006
424 0 1 24.179335 -9.657870 34.416901
425 0 1 24.729734 -9.619769 35.234802
426 0 1 25.182531 -8.924170 34.759796
427 0 1 24.358335 -8.497691 34.414490
428 0 1 23.989431 -7.818130 33.841003
429 0 1 24.222036 -6.870259 33.989197
430 0 1 23.785437 -6.121530 33.581207
431 0 1 24.137732 -6.069079 32.688293
432 0 1 23.873335 -5.697579 31.800415
433 0 1 23.286833 -5.680060 31.047791
434 0 1 22.563833 -6.086020 31.732086
435 0 1 22.594133 -7.023879 31.442413
436 0 1 21.891935 -7.430810 31.928314
437 0 1 21.117636 -6.942670 31.669891
438 0 1 20.386133 -7.292439 32.240387
439 0 1 19.780634 -6.571010 32.289185
440 0 1 19.377035 -7.468928 31.929413
441 0 1 19.143034 -7.445941 32.867096
442 0 1 18.316034 -7.487941 32.373108
443 0 1 18.469435 -6.751149 31.825989
444 0 1 18.081434 -6.269219 32.565704
445 0 1 18.269335 -6.215949 33.592896
446 0 1 17.541933 -6.827929 33.566711
447 0 1 17.837233 -7.099059 34.481293
448 0 1 17.469236 -6.310390 34.966492
449 0 1 17.080034 -6.146520 35.837494
450 0 1 17.272833 -6.081969 36.804810
451 0 1 16.967035 -6.527280 37.654785
452 0 1 17.637632 -6.813498 38.351196
453 0 1 17.465334 -7.446469 39.068298
454 0 1 16.659735 -7.316791 39.548706
455 0 1 16.587435 -6.439910 39.866089
456 0 1 16.721033 -5.681190 39.253693
457 0 1 15.812334 -5.387149 39.046906
458 0 1 15.373835 -5.215400 38.176910
459 0 1 14.822683 -5.185130 37.380493
460 0 1 14.719656 -6.082299 37.017212
461 0 1 14.218515 -6.193549 37.817413
462 0 1 13.472044 -6.586690 38.349701
463 0 1 12.863424 -6.075080 37.746307
464 0 1 11.896902 -5.989690 37.698090
465 0 1 11.126223 -6.566470 37.589111
466 0 1 11.879854 -7.185719 37.598694
467 0 1 11.404093 -7.365760 36.765503
468 0 1 12.222025 -7.413760 36.341614
469 0 1 12.149504 -6.619760 35.813202
470 0 1 12.405066 -5.732949 35.947510
471 0 1 11.866053 -4.933030 35.938507
472 0 1 10.967993 -4.748080 35.737915
473 0 1 10.603983 -3.977630 35.306396
474 0 1 9.940744 -3.256919 35.518097
475 0 1 9.220255 -2.559470 35.612396
476 0 1 8.961214 -1.707749 35.980011
477 0 1 8.220205 -1.174970 35.677307
478 0 1 7.594854 -1.918210 35.625305
479 0 1 6.688124 -2.086890 35.809998
480 0 1 6.599455 -1.705260 34.972107
481 0 1 6.300434 -1.134530 35.704590
482 0 1 5.557972 -0.645700 35.322296
483 0 1 6.253344 0.039060 35.168793
484 0 1 6.964735 0.275952 34.584412
485 0 1 7.007193 -0.512820 34.057007
486 0 1 7.941095 -0.223470 33.821716
487 0 1 8.653265 0.528296 33.879608
488 0 1 8.411604 1.487573 34.149292
489 0 1 7.496885 1.907533 34.079803
490 0 1 7.874964 2.700330 34.458710
491 0 1 8.863924 2.717431 34.497711
492 0 1 9.101503 3.302911 35.282288
493 0 1 9.472666 2.488811 35.579712
494 0 1 10.039892 2.898030 34.903503
495 0 1 9.808065 2.107440 34.373596
496 0 1 10.095095 2.472291 33.554810
497 0 1 10.040804 1.991052 32.755890
498 0 1 10.388323 1.369136 32.126892
499 0 1 10.310415 0.481046 31.733795
500 0 1 11.252733 0.727307 31.856110
501 0 1 11.124636 -0.037219 32.408997
502 0 1 10.719515 0.322858 33.254700
503 0 1 10.498835 -0.583900 33.097198
504 0 1 10.142775 -1.383729 33.436890
505 0 1 10.670176 -1.739659 34.133087
506 0 1 11.378035 -1.290130 33.508392
507 0 1 12.125906 -1.753350 33.898193
508 0 1 12.401785 -2.667069 33.666290
509 0 1 13.253706 -2.271890 33.347412
510 0 1 13.403326 -1.701560 32.494690
511 0 1 13.786993 -1.049720 31.939514
512 0 1 14.101305 -0.182201 32.319092
513 0 1 13.730825 0.647790 31.980988
514 0 1 13.037813 0.296275 31.447998
515 0 1 12.339613 -0.188689 31.010986
516 0 1 11.861746 -0.556520 30.232697
517 0 1 11.404406 0.299659 30.207703
518 0 1 11.822153 0.959323 29.657410
519 0 1 11.357054 1.684947 30.128204
520 0 1 11.875784 2.230330 29.533203
521 0 1 11.542326 2.979692 29.030212
522 0 1 10.789385 3.606011 29.364197
523 0 1 10.568663 2.842881 30.011292
524 0 1 9.680845 2.739511 29.631195
525 0 1 9.808825 2.127809 28.921387
526 0 1 8.875032 2.060067 28.796204
527 0 1 8.060656 2.386399 29.090912
528 0 1 7.878733 3.215810 28.528107
529 0 1 7.215853 3.271321 29.249908
530 0 1 7.449156 2.728860 29.979401
531 0 1 6.536135 2.509191 29.802094
532 0 1 5.721722 2.702121 30.186005
533 0 1 5.685198 1.739898 30.083710
534 0 1 5.358988 1.370343 30.932709
535 0 1 6.161448 1.492215 31.485687
536 0 1 5.843735 0.927373 32.183411
537 0 1 6.294115 0.331424 31.561005
538 0 1 5.754078 -0.481469 31.864105
539 0 1 6.670094 -0.460719 32.085297
540 0 1 7.176035 -1.254550 31.915802
541 0 1 6.719734 -1.861810 32.557892
542 0 1 5.850998 -2.238740 32.378601
543 0 1 5.540852 -2.757030 33.153198
544 0 1 5.106682 -3.502860 32.538086
545 0 1 4.761093 -2.549939 32.453491
546 0 1 3.929884 -2.275821 32.052887
547 0 1 3.418034 -2.388810 32.854004
548 0 1 2.664474 -2.575669 32.289398
549 0 1 2.752884 -3.520089 32.043091
550 0 1 1.916914 -3.850820 31.721405
551 0 1 1.186815 -3.861590 31.109497
552 0 1 1.398414 -3.898471 30.223297
553 0 1 1.349825 -3.693830 29.317413
554 0 1 0.576504 -3.608159 28.694397
555 0 1 0.062614 -2.822719 28.947693
556 0 1 -0.401436 -3.345260 29.699585
557 0 1 -0.663376 -2.377891 29.900085
558 0 1 -0.578337 -2.671130 30.796204
559 0 1 -0.313206 -3.124980 31.595001
560 0 1 -0.750036 -4.053399 31.447998
561 0 1 -1.455847 -4.423301 30.934906
562 0 1 -2.392076 -4.736049 30.767395
563 0 1 -1.957667 -5.300530 31.425201
564 0 1 -2.384535 -5.192649 32.297089
565 0 1 -3.193226 -4.897609 31.789093
566 0 1 -3.660625 -5.682319 31.483612
567 0 1 -4.156027 -6.516200 31.454407
568 0 1 -4.641806 -6.216340 30.751404
569 0 1 -4.870565 -5.798829 29.913391
570 0 1 -4.914267 -4.820621 29.588989
571 0 1 -3.956656 -4.563069 29.347595
572 0 1 -3.577765 -5.413739 29.495392
573 0 1 -3.614336 -6.248740 28.995911
574 0 1 -4.416885 -5.996509 28.416687
575 0 1 -4.112356 -6.509120 27.672394
576 0 1 -3.847635 -7.436950 27.869385
577 0 1 -4.174887 -8.203380 27.386200
578 0 1 -3.620886 -9.018371 27.382690
579 0 1 -3.373125 -9.476069 28.176788
580 0 1 -4.242956 -9.625670 28.593811
581 0 1 -4.147036 -10.375770 28.000916
582 0 1 -5.061066 -10.782269 28.165314
583 0 1 -4.533834 -11.076770 27.399414
584 0 1 -4.100676 -11.893470 27.726501
585 0 1 -4.085794 -11.397571 28.557495
586 0 1 -4.459146 -11.952670 29.206787
587 0 1 -4.405657 -12.377170 30.060913
588 0 1 -4.595406 -11.460870 30.386108
589 0 1 -5.332865 -11.372470 31.020813
590 0 1 -5.416067 -10.425570 30.730988
591 0 1 -4.625746 -10.000970 30.513794
592 0 1 -3.884954 -10.332469 31.019196
593 0 1 -3.352566 -10.085071 31.850494
594 0 1 -3.001776 -9.843369 32.699890
595 0 1 -3.563025 -9.118869 32.906097
596 0 1 -2.995596 -8.385400 32.647095
597 0 1 -2.136156 -8.667920 32.528290
598 0 1 -2.226976 -8.839969 31.610107
599 0 1 -1.373346 -8.782371 31.181396
600 0 1 -1.317267 -8.059451 30.584900
601 0 1 -1.559746 -8.326541 29.654999
602 0 1 -1.053276 -8.547540 28.899292
603 0 1 -0.199455 -8.506539 28.511414
604 0 1 -0.128645 -8.963069 27.678406
605 0 1 0.285805 -9.613070 28.171387
606 0 1 0.904274 -10.035069 27.584503
607 0 1 1.743444 -10.224269 27.105896
608 0 1 2.741924 -10.434669 27.084198
609 0 1 2.523014 -9.621270 26.641510
610 0 1 1.686005 -9.473170 26.265991
611 0 1 1.263784 -9.051169 25.503296
612 0 1 0.865915 -8.390529 24.994385
613 0 1 0.509424 -8.463649 25.932495
614 0 1 -0.085636 -9.270671 25.951416
615 0 1 -0.815376 -9.275670 25.282990
616 0 1 -0.491716 -9.437770 24.381287
617 0 1 0.366604 -8.846671 24.210297
618 0 1 0.075235 -7.919040 24.208099
619 0 1 -0.055937 -8.263350 23.337097
620 0 1 -0.172886 -9.050670 22.818390
621 0 1 0.503725 -8.953870 22.165009
622 0 1 1.224914 -8.497029 21.592300
623 0 1 1.845785 -8.484540 20.787399
624 0 1 2.751904 -8.640479 20.471207
625 0 1 2.796984 -8.091990 19.649506
626 0 1 3.500093 -7.669799 20.164093
627 0 1 3.882833 -7.338130 19.332092
628 0 1 4.114664 -7.161651 18.372299
629 0 1 3.667873 -6.727059 17.544708
630 0 1 4.488344 -6.294040 17.720306
631 0 1 4.076794 -5.818389 18.451096
632 0 1 3.131763 -5.831330 18.031998
633 0 1 2.384684 -5.256980 18.276505
634 0 1 1.617834 -4.786180 18.083298
635 0 1 1.841734 -4.720719 17.158508
636 0 1 2.669603 -4.540090 17.633102
637 0 1 2.374454 -4.098449 18.452499
638 0 1 2.782003 -3.662950 19.290192
639 0 1 2.092363 -3.038270 19.148804
640 0 1 1.435215 -2.463569 18.841202
641 0 1 1.394773 -1.694020 18.172897
642 0 1 0.949734 -0.992440 18.430695
643 0 1 0.071684 -1.224580 18.677094
644 0 1 -0.074677 -0.255981 18.744598
645 0 1 -0.694185 0.469191 19.054596
646 0 1 -1.121126 1.208760 18.615997
647 0 1 -1.941216 0.756646 18.975006
648 0 1 -2.034685 0.264043 18.082703
649 0 1 -2.211716 1.274491 18.088394
650 0 1 -1.753996 1.501866 17.278107
651 0 1 -1.984276 1.850425 16.339096
652 0 1 -1.365767 2.036736 15.608993
653 0 1 -1.693195 2.399350 14.742202
654 0 1 -2.555386 2.986390 15.018401
655 0 1 -3.434086 2.932488 15.470397
656 0 1 -4.115976 3.574330 15.062301
657 0 1 -4.514956 3.155862 14.321898
658 0 1 -5.029165 3.912099 14.716002
659 0 1 -5.978966 4.130719 14.633803
660 0 1 -6.504065 3.876859 15.420104
661 0 1 -6.587564 4.616002 16.090393
662 0 1 -7.423765 4.911481 15.694503
663 0 1 -7.957365 4.104390 15.478103
664 0 1 -7.584665 3.312669 15.220901
665 0 1 -6.933165 2.742120 14.809005
666 0 1 -7.555265 1.941832 14.634002
667 0 1 -8.378466 2.424720 14.541503
668 0 1 -9.096466 1.958905 14.074798
669 0 1 -9.269066 2.614871 13.371703
670 0 1 -8.522867 2.726392 12.767592
671 0 1 -7.765766 2.370420 13.228805
672 0 1 -6.840166 2.274100 13.725295
673 0 1 -6.333567 1.479432 13.647399
674 0 1 -6.068766 1.939618 14.467696
675 0 1 -6.383665 1.046767 14.791991
676 0 1 -5.911366 0.221152 14.874099
677 0 1 -5.207266 -0.063899 14.276793
678 0 1 -4.720856 0.285743 14.998397
679 0 1 -5.018366 -0.342950 15.661193
680 0 1 -4.684256 -1.267160 15.696105
681 0 1 -4.190275 -1.310460 16.527603
682 0 1 -3.489166 -0.750140 16.837296
683 0 1 -3.692385 -0.664060 17.796799
684 0 1 -3.850185 0.080300 18.357101
685 0 1 -3.884386 1.062135 18.322205
686 0 1 -4.206755 1.920071 18.255997
687 0 1 -3.352457 2.065312 18.640701
688 0 1 -3.332697 2.129655 19.569901
689 0 1 -3.141396 1.592055 20.349594
690 0 1 -3.997486 1.198768 20.591797
691 0 1 -4.701416 1.614007 21.024094
692 0 1 -5.508467 1.330787 20.650208
693 0 1 -5.608166 2.171723 20.184296
694 0 1 -4.979866 2.635690 19.593201
695 0 1 -4.407095 3.372781 19.437195
696 0 1 -4.897867 3.948041 20.008499
697 0 1 -5.126766 4.664960 19.441193
698 0 1 -5.135866 4.890462 18.524292
699 0 1 -4.534756 4.388822 18.008194
700 0 1 -3.565084 4.438890 18.146194
701 0 1 -2.962826 4.327321 17.411896
702 0 1 -2.971907 5.206460 17.852295
703 0 1 -2.705557 6.109342 17.822403
704 0 1 -3.111555 6.928929 18.048203
705 0 1 -3.297806 7.864888 17.904694
706 0 1 -2.274305 7.899819 17.847794
707 0 1 -2.385805 8.836671 17.352097
708 0 1 -2.569876 9.575711 17.894302
709 0 1 -3.165226 9.813310 17.146896
710 0 1 -3.776796 10.391801 17.587799
711 0 1 -3.009375 10.851293 17.213196
712 0 1 -2.258156 11.396428 17.116608
713 0 1 -1.718435 11.050721 16.415695
714 0 1 -1.571596 11.891831 16.033096
715 0 1 -1.061945 12.532529 15.499099
716 0 1 -2.043337 12.244328 15.304305
717 0 1 -2.974165 12.400430 15.080504
718 0 1 -2.368486 12.967130 14.420699
719 0 1 -3.100325 12.736432 13.855605
720 0 1 -2.778786 12.637929 12.960692
721 0 1 -2.531857 12.179631 12.128402
722 0 1 -1.740027 12.706429 12.144591
723 0 1 -1.008556 12.571931 11.546599
724 0 1 -0.306276 12.787831 10.899901
725 0 1 0.048204 12.373731 11.746993
726 0 1 -0.349236 12.065431 12.579497
727 0 1 -0.753925 11.445630 13.175704
728 0 1 -0.506756 10.644799 12.740996
729 0 1 -0.990135 9.843740 12.542495
730 0 1 -1.534016 9.751851 11.761992
731 0 1 -1.352476 8.854428 11.301101
732 0 1 -1.581495 7.906331 11.151900
733 0 1 -1.404036 6.980309 11.118896
734 0 1 -1.617155 6.471292 10.302001
735 0 1 -2.476545 6.120290 10.382201
736 0 1 -3.256746 5.616651 10.085998
737 0 1 -3.510355 5.420041 9.203612
738 0 1 -3.483767 5.247571 8.254119
739 0 1 -3.134506 6.091722 7.952606
740 0 1 -2.547266 6.392011 8.621261
741 0 1 -1.885317 5.709569 8.583831
742 0 1 -1.306606 6.361680 8.936324
743 0 1 -0.904896 6.175481 8.028853
744 0 1 0.073213 6.212560 8.344207
745 0 1 -0.010826 5.907712 9.270324
746 0 1 0.734794 5.687371 9.828734
747 0 1 0.799644 5.864240 10.803191
748 0 1 1.760633 6.075780 10.981597
749 0 1 1.576544 7.035272 10.836791
750 0 1 1.192915 7.847169 11.363997
751 0 1 0.478094 7.704492 12.034301
752 0 1 -0.479946 7.823892 12.219802
753 0 1 -1.088137 7.231969 12.695800
754 0 1 -1.494627 6.358022 12.551101
755 0 1 -2.439766 6.320642 12.567992
756 0 1 -3.171646 6.153451 11.883895
757 0 1 -4.156746 6.121060 11.928603
758 0 1 -4.101187 7.162480 12.072295
759 0 1 -4.940565 6.666928 12.029494
760 0 1 -5.666067 7.133519 11.607894
761 0 1 -5.940165 6.931420 10.741698
762 0 1 -5.729067 6.515569 9.948882
763 0 1 -6.714567 6.674119 10.119597
764 0 1 -7.442366 6.723439 9.491042
765 0 1 -8.315966 6.492558 9.006454
766 0 1 -7.970766 5.594640 9.165923
767 0 1 -8.335466 4.848012 8.621123
768 0 1 -7.906065 3.990811 8.713195
769 0 1 -7.064466 4.439229 9.004165
770 0 1 -6.370466 3.939649 9.490462
771 0 1 -6.908566 3.394990 8.849822
772 0 1 -6.913965 2.425019 8.896834
773 0 1 -7.462465 1.892325 9.544539
774 0 1 -6.955866 2.262710 10.195495
775 0 1 -6.010965 2.145696 10.061706
776 0 1 -5.475866 2.301440 10.776397
777 0 1 -4.506706 2.281480 10.843001
778 0 1 -4.700676 1.342006 10.545699
779 0 1 -4.399286 1.030667 9.694060
780 0 1 -3.582865 0.773101 9.247878
781 0 1 -3.542086 1.382325 8.522552
782 0 1 -3.271105 1.819779 9.314330
783 0 1 -2.392786 1.373412 9.531585
784 0 1 -1.770126 1.374392 8.867949
785 0 1 -2.231695 2.084153 8.582793
786 0 1 -2.096146 2.964009 8.894759
787 0 1 -1.599896 2.887490 8.025558
788 0 1 -1.711826 2.296500 7.297897