LAMMPS data file via MDAnalysis

        2000  atoms
        1999  bonds
           0  angles
           0  dihedrals
           0  impropers

           1  atom types
           1  bond types
           0  angle types
           0  dihedral types
           0  improper types

-30.5 30.5 xlo xhi
-30.5 30.5 ylo yhi
-233.5 233.5 zlo zhi


Masses

1 1.000000

Atoms

1 0 1 -2.494622 -1.893481 36.669983
2 0 1 -1.634442 -1.713751 37.075592
3 0 1 -1.849624 -2.173750 37.885803
4 0 1 -1.723773 -3.008832 37.417603
5 0 1 -1.787152 -3.361228 38.271698
6 0 1 -1.214824 -2.623677 38.575989
7 0 1 -1.133042 -2.559847 39.511505
8 0 1 -1.731292 -2.368430 40.229797
9 0 1 -1.480353 -2.467789 41.097412
10 0 1 -1.158282 -2.600989 42.007507
11 0 1 -0.863593 -2.259610 42.853516
12 0 1 -0.870822 -2.847365 43.589813
13 0 1 -0.293933 -3.651377 43.500183
14 0 1 -0.494533 -3.385108 44.410706
15 0 1 -0.827102 -2.698409 44.997498
16 0 1 -1.708083 -2.579768 44.774414
17 0 1 -2.084891 -3.329895 44.423096
18 0 1 -2.050122 -3.775408 45.321503
19 0 1 -2.944343 -4.118412 45.487091
20 0 1 -3.321492 -3.314541 45.853210
21 0 1 -4.258363 -3.501816 45.766113
22 0 1 -4.426763 -4.153174 45.086395
23 0 1 -4.239263 -4.811261 44.418091
24 0 1 -3.748103 -4.380110 43.639709
25 0 1 -4.362662 -5.096961 43.234802
26 0 1 -5.009162 -5.758730 43.278503
27 0 1 -5.147563 -6.469590 42.676086
28 0 1 -4.435163 -6.968291 43.091797
29 0 1 -4.891763 -7.823889 43.061890
30 0 1 -5.362363 -8.594880 43.340515
31 0 1 -5.416263 -9.510600 43.339508
32 0 1 -4.978862 -9.783080 44.139587
33 0 1 -5.789962 -10.197921 44.402405
34 0 1 -6.407561 -10.537551 45.066284
35 0 1 -6.803061 -9.840390 44.504913
36 0 1 -7.671062 -10.275340 44.647705
37 0 1 -7.958762 -10.759400 45.424316
38 0 1 -8.862963 -10.785951 45.758911
39 0 1 -9.255062 -11.413371 46.370605
40 0 1 -9.918862 -10.849589 46.494598
41 0 1 -9.777062 -10.475829 47.471008
42 0 1 -10.319062 -10.876910 48.165009
43 0 1 -9.519962 -11.426080 48.041595
44 0 1 -8.615763 -11.488351 48.312897
45 0 1 -9.016362 -11.497649 49.196289
46 0 1 -9.775763 -12.142430 49.018188
47 0 1 -9.808662 -12.703559 48.327789
48 0 1 -8.958262 -12.521050 47.828705
49 0 1 -8.929563 -12.633479 46.903015
50 0 1 -7.982162 -12.777680 46.443695
51 0 1 -8.326663 -13.282691 45.697113
52 0 1 -7.632962 -13.494000 45.087708
53 0 1 -7.951564 -12.708732 44.628510
54 0 1 -8.303061 -12.779521 43.677612
55 0 1 -9.146063 -13.207040 43.694092
56 0 1 -8.944463 -13.809150 42.984589
57 0 1 -9.708563 -13.433249 42.694305
58 0 1 -9.808163 -13.443870 41.770508
59 0 1 -10.430863 -14.134749 41.943695
60 0 1 -10.361163 -14.797650 41.274689
61 0 1 -9.936662 -14.984950 40.383301
62 0 1 -9.453463 -14.207950 40.491089
63 0 1 -9.959262 -14.148551 39.691498
64 0 1 -10.126563 -14.102851 38.718994
65 0 1 -9.377362 -14.123050 38.138000
66 0 1 -9.580962 -14.390349 37.246704
67 0 1 -10.144462 -14.553851 36.469299
68 0 1 -10.256063 -13.549151 36.418396
69 0 1 -9.756863 -12.724191 36.170715
70 0 1 -9.819562 -13.125840 35.287689
71 0 1 -9.216063 -12.321429 35.380707
72 0 1 -8.536563 -12.270680 34.682404
73 0 1 -8.172664 -12.713700 35.497101
74 0 1 -7.273662 -12.287181 35.433502
75 0 1 -7.186362 -13.127631 35.809387
76 0 1 -6.281562 -12.728869 35.712006
77 0 1 -5.297763 -12.935010 35.732483
78 0 1 -5.383862 -12.667590 34.781189
79 0 1 -5.886264 -11.882522 34.470215
80 0 1 -5.193763 -11.453290 34.905884
81 0 1 -4.524463 -10.769401 34.532593
82 0 1 -4.669662 -10.753360 35.531494
83 0 1 -3.918262 -10.730430 36.219391
84 0 1 -3.344192 -11.202071 36.812805
85 0 1 -2.763722 -11.991540 36.909088
86 0 1 -3.420093 -12.365670 37.443604
87 0 1 -4.162562 -12.114341 38.035095
88 0 1 -4.258964 -11.204610 38.299713
89 0 1 -3.332152 -11.179580 38.708099
90 0 1 -3.694432 -10.703750 39.387512
91 0 1 -4.526961 -10.342420 38.990387
92 0 1 -4.060163 -9.478301 38.766388
93 0 1 -3.265822 -9.478751 39.392517
94 0 1 -2.750182 -9.108630 40.202209
95 0 1 -3.038663 -9.901980 40.692017
96 0 1 -3.059842 -10.595071 41.373993
97 0 1 -2.655082 -11.470740 41.220795
98 0 1 -2.062673 -11.986871 41.835602
99 0 1 -1.233272 -12.270181 42.220306
100 0 1 -1.688092 -12.881339 41.659698
101 0 1 -0.665542 -12.970080 41.424408
102 0 1 -0.051143 -12.555251 40.833710
103 0 1 0.192977 -12.846231 39.967194
104 0 1 -0.396132 -13.166461 39.279785
105 0 1 -0.104642 -12.959479 38.368103
106 0 1 0.457217 -13.700850 38.041107
107 0 1 0.518918 -13.018271 37.440002
108 0 1 1.323136 -12.680579 37.098694
109 0 1 2.114987 -12.181121 37.282013
110 0 1 2.866288 -12.771609 37.031708
111 0 1 3.652987 -13.113959 36.699493
112 0 1 4.455518 -12.512940 36.975098
113 0 1 4.658387 -11.921641 36.193787
114 0 1 4.306567 -11.586890 35.324188
115 0 1 5.030587 -12.053279 34.846985
116 0 1 4.684587 -11.631789 33.990692
117 0 1 4.483808 -10.676730 33.948486
118 0 1 5.359855 -10.709310 34.235687
119 0 1 6.129760 -10.634219 33.670197
120 0 1 7.061774 -10.557181 33.931396
121 0 1 6.815747 -9.721120 34.499512
122 0 1 7.364087 -9.594460 33.678101
123 0 1 7.047477 -9.489240 32.779602
124 0 1 6.671678 -8.663939 32.952209
125 0 1 5.776258 -8.351171 32.948608
126 0 1 5.368752 -8.251470 32.079590
127 0 1 5.657485 -7.392300 32.359406
128 0 1 5.206603 -6.763209 32.962708
129 0 1 5.690932 -7.338240 33.646301
130 0 1 6.360463 -6.625969 33.819000
131 0 1 5.517999 -6.341500 34.083984
132 0 1 5.635152 -6.078379 34.976898
133 0 1 6.242642 -6.710289 35.325287
134 0 1 6.800488 -6.160540 34.727417
135 0 1 7.053449 -5.238739 34.586395
136 0 1 6.667756 -5.492699 33.790802
137 0 1 7.072934 -5.901030 32.996002
138 0 1 7.687158 -5.941750 32.261414
139 0 1 7.898259 -6.720351 32.799408
140 0 1 8.791116 -6.397780 32.910004
141 0 1 8.440858 -5.476660 33.007812
142 0 1 9.340997 -5.197569 32.714508
143 0 1 9.801698 -4.548501 32.249817
144 0 1 9.522126 -3.742194 32.685486
145 0 1 8.595216 -3.429886 32.710815
146 0 1 8.775548 -3.031197 33.544403
147 0 1 9.599526 -2.987957 34.145508
148 0 1 9.868848 -3.783135 34.600189
149 0 1 9.323506 -4.317688 35.136597
150 0 1 9.306348 -3.747492 35.893890
151 0 1 10.205419 -3.479689 35.782196
152 0 1 10.914048 -3.398888 35.132507
153 0 1 10.759118 -4.281594 35.408295
154 0 1 11.185037 -4.100695 36.326904
155 0 1 11.738126 -3.952431 37.125397
156 0 1 11.779916 -4.040965 38.055786
157 0 1 12.430379 -3.470875 38.504303
158 0 1 12.706616 -3.527838 39.398590
159 0 1 13.513459 -3.467288 39.951996
160 0 1 12.836328 -2.969357 40.345886
161 0 1 13.433667 -2.905903 41.095093
162 0 1 14.308167 -2.708527 41.514709
163 0 1 14.014649 -2.399340 42.336609
164 0 1 13.590837 -3.219836 42.279205
165 0 1 12.953469 -2.530329 42.073914
166 0 1 12.427827 -2.736664 42.838806
167 0 1 12.400689 -3.567381 43.325989
168 0 1 12.387486 -3.687171 44.269287
169 0 1 12.054067 -3.098099 44.944611
170 0 1 11.697236 -2.191670 44.708191
171 0 1 11.005586 -1.699172 45.154999
172 0 1 10.101548 -1.868449 45.469788
173 0 1 10.711396 -1.789832 46.291199
174 0 1 10.108388 -1.178549 46.567108
175 0 1 10.500058 -1.477290 47.478790
176 0 1 9.622956 -1.392310 47.823212
177 0 1 9.744676 -0.478350 47.994293
178 0 1 8.721128 -0.583109 48.051392
179 0 1 7.896577 -0.726859 47.639008
180 0 1 6.901402 -0.451739 47.795990
181 0 1 6.766166 0.078210 47.003693
182 0 1 5.928800 -0.390711 47.276001
183 0 1 5.719827 -1.340010 47.311493
184 0 1 5.745284 -1.252188 48.304199
185 0 1 5.792800 -1.770018 49.097900
186 0 1 5.610644 -2.597807 48.651306
187 0 1 5.141017 -3.251790 48.121796
188 0 1 5.395341 -3.185198 47.178406
189 0 1 5.442245 -2.716786 46.369995
190 0 1 4.882438 -3.443028 46.202698
191 0 1 4.550998 -3.958594 45.503784
192 0 1 5.352393 -3.816493 44.894989
193 0 1 4.592727 -3.505826 44.398590
194 0 1 4.651708 -2.836491 43.639709
195 0 1 5.489032 -2.568022 44.062592
196 0 1 4.859258 -2.299439 44.724915
197 0 1 5.328988 -1.556708 44.474304
198 0 1 4.843867 -1.567408 43.587494
199 0 1 4.377458 -1.553061 42.693787
200 0 1 4.902287 -0.741839 42.597107
201 0 1 5.671594 -0.279749 42.798187
202 0 1 6.035007 -1.140910 42.846313
203 0 1 6.648423 -0.687281 43.422211
204 0 1 6.698152 -0.414031 44.357117
205 0 1 6.486028 0.447648 44.025696
206 0 1 5.630004 0.150152 44.231384
207 0 1 5.425801 0.561372 45.115784
208 0 1 5.015298 0.982831 45.855011
209 0 1 5.611161 1.649148 46.250488
210 0 1 6.510936 1.496210 45.964813
211 0 1 6.509614 2.328020 46.452698
212 0 1 6.398664 3.269731 46.433289
213 0 1 5.898070 4.053300 46.730896
214 0 1 5.199756 4.042161 47.405304
215 0 1 4.791547 4.023691 48.302887
216 0 1 3.983157 3.488801 48.153809
217 0 1 3.935267 2.779390 48.912201
218 0 1 3.980407 3.488130 49.575104
219 0 1 4.903207 3.343858 49.344696
220 0 1 5.625957 3.619592 49.829590
221 0 1 6.556975 3.726968 49.446198
222 0 1 6.954049 2.981290 48.940186
223 0 1 7.312016 2.131898 48.679504
224 0 1 7.935697 2.699590 49.276703
225 0 1 8.485559 1.898881 48.990601
226 0 1 9.376916 1.987749 49.255890
227 0 1 9.166348 2.871480 48.804199
228 0 1 9.857797 3.190549 48.217010
229 0 1 10.659429 2.789060 47.919495
230 0 1 10.312009 3.065469 47.094696
231 0 1 11.059419 2.837312 46.477997
232 0 1 11.471917 3.148630 47.303589
233 0 1 12.164098 3.692079 47.735992
234 0 1 13.046006 3.378309 47.333008
235 0 1 13.575158 2.871591 47.904205
236 0 1 14.406186 2.614751 48.271210
237 0 1 13.869748 1.873109 48.409912
238 0 1 13.770165 2.176172 49.253784
239 0 1 13.673749 3.026788 49.709412
240 0 1 13.776147 3.966100 49.576599
241 0 1 14.319306 4.269849 50.333801
242 0 1 14.408208 5.193151 50.724609
243 0 1 13.938928 5.746339 51.333405
244 0 1 13.980077 6.718351 51.248596
245 0 1 14.928418 6.796449 50.936096
246 0 1 14.798097 7.654748 50.675812
247 0 1 13.953038 7.358049 50.356506
248 0 1 13.091226 7.225049 50.623108
249 0 1 12.683297 7.214349 49.762207
250 0 1 12.400277 6.349790 50.025604
251 0 1 11.456597 6.406789 49.889496
252 0 1 10.922147 7.045049 50.351685
253 0 1 10.178948 6.688249 49.901398
254 0 1 9.384988 7.052251 50.292389
255 0 1 8.863736 6.960950 51.169189
256 0 1 8.688596 7.608751 51.865387
257 0 1 8.087808 8.281850 52.248505
258 0 1 7.100816 8.328752 52.070312
259 0 1 6.452800 7.717149 52.386505
260 0 1 7.057841 8.044148 53.122406
261 0 1 7.725347 7.365350 52.833008
262 0 1 8.133027 6.558549 53.122009
263 0 1 8.822267 7.298250 52.949310
264 0 1 8.813539 7.601751 53.867889
265 0 1 9.391919 7.100851 54.479401
266 0 1 9.158349 6.325021 54.981689
267 0 1 8.487947 7.006349 55.290405
268 0 1 7.528287 6.868349 55.145111
269 0 1 6.931409 6.058309 55.249084
270 0 1 6.328990 6.221521 56.017792
271 0 1 6.338576 5.321519 55.728302
272 0 1 6.178115 4.498872 56.140015
273 0 1 6.869061 4.284200 56.820190
274 0 1 6.015651 3.855459 57.077209
275 0 1 5.741006 4.301672 57.819489
276 0 1 4.877147 4.515901 58.283997
277 0 1 4.076247 4.927270 58.593384
278 0 1 3.157826 4.766191 58.518097
279 0 1 2.317027 4.585821 59.000092
280 0 1 2.283837 5.235330 59.693207
281 0 1 2.001418 5.878610 59.021301
282 0 1 1.931706 6.781648 59.388092
283 0 1 1.025228 7.118650 59.485413
284 0 1 1.068658 6.273679 58.787201
285 0 1 0.223628 6.041902 58.437897
286 0 1 0.187167 5.061738 58.625305
287 0 1 1.111978 4.952791 59.031708
288 0 1 1.383878 4.790361 58.106110
289 0 1 1.900228 5.092332 57.319702
290 0 1 1.253247 4.920560 56.662598
291 0 1 0.802197 4.143072 56.841400
292 0 1 1.701798 3.965501 56.853516
293 0 1 2.040387 3.763269 55.946594
294 0 1 1.291478 3.202150 56.194397
295 0 1 0.690068 2.475091 56.462097
296 0 1 0.041017 2.565141 55.716400
297 0 1 -0.114673 2.573602 54.764191
298 0 1 0.722398 2.186719 54.661407
299 0 1 1.011697 1.797819 55.438690
300 0 1 1.277007 1.083120 54.853790
301 0 1 0.930587 0.274339 54.566406
302 0 1 0.070207 0.680040 54.524597
303 0 1 -0.765342 0.825540 54.987610
304 0 1 -1.529063 1.241102 55.294403
305 0 1 -1.498992 2.169729 55.014099
306 0 1 -1.380122 2.180311 54.044006
307 0 1 -1.069732 3.082979 54.132904
308 0 1 -1.093802 3.771421 53.491913
309 0 1 -1.428212 4.351942 52.769592
310 0 1 -0.656512 4.870889 52.327911
311 0 1 -0.889043 5.809610 52.039612
312 0 1 -0.673772 5.817239 53.025299
313 0 1 -0.907422 6.766252 52.619690
314 0 1 -0.855653 7.617151 53.081604
315 0 1 -0.746562 8.401452 53.585693
316 0 1 -1.556582 8.564649 52.935608
317 0 1 -1.967193 8.048852 53.636108
318 0 1 -2.567561 7.582551 52.944794
319 0 1 -2.599181 7.856950 52.042114
320 0 1 -2.963233 8.604550 51.557404
321 0 1 -2.106603 8.965951 51.369690
322 0 1 -1.200612 8.868749 51.042206
323 0 1 -0.362243 9.474748 51.225403
324 0 1 -0.091493 10.108949 50.546692
325 0 1 0.511887 9.914849 49.776489
326 0 1 0.750207 8.994050 49.561493
327 0 1 0.967147 8.101548 49.381897
328 0 1 1.480058 7.273950 49.586395
329 0 1 2.076718 6.594350 49.225800
330 0 1 1.660037 6.261598 48.362488
331 0 1 2.104688 5.986711 47.543396
332 0 1 2.656648 6.311769 46.810791
333 0 1 2.997247 5.894639 46.017212
334 0 1 3.570727 6.646051 45.800598
335 0 1 3.892817 7.300951 45.252197
336 0 1 3.893147 7.936952 44.515991
337 0 1 3.422757 8.660150 44.012390
338 0 1 2.654168 9.146951 43.648712
339 0 1 2.951587 9.905351 43.147217
340 0 1 3.100247 9.874551 42.209290
341 0 1 2.864497 10.535050 41.536713
342 0 1 3.519818 11.285951 41.288208
343 0 1 3.568078 12.214250 41.627106
344 0 1 3.851478 13.062249 42.008209
345 0 1 3.795497 13.308351 41.099091
346 0 1 3.803298 14.232350 40.756287
347 0 1 3.758067 14.904748 40.011993
348 0 1 2.880437 14.506150 40.240997
349 0 1 3.193528 13.609250 40.002289
350 0 1 2.953807 12.682748 39.821594
351 0 1 2.877707 11.717950 39.750793
352 0 1 3.817157 11.757451 39.884888
353 0 1 3.986018 11.683148 38.967194
354 0 1 3.916848 10.927251 38.266113
355 0 1 3.219157 10.985749 37.586609
356 0 1 2.356418 10.565949 37.614990
357 0 1 1.922917 10.897851 38.355804
358 0 1 1.902667 11.817349 38.776001
359 0 1 1.213468 11.528749 39.340698
360 0 1 1.617297 10.757951 39.770111
361 0 1 0.884458 10.439851 40.360291
362 0 1 0.352397 11.042649 40.970886
363 0 1 0.996507 11.473847 40.472107
364 0 1 0.365527 12.125249 40.696991
365 0 1 1.051316 12.545850 40.164703
366 0 1 0.686637 12.768250 39.249695
367 0 1 0.293107 13.574250 38.882111
368 0 1 0.126227 13.924150 39.806702
369 0 1 -0.453452 14.220147 40.513702
370 0 1 -0.357204 15.144952 40.146606
371 0 1 -0.548303 15.690351 40.927399
372 0 1 -1.302413 15.466752 41.486298
373 0 1 -1.680543 16.104952 42.080597
374 0 1 -1.122252 16.266253 42.824097
375 0 1 -1.786723 16.778452 43.258209
376 0 1 -2.604651 16.296053 42.992096
377 0 1 -3.109721 15.536450 43.148590
378 0 1 -3.301253 14.602548 43.122406
379 0 1 -4.249963 14.491052 43.133301
380 0 1 -4.763463 14.484651 42.310211
381 0 1 -5.222762 14.918950 41.613495
382 0 1 -4.825164 15.486249 40.973297
383 0 1 -4.014064 15.912950 41.413300
384 0 1 -4.146663 16.100153 42.426208
385 0 1 -4.924563 16.551851 42.805603
386 0 1 -5.933364 16.672052 42.955200
387 0 1 -6.332562 16.129251 42.169617
388 0 1 -6.839362 15.615750 41.540894
389 0 1 -6.447162 14.885148 41.002991
390 0 1 -6.735862 14.441850 41.792999
391 0 1 -6.352363 13.760247 42.419983
392 0 1 -7.073863 13.357850 41.951691
393 0 1 -6.751761 13.430650 40.982391
394 0 1 -7.153361 14.210149 40.501587
395 0 1 -6.422961 13.758248 39.972412
396 0 1 -5.625663 13.584847 39.395203
397 0 1 -5.122962 12.775250 39.626495
398 0 1 -4.974063 12.964650 40.561188
399 0 1 -4.242562 12.312249 40.725586
400 0 1 -4.558364 12.219750 41.605103
401 0 1 -3.900363 11.541650 41.905792
402 0 1 -3.587771 12.511350 41.979095
403 0 1 -2.610673 12.341149 41.903900
404 0 1 -2.710383 12.123948 40.967590
405 0 1 -2.692561 11.265649 41.402008
406 0 1 -2.578982 10.475648 40.856995
407 0 1 -2.662673 10.196050 39.918091
408 0 1 -3.106772 10.951051 39.510712
409 0 1 -3.703712 10.892549 38.784302
410 0 1 -4.353461 11.547051 38.591187
411 0 1 -4.142562 11.139451 37.755798
412 0 1 -3.478602 11.694650 37.376709
413 0 1 -2.884212 11.754151 36.665100
414 0 1 -2.746343 12.472951 36.088684
415 0 1 -3.054442 13.151750 35.557404
416 0 1 -4.038663 13.221452 35.440796
417 0 1 -3.947963 13.922051 36.102112
418 0 1 -4.577363 14.611550 36.247192
419 0 1 -5.433063 14.341348 36.498810
420 0 1 -6.127063 14.527947 35.858398
421 0 1 -6.988963 14.765351 36.017792
422 0 1 -6.628062 14.110047 36.620911
423 0 1 -6.845862 13.171350 36.425415
424 0 1 -6.601163 12.221551 36.242004
425 0 1 -6.296662 12.257649 35.333191
426 0 1 -5.696563 11.716249 35.868896
427 0 1 -5.045262 11.033952 35.730408
428 0 1 -4.224162 10.573949 36.118500
429 0 1 -4.050761 10.403050 35.164612
430 0 1 -3.416083 9.810849 34.770599
431 0 1 -4.058162 9.108750 34.869507
432 0 1 -4.184962 8.153550 34.915588
433 0 1 -4.357364 8.202451 33.988403
434 0 1 -4.076762 9.132451 33.772308
435 0 1 -4.279063 8.924249 32.832092
436 0 1 -5.184962 9.109349 32.752899
437 0 1 -5.422063 8.173249 33.000092
438 0 1 -4.826861 7.442251 32.665405
439 0 1 -4.405463 6.720850 32.212585
440 0 1 -3.542863 6.706949 31.974487
441 0 1 -2.810863 6.045030 32.016296
442 0 1 -3.271602 5.299619 32.481812
443 0 1 -3.364741 4.817670 33.324188
444 0 1 -3.633052 5.190889 34.163910
445 0 1 -3.716542 5.856161 34.894501
446 0 1 -3.309161 5.079130 35.364899
447 0 1 -3.630012 4.471620 35.961395
448 0 1 -3.836661 3.589551 35.765808
449 0 1 -3.932761 3.833299 34.792114
450 0 1 -3.574603 3.717969 33.890198
451 0 1 -3.608012 3.617399 32.890198
452 0 1 -4.034263 2.745180 33.130890
453 0 1 -4.529464 2.740270 32.299194
454 0 1 -4.422563 3.070791 31.395996
455 0 1 -4.699862 2.301759 30.864014
456 0 1 -4.116061 2.532781 30.201904
457 0 1 -3.698043 1.679529 30.165405
458 0 1 -4.224763 0.874872 30.297302
459 0 1 -4.351163 0.086229 30.815186
460 0 1 -3.871263 -0.623332 31.180298
461 0 1 -4.430663 -0.145709 31.755005
462 0 1 -5.321063 -0.395579 31.862488
463 0 1 -5.474162 -1.279231 32.245911
464 0 1 -4.875163 -2.021269 32.136902
465 0 1 -4.523263 -2.319550 33.011902
466 0 1 -4.740462 -3.090809 33.658813
467 0 1 -4.943164 -3.762661 32.985504
468 0 1 -5.198161 -4.685030 33.112488
469 0 1 -5.583564 -4.870289 33.988708
470 0 1 -6.414462 -4.467061 33.759003
471 0 1 -7.347262 -4.178725 33.460999
472 0 1 -7.998961 -3.558112 33.034790
473 0 1 -7.520062 -3.164172 32.310303
474 0 1 -7.579263 -3.382842 31.398010
475 0 1 -8.093762 -4.049548 30.951294
476 0 1 -7.639462 -4.560000 31.657806
477 0 1 -6.722463 -4.622309 31.571503
478 0 1 -6.727263 -4.122126 30.691284
479 0 1 -6.716262 -3.169028 30.662292
480 0 1 -5.869761 -3.635563 30.934509
481 0 1 -5.414561 -4.403988 31.199097
482 0 1 -5.554563 -5.101189 30.595093
483 0 1 -4.676263 -4.746500 30.429688
484 0 1 -4.374362 -4.108305 29.736908
485 0 1 -4.865462 -3.532197 29.136902
486 0 1 -4.595363 -2.667250 29.406799
487 0 1 -4.795663 -2.546767 28.472290
488 0 1 -5.381263 -2.898989 27.789093
489 0 1 -5.771762 -2.154231 27.313995
490 0 1 -5.087163 -2.225079 26.626587
491 0 1 -5.515563 -3.111958 26.511597
492 0 1 -4.932063 -3.757357 26.983795
493 0 1 -4.101262 -4.063643 26.526794
494 0 1 -3.546332 -3.777148 25.725494
495 0 1 -3.137082 -2.970259 25.916504
496 0 1 -3.135922 -1.995909 26.003387
497 0 1 -2.435863 -1.247019 25.996887
498 0 1 -2.853732 -1.138850 25.134491
499 0 1 -3.510213 -0.559199 24.825409
500 0 1 -3.449473 -0.377879 25.749512
501 0 1 -3.725602 0.469018 25.416901
502 0 1 -4.321063 0.626420 24.662415
503 0 1 -4.850963 1.495088 24.700806
504 0 1 -4.403262 1.922140 25.432495
505 0 1 -4.381461 2.444372 26.263306
506 0 1 -3.456412 2.504220 25.952301
507 0 1 -2.966933 3.259092 26.213806
508 0 1 -3.263062 3.821279 26.924408
509 0 1 -4.006461 3.161592 27.056091
510 0 1 -4.563663 3.053590 27.891907
511 0 1 -4.694762 2.148599 27.543884
512 0 1 -5.530263 2.355009 27.924194
513 0 1 -5.538762 2.829141 26.963409
514 0 1 -6.443362 2.941389 26.686310
515 0 1 -7.318164 3.170171 26.480499
516 0 1 -7.185962 2.478040 25.910797
517 0 1 -6.303962 2.219121 25.825409
518 0 1 -6.218963 2.774251 25.037201
519 0 1 -6.065963 1.857202 24.723999
520 0 1 -5.892262 1.711759 23.773102
521 0 1 -5.389863 2.512899 23.640289
522 0 1 -5.919063 3.337781 23.574402
523 0 1 -6.826962 3.611532 23.250305
524 0 1 -6.423463 4.349290 22.620605
525 0 1 -6.227662 5.072992 23.309601
526 0 1 -6.107263 5.458971 24.211212
527 0 1 -5.783462 6.064020 23.535095
528 0 1 -6.421561 6.666452 23.154694
529 0 1 -6.003762 7.236352 22.529297
530 0 1 -5.364661 6.845350 21.955704
531 0 1 -5.660462 6.040330 22.371506
532 0 1 -6.566764 5.757619 22.455002
533 0 1 -6.370261 5.205450 21.726700
534 0 1 -5.566863 5.213300 21.184906
535 0 1 -4.970061 5.070791 20.474792
536 0 1 -5.775264 5.246091 20.027008
537 0 1 -6.303561 5.506559 19.286606
538 0 1 -5.576861 5.952478 18.821106
539 0 1 -5.150561 5.716119 18.011795
540 0 1 -4.249562 6.057008 18.472397
541 0 1 -3.340861 6.479742 18.321701
542 0 1 -3.188563 7.317049 17.853806
543 0 1 -2.501782 7.068948 17.245895
544 0 1 -2.896522 6.209692 17.396301
545 0 1 -3.658362 6.145719 16.772598
546 0 1 -3.505452 6.697950 15.988403
547 0 1 -3.304612 5.766790 15.825302
548 0 1 -2.651343 5.303331 16.360794
549 0 1 -2.001723 4.646928 16.521896
550 0 1 -1.673882 4.885381 15.604202
551 0 1 -0.720042 5.200269 15.625107
552 0 1 -0.314912 5.561941 14.788498
553 0 1 -0.743632 5.750299 13.960297
554 0 1 -1.542342 5.654871 13.450302
555 0 1 -2.133613 5.348360 12.766403
556 0 1 -3.066743 5.461938 12.604202
557 0 1 -3.017333 4.819921 13.312805
558 0 1 -3.081893 4.693780 14.265503
559 0 1 -3.976462 4.427289 13.993301
560 0 1 -4.020463 4.659589 14.869507
561 0 1 -4.794864 4.180200 15.036697
562 0 1 -4.838363 4.448740 15.960403
563 0 1 -5.112662 3.728681 16.578598
564 0 1 -4.212962 3.971971 16.563797
565 0 1 -3.708121 3.902292 15.653000
566 0 1 -3.699973 3.009901 16.043503
567 0 1 -3.977462 2.138189 15.917908
568 0 1 -3.841262 1.395250 16.477509
569 0 1 -4.019162 0.737260 17.096695
570 0 1 -3.996062 0.735280 18.078201
571 0 1 -3.070231 0.605058 17.779602
572 0 1 -2.670922 0.942602 18.614304
573 0 1 -2.563252 0.482690 19.459595
574 0 1 -2.037162 0.955388 20.048203
575 0 1 -2.375842 1.795701 20.330795
576 0 1 -2.456943 1.351949 21.181503
577 0 1 -1.682773 1.413621 21.751801
578 0 1 -1.189322 0.621820 21.622604
579 0 1 -0.881932 0.435499 22.554108
580 0 1 -0.098872 0.373861 21.970596
581 0 1 0.205518 0.307908 21.028595
582 0 1 0.027837 -0.558959 21.343796
583 0 1 -0.116523 -1.487200 21.274796
584 0 1 0.110658 -2.407090 21.342606
585 0 1 0.058846 -2.463521 22.330994
586 0 1 -0.634612 -2.851408 22.966003
587 0 1 -0.240382 -3.220395 23.745300
588 0 1 0.710748 -3.427411 23.675995
589 0 1 1.504018 -2.852358 23.792999
590 0 1 0.640437 -2.480340 24.056396
591 0 1 1.162948 -3.069626 24.665894
592 0 1 0.900128 -3.445940 25.482605
593 0 1 0.922387 -4.389702 25.439392
594 0 1 0.766757 -4.170346 26.403198
595 0 1 1.099217 -3.300766 26.646698
596 0 1 1.960477 -3.050436 26.311890
597 0 1 2.799228 -3.385603 26.014313
598 0 1 3.132937 -4.297076 26.092102
599 0 1 3.321868 -3.752591 26.875916
600 0 1 4.057868 -4.286007 26.916595
601 0 1 4.778197 -4.587769 27.474396
602 0 1 4.269008 -4.979689 28.213104
603 0 1 3.823897 -5.851490 28.201904
604 0 1 4.789887 -5.923739 28.267914
605 0 1 5.052167 -6.757729 28.563904
606 0 1 4.524888 -6.876719 27.756805
607 0 1 4.059817 -7.328049 26.965790
608 0 1 4.035527 -6.699660 26.189087
609 0 1 3.693547 -7.035330 25.275604
610 0 1 4.701127 -6.915471 25.276611
611 0 1 5.495700 -7.002379 25.852814
612 0 1 5.664973 -6.610280 25.009308
613 0 1 5.347239 -5.697459 25.126801
614 0 1 5.726823 -5.439589 24.304688
615 0 1 5.211673 -5.911641 23.617004
616 0 1 5.917754 -5.513899 23.155487
617 0 1 6.559705 -5.104020 22.685394
618 0 1 7.486968 -4.928490 22.403000
619 0 1 8.232938 -4.958979 22.983795
620 0 1 8.428826 -5.718859 22.417099
621 0 1 8.058969 -6.670010 22.497696
622 0 1 7.543948 -7.330420 22.105804
623 0 1 6.854411 -7.930790 21.805908
624 0 1 7.342088 -7.394650 21.057602
625 0 1 6.508746 -7.639439 20.614502
626 0 1 6.432969 -6.665360 20.617599
627 0 1 5.735610 -5.980740 20.890396
628 0 1 5.113908 -6.287640 20.268402
629 0 1 4.172038 -6.031640 20.203598
630 0 1 4.255008 -5.985810 19.287506
631 0 1 4.979018 -5.351660 19.473602
632 0 1 5.625566 -5.166770 18.787903
633 0 1 5.858575 -5.370320 17.888596
634 0 1 5.529712 -5.506859 16.939804
635 0 1 4.614867 -5.820189 16.762894
636 0 1 3.698287 -5.741890 16.581894
637 0 1 2.782067 -5.875760 16.923096
638 0 1 2.526877 -6.687060 17.354706
639 0 1 1.675538 -6.594861 16.844696
640 0 1 1.071437 -6.334450 16.169098
641 0 1 0.430907 -7.132910 16.482498
642 0 1 0.126248 -8.041739 16.620804
643 0 1 0.883897 -8.504670 17.010193
644 0 1 1.500688 -8.658971 16.361206
645 0 1 2.320397 -8.775250 16.794907
646 0 1 2.546357 -9.426820 17.480804
647 0 1 2.812547 -10.365901 17.685501
648 0 1 2.708917 -11.301961 17.562103
649 0 1 1.862058 -10.825471 17.395294
650 0 1 1.219237 -11.528110 17.227203
651 0 1 0.497018 -12.196570 17.480606
652 0 1 0.215447 -12.935611 18.060303
653 0 1 -0.166192 -12.702380 18.957794
654 0 1 -0.786384 -12.560561 19.731506
655 0 1 -0.427093 -11.707759 19.348907
656 0 1 -1.367904 -11.794780 19.089294
657 0 1 -2.302083 -11.480550 18.985794
658 0 1 -2.560452 -11.897262 18.159805
659 0 1 -3.169284 -12.384871 18.796600
660 0 1 -3.413833 -12.803460 17.990997
661 0 1 -3.801473 -13.690951 17.939392
662 0 1 -4.676463 -13.838050 18.303406
663 0 1 -4.815463 -13.214511 17.560303
664 0 1 -5.218162 -12.326079 18.000793
665 0 1 -5.401263 -11.763551 17.202194
666 0 1 -5.769664 -10.892131 17.523804
667 0 1 -6.362363 -10.668191 16.753799
668 0 1 -6.486463 -10.075471 17.546097
669 0 1 -7.267962 -10.646121 17.766098
670 0 1 -7.780263 -9.858960 17.960693
671 0 1 -8.346863 -10.316461 18.594803
672 0 1 -8.920962 -10.878190 19.118408
673 0 1 -9.042163 -11.853320 18.898499
674 0 1 -9.771663 -11.566310 19.505798
675 0 1 -9.681362 -11.907130 20.421692
676 0 1 -8.824463 -12.097239 20.191605
677 0 1 -8.035163 -12.677070 20.243500
678 0 1 -8.122863 -13.408731 20.817108
679 0 1 -7.350263 -13.342921 21.311798
680 0 1 -7.477263 -14.256049 21.278595
681 0 1 -7.836263 -15.009851 21.746796
682 0 1 -8.816362 -14.876451 21.821701
683 0 1 -9.261163 -14.098750 21.656494
684 0 1 -9.593163 -13.110831 21.640701
685 0 1 -10.374663 -12.902650 22.249695
686 0 1 -10.624362 -13.013301 21.299606
687 0 1 -10.477063 -13.639152 20.575500
688 0 1 -10.491963 -14.662749 20.444397
689 0 1 -10.538463 -14.806449 21.385101
690 0 1 -11.077662 -15.595450 21.836899
691 0 1 -11.462262 -15.238952 21.051605
692 0 1 -12.182263 -15.418450 20.344696
693 0 1 -12.982463 -15.069251 19.911194
694 0 1 -12.725062 -16.015949 19.677597
695 0 1 -13.628062 -16.603548 19.839600
696 0 1 -14.548863 -16.259951 20.033997
697 0 1 -15.406463 -15.857951 19.901794
698 0 1 -15.366662 -14.945251 19.411194
699 0 1 -14.538663 -14.807151 18.980804
700 0 1 -14.342763 -15.687449 19.226303
701 0 1 -13.753963 -15.987651 18.540298
702 0 1 -12.869363 -15.501349 18.670593
703 0 1 -12.409263 -16.174349 18.222595
704 0 1 -11.929662 -16.999250 18.303894
705 0 1 -11.489263 -17.286848 17.478195
706 0 1 -10.725562 -17.700048 17.035995
707 0 1 -10.398063 -18.604750 17.002899
708 0 1 -10.143363 -18.188749 16.116608
709 0 1 -9.569263 -17.448549 16.273193
710 0 1 -8.994062 -16.705050 16.644302
711 0 1 -8.090762 -16.945549 16.436600
712 0 1 -7.798362 -17.369848 15.630493
713 0 1 -7.020862 -17.667549 15.135803
714 0 1 -6.631663 -17.220249 14.330399
715 0 1 -6.939563 -16.624250 13.614105
716 0 1 -6.497663 -15.713851 13.688095
717 0 1 -6.895362 -14.918950 13.886002
718 0 1 -6.137563 -14.681350 13.374405
719 0 1 -6.473363 -13.939052 12.888000
720 0 1 -6.416562 -12.993911 12.591003
721 0 1 -6.700164 -12.950610 11.694702
722 0 1 -6.320361 -12.079650 11.772293
723 0 1 -6.184764 -11.568019 11.029602
724 0 1 -7.047362 -11.352931 11.453903
725 0 1 -6.474162 -10.696719 11.950104
726 0 1 -6.987863 -10.350240 11.229202
727 0 1 -7.865764 -10.057601 10.923996
728 0 1 -8.088363 -10.238551 10.013199
729 0 1 -8.793062 -9.589141 10.306000
730 0 1 -8.226663 -9.135409 9.722076
731 0 1 -7.479062 -8.701261 9.272537
732 0 1 -7.097362 -9.521091 9.565613
733 0 1 -6.179461 -9.234431 9.295425
734 0 1 -6.078563 -9.615321 8.403091
735 0 1 -5.886163 -10.286361 7.670959
736 0 1 -6.736861 -10.234321 7.140823
737 0 1 -7.672664 -10.244771 6.829178
738 0 1 -8.083163 -9.694470 6.145142
739 0 1 -7.166862 -9.693570 5.950745
740 0 1 -6.738362 -8.869521 6.171005
741 0 1 -6.168363 -8.944551 5.328308
742 0 1 -5.905063 -8.228551 4.764557
743 0 1 -6.659663 -8.569831 4.250427
744 0 1 -6.563064 -7.601470 4.082291
745 0 1 -7.257962 -7.602650 4.736496
746 0 1 -7.527862 -6.681820 4.722153
747 0 1 -8.027762 -5.977351 4.279007
748 0 1 -7.887961 -5.751250 5.232819
749 0 1 -6.963862 -5.503951 5.117157
750 0 1 -6.576362 -4.826609 4.584274
751 0 1 -5.681462 -4.603110 4.376358
752 0 1 -6.246463 -3.841986 4.402069
753 0 1 -6.394961 -3.643733 5.307816
754 0 1 -5.458762 -3.542576 5.423950
755 0 1 -5.073562 -3.673111 6.318207
756 0 1 -4.762061 -2.855547 6.687256
757 0 1 -5.701762 -2.482680 6.652924
758 0 1 -6.537763 -2.636813 7.096268
759 0 1 -7.482062 -3.025012 7.004333
760 0 1 -8.303863 -3.441487 6.470566
761 0 1 -8.067363 -3.514258 5.498413
762 0 1 -7.479163 -2.726914 5.430954
763 0 1 -8.152463 -2.322760 4.917480
764 0 1 -7.550464 -1.806731 4.313766
765 0 1 -8.163962 -1.559081 3.576202
766 0 1 -8.305362 -0.688651 4.001373
767 0 1 -8.822263 -0.455519 3.219513
768 0 1 -9.433662 -0.121100 2.600601
769 0 1 -8.736463 -0.166998 1.930420
770 0 1 -8.006763 -0.725741 1.794266
771 0 1 -7.437163 -1.482051 1.964844
772 0 1 -7.003762 -2.049519 2.592133
773 0 1 -6.664763 -2.939065 2.761276
774 0 1 -5.847564 -3.357768 2.996140
775 0 1 -5.331763 -3.749756 3.775818
776 0 1 -4.795863 -3.005560 3.610596
777 0 1 -4.914962 -2.112219 3.626389
778 0 1 -4.618463 -2.142060 2.698715
779 0 1 -4.512763 -2.319649 1.757477
780 0 1 -3.835261 -1.935191 1.194244
781 0 1 -2.915193 -1.947631 1.104019
782 0 1 -2.440312 -2.527194 1.678741
783 0 1 -2.033252 -1.596350 1.676880
784 0 1 -2.454333 -1.282488 2.481766
785 0 1 -1.636191 -1.316119 2.969208
786 0 1 -1.189193 -1.960028 3.598434
787 0 1 -1.335563 -1.471919 4.373138
788 0 1 -1.393443 -1.478469 5.343674
789 0 1 -2.139533 -2.013070 4.943848
790 0 1 -2.188601 -2.416560 4.058304
791 0 1 -2.381244 -3.140196 3.507675
792 0 1 -1.770343 -2.726531 2.801926