LAMMPS data file via MDAnalysis

        2000  atoms
        1999  bonds
           0  angles
           0  dihedrals
           0  impropers

           1  atom types
           1  bond types
           0  angle types
           0  dihedral types
           0  improper types

-30.5 30.5 xlo xhi
-30.5 30.5 ylo yhi
-233.5 233.5 zlo zhi


Masses

1 1.000000

Atoms

1 0 1 17.360527 -11.925965 53.075195
2 0 1 16.881325 -11.241265 53.507690
3 0 1 16.781425 -11.352666 54.488586
4 0 1 17.228424 -10.508865 54.596313
5 0 1 17.577625 -10.485367 53.724487
6 0 1 17.883026 -9.690365 54.107483
7 0 1 18.694626 -9.232567 54.459503
8 0 1 19.148224 -8.408766 54.153900
9 0 1 19.204426 -7.481464 54.042206
10 0 1 20.025326 -7.957866 54.070404
11 0 1 19.987823 -8.541565 53.228912
12 0 1 20.767925 -8.009565 53.144806
13 0 1 20.277824 -7.493165 52.506104
14 0 1 19.355827 -7.506265 52.613708
15 0 1 18.914627 -6.962566 52.014587
16 0 1 18.240326 -6.529165 52.538300
17 0 1 18.756725 -5.690235 52.496399
18 0 1 19.354126 -5.737245 53.349792
19 0 1 19.618126 -4.784715 53.606506
20 0 1 19.965626 -4.645875 52.682190
21 0 1 20.650326 -3.976585 52.342987
22 0 1 20.371025 -3.659576 51.531403
23 0 1 19.821823 -2.935504 51.129395
24 0 1 19.233627 -2.398485 51.698914
25 0 1 18.300526 -2.230594 51.473389
26 0 1 18.071327 -2.832056 50.782104
27 0 1 17.176926 -3.103706 50.512604
28 0 1 17.708923 -3.661125 49.898804
29 0 1 17.661526 -3.012836 49.149994
30 0 1 16.910126 -2.401365 49.053711
31 0 1 16.213028 -2.300655 48.399994
32 0 1 15.460126 -2.896755 48.458008
33 0 1 15.097825 -2.243715 47.911896
34 0 1 14.185826 -1.844295 47.750702
35 0 1 13.224526 -1.972435 47.496613
36 0 1 12.352326 -1.676975 47.151184
37 0 1 12.437825 -1.059255 46.412506
38 0 1 11.504426 -1.409395 46.412994
39 0 1 11.135526 -0.814306 47.032806
40 0 1 11.993825 -0.501955 47.455017
41 0 1 11.574327 -0.008255 48.127411
42 0 1 10.562425 0.060475 48.163300
43 0 1 10.738526 0.663205 47.452698
44 0 1 10.772126 0.216605 46.575592
45 0 1 10.490426 1.154006 46.560699
46 0 1 9.480325 1.133925 46.451691
47 0 1 8.768525 0.690745 47.012390
48 0 1 9.245225 0.171114 46.360901
49 0 1 9.682328 0.413186 45.581116
50 0 1 9.273927 -0.417736 45.311890
51 0 1 8.299478 -0.315025 45.740387
52 0 1 7.590245 -0.894035 45.376007
53 0 1 7.464105 -1.866535 45.241089
54 0 1 6.802495 -2.541706 45.313110
55 0 1 7.352296 -3.341125 45.050812
56 0 1 6.647218 -3.209224 44.462311
57 0 1 7.033257 -4.102186 44.432800
58 0 1 7.601567 -4.437767 45.161987
59 0 1 7.521806 -5.016145 46.011810
60 0 1 6.608136 -4.868665 45.705017
61 0 1 6.754579 -5.877796 45.488495
62 0 1 6.254518 -6.562265 44.898102
63 0 1 5.859097 -6.844566 45.687317
64 0 1 6.350095 -7.599666 45.959808
65 0 1 7.098535 -7.836265 45.379608
66 0 1 7.791726 -8.306267 44.946594
67 0 1 8.654725 -8.321266 45.366699
68 0 1 8.386125 -8.597965 46.245300
69 0 1 8.854726 -8.664665 47.096985
70 0 1 8.120366 -8.040565 47.316193
71 0 1 8.492967 -7.155666 47.544983
72 0 1 9.440026 -7.339164 47.620087
73 0 1 10.259427 -7.699165 47.829193
74 0 1 10.159226 -7.799564 46.864105
75 0 1 10.008225 -8.629467 47.330292
76 0 1 9.759625 -9.469967 46.907196
77 0 1 9.876225 -9.297165 45.956390
78 0 1 8.969628 -9.314766 45.638092
79 0 1 9.623227 -9.098665 44.893097
80 0 1 10.205327 -9.814365 44.457611
81 0 1 9.784425 -10.480766 44.949097
82 0 1 9.541429 -10.300365 45.890015
83 0 1 9.330827 -11.183266 46.178192
84 0 1 9.876328 -11.023565 46.986908
85 0 1 9.748425 -11.080365 47.962708
86 0 1 8.906526 -10.626667 47.893890
87 0 1 8.170026 -10.184067 48.371002
88 0 1 7.685067 -11.050265 48.456207
89 0 1 7.009965 -11.600865 48.116211
90 0 1 7.401788 -11.127266 47.366516
91 0 1 6.673554 -11.646966 47.022705
92 0 1 6.436006 -12.473566 46.707611
93 0 1 5.474805 -12.760965 46.868103
94 0 1 5.933045 -12.751966 47.690704
95 0 1 4.983365 -12.549067 47.924408
96 0 1 4.152116 -13.098965 48.157410
97 0 1 3.400086 -13.649965 48.415894
98 0 1 2.564606 -13.795666 48.770813
99 0 1 3.146714 -13.450266 49.457306
100 0 1 4.060178 -13.623266 49.392609
101 0 1 4.217607 -13.612366 50.376801
102 0 1 3.751805 -13.234665 51.150604
103 0 1 3.380894 -13.671665 51.927704
104 0 1 2.650697 -14.165165 51.584198
105 0 1 1.743626 -14.040966 51.237305
106 0 1 0.896855 -13.879066 50.681885
107 0 1 0.514027 -13.113667 50.232697
108 0 1 -0.193553 -13.382366 50.856384
109 0 1 -0.976316 -12.916666 51.232697
110 0 1 -1.357433 -12.123265 50.887604
111 0 1 -1.814954 -11.757365 51.596497
112 0 1 -1.396993 -10.974866 51.164307
113 0 1 -2.139522 -10.507866 51.597687
114 0 1 -1.347968 -10.252266 52.105011
115 0 1 -1.635848 -10.587666 52.932312
116 0 1 -2.201524 -11.391366 53.162811
117 0 1 -2.939615 -11.493766 53.686096
118 0 1 -3.114864 -12.507566 53.582794
119 0 1 -3.782504 -13.169165 53.270111
120 0 1 -3.221814 -13.612165 53.927094
121 0 1 -2.647393 -13.819765 54.694702
122 0 1 -2.123178 -14.656166 54.801086
123 0 1 -1.374484 -15.121466 55.177002
124 0 1 -1.110843 -14.667166 55.975403
125 0 1 -0.229484 -14.339966 56.097107
126 0 1 -0.091634 -13.794765 55.314301
127 0 1 -0.416484 -13.020866 54.835388
128 0 1 -0.025424 -12.179966 54.440704
129 0 1 -0.428334 -11.670965 55.159607
130 0 1 -0.015563 -11.048765 55.753204
131 0 1 0.215955 -10.101465 55.631897
132 0 1 1.117085 -9.933666 55.248901
133 0 1 1.801907 -9.235765 55.387085
134 0 1 1.679875 -9.257166 54.383606
135 0 1 1.680115 -9.753365 53.572510
136 0 1 1.519047 -8.963764 53.075897
137 0 1 1.840398 -8.432165 52.399811
138 0 1 2.031846 -8.897566 51.584717
139 0 1 2.659016 -8.147064 51.074005
140 0 1 2.729207 -7.168666 50.961212
141 0 1 2.336865 -7.707164 50.259094
142 0 1 1.709275 -7.179866 50.692688
143 0 1 1.055096 -7.324865 50.054993
144 0 1 0.318288 -7.875865 50.354004
145 0 1 0.788697 -8.526766 49.845001
146 0 1 0.280316 -8.352066 49.032501
147 0 1 -0.090465 -8.846664 48.292694
148 0 1 0.209897 -9.578365 48.842987
149 0 1 0.266236 -10.197065 48.031097
150 0 1 1.025838 -9.714165 48.208801
151 0 1 1.436417 -8.865866 48.139404
152 0 1 1.404717 -8.019566 48.596191
153 0 1 1.910268 -7.356166 48.146912
154 0 1 1.889146 -6.669965 47.468292
155 0 1 2.841557 -6.825164 47.873688
156 0 1 2.883435 -7.081264 48.769714
157 0 1 3.303826 -7.457164 49.646393
158 0 1 2.944047 -6.568965 49.741302
159 0 1 2.952275 -5.642885 49.471100
160 0 1 2.242078 -6.170066 49.170593
161 0 1 2.192124 -5.997806 48.240295
162 0 1 2.651284 -5.576755 47.554688
163 0 1 3.219598 -4.887025 47.960815
164 0 1 3.514416 -4.039695 47.532806
165 0 1 3.697957 -3.762535 46.660400
166 0 1 3.445756 -2.963005 46.190399
167 0 1 3.595856 -2.038866 46.497894
168 0 1 3.104295 -1.902656 45.600098
169 0 1 2.380006 -2.456344 45.184296
170 0 1 3.257016 -2.864275 45.029785
171 0 1 3.287247 -3.784265 45.164917
172 0 1 2.401295 -3.793174 44.961609
173 0 1 1.734196 -3.319076 44.516113
174 0 1 2.199406 -2.808864 43.873505
175 0 1 2.353547 -1.961296 44.260406
176 0 1 2.538247 -1.031295 44.531403
177 0 1 1.859277 -0.373985 44.673492
178 0 1 2.100705 0.202336 45.390808
179 0 1 1.459576 0.720965 44.873901
180 0 1 0.662186 0.625475 45.386902
181 0 1 0.535367 1.564135 45.252808
182 0 1 0.773045 2.485356 45.392792
183 0 1 1.146806 3.075118 46.092010
184 0 1 0.402055 3.459324 45.648804
185 0 1 0.005296 3.956204 44.919006
186 0 1 -0.479465 4.700270 44.389008
187 0 1 0.209946 5.329115 44.407898
188 0 1 0.936948 5.438874 43.797913
189 0 1 0.430047 5.772355 43.044983
190 0 1 0.510297 6.345055 42.166412
191 0 1 -0.332504 6.118184 42.343994
192 0 1 -0.605769 6.710213 43.056000
193 0 1 -1.222768 7.236985 42.487000
194 0 1 -1.447984 8.103275 43.043396
195 0 1 -0.749002 8.729362 43.021790
196 0 1 -0.812028 9.597256 43.382690
197 0 1 -0.892602 8.897675 44.095398
198 0 1 -1.820976 8.727386 43.928192
199 0 1 -1.591531 8.616882 44.919983
200 0 1 -1.131788 8.027813 45.532288
201 0 1 -1.307254 7.394753 44.834106
202 0 1 -0.776408 7.009045 45.556213
203 0 1 -1.791782 6.910584 45.627594
204 0 1 -2.558515 6.655625 45.113495
205 0 1 -2.984763 6.768124 45.934601
206 0 1 -3.586555 7.307766 45.428009
207 0 1 -3.288663 7.957863 44.818787
208 0 1 -3.938073 7.996994 44.030792
209 0 1 -4.036803 8.043964 43.096893
210 0 1 -5.015374 8.186314 43.392700
211 0 1 -4.892144 8.936565 43.992798
212 0 1 -4.660174 9.857193 43.783386
213 0 1 -4.570634 10.810925 43.925415
214 0 1 -3.766374 10.888344 43.491516
215 0 1 -3.174443 11.330193 42.948486
216 0 1 -3.448005 12.047256 42.437500
217 0 1 -2.872545 12.074776 41.731293
218 0 1 -3.514964 11.880455 40.984009
219 0 1 -2.605884 11.490505 40.770691
220 0 1 -1.881755 12.084755 40.995087
221 0 1 -1.121440 11.564354 40.908112
222 0 1 -0.384904 11.381954 40.286804
223 0 1 -1.172460 11.113503 39.821716
224 0 1 -1.460166 10.189804 39.975708
225 0 1 -0.764005 9.721424 39.433411
226 0 1 -0.748391 9.237965 40.235291
227 0 1 -0.638124 8.349983 39.931305
228 0 1 -0.894132 7.817585 40.655090
229 0 1 -1.628833 7.317875 41.111389
230 0 1 -2.059692 6.467515 40.942810
231 0 1 -2.615813 6.107304 41.639404
232 0 1 -2.227781 5.296984 41.887787
233 0 1 -2.127391 4.407795 42.263794
234 0 1 -2.694635 4.943835 42.775513
235 0 1 -3.295755 4.974246 42.071106
236 0 1 -3.843564 4.398491 42.818787
237 0 1 -4.383584 5.199805 42.963593
238 0 1 -4.055203 6.138054 42.852112
239 0 1 -3.501704 6.734574 42.439392
240 0 1 -3.806714 7.003865 41.588593
241 0 1 -4.232635 7.812096 41.789307
242 0 1 -5.174514 8.088943 41.797791
243 0 1 -6.093963 7.753056 41.934998
244 0 1 -6.289264 6.826416 41.905090
245 0 1 -5.900073 7.041207 41.072388
246 0 1 -5.573005 7.877636 40.730713
247 0 1 -5.344354 8.562275 40.077606
248 0 1 -4.490443 8.966873 40.174988
249 0 1 -4.560794 9.832783 40.507385
250 0 1 -4.920173 10.124176 39.593109
251 0 1 -5.926133 10.323574 39.502594
252 0 1 -5.918994 9.718803 38.736206
253 0 1 -6.301003 10.455223 38.305786
254 0 1 -6.417464 10.012623 37.454803
255 0 1 -5.837714 10.159874 36.741394
256 0 1 -5.490905 10.296795 35.925598
257 0 1 -4.824653 10.549805 35.302887
258 0 1 -4.440984 11.301895 34.914001
259 0 1 -5.214713 11.925026 34.751190
260 0 1 -5.067183 12.842346 34.945801
261 0 1 -4.716254 12.941673 34.096313
262 0 1 -3.934783 12.580215 34.615295
263 0 1 -3.927163 12.607876 35.588593
264 0 1 -2.960544 12.764545 35.511993
265 0 1 -2.295730 12.461525 36.100098
266 0 1 -1.646171 11.708244 36.142303
267 0 1 -1.992959 11.009315 36.573212
268 0 1 -1.715656 11.507614 37.341888
269 0 1 -1.031636 10.930504 36.911407
270 0 1 -0.552873 10.177006 36.480499
271 0 1 -0.562909 10.240906 35.526611
272 0 1 -0.089565 10.935432 35.044617
273 0 1 0.477605 11.040615 34.293610
274 0 1 1.015897 11.785114 34.368408
275 0 1 0.276177 12.523582 34.034485
276 0 1 -0.287784 12.195183 33.270508
277 0 1 -1.013599 12.488224 32.719299
278 0 1 -1.089044 13.161484 33.354187
279 0 1 -1.953403 13.317265 33.662903
280 0 1 -1.904977 12.961685 34.554901
281 0 1 -2.402862 13.854023 34.622406
282 0 1 -3.071254 14.460533 34.270294
283 0 1 -4.016223 14.653534 34.346008
284 0 1 -3.435464 15.357235 33.990509
285 0 1 -2.762914 14.921135 33.387695
286 0 1 -3.004274 14.920834 32.397400
287 0 1 -3.529914 14.548534 31.700500
288 0 1 -4.481214 14.717636 31.877991
289 0 1 -4.414603 15.594032 32.168213
290 0 1 -5.222413 15.950535 31.798706
291 0 1 -5.817803 15.885834 32.575409
292 0 1 -5.525094 16.012234 33.431091
293 0 1 -5.894355 16.511135 34.176788
294 0 1 -6.149833 16.151035 35.042389
295 0 1 -6.877963 16.441933 35.629608
296 0 1 -7.151864 17.364532 35.729004
297 0 1 -7.004174 18.248833 35.680603
298 0 1 -7.470023 18.392136 36.513611
299 0 1 -7.967765 18.114635 37.267700
300 0 1 -8.362983 17.997536 38.144104
301 0 1 -8.472915 17.221035 37.629089
302 0 1 -9.305583 16.720436 37.643005
303 0 1 -9.741303 15.927235 37.379089
304 0 1 -9.212153 15.314835 37.931213
305 0 1 -8.757144 14.467636 38.307007
306 0 1 -9.137803 13.741814 38.891205
307 0 1 -10.019805 13.675625 38.454102
308 0 1 -10.242923 12.927235 38.916199
309 0 1 -10.250274 12.034073 38.841888
310 0 1 -9.422984 11.660995 38.386688
311 0 1 -9.616603 10.810143 38.791595
312 0 1 -10.190993 10.802414 37.994690
313 0 1 -9.630294 10.669346 37.237610
314 0 1 -9.886193 9.910576 36.656891
315 0 1 -10.555903 9.702965 35.990387
316 0 1 -10.781753 10.560875 36.416687
317 0 1 -11.108764 10.838066 35.585602
318 0 1 -11.435594 11.479763 36.155396
319 0 1 -12.254973 11.998955 36.442505
320 0 1 -12.469172 12.384914 37.315613
321 0 1 -12.757174 13.188625 36.920593
322 0 1 -13.423373 12.806675 36.359314
323 0 1 -14.161473 12.154213 36.340698
324 0 1 -14.862273 12.320904 35.790802
325 0 1 -14.854175 12.010914 34.872986
326 0 1 -15.582873 12.577103 34.538086
327 0 1 -15.187274 13.273293 33.963593
328 0 1 -14.258975 13.458775 34.150604
329 0 1 -13.507974 13.134594 33.746216
330 0 1 -12.738873 13.102753 33.171387
331 0 1 -12.283874 13.463684 33.953186
332 0 1 -11.448813 13.142197 33.619507
333 0 1 -11.846374 13.835114 33.096802
334 0 1 -12.220572 14.548134 32.557495
335 0 1 -12.982074 14.089035 32.377014
336 0 1 -13.140374 13.698395 31.498688
337 0 1 -13.789073 13.265644 30.862091
338 0 1 -14.350373 13.259735 30.018402
339 0 1 -13.686675 13.548622 29.394012
340 0 1 -13.117574 12.758095 29.186310
341 0 1 -12.333573 13.037094 28.590607
342 0 1 -11.774474 13.794273 28.306091
343 0 1 -11.579373 14.639534 27.981812
344 0 1 -10.830234 15.144234 27.798187
345 0 1 -10.220954 14.376236 28.016113
346 0 1 -10.774194 14.306236 27.172211
347 0 1 -10.245994 15.046432 26.872986
348 0 1 -9.327813 14.767834 26.652710
349 0 1 -9.448085 14.742332 25.723389
350 0 1 -9.282825 14.667034 24.767487
351 0 1 -9.806354 15.417336 24.953796
352 0 1 -9.851745 15.946632 24.084900
353 0 1 -10.771995 16.062134 24.401001
354 0 1 -10.848125 16.851936 24.903503
355 0 1 -9.997993 16.439434 25.153992
356 0 1 -10.103114 16.890736 25.986603
357 0 1 -9.802875 16.177334 26.641510
358 0 1 -9.252913 17.031734 26.630188
359 0 1 -9.467853 17.712936 25.980499
360 0 1 -8.994594 18.457733 26.401886
361 0 1 -9.290004 19.340034 26.158905
362 0 1 -8.404834 19.536236 26.416107
363 0 1 -7.459813 19.850533 26.592407
364 0 1 -7.781634 20.663933 26.255493
365 0 1 -8.375493 21.326935 26.360291
366 0 1 -7.828525 21.831234 26.955811
367 0 1 -7.334323 22.594833 26.570190
368 0 1 -6.598033 22.364334 26.087891
369 0 1 -5.752114 22.063934 25.870209
370 0 1 -5.724223 21.730335 24.967010
371 0 1 -4.919164 21.768234 24.427704
372 0 1 -4.238374 21.685036 23.717407
373 0 1 -3.299804 21.477234 23.418610
374 0 1 -3.048854 21.465736 24.365692
375 0 1 -2.749114 21.999035 25.219208
376 0 1 -1.813222 21.658936 25.152802
377 0 1 -1.050245 21.146935 25.281799
378 0 1 -1.380595 20.400234 24.775208
379 0 1 -1.239181 19.556435 25.219788
380 0 1 -2.147557 19.709236 24.956390
381 0 1 -2.286458 20.007835 25.849701
382 0 1 -2.279660 19.039135 26.025085
383 0 1 -2.424064 18.978935 27.035492
384 0 1 -1.480935 18.637337 27.209808
385 0 1 -1.264838 18.412834 26.327393
386 0 1 -1.326801 17.505432 26.626190
387 0 1 -2.037526 16.933033 26.254303
388 0 1 -1.585824 16.793835 25.391296
389 0 1 -2.289499 16.610435 24.782013
390 0 1 -3.201873 16.947235 24.917114
391 0 1 -3.570504 16.107033 24.716187
392 0 1 -4.270974 16.661434 25.102692
393 0 1 -4.634974 17.469635 25.561310
394 0 1 -5.222274 16.557236 25.566498
395 0 1 -4.882794 16.787537 26.387207
396 0 1 -3.996265 16.322334 26.460602
397 0 1 -4.057155 15.640034 25.814087
398 0 1 -3.952323 14.735035 25.430511
399 0 1 -3.620815 14.011734 24.832092
400 0 1 -3.015205 13.237915 25.144196
401 0 1 -2.265870 13.743065 24.790192
402 0 1 -2.096132 13.293983 23.962097
403 0 1 -2.176870 12.614426 24.576599
404 0 1 -1.229327 12.553993 24.706207
405 0 1 -1.014238 11.616783 24.731995
406 0 1 -1.910442 11.502934 24.364105
407 0 1 -1.298995 11.096775 23.711304
408 0 1 -1.099805 10.147163 23.758209
409 0 1 -1.494916 9.964325 22.897003
410 0 1 -2.386262 10.133244 22.554291
411 0 1 -2.596164 9.250763 22.953094
412 0 1 -2.364864 9.747726 23.740295
413 0 1 -2.657554 9.334835 24.548309
414 0 1 -3.460614 9.593216 24.175598
415 0 1 -3.775905 10.440845 24.567108
416 0 1 -4.197234 11.304184 24.514587
417 0 1 -5.009124 11.689335 24.386902
418 0 1 -5.833594 11.119034 24.265503
419 0 1 -5.961804 10.731422 25.141693
420 0 1 -6.616393 10.089436 24.789398
421 0 1 -5.802064 9.452553 24.946808
422 0 1 -4.893414 9.091946 24.803589
423 0 1 -4.668513 8.377285 25.389587
424 0 1 -5.059434 7.513134 25.215302
425 0 1 -5.536754 7.003205 24.560211
426 0 1 -5.988284 6.407834 25.147491
427 0 1 -6.916213 6.174103 24.994598
428 0 1 -6.870013 6.514985 25.890808
429 0 1 -7.705144 6.123394 26.166992
430 0 1 -7.649564 5.635804 27.078888
431 0 1 -7.638133 5.689545 28.058014
432 0 1 -8.229323 6.246735 28.632812
433 0 1 -8.357875 7.104195 28.267090
434 0 1 -7.423675 7.317364 28.254791
435 0 1 -7.925744 8.108204 28.053101
436 0 1 -8.677514 8.255386 27.426392
437 0 1 -9.358165 8.882164 27.130310
438 0 1 -9.233703 9.594673 26.490112
439 0 1 -9.979224 9.838974 27.017212
440 0 1 -9.771434 9.565434 27.869110
441 0 1 -10.485864 10.112354 28.280609
442 0 1 -10.589713 10.812565 28.881012
443 0 1 -11.087752 10.928345 28.084412
444 0 1 -11.608775 10.094784 28.217499
445 0 1 -12.078673 10.493923 28.956207
446 0 1 -12.712573 11.211296 28.846008
447 0 1 -13.548472 11.134624 29.328094
448 0 1 -14.373874 11.194374 28.801788
449 0 1 -13.947974 10.443226 28.340515
450 0 1 -13.865775 10.088696 27.417694
451 0 1 -14.171775 10.890736 27.042694
452 0 1 -14.993773 10.445854 26.815186
453 0 1 -15.816875 9.931793 26.746399
454 0 1 -15.814975 10.730694 27.327515
455 0 1 -16.282675 11.599052 27.193787
456 0 1 -16.027374 11.811356 26.232208
457 0 1 -15.216372 12.190926 25.936005
458 0 1 -15.337073 13.036804 26.376007
459 0 1 -14.506972 13.048332 25.893890
460 0 1 -13.795274 12.433334 25.954803
461 0 1 -13.184375 13.177727 25.818604
462 0 1 -13.751174 13.540203 25.095215
463 0 1 -13.396873 14.371735 25.455505
464 0 1 -13.852073 14.936333 24.791412
465 0 1 -13.461474 15.846832 24.870789
466 0 1 -14.424373 16.049633 24.756500
467 0 1 -14.330173 15.467834 25.495087
468 0 1 -15.144073 15.593334 25.910004
469 0 1 -15.471972 15.300034 26.729187
470 0 1 -15.993174 15.926537 27.283997
471 0 1 -16.602274 15.184334 27.498108
472 0 1 -16.914474 15.775234 26.738403
473 0 1 -16.803474 16.133636 25.855896
474 0 1 -17.419075 16.167732 25.069397
475 0 1 -16.613773 16.210434 24.604004
476 0 1 -16.816975 15.276634 24.843811
477 0 1 -17.402075 14.615036 24.511688
478 0 1 -18.266575 15.066235 24.654694
479 0 1 -18.012775 15.765533 24.052307
480 0 1 -17.073174 15.737434 23.856506
481 0 1 -17.629074 16.042534 23.082214
482 0 1 -18.359776 15.468834 22.800293
483 0 1 -19.292774 15.329433 22.435608
484 0 1 -19.733974 14.498135 22.600098
485 0 1 -20.312975 14.928036 23.278992
486 0 1 -21.198574 15.047935 23.575409
487 0 1 -20.728975 15.824635 23.756409
488 0 1 -20.199974 16.422436 24.247009
489 0 1 -20.246475 16.595234 25.231689
490 0 1 -19.942875 17.357834 24.770508
491 0 1 -20.088274 17.501236 23.802490
492 0 1 -19.820774 18.378235 23.629211
493 0 1 -19.028475 18.125336 23.045990
494 0 1 -18.225075 18.157135 23.683502
495 0 1 -18.043076 17.944633 24.586487
496 0 1 -18.936375 17.602535 24.526398
497 0 1 -18.676174 16.843235 23.933411
498 0 1 -19.467276 16.470833 23.582703
499 0 1 -19.510275 16.455536 22.644409
500 0 1 -20.296974 16.144535 22.120193
501 0 1 -21.214174 16.093636 22.318207
502 0 1 -21.490574 15.127033 22.329498
503 0 1 -20.580374 15.088333 21.847397
504 0 1 -21.026474 15.477535 21.150406
505 0 1 -21.060474 16.403336 21.429596
506 0 1 -20.498075 16.676434 20.712402
507 0 1 -19.694374 16.104233 20.907700
508 0 1 -18.834875 15.717834 20.604904
509 0 1 -18.507574 14.948135 20.106201
510 0 1 -18.689474 15.164932 19.110001
511 0 1 -18.777676 14.271336 18.740204
512 0 1 -18.844376 13.656525 17.997101
513 0 1 -19.551975 13.437996 18.731293
514 0 1 -19.899975 14.369133 18.676208
515 0 1 -20.820274 14.327133 18.286194
516 0 1 -21.400774 13.733795 17.805695
517 0 1 -21.240675 12.753124 17.615005
518 0 1 -20.670176 12.052483 17.712402
519 0 1 -21.151075 12.210266 18.549301
520 0 1 -20.665874 12.219322 19.443100
521 0 1 -20.051374 11.445045 19.260498
522 0 1 -20.207674 10.521835 19.449799
523 0 1 -19.482874 10.585266 18.832794
524 0 1 -19.449175 9.958336 18.101303
525 0 1 -20.199875 10.539936 18.159302
526 0 1 -21.179976 10.311794 18.238098
527 0 1 -20.464375 9.715763 18.542206
528 0 1 -20.245674 9.125893 19.238403
529 0 1 -20.371374 8.407776 18.679001
530 0 1 -20.536274 7.733925 17.979294
531 0 1 -20.593874 6.769814 18.328705
532 0 1 -20.423374 6.031403 17.733002
533 0 1 -20.840876 5.290776 17.337402
534 0 1 -21.110975 4.412146 17.370605
535 0 1 -21.798975 3.750853 17.336792
536 0 1 -22.762175 3.415967 17.616196
537 0 1 -22.212574 2.647425 17.600006
538 0 1 -21.477776 2.470295 18.203903
539 0 1 -21.867874 2.940289 19.072495
540 0 1 -21.766674 3.543211 18.324905
541 0 1 -22.621574 3.820963 18.695801
542 0 1 -23.077175 4.427813 19.216492
543 0 1 -23.545374 5.205966 18.944199
544 0 1 -22.952974 5.883446 19.398605
545 0 1 -22.591074 6.066643 20.210205
546 0 1 -21.710674 6.335854 20.560501
547 0 1 -21.466576 5.825055 21.348999
548 0 1 -20.651075 5.915944 20.792496
549 0 1 -21.088575 5.499714 20.068405
550 0 1 -20.219275 5.108365 20.398102
551 0 1 -20.240376 4.911576 21.349106
552 0 1 -20.964275 4.248351 21.254898
553 0 1 -21.921074 3.841496 21.123505
554 0 1 -21.763475 3.388936 21.989197
555 0 1 -21.393375 4.037747 22.666687
556 0 1 -22.172276 4.648829 22.720398
557 0 1 -22.972775 4.317231 23.090393
558 0 1 -22.923676 4.800084 23.870209
559 0 1 -22.399075 4.696206 24.600403
560 0 1 -21.819174 4.171647 25.140808
561 0 1 -22.381374 3.600651 24.611908
562 0 1 -22.250574 3.127535 25.410614
563 0 1 -21.440374 3.082230 24.934692
564 0 1 -20.618275 3.187863 24.517792
565 0 1 -20.707474 3.993710 24.941284
566 0 1 -20.436575 4.574002 24.179016
567 0 1 -19.766575 4.344105 24.819489
568 0 1 -19.304575 3.632456 25.331787
569 0 1 -19.515575 3.248888 26.131195
570 0 1 -18.593275 3.060297 26.251892
571 0 1 -18.309975 2.369915 25.638794
572 0 1 -17.587774 2.268015 26.275391
573 0 1 -16.863674 1.704785 26.723602
574 0 1 -16.165073 1.306515 26.222290
575 0 1 -15.309173 1.452185 25.859589
576 0 1 -14.390273 1.525774 25.834106
577 0 1 -14.204574 1.493105 26.801086
578 0 1 -13.317573 1.194954 27.135193
579 0 1 -12.969874 1.591845 26.354309
580 0 1 -12.584575 2.323426 25.910095
581 0 1 -12.049773 1.681704 25.439087
582 0 1 -12.074973 0.718365 25.424500
583 0 1 -11.948773 -0.147575 25.956207
584 0 1 -12.084973 -0.623525 25.126587
585 0 1 -11.259105 -1.102026 25.108704
586 0 1 -10.840484 -1.772405 24.567200
587 0 1 -10.254825 -2.297954 25.129211
588 0 1 -9.345704 -2.526845 24.774292
589 0 1 -9.159333 -3.241895 25.368408
590 0 1 -9.838754 -3.553775 24.842499
591 0 1 -10.684543 -3.532205 24.345306
592 0 1 -11.674872 -3.567966 24.438507
593 0 1 -12.323375 -4.142375 24.682892
594 0 1 -11.759074 -4.851545 24.237701
595 0 1 -11.483634 -5.750045 24.477386
596 0 1 -11.778872 -6.376964 23.837891
597 0 1 -12.130673 -7.193664 24.173309
598 0 1 -11.556773 -8.000267 24.005890
599 0 1 -10.837804 -8.448866 23.484192
600 0 1 -11.128055 -8.907265 24.285492
601 0 1 -10.738574 -9.692966 23.850403
602 0 1 -11.095893 -10.283766 24.492188
603 0 1 -10.231032 -10.659366 24.677307
604 0 1 -10.489934 -11.191365 23.852112
605 0 1 -10.275283 -12.112466 24.076202
606 0 1 -9.427304 -11.604866 23.644409
607 0 1 -9.200885 -12.190565 22.985107
608 0 1 -8.868154 -13.021566 22.646393
609 0 1 -9.217454 -13.660065 23.331909
610 0 1 -9.496135 -14.646166 23.447693
611 0 1 -10.115493 -15.199266 23.041107
612 0 1 -10.220855 -16.189266 22.922211
613 0 1 -9.898345 -15.717766 22.127594
614 0 1 -9.578584 -16.270466 21.467499
615 0 1 -9.159675 -16.638466 20.651596
616 0 1 -9.259303 -15.730566 20.231094
617 0 1 -10.120904 -16.250465 20.066101
618 0 1 -9.922124 -16.546165 19.182297
619 0 1 -9.190383 -17.116467 18.920593
620 0 1 -8.467914 -16.640266 19.307205
621 0 1 -7.582414 -16.988365 19.320404
622 0 1 -6.775834 -17.321566 18.991104
623 0 1 -6.756145 -16.351765 18.816696
624 0 1 -6.818524 -16.818066 17.979797
625 0 1 -7.563464 -16.295065 18.070404
626 0 1 -8.228213 -15.752365 18.470596
627 0 1 -7.855144 -14.802765 18.698395
628 0 1 -8.630944 -14.235167 18.817993
629 0 1 -8.719134 -13.263365 18.763306
630 0 1 -9.363574 -12.590366 19.031799
631 0 1 -9.610114 -11.954165 19.678894
632 0 1 -9.590865 -11.390666 18.839706
633 0 1 -10.452292 -11.422565 18.363403
634 0 1 -10.537395 -11.197566 17.398193
635 0 1 -10.977363 -10.852265 16.591705
636 0 1 -11.659974 -10.220264 16.837204
637 0 1 -12.472474 -10.780766 16.643799
638 0 1 -12.169673 -11.623466 16.851898
639 0 1 -12.127975 -11.672565 15.856598
640 0 1 -11.624774 -11.050066 15.330399
641 0 1 -11.197413 -10.169065 15.193207
642 0 1 -10.357295 -9.680666 15.476303
643 0 1 -10.730494 -9.201866 14.676193
644 0 1 -11.615273 -9.128965 14.274902
645 0 1 -12.450973 -8.653166 14.069595
646 0 1 -12.980975 -9.111065 14.767197
647 0 1 -13.849273 -8.739166 14.865005
648 0 1 -13.605975 -7.913166 15.299103
649 0 1 -14.140374 -7.154165 15.042908
650 0 1 -15.089675 -6.907764 15.132202
651 0 1 -15.285575 -6.123306 14.617203
652 0 1 -15.760673 -5.393314 14.283401
653 0 1 -15.381373 -5.243484 13.408203
654 0 1 -16.150774 -4.694595 13.407303
655 0 1 -16.151875 -4.282985 12.565994
656 0 1 -16.358173 -4.673555 11.678101
657 0 1 -15.729873 -5.439426 11.656204
658 0 1 -15.375974 -4.868785 11.017105
659 0 1 -15.668273 -4.522445 10.161102
660 0 1 -14.856475 -5.076526 9.881866
661 0 1 -14.829974 -5.279615 8.880875
662 0 1 -14.885074 -6.241165 8.814560
663 0 1 -15.844073 -6.299064 8.944977
664 0 1 -15.466372 -7.164966 8.671600
665 0 1 -14.917174 -7.921764 8.931183
666 0 1 -15.188273 -8.584866 9.503082
667 0 1 -15.492675 -8.986866 8.601074
668 0 1 -16.153675 -9.641464 8.366837
669 0 1 -16.518675 -9.449165 9.270966
670 0 1 -16.861574 -9.358166 10.170395
671 0 1 -17.197874 -10.024166 10.790405
672 0 1 -16.734274 -10.641766 10.277695
673 0 1 -16.266575 -11.469366 10.671097
674 0 1 -15.853574 -12.222065 10.265594
675 0 1 -14.895974 -12.139066 10.367706
676 0 1 -14.738873 -12.935266 9.780533
677 0 1 -14.352674 -13.627966 10.266693
678 0 1 -14.370772 -14.598866 10.157700
679 0 1 -14.988173 -15.265066 10.033707
680 0 1 -15.757873 -14.905966 10.639206
681 0 1 -15.932874 -15.835365 10.745499
682 0 1 -15.270175 -16.630665 10.774399
683 0 1 -15.764373 -17.277666 11.252106
684 0 1 -14.871274 -17.588766 11.569595
685 0 1 -14.833774 -17.043966 12.438904
686 0 1 -15.697274 -16.748865 12.854095
687 0 1 -16.114275 -16.109365 12.313599
688 0 1 -15.253875 -15.736567 12.094696
689 0 1 -14.991174 -14.872166 12.305893
690 0 1 -14.366374 -14.449266 11.660095
691 0 1 -13.950675 -14.942865 12.392502
692 0 1 -14.161075 -14.730165 13.320694
693 0 1 -13.922174 -15.178566 14.146805
694 0 1 -13.607474 -16.090065 14.341507
695 0 1 -13.164174 -16.030966 13.550797
696 0 1 -12.229974 -16.534866 13.612595
697 0 1 -12.783473 -17.089966 14.158707
698 0 1 -12.516673 -17.683466 13.541000
699 0 1 -11.749373 -18.247066 13.369705
700 0 1 -10.761754 -18.501165 13.581894
701 0 1 -10.972125 -19.372866 13.927094
702 0 1 -11.148444 -19.732166 14.860901
703 0 1 -11.911473 -19.208866 15.089401
704 0 1 -12.258075 -18.538866 15.697495
705 0 1 -12.552375 -17.776766 16.259094
706 0 1 -12.202773 -17.080166 16.834991
707 0 1 -12.721473 -16.455566 17.382294
708 0 1 -12.402774 -15.843765 16.690002
709 0 1 -11.816875 -15.200466 16.414307
710 0 1 -11.017123 -14.664265 16.469208
711 0 1 -10.979335 -13.710766 16.333694
712 0 1 -10.839423 -13.208765 17.073303
713 0 1 -11.400594 -12.473566 16.585495
714 0 1 -10.601523 -11.864466 16.487701
715 0 1 -10.286174 -12.340965 15.705200
716 0 1 -10.336543 -11.362765 15.589203
717 0 1 -10.050044 -10.671266 15.076202
718 0 1 -10.466174 -10.864666 14.243103
719 0 1 -9.641374 -10.819865 13.755005
720 0 1 -8.647365 -11.001165 13.749603
721 0 1 -8.476344 -11.914165 13.793304
722 0 1 -8.665574 -12.366665 14.605698
723 0 1 -7.944053 -11.958066 15.162598
724 0 1 -8.463553 -11.205365 15.465500
725 0 1 -9.178695 -11.790565 15.426605
726 0 1 -9.320504 -12.674665 15.824997
727 0 1 -8.975673 -12.289165 16.637497
728 0 1 -8.184823 -12.800266 16.705002
729 0 1 -7.398814 -12.435366 17.230896
730 0 1 -6.546433 -12.397066 16.785706
731 0 1 -5.714683 -12.515266 16.311798
732 0 1 -5.091163 -12.273266 15.641296
733 0 1 -5.923385 -11.867466 15.210602
734 0 1 -6.046834 -10.891166 15.369400
735 0 1 -6.958175 -10.828766 15.620193
736 0 1 -7.291703 -9.910866 15.874603
737 0 1 -7.201243 -9.085266 16.264893
738 0 1 -7.787314 -8.321266 16.188507
739 0 1 -7.284835 -7.517364 16.554306
740 0 1 -6.850795 -8.166765 17.136200
741 0 1 -6.614884 -7.237464 17.291306
742 0 1 -5.769944 -7.258165 17.743500
743 0 1 -5.793923 -6.197765 17.764099
744 0 1 -5.641694 -6.580665 16.877304
745 0 1 -5.075213 -7.089164 16.269592
746 0 1 -4.318294 -7.573265 16.002197
747 0 1 -3.593364 -7.925865 15.406708
748 0 1 -3.004773 -7.221965 15.547302
749 0 1 -2.787414 -6.834365 14.623108
750 0 1 -2.044639 -6.217166 14.866806
751 0 1 -2.055614 -5.879825 15.760101
752 0 1 -1.921430 -5.147985 15.063797
753 0 1 -1.702810 -5.483684 14.227203
754 0 1 -0.819120 -5.818645 13.943100
755 0 1 -0.489845 -6.041374 13.122101
756 0 1 -0.630851 -5.290065 12.550293
757 0 1 -0.091945 -4.792846 13.139008
758 0 1 0.706456 -4.814655 13.596405
759 0 1 1.296777 -4.868465 14.308899
760 0 1 2.054765 -4.779586 14.955307
761 0 1 2.689305 -4.488395 15.629303
762 0 1 3.651807 -4.681875 15.776703
763 0 1 4.019135 -5.371315 16.212708
764 0 1 4.863675 -4.998806 16.635803
765 0 1 5.516496 -5.512846 17.227203
766 0 1 5.240556 -6.353664 17.572693
767 0 1 5.503785 -6.452266 16.623108
768 0 1 5.990727 -6.074415 15.878799
769 0 1 6.344254 -6.172765 15.014496
770 0 1 6.733327 -5.393306 15.397293
771 0 1 6.967526 -4.700195 15.968292
772 0 1 6.591847 -3.866676 15.664505
773 0 1 6.488236 -3.889795 16.689392
774 0 1 7.190087 -3.461654 17.175293
775 0 1 6.430486 -3.081455 17.581497
776 0 1 6.652246 -2.127956 17.824295
777 0 1 6.560708 -2.565046 18.636002
778 0 1 7.077416 -2.366815 19.433502