LAMMPS data file via MDAnalysis

        2000  atoms
        1999  bonds
           0  angles
           0  dihedrals
           0  impropers

           1  atom types
           1  bond types
           0  angle types
           0  dihedral types
           0  improper types

-30.5 30.5 xlo xhi
-30.5 30.5 ylo yhi
-233.5 233.5 zlo zhi


Masses

1 1.000000

Atoms

1 0 1 -1.037522 13.269249 65.872803
2 0 1 -0.582192 14.035782 65.290802
3 0 1 -0.560070 14.421638 66.134094
4 0 1 -1.329781 14.326771 66.813202
5 0 1 -0.622631 14.006508 67.339783
6 0 1 -0.696612 14.816422 67.821899
7 0 1 0.201620 14.560219 67.451111
8 0 1 0.970287 14.637817 67.965790
9 0 1 1.711033 14.684120 68.637604
10 0 1 2.083288 14.285030 67.825684
11 0 1 2.659895 13.641441 67.458984
12 0 1 2.181515 13.741608 66.616699
13 0 1 2.948539 13.553219 66.073608
14 0 1 2.672548 14.434189 65.883789
15 0 1 2.995720 14.758518 65.036682
16 0 1 3.634489 15.479622 64.874512
17 0 1 3.173830 16.145920 64.392090
18 0 1 3.222429 16.643822 65.207794
19 0 1 4.080240 16.969318 65.144897
20 0 1 4.621458 16.934120 65.865509
21 0 1 5.220750 16.968620 66.617706
22 0 1 5.542810 17.899719 66.621216
23 0 1 5.131490 17.802917 65.686584
24 0 1 4.617788 18.089420 64.904114
25 0 1 3.688318 18.110519 65.080292
26 0 1 2.703909 18.134121 64.917694
27 0 1 2.311741 17.668419 65.676605
28 0 1 2.399015 16.807419 66.199005
29 0 1 1.461347 16.624020 66.262085
30 0 1 1.557182 15.718018 66.015686
31 0 1 0.625469 15.821320 65.873993
32 0 1 0.827017 16.383118 65.104187
33 0 1 0.460878 15.394619 65.024200
34 0 1 0.174329 14.643620 64.455811
35 0 1 0.548139 14.885620 63.599304
36 0 1 0.773269 15.227020 62.727295
37 0 1 0.626699 14.289940 62.504395
38 0 1 0.915107 13.642792 61.784393
39 0 1 1.131307 12.800278 61.407410
40 0 1 0.205759 12.789368 61.760101
41 0 1 -0.283751 12.055611 61.975311
42 0 1 0.172020 11.470951 61.262085
43 0 1 -0.489781 10.730679 60.994507
44 0 1 -0.149172 9.904308 60.893799
45 0 1 0.182029 9.019279 61.132599
46 0 1 -0.838501 8.916451 60.950806
47 0 1 -0.937411 8.014038 61.297089
48 0 1 0.071428 8.004520 61.383789
49 0 1 0.085739 7.466782 60.613586
50 0 1 -0.061341 6.558892 60.259003
51 0 1 -0.975201 6.562359 60.503601
52 0 1 -1.608752 6.829579 59.862793
53 0 1 -2.294321 6.148678 59.980408
54 0 1 -2.275492 5.248564 59.649994
55 0 1 -1.981701 5.379981 58.725494
56 0 1 -2.818861 4.847498 58.520203
57 0 1 -2.144371 4.221869 58.535492
58 0 1 -2.450211 3.875109 59.365112
59 0 1 -3.005541 3.285910 59.867889
60 0 1 -3.322790 2.396750 59.761108
61 0 1 -2.911721 1.467070 59.852417
62 0 1 -2.279381 0.753060 59.807587
63 0 1 -2.792662 0.603890 58.980499
64 0 1 -3.284811 0.747681 58.122009
65 0 1 -4.269122 0.837910 58.155701
66 0 1 -4.554961 0.525870 59.002686
67 0 1 -5.260931 1.123290 59.172913
68 0 1 -5.388171 0.652670 60.000610
69 0 1 -6.258082 0.711701 60.486511
70 0 1 -5.620162 1.495390 60.464111
71 0 1 -5.637972 2.311310 60.958405
72 0 1 -4.858212 2.314600 61.536194
73 0 1 -4.563040 1.624741 62.176910
74 0 1 -3.882181 1.476550 62.781403
75 0 1 -3.566712 2.204781 63.322815
76 0 1 -3.664690 2.438611 64.247009
77 0 1 -4.037882 2.052281 65.017700
78 0 1 -3.109711 2.145960 65.398407
79 0 1 -2.190201 2.273600 65.216492
80 0 1 -1.337240 2.160330 64.865204
81 0 1 -1.231341 2.336751 65.836792
82 0 1 -0.397202 2.261210 66.243195
83 0 1 0.519338 1.879700 66.301086
84 0 1 0.685608 2.486849 67.002197
85 0 1 0.068599 1.810610 67.447693
86 0 1 0.094660 0.896180 67.833313
87 0 1 0.171468 1.627280 68.379883
88 0 1 1.047127 1.984940 68.130981
89 0 1 1.810880 2.619900 68.136993
90 0 1 1.646343 3.292851 67.488007
91 0 1 2.355867 3.086091 66.917694
92 0 1 1.819721 3.077130 66.058594
93 0 1 0.978014 3.400580 65.784485
94 0 1 0.369348 3.960278 66.275604
95 0 1 1.002228 4.632372 66.093292
96 0 1 1.892067 4.949275 65.719910
97 0 1 1.476112 5.761971 65.380890
98 0 1 1.004276 5.330779 64.626404
99 0 1 0.946729 4.849431 63.830811
100 0 1 0.942934 3.973572 63.540497
101 0 1 0.356458 3.348830 63.181793
102 0 1 0.306049 3.544383 62.275696
103 0 1 0.620409 2.864510 61.639893
104 0 1 0.784925 3.715788 61.239502
105 0 1 0.742723 4.110508 60.351807
106 0 1 0.317339 4.706307 59.726013
107 0 1 1.118503 5.057169 59.331909
108 0 1 0.700170 5.930600 59.259308
109 0 1 1.170501 6.724202 58.803711
110 0 1 0.388448 7.079171 58.309113
111 0 1 0.991674 7.675251 57.802399
112 0 1 1.791542 7.283169 58.132812
113 0 1 2.431146 7.999352 58.243103
114 0 1 2.306698 7.816800 57.297913
115 0 1 1.920847 8.356270 56.624084
116 0 1 2.615240 8.060040 56.042908
117 0 1 2.937429 8.900669 56.457794
118 0 1 3.819597 8.918140 56.840302
119 0 1 4.148347 9.777168 57.080994
120 0 1 4.737421 9.165791 57.473602
121 0 1 5.231538 8.331459 57.301514
122 0 1 5.108007 8.793449 56.440491
123 0 1 5.826169 9.153790 55.844299
124 0 1 5.758230 10.102448 55.545715
125 0 1 6.473730 10.716740 55.744812
126 0 1 6.837209 9.955730 55.277008
127 0 1 7.560251 9.532860 54.854797
128 0 1 7.424497 8.691200 54.551392
129 0 1 8.126680 8.775311 53.878784
130 0 1 8.286089 8.084930 54.475403
131 0 1 7.624479 7.666619 55.089203
132 0 1 7.186319 8.203091 55.765411
133 0 1 6.948308 7.275689 55.994995
134 0 1 7.072000 6.491990 55.425415
135 0 1 7.861368 6.416661 55.929199
136 0 1 7.894460 6.057671 54.994110
137 0 1 8.844988 6.139130 54.827789
138 0 1 8.578577 5.172469 54.690613
139 0 1 8.132509 4.389941 54.905212
140 0 1 7.563749 3.607415 54.939697
141 0 1 6.735948 3.500010 54.547394
142 0 1 5.912519 3.093300 54.847504
143 0 1 6.028398 2.130480 55.015503
144 0 1 5.384897 2.305611 55.798889
145 0 1 5.800378 3.178710 55.926208
146 0 1 5.120248 3.885283 55.617706
147 0 1 4.625879 4.593411 56.042786
148 0 1 4.230009 5.041642 55.323212
149 0 1 3.279249 5.028037 55.188416
150 0 1 2.964899 5.696890 54.572388
151 0 1 1.983417 5.516579 54.664398
152 0 1 1.849590 5.072909 53.842194
153 0 1 2.008512 5.891840 53.397400
154 0 1 1.191307 5.807190 52.917908
155 0 1 1.117391 6.151398 51.995605
156 0 1 0.330608 6.576909 51.585510
157 0 1 -0.491991 6.973011 51.779297
158 0 1 -1.069021 7.572850 51.275299
159 0 1 -0.749531 7.621079 50.378784
160 0 1 -1.100340 8.450928 50.509399
161 0 1 -0.386811 9.050117 50.603912
162 0 1 0.377458 8.474468 50.466095
163 0 1 0.376169 7.977898 49.656097
164 0 1 -0.375330 7.577260 49.204193
165 0 1 -0.342921 8.194618 48.505096
166 0 1 -1.140270 8.727871 48.603790
167 0 1 -1.072260 7.975819 48.012909
168 0 1 -0.225102 8.245060 47.429901
169 0 1 0.188839 8.833038 46.628296
170 0 1 1.001684 8.335911 46.380096
171 0 1 1.562467 8.673882 45.689911
172 0 1 2.493786 8.816109 45.547302
173 0 1 2.824690 8.915878 46.431213
174 0 1 3.205808 8.076641 46.026794
175 0 1 4.085687 8.404621 45.878601
176 0 1 3.623331 8.845581 45.088593
177 0 1 3.770460 9.712578 45.429596
178 0 1 4.002168 10.106689 44.563507
179 0 1 3.722120 10.868290 43.984894
180 0 1 3.762727 10.096790 43.484009
181 0 1 3.768888 9.845600 42.575500
182 0 1 2.984838 9.258820 42.544189
183 0 1 2.761549 10.150711 42.869812
184 0 1 1.972416 10.659988 42.893005
185 0 1 1.692575 9.806370 43.310608
186 0 1 0.945642 10.197800 42.983215
187 0 1 -0.069161 10.158028 42.896790
188 0 1 0.226568 11.056709 42.527405
189 0 1 0.362980 12.065830 42.710510
190 0 1 0.253559 12.883530 43.148712
191 0 1 0.817302 12.925869 43.995605
192 0 1 1.167572 13.110310 44.946594
193 0 1 0.196810 13.018021 45.122589
194 0 1 0.576578 13.085091 46.037598
195 0 1 1.383400 12.580860 46.084412
196 0 1 1.679258 11.675598 46.353699
197 0 1 1.773170 11.363121 47.281403
198 0 1 1.942472 11.747108 48.209412
199 0 1 1.834448 11.176281 48.981598
200 0 1 1.321958 10.497940 49.335602
201 0 1 1.545217 9.712959 49.879303
202 0 1 2.159607 9.156792 50.352783
203 0 1 3.029770 9.492260 50.552399
204 0 1 2.364696 9.752491 51.220795
205 0 1 1.846061 10.577190 51.190186
206 0 1 2.225826 10.814178 50.212311
207 0 1 1.436203 11.429710 49.999390
208 0 1 0.504539 11.198792 49.946991
209 0 1 0.503689 11.846989 50.705383
210 0 1 0.528080 10.932121 51.010193
211 0 1 -0.232901 10.564728 51.506500
212 0 1 -1.181092 10.575409 51.025787
213 0 1 -1.610781 11.259789 50.482483
214 0 1 -2.574600 11.240501 50.637604
215 0 1 -3.217722 10.714340 51.046112
216 0 1 -3.042761 9.906868 50.563110
217 0 1 -4.001070 9.756241 50.597809
218 0 1 -3.906611 8.846428 50.786102
219 0 1 -3.192581 8.219090 50.736206
220 0 1 -3.979962 7.720490 50.933594
221 0 1 -3.153292 7.320431 51.209991
222 0 1 -2.434151 6.759430 51.530884
223 0 1 -2.427420 6.788659 52.480286
224 0 1 -2.946581 5.932271 52.257385
225 0 1 -3.268002 5.030350 52.372711
226 0 1 -4.138701 5.231867 52.156403
227 0 1 -4.414851 4.719294 51.375092
228 0 1 -4.699292 4.077855 52.097412
229 0 1 -5.386151 4.177165 51.299591
230 0 1 -5.779562 4.249529 50.402496
231 0 1 -6.667162 4.435462 49.943207
232 0 1 -7.069701 3.522889 50.105103
233 0 1 -7.123372 2.584401 50.137207
234 0 1 -6.360713 2.067320 49.889008
235 0 1 -6.040480 1.091891 49.804199
236 0 1 -5.574652 0.278809 49.938812
237 0 1 -4.963952 -0.322940 49.544189
238 0 1 -5.490202 -1.064159 49.159210
239 0 1 -5.943511 -1.531940 49.945587
240 0 1 -6.448102 -1.719949 50.760010
241 0 1 -7.263081 -1.579990 51.166199
242 0 1 -7.484931 -2.151189 51.921112
243 0 1 -6.612490 -2.508739 51.640198
244 0 1 -6.228972 -1.789180 52.052399
245 0 1 -5.269822 -1.902400 51.896606
246 0 1 -4.516901 -1.679000 52.589691
247 0 1 -4.313742 -1.216260 51.669983
248 0 1 -3.433811 -1.025489 51.985901
249 0 1 -2.677391 -1.288311 51.434113
250 0 1 -2.346522 -1.838140 50.675110
251 0 1 -2.902241 -2.614049 50.762390
252 0 1 -3.421400 -2.431200 51.615112
253 0 1 -4.175921 -3.027050 51.269012
254 0 1 -4.641121 -2.913610 50.447998
255 0 1 -4.588471 -3.468780 49.720093
256 0 1 -5.472662 -3.658920 49.865112
257 0 1 -5.333331 -4.127990 48.990204
258 0 1 -5.104910 -4.664569 48.230194
259 0 1 -4.863781 -5.590679 48.035889
260 0 1 -4.788571 -6.404680 47.455109
261 0 1 -5.588341 -6.395580 47.963684
262 0 1 -5.320601 -7.352081 47.897400
263 0 1 -4.987481 -8.191780 48.104309
264 0 1 -4.775881 -8.469582 48.952209
265 0 1 -5.588751 -8.124981 48.982208
266 0 1 -5.705632 -8.299681 49.983002
267 0 1 -6.293852 -8.885580 50.544983
268 0 1 -6.127671 -9.068180 51.478210
269 0 1 -7.053261 -9.218479 51.370911
270 0 1 -7.035502 -8.314079 51.134796
271 0 1 -7.892882 -8.488682 51.462402
272 0 1 -8.396612 -8.561180 50.602692
273 0 1 -9.409410 -8.662781 50.536713
274 0 1 -9.702112 -8.911880 51.413696
275 0 1 -9.966311 -9.802780 51.054291
276 0 1 -10.625410 -10.309280 50.520905
277 0 1 -11.558710 -10.451180 50.659698
278 0 1 -11.435610 -9.934980 49.915100
279 0 1 -10.855211 -9.257679 50.335999
280 0 1 -10.618311 -8.374781 49.984100
281 0 1 -9.928812 -8.679880 49.358795
282 0 1 -10.386812 -8.206982 48.571594
283 0 1 -11.130110 -7.629779 48.357391
284 0 1 -10.795511 -6.724079 48.024200
285 0 1 -11.036310 -6.864479 47.099915
286 0 1 -11.673311 -6.186580 47.259216
287 0 1 -12.267111 -6.937679 47.035706
288 0 1 -12.843311 -7.602779 46.528290
289 0 1 -13.498911 -7.609279 47.330200
290 0 1 -13.395911 -7.328979 48.282593
291 0 1 -13.395811 -7.255580 49.202698
292 0 1 -13.544210 -6.350580 48.876495
293 0 1 -13.862711 -6.370180 48.002289
294 0 1 -13.450911 -6.164279 47.139709
295 0 1 -13.838811 -5.717380 46.404388
296 0 1 -13.343111 -6.436481 46.071716
297 0 1 -13.918811 -6.444780 45.227905
298 0 1 -13.055011 -6.614780 44.804016
299 0 1 -12.131010 -6.384880 45.004395
300 0 1 -11.381910 -7.007480 44.720490
301 0 1 -10.491312 -7.528680 44.538300
302 0 1 -10.074511 -6.641780 44.648895
303 0 1 -10.444212 -6.245880 43.863800
304 0 1 -10.628012 -5.639080 43.184296
305 0 1 -10.956610 -5.485469 42.163208
306 0 1 -11.684111 -5.677480 42.819702
307 0 1 -12.152212 -5.591280 43.625305
308 0 1 -12.840211 -4.930240 43.538391
309 0 1 -13.322811 -5.074501 42.653595
310 0 1 -13.804010 -5.290950 43.423187
311 0 1 -14.600410 -5.480701 42.917297
312 0 1 -14.513010 -5.034690 42.032288
313 0 1 -13.853611 -5.283241 41.415405
314 0 1 -14.409311 -4.706510 40.896698
315 0 1 -15.169111 -5.222900 40.459900
316 0 1 -15.587111 -4.388069 40.612793
317 0 1 -15.267712 -3.467910 40.698914
318 0 1 -15.604910 -2.899650 40.087189
319 0 1 -16.012211 -2.456069 39.347809
320 0 1 -16.571611 -1.708709 39.481812
321 0 1 -15.880711 -1.394331 40.056000
322 0 1 -15.815210 -1.075180 41.006805
323 0 1 -16.727011 -1.565629 41.152008
324 0 1 -16.775810 -1.280571 42.067810
325 0 1 -16.196310 -2.038990 42.131195
326 0 1 -15.733810 -2.465160 41.356384
327 0 1 -15.356710 -3.246931 41.874298
328 0 1 -15.277210 -2.644670 42.619904
329 0 1 -15.329311 -2.687561 43.600311
330 0 1 -15.262812 -3.557559 44.010986
331 0 1 -15.553110 -2.802631 44.633698
332 0 1 -14.871311 -3.324069 45.097595
333 0 1 -14.829512 -3.677570 46.024902
334 0 1 -14.974310 -3.980751 46.910400
335 0 1 -14.510712 -3.167940 47.157104
336 0 1 -14.436010 -2.264949 47.418610
337 0 1 -15.304811 -1.799251 47.379395
338 0 1 -15.632011 -2.422781 46.723511
339 0 1 -16.520010 -2.085041 46.909698
340 0 1 -17.291710 -2.441181 47.367615
341 0 1 -17.952711 -3.048540 47.518188
342 0 1 -17.612211 -3.614299 46.767792
343 0 1 -16.884010 -4.040519 46.326294
344 0 1 -16.737310 -3.231849 45.828705
345 0 1 -17.442711 -3.700500 45.427094
346 0 1 -17.858011 -3.935350 44.552399
347 0 1 -17.265612 -3.952091 43.788391
348 0 1 -17.082710 -4.457889 42.993896
349 0 1 -17.987011 -4.232160 42.716400
350 0 1 -18.388611 -4.770351 43.358887
351 0 1 -18.620811 -5.643880 43.727783
352 0 1 -18.755112 -4.854040 44.252197
353 0 1 -19.390110 -4.574720 43.608795
354 0 1 -20.266312 -4.707340 43.228790
355 0 1 -20.631710 -5.360040 42.588104
356 0 1 -20.553411 -4.996330 41.768890
357 0 1 -20.944712 -4.228889 41.443390
358 0 1 -20.004511 -4.330230 41.016907
359 0 1 -20.048811 -3.686309 40.302887
360 0 1 -20.525711 -2.861070 40.125000
361 0 1 -20.772810 -2.877769 39.172699
362 0 1 -21.440111 -3.152420 38.538605
363 0 1 -21.630011 -3.434989 37.632904
364 0 1 -21.550812 -4.412830 37.969696
365 0 1 -21.957411 -4.175441 38.834106
366 0 1 -22.685911 -4.628299 39.206207
367 0 1 -22.086611 -4.766290 39.885895
368 0 1 -22.497511 -4.542360 40.697388
369 0 1 -23.151211 -5.313390 40.531708
370 0 1 -23.523211 -5.863079 39.885193
371 0 1 -24.101810 -6.524181 40.251801
372 0 1 -23.407810 -7.145679 40.102112
373 0 1 -22.561111 -6.884180 39.734100
374 0 1 -22.679811 -6.528579 40.547089
375 0 1 -22.485312 -6.598079 41.447998
376 0 1 -21.924311 -7.191680 41.925293
377 0 1 -21.149311 -7.725580 42.180511
378 0 1 -20.368912 -7.636081 42.635315
379 0 1 -20.699411 -8.502281 42.955505
380 0 1 -20.216011 -8.414980 43.786194
381 0 1 -20.078812 -9.356680 43.756989
382 0 1 -19.189011 -8.930780 43.699585
383 0 1 -18.586311 -9.608480 44.142792
384 0 1 -17.916410 -9.491381 43.557098
385 0 1 -17.111912 -9.606581 43.020111
386 0 1 -16.592611 -8.973881 42.514709
387 0 1 -16.540211 -8.462780 41.690186
388 0 1 -16.888811 -7.967380 42.373199
389 0 1 -16.191610 -7.364479 42.755005
390 0 1 -15.565111 -7.104780 41.991791
391 0 1 -14.835911 -7.700080 41.777405
392 0 1 -14.337511 -8.436779 42.016693
393 0 1 -14.201911 -9.409781 41.775513
394 0 1 -13.349611 -9.667280 42.223999
395 0 1 -12.861610 -10.143480 42.958710
396 0 1 -13.622411 -10.756980 42.838013
397 0 1 -13.321111 -11.663481 42.996002
398 0 1 -12.764009 -12.110680 42.419708
399 0 1 -12.064411 -12.814381 42.392090
400 0 1 -12.051910 -13.659081 41.878998
401 0 1 -11.214211 -13.458281 41.403107
402 0 1 -11.729410 -13.960381 40.639496
403 0 1 -12.057112 -13.628780 39.835083
404 0 1 -11.997011 -13.836380 38.982117
405 0 1 -11.617111 -12.907480 39.116791
406 0 1 -11.839411 -11.962080 39.261993
407 0 1 -10.918211 -11.939581 39.510498
408 0 1 -10.364410 -12.354980 38.854889
409 0 1 -9.519609 -11.963581 38.924194
410 0 1 -8.637510 -12.090481 39.146484
411 0 1 -8.679510 -12.770481 38.478394
412 0 1 -8.353811 -13.657280 38.870483
413 0 1 -7.753462 -13.505680 38.134796
414 0 1 -6.986441 -14.123680 38.186493
415 0 1 -6.421881 -13.259180 38.146912
416 0 1 -6.900351 -13.071980 37.326202
417 0 1 -6.669432 -12.846680 36.362396
418 0 1 -6.509673 -11.938080 36.590088
419 0 1 -6.656361 -11.008580 36.738190
420 0 1 -6.351450 -10.289181 36.118805
421 0 1 -5.490731 -10.754580 36.121704
422 0 1 -4.723322 -10.882481 35.514099
423 0 1 -5.273211 -11.508980 35.065002
424 0 1 -4.761261 -12.184280 34.664490
425 0 1 -4.349982 -11.372180 34.433807
426 0 1 -4.817042 -10.866281 33.780701
427 0 1 -4.431811 -11.417780 33.063110
428 0 1 -3.561501 -11.016380 32.843292
429 0 1 -4.130101 -10.930981 32.075409
430 0 1 -4.535882 -11.669380 31.678009
431 0 1 -4.355372 -12.581079 31.797211
432 0 1 -4.733111 -12.638081 32.650696
433 0 1 -5.468211 -12.852480 31.999390
434 0 1 -6.270072 -12.885481 31.424713
435 0 1 -5.997132 -12.188181 30.807190
436 0 1 -5.443791 -11.319180 30.683014
437 0 1 -6.341052 -11.213780 30.992798
438 0 1 -7.249873 -11.281780 31.205200
439 0 1 -8.080011 -11.142780 31.768799
440 0 1 -8.227261 -10.683681 32.612305
441 0 1 -7.773551 -10.037781 33.090210
442 0 1 -7.645562 -9.158779 33.495209
443 0 1 -8.241560 -8.774281 32.856506
444 0 1 -9.103010 -9.115480 32.604889
445 0 1 -9.433111 -9.811380 31.885010
446 0 1 -10.223511 -9.833281 32.414917
447 0 1 -10.676310 -10.641581 32.243011
448 0 1 -10.208212 -10.641781 33.116608
449 0 1 -10.796511 -10.200681 33.792206
450 0 1 -10.862612 -9.520180 33.074402
451 0 1 -11.629311 -9.072781 32.747192
452 0 1 -11.647310 -9.719879 31.988708
453 0 1 -11.393610 -10.474180 31.341095
454 0 1 -11.672710 -11.324080 31.651886
455 0 1 -12.243610 -11.329380 30.838287
456 0 1 -12.356411 -11.198481 29.874695
457 0 1 -12.466112 -10.858780 28.916992
458 0 1 -12.549410 -10.828980 27.969788
459 0 1 -13.348011 -10.570880 27.513611
460 0 1 -13.284811 -9.900681 28.203888
461 0 1 -12.844011 -9.138981 27.908905
462 0 1 -11.885210 -9.128479 27.938812
463 0 1 -11.398911 -8.460979 27.353210
464 0 1 -11.733912 -7.986480 26.570587
465 0 1 -11.317511 -8.093081 25.720001
466 0 1 -10.541212 -7.951480 26.368713
467 0 1 -9.893412 -8.648781 26.736603
468 0 1 -9.625212 -9.216980 25.964508
469 0 1 -9.374611 -9.502480 25.088196
470 0 1 -9.410810 -10.472980 24.898193
471 0 1 -8.957010 -11.341681 24.832611
472 0 1 -8.760710 -11.090780 23.872009
473 0 1 -7.986792 -11.197480 23.314301
474 0 1 -7.585520 -10.351780 23.275909
475 0 1 -6.912600 -10.243581 22.618591
476 0 1 -6.102442 -10.765381 22.738495
477 0 1 -5.278941 -10.576880 23.164093
478 0 1 -4.402590 -11.016280 23.091705
479 0 1 -5.115321 -11.572880 22.726501
480 0 1 -5.069952 -12.405880 22.255402
481 0 1 -4.719592 -13.222181 21.880493
482 0 1 -5.345252 -13.452480 22.647095
483 0 1 -4.866362 -13.816380 23.424286
484 0 1 -5.747641 -13.894180 23.847687
485 0 1 -6.282221 -13.458780 24.566895
486 0 1 -6.101862 -14.085979 25.188812
487 0 1 -5.385571 -14.343681 25.816986
488 0 1 -4.756081 -13.609680 25.718903
489 0 1 -4.001521 -14.220280 26.114594
490 0 1 -4.062541 -14.194780 25.085693
491 0 1 -4.408061 -13.291481 24.744385
492 0 1 -3.684290 -12.847181 25.187103
493 0 1 -3.586071 -11.992481 24.862488
494 0 1 -3.257052 -11.961880 25.770905
495 0 1 -2.311630 -12.373581 25.932587
496 0 1 -1.885990 -12.849180 25.222809
497 0 1 -1.275191 -12.190481 25.638000
498 0 1 -1.234181 -11.488581 26.262207
499 0 1 -1.897751 -11.448481 26.973511
500 0 1 -1.276892 -10.730781 27.170105
501 0 1 -1.100672 -10.420080 28.002686
502 0 1 -0.621641 -10.734680 28.839813
503 0 1 -0.719172 -11.677080 28.540192
504 0 1 -0.502661 -12.650280 28.561310
505 0 1 -0.029801 -12.350681 29.337311
506 0 1 0.672760 -12.694981 29.878296
507 0 1 1.429287 -12.811281 30.599213
508 0 1 1.544794 -11.932781 30.251312
509 0 1 1.614858 -11.726280 29.342407
510 0 1 1.909511 -11.840681 28.446198
511 0 1 2.407140 -12.653379 28.597992
512 0 1 1.578087 -13.237080 28.665405
513 0 1 1.615843 -13.890480 27.917297
514 0 1 1.447479 -13.009380 27.699310
515 0 1 0.619138 -12.596281 27.733795
516 0 1 0.477428 -12.671280 26.852905
517 0 1 0.585718 -13.147680 26.027008
518 0 1 -0.401652 -13.226681 25.685394
519 0 1 0.271028 -13.549080 25.154297
520 0 1 0.119779 -13.042181 24.336487
521 0 1 0.182939 -12.436880 23.672913
522 0 1 0.385849 -11.688381 23.113495
523 0 1 0.715170 -12.083281 22.329498
524 0 1 1.380314 -11.539381 22.871399
525 0 1 2.118950 -11.448680 22.314896
526 0 1 2.564813 -12.254280 22.037094
527 0 1 3.473348 -12.162281 22.423599
528 0 1 4.319028 -12.617680 22.624390
529 0 1 4.549898 -11.748581 22.274399
530 0 1 3.929781 -11.707880 21.540192
531 0 1 3.730139 -11.765980 20.606903
532 0 1 3.074308 -11.968481 19.913605
533 0 1 2.470279 -12.642879 19.652603
534 0 1 1.787475 -12.853981 18.969406
535 0 1 2.192291 -12.071581 18.689102
536 0 1 2.904079 -11.610180 18.302795
537 0 1 3.719419 -12.092880 18.588593
538 0 1 4.209478 -12.921980 18.313293
539 0 1 3.614450 -13.275381 19.029907
540 0 1 4.012830 -13.870581 19.611496
541 0 1 4.472578 -13.971281 20.430099
542 0 1 5.172960 -14.681080 20.535004
543 0 1 5.612688 -13.805880 20.757202
544 0 1 6.526998 -13.736881 20.395401
545 0 1 7.185449 -14.459280 20.080093
546 0 1 7.776079 -15.128580 20.358002
547 0 1 8.396929 -14.431181 20.499496
548 0 1 9.031691 -14.972380 19.953796
549 0 1 9.840330 -15.486280 19.598694
550 0 1 9.255690 -16.248480 19.642395
551 0 1 8.677038 -16.789280 20.186707
552 0 1 7.770357 -16.628080 19.988495
553 0 1 6.997819 -17.036381 20.264801
554 0 1 7.590799 -17.018480 21.072998
555 0 1 7.493921 -17.926081 21.435608
556 0 1 7.429719 -18.937080 21.602798
557 0 1 6.505147 -19.058281 21.914093
558 0 1 6.562089 -18.113180 21.725098
559 0 1 5.550237 -18.199680 21.759903
560 0 1 5.014818 -17.598881 21.297501
561 0 1 5.909627 -17.425781 20.858093
562 0 1 6.305917 -16.846981 21.479599
563 0 1 5.488969 -16.511181 21.101303
564 0 1 5.223787 -16.213381 20.187500
565 0 1 4.950399 -17.098980 19.910202
566 0 1 4.297498 -16.684980 19.333801
567 0 1 3.910837 -16.903681 18.484299
568 0 1 3.908338 -17.715281 17.942902
569 0 1 4.324567 -18.009081 17.170502
570 0 1 3.744550 -17.782381 16.464401
571 0 1 3.056339 -17.423281 15.857408
572 0 1 3.759241 -16.823780 15.675096
573 0 1 3.553697 -15.920980 15.971696
574 0 1 2.937359 -15.618980 15.314301
575 0 1 3.161329 -14.982681 14.619905
576 0 1 3.622148 -15.722181 14.069306
577 0 1 3.123329 -16.448980 14.495194
578 0 1 3.425409 -16.781080 13.648805
579 0 1 2.896909 -16.941280 12.855607
580 0 1 2.151079 -16.299480 12.511704
581 0 1 1.959968 -17.016880 11.838197
582 0 1 1.888689 -17.203081 10.944901
583 0 1 2.567882 -16.530581 10.649796
584 0 1 3.433378 -16.226980 10.865205
585 0 1 2.860489 -15.611481 11.333100
586 0 1 2.842109 -14.861080 11.915498
587 0 1 2.158380 -14.556280 12.507295
588 0 1 1.249290 -14.557680 12.808000
589 0 1 0.851326 -14.325081 13.591706
590 0 1 0.849474 -15.119280 14.095307
591 0 1 0.015150 -15.262980 14.569505
592 0 1 -0.245800 -16.183281 14.680894
593 0 1 -1.060911 -16.599781 15.040895
594 0 1 -1.372092 -16.014980 14.365800
595 0 1 -1.792731 -15.194180 14.363908
596 0 1 -2.012680 -14.579281 15.061402
597 0 1 -1.730372 -13.654381 15.218400
598 0 1 -1.792011 -13.610880 16.175293
599 0 1 -0.923722 -13.124481 16.369095
600 0 1 -0.937762 -12.448681 17.051208
601 0 1 -0.882200 -11.895580 17.814194
602 0 1 -0.897492 -11.096581 18.333405
603 0 1 -1.088101 -10.150480 18.329803
604 0 1 -0.288990 -9.571180 18.208496
605 0 1 0.282058 -9.629280 18.909607
606 0 1 1.071895 -9.425980 19.405899
607 0 1 1.452810 -9.053780 20.289001
608 0 1 1.255989 -9.727180 20.918701
609 0 1 1.030864 -9.178480 21.694397
610 0 1 0.198768 -9.217979 21.248108
611 0 1 -0.766062 -9.231781 21.069092
612 0 1 -1.751471 -9.379879 21.044006
613 0 1 -2.402941 -8.959181 21.645798
614 0 1 -2.335461 -8.314281 20.939697
615 0 1 -1.955431 -8.529781 20.108398
616 0 1 -2.220791 -8.112680 19.357101
617 0 1 -2.617151 -7.264881 19.602097
618 0 1 -3.118771 -6.491981 19.424606
619 0 1 -4.005442 -6.636081 19.260406
620 0 1 -4.006661 -6.333980 18.347305
621 0 1 -4.461331 -6.766580 17.597794
622 0 1 -4.395901 -6.756881 16.602295
623 0 1 -3.789900 -7.265680 16.053192
624 0 1 -3.999182 -7.680881 15.171296
625 0 1 -3.725180 -6.802581 14.887803
626 0 1 -3.258162 -5.945880 14.839707
627 0 1 -2.634501 -6.639678 14.934907
628 0 1 -1.818581 -6.098979 14.732896
629 0 1 -0.929531 -6.416080 14.412705
630 0 1 -0.358691 -6.067081 13.722398
631 0 1 0.427559 -6.435480 14.104493
632 0 1 -0.131750 -6.177379 14.907395
633 0 1 -0.002461 -5.277729 15.275102
634 0 1 0.717651 -5.826980 15.524095
635 0 1 0.812502 -5.352489 16.435501
636 0 1 1.673582 -5.191930 15.946198
637 0 1 1.876234 -5.734481 16.729797
638 0 1 1.333120 -5.494750 17.497696
639 0 1 1.375393 -4.555259 17.781708
640 0 1 1.848736 -3.865890 18.270096
641 0 1 1.284580 -3.124851 18.332397
642 0 1 1.500971 -3.247131 17.350098
643 0 1 1.691782 -2.297569 17.171494
644 0 1 1.154409 -1.607719 16.761398
645 0 1 1.719017 -0.904979 16.339294
646 0 1 1.380144 -1.045139 15.412293
647 0 1 1.532812 -0.093290 15.360200
648 0 1 2.337864 -0.093179 15.798097
649 0 1 2.861049 0.520489 16.357498
650 0 1 2.762819 1.298190 15.832093
651 0 1 2.016670 1.532910 16.580200
652 0 1 2.027666 2.142790 17.307098
653 0 1 1.674701 2.826161 17.810104
654 0 1 1.274221 2.689560 18.652100
655 0 1 1.894644 1.963780 18.673996
656 0 1 2.817589 2.178610 18.536896
657 0 1 3.643450 2.648980 18.383804
658 0 1 4.251649 3.392260 18.513397
659 0 1 5.043947 3.242581 18.996994
660 0 1 5.591070 2.477049 19.325897
661 0 1 5.058031 2.950329 20.023895
662 0 1 4.192911 2.594059 20.280701
663 0 1 4.455408 2.213410 21.180405
664 0 1 4.021909 2.804751 21.850403
665 0 1 4.039518 3.788964 21.904907
666 0 1 3.804941 4.050690 20.947403
667 0 1 3.150139 4.606614 21.435898
668 0 1 2.666403 5.413496 21.395905
669 0 1 2.411793 5.547261 20.477203
670 0 1 2.531143 6.024762 19.671997
671 0 1 2.885818 6.738900 20.221893
672 0 1 3.776708 6.699540 20.615799
673 0 1 4.319780 6.472168 19.849396
674 0 1 4.668619 6.860241 19.045197
675 0 1 5.607988 7.064629 18.811005
676 0 1 6.418428 7.548619 18.567001
677 0 1 6.945158 7.801690 19.319901
678 0 1 7.293699 7.488339 20.126602
679 0 1 8.175188 7.727170 20.558395
680 0 1 7.941408 8.565842 20.217896
681 0 1 7.854410 8.334919 19.291000
682 0 1 8.527758 7.693001 18.890106
683 0 1 8.161680 8.012878 18.062805
684 0 1 8.098879 8.955101 18.199203
685 0 1 8.742788 9.405300 18.718704
686 0 1 9.590498 8.923748 18.597107
687 0 1 10.090750 9.555790 17.955704
688 0 1 9.711538 8.708439 17.571899
689 0 1 10.280050 8.337410 16.888596
690 0 1 10.435030 7.451199 17.327194
691 0 1 11.301649 7.362149 16.913498
692 0 1 11.803690 6.612980 16.511505
693 0 1 11.435198 6.113709 15.753907
694 0 1 10.553450 6.001931 16.042297
695 0 1 10.239759 5.880290 15.136506
696 0 1 9.683958 6.478539 14.492204
697 0 1 9.160318 7.099759 13.945802
698 0 1 8.499029 7.511349 14.478806
699 0 1 8.351660 8.178398 15.092301
700 0 1 9.332869 7.928292 15.260194
701 0 1 9.412188 8.835892 15.752305
702 0 1 9.225370 9.068249 14.831605
703 0 1 8.971308 9.909081 15.397294
704 0 1 8.137938 9.963600 14.938600
705 0 1 7.218660 9.851631 14.687501
706 0 1 6.542860 9.309071 14.325105
707 0 1 6.214799 9.881618 13.672303
708 0 1 5.740819 10.321789 13.037004
709 0 1 5.391389 10.269051 12.135697
710 0 1 5.530019 9.547600 11.598802
711 0 1 5.095350 8.711620 11.400605
712 0 1 4.343950 8.256348 11.872804
713 0 1 3.628950 7.957200 12.424607
714 0 1 3.846079 7.263379 11.780503
715 0 1 3.283430 6.703282 12.286408
716 0 1 3.119779 5.987010 11.636598
717 0 1 2.822759 5.056912 11.437104
718 0 1 2.142734 4.406577 11.211106
719 0 1 1.787372 3.614552 10.757707
720 0 1 1.582870 4.115746 9.877870
721 0 1 1.556192 3.645707 9.038590
722 0 1 1.393408 2.978039 9.796815
723 0 1 1.747415 2.107701 9.805177
724 0 1 2.376131 1.856591 9.068543
725 0 1 1.896242 1.849921 8.251771
726 0 1 2.289486 2.389691 7.477234
727 0 1 1.814394 3.131899 7.175751
728 0 1 1.044460 2.554610 7.283173
729 0 1 0.424740 3.034600 7.869233
730 0 1 -0.421622 3.172120 7.430695
731 0 1 -0.137881 2.718581 6.604783
732 0 1 0.344160 1.810139 6.571854
733 0 1 -0.093071 1.741061 7.395508
734 0 1 0.585369 1.023730 7.297638
735 0 1 0.460088 0.072861 7.493027
736 0 1 -0.366652 0.653830 7.701645
737 0 1 -0.985661 1.016591 8.403779
738 0 1 -1.530871 0.304871 7.870636
739 0 1 -1.821442 -0.627639 7.852173
740 0 1 -2.675041 -1.003940 7.708542
741 0 1 -3.235981 -1.777820 7.405259
742 0 1 -3.254662 -1.731651 8.385987
743 0 1 -2.712290 -1.767829 9.229035
744 0 1 -2.777561 -0.850160 9.558686
745 0 1 -2.802450 -0.289390 10.372804
746 0 1 -3.007641 0.511321 10.908494
747 0 1 -3.635811 0.902649 11.459504
748 0 1 -4.338931 0.706271 12.141801
749 0 1 -3.709671 0.013161 12.379594
750 0 1 -4.034792 -0.207460 13.304002
751 0 1 -3.717121 -0.594970 14.120103
752 0 1 -3.563851 -0.178421 14.955995
753 0 1 -4.477942 0.041430 14.657395
754 0 1 -5.465792 -0.178871 14.647904
755 0 1 -5.383181 -1.106590 14.798203
756 0 1 -5.458472 -2.051321 14.814698
757 0 1 -6.187392 -2.023611 14.220201
758 0 1 -6.152831 -1.633131 13.360307
759 0 1 -5.201212 -1.575229 13.577104
760 0 1 -5.489811 -2.340009 13.122499
761 0 1 -5.555701 -3.245811 13.362794
762 0 1 -5.156472 -4.087890 13.412400
763 0 1 -5.113112 -4.226760 14.408006
764 0 1 -6.088542 -4.335449 14.449296
765 0 1 -6.853911 -4.587921 13.972108
766 0 1 -7.283202 -5.434631 13.880006
767 0 1 -6.855172 -6.241580 13.610307
768 0 1 -6.801121 -7.148380 13.339906
769 0 1 -6.643992 -6.859581 12.399003
770 0 1 -7.612832 -6.791780 12.394303
771 0 1 -7.390252 -6.432680 11.526307
772 0 1 -6.566071 -6.787879 11.140199
773 0 1 -6.153082 -6.055980 10.672608
774 0 1 -6.242371 -6.177480 9.732118
775 0 1 -5.341301 -6.645481 9.643739
776 0 1 -4.611962 -6.606479 9.096986
777 0 1 -5.200821 -5.927980 8.661546
778 0 1 -4.325312 -5.693679 8.186860
779 0 1 -4.827700 -5.723979 7.361176
780 0 1 -4.730120 -6.442081 6.783738
781 0 1 -4.661231 -7.474079 6.860047
782 0 1 -4.569952 -8.419081 6.928010
783 0 1 -5.317412 -9.021780 7.019272
784 0 1 -5.421641 -8.814781 7.973557
785 0 1 -5.621001 -8.202080 8.695313
786 0 1 -6.109202 -8.507381 9.474977
787 0 1 -6.911681 -8.953680 9.819993
788 0 1 -6.602530 -9.570782 9.135621
789 0 1 -6.693732 -10.457280 8.905366
790 0 1 -5.891051 -10.621680 8.559419