LAMMPS data file via MDAnalysis

        2000  atoms
        1999  bonds
           0  angles
           0  dihedrals
           0  impropers

           1  atom types
           1  bond types
           0  angle types
           0  dihedral types
           0  improper types

-30.5 30.5 xlo xhi
-30.5 30.5 ylo yhi
-233.5 233.5 zlo zhi


Masses

1 1.000000

Atoms

1 0 1 -4.488759 4.381667 61.977112
2 0 1 -4.512957 4.356535 62.985687
3 0 1 -5.236758 3.810885 62.539917
4 0 1 -6.079957 3.454134 62.920807
5 0 1 -6.321158 2.998427 62.104095
6 0 1 -7.170857 3.265116 62.371613
7 0 1 -7.195359 2.340785 62.185913
8 0 1 -7.127457 2.422587 61.233002
9 0 1 -6.919657 1.683178 60.582794
10 0 1 -7.651457 1.324446 60.110687
11 0 1 -7.028058 0.583250 60.149109
12 0 1 -6.568158 0.123826 60.852692
13 0 1 -6.895558 -0.769825 60.422089
14 0 1 -6.065259 -1.000164 59.946808
15 0 1 -5.701958 -1.845153 60.264587
16 0 1 -5.588957 -2.526794 60.835205
17 0 1 -5.943858 -3.255674 60.382812
18 0 1 -6.371558 -4.030574 60.048889
19 0 1 -6.573456 -5.036045 60.131714
20 0 1 -6.783757 -4.695484 60.991302
21 0 1 -5.993157 -4.166694 61.051086
22 0 1 -5.242257 -4.035305 60.467285
23 0 1 -5.029257 -3.471694 59.754211
24 0 1 -4.165658 -3.628025 60.037292
25 0 1 -4.153058 -4.409734 59.406708
26 0 1 -3.602486 -4.604383 58.580017
27 0 1 -3.553807 -3.895454 57.924500
28 0 1 -3.604937 -4.625083 57.350800
29 0 1 -2.813439 -4.861864 57.810089
30 0 1 -2.707358 -4.794145 56.838593
31 0 1 -2.285816 -3.899293 56.750305
32 0 1 -3.222267 -3.667955 56.919312
33 0 1 -2.789406 -2.932945 57.510803
34 0 1 -2.688286 -1.946653 57.552704
35 0 1 -2.488978 -1.374723 58.321411
36 0 1 -2.122378 -1.291204 59.211304
37 0 1 -1.867718 -0.832124 60.011414
38 0 1 -0.988898 -0.568723 60.618500
39 0 1 -0.578978 0.290135 61.042999
40 0 1 -1.467297 0.562199 61.315308
41 0 1 -2.133618 1.017434 61.912689
42 0 1 -1.788347 1.913756 61.706787
43 0 1 -1.004217 1.353194 61.776001
44 0 1 -0.813057 1.457762 62.657104
45 0 1 0.028063 1.688120 63.115997
46 0 1 -0.057947 0.848893 63.539185
47 0 1 -0.763537 0.219288 63.729187
48 0 1 -0.908676 -0.318994 62.924988
49 0 1 -0.671307 -0.882413 62.238586
50 0 1 0.197252 -0.612573 62.358002
51 0 1 0.978212 -0.857383 62.866608
52 0 1 1.908052 -1.080484 63.148895
53 0 1 1.955532 -0.299114 63.717285
54 0 1 1.898594 0.463469 64.253693
55 0 1 2.017023 1.412940 64.516907
56 0 1 2.325023 1.905886 63.714294
57 0 1 3.107343 2.368525 63.466492
58 0 1 3.123083 1.604887 62.772095
59 0 1 2.632583 2.010336 62.078888
60 0 1 2.165733 1.507630 61.371796
61 0 1 2.131773 2.392607 60.857300
62 0 1 1.857393 3.293177 60.922485
63 0 1 1.591583 3.509184 60.056488
64 0 1 2.089023 3.980536 59.401794
65 0 1 1.468513 4.313315 58.734314
66 0 1 1.584984 4.534426 57.833313
67 0 1 1.325273 3.890566 57.104187
68 0 1 0.437402 4.306525 57.535400
69 0 1 -0.334057 4.793616 57.300903
70 0 1 0.063852 5.104167 56.510895
71 0 1 0.276193 5.832755 57.122406
72 0 1 1.191723 5.590807 56.977509
73 0 1 1.823133 6.281374 56.983093
74 0 1 2.221582 6.412776 56.143188
75 0 1 2.630493 6.615786 55.270111
76 0 1 3.508423 7.043406 55.622803
77 0 1 4.413112 7.167426 55.425903
78 0 1 5.261774 6.810534 55.307404
79 0 1 5.135959 5.868155 55.424591
80 0 1 5.347894 6.344416 56.293610
81 0 1 4.565212 6.221655 56.807709
82 0 1 4.099132 6.875685 57.368500
83 0 1 3.293283 7.072318 56.975494
84 0 1 3.154432 6.915495 57.903107
85 0 1 2.464462 7.587836 57.741211
86 0 1 1.978622 8.296885 58.206696
87 0 1 1.017492 8.118006 57.955597
88 0 1 0.932943 9.117594 57.952698
89 0 1 0.518333 9.763845 58.431091
90 0 1 1.022983 10.327425 59.087402
91 0 1 0.581592 10.852057 58.449585
92 0 1 0.654672 10.530954 57.540710
93 0 1 1.579822 10.299437 57.316711
94 0 1 2.526712 10.463816 57.221588
95 0 1 2.233864 11.002054 56.459991
96 0 1 1.997083 10.379316 55.787109
97 0 1 1.285593 11.000254 55.776703
98 0 1 2.083442 11.131857 55.194702
99 0 1 2.030042 12.122656 55.066589
100 0 1 1.209543 12.383356 54.593292
101 0 1 0.487793 11.735254 54.331787
102 0 1 1.279262 11.783457 53.776489
103 0 1 1.070463 10.876356 53.669708
104 0 1 0.560173 10.103724 54.006195
105 0 1 1.169292 9.915995 54.649902
106 0 1 2.097273 9.973406 54.387604
107 0 1 2.391332 10.017256 53.495789
108 0 1 2.696493 10.860456 53.196808
109 0 1 3.074482 11.285257 52.445892
110 0 1 2.295433 11.777353 52.195709
111 0 1 2.429973 11.911356 53.085297
112 0 1 2.891273 12.395754 53.842407
113 0 1 2.459882 13.148157 54.291992
114 0 1 3.328172 13.516455 54.571503
115 0 1 3.118932 14.289156 55.201691
116 0 1 3.701214 15.118258 55.492889
117 0 1 3.136383 15.864256 55.255615
118 0 1 2.269342 15.772158 54.747803
119 0 1 2.060392 14.893755 54.424988
120 0 1 1.478962 14.222857 54.784790
121 0 1 1.006382 14.992655 55.097107
122 0 1 0.320303 14.381254 55.441803
123 0 1 0.706833 14.547754 56.366394
124 0 1 0.386043 15.099154 57.032715
125 0 1 0.381103 14.287855 57.566193
126 0 1 -0.082487 14.482454 58.386597
127 0 1 0.861553 14.166655 58.505890
128 0 1 0.989572 14.301058 59.457794
129 0 1 1.442444 14.141855 60.223511
130 0 1 1.051603 14.457155 60.970306
131 0 1 1.782263 13.890757 61.141602
132 0 1 2.447372 13.366556 61.641785
133 0 1 3.397802 13.663855 61.697205
134 0 1 3.697313 13.788454 62.634888
135 0 1 4.348203 13.055056 62.885986
136 0 1 5.030603 12.785055 63.580688
137 0 1 5.740343 13.035055 63.002014
138 0 1 6.005313 13.152456 63.928711
139 0 1 5.597137 12.273756 64.239990
140 0 1 6.142023 11.509256 64.376404
141 0 1 6.422418 10.922655 65.072083
142 0 1 6.061075 9.963026 65.023804
143 0 1 6.229360 9.056326 65.277588
144 0 1 6.698703 8.293177 64.921082
145 0 1 6.070762 7.786925 65.411407
146 0 1 5.909755 7.297476 66.195404
147 0 1 6.808116 6.977854 66.358307
148 0 1 7.413732 7.458807 65.795807
149 0 1 8.070011 6.789126 65.889191
150 0 1 7.590511 6.289114 65.142395
151 0 1 7.436693 5.423647 65.425110
152 0 1 7.236982 4.750468 64.697998
153 0 1 7.828762 4.181845 65.199097
154 0 1 8.641094 4.738276 65.020813
155 0 1 9.441994 4.240706 64.566498
156 0 1 9.021774 3.477778 65.053284
157 0 1 8.583904 3.471804 64.176605
158 0 1 7.913574 3.057066 63.630005
159 0 1 8.360714 2.679064 62.851105
160 0 1 9.035873 1.985796 63.236389
161 0 1 8.363342 1.305241 63.191193
162 0 1 7.776844 0.556660 63.276306
163 0 1 7.345182 1.042279 62.550598
164 0 1 6.875518 1.109732 61.700409
165 0 1 6.106685 1.453209 62.128113
166 0 1 6.292049 0.676764 62.586212
167 0 1 6.454843 -0.188016 63.013184
168 0 1 6.672924 -0.699045 62.248901
169 0 1 5.749671 -0.769023 62.264801
170 0 1 5.000972 -0.361434 62.702911
171 0 1 4.819652 -1.217405 63.104889
172 0 1 5.378784 -1.868993 62.601990
173 0 1 5.051132 -2.528514 62.053192
174 0 1 4.612993 -2.489173 61.116302
175 0 1 5.445156 -2.070934 61.183899
176 0 1 5.687627 -2.339803 60.343994
177 0 1 5.836631 -3.278554 60.382904
178 0 1 6.023527 -3.700685 61.240692
179 0 1 6.750572 -4.016695 60.723694
180 0 1 6.857671 -3.671594 59.765900
181 0 1 7.173753 -3.743034 58.838898
182 0 1 6.457090 -3.182523 58.644196
183 0 1 6.951082 -2.429075 58.284790
184 0 1 6.856052 -1.485654 58.454285
185 0 1 6.265102 -1.407184 59.131287
186 0 1 6.932584 -1.877534 59.632111
187 0 1 6.584068 -1.499254 60.394592
188 0 1 7.380083 -1.896484 60.730194
189 0 1 7.372943 -2.325414 61.644592
190 0 1 8.077183 -1.701034 61.524597
191 0 1 8.605034 -1.531515 60.730103
192 0 1 8.834564 -2.346315 60.261505
193 0 1 9.200401 -2.587465 59.415283
194 0 1 10.109821 -3.063005 59.502594
195 0 1 10.731853 -3.701173 59.912415
196 0 1 11.325264 -3.140954 59.453613
197 0 1 11.398335 -2.234104 59.014099
198 0 1 11.724651 -1.391424 58.745392
199 0 1 11.450703 -0.774644 58.015106
200 0 1 12.084652 -1.576025 57.711487
201 0 1 11.440792 -1.815315 57.018097
202 0 1 11.538692 -2.562484 56.368286
203 0 1 10.955612 -3.336334 56.451202
204 0 1 11.023712 -3.936254 57.254303
205 0 1 11.026585 -4.602563 57.978210
206 0 1 11.791264 -4.997743 57.574890
207 0 1 12.702522 -4.870414 57.237213
208 0 1 12.556293 -5.856834 57.158112
209 0 1 12.500942 -6.364614 56.416595
210 0 1 11.669304 -6.608465 55.959106
211 0 1 12.208412 -7.264665 55.509308
212 0 1 11.634205 -7.696304 56.075897
213 0 1 11.930542 -8.498613 55.704895
214 0 1 12.514534 -8.751204 56.383606
215 0 1 12.258392 -8.355696 57.197296
216 0 1 11.866505 -7.729364 57.875793
217 0 1 12.543911 -8.080793 58.549896
218 0 1 12.434864 -9.027105 59.029114
219 0 1 11.504063 -9.290724 59.191589
220 0 1 11.006912 -9.254343 60.000183
221 0 1 11.729462 -9.286634 60.664917
222 0 1 11.223183 -8.937635 61.417786
223 0 1 10.943184 -7.950315 61.569702
224 0 1 11.059494 -7.115415 62.033112
225 0 1 11.750805 -7.014715 61.404205
226 0 1 12.749382 -7.003923 61.455292
227 0 1 13.076153 -6.272094 60.953491
228 0 1 13.535313 -5.890325 61.743591
229 0 1 13.925972 -6.746564 61.482788
230 0 1 14.038494 -7.664674 61.252899
231 0 1 13.751633 -8.530424 61.659393
232 0 1 14.595444 -9.033205 61.762390
233 0 1 14.012875 -9.560446 62.351410
234 0 1 14.074253 -9.853745 63.275787
235 0 1 13.472713 -10.410444 63.908813
236 0 1 12.887745 -10.916044 63.322296
237 0 1 13.512344 -11.279345 62.741699
238 0 1 13.797451 -12.212046 62.766602
239 0 1 13.358124 -12.842943 63.330597
240 0 1 12.871502 -13.260344 62.579498
241 0 1 13.717102 -13.109243 62.045593
242 0 1 14.143143 -12.640944 61.252197
243 0 1 13.496803 -12.017044 61.312103
244 0 1 13.080132 -12.651045 60.645996
245 0 1 12.719334 -13.477045 60.677399
246 0 1 12.815872 -13.163843 59.774689
247 0 1 12.551842 -13.712845 59.033813
248 0 1 13.105343 -12.964344 58.852905
249 0 1 13.940853 -12.584845 58.971710
250 0 1 14.663784 -13.169544 58.690704
251 0 1 14.332512 -12.943445 57.826202
252 0 1 13.528053 -12.556543 57.749390
253 0 1 12.885193 -13.287645 57.808105
254 0 1 12.062794 -13.009844 57.326294
255 0 1 11.879242 -13.291744 56.444489
256 0 1 11.163513 -13.744543 55.963989
257 0 1 12.026875 -13.798643 55.550293
258 0 1 12.983013 -13.751644 55.847595
259 0 1 13.526722 -14.361645 55.365692
260 0 1 13.155544 -14.263044 54.480103
261 0 1 13.985283 -13.833645 54.119995
262 0 1 14.680195 -14.501945 54.318207
263 0 1 15.432243 -13.860744 54.078186
264 0 1 16.342644 -14.089945 54.100708
265 0 1 17.311844 -14.070245 54.274597
266 0 1 17.921944 -13.562044 53.609894
267 0 1 18.200443 -12.953943 54.292908
268 0 1 19.019444 -13.293745 53.878296
269 0 1 19.143444 -12.859844 53.062408
270 0 1 18.520844 -12.329744 52.596313
271 0 1 18.509045 -11.528444 52.008911
272 0 1 19.148544 -12.085943 51.621002
273 0 1 19.934643 -11.490145 51.640686
274 0 1 19.535042 -10.571144 51.544891
275 0 1 20.432644 -10.283445 51.245300
276 0 1 20.952042 -10.934744 50.815704
277 0 1 21.002544 -11.841644 51.202698
278 0 1 21.599743 -12.623243 51.156006
279 0 1 22.445042 -12.172045 51.046295
280 0 1 22.078945 -11.615145 50.376190
281 0 1 21.347744 -11.943945 49.837189
282 0 1 21.522442 -12.830744 49.428192
283 0 1 22.220642 -12.779043 48.834412
284 0 1 23.070141 -12.374245 48.632202
285 0 1 22.923443 -11.796045 47.905304
286 0 1 21.920444 -11.748144 47.689911
287 0 1 22.213943 -11.151045 47.018188
288 0 1 23.148342 -10.922644 46.874603
289 0 1 24.153141 -10.825846 46.751801
290 0 1 25.073444 -10.755144 47.106689
291 0 1 26.008442 -10.968945 47.263916
292 0 1 26.234745 -11.825344 47.736389
293 0 1 26.625843 -12.766844 47.675903
294 0 1 25.854641 -13.254045 47.683594
295 0 1 24.852543 -13.261244 47.552612
296 0 1 24.547142 -13.574743 46.643402
297 0 1 24.231541 -13.642546 45.727600
298 0 1 24.352943 -12.926744 45.119995
299 0 1 25.177441 -12.691645 44.722992
300 0 1 24.696041 -12.801245 43.878601
301 0 1 23.819042 -12.739744 44.226013
302 0 1 23.656841 -13.748446 44.048004
303 0 1 23.500744 -13.717045 45.001587
304 0 1 22.659943 -13.430244 44.628693
305 0 1 22.629143 -12.902245 43.892609
306 0 1 21.847843 -12.364044 43.824585
307 0 1 21.537342 -11.487246 43.643890
308 0 1 20.684345 -11.109844 43.516296
309 0 1 19.867943 -10.694143 43.851685
310 0 1 20.667042 -10.248945 44.136108
311 0 1 20.090744 -9.476046 43.924713
312 0 1 20.678745 -8.651955 43.733093
313 0 1 21.303242 -9.086744 44.205994
314 0 1 21.841644 -9.789045 44.669403
315 0 1 22.509243 -9.326143 45.079102
316 0 1 23.210644 -9.875345 44.653412
317 0 1 23.732441 -9.297194 45.270813
318 0 1 24.263241 -8.986715 44.570984
319 0 1 23.510342 -8.576534 44.317902
320 0 1 23.378841 -8.153215 43.500305
321 0 1 23.849743 -7.325513 43.746613
322 0 1 23.417744 -6.514204 43.545715
323 0 1 22.648045 -6.915103 43.946411
324 0 1 21.718544 -6.791704 44.161194
325 0 1 21.398842 -6.883724 43.229187
326 0 1 21.538143 -6.894273 42.320892
327 0 1 21.726444 -7.139354 41.411011
328 0 1 22.407742 -6.372594 41.491394
329 0 1 22.704945 -5.527883 41.907013
330 0 1 23.612942 -5.273313 42.215698
331 0 1 24.582745 -5.196014 42.239685
332 0 1 24.406445 -5.124444 41.290588
333 0 1 25.143944 -5.767354 41.431610
334 0 1 24.905144 -6.366945 40.717102
335 0 1 25.075043 -6.839054 39.904297
336 0 1 24.231842 -6.685384 39.496307
337 0 1 23.922142 -5.761425 39.634308
338 0 1 23.491142 -4.953924 39.609497
339 0 1 23.024044 -4.738254 38.743713
340 0 1 23.906040 -4.367485 38.552704
341 0 1 24.487442 -4.392173 39.371490
342 0 1 25.295940 -4.673084 38.946503
343 0 1 25.114544 -3.936674 38.368195
344 0 1 25.629143 -3.696624 39.181793
345 0 1 25.827442 -2.843004 38.780212
346 0 1 25.051540 -2.489074 39.137695
347 0 1 25.172344 -2.004045 38.339905
348 0 1 25.921841 -1.364324 38.209900
349 0 1 25.097546 -0.811775 38.417603
350 0 1 25.172741 -1.185764 39.282501
351 0 1 24.282345 -1.252614 38.897583
352 0 1 23.354740 -1.331813 39.052002
353 0 1 23.525440 -0.461504 39.363495
354 0 1 23.554646 0.491818 39.620087
355 0 1 24.356644 1.103354 39.729095
356 0 1 24.389343 0.892483 38.806610
357 0 1 24.861546 1.606593 38.281097
358 0 1 24.131542 2.077616 38.494110
359 0 1 24.367844 3.013346 38.398193
360 0 1 24.865143 3.436884 37.715790
361 0 1 24.894840 2.827685 36.945099
362 0 1 24.964344 3.555056 36.312012
363 0 1 24.258541 4.179167 36.002991
364 0 1 23.875645 4.450457 35.101807
365 0 1 23.473743 3.793227 34.473999
366 0 1 23.371643 2.877306 34.292206
367 0 1 22.477142 2.936625 34.620087
368 0 1 22.340244 2.802577 33.629303
369 0 1 21.864841 3.533885 33.150909
370 0 1 22.510441 3.448275 32.470215
371 0 1 22.707340 4.374636 32.219513
372 0 1 22.749443 4.489287 31.278414
373 0 1 23.409843 4.573687 30.629396
374 0 1 23.397045 3.627215 30.231691
375 0 1 22.466743 3.385706 30.720003
376 0 1 22.514141 2.832095 29.940615
377 0 1 21.574844 2.781645 30.160006
378 0 1 21.450844 3.332186 29.379702
379 0 1 21.613644 3.401118 28.404604
380 0 1 20.825043 2.850955 28.078188
381 0 1 20.130844 3.399355 27.674990
382 0 1 19.334343 3.401988 28.285616
383 0 1 18.946842 3.306838 29.163301
384 0 1 18.733742 2.412867 29.447695
385 0 1 18.420643 1.823206 28.746798
386 0 1 17.546143 1.449559 28.721987
387 0 1 17.225445 0.820633 29.333590
388 0 1 16.633343 0.534865 30.087008
389 0 1 16.131245 0.715613 30.850710
390 0 1 15.279232 0.491391 31.151400
391 0 1 14.516254 0.993712 30.836611
392 0 1 14.672852 1.628413 31.564516
393 0 1 14.101723 2.252696 31.166689
394 0 1 13.149994 2.433245 31.300600
395 0 1 12.473434 2.806857 30.827913
396 0 1 12.346073 2.403628 29.988314
397 0 1 11.607433 1.758976 30.187410
398 0 1 11.609661 1.847207 29.265993
399 0 1 11.627041 1.435576 28.433413
400 0 1 11.798714 2.394248 28.120790
401 0 1 11.532291 2.394907 27.245790
402 0 1 12.045464 3.164485 26.986696
403 0 1 12.899654 3.092047 26.505617
404 0 1 13.662903 2.601748 26.016603
405 0 1 13.791203 3.418696 25.540499
406 0 1 14.017155 3.871085 26.402590
407 0 1 14.430904 4.363036 27.099001
408 0 1 14.806072 4.256117 27.999910
409 0 1 15.165813 3.556635 27.425997
410 0 1 15.922432 3.927226 27.003389
411 0 1 16.561142 4.634585 26.745394
412 0 1 17.098743 5.381426 26.981997
413 0 1 17.925842 4.859568 26.977907
414 0 1 18.636944 5.531035 26.852602
415 0 1 18.290543 6.343436 26.463198
416 0 1 18.078644 6.238425 25.475008
417 0 1 17.339443 6.734644 25.822115
418 0 1 16.438641 7.067805 25.738894
419 0 1 16.191441 7.334025 24.865908
420 0 1 16.500843 8.084734 24.364290
421 0 1 15.770504 8.702215 24.364016
422 0 1 15.083702 8.956556 24.992708
423 0 1 14.536411 9.752047 25.324709
424 0 1 13.891491 9.651175 24.553713
425 0 1 12.911892 9.812315 24.499300
426 0 1 12.953712 9.398035 23.598116
427 0 1 12.757713 9.948664 22.833803
428 0 1 12.876133 9.143705 22.229494
429 0 1 13.032951 8.329725 21.743807
430 0 1 13.490044 9.073965 21.353106
431 0 1 12.636063 9.525034 20.949800
432 0 1 13.442543 9.759794 20.576006
433 0 1 13.377712 10.550917 20.019594
434 0 1 12.411552 10.683367 20.149096
435 0 1 11.581852 10.528616 20.590899
436 0 1 11.682293 10.083376 19.790010
437 0 1 10.822952 9.740374 20.013796
438 0 1 10.801044 10.485765 19.317995
439 0 1 10.549232 10.829256 20.138399
440 0 1 10.467972 11.743856 19.788500
441 0 1 10.891521 12.247355 20.499208
442 0 1 10.910362 13.138956 20.075594
443 0 1 10.797573 13.759157 19.394503
444 0 1 10.568592 14.592855 18.986406
445 0 1 10.210274 14.958055 18.198198
446 0 1 9.252674 14.819654 18.556597
447 0 1 8.319405 15.252455 18.660494
448 0 1 7.639202 14.562857 18.550798
449 0 1 7.253313 15.494856 18.511599
450 0 1 6.402006 15.930155 18.440004
451 0 1 5.632480 15.384256 18.391695
452 0 1 6.330909 15.053156 17.808596
453 0 1 6.877275 14.320055 17.447908
454 0 1 7.514213 13.705957 17.123598
455 0 1 8.420303 13.442057 17.153704
456 0 1 8.636562 12.685854 16.580095
457 0 1 8.503002 12.472956 15.698106
458 0 1 9.175323 12.111456 15.112107
459 0 1 9.917473 12.651655 15.100297
460 0 1 9.636463 13.302855 14.459107
461 0 1 8.700592 13.144457 14.710099
462 0 1 7.731174 12.943857 14.781907
463 0 1 6.898294 13.464357 14.740205
464 0 1 6.259918 14.083357 14.405305
465 0 1 5.379045 13.717554 14.140702
466 0 1 4.781913 13.422358 14.843003
467 0 1 4.306583 14.136156 15.201402
468 0 1 4.110462 14.985956 15.554795
469 0 1 3.282692 15.265154 16.198198
470 0 1 2.695204 15.207056 16.974596
471 0 1 3.449392 15.613153 17.449495
472 0 1 3.742332 15.515154 18.328600
473 0 1 3.326322 14.760454 18.856798
474 0 1 4.043493 15.102556 19.449495
475 0 1 4.157272 15.594454 20.204195
476 0 1 4.812273 16.309156 20.448397
477 0 1 4.934392 16.108854 21.396502
478 0 1 4.299062 15.861254 22.017794
479 0 1 4.023273 16.862856 22.140505
480 0 1 3.089763 17.034357 22.042803
481 0 1 2.306192 17.197256 21.515001
482 0 1 2.111332 17.419355 20.635698
483 0 1 1.162754 17.459555 20.601595
484 0 1 1.182373 17.879557 21.433001
485 0 1 1.739183 18.318354 21.971102
486 0 1 1.807522 19.312258 21.868608
487 0 1 2.317583 20.092257 21.990694
488 0 1 3.155172 20.418455 22.236208
489 0 1 2.639972 20.517557 23.036409
490 0 1 1.720222 20.458353 22.739901
491 0 1 0.954893 19.872553 23.071993
492 0 1 1.157013 18.945154 22.801790
493 0 1 1.377273 17.995356 23.137911
494 0 1 1.040642 17.359556 22.405397
495 0 1 0.452842 16.607256 22.239305
496 0 1 1.126812 16.235456 21.702700
497 0 1 0.437294 15.714457 21.349199
498 0 1 -0.157856 15.484655 20.647997
499 0 1 -1.088768 15.598658 20.601000
500 0 1 -0.847458 14.818155 20.157198
501 0 1 -1.459637 14.393854 19.559404
502 0 1 -1.853327 13.544558 19.606096
503 0 1 -2.080899 12.582758 19.389696
504 0 1 -2.469927 13.025755 18.651705
505 0 1 -2.237038 12.167555 18.518007
506 0 1 -3.064717 11.709757 18.459200
507 0 1 -3.596508 11.231256 19.140810
508 0 1 -3.121687 10.427637 19.059694
509 0 1 -2.630268 10.663816 18.197802
510 0 1 -2.990757 9.771624 18.216295
511 0 1 -2.273049 9.678293 17.516298
512 0 1 -1.625576 9.058584 17.858095
513 0 1 -0.642868 9.291246 17.979204
514 0 1 0.163292 8.738375 17.947206
515 0 1 0.892103 8.219145 18.323793
516 0 1 1.298992 8.802805 17.632097
517 0 1 0.792534 9.005106 16.828997
518 0 1 -0.079598 8.751085 16.315401
519 0 1 0.359323 9.367025 15.764298
520 0 1 0.156143 10.303118 15.901002
521 0 1 -0.289967 10.907854 16.565096
522 0 1 -0.662047 10.017756 16.424196
523 0 1 -1.214848 9.180277 16.373598
524 0 1 -2.129637 8.884233 16.367998
525 0 1 -3.035307 8.469755 16.231707
526 0 1 -3.443768 7.578326 16.032595
527 0 1 -4.319256 7.908946 16.004702
528 0 1 -5.300557 7.713946 16.081209
529 0 1 -5.576058 6.987246 16.546297
530 0 1 -6.018557 6.156497 16.397905
531 0 1 -6.491356 5.384448 16.077608
532 0 1 -7.053357 5.113036 16.805696
533 0 1 -7.588356 5.830767 16.600298
534 0 1 -8.104757 6.163676 15.912797
535 0 1 -8.307758 6.687857 15.174699
536 0 1 -8.659057 6.620947 14.268296
537 0 1 -8.045357 5.977976 13.798997
538 0 1 -7.370556 6.485266 13.409394
539 0 1 -6.438757 6.574816 13.790803
540 0 1 -6.136057 7.255618 13.082597
541 0 1 -5.772757 6.597426 12.522294
542 0 1 -5.760058 5.641108 12.429109
543 0 1 -5.210557 4.764376 12.216905
544 0 1 -4.459258 4.273825 12.067903
545 0 1 -4.329857 3.481265 11.597703
546 0 1 -4.512558 2.584887 11.343400
547 0 1 -4.652857 1.690316 11.496507
548 0 1 -4.766657 0.769429 11.681794
549 0 1 -4.927159 1.285746 12.423402
550 0 1 -4.463957 0.804781 13.113206
551 0 1 -4.313258 0.187254 13.858705
552 0 1 -4.628357 -0.451234 13.241700
553 0 1 -5.182759 -1.065364 12.747697
554 0 1 -6.125157 -0.703933 12.548097
555 0 1 -6.833857 -0.389135 11.920594
556 0 1 -7.372658 -0.598854 12.757997
557 0 1 -8.083357 -0.949844 13.525300
558 0 1 -8.616957 -0.333564 14.062196
559 0 1 -7.852158 -0.894554 14.583497
560 0 1 -8.323257 -1.686944 14.630494
561 0 1 -8.132257 -1.533933 15.622895
562 0 1 -8.646857 -1.332204 16.432405
563 0 1 -8.015457 -0.579914 16.433306
564 0 1 -7.510758 0.256089 16.632006
565 0 1 -6.582257 -0.098400 16.519594
566 0 1 -6.045357 0.544232 16.952196
567 0 1 -6.017659 0.885214 17.861406
568 0 1 -6.961558 1.065661 18.039309
569 0 1 -7.142058 0.082179 17.937700
570 0 1 -7.528656 -0.481844 18.735201
571 0 1 -7.006558 -1.009454 19.429903
572 0 1 -6.312357 -1.511203 18.999804
573 0 1 -5.508757 -2.048025 18.932604
574 0 1 -4.622557 -1.591835 18.914003
575 0 1 -3.632736 -1.428024 19.062304
576 0 1 -2.784348 -1.643415 19.461107
577 0 1 -2.931597 -1.775795 20.371096
578 0 1 -2.380488 -1.705043 21.167498
579 0 1 -1.491947 -1.370565 21.059298
580 0 1 -1.307198 -2.025234 21.745104
581 0 1 -0.966847 -2.893274 21.516909
582 0 1 -1.633858 -3.659984 21.785707
583 0 1 -2.306069 -3.733663 22.390596
584 0 1 -2.874567 -4.527265 22.360704
585 0 1 -2.206928 -5.055753 21.892900
586 0 1 -1.291218 -5.344734 21.711702
587 0 1 -0.412657 -5.073545 22.064104
588 0 1 -0.409336 -5.829004 22.674410
589 0 1 -0.432507 -5.123374 23.352999
590 0 1 -0.838497 -5.022783 24.293001
591 0 1 -1.427477 -5.461383 24.884706
592 0 1 -0.764967 -5.920904 25.424593
593 0 1 -0.030377 -6.307634 25.981997
594 0 1 -0.264408 -6.087184 26.899691
595 0 1 -0.777626 -5.790905 27.709902
596 0 1 -0.713417 -6.718494 27.967287
597 0 1 -1.529198 -6.299184 28.321596
598 0 1 -1.198536 -7.129835 28.755800
599 0 1 -0.897358 -6.841644 29.640993
600 0 1 -1.277697 -7.336603 30.346193
601 0 1 -0.790257 -7.686664 31.129915
602 0 1 -1.335898 -8.444244 31.060701
603 0 1 -2.208298 -8.115694 30.786318
604 0 1 -2.309687 -7.249643 31.178194
605 0 1 -3.209946 -7.427663 31.266787
606 0 1 -3.471737 -7.169065 32.130707
607 0 1 -3.699988 -6.608634 32.884491
608 0 1 -3.329048 -6.277484 33.723389
609 0 1 -3.718888 -6.275135 34.641205
610 0 1 -3.583447 -5.354753 34.316498
611 0 1 -2.993607 -4.717014 33.941589
612 0 1 -3.795347 -4.544515 33.411713
613 0 1 -3.935856 -3.813623 32.760498
614 0 1 -4.617257 -4.434164 32.793396
615 0 1 -5.432957 -4.558134 33.285889
616 0 1 -6.139157 -4.105033 32.760712
617 0 1 -6.966359 -4.058624 33.384216
618 0 1 -7.719456 -3.724864 33.973694
619 0 1 -7.556157 -2.731964 33.836792
620 0 1 -7.691357 -1.791244 33.745087
621 0 1 -8.010956 -1.280574 33.026794
622 0 1 -8.807157 -1.458093 33.709198
623 0 1 -9.686157 -1.923105 33.377502
624 0 1 -9.062457 -2.461093 33.950500
625 0 1 -9.082457 -3.395444 34.255310
626 0 1 -9.743557 -3.774004 33.630615
627 0 1 -9.350057 -3.770404 32.737701
628 0 1 -10.165756 -4.056903 32.455688
629 0 1 -10.836657 -4.745803 32.296906
630 0 1 -10.624357 -5.337204 33.066803
631 0 1 -11.568657 -5.342325 33.248688
632 0 1 -11.737757 -4.517694 32.899689
633 0 1 -12.261457 -4.618364 33.788086
634 0 1 -11.988657 -5.439573 34.288208
635 0 1 -11.216057 -5.008413 34.624908
636 0 1 -10.231157 -5.279573 34.984802
637 0 1 -10.608057 -4.618484 35.564697
638 0 1 -11.063057 -4.149654 36.337891
639 0 1 -10.263258 -3.950655 36.946716
640 0 1 -9.362157 -4.256235 37.119293
641 0 1 -9.805157 -4.930503 37.641296
642 0 1 -8.885557 -4.972885 37.921600
643 0 1 -9.213357 -4.411863 38.605499
644 0 1 -9.423657 -5.170225 39.142883
645 0 1 -8.843757 -5.754583 39.610809
646 0 1 -8.259556 -6.468444 40.022491
647 0 1 -7.737156 -7.200204 39.707703
648 0 1 -8.140657 -7.951425 40.245697
649 0 1 -8.794357 -8.342224 39.680908
650 0 1 -9.117857 -8.238174 40.601013
651 0 1 -9.027057 -8.713715 41.439911
652 0 1 -8.397358 -9.351645 41.077301
653 0 1 -7.896758 -10.099545 41.339691
654 0 1 -7.815758 -10.768244 40.637604
655 0 1 -8.485757 -11.084543 40.036713
656 0 1 -9.239357 -10.687944 39.666687
657 0 1 -9.950357 -11.024843 40.397888
658 0 1 -10.771856 -11.373243 40.744690
659 0 1 -10.957457 -11.605543 39.853302
660 0 1 -11.826958 -11.860245 40.250702
661 0 1 -12.022358 -11.816145 41.230194
662 0 1 -12.444456 -12.654245 40.813293
663 0 1 -12.805157 -13.379045 40.400208
664 0 1 -13.517557 -13.346745 39.790497
665 0 1 -13.914158 -12.690645 40.333893
666 0 1 -14.715857 -12.254845 40.585999
667 0 1 -15.039257 -11.508144 40.076416
668 0 1 -16.000957 -11.683945 39.929504
669 0 1 -16.192757 -11.286144 39.110596
670 0 1 -15.575558 -11.888346 38.624084
671 0 1 -15.367058 -12.594145 37.977509
672 0 1 -14.803556 -13.355043 37.973511
673 0 1 -14.020258 -12.866144 38.080597
674 0 1 -13.270857 -12.447844 38.445984
675 0 1 -13.323957 -11.755844 37.756592
676 0 1 -13.104757 -11.222445 37.031403
677 0 1 -12.801157 -10.576345 37.687805
678 0 1 -13.119957 -9.655544 37.388611
679 0 1 -13.355057 -10.107244 36.611603
680 0 1 -13.156757 -9.443544 35.982300
681 0 1 -13.618357 -10.025845 35.320007
682 0 1 -13.606256 -9.226984 34.763397
683 0 1 -14.322157 -8.778204 34.201294
684 0 1 -14.272757 -9.021925 33.247192
685 0 1 -13.818558 -9.872046 33.072205
686 0 1 -14.304358 -9.561144 32.321106
687 0 1 -14.433256 -10.218645 31.588991
688 0 1 -15.014957 -10.870943 31.153414
689 0 1 -15.330156 -10.548143 30.320894
690 0 1 -15.120756 -11.463243 30.029390
691 0 1 -14.583157 -10.876745 29.537508
692 0 1 -13.865957 -10.353344 29.063295
693 0 1 -13.475557 -9.721045 28.438509
694 0 1 -13.103357 -8.886475 28.069307
695 0 1 -12.341257 -9.346945 28.307100
696 0 1 -11.449657 -9.669844 28.174715
697 0 1 -11.843357 -10.234045 28.820894
698 0 1 -12.079657 -11.001245 29.364504
699 0 1 -12.940657 -11.179045 29.098604
700 0 1 -13.096956 -10.939344 30.021212
701 0 1 -12.913656 -10.025743 30.051302
702 0 1 -12.380857 -9.720945 30.850008
703 0 1 -11.559057 -9.283525 31.102999
704 0 1 -11.264557 -10.191244 30.877993
705 0 1 -12.095657 -10.731544 30.785799
706 0 1 -11.657557 -11.438246 30.221407
707 0 1 -11.438156 -12.336544 30.117617
708 0 1 -10.882856 -12.780945 29.472506
709 0 1 -11.631058 -13.263945 29.112917
710 0 1 -11.187757 -14.043545 29.356600
711 0 1 -11.750856 -14.530644 28.771090
712 0 1 -11.869457 -14.103344 27.961214
713 0 1 -10.962057 -14.446244 27.949007
714 0 1 -11.243458 -14.952845 27.065401
715 0 1 -11.098356 -14.097445 26.654207
716 0 1 -10.200758 -13.778845 26.654207
717 0 1 -10.235456 -13.657145 25.756289
718 0 1 -9.223457 -13.965445 25.839113
719 0 1 -8.620957 -14.737644 26.008211
720 0 1 -8.446957 -14.049945 26.754305
721 0 1 -8.436057 -13.109743 26.766512
722 0 1 -7.712758 -13.391245 27.323305
723 0 1 -7.795659 -14.242044 27.741793
724 0 1 -7.371457 -14.286944 26.860598
725 0 1 -6.671357 -13.693745 26.574099
726 0 1 -6.165059 -13.170843 27.275087
727 0 1 -6.083458 -12.740244 28.168001
728 0 1 -6.152558 -11.859344 27.793489
729 0 1 -7.138358 -11.879644 27.663301
730 0 1 -7.417458 -11.708645 26.789705
731 0 1 -6.803357 -11.040243 27.064302
732 0 1 -7.621558 -10.512644 26.780397
733 0 1 -7.291857 -10.519045 25.921816
734 0 1 -7.524058 -9.548544 26.023317
735 0 1 -8.214157 -9.693544 25.359896
736 0 1 -7.550457 -10.241844 24.880404
737 0 1 -8.353857 -10.110144 24.273592
738 0 1 -8.775257 -10.950243 24.515688
739 0 1 -8.888257 -11.246344 23.608400
740 0 1 -9.096957 -11.684444 22.747713
741 0 1 -9.409757 -12.525644 23.226412
742 0 1 -9.486357 -13.363344 22.798098
743 0 1 -10.364758 -13.667044 22.914309
744 0 1 -10.777258 -12.804745 23.175295
745 0 1 -11.548656 -12.357944 23.479403
746 0 1 -11.992758 -11.491644 23.241610
747 0 1 -12.172857 -11.895845 22.442308
748 0 1 -11.981956 -12.046345 21.436205
749 0 1 -11.268257 -11.492544 21.074404
750 0 1 -10.396856 -11.024145 21.342607
751 0 1 -10.913258 -10.235544 21.411303
752 0 1 -10.111258 -9.912443 21.104403
753 0 1 -10.081556 -9.248655 21.840899
754 0 1 -9.743757 -9.719444 22.615114
755 0 1 -10.145258 -10.162146 23.375307
756 0 1 -10.497658 -9.250376 23.304811
757 0 1 -10.699757 -8.534796 23.946901
758 0 1 -10.095358 -8.696405 24.665316
759 0 1 -10.494757 -7.811914 24.831301
760 0 1 -10.475958 -6.862934 24.829195
761 0 1 -10.218258 -6.101995 24.243807
762 0 1 -10.053556 -5.458524 24.977999
763 0 1 -10.206657 -4.930614 24.204805
764 0 1 -11.004356 -5.351835 23.881105
765 0 1 -11.612757 -5.060274 24.612917
766 0 1 -12.288958 -4.651245 24.004213
767 0 1 -11.833757 -3.979213 23.498812
768 0 1 -11.828457 -3.711343 22.550905
769 0 1 -11.280558 -3.708173 21.751101
770 0 1 -10.934258 -2.969425 21.201799
771 0 1 -10.677458 -3.515335 20.473207
772 0 1 -10.106558 -4.125055 19.915010
773 0 1 -10.413057 -5.037805 19.871798
774 0 1 -10.704357 -5.983724 19.813097
775 0 1 -11.395258 -6.554954 19.315508
776 0 1 -11.575657 -5.801075 18.733095
777 0 1 -10.694557 -5.997055 18.332003
778 0 1 -10.169058 -6.180223 17.502306
779 0 1 -10.164557 -5.442274 16.865908
780 0 1 -9.641357 -4.615755 16.687700
781 0 1 -8.833657 -4.616903 17.327303
782 0 1 -8.502057 -5.516233 17.538607
783 0 1 -7.657958 -5.827693 17.750200
784 0 1 -7.262356 -6.031114 18.656099
785 0 1 -7.387658 -6.401044 19.572695
786 0 1 -8.155258 -6.027565 19.892900