LAMMPS data file via MDAnalysis

        2000  atoms
        1999  bonds
           0  angles
           0  dihedrals
           0  impropers

           1  atom types
           1  bond types
           0  angle types
           0  dihedral types
           0  improper types

-30.5 30.5 xlo xhi
-30.5 30.5 ylo yhi
-233.5 233.5 zlo zhi


Masses

1 1.000000

Atoms

1 0 1 -12.572500 -17.378136 64.764801
2 0 1 -13.284281 -17.075935 65.338684
3 0 1 -13.386082 -16.137335 65.575592
4 0 1 -14.145481 -16.680536 65.805481
5 0 1 -14.508282 -15.776237 66.017792
6 0 1 -15.199480 -15.684936 66.621094
7 0 1 -14.566181 -16.358536 66.959717
8 0 1 -15.037182 -16.984537 66.495392
9 0 1 -15.728882 -17.072935 67.158691
10 0 1 -16.594181 -16.670435 67.003601
11 0 1 -17.003181 -15.762237 66.796204
12 0 1 -16.562780 -14.978936 66.315094
13 0 1 -16.329283 -14.170836 65.871887
14 0 1 -15.694983 -13.582936 66.258209
15 0 1 -16.158781 -13.139836 65.575012
16 0 1 -15.324183 -13.341037 65.127197
17 0 1 -14.568682 -13.671037 65.498413
18 0 1 -14.516581 -14.301137 66.256805
19 0 1 -14.126282 -14.198237 67.158905
20 0 1 -13.872581 -13.287137 67.346710
21 0 1 -13.095951 -13.757236 66.903503
22 0 1 -12.842463 -13.006938 66.377289
23 0 1 -12.154470 -12.428857 65.820312
24 0 1 -11.190611 -12.317897 65.590088
25 0 1 -10.874922 -13.157638 65.254700
26 0 1 -11.138342 -12.709136 64.425201
27 0 1 -11.254480 -11.804317 64.197205
28 0 1 -10.677320 -12.020186 63.409210
29 0 1 -9.837721 -12.325496 63.041504
30 0 1 -10.109692 -12.800838 62.177399
31 0 1 -10.816912 -13.223937 61.733215
32 0 1 -11.628262 -13.104636 61.295593
33 0 1 -12.461472 -13.672437 60.938110
34 0 1 -13.471380 -13.674336 61.197601
35 0 1 -14.400682 -13.694537 60.944305
36 0 1 -14.245481 -14.401736 60.251099
37 0 1 -15.123981 -14.824937 60.229889
38 0 1 -16.104681 -15.026036 60.148804
39 0 1 -15.576780 -15.642837 59.640503
40 0 1 -15.694382 -16.404436 58.995789
41 0 1 -15.346380 -15.611236 58.483002
42 0 1 -15.225580 -15.282638 57.641296
43 0 1 -14.683783 -14.718637 57.078003
44 0 1 -13.812281 -14.165637 57.239807
45 0 1 -13.733980 -14.954738 57.718292
46 0 1 -12.862352 -15.307837 57.828186
47 0 1 -12.498692 -14.420737 57.958893
48 0 1 -11.602602 -14.683238 57.931091
49 0 1 -11.557121 -14.203536 57.116211
50 0 1 -12.010431 -14.100137 56.307495
51 0 1 -12.042162 -15.086337 56.297607
52 0 1 -12.645761 -15.775336 56.010498
53 0 1 -11.776541 -15.996137 55.564606
54 0 1 -10.871092 -16.100737 55.262512
55 0 1 -10.734171 -16.709335 54.497894
56 0 1 -11.538912 -17.030235 54.042114
57 0 1 -11.953260 -16.877035 53.130493
58 0 1 -11.751471 -15.931737 53.231903
59 0 1 -11.629372 -15.062337 53.689911
60 0 1 -11.130922 -14.538035 54.353607
61 0 1 -10.374872 -14.372037 54.920288
62 0 1 -10.061991 -14.145137 55.797913
63 0 1 -9.939531 -13.431937 56.423889
64 0 1 -9.087532 -13.030936 56.561890
65 0 1 -8.759281 -13.362437 55.702301
66 0 1 -8.875521 -12.926936 54.892700
67 0 1 -9.743191 -12.775138 55.285706
68 0 1 -10.023022 -12.376597 54.440399
69 0 1 -9.246283 -11.881366 54.242889
70 0 1 -8.589741 -11.645087 53.629303
71 0 1 -8.244371 -12.140468 54.367889
72 0 1 -8.575102 -12.890136 53.696106
73 0 1 -8.690861 -13.207038 52.799103
74 0 1 -9.610071 -12.907336 52.828308
75 0 1 -10.339361 -13.535235 52.524994
76 0 1 -10.925962 -14.301238 52.437988
77 0 1 -11.787661 -13.932536 52.669617
78 0 1 -11.668861 -14.073638 51.721191
79 0 1 -11.252481 -14.672637 51.077301
80 0 1 -10.376011 -14.244536 50.941498
81 0 1 -9.584982 -14.304736 50.391785
82 0 1 -9.201191 -14.162637 49.532898
83 0 1 -8.686022 -14.964437 49.290405
84 0 1 -7.861721 -14.907737 49.764191
85 0 1 -7.560312 -15.612037 50.292297
86 0 1 -8.300241 -15.355536 50.860413
87 0 1 -9.184671 -15.001937 51.270508
88 0 1 -9.182741 -14.234237 51.835388
89 0 1 -8.216551 -14.213237 51.951111
90 0 1 -7.739061 -13.360335 51.632599
91 0 1 -6.847921 -13.532638 52.049805
92 0 1 -6.830372 -12.520495 51.846710
93 0 1 -5.840651 -12.452996 52.091705
94 0 1 -5.475422 -13.189736 51.670898
95 0 1 -4.508011 -12.962935 51.819702
96 0 1 -3.526514 -13.098437 51.819794
97 0 1 -3.478636 -14.047336 52.049316
98 0 1 -3.242062 -14.779536 51.482300
99 0 1 -2.515005 -15.355838 51.679291
100 0 1 -2.033222 -14.545936 51.328186
101 0 1 -2.333866 -15.146537 50.658997
102 0 1 -2.520258 -14.214837 50.332489
103 0 1 -2.627232 -13.711535 49.532990
104 0 1 -2.399685 -13.735335 48.585693
105 0 1 -2.423613 -14.521636 48.102692
106 0 1 -1.891422 -14.735335 47.279602
107 0 1 -2.086502 -14.286036 46.436707
108 0 1 -1.303110 -14.892636 46.439392
109 0 1 -0.805632 -14.388837 47.118896
110 0 1 -0.967272 -13.518138 46.822296
111 0 1 -0.540533 -13.054437 47.548798
112 0 1 0.163458 -12.469037 47.795197
113 0 1 0.075979 -11.699697 47.174194
114 0 1 -0.366899 -11.813106 46.316498
115 0 1 -0.216249 -11.300946 45.441803
116 0 1 -0.143091 -10.465697 45.890808
117 0 1 -0.229853 -9.458417 45.854004
118 0 1 0.527449 -9.780116 46.410004
119 0 1 0.949488 -8.906577 46.112915
120 0 1 1.758120 -8.536006 45.814514
121 0 1 2.078959 -9.115247 46.495087
122 0 1 2.823149 -9.331407 45.955505
123 0 1 2.187929 -10.048596 45.914703
124 0 1 2.113447 -10.773316 46.596588
125 0 1 2.140638 -11.670688 46.846985
126 0 1 1.454599 -12.241748 47.264801
127 0 1 1.205328 -13.143037 46.982605
128 0 1 1.426310 -14.030637 47.198914
129 0 1 1.964171 -13.801137 46.475311
130 0 1 2.149160 -13.430337 45.624298
131 0 1 2.935240 -12.990638 45.810089
132 0 1 3.478880 -13.809737 45.812103
133 0 1 3.964029 -13.198537 46.325287
134 0 1 4.550009 -12.634057 46.766113
135 0 1 4.416277 -12.772338 47.711395
136 0 1 4.272367 -12.106856 48.479309
137 0 1 5.101709 -11.638488 48.275299
138 0 1 5.489080 -10.905597 47.877197
139 0 1 5.511106 -9.956508 47.724091
140 0 1 5.174391 -9.365006 48.403107
141 0 1 4.744287 -10.197717 48.495789
142 0 1 4.621359 -10.844916 49.261292
143 0 1 4.028547 -10.719558 50.025513
144 0 1 4.281279 -11.540126 50.579010
145 0 1 3.797430 -10.877156 51.206116
146 0 1 4.201780 -10.419166 52.010010
147 0 1 4.340479 -9.474017 51.855988
148 0 1 5.314768 -9.444568 52.088989
149 0 1 5.576677 -9.577598 51.166504
150 0 1 5.145491 -9.437816 50.282013
151 0 1 6.031111 -9.261886 50.046509
152 0 1 6.080870 -8.629016 49.367188
153 0 1 6.743040 -9.292846 49.144287
154 0 1 7.347719 -8.512486 49.110199
155 0 1 7.027418 -8.551686 48.221497
156 0 1 7.738020 -8.299006 47.607391
157 0 1 7.300219 -8.413697 46.726593
158 0 1 8.238020 -8.160857 46.741608
159 0 1 9.142820 -8.150857 47.019806
160 0 1 9.685019 -7.432036 47.260193
161 0 1 10.383219 -8.008166 47.393494
162 0 1 9.632418 -8.068995 48.086792
163 0 1 9.839819 -8.971107 48.467285
164 0 1 9.323420 -8.703637 49.199097
165 0 1 8.389318 -8.595767 49.177704
166 0 1 8.716120 -7.732608 49.222900
167 0 1 8.317320 -7.142238 49.767303
168 0 1 7.570620 -6.878066 49.237396
169 0 1 6.669371 -6.762116 49.626099
170 0 1 7.161818 -7.043317 50.539703
171 0 1 7.190817 -7.648536 51.283508
172 0 1 8.036818 -8.043206 51.565491
173 0 1 8.120718 -8.171737 52.504700
174 0 1 8.720919 -7.459737 52.214905
175 0 1 8.759520 -6.726626 52.771698
176 0 1 9.383417 -6.015187 52.883698
177 0 1 10.270620 -5.940578 53.102692
178 0 1 11.189718 -5.814567 53.279297
179 0 1 11.238119 -6.673766 53.735504
180 0 1 10.798918 -7.540677 53.988190
181 0 1 10.418417 -6.786027 54.510010
182 0 1 9.719717 -7.412927 54.243805
183 0 1 9.311216 -6.542037 54.316589
184 0 1 9.256720 -5.867946 54.971497
185 0 1 10.140120 -5.715858 54.706604
186 0 1 10.392218 -5.714616 55.645508
187 0 1 10.282118 -5.208756 56.508301
188 0 1 9.702017 -4.881196 57.179688
189 0 1 9.893721 -4.132537 56.578888
190 0 1 9.530821 -4.193377 55.667389
191 0 1 8.811720 -4.348687 56.369812
192 0 1 8.395418 -3.713317 57.002197
193 0 1 8.150919 -3.905417 57.954193
194 0 1 7.380518 -3.556008 58.392700
195 0 1 6.381628 -3.517997 58.467102
196 0 1 6.503149 -2.801497 57.873505
197 0 1 6.507418 -2.021565 57.274200
198 0 1 7.321520 -1.935210 56.729797
199 0 1 8.115419 -1.536526 56.262390
200 0 1 7.725416 -1.044177 56.960205
201 0 1 7.461119 -0.106936 56.903412
202 0 1 8.311518 0.261323 56.747101
203 0 1 8.661421 1.043454 57.099915
204 0 1 9.536119 0.974492 57.468903
205 0 1 10.443720 0.897844 57.177612
206 0 1 11.211920 0.904943 57.859314
207 0 1 10.605818 0.320043 58.282288
208 0 1 10.420519 0.389943 59.158203
209 0 1 9.729719 0.627542 59.800415
210 0 1 10.291616 0.288244 60.557098
211 0 1 10.688417 0.284364 61.421509
212 0 1 10.373716 -0.205317 62.174988
213 0 1 10.844118 0.344945 62.763916
214 0 1 11.529417 1.009443 62.513916
215 0 1 12.414019 0.801923 62.181305
216 0 1 12.242720 1.428373 61.429413
217 0 1 12.140718 2.033563 60.661591
218 0 1 12.058416 2.232892 59.722809
219 0 1 11.797117 3.139283 59.570099
220 0 1 12.463419 3.806623 59.581604
221 0 1 11.806917 4.439565 59.855286
222 0 1 11.389021 5.066503 60.465912
223 0 1 10.520018 4.778832 60.223206
224 0 1 10.689619 4.837075 59.200592
225 0 1 10.987921 5.788713 59.181702
226 0 1 10.538321 6.072274 58.404602
227 0 1 9.989317 6.622483 57.744598
228 0 1 9.149717 7.160733 57.699799
229 0 1 8.425619 6.603585 58.013489
230 0 1 7.611120 6.116876 58.120911
231 0 1 6.852610 5.848844 57.572693
232 0 1 7.273218 4.974305 57.761505
233 0 1 7.912218 5.425664 57.151184
234 0 1 7.874617 6.028504 56.385498
235 0 1 7.625818 5.375413 55.802002
236 0 1 7.894117 5.419293 54.830688
237 0 1 8.396116 6.033193 54.312317
238 0 1 7.519720 6.101323 53.965912
239 0 1 6.889021 6.474843 54.609192
240 0 1 7.038118 7.228322 55.200012
241 0 1 6.231737 7.682565 54.660889
242 0 1 5.700216 7.755364 53.832794
243 0 1 6.419039 7.358563 53.300690
244 0 1 6.715696 7.702863 52.471100
245 0 1 5.975008 8.206063 52.816406
246 0 1 5.319220 7.726365 52.269989
247 0 1 5.897718 7.539063 51.534210
248 0 1 5.282690 6.872941 51.246704
249 0 1 4.775248 6.578195 50.531403
250 0 1 4.791357 6.281754 49.606110
251 0 1 5.296049 7.035493 49.431610
252 0 1 5.351027 7.903962 49.100708
253 0 1 5.910040 8.641763 49.101990
254 0 1 6.315928 9.541162 48.940399
255 0 1 7.210119 9.902665 48.849915
256 0 1 7.923620 9.344663 49.172211
257 0 1 8.473619 10.107865 48.858093
258 0 1 8.231318 10.823064 49.429413
259 0 1 9.163618 11.067964 49.064087
260 0 1 9.306417 11.443864 49.896088
261 0 1 9.772219 11.319161 50.692993
262 0 1 9.240217 11.170663 51.451111
263 0 1 9.457121 10.262063 51.817505
264 0 1 10.311720 9.860765 51.882690
265 0 1 10.342520 10.292161 52.766907
266 0 1 10.143618 11.053563 53.265594
267 0 1 10.554220 11.206262 54.131104
268 0 1 9.932817 11.923165 54.391510
269 0 1 10.811819 12.018762 54.885010
270 0 1 10.993219 12.828164 54.427704
271 0 1 11.152418 13.574761 53.891113
272 0 1 10.751818 14.050462 53.176392
273 0 1 10.833220 13.948464 52.257385
274 0 1 11.304117 14.703462 51.810913
275 0 1 10.743219 14.449761 51.074493
276 0 1 10.042620 14.526361 51.781189
277 0 1 9.668417 15.391164 51.952393
278 0 1 9.350618 15.407163 52.869690
279 0 1 9.431818 15.922563 53.840515
280 0 1 8.502218 15.694161 54.189789
281 0 1 7.958719 14.950864 53.900299
282 0 1 7.804720 15.707963 53.300690
283 0 1 6.969717 16.127466 53.648193
284 0 1 6.831091 15.925363 54.570892
285 0 1 6.272039 15.231263 54.133911
286 0 1 5.928698 14.449365 53.561096
287 0 1 6.547430 13.697564 53.333313
288 0 1 7.089216 14.526464 53.432800
289 0 1 7.470320 13.851365 52.841705
290 0 1 7.086718 13.120965 52.287598
291 0 1 7.432219 12.631963 51.518707
292 0 1 6.574400 12.434762 51.126495
293 0 1 6.102678 13.296266 50.837097
294 0 1 5.968977 13.905663 50.111816
295 0 1 5.152639 14.463861 50.232208
296 0 1 5.420538 15.362863 49.911987
297 0 1 6.053690 15.604863 49.224213
298 0 1 6.236570 14.804463 48.626495
299 0 1 7.097219 15.147264 48.690002
300 0 1 7.267618 14.189866 48.586304
301 0 1 6.746687 13.370763 48.316284
302 0 1 6.094049 13.896462 47.768097
303 0 1 5.615667 13.517762 48.575012
304 0 1 4.629938 13.626565 48.788086
305 0 1 4.133879 13.585465 47.906006
306 0 1 3.484480 12.858865 47.952698
307 0 1 3.586027 11.996564 47.404297
308 0 1 4.052698 12.729661 46.820099
309 0 1 3.109690 12.472962 46.504913
310 0 1 2.613298 11.689065 46.738892
311 0 1 2.014139 11.062463 46.258209
312 0 1 1.554091 11.458764 45.458405
313 0 1 2.502329 11.616464 45.083313
314 0 1 2.630579 11.152665 44.281708
315 0 1 3.066637 10.292363 44.120300
316 0 1 2.792150 10.769265 43.242706
317 0 1 3.193487 10.078462 42.629089
318 0 1 3.903967 9.750962 43.094116
319 0 1 4.114618 10.336366 42.368805
320 0 1 3.731009 10.105561 41.463196
321 0 1 4.685728 10.285665 41.428497
322 0 1 4.757318 9.362164 41.025513
323 0 1 5.634489 9.764161 41.358612
324 0 1 6.371088 10.157063 41.705383
325 0 1 6.565630 9.656262 40.949799
326 0 1 6.818289 8.984662 41.584503
327 0 1 6.396437 8.288762 41.951904
328 0 1 6.606977 7.727063 41.189087
329 0 1 6.780939 7.877263 40.273987
330 0 1 7.605520 7.624764 40.723083
331 0 1 8.214720 8.324761 40.946899
332 0 1 8.967421 8.561265 40.460815
333 0 1 9.600416 8.686864 41.135315
334 0 1 9.473120 9.301965 41.908508
335 0 1 10.363020 9.313462 42.277313
336 0 1 11.231020 9.736764 42.113892
337 0 1 12.075216 10.034364 41.822693
338 0 1 12.053118 9.119065 41.920807
339 0 1 11.350920 8.513665 41.561188
340 0 1 11.282618 8.581464 40.530090
341 0 1 12.166719 8.201962 40.768799
342 0 1 12.209921 7.698163 39.912201
343 0 1 13.054220 7.646462 39.316101
344 0 1 12.938219 6.670724 38.979706
345 0 1 12.939817 5.793553 38.617615
346 0 1 12.096918 5.557332 39.081207
347 0 1 11.429419 6.239423 38.740692
348 0 1 10.814817 6.313474 37.987610
349 0 1 10.234617 5.579041 37.852295
350 0 1 10.363619 4.676084 37.965088
351 0 1 10.502317 3.752275 37.868195
352 0 1 10.454420 3.214063 38.637299
353 0 1 9.650518 3.185773 39.205505
354 0 1 8.783018 2.866632 38.897095
355 0 1 8.041319 2.782964 38.253693
356 0 1 8.941420 2.875665 37.828186
357 0 1 8.922621 2.839154 36.889893
358 0 1 8.892717 1.888814 36.733887
359 0 1 8.680719 1.366815 37.498505
360 0 1 7.914618 1.674005 38.031097
361 0 1 6.946619 1.806924 37.848297
362 0 1 6.000528 1.562024 37.617096
363 0 1 5.978899 0.646024 37.532898
364 0 1 6.879519 0.439412 37.184998
365 0 1 7.151018 -0.037535 38.088806
366 0 1 7.192717 0.104253 39.022095
367 0 1 7.316217 0.918863 38.595886
368 0 1 6.933718 1.297136 39.463104
369 0 1 6.760408 0.761724 40.188202
370 0 1 7.316019 0.028325 40.201202
371 0 1 7.966619 -0.601485 40.585388
372 0 1 8.814119 -0.888728 40.963806
373 0 1 8.898317 -1.842196 40.842499
374 0 1 9.020018 -1.730916 39.902008
375 0 1 9.919619 -1.435557 39.895905
376 0 1 10.819517 -1.414817 40.191406
377 0 1 10.790819 -0.485137 39.795197
378 0 1 10.996420 0.269433 39.220703
379 0 1 11.727018 0.827684 39.337097
380 0 1 11.567019 0.858632 38.417908
381 0 1 12.249121 0.457795 37.822693
382 0 1 11.622019 -0.142527 37.415894
383 0 1 11.738619 -0.148696 36.460693
384 0 1 10.853216 0.150872 36.087708
385 0 1 10.286619 -0.197615 35.342712
386 0 1 9.423319 -0.081404 34.929108
387 0 1 9.053518 0.571305 34.354614
388 0 1 8.250418 0.926564 34.758698
389 0 1 7.497820 1.426484 34.608704
390 0 1 8.075918 2.126085 34.233307
391 0 1 8.965418 2.253305 33.909607
392 0 1 9.416220 1.400502 33.646393
393 0 1 10.164518 1.448415 33.044708
394 0 1 10.135717 2.223974 32.503906
395 0 1 10.467218 2.930932 31.888306
396 0 1 9.915918 3.846376 31.669403
397 0 1 9.049620 3.946595 31.999084
398 0 1 8.994417 4.293382 31.092590
399 0 1 8.351118 5.018395 31.028198
400 0 1 8.019819 5.556321 30.281006
401 0 1 8.756319 5.821244 29.727905
402 0 1 8.140818 6.518712 29.545410
403 0 1 7.712721 6.095754 28.859406
404 0 1 7.161520 5.502702 29.327911
405 0 1 6.707968 4.714051 29.567688
406 0 1 7.373919 4.151025 29.928009
407 0 1 7.646620 4.018712 30.819000
408 0 1 7.518419 3.931623 31.742493
409 0 1 7.072317 4.452302 32.372711
410 0 1 7.126120 5.318345 32.807800
411 0 1 6.858358 6.157723 32.445404
412 0 1 7.449217 6.751554 31.981506
413 0 1 8.300421 6.908353 32.510315
414 0 1 8.853117 7.400361 31.883606
415 0 1 9.653719 7.040204 31.506104
416 0 1 10.355719 6.565392 31.969116
417 0 1 11.250620 6.477155 32.346100
418 0 1 11.926519 6.795903 33.027496
419 0 1 12.362417 6.416814 32.272797
420 0 1 12.911917 7.202134 32.255188
421 0 1 12.737020 7.002454 31.329010
422 0 1 12.748018 6.245843 30.736298
423 0 1 13.052816 5.383843 30.461090
424 0 1 13.855520 5.502053 30.935913
425 0 1 14.030218 6.468144 30.859894
426 0 1 14.852518 5.993196 30.624207
427 0 1 14.754519 5.441682 31.429504
428 0 1 14.966318 4.501603 31.434998
429 0 1 15.109221 3.665284 30.908905
430 0 1 15.602819 3.065294 31.510986
431 0 1 16.650221 3.126714 31.639191
432 0 1 17.375319 2.353994 31.402405
433 0 1 16.601316 1.815984 31.259186
434 0 1 15.684118 1.608232 31.014496
435 0 1 14.766218 1.749185 30.752899
436 0 1 15.181021 1.896074 29.908600
437 0 1 16.048521 1.910733 29.423706
438 0 1 16.619619 2.669645 29.712799
439 0 1 16.725519 2.662622 28.757202
440 0 1 17.520216 2.834985 29.324097
441 0 1 18.146521 2.081964 29.371887
442 0 1 18.424017 1.502942 28.640594
443 0 1 19.337519 1.422834 28.958313
444 0 1 19.209616 1.271573 29.877289
445 0 1 19.599318 0.473813 29.566986
446 0 1 19.662817 -0.187094 28.773987
447 0 1 19.861818 -0.959956 28.290314
448 0 1 20.588621 -1.486016 28.074402
449 0 1 20.314917 -2.313245 28.421814
450 0 1 20.601820 -2.404273 29.423309
451 0 1 21.248220 -2.636315 28.782593
452 0 1 22.137320 -2.364709 28.550293
453 0 1 22.722219 -2.813311 29.170715
454 0 1 22.432516 -3.345484 29.928192
455 0 1 22.579119 -3.833066 29.041595
456 0 1 23.027918 -4.413287 28.313995
457 0 1 23.171118 -4.107297 27.420715
458 0 1 22.316919 -4.583476 27.319489
459 0 1 21.695719 -4.496526 26.602692
460 0 1 21.964319 -4.719956 25.737305
461 0 1 21.113020 -5.005757 25.227814
462 0 1 21.765020 -4.890227 24.553589
463 0 1 21.208220 -5.096477 23.770691
464 0 1 21.534521 -4.180617 23.781708
465 0 1 21.239119 -3.767926 22.913788
466 0 1 20.642218 -4.509387 22.936401
467 0 1 20.066618 -4.652816 23.680206
468 0 1 19.374319 -5.127986 24.238892
469 0 1 19.217321 -5.252097 23.333313
470 0 1 19.665220 -6.001256 23.584900
471 0 1 20.263220 -5.849196 22.807587
472 0 1 19.782820 -6.547387 22.349899
473 0 1 18.863920 -6.242406 22.136292
474 0 1 18.556517 -6.840127 22.875610
475 0 1 17.898817 -6.260507 22.401093
476 0 1 17.352919 -6.843696 22.902802
477 0 1 17.309317 -7.533626 23.587311
478 0 1 16.885618 -8.296386 23.975403
479 0 1 16.970716 -9.112937 23.455109
480 0 1 17.735418 -9.479667 23.869507
481 0 1 18.276617 -9.803176 23.209198
482 0 1 18.704119 -10.533406 22.677795
483 0 1 19.583918 -10.160306 22.951294
484 0 1 20.429220 -10.579226 22.940613
485 0 1 19.906019 -11.024127 23.603088
486 0 1 20.160421 -10.577716 24.430908
487 0 1 20.608717 -9.742698 24.376495
488 0 1 21.378618 -10.179467 24.709991
489 0 1 21.499220 -10.185296 25.722198
490 0 1 21.683619 -9.434318 26.390900
491 0 1 21.159521 -9.436206 27.164490
492 0 1 20.543219 -8.997117 26.607391
493 0 1 20.122919 -8.338126 27.072296
494 0 1 19.561819 -7.912288 26.448914
495 0 1 19.499319 -7.760837 25.498810
496 0 1 18.664419 -7.609817 25.933014
497 0 1 17.868017 -7.995736 25.775604
498 0 1 17.794920 -8.969907 25.971588
499 0 1 17.873121 -8.954467 26.994385
500 0 1 17.549116 -8.371325 27.651184
501 0 1 17.774118 -7.391236 27.731995
502 0 1 17.925219 -7.316867 26.801208
503 0 1 17.704321 -6.725127 26.057404
504 0 1 18.446218 -6.314536 25.594604
505 0 1 19.247118 -6.744456 25.753784
506 0 1 19.131319 -5.827857 26.071289
507 0 1 19.519117 -4.949687 25.838593
508 0 1 18.874418 -4.795447 25.210388
509 0 1 18.734221 -3.828177 25.336212
510 0 1 18.083418 -3.266595 24.830902
511 0 1 17.306921 -3.169076 25.303589
512 0 1 16.935518 -2.612733 24.435791
513 0 1 16.377218 -2.295840 25.130890
514 0 1 16.411520 -1.556517 25.744293
515 0 1 16.174017 -0.573706 25.874695
516 0 1 15.571318 -0.772475 25.167389
517 0 1 15.878920 0.072984 24.859802
518 0 1 15.545919 0.951345 24.613007
519 0 1 14.671621 0.739015 24.265991
520 0 1 15.105619 -0.105235 24.130005
521 0 1 15.156218 -1.077178 23.998505
522 0 1 14.258619 -1.454617 23.782806
523 0 1 13.838820 -1.114367 22.934296
524 0 1 12.937819 -1.568286 22.895386
525 0 1 13.206221 -2.394252 22.651794
526 0 1 12.321417 -2.808255 22.791687
527 0 1 12.548018 -3.334840 22.004807
528 0 1 12.237219 -3.820136 22.756592
529 0 1 11.430918 -3.495900 23.152313
530 0 1 11.905619 -3.434500 23.963287
531 0 1 11.319418 -3.779387 24.654388
532 0 1 10.837820 -3.125666 24.048706
533 0 1 10.352919 -2.277356 24.152496
534 0 1 9.965319 -2.920043 24.789490
535 0 1 9.452417 -3.528649 24.228912
536 0 1 10.112020 -4.125417 23.811188
537 0 1 9.847319 -4.540977 22.983307
538 0 1 9.234919 -5.164947 22.590698
539 0 1 9.427816 -6.016486 22.934509
540 0 1 10.002218 -6.684707 22.522186
541 0 1 10.509718 -7.181016 21.932098
542 0 1 11.383619 -7.026467 22.378799
543 0 1 12.102419 -7.519616 22.701813
544 0 1 12.046618 -6.899926 23.531006
545 0 1 11.501219 -7.536426 23.954590
546 0 1 10.655020 -7.862487 24.099792
547 0 1 9.718321 -8.007106 23.959503
548 0 1 9.924818 -8.664407 24.709808
549 0 1 9.787619 -9.611766 24.622986
550 0 1 10.003618 -9.786956 25.514587
551 0 1 10.332617 -10.656806 25.970703
552 0 1 9.443220 -10.910308 25.990692
553 0 1 9.710619 -11.759316 26.357208
554 0 1 9.273916 -12.451846 26.973389
555 0 1 8.953016 -13.154635 26.425415
556 0 1 9.779318 -13.685037 26.576508
557 0 1 10.234617 -13.145837 27.239197
558 0 1 11.102819 -13.002135 27.565704
559 0 1 11.969816 -13.425036 27.393402
560 0 1 12.270117 -13.651336 28.261414
561 0 1 12.452620 -13.940738 29.215607
562 0 1 11.868116 -13.884135 30.010590
563 0 1 12.480017 -14.698638 29.958099
564 0 1 12.268217 -14.789138 30.947113
565 0 1 11.557417 -14.871737 31.566498
566 0 1 11.268721 -14.601638 30.647186
567 0 1 10.391520 -14.272338 30.593201
568 0 1 9.818518 -13.552035 30.884399
569 0 1 9.522318 -12.727767 30.744293
570 0 1 9.254419 -12.633576 31.697296
571 0 1 8.347418 -12.484668 32.014008
572 0 1 8.097017 -11.573207 31.700500
573 0 1 8.076017 -11.295756 30.760712
574 0 1 7.406618 -10.715686 31.185699
575 0 1 6.605867 -10.789527 30.588593
576 0 1 6.284960 -9.949187 30.165497
577 0 1 5.830248 -9.203956 30.579895
578 0 1 5.068079 -9.344676 29.982086
579 0 1 4.402269 -9.710666 30.584686
580 0 1 3.617987 -9.437648 29.965210
581 0 1 3.089590 -9.083846 29.222412
582 0 1 2.278067 -8.891597 29.752289
583 0 1 1.614668 -8.323806 29.365814
584 0 1 2.513906 -8.085776 29.062897
585 0 1 2.997458 -7.300666 28.658600
586 0 1 2.506430 -7.674167 27.908203
587 0 1 3.018778 -8.362367 27.593811
588 0 1 3.720549 -8.981517 27.354095
589 0 1 4.258070 -9.380166 28.082611
590 0 1 4.085470 -8.537726 28.594910
591 0 1 4.469698 -8.188937 29.346100
592 0 1 4.845087 -7.368676 29.187988
593 0 1 5.319868 -6.806476 28.543213
594 0 1 4.513609 -6.540326 28.299896
595 0 1 4.528368 -6.959077 27.443909
596 0 1 3.719427 -6.426177 27.546295
597 0 1 2.809549 -6.114226 27.499603
598 0 1 2.898378 -6.157687 26.555695
599 0 1 3.078329 -5.426637 25.989899
600 0 1 2.726851 -4.513356 25.989014
601 0 1 2.734919 -4.533696 26.973389
602 0 1 1.779047 -4.420207 27.166687
603 0 1 1.396868 -4.626716 26.305908
604 0 1 1.176619 -5.431916 26.768616
605 0 1 1.558527 -5.796268 25.935486
606 0 1 0.571589 -5.885547 25.968201
607 0 1 -0.268721 -6.288587 25.920410
608 0 1 -0.398203 -6.538726 24.966888
609 0 1 -0.050859 -7.419747 24.871307
610 0 1 0.580568 -7.336186 25.644287
611 0 1 1.171431 -7.562926 26.426788
612 0 1 0.949721 -7.588607 27.326996
613 0 1 -0.001173 -7.390986 27.625488
614 0 1 -0.756342 -7.947368 27.593597
615 0 1 -1.218252 -8.570796 28.072906
616 0 1 -1.534059 -7.740247 28.538300
617 0 1 -1.696352 -6.784717 28.802704
618 0 1 -0.711630 -6.951346 28.712097
619 0 1 -0.798033 -6.178437 29.299011
620 0 1 -1.650541 -5.780356 29.116516
621 0 1 -1.411680 -4.862626 29.130798
622 0 1 -0.639341 -4.445737 28.871307
623 0 1 -1.018423 -4.951947 28.092896
624 0 1 -2.004961 -5.019887 28.054901
625 0 1 -2.437502 -5.856757 27.689911
626 0 1 -3.157978 -5.316586 28.053009
627 0 1 -3.523937 -6.102447 27.604614
628 0 1 -3.947666 -6.581616 28.352203
629 0 1 -3.452253 -7.315156 27.992310
630 0 1 -4.022232 -6.972747 27.288788
631 0 1 -4.134201 -7.076735 26.370789
632 0 1 -4.143772 -6.537776 25.468109
633 0 1 -4.730282 -6.999976 24.774597
634 0 1 -5.746901 -6.940936 24.870911
635 0 1 -6.338751 -6.588096 24.118103
636 0 1 -6.569761 -6.184237 23.231201
637 0 1 -6.943632 -5.320537 23.174713
638 0 1 -7.901852 -5.299466 23.635986
639 0 1 -8.526102 -5.727798 23.129089
640 0 1 -8.529381 -6.369836 22.407700
641 0 1 -8.689762 -7.172547 21.866394
642 0 1 -7.925402 -7.506476 21.485306
643 0 1 -7.147921 -7.146497 21.853806
644 0 1 -6.403702 -7.135016 21.320099
645 0 1 -5.644392 -7.038867 21.834305
646 0 1 -5.104631 -6.286946 21.462097
647 0 1 -5.519932 -5.489007 21.755493
648 0 1 -5.139641 -5.526906 22.603912
649 0 1 -4.370852 -5.072867 22.885010
650 0 1 -4.196861 -5.980527 23.200897
651 0 1 -3.669811 -6.764907 23.357300
652 0 1 -2.796164 -6.522557 23.696808
653 0 1 -1.859421 -6.572806 23.478790
654 0 1 -1.386240 -6.855416 22.716400
655 0 1 -1.709732 -7.744857 22.808990
656 0 1 -1.518412 -8.277087 23.564514
657 0 1 -2.120262 -8.858237 24.055206
658 0 1 -1.238451 -9.152846 23.841003
659 0 1 -1.813522 -9.895488 23.869385
660 0 1 -2.233614 -9.868907 22.888000
661 0 1 -2.073122 -8.946607 22.496094
662 0 1 -1.447290 -8.709567 21.719803
663 0 1 -1.203081 -9.533227 22.270706
664 0 1 -0.884149 -10.067197 21.541702
665 0 1 -1.552313 -10.077237 20.896606
666 0 1 -1.255953 -11.022887 20.979294
667 0 1 -1.330492 -10.984637 20.054398
668 0 1 -0.856161 -11.583226 19.398895
669 0 1 -1.495260 -12.235587 19.009995
670 0 1 -1.086271 -13.118537 19.300705
671 0 1 -0.545881 -12.707467 18.593399
672 0 1 -0.181551 -13.396438 18.072906
673 0 1 0.551077 -12.798938 17.779999
674 0 1 0.759848 -11.888785 17.770996
675 0 1 0.357420 -11.231868 18.435806
676 0 1 0.728647 -10.332206 18.432693
677 0 1 1.462179 -10.346637 17.704102
678 0 1 2.158537 -9.638516 17.731201
679 0 1 2.371500 -9.135766 16.978302
680 0 1 1.410650 -8.985618 16.994507
681 0 1 1.469618 -8.465756 16.133301
682 0 1 2.078638 -7.932677 15.505203
683 0 1 2.359419 -7.299968 16.125595
684 0 1 1.364287 -7.316077 16.122604
685 0 1 0.889010 -6.520627 16.215393
686 0 1 0.267550 -5.871707 16.494293
687 0 1 0.567438 -5.537347 17.342300
688 0 1 0.717398 -6.270257 17.990692
689 0 1 1.268900 -5.844756 18.688507
690 0 1 1.662447 -6.646207 18.327499
691 0 1 2.178110 -6.255137 17.576096
692 0 1 2.687159 -6.167926 18.368698
693 0 1 3.594278 -6.229007 18.042603
694 0 1 3.832380 -6.543187 17.153305
695 0 1 3.586058 -7.415946 17.095093
696 0 1 4.444620 -7.586707 16.712494
697 0 1 5.109320 -7.053096 17.184998
698 0 1 5.121008 -6.473056 16.438004
699 0 1 6.064787 -6.626256 16.645905
700 0 1 6.208738 -7.455747 16.202499
701 0 1 6.134237 -7.186316 15.244400
702 0 1 6.332670 -7.920836 14.691605
703 0 1 6.881720 -8.724017 14.718399
704 0 1 6.866011 -8.905826 15.680206
705 0 1 7.115118 -8.357167 16.392502
706 0 1 7.201117 -7.462407 16.706604
707 0 1 7.596319 -7.198007 17.499207
708 0 1 7.145620 -7.984727 17.567307
709 0 1 6.652937 -7.313207 17.990097
710 0 1 6.843527 -7.350907 18.942505
711 0 1 6.579557 -7.311486 19.915298
712 0 1 6.069468 -7.822917 19.291702
713 0 1 5.316797 -7.576686 19.819901
714 0 1 5.347059 -7.989516 20.709396
715 0 1 5.575109 -8.882346 20.487900
716 0 1 6.345350 -9.240607 20.964508
717 0 1 7.303518 -9.206357 20.934906
718 0 1 7.910719 -9.107877 20.155899
719 0 1 7.376219 -8.968926 19.398895
720 0 1 7.792318 -9.764657 19.365005
721 0 1 7.569918 -10.291167 18.563599
722 0 1 7.310919 -11.000815 17.957901
723 0 1 6.606089 -11.412477 17.454193
724 0 1 7.321920 -11.870536 17.170807
725 0 1 6.745447 -12.506186 16.728500
726 0 1 7.178518 -12.839137 15.920593
727 0 1 7.616018 -12.241916 15.356201
728 0 1 7.714819 -11.623557 14.599701
729 0 1 8.203421 -12.212697 13.990097
730 0 1 7.765516 -12.791837 13.297394
731 0 1 7.628317 -13.385036 14.048004
732 0 1 6.938520 -13.171937 14.671402
733 0 1 7.269018 -14.086036 14.605606
734 0 1 8.008017 -14.680137 14.850601
735 0 1 7.253519 -14.838336 15.454605
736 0 1 6.318251 -15.135238 15.333008
737 0 1 5.676760 -15.781636 15.625305
738 0 1 5.287909 -15.243438 14.886200
739 0 1 5.490049 -15.254037 13.946503
740 0 1 4.590147 -15.469337 14.068497
741 0 1 4.948057 -16.389336 14.022507
742 0 1 4.807348 -17.060236 13.301697
743 0 1 3.791090 -17.119736 13.434296
744 0 1 3.935637 -16.285135 14.038208
745 0 1 4.137060 -16.098536 13.045303
746 0 1 3.989260 -16.622934 12.272507
747 0 1 3.356817 -17.347635 12.027206
748 0 1 3.271479 -17.841436 11.218201
749 0 1 2.828798 -17.951136 10.323395
750 0 1 2.875948 -18.866837 10.277298
751 0 1 2.091280 -18.663336 9.724182
752 0 1 1.160898 -18.597836 9.814896
753 0 1 1.316637 -18.040136 10.590302
754 0 1 0.912157 -17.448536 9.962418
755 0 1 0.043909 -17.030235 10.206406
756 0 1 0.497950 -16.157434 10.316696
757 0 1 0.176230 -15.738536 9.537033
758 0 1 -0.612570 -15.475738 8.947174
759 0 1 -1.079901 -16.255537 8.724716
760 0 1 -0.665281 -17.130136 8.930756
761 0 1 -1.452600 -17.657436 8.962860
762 0 1 -1.768831 -17.095736 8.257614
763 0 1 -2.462511 -17.162737 7.592270
764 0 1 -1.933012 -17.249336 6.810074
765 0 1 -0.939382 -17.662636 6.983383
766 0 1 -0.453241 -17.762035 6.135361
767 0 1 0.279329 -18.265337 6.430176
768 0 1 0.898028 -18.440336 7.217453
769 0 1 0.680449 -17.484735 7.045197
770 0 1 1.188120 -16.686037 6.838806
771 0 1 0.612490 -15.874837 6.880707
772 0 1 -0.311891 -15.891036 6.857132
773 0 1 -0.351030 -14.918237 6.859894
774 0 1 0.161100 -14.919036 7.747116
775 0 1 0.340227 -14.579337 8.634857
776 0 1 0.699057 -13.651937 8.916306
777 0 1 -0.183851 -13.211337 8.820053
778 0 1 -0.441080 -12.296805 9.066437
779 0 1 -0.644663 -12.942536 9.780304
780 0 1 -0.472601 -12.150138 10.255402
781 0 1 -1.063692 -11.461375 9.988785
782 0 1 -1.155771 -11.297116 10.967300
783 0 1 -1.503210 -10.511558 11.484406
784 0 1 -2.379677 -10.815867 11.248108
785 0 1 -2.651157 -10.027547 11.743805
786 0 1 -1.962150 -9.378726 11.786102
787 0 1 -1.813652 -8.429866 11.768997
788 0 1 -1.874931 -7.648356 11.253998
789 0 1 -2.111921 -7.571456 10.272293