LAMMPS data file via MDAnalysis

        2000  atoms
        1999  bonds
           0  angles
           0  dihedrals
           0  impropers

           1  atom types
           1  bond types
           0  angle types
           0  dihedral types
           0  improper types

-30.5 30.5 xlo xhi
-30.5 30.5 ylo yhi
-233.5 233.5 zlo zhi


Masses

1 1.000000

Atoms

1 0 1 16.952866 16.113512 -3.851914
2 0 1 16.891068 15.981512 -4.840897
3 0 1 17.552368 16.681414 -4.605134
4 0 1 18.242466 17.345114 -4.537095
5 0 1 17.985668 17.576612 -5.416794
6 0 1 17.326565 16.973711 -5.866517
7 0 1 16.938766 16.733011 -6.656815
8 0 1 16.093365 17.071115 -6.419007
9 0 1 15.867167 17.783411 -5.817048
10 0 1 14.978267 17.765814 -5.524277
11 0 1 15.186465 16.879812 -5.143708
12 0 1 14.431804 17.362314 -4.764084
13 0 1 13.877875 16.908514 -5.408982
14 0 1 13.244624 16.550314 -4.704194
15 0 1 12.268268 16.815813 -4.664567
16 0 1 12.219237 17.044115 -5.666047
17 0 1 12.419055 16.187513 -6.137299
18 0 1 11.499545 16.017511 -6.021286
19 0 1 11.410167 16.379114 -6.950165
20 0 1 10.581157 16.690512 -6.437684
21 0 1 9.946956 15.917112 -6.262833
22 0 1 9.158847 15.299913 -6.206513
23 0 1 8.570907 15.153013 -6.939576
24 0 1 8.447536 15.853914 -7.564377
25 0 1 8.268718 16.474413 -6.930619
26 0 1 7.359157 16.710814 -6.808701
27 0 1 7.344795 16.667612 -5.847382
28 0 1 6.749168 17.395514 -6.026490
29 0 1 7.485065 17.996214 -6.253190
30 0 1 7.153236 18.426912 -6.967087
31 0 1 6.799606 18.122614 -7.790726
32 0 1 7.463718 18.831911 -7.966538
33 0 1 8.038478 19.300814 -7.372040
34 0 1 7.675506 20.081011 -7.012284
35 0 1 7.038135 20.812815 -7.112702
36 0 1 6.549636 20.474215 -7.850602
37 0 1 5.807483 20.515314 -8.561570
38 0 1 5.462409 19.613913 -8.590318
39 0 1 5.029268 18.987116 -7.918259
40 0 1 4.092090 19.241312 -7.662659
41 0 1 4.506151 20.106012 -7.786484
42 0 1 4.531673 21.044912 -8.013825
43 0 1 3.858716 21.628313 -7.769639
44 0 1 3.414886 22.397615 -7.502030
45 0 1 3.179517 22.957415 -6.812851
46 0 1 2.877197 23.805014 -7.059357
47 0 1 2.136957 23.194113 -6.841874
48 0 1 1.592677 23.520411 -7.566605
49 0 1 0.963937 23.888212 -8.181916
50 0 1 0.531356 24.225313 -9.004029
51 0 1 -0.198393 23.777315 -8.572160
52 0 1 -0.765593 23.532412 -7.833863
53 0 1 -1.627944 24.053514 -7.709992
54 0 1 -2.561024 24.481813 -7.693299
55 0 1 -3.224783 25.107111 -7.436173
56 0 1 -3.446463 24.331514 -6.953324
57 0 1 -3.993523 23.565912 -7.262299
58 0 1 -4.598174 23.412413 -7.973526
59 0 1 -3.700554 23.105616 -8.093278
60 0 1 -3.285374 22.260214 -8.333833
61 0 1 -2.472014 22.594614 -8.726014
62 0 1 -2.335392 21.665514 -8.426667
63 0 1 -1.919774 22.357214 -7.822175
64 0 1 -1.291752 21.655714 -7.611374
65 0 1 -0.447583 21.940813 -7.258896
66 0 1 -0.284163 22.462713 -8.106935
67 0 1 0.542877 22.016710 -7.989594
68 0 1 0.546987 22.302214 -8.910264
69 0 1 1.210506 21.782213 -9.498673
70 0 1 1.568906 22.634111 -9.193910
71 0 1 2.338907 22.935816 -9.557832
72 0 1 2.411426 22.371313 -10.391496
73 0 1 1.706476 22.228716 -10.994096
74 0 1 2.524227 22.360415 -11.423097
75 0 1 2.861997 21.605913 -11.999497
76 0 1 3.510467 21.864313 -12.634309
77 0 1 3.294937 22.552416 -13.416993
78 0 1 3.760856 21.798513 -13.853303
79 0 1 3.732708 21.854612 -14.808000
80 0 1 4.216035 21.530512 -15.586793
81 0 1 3.726827 20.764914 -15.205598
82 0 1 3.758876 20.085512 -15.826905
83 0 1 4.724834 20.248812 -16.164902
84 0 1 4.730112 20.230211 -17.100800
85 0 1 5.593809 20.225016 -17.450500
86 0 1 5.419288 19.492815 -16.815308
87 0 1 6.103376 19.155313 -16.250595
88 0 1 6.448108 18.196012 -15.935899
89 0 1 5.761583 18.063913 -15.250001
90 0 1 5.709135 17.631212 -14.421601
91 0 1 6.388175 16.956415 -14.533097
92 0 1 7.242877 16.966413 -14.171296
93 0 1 7.488735 16.811213 -15.191499
94 0 1 8.267024 16.347212 -15.462296
95 0 1 7.528278 15.928312 -15.762208
96 0 1 6.962635 15.151613 -16.013901
97 0 1 6.307186 15.434114 -15.337296
98 0 1 6.935886 15.971914 -14.940202
99 0 1 6.123666 16.354013 -15.537599
100 0 1 5.531463 16.024714 -14.817903
101 0 1 4.698194 15.606615 -15.065003
102 0 1 4.200656 14.906015 -15.537293
103 0 1 4.791000 14.281813 -15.058396
104 0 1 4.051580 14.069315 -14.591706
105 0 1 3.434846 13.980715 -15.364594
106 0 1 2.737957 13.937613 -16.105804
107 0 1 2.921306 12.996912 -16.153595
108 0 1 1.981777 12.977312 -16.174698
109 0 1 2.113266 12.710714 -15.255006
110 0 1 2.427877 12.279493 -14.447404
111 0 1 2.352317 13.210413 -14.107606
112 0 1 1.512197 13.594515 -13.967408
113 0 1 1.837245 14.450212 -13.813905
114 0 1 0.969757 14.796812 -13.565003
115 0 1 0.064716 14.987612 -13.346604
116 0 1 -0.005034 14.034212 -13.490006
117 0 1 -0.963584 14.336313 -13.498902
118 0 1 -1.239714 13.691614 -12.788407
119 0 1 -0.772133 14.272913 -12.140397
120 0 1 -1.629744 14.131613 -11.765595
121 0 1 -2.610463 14.174612 -11.861100
122 0 1 -3.082253 13.466513 -11.449296
123 0 1 -2.770243 13.055212 -12.254701
124 0 1 -3.587365 12.690813 -12.602998
125 0 1 -3.993985 12.169584 -13.249803
126 0 1 -3.730282 12.474783 -14.141297
127 0 1 -4.167283 11.608454 -14.325501
128 0 1 -4.812794 12.113565 -14.906205
129 0 1 -5.527033 12.474104 -14.347795
130 0 1 -6.015833 12.482283 -13.578401
131 0 1 -5.755234 11.640413 -13.150407
132 0 1 -5.282032 11.040735 -13.770600
133 0 1 -5.479733 10.133444 -13.943894
134 0 1 -4.751442 10.050951 -14.546098
135 0 1 -4.801203 9.313234 -15.089509
136 0 1 -4.305724 9.896452 -15.655305
137 0 1 -3.400235 9.627314 -15.752107
138 0 1 -2.605603 9.574003 -15.150895
139 0 1 -2.062584 8.956354 -15.659196
140 0 1 -1.270012 8.513124 -15.927506
141 0 1 -1.053734 7.535704 -16.136505
142 0 1 -1.626893 7.507143 -15.315904
143 0 1 -1.627093 7.336054 -14.386308
144 0 1 -1.616753 6.412043 -14.504594
145 0 1 -1.383633 5.564284 -14.848603
146 0 1 -1.324824 4.811755 -14.112702
147 0 1 -0.732483 3.984253 -14.172608
148 0 1 -0.367854 4.077584 -15.057908
149 0 1 -0.989003 3.284010 -14.900300
150 0 1 -1.775803 3.267375 -15.453309
151 0 1 -1.360055 2.762322 -16.157104
152 0 1 -1.062514 1.909630 -16.577194
153 0 1 -0.997983 0.941464 -16.463593
154 0 1 -1.822854 0.489252 -16.613205
155 0 1 -2.320914 -0.379846 -16.733002
156 0 1 -2.135594 -0.982906 -16.042603
157 0 1 -2.664753 -0.627807 -15.301805
158 0 1 -2.336184 0.282183 -15.135804
159 0 1 -1.572823 -0.315797 -15.142594
160 0 1 -1.533953 -1.231187 -15.028398
161 0 1 -1.440434 -1.848737 -14.243104
162 0 1 -1.308034 -2.592515 -13.614106
163 0 1 -1.924794 -2.853715 -12.838502
164 0 1 -1.866734 -3.222616 -11.850907
165 0 1 -1.714934 -4.139535 -12.132203
166 0 1 -1.885054 -4.063436 -13.094300
167 0 1 -0.953145 -4.285137 -12.882798
168 0 1 -0.257254 -3.574167 -12.735108
169 0 1 -0.545073 -3.137926 -11.911408
170 0 1 -0.381194 -2.942895 -10.970902
171 0 1 0.440107 -3.354366 -10.980409
172 0 1 0.771057 -2.493917 -10.955201
173 0 1 0.918947 -1.598856 -10.527207
174 0 1 1.887016 -1.261778 -10.509995
175 0 1 2.021717 -0.313726 -10.601808
176 0 1 2.901357 -0.115736 -10.130494
177 0 1 3.595947 -0.068176 -10.747697
178 0 1 3.799516 0.234003 -9.873796
179 0 1 4.725738 0.017294 -10.042802
180 0 1 5.020896 -0.031816 -9.131761
181 0 1 4.552906 -0.086286 -8.231324
182 0 1 4.178051 -1.026888 -7.959076
183 0 1 5.095834 -0.871957 -7.686753
184 0 1 5.842914 -1.443527 -8.042497
185 0 1 6.262296 -1.198276 -8.893373
186 0 1 6.930496 -1.188676 -8.187333
187 0 1 7.443248 -1.550527 -7.376206
188 0 1 7.546058 -2.163126 -6.626893
189 0 1 8.316886 -2.697446 -6.762055
190 0 1 7.531566 -3.217756 -6.635544
191 0 1 6.728336 -3.631237 -6.801713
192 0 1 5.785244 -3.651006 -6.449570
193 0 1 6.069557 -2.835527 -6.888810
194 0 1 5.692167 -2.004936 -7.144166
195 0 1 5.930126 -1.725317 -6.272675
196 0 1 6.569767 -1.040977 -6.274689
197 0 1 6.826927 -1.752166 -5.591782
198 0 1 7.067577 -2.721838 -5.551438
199 0 1 7.643455 -2.186536 -4.895234
200 0 1 8.137336 -1.595186 -5.377137
201 0 1 9.013827 -1.192426 -5.437211
202 0 1 9.563975 -2.025337 -5.474991
203 0 1 9.080676 -2.743497 -4.850617
204 0 1 9.072425 -3.518407 -4.173066
205 0 1 9.454165 -2.676897 -3.773896
206 0 1 9.600936 -3.496927 -3.198914
207 0 1 10.470325 -3.705328 -3.485276
208 0 1 10.503158 -2.998416 -2.831879
209 0 1 10.640704 -3.869247 -2.471817
210 0 1 9.815097 -4.423746 -2.533875
211 0 1 10.027526 -4.969976 -3.270356
212 0 1 9.260875 -5.296327 -3.714051
213 0 1 8.594226 -5.357297 -3.007996
214 0 1 8.332854 -6.021966 -3.676133
215 0 1 8.354457 -6.918775 -4.121125
216 0 1 7.524005 -7.405588 -4.080826
217 0 1 7.670795 -7.224857 -5.035340
218 0 1 6.952705 -7.897485 -5.000092
219 0 1 6.825355 -8.327288 -4.120453
220 0 1 6.284317 -8.510588 -3.406083
221 0 1 5.876230 -8.665186 -2.514023
222 0 1 6.380207 -7.850587 -2.318223
223 0 1 6.496238 -8.069487 -1.408448
224 0 1 6.470417 -7.617788 -0.539597
225 0 1 6.116947 -7.807386 0.351104
226 0 1 5.750019 -7.098997 0.891143
227 0 1 5.037031 -7.096807 1.597045
228 0 1 5.392124 -7.975088 1.469223
229 0 1 6.089166 -7.748987 2.044052
230 0 1 6.999008 -8.115887 2.060775
231 0 1 6.942176 -8.870188 2.746459
232 0 1 7.778778 -9.164587 3.108062
233 0 1 8.454295 -9.062687 3.858062
234 0 1 9.007945 -8.542387 4.445251
235 0 1 9.779185 -8.041586 4.834915
236 0 1 10.302264 -7.232856 4.846405
237 0 1 11.244067 -7.424486 4.777938
238 0 1 11.411017 -8.365686 4.533844
239 0 1 11.358516 -8.208586 3.547851
240 0 1 10.844115 -8.451086 2.720809
241 0 1 10.827518 -9.338488 2.402084
242 0 1 11.282725 -9.285788 1.477813
243 0 1 10.922484 -9.131687 0.588119
244 0 1 11.446086 -8.359186 0.335952
245 0 1 12.279307 -8.154188 -0.108887
246 0 1 12.720378 -8.232687 -0.972321
247 0 1 12.536986 -7.726186 -1.736969
248 0 1 13.500556 -7.484987 -1.793671
249 0 1 13.557265 -6.623056 -2.296723
250 0 1 14.402755 -6.247606 -2.488297
251 0 1 14.891566 -6.940027 -2.874390
252 0 1 15.572467 -6.794065 -2.244492
253 0 1 16.164669 -7.607587 -1.890442
254 0 1 16.800266 -6.987756 -2.421265
255 0 1 17.378368 -7.687288 -2.239563
256 0 1 17.116768 -8.486986 -2.658799
257 0 1 16.461868 -8.883287 -2.077515
258 0 1 16.709068 -9.725687 -1.856354
259 0 1 16.490067 -10.434587 -1.204987
260 0 1 17.254566 -10.002886 -0.694489
261 0 1 17.862965 -10.562086 -0.218827
262 0 1 17.969467 -9.702387 0.144699
263 0 1 18.085369 -9.619486 1.089904
264 0 1 17.331867 -10.075087 1.469177
265 0 1 17.339069 -9.098587 1.477035
266 0 1 16.571167 -8.466587 1.652893
267 0 1 17.122467 -8.107986 0.933273
268 0 1 17.501068 -8.061087 -0.006302
269 0 1 17.890766 -7.611887 -0.692704
270 0 1 18.627266 -6.965086 -0.472641
271 0 1 19.024166 -7.846687 -0.410920
272 0 1 18.732567 -8.392588 -1.135331
273 0 1 19.494968 -9.004488 -1.253983
274 0 1 19.745869 -9.840586 -0.817536
275 0 1 19.868267 -10.587587 -1.416123
276 0 1 19.567966 -11.174288 -0.691163
277 0 1 19.346867 -11.861986 0.015991
278 0 1 18.914867 -12.046587 0.793136
279 0 1 19.433067 -12.884087 1.038223
280 0 1 20.034866 -13.648287 0.962173
281 0 1 20.107868 -13.755087 1.876754
282 0 1 20.767868 -14.015686 2.542251
283 0 1 21.400166 -13.895887 3.239395
284 0 1 22.196568 -14.283087 3.524459
285 0 1 21.673969 -14.812286 4.180526
286 0 1 21.858967 -14.440086 5.071456
287 0 1 21.574764 -13.935787 5.897186
288 0 1 21.800770 -13.285187 5.178466
289 0 1 21.980167 -12.879786 4.321167
290 0 1 22.743267 -12.895687 4.847259
291 0 1 23.001865 -12.762287 5.795852
292 0 1 23.932667 -12.444787 5.659912
293 0 1 24.193466 -12.038587 6.563766
294 0 1 24.470165 -11.556587 7.371917
295 0 1 24.920067 -12.374887 7.608673
296 0 1 24.919067 -12.494787 8.600066
297 0 1 24.457466 -12.025987 9.354629
298 0 1 24.467770 -12.691487 10.037902
299 0 1 24.077869 -13.558487 10.214507
300 0 1 24.941566 -13.945187 10.242400
301 0 1 25.397068 -14.774887 9.988799
302 0 1 24.491268 -15.236687 10.220504
303 0 1 24.512165 -15.080587 9.301894
304 0 1 23.808968 -15.673887 9.599822
305 0 1 23.251167 -15.985687 8.850814
306 0 1 22.641666 -16.348387 9.454116
307 0 1 22.351868 -15.427687 9.356414
308 0 1 22.031967 -15.865887 10.182204
309 0 1 22.528965 -15.300886 10.764998
310 0 1 21.927670 -15.783987 11.318496
311 0 1 22.596367 -16.039087 11.956893
312 0 1 22.026867 -15.341887 12.252807
313 0 1 21.778267 -15.918087 12.940307
314 0 1 21.098064 -16.478086 12.356002
315 0 1 20.086868 -16.773487 12.372405
316 0 1 20.447666 -16.644487 11.488204
317 0 1 21.312466 -16.930187 11.412292
318 0 1 21.093266 -17.539387 10.643600
319 0 1 20.204266 -17.699287 10.397399
320 0 1 20.258667 -17.869987 11.366302
321 0 1 20.741169 -18.206387 12.052703
322 0 1 20.228168 -18.899986 11.591598
323 0 1 20.648968 -18.705986 10.623595
324 0 1 19.910667 -19.248386 10.579604
325 0 1 20.285168 -20.115988 10.903396
326 0 1 20.359867 -20.347588 11.855605
327 0 1 20.099865 -20.237587 12.785598
328 0 1 20.446667 -19.961388 13.708892
329 0 1 20.539165 -20.577486 14.427093
330 0 1 20.843967 -19.719486 14.748900
331 0 1 19.993168 -19.484087 15.158401
332 0 1 19.875469 -20.106987 15.813598
333 0 1 19.464565 -20.310087 15.029006
334 0 1 18.717869 -20.596386 15.510406
335 0 1 18.790569 -21.598787 15.626693
336 0 1 17.867966 -21.564186 15.704696
337 0 1 17.826168 -20.928988 16.393494
338 0 1 16.993168 -20.989286 16.927002
339 0 1 16.963867 -20.033987 17.367203
340 0 1 17.342068 -19.233486 17.825195
341 0 1 16.925068 -18.416887 17.585602
342 0 1 16.362667 -19.064987 17.111404
343 0 1 15.776164 -19.647686 16.606506
344 0 1 15.166465 -18.987787 16.410202
345 0 1 14.349475 -18.482086 16.639893
346 0 1 14.730166 -18.127188 17.412201
347 0 1 14.853686 -18.769087 18.106598
348 0 1 14.327865 -19.416986 17.570999
349 0 1 13.989154 -19.487387 16.616699
350 0 1 13.611587 -18.792788 15.953094
351 0 1 13.190547 -18.284388 15.256194
352 0 1 13.864985 -18.515287 14.567000
353 0 1 14.488574 -19.297287 14.537398
354 0 1 15.300265 -18.725086 14.339507
355 0 1 16.002369 -18.573587 15.002593
356 0 1 16.836067 -18.296886 15.500701
357 0 1 16.648266 -17.334087 15.568801
358 0 1 16.884869 -16.724688 14.862899
359 0 1 16.436565 -15.934387 15.234694
360 0 1 15.639167 -15.846687 15.750793
361 0 1 15.088767 -16.628986 15.619094
362 0 1 14.579307 -16.162386 14.947692
363 0 1 13.564536 -16.115088 14.952300
364 0 1 12.863574 -16.754988 15.141097
365 0 1 12.283126 -16.864786 14.395202
366 0 1 12.491916 -17.537386 13.699294
367 0 1 12.219264 -16.870386 13.092895
368 0 1 12.283217 -17.667486 12.656798
369 0 1 11.961135 -17.959486 11.790496
370 0 1 11.314876 -18.279186 11.098693
371 0 1 10.910567 -18.557987 10.292296
372 0 1 11.552405 -18.063187 9.773162
373 0 1 11.451526 -17.168087 10.154799
374 0 1 10.872787 -16.589487 10.600402
375 0 1 10.234256 -17.212986 10.992293
376 0 1 9.350368 -16.901688 11.444900
377 0 1 8.653197 -17.331287 10.894103
378 0 1 8.041144 -18.020786 10.849105
379 0 1 7.207336 -17.904387 10.407302
380 0 1 7.154106 -17.130987 9.900344
381 0 1 7.480575 -16.466387 9.220092
382 0 1 7.462226 -17.237387 8.653670
383 0 1 8.090537 -17.424486 8.014159
384 0 1 7.981967 -17.465286 7.115905
385 0 1 7.527946 -18.138586 6.639373
386 0 1 7.570835 -17.806587 5.698883
387 0 1 7.809547 -17.152086 5.058944
388 0 1 8.633258 -17.576588 4.927658
389 0 1 8.872825 -17.041786 5.734436
390 0 1 7.952945 -16.652487 5.947433
391 0 1 8.344855 -16.345287 6.733367
392 0 1 8.945636 -15.589888 6.472305
393 0 1 9.910205 -15.434887 6.311172
394 0 1 10.090655 -14.618088 5.899459
395 0 1 9.406714 -14.749786 5.218383
396 0 1 9.609267 -15.181486 4.384933
397 0 1 9.582355 -15.984587 4.915817
398 0 1 9.466266 -16.293987 3.977554
399 0 1 9.555514 -17.093487 3.379013
400 0 1 10.154254 -16.617586 2.774963
401 0 1 9.463386 -16.122686 2.431289
402 0 1 8.952476 -15.570587 3.013366
403 0 1 8.200057 -14.975487 3.219146
404 0 1 7.617248 -14.311487 2.834198
405 0 1 7.020446 -13.790487 2.210815
406 0 1 6.014806 -13.924887 2.127136
407 0 1 5.702213 -14.064587 3.032104
408 0 1 5.665384 -14.475388 3.889373
409 0 1 6.347147 -14.872686 3.370834
410 0 1 6.709865 -13.937687 3.151428
411 0 1 6.140836 -13.265487 3.491622
412 0 1 5.344507 -13.114887 3.963943
413 0 1 5.439052 -13.356687 4.871398
414 0 1 5.488420 -12.441287 5.280075
415 0 1 5.545246 -11.487387 5.459045
416 0 1 5.959966 -10.657587 5.636550
417 0 1 6.712226 -11.065088 6.052017
418 0 1 7.231346 -11.596987 5.402816
419 0 1 7.897426 -11.004387 4.844955
420 0 1 7.766098 -10.644587 5.738815
421 0 1 7.937156 -9.855486 6.239242
422 0 1 7.671657 -9.610888 7.176895
423 0 1 7.931045 -9.785288 8.078612
424 0 1 6.968616 -10.038387 8.347106
425 0 1 7.192916 -10.651587 9.004195
426 0 1 7.786548 -10.324087 9.793548
427 0 1 6.973968 -10.224987 10.225097
428 0 1 7.140678 -10.139788 11.133101
429 0 1 7.147277 -10.168787 12.145003
430 0 1 7.810268 -10.255087 12.782805
431 0 1 8.629867 -10.341387 13.184402
432 0 1 9.441295 -10.864786 13.274001
433 0 1 10.068538 -10.911386 13.999297
434 0 1 9.442176 -10.455088 14.579696
435 0 1 8.588008 -10.836187 14.628295
436 0 1 7.821716 -10.254786 14.834197
437 0 1 8.559726 -9.821587 14.272399
438 0 1 8.325477 -8.985687 13.654403
439 0 1 7.670516 -8.973186 12.922606
440 0 1 7.202827 -8.693087 12.128798
441 0 1 7.399967 -8.586487 11.223693
442 0 1 8.188056 -8.077387 11.201705
443 0 1 7.380405 -7.574386 11.018996
444 0 1 6.799778 -6.883478 11.140807
445 0 1 5.943397 -6.523675 11.027297
446 0 1 5.243064 -5.908517 10.911605
447 0 1 4.605493 -5.278516 10.484694
448 0 1 4.744930 -4.633346 9.845565
449 0 1 4.444345 -4.234447 10.696593
450 0 1 3.619377 -3.781227 10.783797
451 0 1 2.705186 -3.684387 10.911605
452 0 1 2.306127 -4.339746 11.502395
453 0 1 1.592847 -4.275667 12.099700
454 0 1 0.963867 -4.037817 11.443801
455 0 1 0.007047 -4.319847 11.938003
456 0 1 0.274026 -5.171766 11.526504
457 0 1 0.117237 -5.784177 12.214293
458 0 1 -0.639113 -5.952177 12.720504
459 0 1 -0.228943 -6.671697 13.208098
460 0 1 0.394357 -7.182897 13.729003
461 0 1 1.288455 -7.266376 13.323699
462 0 1 1.351987 -6.599756 14.027694
463 0 1 0.864746 -5.961446 14.533996
464 0 1 -0.065024 -5.691747 14.598495
465 0 1 -0.793484 -6.218437 14.821303
466 0 1 -0.288743 -6.992555 14.720702
467 0 1 0.625087 -7.396287 14.825301
468 0 1 0.567996 -6.669477 15.538100
469 0 1 1.358486 -6.773077 16.013397
470 0 1 1.602096 -6.954347 16.895996
471 0 1 1.420257 -6.562627 17.774094
472 0 1 1.723586 -5.873685 17.156097
473 0 1 1.398876 -5.649286 16.249695
474 0 1 0.555866 -5.631446 16.639099
475 0 1 -0.213513 -5.916757 17.185303
476 0 1 -1.062173 -5.521158 17.334900
477 0 1 -1.996974 -5.743036 17.410004
478 0 1 -2.978693 -5.669496 17.511002
479 0 1 -3.014813 -5.224885 18.363800
480 0 1 -3.113814 -4.508556 18.992004
481 0 1 -3.898154 -4.527076 19.471603
482 0 1 -3.927655 -4.392757 20.453995
483 0 1 -4.816735 -4.345226 20.873001
484 0 1 -4.731965 -5.171747 20.457397
485 0 1 -5.517733 -5.067506 19.873901
486 0 1 -5.688433 -5.704647 20.614594
487 0 1 -5.623333 -6.245447 21.454300
488 0 1 -6.420533 -6.405015 21.963699
489 0 1 -7.121233 -6.272296 21.313705
490 0 1 -7.497633 -6.072046 22.194305
491 0 1 -8.182935 -5.433937 21.733597
492 0 1 -7.461133 -4.773706 21.805099
493 0 1 -6.706933 -4.153587 21.764206
494 0 1 -6.887034 -3.601686 22.512512
495 0 1 -6.851834 -3.012777 23.287201
496 0 1 -6.204133 -2.695907 23.866516
497 0 1 -5.211434 -2.607656 23.890106
498 0 1 -4.942524 -1.756586 23.428406
499 0 1 -4.424454 -2.218727 22.757812
500 0 1 -3.607064 -1.797228 22.457794
501 0 1 -2.689805 -1.712865 22.269699
502 0 1 -1.991562 -1.762327 21.649796
503 0 1 -1.301694 -1.096397 21.630600
504 0 1 -1.927214 -0.578136 21.216400
505 0 1 -2.804345 -0.193527 21.169998
506 0 1 -3.420304 -0.331146 20.468704
507 0 1 -3.913973 -1.149336 20.555801
508 0 1 -4.380684 -1.834097 21.056793
509 0 1 -5.216233 -2.198865 21.204300
510 0 1 -5.589734 -1.629907 20.500793
511 0 1 -6.103734 -1.319627 21.221008
512 0 1 -6.637333 -0.492397 21.290894
513 0 1 -7.205334 0.238154 21.054901
514 0 1 -7.763934 -0.535776 21.383301
515 0 1 -8.770034 -0.566787 21.395905
516 0 1 -9.280835 0.086363 21.827301
517 0 1 -9.516435 1.075173 22.023499
518 0 1 -9.078935 1.381674 22.806793
519 0 1 -8.737035 1.373154 23.713684
520 0 1 -8.082934 2.147015 23.663696
521 0 1 -8.022534 3.226220 23.585114
522 0 1 -8.875535 3.161892 23.121307
523 0 1 -9.795334 3.376845 23.312805
524 0 1 -9.727034 4.032843 22.635498
525 0 1 -10.225934 3.356514 22.220200
526 0 1 -10.476933 2.427300 22.266296
527 0 1 -10.587234 1.879414 21.444504
528 0 1 -10.331134 2.397507 20.599899
529 0 1 -10.282334 3.398695 20.329102
530 0 1 -11.071934 2.884993 19.874802
531 0 1 -11.351335 3.178828 20.732208
532 0 1 -11.569234 2.747456 21.522308
533 0 1 -12.415133 3.028910 21.972107
534 0 1 -12.855134 3.207192 22.796295
535 0 1 -12.302434 3.014754 23.503784
536 0 1 -12.344134 2.086827 23.371399
537 0 1 -11.588035 1.551604 23.395386
538 0 1 -12.425935 1.019774 23.243591
539 0 1 -12.217134 0.229233 22.812805
540 0 1 -11.689534 0.315363 23.597504
541 0 1 -11.648034 -0.609396 23.463104
542 0 1 -12.582833 -0.459035 23.831390
543 0 1 -12.982835 0.072924 24.585388
544 0 1 -12.538434 0.741093 25.095703
545 0 1 -13.141334 1.201224 25.608612
546 0 1 -13.992734 1.282404 25.137085
547 0 1 -14.407334 0.601744 25.749603
548 0 1 -14.981334 -0.160516 25.691895
549 0 1 -15.481034 -0.443016 26.480896
550 0 1 -14.697434 -1.077707 26.424896
551 0 1 -14.572635 -0.453907 27.131012
552 0 1 -13.834535 -0.961406 27.436096
553 0 1 -12.888034 -0.824916 27.615997
554 0 1 -12.534934 -0.340047 28.393402
555 0 1 -12.181334 0.320414 27.797699
556 0 1 -12.304534 1.270934 28.024597
557 0 1 -13.023435 1.783520 28.497314
558 0 1 -12.999133 2.743601 27.986084
559 0 1 -12.127734 2.574894 28.155090
560 0 1 -11.779334 3.436276 28.338684
561 0 1 -11.369035 2.974112 27.541290
562 0 1 -11.443435 3.836733 27.155212
563 0 1 -11.007234 4.417433 27.804993
564 0 1 -10.856234 4.191725 28.725800
565 0 1 -11.033734 4.958842 29.375397
566 0 1 -10.383034 4.690104 30.027588
567 0 1 -10.577534 5.364432 30.676910
568 0 1 -11.309733 5.231234 31.268707
569 0 1 -11.905133 4.785315 31.881714
570 0 1 -11.336934 4.000824 31.928406
571 0 1 -12.311334 3.837393 31.615814
572 0 1 -11.943133 3.013676 31.368011
573 0 1 -12.504134 2.206997 31.116699
574 0 1 -12.809134 2.651759 30.325287
575 0 1 -13.255633 2.507422 29.440002
576 0 1 -14.163835 2.907925 29.626190
577 0 1 -14.338534 2.020628 29.856689
578 0 1 -14.236033 1.555403 30.681091
579 0 1 -13.499133 1.970028 31.195404
580 0 1 -13.275834 2.375031 32.033813
581 0 1 -12.904935 2.831421 32.776398
582 0 1 -12.910134 3.179570 33.657288
583 0 1 -12.515134 3.286488 34.526184
584 0 1 -11.683934 2.925257 34.324310
585 0 1 -12.273934 2.118115 34.351685
586 0 1 -12.181834 2.090031 33.355804
587 0 1 -11.532233 2.487864 32.808289
588 0 1 -10.552834 2.550858 33.016296
589 0 1 -10.000934 1.920418 33.496796
590 0 1 -10.222434 1.007594 33.759308
591 0 1 -10.646534 0.294644 34.281891
592 0 1 -10.505434 -0.426347 33.656616
593 0 1 -9.670534 -0.374496 33.159088
594 0 1 -9.986934 -1.265297 33.290894
595 0 1 -10.766834 -1.833067 33.199310
596 0 1 -10.779534 -2.749116 33.445709
597 0 1 -11.469134 -2.980686 34.067902
598 0 1 -11.001934 -3.630605 34.546600
599 0 1 -11.171035 -4.290287 35.216492
600 0 1 -11.661735 -3.546657 35.591797
601 0 1 -11.548333 -3.299207 36.522095
602 0 1 -11.292535 -4.136926 36.819702
603 0 1 -10.824634 -4.627306 37.494995
604 0 1 -10.270534 -4.128915 38.091400
605 0 1 -10.038733 -3.399017 38.668213
606 0 1 -10.210834 -2.977886 39.531494
607 0 1 -11.088534 -3.095706 39.894012
608 0 1 -11.162435 -3.887537 39.403595
609 0 1 -11.728833 -4.138795 40.081116
610 0 1 -12.504334 -3.650177 40.450104
611 0 1 -13.309134 -4.225606 40.488312
612 0 1 -12.615535 -4.865686 40.497406
613 0 1 -12.468135 -5.327066 39.647705
614 0 1 -11.702933 -5.747137 39.377686
615 0 1 -12.037435 -6.322406 40.112091
616 0 1 -12.018634 -6.906476 39.352905
617 0 1 -11.835334 -7.698488 38.876892
618 0 1 -11.770734 -7.898187 37.944702
619 0 1 -12.608434 -7.334136 37.872894
620 0 1 -12.312034 -7.516986 36.938416
621 0 1 -13.159835 -6.983896 36.919708
622 0 1 -12.382634 -6.499567 37.125488
623 0 1 -13.179534 -6.424266 37.712585
624 0 1 -13.107234 -6.461357 38.619110
625 0 1 -13.587834 -7.118856 39.116699
626 0 1 -14.035535 -7.581586 39.860199
627 0 1 -14.303735 -8.212988 39.229095
628 0 1 -13.619433 -8.259386 38.493500
629 0 1 -14.208434 -8.144587 37.720398
630 0 1 -14.812734 -7.426786 37.921509
631 0 1 -15.571433 -7.720087 37.475800
632 0 1 -15.764834 -7.892686 36.523193
633 0 1 -15.046535 -8.086088 35.946991
634 0 1 -15.228635 -8.484787 35.123810
635 0 1 -15.431334 -8.014585 34.196503
636 0 1 -14.820033 -8.037188 33.388184
637 0 1 -14.914834 -8.980688 33.286316
638 0 1 -14.408435 -9.310686 32.536102
639 0 1 -13.472533 -9.607088 32.277588
640 0 1 -13.624333 -9.306887 31.318604
641 0 1 -13.860435 -8.767286 30.541016
642 0 1 -13.677033 -8.443586 29.693298
643 0 1 -13.364034 -7.587387 29.553894
644 0 1 -14.303433 -7.474987 29.676392
645 0 1 -13.976233 -7.036676 28.884094
646 0 1 -13.371634 -6.345296 28.790405
647 0 1 -13.013034 -6.310556 27.907196
648 0 1 -12.162133 -6.620826 27.662415
649 0 1 -11.669435 -7.367788 27.981689
650 0 1 -11.341735 -8.040388 27.408112
651 0 1 -10.975034 -8.946486 27.326202
652 0 1 -11.312135 -9.560186 28.009399
653 0 1 -11.548333 -9.789686 28.882385
654 0 1 -10.915334 -10.356886 29.326813
655 0 1 -10.267134 -10.810286 29.906891
656 0 1 -10.026434 -11.596888 29.359985
657 0 1 -9.096135 -11.393187 29.197113
658 0 1 -8.346433 -10.888186 29.453613
659 0 1 -8.586335 -10.248287 28.832611
660 0 1 -8.608634 -9.424587 29.455902
661 0 1 -7.811635 -8.844786 29.437195
662 0 1 -7.766734 -8.883188 28.517090
663 0 1 -6.854933 -8.623987 28.550598
664 0 1 -7.043633 -8.025988 27.787201
665 0 1 -7.605435 -8.555788 27.182495
666 0 1 -8.408635 -9.022985 27.059387
667 0 1 -9.256734 -9.562487 27.137909
668 0 1 -8.619733 -10.051386 27.764709
669 0 1 -8.226335 -10.585987 27.094391
670 0 1 -7.641934 -9.796886 26.964386
671 0 1 -7.824234 -10.415686 26.212097
672 0 1 -6.911934 -10.633688 25.819885
673 0 1 -7.148633 -11.067186 26.737793
674 0 1 -6.742733 -11.186888 27.567291
675 0 1 -6.167935 -10.634386 28.131714
676 0 1 -6.387932 -9.663687 27.898102
677 0 1 -5.970433 -9.145987 27.240692
678 0 1 -5.062924 -9.040586 27.520386
679 0 1 -4.679734 -9.818888 28.001312
680 0 1 -3.967484 -10.298586 27.591309
681 0 1 -2.975684 -10.133587 27.574097
682 0 1 -2.484423 -9.326986 27.572693
683 0 1 -2.801552 -8.699987 26.855011
684 0 1 -2.923764 -7.921686 26.347412
685 0 1 -3.380244 -7.951086 27.173584
686 0 1 -4.268235 -7.707986 26.772186
687 0 1 -5.190934 -7.545686 26.959106
688 0 1 -5.298333 -7.968385 26.062805
689 0 1 -4.952353 -7.034635 25.890900
690 0 1 -4.023043 -6.909856 25.819397
691 0 1 -3.672383 -6.460718 26.580292
692 0 1 -3.974064 -6.290496 27.444611
693 0 1 -3.180933 -6.523057 28.028015
694 0 1 -3.563063 -6.072727 28.723206
695 0 1 -4.107563 -5.358556 29.032990
696 0 1 -4.752022 -5.792596 29.708099
697 0 1 -5.642334 -5.944387 30.066284
698 0 1 -5.782834 -6.366176 29.221497
699 0 1 -5.507733 -5.422605 29.159393
700 0 1 -5.430033 -4.488977 29.168884
701 0 1 -5.669234 -4.053676 28.381592
702 0 1 -5.652533 -4.945747 28.055908
703 0 1 -5.452134 -4.974435 27.057800
704 0 1 -4.945122 -5.257677 26.286407
705 0 1 -4.091824 -4.847026 26.166412
706 0 1 -3.989644 -4.679176 27.143799
707 0 1 -3.182044 -4.157257 27.326904
708 0 1 -2.304213 -4.145406 26.996887
709 0 1 -1.466523 -3.829376 26.707794
710 0 1 -1.417304 -2.866518 26.747101
711 0 1 -1.643532 -1.920017 26.976593
712 0 1 -0.966593 -1.211887 26.900391
713 0 1 -0.124734 -1.297456 27.375092
714 0 1 -0.275673 -2.272596 27.076813
715 0 1 0.071086 -2.900327 27.719208
716 0 1 -0.566903 -2.308477 28.086090
717 0 1 -0.868252 -3.047266 28.510895
718 0 1 -1.704465 -3.338117 28.998688
719 0 1 -1.522093 -3.809066 29.773315
720 0 1 -1.877984 -3.428546 30.611389
721 0 1 -2.079484 -4.391496 30.598389
722 0 1 -1.222054 -4.766357 30.710602
723 0 1 -1.380343 -5.461957 30.040314
724 0 1 -2.109053 -5.967996 30.408905
725 0 1 -2.685223 -6.697326 30.788513
726 0 1 -3.490895 -6.908817 31.268188
727 0 1 -3.440453 -6.952547 32.217102
728 0 1 -3.220913 -7.630685 32.769104
729 0 1 -2.992083 -8.122488 33.651703
730 0 1 -3.571072 -8.902086 33.695099
731 0 1 -4.231884 -8.974688 34.339294
732 0 1 -4.064362 -9.091087 35.322510
733 0 1 -4.548363 -9.916286 34.939514
734 0 1 -4.699223 -10.562887 35.638702
735 0 1 -5.605334 -10.288988 35.748901
736 0 1 -5.267733 -9.722788 36.481995
737 0 1 -6.114434 -9.453485 36.940399
738 0 1 -6.625233 -10.033287 37.455109
739 0 1 -5.688233 -10.449787 37.572601
740 0 1 -5.860333 -11.377087 37.924988
741 0 1 -6.109635 -11.849987 37.138000
742 0 1 -5.300633 -12.365287 36.905304
743 0 1 -4.819462 -11.777987 37.552399
744 0 1 -3.769845 -11.696587 37.356201
745 0 1 -3.385973 -12.610987 37.382294
746 0 1 -2.667553 -12.237487 37.895599
747 0 1 -1.845765 -12.396387 38.282806
748 0 1 -1.379674 -11.478987 38.163605
749 0 1 -1.515134 -11.555586 37.179688
750 0 1 -0.656903 -12.032487 36.911499
751 0 1 0.301986 -12.050587 36.868500
752 0 1 0.933677 -11.400286 36.632294
753 0 1 1.547267 -10.664186 36.534790
754 0 1 2.357517 -11.245787 36.347107
755 0 1 2.683706 -12.119887 36.553711
756 0 1 2.232576 -12.638987 37.175201
757 0 1 2.440317 -12.626387 38.187012
758 0 1 2.084146 -12.962887 39.089111
759 0 1 2.072986 -11.976987 39.235291
760 0 1 2.988866 -11.778086 38.997406
761 0 1 2.673046 -11.309687 38.229095
762 0 1 3.115537 -10.481886 38.279114
763 0 1 4.013099 -10.202486 38.212494
764 0 1 4.950201 -10.373987 38.145203
765 0 1 5.141973 -10.043688 39.066895
766 0 1 4.947994 -10.577887 39.856903
767 0 1 4.189863 -10.653788 39.323212
768 0 1 3.892339 -9.985487 39.970490
769 0 1 3.278717 -9.843386 40.807404
770 0 1 2.708946 -9.279087 41.334290
771 0 1 2.246107 -9.337387 40.563690
772 0 1 1.799837 -8.834187 41.320007
773 0 1 1.696386 -7.929086 40.907806
774 0 1 1.183196 -7.137037 40.806305
775 0 1 0.824617 -7.525285 39.996399
776 0 1 -0.117894 -7.454486 40.254089
777 0 1 -0.780043 -6.795146 40.350494
778 0 1 -1.101794 -5.970857 39.929596
779 0 1 -1.831263 -5.356237 39.846313
780 0 1 -1.274073 -5.124757 40.591888
781 0 1 -0.751784 -5.416646 41.335602
782 0 1 -0.173653 -4.817777 41.761200