LAMMPS data file via MDAnalysis

        2000  atoms
        1999  bonds
           0  angles
           0  dihedrals
           0  impropers

           1  atom types
           1  bond types
           0  angle types
           0  dihedral types
           0  improper types

-30.5 30.5 xlo xhi
-30.5 30.5 ylo yhi
-233.5 233.5 zlo zhi


Masses

1 1.000000

Atoms

1 0 1 17.853159 1.029698 26.416199
2 0 1 17.752062 1.558967 25.601807
3 0 1 18.554361 1.940287 25.500000
4 0 1 19.607359 2.081216 25.693207
5 0 1 19.422159 2.784621 25.001007
6 0 1 19.007761 2.789668 24.172607
7 0 1 19.164858 2.051272 23.549805
8 0 1 19.514860 2.508958 22.701599
9 0 1 19.784960 3.367417 22.333603
10 0 1 20.144960 4.283668 22.570709
11 0 1 19.646959 4.675227 23.366089
12 0 1 20.286860 4.949126 24.015808
13 0 1 19.851862 5.573928 24.488586
14 0 1 19.935560 5.792529 25.477692
15 0 1 20.586359 5.821498 26.204193
16 0 1 21.454958 5.380286 26.164307
17 0 1 21.843260 4.563067 26.490204
18 0 1 22.645159 4.825778 27.102692
19 0 1 22.308161 5.683398 27.401611
20 0 1 22.773058 6.493968 27.756409
21 0 1 22.932459 7.161639 27.084595
22 0 1 22.846560 8.050147 27.576813
23 0 1 22.863459 7.957828 28.545197
24 0 1 23.032457 7.466857 29.380005
25 0 1 22.824862 6.641086 29.839386
26 0 1 23.187761 6.302089 30.642303
27 0 1 22.986261 5.487559 31.098206
28 0 1 23.321459 5.140906 30.257385
29 0 1 23.607958 4.342597 30.652313
30 0 1 23.421659 3.779969 31.452515
31 0 1 24.349657 3.505900 31.619690
32 0 1 24.329660 2.579579 31.525513
33 0 1 23.604258 2.025300 32.024994
34 0 1 23.215258 2.462647 31.230988
35 0 1 22.466860 2.024150 30.668213
36 0 1 22.149057 1.101758 30.257812
37 0 1 21.184660 1.175618 30.182007
38 0 1 20.631662 1.215838 30.960907
39 0 1 20.428461 2.091279 31.387787
40 0 1 20.541861 2.447375 32.283203
41 0 1 19.968161 2.718913 32.976501
42 0 1 19.842760 3.610118 32.611603
43 0 1 19.169760 3.103620 32.179504
44 0 1 18.428061 3.270583 31.612793
45 0 1 17.696161 2.618302 31.879608
46 0 1 17.515360 1.674277 31.794891
47 0 1 17.328360 0.767228 32.136993
48 0 1 16.800562 -0.010543 32.078308
49 0 1 16.425261 -0.819623 31.714813
50 0 1 16.396460 -1.713813 31.357788
51 0 1 16.508360 -1.795173 32.344299
52 0 1 15.772158 -1.886064 33.001892
53 0 1 16.264757 -2.615632 32.864288
54 0 1 15.724062 -2.993043 33.623108
55 0 1 16.503160 -3.517713 33.681213
56 0 1 17.472658 -3.721482 33.875183
57 0 1 18.068659 -3.039123 34.315491
58 0 1 17.389162 -2.354493 34.230011
59 0 1 17.382257 -1.740113 33.465698
60 0 1 17.743662 -0.871652 33.728699
61 0 1 18.628862 -1.234182 33.864105
62 0 1 19.056757 -1.138642 34.774292
63 0 1 19.201460 -1.856723 35.311890
64 0 1 19.068159 -1.148353 35.881592
65 0 1 18.474760 -0.434333 35.646484
66 0 1 18.110159 0.456288 35.655304
67 0 1 17.279860 0.058627 35.529694
68 0 1 16.572161 0.521388 34.979004
69 0 1 16.479460 1.367438 34.460510
70 0 1 15.790159 1.994355 34.851196
71 0 1 14.941858 2.131774 34.532013
72 0 1 14.243460 2.551787 33.955994
73 0 1 14.621958 1.801198 33.469788
74 0 1 14.811560 2.277326 32.619598
75 0 1 14.422060 2.858048 31.861206
76 0 1 13.563360 2.818662 31.387909
77 0 1 12.857161 3.153201 30.813202
78 0 1 12.676561 4.104987 31.028198
79 0 1 12.326761 4.513057 31.921814
80 0 1 12.591158 5.435248 31.889496
81 0 1 12.279959 5.469337 30.964905
82 0 1 12.771158 5.401538 30.170013
83 0 1 12.818560 6.208838 29.651001
84 0 1 12.491060 7.140147 29.506592
85 0 1 11.533960 6.792109 29.380402
86 0 1 11.444059 6.118388 30.060486
87 0 1 11.499262 6.784968 30.738586
88 0 1 11.384958 7.709228 30.436005
89 0 1 11.079859 7.819446 31.275909
90 0 1 11.059061 7.723548 32.261597
91 0 1 10.375559 7.923827 32.937408
92 0 1 10.718058 8.551726 33.596191
93 0 1 10.564859 9.420497 33.956116
94 0 1 11.111761 9.537936 34.725403
95 0 1 10.401758 9.640109 35.322601
96 0 1 10.320360 10.246436 36.082001
97 0 1 11.222658 10.191577 36.287811
98 0 1 11.822359 10.543448 36.915283
99 0 1 11.833059 9.686526 37.190704
100 0 1 11.303061 10.268348 37.788788
101 0 1 10.893961 10.599738 38.560486
102 0 1 10.311560 10.682216 37.743408
103 0 1 10.535460 11.605437 37.976288
104 0 1 9.828760 11.799006 37.430603
105 0 1 9.954462 12.719317 37.037506
106 0 1 10.665461 13.032287 37.683197
107 0 1 10.004660 12.955928 38.389801
108 0 1 10.492258 12.385509 38.892303
109 0 1 10.854258 12.802188 39.648590
110 0 1 10.266359 13.397689 40.153809
111 0 1 10.314360 12.985587 41.032898
112 0 1 9.408960 12.670527 40.964417
113 0 1 8.501619 12.996688 41.336487
114 0 1 7.694109 13.283687 40.799194
115 0 1 7.293482 12.727046 41.484802
116 0 1 6.961000 13.565989 41.934387
117 0 1 6.536921 13.548388 41.048706
118 0 1 6.040449 14.127688 41.611816
119 0 1 5.872530 14.256785 42.552612
120 0 1 6.757860 14.312087 43.014801
121 0 1 6.115019 14.142489 43.737610
122 0 1 6.853731 13.542388 44.032898
123 0 1 7.669241 13.108787 44.293793
124 0 1 8.260729 12.385928 44.407501
125 0 1 7.850988 12.086696 45.211304
126 0 1 7.308458 11.571097 45.786804
127 0 1 6.634890 12.036368 45.262512
128 0 1 5.903528 11.409476 45.093903
129 0 1 5.529482 10.547420 45.203613
130 0 1 5.165121 9.730487 45.298798
131 0 1 4.725950 9.241988 46.021210
132 0 1 5.483889 8.751746 46.404999
133 0 1 5.335829 8.549216 47.311798
134 0 1 5.505079 9.511817 47.274506
135 0 1 5.081369 10.323329 47.375397
136 0 1 5.046659 10.961169 46.596008
137 0 1 5.219980 11.846820 46.470490
138 0 1 5.284391 12.590587 47.122986
139 0 1 4.488630 12.995486 46.722504
140 0 1 4.514540 13.007190 45.805695
141 0 1 4.143049 13.879489 45.785492
142 0 1 3.506911 14.325889 46.381195
143 0 1 2.632330 14.633986 46.099609
144 0 1 2.090658 15.397487 46.118500
145 0 1 1.870722 16.079088 46.709900
146 0 1 2.309099 16.040686 47.603394
147 0 1 1.794001 16.049189 48.478088
148 0 1 1.123320 16.746485 48.266510
149 0 1 0.205700 16.554686 48.315491
150 0 1 -0.114622 15.673186 48.650787
151 0 1 0.048411 16.296286 49.354889
152 0 1 0.861941 16.734789 49.541687
153 0 1 0.885130 17.704885 49.581787
154 0 1 -0.031853 17.431086 49.311188
155 0 1 -0.807802 16.789286 49.480591
156 0 1 -1.456533 17.484888 49.594604
157 0 1 -1.999309 17.413588 50.384888
158 0 1 -2.156759 16.707186 51.001312
159 0 1 -3.079380 17.043386 50.891205
160 0 1 -3.749670 16.739885 50.298492
161 0 1 -3.676161 15.851588 49.883392
162 0 1 -4.050360 15.736087 50.760590
163 0 1 -4.728390 15.351787 51.333099
164 0 1 -5.043381 14.880885 50.577301
165 0 1 -4.121540 14.595588 50.761810
166 0 1 -4.676600 13.837588 50.733002
167 0 1 -4.867929 14.065188 51.654602
168 0 1 -5.072060 13.132190 51.808899
169 0 1 -4.805920 12.429557 52.573486
170 0 1 -3.947500 12.813827 52.601288
171 0 1 -3.111170 12.527896 53.145691
172 0 1 -2.449131 11.771838 53.104706
173 0 1 -3.116091 11.402286 52.484100
174 0 1 -3.351940 11.024417 51.544891
175 0 1 -3.658491 10.447528 50.837799
176 0 1 -3.694879 9.541198 51.085693
177 0 1 -4.215521 8.812358 51.391296
178 0 1 -5.002390 9.275496 51.377014
179 0 1 -5.896900 9.158938 51.159210
180 0 1 -6.568819 8.938396 50.446808
181 0 1 -6.057261 9.206996 49.684113
182 0 1 -6.255180 10.097838 49.559387
183 0 1 -6.418060 10.866076 50.136810
184 0 1 -6.636000 10.355136 50.966492
185 0 1 -7.293560 9.691638 51.014191
186 0 1 -8.138350 9.604049 51.476593
187 0 1 -8.016430 10.545749 51.661499
188 0 1 -8.073641 11.451388 51.584808
189 0 1 -8.462770 12.320758 51.496887
190 0 1 -8.862871 12.430549 52.444397
191 0 1 -9.309961 11.600787 52.553802
192 0 1 -9.609850 12.099448 51.761414
193 0 1 -9.706820 12.931518 51.323395
194 0 1 -9.148430 13.437686 51.887909
195 0 1 -9.811390 13.207389 52.505707
196 0 1 -10.746599 13.178889 52.877594
197 0 1 -10.560621 13.742488 52.061401
198 0 1 -11.222441 13.098887 51.856506
199 0 1 -12.069139 12.933726 51.461304
200 0 1 -12.948740 12.648017 51.593994
201 0 1 -12.283041 11.973269 51.805298
202 0 1 -12.159239 11.794086 52.742096
203 0 1 -12.732040 11.686439 53.502808
204 0 1 -13.240040 11.320968 54.215607
205 0 1 -13.522039 11.035987 53.309906
206 0 1 -13.424940 10.235778 52.813690
207 0 1 -14.112841 9.722648 53.267090
208 0 1 -14.753540 9.076907 53.478912
209 0 1 -15.448340 9.716369 53.687897
210 0 1 -15.726040 9.252967 54.540588
211 0 1 -15.747840 8.701217 55.303192
212 0 1 -15.902340 7.889266 55.774994
213 0 1 -14.936441 7.777907 55.725098
214 0 1 -14.410940 6.996169 55.541290
215 0 1 -13.802940 6.338359 55.540497
216 0 1 -13.914042 5.911387 54.634705
217 0 1 -14.652441 5.422999 55.013794
218 0 1 -15.588140 5.702418 54.993408
219 0 1 -15.937840 5.360808 55.831207
220 0 1 -15.915740 4.609958 56.401398
221 0 1 -15.101339 4.395738 56.803711
222 0 1 -14.725740 3.970447 57.622986
223 0 1 -15.130341 3.366000 56.906311
224 0 1 -15.507740 3.019061 56.094391
225 0 1 -15.368740 3.749555 55.468201
226 0 1 -16.124640 3.153550 55.356995
227 0 1 -16.122040 2.521552 54.660797
228 0 1 -16.714039 1.817578 54.349915
229 0 1 -17.088739 2.158433 53.475494
230 0 1 -17.676340 2.873515 53.801910
231 0 1 -17.794241 2.126710 54.432007
232 0 1 -17.991840 1.237727 54.553894
233 0 1 -17.871241 0.854537 53.693207
234 0 1 -17.180340 0.255437 53.360413
235 0 1 -17.150341 -0.064063 52.471100
236 0 1 -17.811440 -0.611062 52.050110
237 0 1 -18.526340 -1.008742 51.617188
238 0 1 -17.972441 -1.695314 51.229401
239 0 1 -18.030941 -2.518012 51.673309
240 0 1 -17.941141 -2.757493 50.761200
241 0 1 -16.988340 -3.023162 50.432007
242 0 1 -16.608240 -2.202662 50.235199
243 0 1 -16.885540 -1.644902 49.388092
244 0 1 -16.067539 -2.011113 49.005096
245 0 1 -15.138540 -1.844361 48.996490
246 0 1 -14.197241 -1.961534 48.819214
247 0 1 -13.656340 -1.767182 47.999817
248 0 1 -12.952539 -1.724012 47.377197
249 0 1 -12.687140 -0.755952 47.448090
250 0 1 -13.140841 0.123277 47.558807
251 0 1 -13.291441 0.738217 48.260101
252 0 1 -14.221340 0.732297 47.884094
253 0 1 -15.094839 0.728948 47.544800
254 0 1 -15.725340 0.731208 46.707397
255 0 1 -15.793040 -0.209792 46.906799
256 0 1 -15.770640 -0.302432 47.894287
257 0 1 -16.670439 -0.629842 47.943787
258 0 1 -17.065741 -1.562692 47.813293
259 0 1 -16.327139 -2.044093 47.435394
260 0 1 -16.752939 -2.916402 47.395996
261 0 1 -17.163441 -3.241702 48.247803
262 0 1 -16.739540 -3.984733 47.752808
263 0 1 -16.986139 -4.987283 47.825195
264 0 1 -17.250441 -5.282502 46.943604
265 0 1 -18.027840 -5.230533 46.364288
266 0 1 -18.872339 -4.938733 45.974304
267 0 1 -18.785141 -5.828452 45.656891
268 0 1 -18.305740 -6.668073 45.405090
269 0 1 -18.401939 -7.120812 44.491791
270 0 1 -19.022240 -6.499152 44.111603
271 0 1 -18.178341 -6.133222 43.722900
272 0 1 -17.374840 -5.705873 43.534607
273 0 1 -16.792440 -6.453633 43.837311
274 0 1 -16.250040 -5.926202 43.166016
275 0 1 -15.846641 -6.798263 43.274414
276 0 1 -15.122541 -7.381513 43.400391
277 0 1 -14.684740 -8.135713 43.090088
278 0 1 -14.863640 -8.597314 42.230591
279 0 1 -14.272440 -9.314012 42.396210
280 0 1 -13.894640 -9.839313 41.662811
281 0 1 -13.380140 -10.626212 41.975708
282 0 1 -13.410540 -9.811414 42.540192
283 0 1 -12.655741 -9.550612 41.981995
284 0 1 -12.264740 -10.389413 42.282196
285 0 1 -12.402441 -10.410712 41.346008
286 0 1 -12.476542 -9.926011 40.525085
287 0 1 -12.754141 -9.054212 40.160400
288 0 1 -11.990641 -8.654613 39.731110
289 0 1 -11.004440 -8.610414 39.354309
290 0 1 -11.188841 -7.966714 40.037903
291 0 1 -10.887640 -7.032243 40.205505
292 0 1 -11.667139 -6.553203 40.605286
293 0 1 -11.918539 -5.680093 40.814697
294 0 1 -12.731140 -5.571033 40.337006
295 0 1 -12.970339 -5.288253 39.390198
296 0 1 -13.742041 -4.631232 39.253113
297 0 1 -13.844339 -3.808593 38.761810
298 0 1 -13.402140 -4.172122 38.001495
299 0 1 -13.264139 -3.337333 37.505096
300 0 1 -12.668242 -3.264493 36.731201
301 0 1 -12.110340 -3.917323 36.292999
302 0 1 -12.932039 -3.966641 35.826294
303 0 1 -13.834841 -4.201102 36.070190
304 0 1 -14.013041 -5.089993 35.575989
305 0 1 -13.257940 -5.123834 35.033997
306 0 1 -13.141840 -5.679973 34.255005
307 0 1 -12.610840 -5.311002 33.542908
308 0 1 -12.469440 -6.284242 33.093384
309 0 1 -12.311441 -6.759953 32.295593
310 0 1 -12.078341 -7.403012 32.954712
311 0 1 -11.152639 -7.610211 33.148193
312 0 1 -10.265379 -7.448712 33.619202
313 0 1 -9.921419 -7.971513 32.842896
314 0 1 -9.456301 -7.802213 31.958710
315 0 1 -9.667240 -8.281114 31.102386
316 0 1 -10.174799 -9.071313 31.101807
317 0 1 -10.562130 -8.686612 30.374298
318 0 1 -11.357141 -8.141412 30.150787
319 0 1 -12.126841 -8.150311 29.534302
320 0 1 -11.962440 -8.389213 28.622986
321 0 1 -12.722040 -8.371312 27.986786
322 0 1 -13.206739 -7.513413 27.883392
323 0 1 -12.825941 -6.786412 27.381805
324 0 1 -13.378740 -6.312863 26.719513
325 0 1 -12.465940 -6.463363 26.397400
326 0 1 -12.061041 -5.599853 26.367798
327 0 1 -12.004141 -5.241652 25.480408
328 0 1 -11.682539 -5.735183 24.587311
329 0 1 -11.795940 -6.201303 23.757599
330 0 1 -12.021139 -5.476933 23.218811
331 0 1 -11.717539 -6.272393 22.749603
332 0 1 -10.964340 -6.806373 22.924896
333 0 1 -10.808170 -7.752612 23.073486
334 0 1 -10.250841 -7.911113 23.804504
335 0 1 -10.886339 -7.517013 24.445496
336 0 1 -11.138540 -8.419312 24.627411
337 0 1 -11.608141 -8.754811 25.344391
338 0 1 -12.244040 -8.048013 25.315399
339 0 1 -13.085640 -7.901813 25.783508
340 0 1 -13.917841 -8.430413 25.651184
341 0 1 -14.841742 -8.680413 26.145203
342 0 1 -15.777940 -8.830012 26.197113
343 0 1 -16.015039 -8.929013 27.143707
344 0 1 -15.614141 -8.076213 27.111206
345 0 1 -15.764740 -7.374211 27.768799
346 0 1 -16.659239 -6.958503 27.604095
347 0 1 -16.100639 -6.228463 27.429688
348 0 1 -16.462240 -6.062444 26.484894
349 0 1 -17.370741 -6.426223 26.622314
350 0 1 -17.898941 -5.629573 26.210114
351 0 1 -17.325741 -4.950173 25.790314
352 0 1 -17.644239 -4.623963 24.944092
353 0 1 -17.783741 -4.876462 24.053711
354 0 1 -17.180840 -5.322793 23.440491
355 0 1 -17.502941 -5.151834 22.529602
356 0 1 -18.333839 -5.080882 23.004303
357 0 1 -18.517441 -4.278382 23.495697
358 0 1 -18.115641 -3.285432 23.479889
359 0 1 -18.681641 -2.953532 24.210388
360 0 1 -19.110741 -2.858863 25.038910
361 0 1 -19.781641 -2.691352 24.395996
362 0 1 -19.893440 -1.778163 24.006500
363 0 1 -20.611641 -1.076074 24.104797
364 0 1 -21.037941 -1.909482 24.104492
365 0 1 -21.330141 -2.697322 23.518005
366 0 1 -21.153940 -2.102273 22.816895
367 0 1 -20.179741 -2.312373 22.945404
368 0 1 -20.413340 -3.178144 22.547607
369 0 1 -20.369341 -3.840032 23.313599
370 0 1 -20.268539 -4.518363 23.974487
371 0 1 -19.914341 -4.873631 23.219391
372 0 1 -20.806841 -5.281062 23.065704
373 0 1 -20.354641 -5.578403 22.257401
374 0 1 -19.988640 -5.214812 21.394806
375 0 1 -19.774040 -6.069482 20.989594
376 0 1 -19.582541 -6.592511 21.767303
377 0 1 -19.418640 -7.424512 22.296005
378 0 1 -18.758739 -8.004113 22.583313
379 0 1 -18.503740 -8.551412 23.396301
380 0 1 -18.692039 -9.508313 23.303009
381 0 1 -18.016840 -9.927913 22.839508
382 0 1 -17.704540 -9.283013 22.162994
383 0 1 -18.040041 -9.623412 21.344696
384 0 1 -17.522739 -9.859412 20.602798
385 0 1 -16.746140 -10.260213 20.177902
386 0 1 -17.160841 -10.969514 19.638702
387 0 1 -16.439939 -11.164912 19.050797
388 0 1 -15.504540 -11.063313 18.987305
389 0 1 -15.253641 -10.458112 18.228195
390 0 1 -14.975241 -11.083112 17.653595
391 0 1 -15.156540 -10.255013 17.174698
392 0 1 -15.359140 -11.017213 16.657501
393 0 1 -15.853040 -11.773812 16.327301
394 0 1 -14.960741 -12.220013 16.156403
395 0 1 -14.884939 -13.101512 15.761398
396 0 1 -14.757540 -13.896413 15.244202
397 0 1 -15.713241 -13.750712 15.475098
398 0 1 -15.750140 -13.365613 14.585495
399 0 1 -16.075840 -13.499513 13.683594
400 0 1 -16.047939 -14.401113 13.905502
401 0 1 -15.517040 -15.192212 14.027298
402 0 1 -16.296040 -15.401813 13.352097
403 0 1 -16.307240 -16.375914 13.152496
404 0 1 -15.935640 -15.791013 12.473297
405 0 1 -15.208740 -16.315914 12.219406
406 0 1 -14.658541 -15.586513 12.509903
407 0 1 -14.366341 -15.920913 13.363800
408 0 1 -14.066839 -16.485413 14.063797
409 0 1 -13.511641 -17.117714 14.531494
410 0 1 -13.691839 -17.373514 15.417801
411 0 1 -14.344542 -17.939514 15.725601
412 0 1 -15.079439 -17.843214 16.374908
413 0 1 -14.465540 -18.396513 16.933701
414 0 1 -14.592241 -18.223013 17.908096
415 0 1 -13.895041 -17.740213 17.487701
416 0 1 -13.941940 -17.219213 16.673904
417 0 1 -14.586142 -16.567314 17.164703
418 0 1 -14.189939 -16.296713 17.952499
419 0 1 -14.914141 -15.604213 17.670303
420 0 1 -14.669641 -15.490813 18.591202
421 0 1 -14.222240 -15.819612 19.374100
422 0 1 -13.670641 -15.335912 19.963104
423 0 1 -12.853840 -15.766913 19.764999
424 0 1 -12.635040 -14.820413 19.565094
425 0 1 -12.865940 -14.579112 20.459991
426 0 1 -12.365839 -14.455312 21.247498
427 0 1 -11.408840 -14.506213 21.539795
428 0 1 -10.514471 -14.180213 21.611496
429 0 1 -10.127710 -13.536513 21.068695
430 0 1 -9.189409 -13.718112 20.850204
431 0 1 -9.109331 -13.295512 19.912292
432 0 1 -8.373440 -13.185412 19.355499
433 0 1 -8.620440 -13.780612 18.608002
434 0 1 -9.513021 -13.932712 18.314697
435 0 1 -9.711880 -13.988212 17.361603
436 0 1 -10.345739 -13.410312 16.696503
437 0 1 -11.325041 -13.496713 16.510300
438 0 1 -11.777842 -14.042712 17.108795
439 0 1 -12.375240 -14.189712 16.388306
440 0 1 -12.892540 -14.679612 15.692093
441 0 1 -12.185041 -14.633313 14.990906
442 0 1 -11.242340 -14.752212 14.616501
443 0 1 -10.850439 -15.636113 14.612793
444 0 1 -10.068529 -15.405513 14.097900
445 0 1 -10.092581 -14.621812 13.453506
446 0 1 -10.434221 -14.868213 12.629105
447 0 1 -9.985331 -15.349612 11.924698
448 0 1 -10.792290 -15.584912 11.446106
449 0 1 -10.922441 -16.019514 10.577194
450 0 1 -10.674320 -16.865513 10.150894
451 0 1 -9.886221 -16.950714 10.755997
452 0 1 -8.934580 -16.891314 10.604599
453 0 1 -7.967241 -16.578213 10.621704
454 0 1 -7.387600 -15.774512 10.557495
455 0 1 -6.528271 -16.212914 10.648499
456 0 1 -6.591780 -15.809812 9.802795
457 0 1 -5.718220 -15.357713 9.869095
458 0 1 -5.769131 -14.534112 10.298904
459 0 1 -5.383169 -14.443912 11.188095
460 0 1 -5.578550 -15.114713 11.851807
461 0 1 -5.825899 -15.821212 11.264694
462 0 1 -5.006760 -16.203114 11.110794
463 0 1 -5.142080 -17.122414 11.121399
464 0 1 -4.713631 -17.578514 11.866608
465 0 1 -5.413019 -17.129414 12.431107
466 0 1 -5.709850 -17.989414 12.796204
467 0 1 -5.476761 -18.668913 12.129700
468 0 1 -5.757980 -17.978014 11.524292
469 0 1 -5.491331 -18.796913 11.070007
470 0 1 -5.464951 -19.794014 11.095398
471 0 1 -6.178190 -19.590914 11.649902
472 0 1 -6.620701 -20.454613 11.226593
473 0 1 -6.289410 -21.019014 10.439499
474 0 1 -5.349300 -20.957014 10.362793
475 0 1 -5.065889 -21.862913 10.252396
476 0 1 -4.548189 -21.590113 10.970703
477 0 1 -3.806160 -21.017813 10.631104
478 0 1 -4.085110 -20.712313 9.696732
479 0 1 -4.334459 -21.377113 8.900604
480 0 1 -4.856850 -22.087513 8.411057
481 0 1 -5.198019 -22.938513 8.069504
482 0 1 -5.101700 -22.688013 7.145508
483 0 1 -4.119490 -22.484114 7.158386
484 0 1 -4.538731 -21.647013 7.092026
485 0 1 -4.808050 -21.876513 6.150864
486 0 1 -5.326771 -21.128214 6.075851
487 0 1 -5.922840 -20.560213 6.496246
488 0 1 -5.902639 -19.966413 7.208054
489 0 1 -4.938080 -20.026314 6.986954
490 0 1 -4.005770 -19.792213 6.845490
491 0 1 -3.890859 -20.621113 7.288925
492 0 1 -3.404449 -21.419214 7.396774
493 0 1 -3.421831 -21.072914 6.484695
494 0 1 -2.695390 -20.964314 5.861343
495 0 1 -3.478390 -20.337214 5.797134
496 0 1 -3.383970 -19.874813 4.957214
497 0 1 -3.468790 -19.322214 4.172150
498 0 1 -3.492769 -18.435213 3.840149
499 0 1 -4.158840 -18.489813 3.126480
500 0 1 -4.073080 -18.094013 2.272934
501 0 1 -3.145109 -18.152113 2.539383
502 0 1 -2.230280 -18.306513 2.619003
503 0 1 -2.091680 -19.149113 2.904907
504 0 1 -1.414341 -19.656013 2.522247
505 0 1 -2.140159 -20.295013 2.845062
506 0 1 -2.509689 -21.024614 2.258774
507 0 1 -2.388910 -20.185213 1.778656
508 0 1 -1.527868 -20.615814 1.591675
509 0 1 -0.736061 -20.188414 1.278412
510 0 1 -0.441685 -19.289513 1.544586
511 0 1 0.038412 -19.658413 2.277893
512 0 1 0.442120 -19.363613 3.158005
513 0 1 0.710600 -18.560614 2.747345
514 0 1 1.044539 -17.917013 2.098114
515 0 1 0.547930 -17.178513 2.068237
516 0 1 1.117548 -16.573414 1.627075
517 0 1 0.365891 -16.254814 1.033325
518 0 1 1.021559 -15.731313 0.476654
519 0 1 1.673880 -15.572913 -0.257629
520 0 1 0.995520 -14.921412 -0.365448
521 0 1 1.595579 -14.230912 -0.362442
522 0 1 1.971430 -14.432412 -1.226623
523 0 1 2.171900 -15.378913 -1.388550
524 0 1 2.366110 -16.328613 -1.459000
525 0 1 1.775061 -16.769114 -2.045853
526 0 1 2.094912 -16.889114 -2.921173
527 0 1 1.514830 -17.147314 -3.628860
528 0 1 1.837820 -18.008413 -3.971359
529 0 1 1.208430 -18.699713 -4.217010
530 0 1 1.752291 -18.464113 -4.941589
531 0 1 2.221159 -17.864214 -5.526764
532 0 1 3.164740 -17.737814 -5.421951
533 0 1 3.619799 -16.767113 -5.490768
534 0 1 3.929041 -16.591913 -6.368256
535 0 1 4.160040 -15.680112 -6.223282
536 0 1 5.020460 -15.393012 -6.235748
537 0 1 4.855871 -14.559613 -6.685684
538 0 1 4.849199 -13.756513 -6.096436
539 0 1 5.010778 -12.938012 -6.513489
540 0 1 5.858858 -12.557213 -6.304535
541 0 1 6.748812 -12.572412 -5.803085
542 0 1 7.662661 -12.881713 -5.612671
543 0 1 8.507380 -12.507313 -5.244003
544 0 1 8.599268 -11.856612 -4.615616
545 0 1 8.223742 -10.954713 -4.533646
546 0 1 8.375860 -10.553113 -3.652298
547 0 1 8.738470 -11.032712 -2.932938
548 0 1 8.976992 -10.569112 -2.088196
549 0 1 9.202059 -10.233912 -1.196686
550 0 1 9.277960 -11.142114 -0.909790
551 0 1 10.189760 -11.332812 -0.676071
552 0 1 10.071558 -12.150513 -0.139160
553 0 1 10.119059 -11.509313 0.587189
554 0 1 9.390959 -11.300012 1.175995
555 0 1 9.608961 -12.265813 1.210327
556 0 1 10.164061 -11.820112 1.780411
557 0 1 9.865660 -12.000413 2.651855
558 0 1 10.252260 -12.887213 2.784317
559 0 1 10.285559 -12.857312 3.707443
560 0 1 11.272459 -12.624513 3.541122
561 0 1 12.235559 -12.815312 3.666687
562 0 1 11.920359 -11.935912 4.246964
563 0 1 11.126059 -12.137813 4.808533
564 0 1 10.755159 -12.764112 5.570923
565 0 1 11.019659 -11.972313 6.170227
566 0 1 10.293360 -11.333312 5.917908
567 0 1 10.264360 -10.378411 5.865662
568 0 1 11.006060 -10.057714 5.258682
569 0 1 11.481661 -9.406812 5.874985
570 0 1 10.864161 -8.597814 5.939224
571 0 1 10.797258 -8.396913 6.879837
572 0 1 11.155962 -8.210713 7.760880
573 0 1 11.858362 -8.424314 7.106689
574 0 1 12.478762 -8.724511 6.465530
575 0 1 12.789061 -8.446113 7.350266
576 0 1 12.906561 -8.151612 8.360306
577 0 1 12.911360 -9.107213 8.570694
578 0 1 13.707361 -9.553113 8.233810
579 0 1 13.345160 -10.475911 8.189758
580 0 1 14.262060 -10.443913 7.846725
581 0 1 14.572161 -9.590413 7.501907
582 0 1 14.348162 -8.652211 7.690765
583 0 1 14.201361 -8.222512 6.818649
584 0 1 14.236162 -7.613912 7.589584
585 0 1 14.908560 -7.718614 8.281891
586 0 1 15.214560 -8.634912 8.290253
587 0 1 14.474661 -9.003114 8.795502
588 0 1 13.967661 -8.611814 9.514740
589 0 1 13.846861 -9.397113 10.057602
590 0 1 14.526258 -9.295512 10.801102
591 0 1 14.145861 -8.427411 11.003906
592 0 1 14.083658 -7.731011 10.380402
593 0 1 14.558859 -7.076913 9.766891
594 0 1 15.138861 -7.779511 10.067795
595 0 1 16.001558 -7.705812 10.627304
596 0 1 15.984858 -6.763442 10.842896
597 0 1 15.665159 -5.920842 11.347198
598 0 1 15.684961 -5.868932 10.399002
599 0 1 16.570860 -5.830934 9.832077
600 0 1 16.553659 -5.715262 8.804413
601 0 1 17.217260 -5.859021 8.141403
602 0 1 17.706560 -5.425822 7.383163
603 0 1 16.869959 -5.039872 7.537033
604 0 1 16.725962 -5.606942 6.804535
605 0 1 16.956659 -5.360892 5.936234
606 0 1 17.062460 -5.906173 5.080627
607 0 1 16.933260 -6.187943 4.067902
608 0 1 16.769060 -5.961251 3.134903
609 0 1 17.377260 -5.225223 3.526520
610 0 1 17.858858 -4.568543 3.011612
611 0 1 18.691462 -4.015702 3.045013
612 0 1 19.577662 -3.528792 2.934235
613 0 1 20.410959 -3.230763 3.248505
614 0 1 20.190760 -2.507993 3.821762
615 0 1 19.820959 -1.607152 3.884872
616 0 1 19.618059 -1.358892 2.995926
617 0 1 19.912661 -0.436582 3.039841
618 0 1 19.828661 0.303088 2.450607
619 0 1 20.674257 0.683947 2.135223
620 0 1 21.033560 0.949277 1.306152
621 0 1 20.320360 1.279477 0.759125
622 0 1 19.688562 0.623587 1.052643
623 0 1 19.137758 -0.159783 0.987824
624 0 1 18.243460 -0.525163 1.215820
625 0 1 17.813562 -1.077613 0.572235
626 0 1 17.498560 -1.606671 -0.157593
627 0 1 17.484758 -2.542562 0.247940
628 0 1 16.555361 -2.193763 0.439133
629 0 1 15.635660 -2.660983 0.308182
630 0 1 15.422960 -1.765542 0.518479
631 0 1 15.633562 -1.845313 -0.378128
632 0 1 14.920961 -1.445253 -0.846573
633 0 1 15.373560 -1.759252 -1.626953
634 0 1 16.013758 -2.302484 -2.129608
635 0 1 16.139360 -1.604163 -2.790192
636 0 1 16.666361 -0.773032 -3.081146
637 0 1 16.219362 -0.672174 -3.883026
638 0 1 16.566259 0.166728 -4.058304
639 0 1 16.864962 1.066148 -4.230469
640 0 1 16.556059 1.488158 -3.425354
641 0 1 15.900461 2.208251 -3.317047
642 0 1 15.850260 1.993974 -4.264603
643 0 1 14.940859 1.927058 -4.565735
644 0 1 14.858362 2.826318 -4.263062
645 0 1 15.445162 2.679488 -4.997299
646 0 1 15.456961 3.609298 -5.239716
647 0 1 14.488558 3.750161 -4.933167
648 0 1 13.947161 3.793977 -5.748901
649 0 1 13.799559 3.926259 -6.667496
650 0 1 14.149660 4.732486 -6.125122
651 0 1 15.033861 4.482326 -6.250992
652 0 1 15.512362 5.053817 -6.887466
653 0 1 14.862558 5.694507 -7.263626
654 0 1 14.933161 6.337867 -7.973816
655 0 1 15.535959 7.116416 -7.889557
656 0 1 16.332460 6.974936 -7.350632
657 0 1 15.948259 7.637919 -6.757767
658 0 1 16.256960 7.956798 -5.942139
659 0 1 17.068659 8.339046 -6.337723
660 0 1 17.535059 8.624717 -5.483292
661 0 1 17.636160 7.734057 -5.821640
662 0 1 17.228559 6.987079 -5.255219
663 0 1 18.025858 6.994369 -4.718109
664 0 1 18.508562 7.864749 -4.867157
665 0 1 18.982359 7.075179 -4.937256
666 0 1 19.165060 6.953135 -5.836823
667 0 1 19.564959 6.798877 -6.759384
668 0 1 20.532061 6.796268 -6.796478
669 0 1 20.366560 7.677077 -6.403824
670 0 1 19.864759 8.443038 -6.439377
671 0 1 19.827860 8.681117 -5.549774
672 0 1 20.253359 9.464026 -5.118317
673 0 1 20.505560 10.285018 -5.648697
674 0 1 19.689058 10.867797 -5.810455
675 0 1 19.361757 11.609889 -5.335754
676 0 1 18.615259 11.887038 -5.879547
677 0 1 17.757563 11.798968 -6.259171
678 0 1 17.571760 12.765887 -6.165176
679 0 1 18.374262 12.982886 -6.742157
680 0 1 18.047159 13.770488 -6.308777
681 0 1 18.310160 14.475188 -6.951843
682 0 1 17.791262 15.095286 -7.445480
683 0 1 18.052362 15.092090 -8.320663
684 0 1 18.801260 15.642089 -8.345718
685 0 1 18.829660 16.319689 -9.105865
686 0 1 18.316259 15.668288 -9.523865
687 0 1 17.738062 15.491885 -10.340195
688 0 1 18.001860 15.719787 -11.234192
689 0 1 17.768160 15.342486 -12.056702
690 0 1 17.447863 16.142286 -12.469498
691 0 1 17.133959 16.018488 -13.415405
692 0 1 16.279760 15.544387 -13.648895
693 0 1 17.051561 15.049586 -13.923004
694 0 1 17.921961 14.763789 -14.190506
695 0 1 18.788057 15.285388 -14.313797
696 0 1 18.889059 15.668689 -15.215500
697 0 1 18.627962 15.954486 -16.121902
698 0 1 17.601061 15.789187 -15.941299
699 0 1 16.947062 15.315387 -16.403198
700 0 1 16.700357 15.621886 -17.230606
701 0 1 16.647562 16.474188 -17.634003
702 0 1 15.868158 16.567488 -17.054993
703 0 1 15.150061 16.120485 -16.619507
704 0 1 14.424261 15.677588 -17.121597
705 0 1 15.116659 15.409785 -17.806702
706 0 1 15.693758 15.283286 -18.606903
707 0 1 15.646860 14.343287 -18.819901
708 0 1 15.143061 14.343688 -18.047806
709 0 1 14.450960 14.846488 -18.615494
710 0 1 13.806860 15.296786 -18.067703
711 0 1 13.797060 14.371886 -17.959305
712 0 1 12.902658 13.988688 -17.800995
713 0 1 12.469759 13.262988 -17.448700
714 0 1 12.862059 12.513530 -17.901199
715 0 1 13.471960 11.765536 -17.798401
716 0 1 14.225962 11.786147 -18.403198
717 0 1 15.001558 11.318938 -18.847397
718 0 1 15.571459 10.994647 -19.508301
719 0 1 16.309862 10.496787 -19.810104
720 0 1 16.302259 10.444777 -18.911407
721 0 1 17.193159 10.269656 -18.590393
722 0 1 17.027361 9.341327 -18.337494
723 0 1 17.453260 9.789065 -17.597000
724 0 1 17.773859 9.830089 -16.664398
725 0 1 17.860460 10.767989 -16.424606
726 0 1 17.513861 10.790229 -15.541397
727 0 1 17.314562 10.607589 -14.628204
728 0 1 17.286360 9.790656 -14.066406
729 0 1 16.962561 8.852538 -13.910492
730 0 1 16.332659 8.668338 -14.594299
731 0 1 16.039660 7.846156 -14.096695
732 0 1 15.310061 8.549666 -14.025101
733 0 1 15.315161 8.538909 -13.075592
734 0 1 14.872759 8.533828 -12.256302
735 0 1 14.042860 8.973739 -12.050293
736 0 1 13.782461 8.803515 -11.146896
737 0 1 14.124361 8.738807 -10.264496
738 0 1 15.107462 8.656608 -10.162903
739 0 1 15.549360 9.543807 -10.341293
740 0 1 16.407961 9.969047 -10.437607
741 0 1 16.131159 9.277637 -11.097198
742 0 1 16.361059 8.417636 -11.463196
743 0 1 16.686460 8.220439 -10.511505
744 0 1 17.636660 8.112449 -10.297607
745 0 1 18.071859 7.868808 -11.106705
746 0 1 18.267862 8.694266 -11.560806
747 0 1 19.101259 9.107497 -11.794800
748 0 1 18.604559 9.599956 -12.482895
749 0 1 18.884058 9.557147 -13.359894
750 0 1 19.542360 9.900378 -14.030197
751 0 1 19.614458 10.349086 -13.193405
752 0 1 19.546457 10.908488 -13.948105
753 0 1 19.878359 11.691646 -13.533493
754 0 1 19.355360 11.632419 -12.658203
755 0 1 19.104158 12.518886 -13.053101
756 0 1 19.175261 12.792197 -12.130005
757 0 1 18.558962 12.483279 -11.462601
758 0 1 17.682760 12.237399 -11.720398
759 0 1 16.899160 11.786117 -11.928894
760 0 1 16.025858 11.968467 -12.245697
761 0 1 15.272360 12.329066 -11.696106
762 0 1 14.486162 12.037208 -11.254105
763 0 1 14.338560 12.558387 -10.440903
764 0 1 15.251860 12.754336 -10.170898
765 0 1 15.400660 12.993289 -9.277039
766 0 1 15.708960 13.780189 -9.739258
767 0 1 16.327662 13.747588 -9.039597
768 0 1 16.913057 13.604789 -8.349564
769 0 1 16.136061 14.273189 -8.096848
770 0 1 15.763262 15.019588 -8.605423
771 0 1 15.948759 15.947886 -8.904907
772 0 1 16.818460 16.312887 -8.690643
773 0 1 17.639860 16.573286 -8.252594
774 0 1 17.941660 16.352587 -7.358734
775 0 1 17.699762 16.116686 -6.448242
776 0 1 17.985460 16.766687 -5.826508
777 0 1 17.227060 16.697084 -5.196945
778 0 1 16.923662 17.200686 -5.970673
779 0 1 17.167459 18.125788 -6.003677