LAMMPS data file via MDAnalysis

        2000  atoms
        1999  bonds
           0  angles
           0  dihedrals
           0  impropers

           1  atom types
           1  bond types
           0  angle types
           0  dihedral types
           0  improper types

-30.5 30.5 xlo xhi
-30.5 30.5 ylo yhi
-233.5 233.5 zlo zhi


Masses

1 1.000000

Atoms

1 0 1 17.127008 11.812413 7.661925
2 0 1 17.986105 11.405515 7.793746
3 0 1 18.841909 11.918912 7.766204
4 0 1 19.064108 10.993413 7.614562
5 0 1 18.881407 10.877412 8.522277
6 0 1 19.390509 10.863011 9.317077
7 0 1 19.934507 11.539613 9.569930
8 0 1 19.762205 12.428014 9.755843
9 0 1 19.374208 13.079816 10.220199
10 0 1 20.008108 13.812413 10.152801
11 0 1 19.290205 14.471513 10.224898
12 0 1 19.502207 15.405515 10.398406
13 0 1 19.329206 16.352613 10.227294
14 0 1 18.743505 17.026716 10.559295
15 0 1 18.337507 16.956915 9.722182
16 0 1 17.572107 16.347315 9.660445
17 0 1 18.233305 15.850011 10.121200
18 0 1 18.088408 15.894315 11.087798
19 0 1 17.231806 16.111616 11.546004
20 0 1 17.662706 16.217916 12.406295
21 0 1 16.743807 16.139212 12.743606
22 0 1 16.214209 16.805014 13.211104
23 0 1 15.445108 16.325113 13.286300
24 0 1 15.686007 15.371614 13.080504
25 0 1 15.814909 14.424611 13.042800
26 0 1 16.717806 14.084516 13.078902
27 0 1 17.373308 14.791211 13.327392
28 0 1 17.054407 15.682912 13.670699
29 0 1 16.869909 15.581212 14.569198
30 0 1 17.610609 16.254011 14.644500
31 0 1 17.430506 16.349516 15.530898
32 0 1 18.228308 15.787213 15.566298
33 0 1 18.641508 15.570413 16.402098
34 0 1 17.895906 15.016416 16.109297
35 0 1 17.696207 14.770116 17.063902
36 0 1 17.893408 15.393514 17.786299
37 0 1 18.203306 15.482213 18.639494
38 0 1 18.622206 14.928815 19.266905
39 0 1 17.895006 15.056813 19.952803
40 0 1 16.931208 15.020612 20.363707
41 0 1 16.199705 15.607915 20.527494
42 0 1 15.961309 14.699113 20.190306
43 0 1 15.246107 14.143811 19.866606
44 0 1 15.624006 13.242513 19.826597
45 0 1 15.665106 12.767613 20.647703
46 0 1 15.392408 13.512715 21.081099
47 0 1 14.998205 12.803311 21.643492
48 0 1 14.337790 13.507611 21.819304
49 0 1 13.974009 13.955514 21.095503
50 0 1 14.045897 14.558911 21.922606
51 0 1 13.336355 15.150514 22.368605
52 0 1 13.136347 15.816915 21.621199
53 0 1 13.711706 16.427214 21.101591
54 0 1 13.130457 16.863615 20.372602
55 0 1 12.611998 17.657713 20.084990
56 0 1 11.693407 17.243013 20.222593
57 0 1 10.967966 17.148413 19.584303
58 0 1 10.548868 17.370813 18.795103
59 0 1 9.973967 18.063711 18.432295
60 0 1 10.376196 18.172014 17.592695
61 0 1 10.696306 18.564314 16.739698
62 0 1 10.220427 19.294516 16.266905
63 0 1 9.731958 19.387213 17.053801
64 0 1 8.944246 19.465712 17.702299
65 0 1 9.307676 20.355814 17.656202
66 0 1 9.230509 21.108114 18.274702
67 0 1 9.126997 20.290213 18.759199
68 0 1 8.505407 19.654715 19.129301
69 0 1 8.312998 19.737013 20.065504
70 0 1 8.791845 20.529013 20.381300
71 0 1 7.898726 21.034414 20.442701
72 0 1 8.494848 21.235914 19.725798
73 0 1 7.953878 22.025816 19.627394
74 0 1 7.514948 21.205713 19.222792
75 0 1 6.918116 20.429716 19.487196
76 0 1 6.434759 19.822214 20.063398
77 0 1 6.142118 18.845411 20.105299
78 0 1 6.510946 18.363516 20.849592
79 0 1 6.432669 19.066412 21.635099
80 0 1 7.360369 19.226614 22.006498
81 0 1 7.351286 18.324415 22.390104
82 0 1 8.080797 18.040613 23.042509
83 0 1 8.066088 17.147314 23.251890
84 0 1 8.751677 16.551016 23.560301
85 0 1 9.552305 16.130316 23.555204
86 0 1 10.332506 15.903516 23.081511
87 0 1 10.327116 16.917913 23.233702
88 0 1 10.243269 17.612314 22.587584
89 0 1 10.517736 18.520117 22.880888
90 0 1 10.978369 19.347113 23.204283
91 0 1 11.485048 19.685614 22.419294
92 0 1 11.025587 20.219213 21.866499
93 0 1 11.607958 21.030012 21.961195
94 0 1 12.340029 20.934011 21.420805
95 0 1 12.726049 21.488417 22.161894
96 0 1 13.150896 21.746115 22.966093
97 0 1 13.130476 21.716814 23.938108
98 0 1 13.682196 22.047415 24.719389
99 0 1 13.312346 22.946012 24.652891
100 0 1 12.575167 23.641012 24.724791
101 0 1 12.330797 23.022314 24.108397
102 0 1 11.531157 22.785315 24.552000
103 0 1 11.993559 23.033216 25.393400
104 0 1 11.264746 22.436613 25.580503
105 0 1 10.313086 22.467115 25.359495
106 0 1 9.937326 23.007914 24.692411
107 0 1 9.221468 22.437613 24.239897
108 0 1 8.578558 22.368612 23.427397
109 0 1 7.923788 21.760313 23.619993
110 0 1 8.340029 22.111013 24.465208
111 0 1 8.448469 22.459913 25.354002
112 0 1 8.594496 23.027815 26.226988
113 0 1 8.517748 22.462812 26.962309
114 0 1 8.552359 23.317411 27.479094
115 0 1 9.358015 23.363417 26.976500
116 0 1 10.187498 23.811613 27.019194
117 0 1 10.766035 23.054213 27.252409
118 0 1 10.867357 22.095015 27.389708
119 0 1 10.017675 22.289515 27.837492
120 0 1 10.439447 21.636114 28.398893
121 0 1 10.445227 21.950514 29.334806
122 0 1 9.745348 21.795317 30.031706
123 0 1 10.405279 22.288816 30.484709
124 0 1 10.907278 21.518614 30.269102
125 0 1 10.411638 20.740114 30.557402
126 0 1 10.558416 20.604815 29.616301
127 0 1 9.809717 20.407114 29.132902
128 0 1 9.127287 20.196714 29.766203
129 0 1 9.172556 19.640112 30.566191
130 0 1 9.670847 19.183214 31.289000
131 0 1 10.114279 18.465414 30.740202
132 0 1 10.949026 18.504416 30.293394
133 0 1 11.499426 18.619913 29.438688
134 0 1 11.061155 19.338713 29.053587
135 0 1 11.944647 19.671614 29.172087
136 0 1 12.489187 19.812315 29.931883
137 0 1 13.218088 19.059515 29.949186
138 0 1 14.029558 18.620611 29.855803
139 0 1 13.336020 18.175917 29.376310
140 0 1 12.882788 17.917913 30.281889
141 0 1 13.072035 17.040815 29.813993
142 0 1 12.641176 16.534914 30.476805
143 0 1 12.200418 15.660512 30.770689
144 0 1 11.605337 15.090215 31.425291
145 0 1 11.036009 15.121213 30.580198
146 0 1 11.551138 14.730912 29.826200
147 0 1 11.497038 13.842214 30.167387
148 0 1 12.137205 13.707616 30.854185
149 0 1 12.925695 14.199513 31.195890
150 0 1 13.411058 14.248914 32.075684
151 0 1 14.314405 14.154813 31.896482
152 0 1 14.901308 13.388310 32.071716
153 0 1 15.303308 12.953916 31.263914
154 0 1 15.576708 12.911214 30.315611
155 0 1 16.170908 13.610715 29.977598
156 0 1 16.415808 14.491414 29.652098
157 0 1 16.078207 14.212514 28.798491
158 0 1 16.341608 14.458112 27.922392
159 0 1 16.154707 13.624513 27.520201
160 0 1 16.716307 12.772916 27.632994
161 0 1 15.834005 12.591413 27.464506
162 0 1 15.294207 12.686315 28.292601
163 0 1 14.737307 12.058213 28.811003
164 0 1 14.332235 11.817815 28.013609
165 0 1 14.081450 11.360314 27.170591
166 0 1 13.829687 12.160813 26.743498
167 0 1 13.391706 12.638013 26.059690
168 0 1 12.736517 11.891515 26.130095
169 0 1 12.716066 12.240613 25.203489
170 0 1 13.072027 11.333013 24.928587
171 0 1 13.191099 10.410714 24.867491
172 0 1 14.079348 9.993714 25.072508
173 0 1 14.203127 9.408711 25.795286
174 0 1 13.293249 9.424611 25.650206
175 0 1 12.521406 9.614713 26.138792
176 0 1 12.740477 8.774411 26.515104
177 0 1 11.770979 8.780515 26.834501
178 0 1 11.269999 7.953713 26.900511
179 0 1 11.270819 7.642415 27.826200
180 0 1 11.110277 6.943013 27.213011
181 0 1 10.505346 6.240312 27.604399
182 0 1 10.187746 5.574174 28.193785
183 0 1 10.001867 4.998754 27.469603
184 0 1 10.530737 4.482091 28.122709
185 0 1 9.876627 3.837262 28.235197
186 0 1 9.752909 2.858613 28.535002
187 0 1 8.957026 2.304715 28.479185
188 0 1 8.006937 2.500981 28.900511
189 0 1 8.284746 1.893174 29.529600
190 0 1 9.016748 2.293183 30.067106
191 0 1 8.800768 3.304154 30.275297
192 0 1 9.436979 3.928731 30.476591
193 0 1 9.544867 3.611505 31.399809
194 0 1 9.115538 3.605672 32.272095
195 0 1 8.516897 3.092713 31.724607
196 0 1 7.632776 3.286984 31.276793
197 0 1 7.144278 2.509534 30.988310
198 0 1 6.232718 2.583833 31.217497
199 0 1 5.518147 2.398984 31.905607
200 0 1 5.397367 1.558072 31.408903
201 0 1 6.011759 1.305383 30.659208
202 0 1 6.625746 1.082692 29.955900
203 0 1 7.329386 1.316514 29.364500
204 0 1 6.996927 0.856565 28.619993
205 0 1 6.118586 0.680425 29.045713
206 0 1 6.094389 0.463681 28.059904
207 0 1 5.773336 1.339223 27.776396
208 0 1 5.119875 1.685143 28.419706
209 0 1 4.190666 1.917325 28.226805
210 0 1 3.803370 2.790574 28.234495
211 0 1 2.965986 2.278852 27.898100
212 0 1 3.382265 1.528375 27.348112
213 0 1 4.187750 1.540284 26.906706
214 0 1 4.598593 2.438584 26.870695
215 0 1 4.043289 2.999555 26.281004
216 0 1 4.875130 3.477143 26.588804
217 0 1 5.264313 4.360604 26.513090
218 0 1 5.680986 5.149472 26.883696
219 0 1 5.627117 5.039582 27.852293
220 0 1 4.676096 4.931493 27.976896
221 0 1 3.763869 4.873292 27.997313
222 0 1 2.897387 4.573922 28.119108
223 0 1 2.515227 4.198171 27.267302
224 0 1 2.826317 4.068543 26.352598
225 0 1 3.658591 4.475503 26.085814
226 0 1 4.268173 4.996465 26.604185
227 0 1 4.628523 5.765103 26.265409
228 0 1 5.210272 6.375615 25.847288
229 0 1 4.555882 6.057584 25.289610
230 0 1 4.780865 5.595693 24.437498
231 0 1 3.927695 5.367841 23.984709
232 0 1 3.332028 5.150292 24.671110
233 0 1 3.694302 4.284623 24.796293
234 0 1 3.666878 3.353383 24.563993
235 0 1 4.425144 2.777555 24.669004
236 0 1 3.907772 2.202943 24.134886
237 0 1 3.515763 1.892442 23.360106
238 0 1 2.728047 2.221631 23.790800
239 0 1 2.479597 2.356584 24.744291
240 0 1 2.010138 1.504323 24.536711
241 0 1 2.057558 0.636273 24.941099
242 0 1 3.023207 0.610951 24.952513
243 0 1 3.338818 0.361592 24.045805
244 0 1 3.930449 0.025163 24.715513
245 0 1 4.658413 0.315282 25.250090
246 0 1 4.815695 -0.236178 26.022184
247 0 1 4.359856 -0.388457 26.830595
248 0 1 3.906586 -0.826129 27.539610
249 0 1 4.674706 -1.350047 27.310392
250 0 1 5.213602 -1.924666 26.711210
251 0 1 5.364517 -2.755378 27.206511
252 0 1 6.346079 -2.704177 27.121305
253 0 1 6.157415 -3.698003 26.892698
254 0 1 6.122366 -4.542115 27.467497
255 0 1 6.138277 -4.581693 28.437590
256 0 1 6.614058 -5.178916 28.998503
257 0 1 5.976526 -5.931148 28.990385
258 0 1 5.299742 -6.160817 29.610289
259 0 1 5.652798 -6.976737 30.140501
260 0 1 6.250208 -6.440608 30.605497
261 0 1 6.507837 -6.951337 31.379210
262 0 1 6.942495 -7.575828 32.010986
263 0 1 7.731157 -7.166667 31.679594
264 0 1 8.151037 -7.568007 30.932310
265 0 1 8.108927 -8.056857 30.122892
266 0 1 7.241556 -8.156016 30.657713
267 0 1 6.301275 -8.147746 30.981688
268 0 1 5.894659 -8.914777 30.495298
269 0 1 6.429766 -8.694158 29.756895
270 0 1 5.992887 -9.267077 29.082396
271 0 1 6.810976 -9.600768 28.544493
272 0 1 7.140436 -10.471057 28.741392
273 0 1 7.972326 -10.995788 28.787199
274 0 1 8.435236 -10.474776 28.043303
275 0 1 8.729937 -10.065936 27.191710
276 0 1 9.462576 -9.436378 26.888700
277 0 1 10.394999 -9.475196 27.022612
278 0 1 10.038088 -9.652976 27.900908
279 0 1 10.850618 -9.777156 28.424406
280 0 1 11.230478 -10.073426 29.264189
281 0 1 10.693796 -9.922647 30.115904
282 0 1 10.677328 -10.682906 30.754210
283 0 1 10.941286 -11.485948 31.229185
284 0 1 10.676699 -10.706157 31.775389
285 0 1 9.848707 -10.284417 31.512907
286 0 1 8.978506 -10.578578 31.724485
287 0 1 8.546099 -9.878167 32.173798
288 0 1 8.794718 -8.998807 32.524811
289 0 1 9.122438 -8.090747 32.307404
290 0 1 9.869688 -8.784896 32.264496
291 0 1 10.689886 -8.426227 31.938108
292 0 1 11.423826 -8.088897 31.398893
293 0 1 11.768827 -7.258107 31.905302
294 0 1 11.411856 -6.880998 31.148497
295 0 1 11.264578 -6.586146 30.223509
296 0 1 11.959898 -6.003516 29.798185
297 0 1 12.911547 -5.860476 29.786711
298 0 1 13.918497 -5.629888 29.560301
299 0 1 14.427507 -6.448358 29.751402
300 0 1 14.766706 -6.650617 30.649992
301 0 1 15.660109 -6.334067 30.810789
302 0 1 16.187807 -7.157746 31.080412
303 0 1 15.940306 -7.952157 31.638700
304 0 1 15.531107 -8.027217 30.774900
305 0 1 16.216608 -8.200917 30.086088
306 0 1 15.622908 -8.797727 29.685606
307 0 1 15.667208 -9.374698 30.451597
308 0 1 16.206507 -9.722756 31.160185
309 0 1 16.163008 -10.659867 31.323698
310 0 1 17.130308 -10.639148 31.389708
311 0 1 17.391905 -10.288056 32.241089
312 0 1 17.403708 -10.897367 32.947388
313 0 1 18.214407 -11.163478 32.376892
314 0 1 18.187605 -12.141616 32.467194
315 0 1 18.242506 -11.834838 33.379211
316 0 1 18.826109 -12.045447 34.132996
317 0 1 18.992708 -11.313506 34.687317
318 0 1 18.890306 -10.493836 35.164185
319 0 1 19.077707 -10.730147 36.068909
320 0 1 18.137609 -11.058957 35.970490
321 0 1 18.057608 -10.128707 35.814392
322 0 1 18.075308 -9.685348 36.652100
323 0 1 18.053007 -9.048278 37.317108
324 0 1 18.388208 -9.693276 37.896606
325 0 1 19.246706 -9.888278 38.192505
326 0 1 18.881605 -9.050956 38.639709
327 0 1 18.731108 -9.279727 39.551514
328 0 1 17.846006 -9.092446 39.908112
329 0 1 17.181108 -9.786887 39.727203
330 0 1 17.079706 -9.455567 40.585083
331 0 1 16.165506 -9.514667 40.686310
332 0 1 15.596907 -8.883477 41.095886
333 0 1 15.509207 -8.872296 42.081390
334 0 1 15.367109 -8.594798 42.971985
335 0 1 15.486208 -8.754737 43.965515
336 0 1 16.365606 -9.170238 44.222290
337 0 1 15.854109 -10.001107 44.531799
338 0 1 15.488707 -9.949347 45.384491
339 0 1 14.764307 -9.736417 46.051300
340 0 1 15.478506 -9.101386 45.995605
341 0 1 14.721106 -8.589337 45.566010
342 0 1 15.587008 -8.345906 45.178192
343 0 1 16.421408 -7.866237 45.035706
344 0 1 16.155409 -7.404258 45.921295
345 0 1 16.485407 -8.200366 46.313293
346 0 1 17.435209 -8.211837 46.239014
347 0 1 17.975508 -7.648667 46.779297
348 0 1 17.571207 -7.737258 47.642212
349 0 1 17.096506 -6.914508 47.903992
350 0 1 16.627306 -6.122336 48.031799
351 0 1 17.081606 -5.877526 47.211395
352 0 1 17.668108 -5.232007 47.720093
353 0 1 17.752607 -4.673444 48.504089
354 0 1 17.181807 -4.468669 49.260010
355 0 1 17.178709 -4.772731 50.193207
356 0 1 18.010107 -4.733310 50.683502
357 0 1 18.186209 -4.060925 51.317993
358 0 1 17.559206 -3.292548 51.419312
359 0 1 17.782209 -2.390166 50.989594
360 0 1 16.897306 -2.435157 51.243195
361 0 1 16.366907 -3.247891 50.980499
362 0 1 16.116507 -3.663669 51.819885
363 0 1 17.018209 -4.105853 52.095398
364 0 1 17.250906 -3.241435 52.428589
365 0 1 18.051706 -3.572230 52.913910
366 0 1 18.346209 -3.006309 53.612701
367 0 1 18.199606 -2.025626 53.513611
368 0 1 17.651007 -1.337176 53.135498
369 0 1 17.042406 -2.126437 53.017212
370 0 1 16.617109 -1.965648 53.841888
371 0 1 16.712507 -1.067279 53.653809
372 0 1 17.207205 -1.076316 54.489807
373 0 1 17.875906 -0.422828 54.217407
374 0 1 17.529306 -0.010856 53.458588
375 0 1 18.039309 0.477014 52.881897
376 0 1 17.160807 0.729043 52.524902
377 0 1 16.844007 1.502183 52.007385
378 0 1 15.965208 1.883393 52.004089
379 0 1 15.243307 1.359994 51.623688
380 0 1 14.323107 1.574212 51.879608
381 0 1 14.554708 1.761151 52.791199
382 0 1 14.349817 0.766263 52.681488
383 0 1 15.000708 0.335153 53.268311
384 0 1 14.248388 0.337705 53.914093
385 0 1 13.677206 -0.383426 54.329498
386 0 1 13.542868 -1.342368 54.582794
387 0 1 14.047586 -2.109218 54.945312
388 0 1 13.366240 -2.480027 55.595795
389 0 1 13.281168 -2.605666 56.609406
390 0 1 12.418516 -2.441688 56.159607
391 0 1 12.058916 -3.136386 56.736694
392 0 1 12.318838 -4.067306 57.028992
393 0 1 11.932035 -4.119359 56.156006
394 0 1 12.405119 -3.693223 55.370087
395 0 1 11.714376 -3.709735 54.736603
396 0 1 11.456087 -3.498239 53.830505
397 0 1 11.219988 -2.581986 53.811096
398 0 1 10.929976 -2.346045 54.718292
399 0 1 10.276987 -2.167895 55.360809
400 0 1 9.543417 -2.565578 55.799805
401 0 1 9.222265 -2.725408 54.935394
402 0 1 8.448637 -2.183467 54.727783
403 0 1 7.849497 -2.986850 54.697601
404 0 1 7.176798 -3.248277 54.030304
405 0 1 7.592398 -3.977134 53.476593
406 0 1 8.481356 -3.662026 53.264008
407 0 1 8.373606 -2.838567 52.757690
408 0 1 8.746656 -3.394530 52.131409
409 0 1 8.336706 -3.783439 51.361511
410 0 1 7.730906 -4.167708 50.732117
411 0 1 8.428217 -4.785539 50.530609
412 0 1 7.571188 -5.010587 50.139313
413 0 1 6.704145 -5.016116 50.397583
414 0 1 5.974989 -5.415597 49.900604
415 0 1 5.420036 -5.141107 50.578003
416 0 1 4.601803 -4.581014 50.611603
417 0 1 4.156330 -4.860547 51.458008
418 0 1 4.774557 -5.516017 51.843994
419 0 1 5.581966 -5.623878 52.353790
420 0 1 5.200041 -6.504727 52.276306
421 0 1 4.692049 -7.258477 52.059601
422 0 1 4.313816 -7.539227 51.182892
423 0 1 5.275002 -7.223407 51.161896
424 0 1 5.128778 -7.733756 50.363800
425 0 1 5.763247 -8.408816 50.227692
426 0 1 6.230577 -9.094497 49.747589
427 0 1 6.116697 -9.974727 49.315887
428 0 1 6.459379 -9.582896 48.567902
429 0 1 7.306349 -9.887197 48.207611
430 0 1 7.381468 -9.104888 47.611694
431 0 1 6.958029 -8.223876 47.685913
432 0 1 6.615698 -7.771207 48.425690
433 0 1 7.222628 -7.319827 49.095703
434 0 1 6.658327 -6.484258 49.234894
435 0 1 6.238676 -6.842427 48.416107
436 0 1 6.382559 -6.441188 47.516510
437 0 1 6.892908 -6.623807 46.666595
438 0 1 7.827547 -6.389216 46.671600
439 0 1 7.894648 -5.445357 47.027588
440 0 1 8.648817 -5.451087 47.674591
441 0 1 9.165808 -5.311337 46.896698
442 0 1 9.378698 -6.287868 47.154694
443 0 1 10.023939 -6.860387 46.744995
444 0 1 10.883448 -6.374177 46.659088
445 0 1 11.259256 -6.678367 45.856384
446 0 1 12.035856 -7.111846 46.191406
447 0 1 11.929956 -8.036036 45.865692
448 0 1 11.845518 -8.688947 45.197205
449 0 1 11.042269 -8.996457 44.742188
450 0 1 11.221006 -9.592517 45.440491
451 0 1 10.945585 -10.134707 44.756104
452 0 1 10.512526 -9.613017 44.047302
453 0 1 11.077257 -10.153657 43.381989
454 0 1 11.929056 -10.373727 43.633301
455 0 1 12.680159 -9.796227 43.618896
456 0 1 12.247908 -9.241857 42.913910
457 0 1 11.458647 -8.918387 42.527496
458 0 1 11.958769 -9.046287 41.651489
459 0 1 11.898397 -8.359277 40.857910
460 0 1 10.950689 -8.511888 41.025696
461 0 1 10.907286 -7.919288 41.789490
462 0 1 11.143286 -7.521337 42.713501
463 0 1 10.881887 -6.800036 42.113190
464 0 1 10.480547 -6.196927 42.735291
465 0 1 10.502619 -5.339778 43.158997
466 0 1 11.169996 -5.480866 43.890991
467 0 1 11.286196 -4.588281 43.612610
468 0 1 11.249006 -3.841453 43.022095
469 0 1 10.418547 -3.588887 42.567688
470 0 1 9.653326 -3.623929 43.151611
471 0 1 9.726137 -2.762847 42.712311
472 0 1 10.376688 -2.183536 43.098083
473 0 1 10.121218 -1.347396 42.659210
474 0 1 10.595217 -0.667396 43.102905
475 0 1 9.744356 -0.325568 42.864807
476 0 1 8.826647 -0.129996 43.152710
477 0 1 9.232409 0.413182 42.395386
478 0 1 8.416548 0.906762 42.582703
479 0 1 8.279985 1.783414 42.858093
480 0 1 7.539038 1.984075 42.216492
481 0 1 6.780226 1.352742 42.374695
482 0 1 7.009836 0.456002 42.194214
483 0 1 7.387358 0.118032 43.101196
484 0 1 7.510576 1.094712 43.328613
485 0 1 6.862806 1.898435 43.273712
486 0 1 5.880068 1.572824 43.423004
487 0 1 5.328569 2.246133 43.034210
488 0 1 5.481367 2.633843 42.157196
489 0 1 4.558102 2.815274 42.411316
490 0 1 4.030386 2.451512 43.091187
491 0 1 3.219877 2.658242 43.580109
492 0 1 3.827603 2.220464 44.096100
493 0 1 4.078329 3.103654 44.191589
494 0 1 4.134977 3.473783 43.338593
495 0 1 3.629578 4.042111 42.700500
496 0 1 3.387295 4.120671 41.787109
497 0 1 3.233147 4.484773 40.817902
498 0 1 2.868958 3.565553 40.831207
499 0 1 3.350497 3.403943 39.903412
500 0 1 3.049147 2.529511 39.712006
501 0 1 3.775568 2.321092 40.245392
502 0 1 3.371481 1.447873 40.185699
503 0 1 2.771727 1.605382 40.911713
504 0 1 2.221268 2.140534 41.560699
505 0 1 1.951477 1.255193 41.502808
506 0 1 2.752617 0.652104 41.556702
507 0 1 2.921038 0.185155 42.448792
508 0 1 2.373997 -0.637656 42.788391
509 0 1 2.575917 -0.319888 43.697296
510 0 1 2.135027 -0.844748 44.351501
511 0 1 2.318808 -0.243247 45.135193
512 0 1 1.818268 0.318894 44.488403
513 0 1 1.053778 0.914594 44.680511
514 0 1 1.265707 1.305413 43.698608
515 0 1 0.743557 2.160344 43.531097
516 0 1 1.308987 2.871774 43.827698
517 0 1 1.381697 3.854981 43.957306
518 0 1 1.433167 4.811234 44.237488
519 0 1 0.499838 4.818292 43.699188
520 0 1 -0.238422 4.609242 44.325500
521 0 1 -0.966902 4.860341 44.884216
522 0 1 -0.878752 4.205441 45.636810
523 0 1 -1.506712 4.221932 46.314606
524 0 1 -2.006313 4.610845 47.036194
525 0 1 -2.790601 5.146844 47.072693
526 0 1 -3.601393 4.893605 47.517090
527 0 1 -4.107954 4.882974 48.334290
528 0 1 -4.044764 4.851823 49.301910
529 0 1 -4.690924 4.294694 49.632202
530 0 1 -4.959963 3.883382 50.530884
531 0 1 -5.684692 4.191945 51.132202
532 0 1 -6.512293 4.708714 51.313904
533 0 1 -6.170893 4.710774 52.240204
534 0 1 -5.835093 5.586194 52.403809
535 0 1 -5.437181 5.189084 53.138611
536 0 1 -4.688772 5.575734 52.609406
537 0 1 -3.769993 5.796735 52.545105
538 0 1 -3.174253 5.075433 52.710083
539 0 1 -2.432932 5.172433 53.420898
540 0 1 -2.246452 4.546102 54.218384
541 0 1 -3.073032 4.077344 54.179199
542 0 1 -3.917444 3.942441 54.594910
543 0 1 -3.802263 3.067792 54.315399
544 0 1 -3.638862 3.071805 55.270905
545 0 1 -2.850683 3.233533 55.799805
546 0 1 -2.279032 2.805203 56.440887
547 0 1 -1.316862 3.113805 56.573212
548 0 1 -1.554971 3.986833 56.911713
549 0 1 -1.168552 3.872045 57.805786
550 0 1 -0.620844 3.086083 57.721008
551 0 1 0.095387 2.619664 58.304596
552 0 1 -0.118223 2.303441 59.171906
553 0 1 0.395838 1.505692 58.998108
554 0 1 0.410877 0.408414 59.025299
555 0 1 0.897227 -0.056796 58.332092
556 0 1 0.783737 -0.973647 57.970703
557 0 1 1.292187 -0.900287 57.153412
558 0 1 2.278137 -0.886207 56.798798
559 0 1 3.033627 -0.375606 57.302795
560 0 1 3.247578 -1.316016 57.231689
561 0 1 2.437758 -1.541785 57.704102
562 0 1 2.486578 -1.963458 58.552185
563 0 1 2.365917 -1.810168 59.488800
564 0 1 2.594767 -1.180507 60.143616
565 0 1 2.493868 -0.234065 60.416504
566 0 1 2.510767 0.405404 61.105103
567 0 1 3.438895 0.053933 61.280792
568 0 1 2.804426 -0.623256 61.569214
569 0 1 3.147448 -1.112998 62.370911
570 0 1 3.048588 -2.078628 62.268494
571 0 1 3.234907 -2.998841 62.347504
572 0 1 2.341568 -3.099635 62.708893
573 0 1 2.607088 -4.047246 62.875000
574 0 1 3.347817 -4.628884 62.846405
575 0 1 3.080977 -4.925557 63.690002
576 0 1 2.204947 -5.408847 63.782593
577 0 1 1.767187 -5.356177 64.661316
578 0 1 2.377268 -5.919528 65.179504
579 0 1 2.837538 -5.696397 65.945007
580 0 1 3.518740 -5.343017 66.518402
581 0 1 4.331764 -5.883117 66.476105
582 0 1 5.233530 -5.865237 66.037506
583 0 1 5.581028 -5.775916 65.163605
584 0 1 6.188917 -5.080827 65.426819
585 0 1 6.543726 -5.412107 64.595306
586 0 1 5.957426 -4.770104 64.318604
587 0 1 5.802168 -4.728713 63.344208
588 0 1 5.777597 -5.528007 62.799408
589 0 1 6.433657 -6.104278 62.551514
590 0 1 7.129309 -6.110797 61.912201
591 0 1 7.096685 -7.008777 61.635193
592 0 1 7.695509 -6.654077 61.029510
593 0 1 8.506708 -6.831897 60.533386
594 0 1 9.372377 -7.181537 60.690796
595 0 1 8.962545 -7.799636 61.334808
596 0 1 9.305899 -8.283507 60.591492
597 0 1 8.455587 -8.635747 60.348816
598 0 1 7.603468 -8.906386 60.644714
599 0 1 7.203169 -8.129046 61.159698
600 0 1 6.309877 -7.804606 61.263916
601 0 1 6.234728 -8.550557 61.967590
602 0 1 6.653769 -9.204347 61.335297
603 0 1 6.619776 -9.881167 60.655304
604 0 1 5.845148 -10.399907 60.535583
605 0 1 5.252298 -10.807826 59.929810
606 0 1 5.487057 -11.523726 59.353790
607 0 1 6.035128 -11.822318 58.659485
608 0 1 6.604528 -11.110686 58.380402
609 0 1 6.628546 -10.132018 58.240906
610 0 1 6.063139 -9.677108 57.651093
611 0 1 6.022806 -8.891868 58.212402
612 0 1 6.288828 -8.350057 57.458710
613 0 1 5.730917 -7.537948 57.584106
614 0 1 4.761673 -7.683606 57.559296
615 0 1 5.049047 -8.360436 56.950287
616 0 1 4.757561 -9.041198 57.680206
617 0 1 5.251488 -9.371167 56.899109
618 0 1 4.506512 -9.829337 56.529205
619 0 1 4.151114 -10.472337 57.080994
620 0 1 4.266008 -11.397128 56.969696
621 0 1 3.507756 -11.767997 57.364685
622 0 1 3.158007 -11.657287 58.322693
623 0 1 4.096024 -11.538436 58.563812
624 0 1 4.142956 -12.232116 57.933899
625 0 1 4.414431 -13.171487 58.201202
626 0 1 3.770048 -13.528287 58.828094
627 0 1 3.497391 -14.495086 58.809601
628 0 1 3.600489 -14.407187 57.866089
629 0 1 3.688149 -14.263087 56.905487
630 0 1 3.831089 -14.142486 55.975311
631 0 1 3.568930 -13.657187 55.251312
632 0 1 4.304497 -13.447848 54.628784
633 0 1 3.689636 -13.397157 53.860291
634 0 1 4.512241 -12.891187 53.724091
635 0 1 4.135448 -12.631148 52.841095
636 0 1 4.337236 -12.173177 52.019012
637 0 1 4.257175 -12.251607 51.037292
638 0 1 3.807225 -12.995147 50.661804
639 0 1 3.986580 -12.543628 49.785889
640 0 1 3.447069 -12.500228 48.975708
641 0 1 2.856308 -12.770087 49.662415
642 0 1 2.480097 -13.595237 50.122101
643 0 1 2.801838 -14.447387 49.867798
644 0 1 2.255018 -14.299787 49.078796
645 0 1 2.244538 -15.184688 49.098816
646 0 1 2.208437 -16.210585 49.138306
647 0 1 3.029677 -16.438086 49.726288
648 0 1 2.484528 -17.236586 49.578308
649 0 1 2.307337 -18.149187 49.426910
650 0 1 1.533837 -18.581787 49.019592
651 0 1 1.656927 -18.508886 48.016113
652 0 1 0.740097 -18.489986 47.792603
653 0 1 0.164557 -17.700087 47.521393
654 0 1 0.573027 -17.986387 46.621002
655 0 1 0.113638 -17.816986 45.783112
656 0 1 -0.200573 -17.290586 46.483612
657 0 1 -1.026573 -16.838785 46.777496
658 0 1 -0.500833 -16.155085 46.391113
659 0 1 -1.159403 -16.419985 45.730896
660 0 1 -1.403883 -16.348286 44.700897
661 0 1 -2.130441 -15.723086 44.705383
662 0 1 -2.140642 -14.915488 44.264191
663 0 1 -2.744512 -15.321086 43.649414
664 0 1 -3.320843 -16.074087 43.914917
665 0 1 -3.942142 -15.854287 44.588806
666 0 1 -4.665274 -16.162586 45.097412
667 0 1 -4.430853 -16.423685 45.973816
668 0 1 -4.836243 -15.559886 45.988098
669 0 1 -5.546404 -15.982486 46.401001
670 0 1 -6.319593 -15.867286 47.059601
671 0 1 -6.980993 -15.757787 46.338409
672 0 1 -7.113092 -14.773187 46.403687
673 0 1 -7.488092 -13.972388 46.179504
674 0 1 -8.165892 -14.460288 46.663208
675 0 1 -8.772593 -15.148187 46.580383
676 0 1 -8.932793 -16.095087 46.474609
677 0 1 -9.766092 -15.776286 46.217407
678 0 1 -10.633793 -15.677386 46.747711
679 0 1 -10.614293 -14.826686 46.328308
680 0 1 -10.541193 -13.843486 46.479889
681 0 1 -11.292892 -13.944787 45.811584
682 0 1 -10.557293 -14.169486 45.161499
683 0 1 -11.303193 -13.631167 44.850403
684 0 1 -11.492693 -12.681968 44.441406
685 0 1 -11.823793 -11.983676 43.763489
686 0 1 -12.190092 -11.217097 43.366608
687 0 1 -11.311092 -10.757537 43.332886
688 0 1 -10.471192 -10.425517 43.474396
689 0 1 -10.634593 -9.592418 42.935791
690 0 1 -9.994793 -8.952086 42.626495
691 0 1 -8.984392 -9.249778 42.756012
692 0 1 -9.259293 -10.159686 42.540894
693 0 1 -9.924892 -10.698226 42.023712
694 0 1 -9.031591 -10.686276 41.570709
695 0 1 -8.109592 -11.059386 41.904510
696 0 1 -7.603392 -10.274787 42.107483
697 0 1 -7.870293 -10.190196 41.165192
698 0 1 -6.836693 -10.086978 41.229492
699 0 1 -6.935093 -9.380116 41.924316
700 0 1 -6.030794 -9.298127 42.268097
701 0 1 -5.259872 -9.582038 41.690399
702 0 1 -5.181793 -8.632367 41.994385
703 0 1 -4.335722 -8.378467 41.598297
704 0 1 -3.582363 -8.513446 42.184998
705 0 1 -3.474073 -8.087876 42.996796
706 0 1 -3.615663 -7.168866 43.056793
707 0 1 -3.864572 -6.310616 42.640015
708 0 1 -4.473473 -5.559676 42.451294
709 0 1 -4.155003 -5.930827 41.632904
710 0 1 -4.900972 -6.491437 41.838501
711 0 1 -5.915892 -6.655807 41.869110
712 0 1 -5.603102 -5.884797 41.382507
713 0 1 -5.844193 -5.715957 40.493103
714 0 1 -6.523394 -5.129416 40.941498
715 0 1 -6.480093 -4.495851 40.198486
716 0 1 -6.715494 -4.883471 39.341797
717 0 1 -7.611494 -4.642661 39.247406
718 0 1 -7.882292 -5.536496 39.473389
719 0 1 -7.935892 -6.328958 38.893494
720 0 1 -8.233593 -7.209006 38.713013
721 0 1 -8.802393 -7.878886 38.244202
722 0 1 -8.966793 -7.198056 37.550812
723 0 1 -9.917692 -7.192826 37.665710
724 0 1 -10.569493 -7.763186 37.941010
725 0 1 -10.493493 -8.268167 37.154297
726 0 1 -11.195493 -7.616706 36.974915
727 0 1 -10.767592 -6.879928 36.386810
728 0 1 -10.995893 -7.577447 35.741699
729 0 1 -11.262093 -7.702598 34.809296
730 0 1 -11.443993 -8.153947 34.005402
731 0 1 -11.227393 -9.074477 33.950592
732 0 1 -11.627892 -9.791698 33.522888
733 0 1 -10.796093 -10.259807 33.400391
734 0 1 -10.122492 -9.876956 32.886414
735 0 1 -9.187994 -9.920527 32.734314
736 0 1 -9.400793 -9.390567 31.906492
737 0 1 -8.948092 -9.006198 31.127012
738 0 1 -8.733492 -9.902698 30.682096
739 0 1 -9.044992 -10.606927 31.329191
740 0 1 -8.480494 -11.338246 31.257597
741 0 1 -7.601192 -10.991557 31.087004
742 0 1 -7.352293 -10.102927 30.796598
743 0 1 -6.929892 -9.699496 30.023710
744 0 1 -6.427193 -10.487927 30.118986
745 0 1 -5.923792 -11.226407 29.651091
746 0 1 -5.721493 -11.448487 28.787199
747 0 1 -5.922892 -11.865428 27.887602
748 0 1 -6.558693 -11.641088 27.144285
749 0 1 -6.965494 -10.976638 27.787107
750 0 1 -6.877493 -10.025027 27.739683
751 0 1 -7.519293 -10.267707 26.992002
752 0 1 -8.084291 -9.550208 26.897093
753 0 1 -8.416693 -9.968547 26.075010
754 0 1 -7.499693 -9.770947 25.722807
755 0 1 -7.811792 -8.958997 25.303099
756 0 1 -7.593193 -8.685058 24.408689
757 0 1 -6.784594 -8.210557 24.354490
758 0 1 -6.293592 -7.492917 23.925810
759 0 1 -6.237894 -7.243957 24.820707
760 0 1 -5.884192 -6.431977 24.529112
761 0 1 -6.266293 -5.809777 25.087309
762 0 1 -6.232992 -5.480968 24.204588
763 0 1 -6.143892 -4.685424 23.603300
764 0 1 -5.976093 -4.048345 22.931486
765 0 1 -6.159994 -3.152247 22.550108
766 0 1 -5.325754 -2.686208 22.622313
767 0 1 -5.299982 -2.716437 21.621199
768 0 1 -4.453764 -3.005155 21.898191
769 0 1 -3.803903 -2.515998 21.483992
770 0 1 -3.480062 -1.812655 20.845594
771 0 1 -3.618963 -0.914466 21.037504
772 0 1 -3.043133 -0.419307 21.657698
773 0 1 -2.834654 -0.601897 22.566008
774 0 1 -2.471042 -1.404098 22.964201
775 0 1 -1.755712 -1.995616 23.051603
776 0 1 -0.939913 -2.098228 23.519407
777 0 1 -0.337824 -1.416228 23.461088
778 0 1 -0.539102 -0.590068 23.897886
779 0 1 0.286667 -0.336879 24.313108
780 0 1 0.646607 0.004972 25.168882
781 0 1 1.196448 -0.002196 25.971586
782 0 1 1.599438 -0.853995 25.688597
783 0 1 1.851378 -1.167338 26.621885
784 0 1 2.162256 -2.024676 26.880186
785 0 1 2.992998 -1.939338 26.455198
786 0 1 2.327067 -2.011607 25.792295
787 0 1 1.411457 -2.131476 25.530088
788 0 1 1.108467 -2.271548 26.497007
789 0 1 0.918507 -1.884036 27.357695
790 0 1 0.141728 -2.389178 27.609800
791 0 1 -0.257002 -3.030095 28.195494
792 0 1 -0.330053 -3.959182 27.919584