LAMMPS data file via MDAnalysis

        2000  atoms
        1999  bonds
           0  angles
           0  dihedrals
           0  impropers

           1  atom types
           1  bond types
           0  angle types
           0  dihedral types
           0  improper types

-30.5 30.5 xlo xhi
-30.5 30.5 ylo yhi
-233.5 233.5 zlo zhi


Masses

1 1.000000

Atoms

1 0 1 18.557133 -0.217929 16.301804
2 0 1 18.601833 -1.091871 15.918900
3 0 1 18.370232 -1.970889 16.217300
4 0 1 18.761932 -2.801673 16.266403
5 0 1 18.240032 -2.853780 15.481293
6 0 1 18.896332 -2.322511 15.105698
7 0 1 19.580532 -2.906341 14.785599
8 0 1 20.480732 -3.122591 14.538498
9 0 1 21.251034 -2.999567 13.983093
10 0 1 21.758331 -2.205253 13.677994
11 0 1 20.907032 -2.018585 13.478897
12 0 1 20.970234 -1.219421 13.977295
13 0 1 21.878330 -1.012191 13.593399
14 0 1 22.464535 -0.713569 12.909195
15 0 1 23.300533 -0.800319 13.464294
16 0 1 23.838833 -0.197750 12.935303
17 0 1 24.532433 -0.823161 12.909103
18 0 1 25.006332 -1.446121 13.388504
19 0 1 24.555431 -1.711723 14.187500
20 0 1 24.219532 -2.210748 14.963394
21 0 1 23.691334 -3.023006 14.648499
22 0 1 22.830532 -2.773464 15.132904
23 0 1 22.643032 -2.187242 15.864594
24 0 1 21.948032 -1.923675 16.462296
25 0 1 21.389034 -1.905713 15.604095
26 0 1 20.742031 -2.584167 15.771103
27 0 1 21.737534 -2.814859 15.881699
28 0 1 21.462631 -2.933040 16.807892
29 0 1 21.070831 -2.377183 17.527008
30 0 1 21.096832 -2.027225 18.416992
31 0 1 21.538235 -2.872203 18.520508
32 0 1 21.545231 -3.761840 18.845795
33 0 1 21.993534 -3.375169 19.647095
34 0 1 22.713531 -3.781091 19.087601
35 0 1 23.143532 -3.490751 19.848801
36 0 1 23.369930 -3.965080 20.687500
37 0 1 22.421635 -4.069080 20.548294
38 0 1 21.572834 -4.325151 20.901901
39 0 1 21.449532 -3.516302 21.298203
40 0 1 21.986530 -2.863372 21.765198
41 0 1 22.937931 -2.858533 21.554794
42 0 1 23.059032 -3.441242 22.311798
43 0 1 23.240532 -3.117576 23.211700
44 0 1 23.634232 -2.599472 23.875305
45 0 1 22.996933 -3.005693 24.553101
46 0 1 22.333332 -2.438323 24.930786
47 0 1 22.512833 -1.497714 24.957489
48 0 1 23.344532 -1.036180 25.203705
49 0 1 23.598530 -1.784404 25.744690
50 0 1 23.995930 -1.458631 26.558197
51 0 1 24.857132 -1.836873 26.534393
52 0 1 25.143734 -0.859210 26.524292
53 0 1 24.811733 -1.042100 25.624390
54 0 1 24.281933 -0.464080 25.069092
55 0 1 24.586330 0.404339 24.638916
56 0 1 24.971432 1.138909 24.136505
57 0 1 25.105831 2.047040 24.394989
58 0 1 25.375332 2.918110 24.239685
59 0 1 24.910534 3.745278 24.057495
60 0 1 24.828930 3.336300 23.218292
61 0 1 25.111332 2.474720 22.765900
62 0 1 25.171734 2.080960 21.876007
63 0 1 25.024132 2.964730 21.567398
64 0 1 25.354233 3.390450 20.772003
65 0 1 25.111233 3.059998 19.852905
66 0 1 25.550930 2.359940 19.341293
67 0 1 24.899033 2.563920 18.684692
68 0 1 24.055233 2.952637 18.542908
69 0 1 24.035931 2.874398 19.527802
70 0 1 23.455334 3.635079 19.474701
71 0 1 22.998135 4.227440 20.088104
72 0 1 23.155331 4.949868 20.755997
73 0 1 22.680134 4.496201 21.444595
74 0 1 21.915733 4.017540 21.736404
75 0 1 21.872932 3.222588 22.299805
76 0 1 21.032433 2.818100 22.625305
77 0 1 20.106632 2.310879 22.700989
78 0 1 19.252834 2.150231 22.150803
79 0 1 19.554531 2.908650 21.587204
80 0 1 18.671833 3.304410 21.751205
81 0 1 18.579830 4.288369 21.813904
82 0 1 18.837334 3.927220 22.645813
83 0 1 17.933231 4.116250 22.899597
84 0 1 17.459831 3.349961 23.293884
85 0 1 16.820633 3.641648 23.931396
86 0 1 17.274632 4.480740 23.855194
87 0 1 16.447853 4.711659 23.494995
88 0 1 15.669305 5.209351 23.124084
89 0 1 15.640973 4.606537 22.425293
90 0 1 15.658544 3.970948 23.157196
91 0 1 15.097981 4.583729 23.721802
92 0 1 14.296704 4.934800 24.197601
93 0 1 13.975125 4.469159 23.447998
94 0 1 13.476895 4.262509 24.354492
95 0 1 13.173223 3.917241 25.195984
96 0 1 12.320214 3.409989 25.109802
97 0 1 12.510304 2.638920 24.509186
98 0 1 12.282823 1.684628 24.268402
99 0 1 11.448552 1.196747 24.473816
100 0 1 11.112733 1.109749 25.374084
101 0 1 10.313954 0.842370 25.896698
102 0 1 10.678632 1.130898 26.718597
103 0 1 10.556542 1.940961 27.275787
104 0 1 10.016202 1.207791 27.663910
105 0 1 9.401155 0.544499 27.841003
106 0 1 10.132642 0.341008 28.533203
107 0 1 11.107472 0.273190 28.515594
108 0 1 11.154523 -0.349601 29.217285
109 0 1 11.910283 -0.726001 28.788086
110 0 1 12.442895 -0.475349 28.051086
111 0 1 11.735013 -0.727821 27.441895
112 0 1 12.247914 -0.138751 26.804688
113 0 1 11.502282 -0.522972 26.367889
114 0 1 10.599984 -0.311942 26.595886
115 0 1 9.772672 -0.648391 26.931793
116 0 1 9.040925 -0.855510 27.505798
117 0 1 8.495713 -0.785171 26.691711
118 0 1 7.895654 -0.135909 27.029114
119 0 1 7.332259 -0.287910 26.273895
120 0 1 6.847068 0.176110 25.581909
121 0 1 6.004254 -0.149322 25.360107
122 0 1 5.384183 0.182068 26.003113
123 0 1 5.149783 0.848691 26.618896
124 0 1 5.403974 -0.080589 27.040009
125 0 1 4.724433 0.239178 27.592194
126 0 1 4.820113 -0.420970 28.331787
127 0 1 4.163224 0.008748 28.921814
128 0 1 3.448544 0.728169 29.141296
129 0 1 3.938523 1.000081 29.886993
130 0 1 4.759614 0.673909 30.242004
131 0 1 4.776433 0.857270 31.156891
132 0 1 5.470443 0.590378 31.757385
133 0 1 5.813241 0.815800 30.937805
134 0 1 6.481759 0.396508 30.324188
135 0 1 7.234843 0.924161 30.367401
136 0 1 7.466308 -0.063011 30.387299
137 0 1 7.715575 -0.954841 30.632904
138 0 1 8.295403 -1.632676 30.974213
139 0 1 7.379592 -1.830724 31.194214
140 0 1 6.995151 -2.176900 30.400787
141 0 1 6.204667 -1.845664 30.744293
142 0 1 5.999366 -1.033700 31.281189
143 0 1 6.448869 -1.373531 32.122711
144 0 1 5.629853 -1.007001 32.441284
145 0 1 6.351371 -0.365379 32.279785
146 0 1 5.687364 0.179398 32.671692
147 0 1 5.702033 -0.124420 33.589691
148 0 1 5.660274 -0.565441 34.432312
149 0 1 5.206574 -1.226491 33.918488
150 0 1 4.510444 -1.373611 34.477783
151 0 1 4.571624 -2.154510 33.940887
152 0 1 4.070323 -2.171077 33.142303
153 0 1 4.213693 -2.497936 32.205688
154 0 1 3.481993 -3.123016 32.008301
155 0 1 3.354373 -3.250995 32.969788
156 0 1 2.464062 -2.970739 32.804199
157 0 1 1.567183 -2.742967 32.441498
158 0 1 1.162913 -3.629800 32.583099
159 0 1 1.703463 -4.425500 32.404114
160 0 1 1.761384 -5.111492 31.700897
161 0 1 0.969163 -4.630201 31.430786
162 0 1 0.323113 -4.208641 30.852112
163 0 1 0.454303 -4.832330 30.169586
164 0 1 0.291104 -5.686201 30.487701
165 0 1 1.252694 -5.983451 30.471588
166 0 1 1.576173 -6.782360 29.892700
167 0 1 2.222243 -7.371881 29.478210
168 0 1 1.966454 -8.258140 29.638916
169 0 1 2.165803 -8.526071 28.725006
170 0 1 1.508994 -9.240430 28.659607
171 0 1 0.602023 -8.933890 28.855499
172 0 1 0.182553 -9.468160 29.569611
173 0 1 1.055203 -9.688741 30.057190
174 0 1 0.929614 -8.763461 29.929108
175 0 1 0.939664 -8.025149 30.566010
176 0 1 0.283303 -7.512661 31.016602
177 0 1 -0.462886 -7.781251 30.614502
178 0 1 -0.273967 -8.526061 31.178009
179 0 1 -1.179486 -8.276521 31.353394
180 0 1 -1.048297 -7.578720 31.995605
181 0 1 -0.705007 -7.720571 32.910889
182 0 1 -1.562627 -8.163720 33.123291
183 0 1 -1.503547 -9.012130 33.601898
184 0 1 -0.895656 -9.764491 33.546814
185 0 1 -0.454326 -10.623591 33.627106
186 0 1 -1.013396 -10.665030 32.875610
187 0 1 -1.737937 -10.067901 32.548492
188 0 1 -2.517957 -9.508950 32.684692
189 0 1 -3.148246 -8.704770 32.627899
190 0 1 -3.494067 -8.207831 31.849396
191 0 1 -3.215366 -7.346931 31.755310
192 0 1 -2.925527 -7.415250 32.640289
193 0 1 -2.601537 -6.859861 33.370697
194 0 1 -3.178777 -6.167202 33.016113
195 0 1 -3.631168 -5.345401 33.125183
196 0 1 -2.839507 -4.887601 33.352997
197 0 1 -2.630357 -5.215181 32.552399
198 0 1 -2.047286 -5.904691 33.051788
199 0 1 -1.288636 -5.650741 33.504089
200 0 1 -0.431966 -5.360841 33.976685
201 0 1 0.033273 -5.625101 34.752502
202 0 1 0.516953 -5.348300 35.520599
203 0 1 1.001063 -4.700340 36.049194
204 0 1 1.123273 -5.030500 36.947693
205 0 1 1.056783 -5.124351 37.905701
206 0 1 0.389933 -5.705532 37.521790
207 0 1 0.258633 -5.861381 36.517090
208 0 1 0.708512 -6.650272 36.789612
209 0 1 0.811154 -7.537960 36.454498
210 0 1 0.224034 -7.786781 37.138000
211 0 1 -0.178956 -7.831710 38.038086
212 0 1 -0.982396 -8.049941 38.681000
213 0 1 -1.206676 -8.685191 39.336304
214 0 1 -0.917737 -9.590930 39.410492
215 0 1 -0.654866 -10.032691 40.248505
216 0 1 -1.192638 -10.733371 39.861206
217 0 1 -1.915755 -10.187310 40.220306
218 0 1 -2.286708 -10.284289 41.076904
219 0 1 -2.836957 -9.742370 40.457214
220 0 1 -3.121846 -8.957471 40.957092
221 0 1 -4.119666 -9.091990 41.030487
222 0 1 -4.510165 -8.882110 40.208313
223 0 1 -5.373267 -9.139331 39.854309
224 0 1 -5.746566 -9.927531 39.427490
225 0 1 -6.581567 -10.240970 38.954498
226 0 1 -7.378566 -9.948970 38.503296
227 0 1 -8.270766 -9.887080 38.063599
228 0 1 -9.105267 -10.387460 38.099304
229 0 1 -10.084867 -10.305079 38.125183
230 0 1 -10.612367 -9.836581 37.366791
231 0 1 -10.668466 -9.211400 36.597198
232 0 1 -9.806266 -8.819510 36.564606
233 0 1 -10.143867 -8.125150 36.007904
234 0 1 -9.593066 -7.356061 36.133911
235 0 1 -10.420566 -7.168930 35.705017
236 0 1 -10.904366 -6.368791 35.861816
237 0 1 -10.266967 -5.707080 36.280396
238 0 1 -11.135467 -5.276901 36.588989
239 0 1 -11.830266 -4.698150 36.971710
240 0 1 -11.861167 -4.008790 37.668091
241 0 1 -12.371066 -3.199811 37.464508
242 0 1 -12.376666 -2.238527 37.677490
243 0 1 -12.460666 -1.212011 37.632812
244 0 1 -11.510167 -1.416471 37.436890
245 0 1 -10.777267 -0.796390 37.318115
246 0 1 -10.204267 -1.522130 37.513794
247 0 1 -9.559466 -1.727262 38.158600
248 0 1 -10.230767 -1.983693 38.833008
249 0 1 -11.160367 -1.810359 39.087708
250 0 1 -11.135167 -1.539491 40.008087
251 0 1 -11.608867 -2.230934 40.414398
252 0 1 -12.479667 -2.054273 40.793213
253 0 1 -12.216067 -2.981334 40.904785
254 0 1 -12.432567 -3.889942 40.892212
255 0 1 -11.631867 -3.689191 41.379211
256 0 1 -11.737767 -3.512901 42.377502
257 0 1 -11.660466 -4.193780 43.128296
258 0 1 -11.577167 -3.294322 43.481110
259 0 1 -11.402667 -2.892795 44.339813
260 0 1 -11.725167 -2.077760 44.000183
261 0 1 -11.167466 -1.289691 44.152893
262 0 1 -10.599767 -0.435729 44.240692
263 0 1 -10.128766 -0.567691 45.007812
264 0 1 -9.366567 -0.425319 44.494598
265 0 1 -8.879967 0.260701 45.068695
266 0 1 -9.246166 0.691521 45.822296
267 0 1 -8.296567 0.513638 45.868988
268 0 1 -8.593266 1.464871 45.713898
269 0 1 -9.038067 1.980298 46.339905
270 0 1 -9.985766 2.295018 46.333710
271 0 1 -10.805167 2.571229 45.917603
272 0 1 -11.386567 3.322628 45.545105
273 0 1 -10.878566 2.942441 44.819397
274 0 1 -9.951167 3.103920 45.010315
275 0 1 -9.117766 3.372571 45.375305
276 0 1 -9.436667 3.191029 46.251190
277 0 1 -9.011967 4.155861 46.199493
278 0 1 -8.985367 5.103348 46.596100
279 0 1 -8.180667 5.119301 45.958405
280 0 1 -7.764466 5.748780 46.657593
281 0 1 -7.512567 6.098980 47.553711
282 0 1 -6.747867 6.660298 47.307495
283 0 1 -7.279765 7.180409 46.685303
284 0 1 -6.995467 7.822091 46.105499
285 0 1 -6.369166 7.749890 45.402313
286 0 1 -6.574367 8.675591 45.366211
287 0 1 -6.062966 8.666291 44.556305
288 0 1 -6.048366 8.768090 43.572113
289 0 1 -5.283566 9.319390 43.528107
290 0 1 -4.690766 9.812791 42.847992
291 0 1 -5.357867 10.484689 42.681488
292 0 1 -5.537467 11.120889 43.411407
293 0 1 -4.864165 11.173589 44.106903
294 0 1 -4.174466 11.844090 44.018097
295 0 1 -4.107566 12.677091 43.431396
296 0 1 -3.763866 13.469789 43.936584
297 0 1 -3.140586 13.488889 44.649414
298 0 1 -3.166705 12.510491 44.542511
299 0 1 -2.299497 12.109990 44.393890
300 0 1 -1.400457 12.207189 43.952393
301 0 1 -1.026946 11.783490 44.712402
302 0 1 -0.582957 11.140691 44.203094
303 0 1 -0.242597 12.076890 43.922089
304 0 1 0.419654 11.858788 43.269592
305 0 1 0.083503 12.109391 42.396484
306 0 1 0.604173 11.836888 41.661102
307 0 1 -0.011077 12.411290 41.261200
308 0 1 -0.005656 11.968888 40.385193
309 0 1 -0.363517 11.317689 41.091187
310 0 1 0.125283 10.541589 41.342712
311 0 1 0.527123 9.704492 41.442902
312 0 1 -0.445136 9.657388 41.404388
313 0 1 -0.175086 9.635991 40.488403
314 0 1 0.139523 9.623689 39.491791
315 0 1 -0.084968 9.112691 38.649689
316 0 1 -0.855727 9.657388 38.601196
317 0 1 -1.365108 10.435189 38.360107
318 0 1 -2.007457 11.233590 38.301300
319 0 1 -1.231197 11.480290 37.777802
320 0 1 -0.939357 10.943089 37.043701
321 0 1 -1.474437 11.102792 36.268188
322 0 1 -1.988366 10.621789 35.619385
323 0 1 -2.589816 10.573091 34.862396
324 0 1 -2.093957 11.164990 34.332397
325 0 1 -1.845718 12.072789 34.663910
326 0 1 -1.413226 12.470490 35.434113
327 0 1 -1.118266 13.412591 35.639404
328 0 1 -0.637336 13.977387 35.025208
329 0 1 -1.097396 14.718888 34.571716
330 0 1 -1.961578 15.249490 34.626495
331 0 1 -2.062257 14.404191 35.043396
332 0 1 -1.885326 14.249688 35.966400
333 0 1 -1.655776 14.854390 36.656097
334 0 1 -0.722907 14.711091 36.623199
335 0 1 0.196954 14.984292 36.679596
336 0 1 -0.113557 15.669290 36.078888
337 0 1 -0.500857 16.024086 35.268616
338 0 1 -1.421327 16.336189 35.125916
339 0 1 -1.029266 17.082191 35.610596
340 0 1 -1.328536 17.751190 36.323914
341 0 1 -0.884236 18.174488 37.037506
342 0 1 -0.336867 18.122089 37.767883
343 0 1 -0.942166 17.767387 38.412506
344 0 1 -1.810466 17.647087 38.792511
345 0 1 -2.238628 18.442291 39.023010
346 0 1 -3.137937 18.794689 39.057800
347 0 1 -3.229278 18.790489 38.150513
348 0 1 -3.844667 19.340187 38.616089
349 0 1 -3.406966 20.055389 38.111603
350 0 1 -2.564946 19.694687 38.337799
351 0 1 -2.134177 20.481289 38.126709
352 0 1 -1.476565 20.697189 37.524689
353 0 1 -0.833446 20.456589 36.828094
354 0 1 -0.431127 20.601990 35.980194
355 0 1 0.507323 20.755089 35.803101
356 0 1 1.193684 20.304089 35.317505
357 0 1 1.360663 21.252090 35.224915
358 0 1 0.969073 21.306686 34.310699
359 0 1 0.020793 21.341389 34.571594
360 0 1 -0.315606 21.987587 35.143799
361 0 1 -0.135686 22.610687 34.468994
362 0 1 0.184073 23.450489 34.149506
363 0 1 -0.833837 23.419788 34.183594
364 0 1 -1.565578 23.571091 34.851196
365 0 1 -2.331496 22.952789 34.863403
366 0 1 -1.949657 23.108688 33.978516
367 0 1 -1.554046 22.238991 33.788910
368 0 1 -2.308427 22.147289 34.276398
369 0 1 -3.219947 22.499489 34.104309
370 0 1 -3.919368 22.070290 33.729095
371 0 1 -4.669566 21.866692 33.028687
372 0 1 -5.389867 22.398289 32.692810
373 0 1 -6.228168 22.799488 32.791504
374 0 1 -6.522967 21.943489 32.587189
375 0 1 -5.869468 21.275990 32.488586
376 0 1 -5.272765 21.160286 33.244598
377 0 1 -5.420167 21.395988 34.167114
378 0 1 -5.507968 20.493889 34.289612
379 0 1 -5.508265 20.459686 35.234497
380 0 1 -5.841468 20.048988 36.118103
381 0 1 -5.357966 20.076691 36.985596
382 0 1 -5.409467 19.680088 37.883301
383 0 1 -6.034167 20.163887 38.510803
384 0 1 -5.661567 19.542889 39.101501
385 0 1 -5.895066 19.016190 39.879791
386 0 1 -6.159366 18.907387 40.786011
387 0 1 -6.415967 17.998390 40.372101
388 0 1 -6.612967 17.107491 39.983307
389 0 1 -6.613767 17.291389 39.014893
390 0 1 -7.372767 17.685490 38.665588
391 0 1 -6.817166 18.427689 38.304504
392 0 1 -6.170167 18.571091 37.686584
393 0 1 -5.402267 18.012390 37.466888
394 0 1 -5.797168 17.544388 36.771698
395 0 1 -6.640567 17.224487 37.249207
396 0 1 -6.969268 16.361488 36.960205
397 0 1 -7.523166 15.661187 37.299011
398 0 1 -8.189466 15.061090 36.908691
399 0 1 -7.757466 15.174691 36.024994
400 0 1 -7.963166 14.278291 35.769806
401 0 1 -7.095668 14.085488 35.327393
402 0 1 -7.725966 14.649190 34.876190
403 0 1 -7.575767 15.554589 34.860291
404 0 1 -7.296268 15.295991 33.891510
405 0 1 -7.965466 15.084191 33.256897
406 0 1 -7.165866 15.378289 32.791016
407 0 1 -6.316266 15.873887 32.877899
408 0 1 -5.585366 16.380386 32.351990
409 0 1 -5.418967 16.497189 33.266205
410 0 1 -4.852668 17.046288 32.720215
411 0 1 -3.889667 17.083889 32.717499
412 0 1 -3.958667 16.322990 32.053802
413 0 1 -3.804866 15.756391 31.261597
414 0 1 -3.931167 15.401292 30.326294
415 0 1 -4.109965 14.961289 29.469208
416 0 1 -3.683368 14.349790 28.831299
417 0 1 -3.450567 14.995389 28.075592
418 0 1 -2.562358 15.085790 28.570190
419 0 1 -2.173017 14.368287 29.173584
420 0 1 -2.203397 13.516892 28.780609
421 0 1 -1.877948 13.630792 27.945709
422 0 1 -1.878417 13.129991 27.095703
423 0 1 -1.484317 13.946191 26.739685
424 0 1 -1.127746 14.571389 26.195312
425 0 1 -0.899507 15.441289 25.868713
426 0 1 -0.134477 16.015488 25.795502
427 0 1 0.100053 15.198487 25.324799
428 0 1 0.727124 14.650491 25.765198
429 0 1 0.985183 13.742990 25.755890
430 0 1 1.463193 13.443589 25.006195
431 0 1 0.780244 13.924088 24.609985
432 0 1 0.766774 13.404988 23.719788
433 0 1 0.945054 13.595292 22.788788
434 0 1 0.982444 12.905591 22.179504
435 0 1 1.522984 12.974191 21.390900
436 0 1 1.944774 13.586789 20.679001
437 0 1 1.982304 12.857190 20.100708
438 0 1 2.860793 12.469392 20.435608
439 0 1 2.797864 11.750192 19.796295
440 0 1 3.532483 11.449189 20.290604
441 0 1 3.673493 10.579389 20.540604
442 0 1 3.863784 10.431191 19.612198
443 0 1 4.737903 10.774590 19.606598
444 0 1 5.485414 11.274091 19.407196
445 0 1 5.206233 11.661691 18.596207
446 0 1 4.225713 11.618089 18.420700
447 0 1 4.105363 10.763791 18.082001
448 0 1 4.195514 11.225789 17.238708
449 0 1 4.091084 10.401189 16.636002
450 0 1 4.686404 11.102792 16.176804
451 0 1 4.758264 10.880891 15.240494
452 0 1 5.557153 11.001988 14.617004
453 0 1 6.377931 11.240689 15.129593
454 0 1 6.755643 11.826188 14.505005
455 0 1 5.976275 12.399690 14.770508
456 0 1 5.653773 13.255288 14.423096
457 0 1 6.502919 13.517690 14.047104
458 0 1 6.588021 13.887689 14.934204
459 0 1 5.948920 14.676690 15.128494
460 0 1 5.840781 15.457990 14.652496
461 0 1 4.933873 15.809991 14.590897
462 0 1 4.755433 16.683586 14.900406
463 0 1 4.306933 16.589489 14.045303
464 0 1 4.169553 17.367889 13.527802
465 0 1 3.371623 17.229691 12.938400
466 0 1 3.119344 18.133789 12.671402
467 0 1 2.969674 18.018589 13.668198
468 0 1 1.991454 18.044788 13.798492
469 0 1 2.421254 17.167389 13.817795
470 0 1 2.122533 16.240486 13.775497
471 0 1 1.159613 15.942090 13.700806
472 0 1 0.804044 16.782589 14.101807
473 0 1 0.447583 17.110489 13.229599
474 0 1 0.254662 17.125889 12.284103
475 0 1 -0.120547 16.323387 12.566696
476 0 1 -0.836486 16.824890 13.039307
477 0 1 -1.381347 16.038986 13.299301
478 0 1 -2.082267 16.596989 13.532700
479 0 1 -1.767047 17.467987 13.882599
480 0 1 -1.844527 18.165787 13.188400
481 0 1 -1.919557 17.251190 12.750305
482 0 1 -2.523006 16.718987 12.231903
483 0 1 -2.338746 15.980187 11.606796
484 0 1 -2.228618 15.292890 10.863495
485 0 1 -2.909896 14.665589 10.712494
486 0 1 -2.945737 15.098889 9.828583
487 0 1 -2.204326 15.275990 9.244247
488 0 1 -1.806377 14.346490 9.225403
489 0 1 -1.805556 13.551591 8.666412
490 0 1 -2.448177 13.972589 8.098373
491 0 1 -3.031007 13.583291 7.385665
492 0 1 -3.927167 13.145288 7.657257
493 0 1 -4.810767 13.056890 8.048615
494 0 1 -5.598166 12.457089 8.234802
495 0 1 -5.010367 12.470788 8.995148
496 0 1 -5.183766 11.593190 8.625183
497 0 1 -4.580268 11.863790 7.929214
498 0 1 -3.783965 11.704492 8.319809
499 0 1 -2.915927 11.419091 7.992599
500 0 1 -2.187366 11.163091 8.627472
501 0 1 -2.195895 11.423287 9.544083
502 0 1 -2.797887 11.178689 10.283203
503 0 1 -3.661968 11.486291 10.119003
504 0 1 -4.033267 10.845689 10.681396
505 0 1 -4.541266 10.892991 9.895996
506 0 1 -4.977668 11.448491 10.509201
507 0 1 -4.992967 10.659287 11.062607
508 0 1 -5.067267 11.369088 11.713501
509 0 1 -5.383765 10.958890 12.570694
510 0 1 -5.736068 10.117188 12.753296
511 0 1 -6.531466 9.594090 12.457199
512 0 1 -7.380366 9.656487 12.052200
513 0 1 -7.989766 9.757188 11.234695
514 0 1 -8.510467 9.018090 10.877502
515 0 1 -8.844566 8.062589 11.014496
516 0 1 -9.467866 7.451588 10.525696
517 0 1 -9.161166 6.532589 10.358704
518 0 1 -8.839967 6.316868 9.516815
519 0 1 -8.295867 6.217061 8.793976
520 0 1 -8.909567 5.975579 8.107391
521 0 1 -9.302966 5.338738 7.542343
522 0 1 -8.773067 4.561150 7.496734
523 0 1 -8.462366 4.487179 8.397034
524 0 1 -7.778167 3.785000 8.420654
525 0 1 -7.995366 3.693139 9.418732
526 0 1 -7.886967 4.608788 9.653778
527 0 1 -7.033965 4.870430 10.009308
528 0 1 -7.445468 4.808320 10.930099
529 0 1 -8.037267 5.398079 11.424103
530 0 1 -8.686566 4.661019 11.095795
531 0 1 -9.226867 3.937039 10.827499
532 0 1 -8.693666 3.137490 10.845993
533 0 1 -8.767966 2.226140 10.379700
534 0 1 -8.468966 2.426407 9.533310
535 0 1 -8.917267 2.931660 8.814667
536 0 1 -9.076866 2.455559 7.946075
537 0 1 -9.935067 2.277218 7.561004
538 0 1 -9.884467 2.712578 6.682785
539 0 1 -9.619466 1.961899 6.145996
540 0 1 -9.746867 2.374199 5.268493
541 0 1 -8.965466 1.970521 4.801956
542 0 1 -9.414166 1.108140 4.973236
543 0 1 -8.968266 1.122658 4.157302
544 0 1 -8.848166 0.695279 3.281906
545 0 1 -9.743667 1.072888 3.299957
546 0 1 -9.060567 1.726189 3.194687
547 0 1 -9.167867 2.348698 2.478454
548 0 1 -8.224067 2.469361 2.260986
549 0 1 -8.203266 1.602299 2.622986
550 0 1 -7.982266 1.451150 3.536407
551 0 1 -7.934966 1.767499 4.429367
552 0 1 -7.240767 1.252499 4.796402
553 0 1 -7.040465 0.753628 5.635726
554 0 1 -6.360467 0.124539 5.569366
555 0 1 -5.467467 0.339448 5.736755
556 0 1 -5.139266 -0.367282 6.238098
557 0 1 -5.926766 -0.897010 6.405029
558 0 1 -5.828767 -1.839794 6.280654
559 0 1 -5.336467 -2.017700 7.042404
560 0 1 -5.396466 -1.809188 7.968261
561 0 1 -4.939166 -1.016342 8.407593
562 0 1 -4.625667 -1.622962 9.092621
563 0 1 -4.075566 -1.140800 9.673325
564 0 1 -3.724067 -1.644222 10.323700
565 0 1 -3.524566 -2.084043 9.519653
566 0 1 -2.973537 -2.769884 9.695053
567 0 1 -3.103908 -3.686111 9.964035
568 0 1 -3.927867 -4.040111 10.424408
569 0 1 -3.515067 -4.766870 10.906906
570 0 1 -2.540916 -4.721672 11.062805
571 0 1 -1.914645 -5.545930 11.148499
572 0 1 -1.222568 -5.816690 11.751297
573 0 1 -2.042617 -5.459152 12.212097
574 0 1 -2.012637 -5.054050 13.078598
575 0 1 -2.980336 -4.957981 13.083298
576 0 1 -3.266927 -5.920991 13.106506
577 0 1 -3.633567 -5.722042 13.977097
578 0 1 -4.295566 -5.303161 13.460999
579 0 1 -4.126866 -4.345602 13.480103
580 0 1 -4.205867 -3.648870 14.085693
581 0 1 -4.861466 -3.604890 14.758499
582 0 1 -4.742566 -3.817281 15.731506
583 0 1 -4.330768 -4.606561 16.119507
584 0 1 -4.464566 -4.630432 17.131805
585 0 1 -4.771167 -4.935050 18.036301
586 0 1 -4.714168 -5.341110 18.892700
587 0 1 -3.887965 -5.802742 18.859695
588 0 1 -3.480666 -5.037241 18.475006
589 0 1 -3.100837 -4.566591 17.757401
590 0 1 -3.006057 -4.307950 16.867096
591 0 1 -2.523116 -4.843400 16.306198
592 0 1 -2.689498 -5.227521 15.393997
593 0 1 -3.370067 -4.634771 15.704803
594 0 1 -3.017007 -3.829181 15.189697
595 0 1 -2.519887 -3.246252 14.700195
596 0 1 -2.289558 -2.292661 14.691406
597 0 1 -2.785297 -2.462932 13.822205
598 0 1 -2.919717 -1.465001 13.804108
599 0 1 -3.704166 -1.554628 14.414795
600 0 1 -3.931167 -1.198242 15.317398
601 0 1 -4.881467 -1.416992 15.254898
602 0 1 -4.468867 -2.201608 14.851593
603 0 1 -4.043866 -2.840345 15.440796
604 0 1 -4.022367 -3.327146 16.285995
605 0 1 -3.514568 -3.452774 17.030396
606 0 1 -3.698966 -2.644176 17.539703
607 0 1 -2.717166 -2.509695 17.604401
608 0 1 -2.246127 -2.337408 16.831497
609 0 1 -1.455577 -1.866168 16.872406
610 0 1 -1.263387 -1.433580 17.731094
611 0 1 -0.913417 -2.083805 18.307602
612 0 1 -0.452867 -2.932342 18.403397
613 0 1 -0.339757 -3.902000 18.467896
614 0 1 -0.065787 -4.773540 18.850403
615 0 1 0.458222 -5.063400 19.676804
616 0 1 0.619384 -4.070091 19.544006
617 0 1 -0.370196 -3.980571 19.497498
618 0 1 -0.425246 -3.046068 19.815399
619 0 1 0.331443 -2.650194 20.421295
620 0 1 1.090953 -2.221427 20.082306
621 0 1 2.028554 -2.026199 20.086304
622 0 1 2.248374 -2.631839 19.388000
623 0 1 1.877732 -3.462299 19.607498
624 0 1 2.479684 -3.843591 18.989395
625 0 1 2.479684 -4.518020 18.308807
626 0 1 1.892934 -4.416381 17.586502
627 0 1 2.571152 -3.802431 17.224396
628 0 1 3.454314 -3.328292 17.296600
629 0 1 3.103463 -2.580579 16.911606
630 0 1 3.843524 -2.302246 17.544998
631 0 1 4.572034 -1.771097 18.025497
632 0 1 4.221314 -2.293148 18.738297
633 0 1 4.966033 -2.897314 18.943298
634 0 1 5.817218 -2.435201 18.835403
635 0 1 6.563621 -2.878070 18.378098
636 0 1 6.292417 -3.764890 18.608307
637 0 1 6.611548 -4.681270 18.585403
638 0 1 7.484448 -4.308700 18.465500
639 0 1 7.525516 -3.505561 17.723297
640 0 1 7.462428 -4.150491 17.028992
641 0 1 8.334954 -4.510030 17.347305
642 0 1 8.386434 -5.377351 17.019501
643 0 1 8.179004 -6.325630 16.770706
644 0 1 7.940873 -6.283601 17.737793
645 0 1 7.159270 -5.998682 18.280701
646 0 1 6.679523 -6.608730 18.815994
647 0 1 7.328826 -6.759031 19.452393
648 0 1 8.222154 -7.074750 19.544495
649 0 1 8.709962 -6.853752 20.390305
650 0 1 8.680715 -6.458751 21.266602
651 0 1 9.155705 -6.666500 22.128204
652 0 1 9.990132 -7.152130 22.266098
653 0 1 10.590585 -6.587070 21.736496
654 0 1 10.059533 -5.829631 21.371902
655 0 1 10.261422 -5.660202 22.306396
656 0 1 9.842404 -4.934200 22.755188
657 0 1 9.249803 -4.718650 21.983994
658 0 1 8.964482 -3.750961 21.778107
659 0 1 9.076962 -3.426145 20.832504
660 0 1 9.514504 -3.471056 20.056503
661 0 1 9.055573 -4.269331 20.334198
662 0 1 9.206223 -5.053281 19.935898
663 0 1 10.035512 -4.798690 19.555801
664 0 1 9.674115 -4.068500 19.060394
665 0 1 9.247533 -4.916511 18.857605
666 0 1 9.147054 -5.078781 17.922195
667 0 1 10.041265 -5.277950 17.557892
668 0 1 9.953164 -4.302280 17.572693
669 0 1 10.826222 -4.644531 17.235306
670 0 1 11.299802 -5.504341 17.007996
671 0 1 12.037263 -5.062091 17.379898
672 0 1 12.969712 -5.008201 17.136002
673 0 1 13.711194 -5.535871 16.926895
674 0 1 13.641534 -4.965662 16.154999
675 0 1 14.317052 -4.300521 16.099106
676 0 1 14.441213 -4.195390 15.193695
677 0 1 13.725953 -4.575181 14.578995
678 0 1 12.842542 -4.480581 14.345001
679 0 1 12.223023 -4.319181 13.585205
680 0 1 12.492803 -4.968111 12.911896
681 0 1 12.266633 -5.710371 12.274597
682 0 1 11.406915 -5.447271 11.781097
683 0 1 11.961385 -5.904531 11.186005
684 0 1 12.866414 -6.216671 11.425400
685 0 1 13.541203 -6.601991 10.863297
686 0 1 13.529344 -7.458511 10.434799
687 0 1 12.795415 -7.460290 9.719604
688 0 1 12.155984 -7.792970 10.329407
689 0 1 11.442922 -8.403491 10.015701
690 0 1 11.356713 -7.817651 9.157990
691 0 1 11.953092 -8.271861 8.513641
692 0 1 12.221902 -7.401361 8.228210
693 0 1 12.965753 -7.278600 7.583404
694 0 1 13.548684 -7.995811 7.806732
695 0 1 13.936543 -8.055390 6.996063
696 0 1 13.741014 -8.853450 6.539306
697 0 1 14.295213 -9.225600 5.832397
698 0 1 15.204305 -9.038020 5.674484
699 0 1 15.920243 -9.642360 5.497283
700 0 1 15.043073 -10.020600 5.357177
701 0 1 14.160535 -10.292180 5.749618
702 0 1 13.525712 -10.939281 5.419403
703 0 1 13.253652 -10.670611 4.547454
704 0 1 12.258603 -10.362231 4.253753
705 0 1 12.310452 -11.138961 3.702194
706 0 1 11.564404 -11.521281 3.234543
707 0 1 10.721982 -11.933150 3.213714
708 0 1 10.508325 -11.648700 4.137069
709 0 1 10.605832 -12.486110 4.642852
710 0 1 11.270383 -11.812171 4.885482
711 0 1 12.179543 -11.761840 4.666793
712 0 1 11.961694 -12.505710 5.308044
713 0 1 12.271203 -11.858670 5.944717
714 0 1 11.643231 -11.241302 6.252914
715 0 1 10.970674 -11.784862 6.712768
716 0 1 10.577683 -12.225400 7.494598
717 0 1 10.877732 -13.005910 7.959976
718 0 1 10.840543 -12.923810 8.953903
719 0 1 11.363153 -13.331410 9.670578
720 0 1 12.302773 -13.224212 9.846375
721 0 1 13.136655 -13.224410 9.365234
722 0 1 13.110425 -12.331460 9.887283
723 0 1 13.578084 -11.604880 9.585175
724 0 1 14.495275 -11.280400 9.658875
725 0 1 15.264203 -11.269801 8.993744
726 0 1 15.920094 -11.164220 9.669952
727 0 1 16.001713 -11.625010 10.583694
728 0 1 16.488232 -12.386149 10.879501
729 0 1 15.764882 -12.629510 10.301193
730 0 1 14.916722 -12.508109 10.799301
731 0 1 15.300492 -13.094710 11.610001
732 0 1 14.371503 -13.210410 11.571594
733 0 1 13.754842 -13.803611 10.944397
734 0 1 13.453683 -14.594611 10.479004
735 0 1 12.962613 -14.780711 9.716034
736 0 1 13.643723 -15.486812 9.833176
737 0 1 12.712514 -15.630410 10.232193
738 0 1 12.101285 -15.025411 10.695694
739 0 1 11.686864 -15.820010 10.988098
740 0 1 11.279893 -15.689311 11.812698
741 0 1 11.906133 -15.256110 12.381699
742 0 1 11.383462 -14.738610 13.033096
743 0 1 11.403962 -15.474010 13.611298
744 0 1 10.417375 -15.477410 13.617096
745 0 1 9.668965 -14.876210 13.545593
746 0 1 9.208203 -14.996511 12.753296
747 0 1 8.731542 -15.842711 12.825302
748 0 1 9.163472 -16.710611 12.716507
749 0 1 8.870412 -17.196911 13.447205
750 0 1 8.747285 -16.373411 13.897095
751 0 1 7.950513 -16.150311 14.486908
752 0 1 8.420575 -16.486511 15.248398
753 0 1 7.906354 -17.270611 15.684494
754 0 1 7.800403 -18.213310 15.907104
755 0 1 7.469785 -18.191311 16.815796
756 0 1 8.007604 -18.290010 17.622101
757 0 1 8.903642 -17.777611 17.756393
758 0 1 9.704972 -17.953011 18.304596
759 0 1 9.200383 -18.776112 18.341202
760 0 1 9.844743 -19.504810 18.356796
761 0 1 10.011353 -19.971811 19.103607
762 0 1 10.679933 -20.671812 19.057297
763 0 1 10.927793 -19.875111 18.508698
764 0 1 11.173135 -20.255411 17.621002
765 0 1 12.126493 -20.259010 17.645905
766 0 1 12.414113 -19.695011 16.939896
767 0 1 12.951123 -19.291512 16.258499
768 0 1 13.836343 -19.038311 15.905106
769 0 1 14.061723 -18.117411 16.117096
770 0 1 13.641065 -18.486111 16.901398
771 0 1 13.910264 -18.670811 17.792999
772 0 1 13.631413 -19.589211 17.592606
773 0 1 14.496423 -19.579212 17.128494
774 0 1 14.683732 -20.107012 17.889694
775 0 1 14.188062 -20.507912 18.631104
776 0 1 14.506894 -20.521111 19.469696
777 0 1 14.833184 -20.339611 20.331299
778 0 1 15.546014 -19.790611 20.712296
779 0 1 15.120023 -19.825111 21.529800
780 0 1 15.269273 -18.857811 21.447495
781 0 1 14.352323 -18.475910 21.592194
782 0 1 14.479955 -17.496811 21.534805
783 0 1 15.009992 -16.953611 20.923599
784 0 1 15.128724 -15.878810 20.948502
785 0 1 14.368192 -15.313710 20.977509
786 0 1 14.558434 -14.781810 21.866898
787 0 1 14.950692 -13.942710 22.256393
788 0 1 15.260262 -14.768411 22.627991
789 0 1 16.105392 -14.379910 22.258102
790 0 1 16.309132 -13.505710 22.563599