LAMMPS data file via MDAnalysis

        2000  atoms
        1999  bonds
           0  angles
           0  dihedrals
           0  impropers

           1  atom types
           1  bond types
           0  angle types
           0  dihedral types
           0  improper types

-30.5 30.5 xlo xhi
-30.5 30.5 ylo yhi
-233.5 233.5 zlo zhi


Masses

1 1.000000

Atoms

1 0 1 -11.452593 7.024295 73.421387
2 0 1 -11.869965 6.157005 73.408813
3 0 1 -11.938663 5.649536 74.234802
4 0 1 -12.271664 6.422836 74.721313
5 0 1 -11.931362 7.325096 74.928009
6 0 1 -11.060913 7.698196 75.019989
7 0 1 -11.148144 8.639995 74.852295
8 0 1 -11.298183 9.352695 74.215698
9 0 1 -11.678864 9.425994 73.300507
10 0 1 -12.481363 9.866496 73.689209
11 0 1 -12.489464 10.624297 74.270996
12 0 1 -11.941263 11.361995 74.483215
13 0 1 -12.684364 11.918197 74.859314
14 0 1 -13.117664 11.552997 75.635803
15 0 1 -13.204964 10.877696 76.384399
16 0 1 -13.717663 10.517493 77.140503
17 0 1 -14.658163 10.552096 77.327209
18 0 1 -14.870863 11.352393 77.788910
19 0 1 -14.551363 11.633296 78.645386
20 0 1 -15.417362 12.065894 78.807892
21 0 1 -15.271664 12.351394 79.680298
22 0 1 -14.314964 12.289294 79.488586
23 0 1 -13.851562 12.867194 80.151184
24 0 1 -12.947865 12.673095 80.385315
25 0 1 -13.317163 12.313296 81.211914
26 0 1 -14.211662 12.502395 81.568390
27 0 1 -13.767162 11.980395 82.310608
28 0 1 -14.035164 11.292396 82.916992
29 0 1 -13.551262 10.664496 82.266693
30 0 1 -12.886063 11.090796 81.671692
31 0 1 -11.911964 10.902194 81.533386
32 0 1 -11.395794 10.584197 82.263092
33 0 1 -10.871693 10.120795 82.967285
34 0 1 -10.121323 10.533095 82.507996
35 0 1 -9.594975 11.070796 81.917297
36 0 1 -9.410164 10.168197 81.728882
37 0 1 -8.782803 10.276496 80.998505
38 0 1 -7.865482 10.107097 80.626404
39 0 1 -7.536503 10.587996 79.922607
40 0 1 -7.066593 10.802695 79.180786
41 0 1 -6.379494 11.498195 79.369904
42 0 1 -6.182493 12.170493 78.610199
43 0 1 -5.574593 12.576194 79.135590
44 0 1 -5.856213 13.468093 79.084412
45 0 1 -5.774334 14.232696 78.442810
46 0 1 -5.167484 14.961593 78.611511
47 0 1 -4.191504 14.944198 78.404694
48 0 1 -3.357983 14.611396 78.127808
49 0 1 -3.000633 15.052497 77.350708
50 0 1 -2.947433 15.071296 76.317688
51 0 1 -2.599394 15.951495 76.589294
52 0 1 -2.364410 16.957497 76.655792
53 0 1 -2.180172 17.920998 76.923004
54 0 1 -1.206989 18.038597 76.790405
55 0 1 -0.394403 18.045097 77.299896
56 0 1 0.369007 18.569397 77.530304
57 0 1 1.055046 19.120499 77.200012
58 0 1 1.717918 19.444794 76.625793
59 0 1 2.539066 19.854397 76.933990
60 0 1 2.771236 20.205296 77.789185
61 0 1 3.554695 19.679298 77.590607
62 0 1 3.954628 20.072796 78.344299
63 0 1 4.362846 20.056595 79.157288
64 0 1 3.596619 19.427994 79.210693
65 0 1 3.874496 18.872997 79.985504
66 0 1 3.893337 17.918797 79.797394
67 0 1 4.390068 17.104996 79.857300
68 0 1 4.232258 16.354195 80.453705
69 0 1 3.798847 16.241997 79.545593
70 0 1 3.225586 15.638995 80.063110
71 0 1 2.828548 15.556296 79.216614
72 0 1 3.471169 14.772094 79.173218
73 0 1 2.744957 14.219295 79.429291
74 0 1 1.926136 13.889098 79.810486
75 0 1 1.168736 13.339698 80.171204
76 0 1 0.707478 12.681098 80.682190
77 0 1 1.148098 11.865394 80.754883
78 0 1 0.757236 11.159995 80.266998
79 0 1 0.116928 10.693694 79.723907
80 0 1 -0.512705 10.189795 80.283691
81 0 1 -1.409952 10.201896 80.742401
82 0 1 -1.302504 9.489097 81.369598
83 0 1 -1.603447 9.038295 80.604492
84 0 1 -2.407206 9.365497 80.114899
85 0 1 -2.829523 10.038196 79.486603
86 0 1 -2.472946 10.932796 79.701202
87 0 1 -2.789124 10.834197 80.641693
88 0 1 -3.351143 10.694297 81.446503
89 0 1 -4.168514 10.516196 81.042114
90 0 1 -5.130974 10.353396 80.859894
91 0 1 -5.687263 10.345496 81.658203
92 0 1 -5.078943 10.100894 82.443787
93 0 1 -4.798594 9.228496 82.820892
94 0 1 -4.870064 8.523295 83.462311
95 0 1 -5.754074 8.224296 83.637909
96 0 1 -5.537933 7.515895 83.035217
97 0 1 -5.899914 7.278594 83.893402
98 0 1 -6.775734 7.639694 83.874908
99 0 1 -7.716022 7.613494 83.651398
100 0 1 -7.789764 7.706195 84.587891
101 0 1 -8.027054 6.724998 84.472992
102 0 1 -7.445383 6.503494 83.713593
103 0 1 -6.923193 6.419307 84.521118
104 0 1 -6.895323 5.880256 85.298401
105 0 1 -7.462183 5.235504 84.863586
106 0 1 -8.202763 4.775325 85.203705
107 0 1 -8.660194 3.865997 85.402008
108 0 1 -8.031994 3.476997 84.775391
109 0 1 -7.088083 3.348865 84.997986
110 0 1 -6.556744 3.830757 84.348907
111 0 1 -6.059364 3.056865 84.629089
112 0 1 -5.425163 2.290588 84.585083
113 0 1 -6.266434 2.139637 84.143188
114 0 1 -6.405104 2.187545 83.166504
115 0 1 -5.835543 1.455657 83.488586
116 0 1 -5.951683 0.609806 83.040497
117 0 1 -6.365763 0.606994 82.168304
118 0 1 -5.961073 -0.218945 81.692505
119 0 1 -5.820143 -0.786923 80.880493
120 0 1 -5.750423 -1.325223 80.105896
121 0 1 -5.163313 -2.083224 79.715607
122 0 1 -4.885334 -1.192612 79.429810
123 0 1 -4.733843 -0.298615 79.572998
124 0 1 -5.474524 0.301258 79.747314
125 0 1 -5.197002 1.187286 79.893707
126 0 1 -4.722233 1.894245 80.440796
127 0 1 -4.886263 2.858745 80.076294
128 0 1 -4.506603 3.163154 79.258118
129 0 1 -3.653063 3.249866 79.666382
130 0 1 -2.816523 2.974205 79.111603
131 0 1 -2.982254 3.158805 78.215698
132 0 1 -2.755573 2.455596 77.583099
133 0 1 -2.004114 2.390396 76.925415
134 0 1 -2.147854 2.659088 76.023682
135 0 1 -3.109604 2.926284 75.988007
136 0 1 -3.799694 2.565498 75.369598
137 0 1 -4.548874 2.282867 75.854889
138 0 1 -5.082443 2.024326 75.096619
139 0 1 -4.768244 3.008846 74.889099
140 0 1 -4.973333 2.657306 74.062683
141 0 1 -4.422422 1.859825 74.102417
142 0 1 -4.639004 1.770454 73.128204
143 0 1 -4.941963 2.562507 72.684601
144 0 1 -5.528833 2.298217 72.010986
145 0 1 -6.327494 2.604377 71.486389
146 0 1 -5.538982 2.994464 71.044098
147 0 1 -4.784914 2.793846 70.573700
148 0 1 -4.263063 2.083927 71.026611
149 0 1 -4.884964 1.339576 70.993805
150 0 1 -4.143133 0.842235 70.670288
151 0 1 -3.881653 -0.013314 70.499603
152 0 1 -4.220003 -0.905564 70.754517
153 0 1 -4.775763 -1.481614 70.215088
154 0 1 -5.581444 -1.628575 69.665894
155 0 1 -5.999924 -2.552845 69.594788
156 0 1 -5.011204 -2.715699 69.542389
157 0 1 -4.599533 -2.428154 68.735809
158 0 1 -3.931562 -1.927163 68.231110
159 0 1 -3.163094 -2.344605 67.673492
160 0 1 -2.240480 -2.507784 67.434296
161 0 1 -1.748827 -2.206954 66.665009
162 0 1 -1.854509 -1.342175 66.321411
163 0 1 -2.466766 -1.446946 67.062500
164 0 1 -3.478844 -1.346314 67.055298
165 0 1 -3.735874 -0.541005 67.446411
166 0 1 -3.947613 0.002258 66.682190
167 0 1 -3.177773 0.598716 66.514893
168 0 1 -3.508814 1.297058 67.081390
169 0 1 -2.661003 1.549316 67.392517
170 0 1 -2.001366 2.228485 67.418701
171 0 1 -1.762173 3.019706 67.990692
172 0 1 -1.392681 2.757946 68.845581
173 0 1 -0.980499 3.558918 69.229095
174 0 1 -1.250919 4.485836 69.411102
175 0 1 -1.801088 4.570198 70.162506
176 0 1 -2.757944 4.335956 69.886719
177 0 1 -3.303753 3.914196 69.234100
178 0 1 -2.950964 3.791587 68.320190
179 0 1 -3.402674 3.320796 67.608795
180 0 1 -3.407114 2.469566 67.116608
181 0 1 -4.261003 2.589145 67.577209
182 0 1 -4.952534 2.947616 66.997101
183 0 1 -5.041862 3.911705 67.297302
184 0 1 -5.636793 4.393394 67.773407
185 0 1 -5.940453 5.206138 67.453186
186 0 1 -6.550694 4.883026 68.089508
187 0 1 -6.996223 4.265464 68.643799
188 0 1 -7.596184 3.920726 67.996887
189 0 1 -8.386953 4.445648 68.127991
190 0 1 -8.831684 4.125816 67.289917
191 0 1 -9.669193 4.431095 66.887695
192 0 1 -9.076202 4.777824 66.157898
193 0 1 -9.410793 3.944656 65.721191
194 0 1 -9.649393 4.039047 64.812988
195 0 1 -10.292294 3.736217 64.086304
196 0 1 -11.083344 4.276737 64.260803
197 0 1 -11.699963 3.598476 63.958008
198 0 1 -12.358263 3.026077 64.344116
199 0 1 -13.292963 3.084648 64.444092
200 0 1 -13.264362 3.345794 63.541199
201 0 1 -12.749863 3.253234 62.729706
202 0 1 -12.361664 2.521175 62.083405
203 0 1 -12.393864 1.768066 61.452911
204 0 1 -13.011864 1.084205 61.286499
205 0 1 -13.518562 0.642288 60.651917
206 0 1 -13.970163 1.163844 59.898315
207 0 1 -14.401564 1.407417 60.744904
208 0 1 -15.017864 0.928504 60.193604
209 0 1 -15.227062 -0.007123 59.933716
210 0 1 -16.150263 -0.116463 59.640686
211 0 1 -16.266764 0.001567 58.718292
212 0 1 -16.285164 -0.883835 58.366394
213 0 1 -16.421764 -1.626233 57.804901
214 0 1 -16.928164 -1.056805 57.255188
215 0 1 -16.862663 -1.580056 56.447205
216 0 1 -16.992563 -2.289124 55.761810
217 0 1 -16.464363 -2.133463 54.951691
218 0 1 -16.100563 -2.947886 55.236908
219 0 1 -16.123663 -3.440615 56.018494
220 0 1 -16.007565 -4.396847 56.022797
221 0 1 -15.783863 -4.912125 55.278412
222 0 1 -16.231764 -4.605694 54.463898
223 0 1 -16.747963 -4.397145 53.738708
224 0 1 -16.493864 -3.614449 53.308197
225 0 1 -16.278463 -2.712836 53.656616
226 0 1 -15.497562 -3.201474 53.484406
227 0 1 -15.289764 -3.299469 52.507996
228 0 1 -15.069563 -4.120242 52.875916
229 0 1 -14.368862 -4.808024 52.608093
230 0 1 -13.529364 -4.713265 53.090790
231 0 1 -14.034563 -5.475535 53.429810
232 0 1 -13.559063 -5.934754 54.147797
233 0 1 -13.850264 -5.544074 54.908508
234 0 1 -13.897564 -5.169903 55.849609
235 0 1 -13.306362 -5.353524 56.608704
236 0 1 -12.548264 -5.938725 56.470001
237 0 1 -11.688263 -6.192463 56.821411
238 0 1 -10.896442 -5.558264 56.579498
239 0 1 -10.052553 -5.272265 56.244202
240 0 1 -9.589893 -5.293053 55.351807
241 0 1 -9.224644 -5.961655 55.975098
242 0 1 -9.978512 -6.503893 56.176392
243 0 1 -9.551643 -6.633555 57.025208
244 0 1 -8.954634 -6.593705 57.767883
245 0 1 -9.460243 -6.475945 58.585815
246 0 1 -8.767834 -6.379105 59.220886
247 0 1 -8.656544 -7.240263 58.872314
248 0 1 -7.847134 -7.472304 59.480408
249 0 1 -7.564613 -7.184014 58.563995
250 0 1 -7.221462 -7.906735 58.087097
251 0 1 -6.536613 -7.458695 58.548706
252 0 1 -5.819214 -7.367854 59.200897
253 0 1 -4.885593 -7.692715 59.172607
254 0 1 -4.154713 -7.113274 58.757599
255 0 1 -3.427713 -6.567963 58.470795
256 0 1 -3.342514 -6.496365 57.429596
257 0 1 -3.088654 -5.591525 57.281891
258 0 1 -2.977613 -5.229683 58.147308
259 0 1 -2.015499 -5.085515 58.413086
260 0 1 -1.373041 -4.524197 57.913910
261 0 1 -1.384541 -4.117268 57.014313
262 0 1 -0.861610 -3.386897 56.724304
263 0 1 -0.014713 -2.913176 56.305695
264 0 1 -0.301853 -3.513073 55.525696
265 0 1 -0.060623 -4.411225 55.135712
266 0 1 -0.671093 -5.141024 54.976685
267 0 1 -0.199923 -4.834343 54.234314
268 0 1 0.716877 -5.010325 54.254700
269 0 1 1.215935 -5.167803 53.504395
270 0 1 0.395138 -4.747303 53.080292
271 0 1 0.447128 -5.506665 52.536591
272 0 1 1.324718 -5.561364 52.078796
273 0 1 1.314636 -6.531575 52.005005
274 0 1 2.236267 -6.642754 51.964996
275 0 1 2.405548 -5.729144 52.215515
276 0 1 2.635197 -5.120974 52.912506
277 0 1 3.424637 -5.107665 53.459290
278 0 1 2.773647 -4.685685 54.008698
279 0 1 3.125229 -3.846972 54.219696
280 0 1 3.968735 -3.966158 53.831390
281 0 1 4.838516 -4.217560 54.118195
282 0 1 5.789776 -4.278723 54.347900
283 0 1 5.823967 -3.981020 53.446289
284 0 1 6.101376 -3.871123 52.549988
285 0 1 6.775948 -3.930272 51.870789
286 0 1 7.567127 -4.545285 51.928711
287 0 1 8.249046 -4.563864 51.230988
288 0 1 8.670639 -5.404704 51.059509
289 0 1 9.043537 -6.217844 51.248901
290 0 1 8.899437 -6.954915 51.880005
291 0 1 9.413635 -7.544045 52.417297
292 0 1 9.634636 -6.898894 53.096985
293 0 1 10.238235 -6.248974 53.411713
294 0 1 10.962936 -5.977555 52.909607
295 0 1 11.509338 -6.688464 52.497314
296 0 1 10.525635 -7.071814 52.356598
297 0 1 10.099838 -6.374955 51.869598
298 0 1 10.279537 -6.179163 50.961395
299 0 1 11.250137 -6.358244 51.096313
300 0 1 12.093239 -6.267514 51.433899
301 0 1 12.418236 -5.426295 51.004608
302 0 1 11.839836 -4.642153 51.036407
303 0 1 11.546135 -3.866482 50.472809
304 0 1 11.501038 -3.582606 49.590393
305 0 1 10.622635 -3.442885 49.911316
306 0 1 11.210136 -2.750033 50.249603
307 0 1 11.685238 -2.048964 49.849091
308 0 1 12.639236 -1.877225 50.021606
309 0 1 13.397438 -2.490044 49.997986
310 0 1 13.670937 -2.052994 49.154297
311 0 1 13.618835 -2.347014 48.197998
312 0 1 13.824238 -3.250086 48.282104
313 0 1 13.798035 -4.047181 48.851898
314 0 1 13.807838 -5.020905 48.959198
315 0 1 12.893837 -5.143343 49.127686
316 0 1 12.806637 -4.721934 48.267303
317 0 1 12.761837 -4.330855 47.342896
318 0 1 12.408337 -3.958582 46.551605
319 0 1 12.159637 -3.190442 47.154205
320 0 1 12.121437 -3.044264 48.115387
321 0 1 11.659035 -2.551972 48.866211
322 0 1 10.849937 -2.054924 48.926086
323 0 1 10.150036 -1.427754 48.708588
324 0 1 10.089935 -0.454125 48.853210
325 0 1 10.752739 0.018497 49.321991
326 0 1 11.121437 0.678176 48.698914
327 0 1 10.942238 1.620307 48.623413
328 0 1 10.421638 1.363136 47.878113
329 0 1 10.570736 0.939277 47.021393
330 0 1 11.412037 1.366046 46.935791
331 0 1 12.270336 1.111217 47.174316
332 0 1 13.069237 1.661037 47.390594
333 0 1 13.908237 2.272575 47.481689
334 0 1 13.754536 2.750854 48.300415
335 0 1 13.826637 3.464916 47.551392
336 0 1 14.219437 4.338996 47.309998
337 0 1 14.517136 4.966728 48.030396
338 0 1 15.437336 5.067035 47.914917
339 0 1 15.596737 4.144866 47.605804
340 0 1 16.201836 4.346935 46.847809
341 0 1 16.042736 4.040298 45.970795
342 0 1 16.588737 4.797916 45.662598
343 0 1 17.530739 5.099975 45.613708
344 0 1 18.479935 4.720146 45.715790
345 0 1 19.011436 5.398666 46.265900
346 0 1 19.047035 5.906845 45.460205
347 0 1 19.535439 5.073787 45.096802
348 0 1 19.146439 5.228775 44.161499
349 0 1 18.646538 5.297855 43.328705
350 0 1 19.323437 5.579566 42.680389
351 0 1 19.919334 5.860588 41.993713
352 0 1 19.342735 6.670795 41.825409
353 0 1 20.076138 6.707595 41.122406
354 0 1 19.574936 7.525196 41.153015
355 0 1 18.736938 7.845996 40.898895
356 0 1 18.093437 8.493495 40.866211
357 0 1 17.540337 8.572894 41.636902
358 0 1 16.601437 8.303596 41.750092
359 0 1 16.337135 7.355495 41.843994
360 0 1 15.431236 7.858398 41.744904
361 0 1 15.349937 8.623694 41.015991
362 0 1 14.699837 9.189395 41.500000
363 0 1 13.815636 9.392695 41.653107
364 0 1 13.504738 10.151694 41.117706
365 0 1 12.612137 9.957095 40.879395
366 0 1 12.301239 9.138694 40.489807
367 0 1 11.477837 8.769294 40.380310
368 0 1 10.690838 8.255595 40.204803
369 0 1 10.116638 8.704894 39.592712
370 0 1 10.752636 8.510394 38.835602
371 0 1 10.057438 8.638495 38.152588
372 0 1 10.412136 9.111896 37.406097
373 0 1 11.296436 9.418296 37.584198
374 0 1 12.198135 9.549796 37.473816
375 0 1 12.251438 9.543895 36.478088
376 0 1 12.980137 9.457995 35.924408
377 0 1 12.214836 9.322597 35.453705
378 0 1 11.547134 8.774394 35.033813
379 0 1 11.133636 7.978996 34.665405
380 0 1 10.569836 8.666495 34.757904
381 0 1 10.609436 9.276694 35.483704
382 0 1 10.464237 9.740497 34.680206
383 0 1 10.819138 10.247294 33.946899
384 0 1 10.662239 9.395698 33.487610
385 0 1 11.199436 9.294696 32.709106
386 0 1 11.328136 10.076495 32.084808
387 0 1 11.157738 10.672095 32.808289
388 0 1 10.501335 11.383494 32.488190
389 0 1 10.301338 10.737296 31.816500
390 0 1 10.662937 11.531493 31.315187
391 0 1 9.710136 11.720794 31.372103
392 0 1 9.278839 11.448596 30.583101
393 0 1 9.065838 11.141795 29.691103
394 0 1 9.734337 11.543296 29.082888
395 0 1 9.446636 12.374095 28.746492
396 0 1 8.762737 12.578395 28.168489
397 0 1 8.608238 11.742896 28.651003
398 0 1 8.478188 12.548396 29.235689
399 0 1 8.165386 13.477294 29.230410
400 0 1 7.631176 13.938094 29.879793
401 0 1 8.158768 13.573997 30.580111
402 0 1 7.998928 12.763095 30.989016
403 0 1 7.789566 13.388297 31.659914
404 0 1 8.272758 13.481498 32.466492
405 0 1 8.999836 12.807998 32.611603
406 0 1 8.918938 13.135795 33.551697
407 0 1 9.665737 12.918197 34.174011
408 0 1 10.098236 13.738494 33.942017
409 0 1 9.767235 14.559096 33.644501
410 0 1 9.186337 14.575896 32.901001
411 0 1 8.683838 15.206298 33.450897
412 0 1 8.770638 15.617896 32.591492
413 0 1 8.233078 15.730994 31.821413
414 0 1 7.987999 14.894095 32.182495
415 0 1 7.148987 14.822898 31.616610
416 0 1 6.407188 14.703296 32.261200
417 0 1 6.709999 14.305896 33.158600
418 0 1 6.795177 13.681998 33.872192
419 0 1 5.832447 13.460196 33.703400
420 0 1 6.448967 12.946593 33.135406
421 0 1 5.802177 12.790298 32.438507
422 0 1 5.976486 12.239795 31.609713
423 0 1 6.818348 12.532798 32.039795
424 0 1 6.403587 13.302596 31.648714
425 0 1 5.902515 14.112796 31.489412
426 0 1 5.692936 14.966395 31.049196
427 0 1 5.670418 15.666793 31.682100
428 0 1 6.273296 16.380596 31.442110
429 0 1 5.696056 16.906296 30.918001
430 0 1 4.938786 16.333996 30.663912
431 0 1 4.868217 15.369094 30.517214
432 0 1 5.802467 15.650596 30.332216
433 0 1 5.735935 15.309394 29.462404
434 0 1 5.612057 14.456496 29.779696
435 0 1 5.494095 13.504798 29.659487
436 0 1 6.229965 12.860896 29.433504
437 0 1 5.369629 12.659995 28.910311
438 0 1 5.145256 12.399096 28.048708
439 0 1 4.381886 11.791595 28.148104
440 0 1 3.434837 11.792296 28.185213
441 0 1 2.637917 12.141395 28.614901
442 0 1 2.439987 11.385894 28.107088
443 0 1 2.897945 10.594794 28.264315
444 0 1 2.939499 10.244494 27.303804
445 0 1 2.135178 10.659698 26.979403
446 0 1 1.272636 10.702598 26.644808
447 0 1 0.949737 10.395896 25.805910
448 0 1 1.287128 9.651195 25.327700
449 0 1 1.345207 9.676394 24.350588
450 0 1 0.721497 10.254695 23.909212
451 0 1 0.562176 11.059096 24.311312
452 0 1 0.087627 11.642898 23.716402
453 0 1 0.862858 12.258193 23.510500
454 0 1 1.570175 12.335998 24.174105
455 0 1 1.661427 12.879695 24.894899
456 0 1 1.309727 13.686595 24.657198
457 0 1 0.863869 13.382995 25.470491
458 0 1 0.180145 13.849494 25.908205
459 0 1 0.716587 13.462493 26.608004
460 0 1 1.058437 14.385695 26.585909
461 0 1 0.838158 15.235896 26.912600
462 0 1 0.479156 15.963294 26.285891
463 0 1 -0.240494 15.684295 25.713900
464 0 1 -0.599527 14.806396 25.961306
465 0 1 -1.036242 14.201095 26.552492
466 0 1 -1.117781 14.520396 27.474092
467 0 1 -1.652477 13.754695 27.433016
468 0 1 -2.523542 13.463393 27.081606
469 0 1 -3.230062 13.074996 26.541994
470 0 1 -2.742153 13.515895 25.725100
471 0 1 -3.419073 13.033996 25.169008
472 0 1 -2.716854 12.804893 24.517702
473 0 1 -3.584063 13.011096 24.062899
474 0 1 -3.695744 12.839995 23.099794
475 0 1 -2.713343 13.062995 23.043886
476 0 1 -2.469622 12.387496 22.425508
477 0 1 -1.522543 12.553195 22.426607
478 0 1 -1.338772 12.513896 23.360506
479 0 1 -2.029806 12.243194 23.988314
480 0 1 -2.041195 11.319896 24.329012
481 0 1 -2.068012 10.684493 25.134005
482 0 1 -2.566973 10.815295 25.960909
483 0 1 -2.817333 10.395194 26.804995
484 0 1 -2.049068 9.828494 27.035799
485 0 1 -1.510473 9.660094 27.811495
486 0 1 -1.254747 8.751594 27.622896
487 0 1 -1.634501 8.842994 26.746309
488 0 1 -1.287355 7.995094 26.987398
489 0 1 -1.620251 7.158897 26.718508
490 0 1 -0.897976 7.083396 27.378389
491 0 1 -0.252234 6.704895 26.832888
492 0 1 0.286785 6.063285 27.270510
493 0 1 0.268887 5.112247 27.322817
494 0 1 1.133308 4.899635 27.690706
495 0 1 1.995808 5.198627 27.886415
496 0 1 1.820286 4.757514 28.722109
497 0 1 0.939896 4.528594 28.895998
498 0 1 0.538567 4.262237 29.754702
499 0 1 -0.191164 3.670337 29.594698
500 0 1 -0.371973 2.704048 29.436098
501 0 1 -0.003573 1.834705 29.275606
502 0 1 0.565796 1.470718 28.629396
503 0 1 -0.005133 1.552307 27.842104
504 0 1 -0.078283 1.115917 26.942293
505 0 1 0.657497 0.776657 26.452791
506 0 1 0.636478 0.358226 27.300295
507 0 1 1.471378 0.948745 27.186403
508 0 1 2.320477 1.271297 26.975710
509 0 1 3.247795 1.138767 27.055788
510 0 1 3.656288 1.977706 26.794405
511 0 1 3.485676 2.180755 27.671999
512 0 1 3.863388 3.046035 27.872713
513 0 1 3.185585 3.675357 28.108889
514 0 1 3.900955 3.648895 28.768709
515 0 1 3.954819 4.448844 28.042116
516 0 1 4.448517 5.243728 28.275301
517 0 1 5.161316 5.119525 27.654787
518 0 1 5.802689 4.628177 28.123293
519 0 1 5.173119 3.892276 28.114809
520 0 1 5.151985 3.456306 27.227816
521 0 1 5.774487 4.175067 27.102388
522 0 1 6.338135 3.634346 26.537508
523 0 1 6.388546 3.532535 25.583986
524 0 1 5.956245 4.089195 24.985811
525 0 1 5.588207 3.828308 24.116304
526 0 1 5.969196 3.219085 23.476595
527 0 1 6.324936 2.448085 23.830111
528 0 1 6.035545 1.635955 24.266787
529 0 1 5.509777 1.435768 23.513796
530 0 1 5.409176 0.567665 23.186007
531 0 1 5.617966 -0.091176 22.559511
532 0 1 5.244846 -0.799435 22.057802
533 0 1 5.584278 -1.436703 22.738497
534 0 1 5.868118 -1.822075 21.897707
535 0 1 5.244019 -2.434094 22.336504
536 0 1 4.836376 -2.002705 21.557604
537 0 1 4.515457 -2.878903 21.765108
538 0 1 4.972057 -3.746617 21.732103
539 0 1 5.887997 -3.482218 21.867495
540 0 1 6.336166 -3.084673 22.584291
541 0 1 7.243076 -3.054310 22.958193
542 0 1 7.320435 -3.828845 23.497591
543 0 1 6.508987 -3.431712 23.815706
544 0 1 6.289318 -4.275568 23.398409
545 0 1 6.230278 -5.008805 22.827700
546 0 1 5.446476 -5.580214 22.978609
547 0 1 4.682167 -5.643155 23.590090
548 0 1 5.606277 -5.539444 23.984896
549 0 1 5.417816 -5.557635 24.977297
550 0 1 6.018227 -6.297305 24.638796
551 0 1 6.260185 -6.953213 25.245790
552 0 1 6.827988 -7.611355 25.588106
553 0 1 7.527405 -7.131363 25.122103
554 0 1 8.360508 -7.574574 24.849215
555 0 1 9.289036 -7.590615 24.437502
556 0 1 8.898438 -8.233714 23.804201
557 0 1 8.003246 -8.083304 23.569307
558 0 1 7.319256 -7.937535 22.917788
559 0 1 8.005676 -7.757414 22.258303
560 0 1 7.865608 -6.830115 22.485003
561 0 1 6.913269 -6.967274 22.421297
562 0 1 6.147285 -7.330544 22.062502
563 0 1 5.620049 -6.884064 22.759005
564 0 1 4.767246 -7.317774 22.995913
565 0 1 5.488026 -7.703314 23.465090
566 0 1 4.925587 -7.564084 24.229311
567 0 1 4.460476 -8.377315 24.311403
568 0 1 3.696945 -8.022914 24.830416
569 0 1 3.518406 -8.295465 23.929110
570 0 1 3.653938 -7.814373 23.091707
571 0 1 3.242565 -7.746914 22.265001
572 0 1 2.640877 -7.629864 21.551500
573 0 1 2.031029 -8.253495 21.989901
574 0 1 1.112736 -8.074365 21.599199
575 0 1 0.183128 -8.325746 21.555803
576 0 1 0.706898 -9.138474 21.427004
577 0 1 0.088959 -9.790235 20.976305
578 0 1 -0.358603 -9.974275 20.073305
579 0 1 -1.319305 -10.038934 19.967699
580 0 1 -1.971361 -10.250064 19.293398
581 0 1 -1.549799 -11.136464 19.171007
582 0 1 -1.996670 -11.642474 18.490602
583 0 1 -2.083939 -12.405404 19.104799
584 0 1 -2.765244 -12.466485 18.361605
585 0 1 -2.224625 -13.005795 17.800295
586 0 1 -1.889362 -13.147004 16.873903
587 0 1 -0.985016 -13.362836 16.513506
588 0 1 -0.863079 -12.436463 16.666796
589 0 1 -1.795393 -12.136594 16.888002
590 0 1 -1.395594 -11.252025 16.672609
591 0 1 -1.175415 -11.601106 15.807206
592 0 1 -1.229780 -12.025765 14.917405
593 0 1 -0.335104 -12.360354 14.637300
594 0 1 0.587818 -12.178384 14.824601
595 0 1 0.624508 -11.374545 14.318406
596 0 1 -0.083122 -10.871446 14.776093
597 0 1 0.236156 -10.512525 13.915406
598 0 1 -0.612667 -10.514825 13.411500
599 0 1 -0.969097 -10.306455 12.544099
600 0 1 -1.460440 -10.458974 11.785005
601 0 1 -2.182867 -11.066113 11.441194
602 0 1 -3.108482 -11.337214 11.251298
603 0 1 -3.608063 -11.886395 11.860108
604 0 1 -3.988052 -11.651145 12.755097
605 0 1 -3.508324 -10.889005 12.559907
606 0 1 -4.183582 -10.661525 11.924897
607 0 1 -4.651163 -10.175385 11.184602
608 0 1 -4.660593 -11.130975 10.974107
609 0 1 -5.176933 -11.566983 10.269105
610 0 1 -5.627184 -11.217364 9.481004
611 0 1 -6.063993 -10.404546 9.102693
612 0 1 -5.536484 -10.244454 8.364457
613 0 1 -5.635574 -10.607305 7.501832
614 0 1 -4.753242 -11.080976 7.373506
615 0 1 -4.639442 -11.577584 6.556153
616 0 1 -4.560413 -12.555104 6.715257
617 0 1 -4.867023 -13.409844 7.108247
618 0 1 -4.996223 -14.392606 7.235108
619 0 1 -4.708004 -14.116805 8.097871
620 0 1 -4.806873 -14.726605 8.803987
621 0 1 -5.232483 -14.611806 9.689317
622 0 1 -6.137253 -14.262605 9.771913
623 0 1 -7.084543 -14.088304 9.615983
624 0 1 -7.419884 -14.410604 10.419801
625 0 1 -8.054443 -15.061105 10.046494
626 0 1 -8.047554 -14.196204 9.607133
627 0 1 -8.846203 -13.719605 9.877976
628 0 1 -9.163343 -13.794003 10.761003
629 0 1 -9.267603 -14.518106 11.332398
630 0 1 -9.738333 -15.022605 10.665101
631 0 1 -10.623192 -14.702306 10.851106
632 0 1 -11.276943 -15.204604 10.431901
633 0 1 -10.650524 -15.661103 9.749299
634 0 1 -10.400173 -16.219402 10.465302
635 0 1 -9.580433 -16.399303 10.895905
636 0 1 -9.288624 -16.960705 11.621598
637 0 1 -9.385883 -17.438305 12.442094
638 0 1 -9.589273 -18.052004 11.699006
639 0 1 -10.004364 -18.646004 11.075395
640 0 1 -9.496864 -19.365105 11.536698
641 0 1 -8.868093 -19.447803 10.856599
642 0 1 -8.150993 -19.821505 10.261903
643 0 1 -7.274313 -19.473703 10.607194
644 0 1 -6.891422 -19.443205 11.479600
645 0 1 -6.114162 -19.944803 11.573701
646 0 1 -5.606262 -19.756403 12.284104
647 0 1 -6.415142 -19.819904 12.819200
648 0 1 -6.570442 -19.121405 13.460099
649 0 1 -7.149612 -19.204905 14.263505
650 0 1 -6.883904 -19.289204 15.213105
651 0 1 -7.069363 -20.133003 14.912400
652 0 1 -7.227913 -20.292204 13.942002
653 0 1 -7.618753 -21.146204 13.714402
654 0 1 -7.074484 -21.403404 14.485902
655 0 1 -6.466022 -21.955404 15.121797
656 0 1 -5.984854 -21.251503 15.531007
657 0 1 -5.221394 -20.920204 16.051394
658 0 1 -5.577883 -20.084204 15.672303
659 0 1 -6.035892 -20.197704 16.559496
660 0 1 -6.153803 -21.077105 16.791796
661 0 1 -6.087233 -20.915403 17.800905
662 0 1 -5.675022 -21.046204 18.705706
663 0 1 -5.698162 -20.135904 18.369204
664 0 1 -5.171913 -20.069405 19.214602
665 0 1 -4.686863 -20.627903 18.607409
666 0 1 -4.009113 -21.179804 18.278200
667 0 1 -3.136454 -21.368004 18.710299
668 0 1 -2.767303 -20.694904 19.282595
669 0 1 -2.236170 -19.923403 19.389009
670 0 1 -2.688484 -19.728403 20.207506
671 0 1 -3.034983 -18.871904 19.798601
672 0 1 -3.870773 -19.334904 20.041903
673 0 1 -4.203632 -18.670404 19.414797
674 0 1 -5.045454 -18.561205 18.991899
675 0 1 -5.280804 -17.634903 18.842501
676 0 1 -5.937563 -17.512302 19.551302
677 0 1 -5.535223 -18.141104 20.107302
678 0 1 -5.303003 -17.828705 21.015306
679 0 1 -4.616512 -17.201704 21.073610
680 0 1 -4.402073 -17.620304 20.222597
681 0 1 -4.130373 -18.249905 20.931704
682 0 1 -4.006924 -19.128504 21.360903
683 0 1 -4.853233 -19.372604 20.949495
684 0 1 -5.695614 -19.873003 21.058504
685 0 1 -5.828514 -20.120903 20.098207
686 0 1 -6.608524 -20.637304 20.297503
687 0 1 -6.804153 -21.308304 19.694704
688 0 1 -6.105453 -21.513504 20.331408
689 0 1 -5.723274 -22.322205 19.832598
690 0 1 -5.560043 -23.269203 20.107103
691 0 1 -5.336603 -24.128304 19.659700
692 0 1 -4.541094 -23.683704 19.239397
693 0 1 -4.029894 -23.763004 18.421404
694 0 1 -3.964752 -24.741304 18.304399
695 0 1 -3.155622 -24.841204 17.747805
696 0 1 -2.883142 -25.151304 16.924700
697 0 1 -2.373976 -24.770803 16.184801
698 0 1 -1.791065 -24.400105 15.503495
699 0 1 -1.735500 -23.442204 15.284501
700 0 1 -1.012362 -22.840303 15.289201
701 0 1 -0.985350 -22.936504 16.292910
702 0 1 -0.475143 -22.191704 16.117998
703 0 1 -0.016003 -22.330404 15.246598
704 0 1 0.696575 -21.880604 15.609193
705 0 1 1.629158 -21.811604 15.414506
706 0 1 1.832607 -21.396904 14.588593
707 0 1 2.780788 -21.078903 14.220002
708 0 1 2.492607 -21.620604 13.421601
709 0 1 3.423996 -21.829304 13.197007
710 0 1 3.997505 -22.250204 13.870103
711 0 1 4.030796 -22.918604 14.591294
712 0 1 4.485477 -23.291103 15.347596
713 0 1 4.269566 -24.157204 15.766007
714 0 1 4.394638 -25.147104 15.513597
715 0 1 5.078339 -24.515703 15.237794
716 0 1 5.270916 -25.489803 14.927308
717 0 1 5.419628 -25.469704 13.964509
718 0 1 6.030697 -25.220003 13.235703
719 0 1 6.451878 -24.835304 12.431504
720 0 1 6.321495 -24.809404 11.396699
721 0 1 6.115887 -25.542704 10.770997
722 0 1 6.849026 -26.202105 10.669099
723 0 1 7.801346 -26.194803 10.553605
724 0 1 8.412846 -25.461103 10.815507
725 0 1 9.140236 -24.791704 10.984696
726 0 1 8.800236 -23.985203 10.544999
727 0 1 8.702137 -23.009104 10.371202
728 0 1 9.389435 -22.600403 9.872025
729 0 1 9.170837 -23.014605 9.040101
730 0 1 9.324436 -22.592304 8.245957
731 0 1 9.904037 -21.893703 8.517030
732 0 1 10.030136 -21.245104 9.187287
733 0 1 9.202736 -21.033604 8.794236
734 0 1 9.214539 -20.067703 8.954698
735 0 1 8.367859 -19.584003 8.773927
736 0 1 8.015747 -20.381403 8.476441
737 0 1 8.124557 -20.466204 7.545030
738 0 1 7.475845 -21.158903 7.846696
739 0 1 8.529236 -21.361603 7.855577
740 0 1 8.251137 -22.232103 8.056916
741 0 1 7.846817 -21.995304 7.160920
742 0 1 6.941856 -22.310404 7.301911
743 0 1 6.176716 -22.336504 6.689668
744 0 1 5.256256 -22.193104 6.655473
745 0 1 5.295658 -21.494404 7.277604
746 0 1 4.517868 -20.873903 7.543138
747 0 1 4.353008 -20.215904 6.904862
748 0 1 3.778908 -20.935204 6.690858
749 0 1 3.255337 -21.587904 6.393144
750 0 1 2.717587 -21.911703 5.650529
751 0 1 1.899227 -22.392704 5.396058
752 0 1 1.487545 -23.224903 5.176270
753 0 1 1.024105 -23.983704 5.678468
754 0 1 0.153915 -24.606304 5.740785
755 0 1 -0.352842 -24.303303 6.473756
756 0 1 -0.183884 -24.144505 7.479203
757 0 1 0.248196 -24.170204 8.304658
758 0 1 1.092136 -23.683704 8.281724
759 0 1 1.825397 -23.157204 8.327378
760 0 1 1.824127 -22.734503 9.177186
761 0 1 1.722225 -21.753304 9.406526
762 0 1 0.941257 -21.073503 9.362824
763 0 1 0.202927 -21.293503 8.722871
764 0 1 0.173489 -20.433104 9.222077
765 0 1 0.981438 -20.078104 8.746354
766 0 1 1.635715 -19.827503 8.129121
767 0 1 1.415356 -19.049704 8.596467
768 0 1 0.780987 -18.735004 9.293458
769 0 1 0.265888 -19.184504 9.955384
770 0 1 0.764728 -18.781605 10.760606
771 0 1 1.284576 -17.994703 10.422700
772 0 1 2.144676 -17.790403 10.869996
773 0 1 1.367077 -17.497803 11.423402
774 0 1 1.230698 -16.897203 12.194901
775 0 1 1.557198 -16.099705 11.831895
776 0 1 0.953728 -16.254105 11.127900
777 0 1 0.219456 -16.384705 11.819505
778 0 1 -0.565781 -16.243303 11.219895
779 0 1 -1.531389 -16.204903 11.250504
780 0 1 -1.710526 -16.086304 12.212998
781 0 1 -2.206408 -15.313405 12.069001
782 0 1 -1.855793 -14.621205 11.490693
783 0 1 -2.280731 -14.283704 10.672807
784 0 1 -1.838964 -13.624204 10.142198
785 0 1 -1.009565 -13.169925 9.999314
786 0 1 -0.520012 -13.268294 9.227265
787 0 1 -0.999956 -14.028905 8.934205
788 0 1 -1.680677 -13.519195 8.416368
789 0 1 -1.352894 -14.231904 7.848207