LAMMPS data file via MDAnalysis

        2000  atoms
        1999  bonds
           0  angles
           0  dihedrals
           0  impropers

           1  atom types
           1  bond types
           0  angle types
           0  dihedral types
           0  improper types

-30.5 30.5 xlo xhi
-30.5 30.5 ylo yhi
-233.5 233.5 zlo zhi


Masses

1 1.000000

Atoms

1 0 1 -9.551864 -16.146786 73.233490
2 0 1 -9.108134 -16.430086 73.973694
3 0 1 -8.570216 -17.223686 73.819214
4 0 1 -7.887565 -16.702986 74.249512
5 0 1 -7.192084 -16.074486 74.145203
6 0 1 -6.720593 -16.580786 73.551208
7 0 1 -6.183604 -17.332985 73.380005
8 0 1 -5.964046 -17.093185 72.479309
9 0 1 -5.065635 -16.963285 72.652893
10 0 1 -4.584212 -17.788786 72.530792
11 0 1 -4.391204 -18.209986 71.711487
12 0 1 -3.509093 -18.519386 71.575500
13 0 1 -2.645804 -18.042086 71.349304
14 0 1 -2.320285 -17.233686 71.010986
15 0 1 -3.053935 -16.570786 71.300903
16 0 1 -2.223815 -16.425585 71.717896
17 0 1 -1.331874 -16.348085 72.124817
18 0 1 -0.602614 -16.991785 72.082703
19 0 1 -0.086505 -16.704685 71.272583
20 0 1 0.528417 -16.085285 71.680786
21 0 1 0.798745 -15.608487 72.403503
22 0 1 1.096498 -14.871287 72.883118
23 0 1 0.973664 -15.195987 73.794098
24 0 1 0.512025 -15.222287 74.621796
25 0 1 -0.397895 -15.045087 74.962402
26 0 1 -1.134162 -15.221486 75.501892
27 0 1 -1.177813 -14.586686 76.193695
28 0 1 -0.351134 -14.138587 75.953186
29 0 1 -1.073085 -13.470487 76.208191
30 0 1 -1.176524 -12.782487 75.498199
31 0 1 -1.457625 -12.977586 74.600708
32 0 1 -1.065524 -12.065787 74.486511
33 0 1 -1.766692 -11.863887 75.170898
34 0 1 -2.600505 -11.766986 74.611511
35 0 1 -3.339614 -12.344787 74.856903
36 0 1 -3.358493 -13.208087 74.564392
37 0 1 -3.217482 -12.969287 73.598389
38 0 1 -2.910334 -13.133487 72.684509
39 0 1 -2.302474 -13.842286 73.106110
40 0 1 -2.069262 -14.575387 73.715302
41 0 1 -1.593345 -14.715287 72.949005
42 0 1 -0.816436 -14.426887 72.358704
43 0 1 -0.020446 -13.990287 72.073914
44 0 1 -0.560004 -13.236087 71.774292
45 0 1 -1.460715 -13.177287 71.482605
46 0 1 -1.483146 -12.330287 71.920288
47 0 1 -1.780722 -11.965087 71.065186
48 0 1 -2.615233 -11.706086 70.649200
49 0 1 -2.265372 -10.892587 70.228394
50 0 1 -2.889083 -10.331986 70.698486
51 0 1 -3.607253 -10.185687 71.327698
52 0 1 -4.112315 -10.961886 70.991394
53 0 1 -4.741805 -11.409886 70.341309
54 0 1 -4.071513 -11.342086 69.637817
55 0 1 -3.947524 -11.093886 68.753784
56 0 1 -4.042735 -11.012486 67.767090
57 0 1 -3.383822 -11.721787 67.565186
58 0 1 -3.929122 -11.948087 66.803497
59 0 1 -4.284625 -11.072787 66.772705
60 0 1 -4.179553 -11.462386 65.851898
61 0 1 -4.451316 -12.348586 65.467407
62 0 1 -5.205752 -11.969787 65.061310
63 0 1 -5.338035 -11.759088 64.151794
64 0 1 -6.086913 -11.555486 64.615204
65 0 1 -6.254355 -11.705586 65.543884
66 0 1 -5.958842 -10.994487 66.151398
67 0 1 -6.046332 -10.086987 65.811218
68 0 1 -6.293323 -9.954988 66.754211
69 0 1 -7.026793 -10.511786 66.947906
70 0 1 -7.598071 -11.250487 66.652191
71 0 1 -6.972394 -11.997987 66.892883
72 0 1 -6.435073 -11.563888 67.599182
73 0 1 -5.568683 -11.504786 68.045715
74 0 1 -5.114604 -12.179587 67.474182
75 0 1 -4.940333 -13.117286 67.456482
76 0 1 -4.510406 -13.226687 66.591309
77 0 1 -4.365794 -13.466187 65.681519
78 0 1 -4.176864 -13.549687 64.702789
79 0 1 -4.888774 -13.232587 64.173309
80 0 1 -5.713435 -13.401887 63.713013
81 0 1 -6.200225 -13.411086 64.538605
82 0 1 -7.032443 -13.345586 64.994904
83 0 1 -7.947400 -13.132886 64.791687
84 0 1 -8.108743 -12.546786 64.084290
85 0 1 -8.093333 -11.981187 63.359711
86 0 1 -7.304856 -11.357686 63.470398
87 0 1 -6.597863 -10.712586 63.464294
88 0 1 -7.337298 -10.129188 63.445496
89 0 1 -7.363172 -9.640187 64.362091
90 0 1 -6.815364 -8.960588 63.874298
91 0 1 -6.067134 -8.465186 63.603394
92 0 1 -6.861974 -8.185186 63.159210
93 0 1 -7.105830 -7.336086 63.701904
94 0 1 -6.624074 -6.614587 64.176208
95 0 1 -6.452846 -6.103387 63.388306
96 0 1 -7.183862 -6.176087 62.750793
97 0 1 -7.539559 -6.022187 63.640900
98 0 1 -7.508290 -5.666085 64.492615
99 0 1 -6.866244 -5.748986 65.240509
100 0 1 -6.656135 -5.338887 66.046204
101 0 1 -7.149089 -4.450788 66.191101
102 0 1 -6.999385 -4.105687 67.113403
103 0 1 -6.713964 -5.082788 67.071899
104 0 1 -6.773934 -5.920888 67.489502
105 0 1 -7.399526 -6.671086 67.337799
106 0 1 -8.005185 -7.262286 66.876801
107 0 1 -8.671746 -7.813686 66.457214
108 0 1 -9.245414 -7.316486 65.925507
109 0 1 -9.835694 -6.908087 66.592407
110 0 1 -10.103065 -6.289287 67.281799
111 0 1 -10.722974 -7.021987 67.482910
112 0 1 -11.446094 -6.619386 66.960602
113 0 1 -11.423804 -5.785287 66.462891
114 0 1 -11.097665 -4.866986 66.425598
115 0 1 -11.559455 -4.019986 66.257202
116 0 1 -12.266845 -4.000688 66.886597
117 0 1 -12.525004 -3.371387 66.269989
118 0 1 -13.149795 -4.114587 66.000000
119 0 1 -12.841104 -4.860587 65.495300
120 0 1 -12.429454 -4.306188 64.795593
121 0 1 -11.506974 -4.484487 64.505890
122 0 1 -11.818475 -3.546388 64.189514
123 0 1 -11.297704 -2.935287 64.681305
124 0 1 -11.631043 -2.307286 64.041107
125 0 1 -11.256175 -1.462836 63.951508
126 0 1 -10.306994 -1.492877 64.323486
127 0 1 -10.389594 -2.379786 64.080200
128 0 1 -10.556945 -2.785087 63.121887
129 0 1 -9.619584 -2.635886 63.445404
130 0 1 -8.647162 -2.529386 63.254303
131 0 1 -8.259805 -1.817576 62.792694
132 0 1 -7.519723 -1.211957 62.927094
133 0 1 -7.988790 -0.709107 62.288208
134 0 1 -7.109668 -0.150105 62.147217
135 0 1 -6.418624 0.501924 61.868286
136 0 1 -6.324763 1.396113 62.234894
137 0 1 -5.749824 0.881644 62.825592
138 0 1 -6.515876 0.825053 63.368195
139 0 1 -7.419925 0.437984 63.397095
140 0 1 -7.367047 1.244363 62.916412
141 0 1 -8.104236 1.774793 62.944000
142 0 1 -8.880265 2.273974 62.499817
143 0 1 -8.144481 2.912562 62.418213
144 0 1 -8.671210 3.410724 63.053406
145 0 1 -8.651057 3.020003 63.891602
146 0 1 -8.400962 2.276193 64.374207
147 0 1 -8.252196 2.385394 65.321289
148 0 1 -7.680108 2.966582 65.810486
149 0 1 -7.851565 3.824054 65.413208
150 0 1 -7.068864 3.883683 64.837311
151 0 1 -6.229175 3.565303 64.539490
152 0 1 -5.702804 3.033414 63.954102
153 0 1 -5.265494 3.809394 64.343384
154 0 1 -4.632464 4.515452 64.558990
155 0 1 -4.046245 5.239724 64.312988
156 0 1 -3.154162 4.854663 64.406708
157 0 1 -3.454642 3.965093 64.472900
158 0 1 -4.162555 3.461253 64.765106
159 0 1 -3.988272 3.676204 65.637695
160 0 1 -4.024673 2.776624 65.817993
161 0 1 -4.077544 2.543834 66.735413
162 0 1 -3.237094 2.967284 66.433502
163 0 1 -2.638163 3.690423 66.256714
164 0 1 -2.120665 4.450944 65.923004
165 0 1 -2.527255 5.181193 66.403107
166 0 1 -2.144503 5.553744 67.204590
167 0 1 -2.826854 5.528483 67.846191
168 0 1 -2.370902 4.771573 68.272308
169 0 1 -1.458045 4.788243 68.577606
170 0 1 -1.747733 3.870534 68.570892
171 0 1 -2.183993 3.598643 69.451508
172 0 1 -2.650763 2.950063 69.998596
173 0 1 -2.065665 2.786344 70.758484
174 0 1 -1.145606 2.299792 70.720490
175 0 1 -1.031142 1.332543 70.532990
176 0 1 -0.710254 1.339334 71.427002
177 0 1 -0.676863 1.143323 72.329712
178 0 1 -1.132735 0.331683 72.277100
179 0 1 -1.298755 -0.475785 71.804382
180 0 1 -1.197486 -1.014447 72.600403
181 0 1 -0.672892 -1.630666 72.110718
182 0 1 -0.776614 -1.551147 71.160492
183 0 1 -0.027015 -1.806527 70.606903
184 0 1 0.268506 -1.440457 69.729187
185 0 1 -0.002395 -2.235036 69.264587
186 0 1 0.809858 -2.779088 69.601593
187 0 1 1.492845 -2.403987 69.008209
188 0 1 1.800786 -3.329587 69.048584
189 0 1 2.186536 -3.194486 69.919617
190 0 1 3.154035 -3.226487 69.761597
191 0 1 2.971837 -2.328786 69.538513
192 0 1 2.555337 -1.478307 69.361511
193 0 1 2.664636 -0.533347 69.040192
194 0 1 2.342736 -0.485578 68.102997
195 0 1 2.090036 -1.376256 67.746094
196 0 1 1.231706 -1.150657 67.602295
197 0 1 0.327768 -0.801785 67.760803
198 0 1 0.800698 -0.108127 68.333191
199 0 1 0.613156 0.738963 67.821991
200 0 1 0.692437 1.328803 67.041504
201 0 1 1.238114 2.090453 66.699310
202 0 1 1.673226 1.282954 66.297302
203 0 1 2.624635 1.263734 66.268097
204 0 1 2.603635 1.372634 65.307892
205 0 1 2.257837 1.081843 64.433899
206 0 1 1.842466 0.472342 63.842407
207 0 1 1.444715 1.031413 63.171387
208 0 1 1.874486 1.801213 62.783112
209 0 1 1.574266 2.566373 63.305206
210 0 1 1.481176 3.496503 63.236816
211 0 1 2.026136 3.213353 62.522400
212 0 1 2.180635 2.616443 61.841705
213 0 1 1.576768 2.057883 61.421112
214 0 1 1.337724 1.361094 60.816895
215 0 1 0.741307 0.586185 60.782013
216 0 1 0.340078 1.296433 61.230499
217 0 1 0.005246 2.000674 60.701294
218 0 1 -0.837645 1.730014 60.992798
219 0 1 -1.060775 0.781734 60.779907
220 0 1 -1.640315 0.087974 60.634216
221 0 1 -1.343932 -0.430387 59.873901
222 0 1 -2.174262 -0.904237 59.991516
223 0 1 -2.389735 -0.253627 59.334290
224 0 1 -2.565192 0.542834 58.802185
225 0 1 -2.361243 1.437453 58.935394
226 0 1 -2.870974 1.387704 59.815002
227 0 1 -3.685595 1.885764 59.721405
228 0 1 -3.998584 2.180583 58.780792
229 0 1 -3.229735 2.757394 58.560486
230 0 1 -3.419165 2.862674 57.627106
231 0 1 -3.081164 2.215472 56.960083
232 0 1 -2.125525 2.298783 56.728210
233 0 1 -1.781333 1.632573 56.026611
234 0 1 -2.583464 1.924394 55.454498
235 0 1 -3.441462 2.222133 54.999298
236 0 1 -2.966712 1.494134 54.656891
237 0 1 -3.097823 0.724322 54.072601
238 0 1 -3.406443 0.265532 54.815002
239 0 1 -3.300032 -0.679936 55.013306
240 0 1 -3.964003 -1.288497 54.807495
241 0 1 -4.867682 -1.637826 54.841003
242 0 1 -4.240825 -2.318686 55.097992
243 0 1 -4.281425 -2.711186 54.229004
244 0 1 -3.929015 -2.084096 53.672791
245 0 1 -3.872203 -2.523786 52.775787
246 0 1 -3.251475 -3.298186 52.729797
247 0 1 -3.910926 -3.686486 53.318390
248 0 1 -4.107696 -4.547187 52.893097
249 0 1 -4.793056 -5.059287 52.319000
250 0 1 -5.205375 -4.384088 51.743103
251 0 1 -5.677436 -5.152787 51.281311
252 0 1 -6.462855 -5.652486 50.865112
253 0 1 -6.405585 -4.737187 50.459595
254 0 1 -7.030765 -4.432187 49.785706
255 0 1 -6.498954 -4.339585 49.004608
256 0 1 -6.696275 -3.927587 48.080994
257 0 1 -6.062083 -4.612287 47.825012
258 0 1 -5.565433 -3.824887 48.154114
259 0 1 -4.907783 -3.439286 47.545197
260 0 1 -4.443755 -3.056188 48.362793
261 0 1 -3.912665 -3.096486 47.515106
262 0 1 -2.945304 -3.250188 47.560486
263 0 1 -2.651946 -2.525086 47.058990
264 0 1 -2.936473 -1.811517 46.454285
265 0 1 -3.286055 -2.503886 45.891998
266 0 1 -3.595282 -1.638738 45.697815
267 0 1 -3.638732 -1.504457 44.757294
268 0 1 -2.972983 -0.837808 45.002411
269 0 1 -2.258124 -1.049767 45.657196
270 0 1 -1.413642 -0.799987 46.001312
271 0 1 -0.500895 -1.089437 46.314911
272 0 1 0.247075 -1.512258 45.867889
273 0 1 0.424127 -1.666467 44.994598
274 0 1 -0.455802 -1.547896 44.703186
275 0 1 -0.160102 -1.686086 43.854309
276 0 1 0.017736 -0.680547 43.729095
277 0 1 -0.175994 -0.394128 44.624908
278 0 1 -0.291373 0.405133 45.019714
279 0 1 -0.549205 0.388793 45.962708
280 0 1 -1.198703 0.116704 45.299408
281 0 1 -1.688163 0.812663 44.859406
282 0 1 -1.047713 1.531592 44.927795
283 0 1 -0.395743 2.132773 45.309814
284 0 1 -0.814322 1.881444 46.075012
285 0 1 -0.612613 2.035573 46.987091
286 0 1 -1.157504 1.328553 47.382599
287 0 1 -1.212664 2.101153 47.975006
288 0 1 -0.980365 1.235354 48.419708
289 0 1 -1.183802 0.891063 49.259003
290 0 1 -0.481513 1.528264 49.550812
291 0 1 0.455095 1.232303 49.757812
292 0 1 0.362596 1.449353 50.693909
293 0 1 0.744985 1.019063 51.535583
294 0 1 1.625245 1.438914 51.640991
295 0 1 2.533437 1.752873 51.570190
296 0 1 3.446336 1.879964 51.832703
297 0 1 3.772638 1.039813 52.050995
298 0 1 4.412934 1.044383 52.729614
299 0 1 4.640737 0.291183 52.179016
300 0 1 5.313737 -0.187766 52.780609
301 0 1 5.798535 0.633914 52.945099
302 0 1 6.073735 1.489253 53.320801
303 0 1 5.066636 1.558864 53.366608
304 0 1 5.282838 1.962434 52.545990
305 0 1 5.776937 2.785403 52.491699
306 0 1 5.863736 3.440475 53.203186
307 0 1 5.409535 3.891124 53.943298
308 0 1 4.494237 3.585223 53.732697
309 0 1 3.712037 3.986203 53.384216
310 0 1 3.373037 4.836923 53.582092
311 0 1 3.186136 5.689023 53.083313
312 0 1 2.835534 6.375203 53.704498
313 0 1 3.571534 6.973117 53.819000
314 0 1 2.944436 7.666589 53.645111
315 0 1 2.559736 8.217000 52.939087
316 0 1 2.066835 8.675616 52.145203
317 0 1 2.538438 9.575332 52.254211
318 0 1 2.235337 9.808043 53.208191
319 0 1 1.607476 10.514892 53.252899
320 0 1 1.514047 11.440925 53.383392
321 0 1 2.097436 11.607364 54.113708
322 0 1 2.165338 11.120364 54.974487
323 0 1 1.416444 11.123702 55.482605
324 0 1 1.482896 11.483085 56.378387
325 0 1 1.278756 11.988803 57.198090
326 0 1 2.128137 12.414264 57.493988
327 0 1 1.639215 12.969573 58.097809
328 0 1 1.671426 13.838092 58.494385
329 0 1 2.627736 13.804183 58.368500
330 0 1 2.698236 14.424045 57.656799
331 0 1 2.358136 14.839595 56.891296
332 0 1 1.951638 14.556151 56.082092
333 0 1 2.484834 15.307872 55.909485
334 0 1 1.945836 16.171833 55.667786
335 0 1 1.442166 16.289906 54.892303
336 0 1 0.676957 16.911636 54.762909
337 0 1 0.420316 16.452866 53.928589
338 0 1 1.251954 17.073616 53.815094
339 0 1 1.510888 17.630333 54.516388
340 0 1 1.158006 18.339417 53.905396
341 0 1 1.772725 17.815914 53.350403
342 0 1 2.285535 18.602814 53.613708
343 0 1 2.885835 18.691715 52.816498
344 0 1 3.487836 19.362816 53.156799
345 0 1 3.719136 19.573513 52.252197
346 0 1 4.600636 19.417515 52.668304
347 0 1 5.020738 18.540314 52.565186
348 0 1 5.345235 18.120014 53.403900
349 0 1 6.069535 18.781715 53.701416
350 0 1 6.464337 19.613014 53.262909
351 0 1 6.767735 20.063915 54.019287
352 0 1 7.441438 19.461212 54.327515
353 0 1 8.336236 19.636215 54.014404
354 0 1 8.939736 19.909615 54.782410
355 0 1 8.133836 19.860413 55.299805
356 0 1 7.999036 19.114616 55.946198
357 0 1 7.310037 19.343914 56.577209
358 0 1 7.182637 20.157616 56.004211
359 0 1 6.268537 20.448013 56.016907
360 0 1 6.200036 20.852314 55.151703
361 0 1 6.867234 21.011215 54.496887
362 0 1 6.138837 21.588913 54.344696
363 0 1 5.947038 22.365913 53.853302
364 0 1 6.230237 22.648815 54.746704
365 0 1 6.752637 23.064915 54.060089
366 0 1 7.001237 23.751213 54.598511
367 0 1 7.082734 24.689415 54.603210
368 0 1 6.113736 24.675014 54.347290
369 0 1 5.259538 24.729317 53.838104
370 0 1 5.141637 24.018715 53.163086
371 0 1 4.473634 23.299713 52.923584
372 0 1 3.475435 23.462616 52.980194
373 0 1 3.593034 22.576115 52.700409
374 0 1 2.639737 22.805115 52.697388
375 0 1 1.987138 22.974915 52.018005
376 0 1 1.633466 22.599514 52.837402
377 0 1 1.037015 21.865314 52.514008
378 0 1 0.161935 21.483315 52.227600
379 0 1 -0.536654 21.972015 51.820892
380 0 1 -0.873393 21.040615 51.713898
381 0 1 -0.508494 20.107315 51.499084
382 0 1 -0.916194 20.453217 50.658905
383 0 1 -1.021373 20.476414 49.665009
384 0 1 -1.450545 19.842316 49.067413
385 0 1 -1.591742 19.389713 48.254913
386 0 1 -1.321982 18.441013 48.381195
387 0 1 -0.464244 18.108414 48.799591
388 0 1 -1.196753 17.888813 49.394012
389 0 1 -0.885714 18.427013 50.153290
390 0 1 -0.510615 18.884613 50.889191
391 0 1 0.199304 19.468613 50.647705
392 0 1 0.801686 18.777214 50.520599
393 0 1 0.843225 19.406113 49.785095
394 0 1 1.273595 20.173115 50.170990
395 0 1 2.170038 20.579815 50.130615
396 0 1 2.833436 19.937115 49.784607
397 0 1 3.549737 19.340313 49.431091
398 0 1 4.461537 19.464314 49.248596
399 0 1 4.337136 20.291412 48.763489
400 0 1 4.694936 21.128716 48.935089
401 0 1 3.813035 21.082916 48.455597
402 0 1 4.278836 21.626415 47.854004
403 0 1 5.050336 21.787514 47.266693
404 0 1 5.888238 21.298115 47.361908
405 0 1 6.597238 21.015816 46.780884
406 0 1 6.155736 20.185013 46.463989
407 0 1 5.641736 19.586716 45.965210
408 0 1 5.768636 19.786213 45.062195
409 0 1 5.820035 18.844215 44.770111
410 0 1 5.048337 18.527016 44.201111
411 0 1 4.681836 18.956215 45.012512
412 0 1 5.062535 18.081413 45.242401
413 0 1 5.928136 18.073513 45.689911
414 0 1 6.032636 17.491356 44.933411
415 0 1 6.737634 16.807434 44.746307
416 0 1 5.907937 16.278145 44.757294
417 0 1 5.043336 16.508514 44.395905
418 0 1 5.016335 17.193436 43.785400
419 0 1 5.738835 16.998146 43.111206
420 0 1 6.362535 17.708946 43.339905
421 0 1 6.763337 16.907394 43.136414
422 0 1 7.448434 16.212723 42.935913
423 0 1 8.062234 15.455283 43.222900
424 0 1 8.199838 15.012435 44.022095
425 0 1 8.055139 15.337504 44.909790
426 0 1 7.948335 14.392913 44.995605
427 0 1 8.723836 13.880492 45.181305
428 0 1 9.042733 13.583812 44.312317
429 0 1 9.527238 14.360724 44.059387
430 0 1 10.290135 13.930163 43.744202
431 0 1 10.172536 14.676463 43.157013
432 0 1 9.693536 14.537433 42.381195
433 0 1 9.315835 14.465884 41.550415
434 0 1 9.292138 13.527602 41.536407
435 0 1 9.546037 12.584563 41.761810
436 0 1 9.832936 11.848823 42.333710
437 0 1 8.871438 11.706645 42.338989
438 0 1 9.282537 10.970233 41.891510
439 0 1 9.199838 10.027965 41.590302
440 0 1 9.727433 9.712523 40.847290
441 0 1 9.799539 9.780765 39.946503
442 0 1 9.577134 9.871154 39.019287
443 0 1 9.263337 9.361255 38.306213
444 0 1 8.489636 9.244693 38.910706
445 0 1 8.153634 8.790673 38.119385
446 0 1 8.187234 7.990474 37.561798
447 0 1 7.320436 8.291440 37.926392
448 0 1 6.892137 8.555144 37.100494
449 0 1 6.114736 8.497088 37.733215
450 0 1 5.974336 7.915021 38.470398
451 0 1 6.248437 8.747184 38.880402
452 0 1 6.937737 8.112584 39.148499
453 0 1 7.684037 7.498521 39.183105
454 0 1 6.863835 7.061069 38.733215
455 0 1 6.719335 6.361863 39.496887
456 0 1 6.609635 5.314824 39.375092
457 0 1 6.950837 5.268834 38.519714
458 0 1 7.309335 4.405803 38.772308
459 0 1 7.900834 4.735883 39.432800
460 0 1 7.536637 3.811133 39.584900
461 0 1 7.428037 2.929954 39.174500
462 0 1 7.063336 3.093783 38.282593
463 0 1 7.058137 2.128774 38.254517
464 0 1 6.359036 1.644193 38.722595
465 0 1 6.679635 0.767554 38.399506
466 0 1 6.046735 1.110793 37.676086
467 0 1 5.175134 0.828084 37.178009
468 0 1 5.826638 1.330453 36.583496
469 0 1 5.202134 0.948403 35.925201
470 0 1 5.339837 0.516534 35.080505
471 0 1 5.924737 0.991363 34.381012
472 0 1 5.288236 0.559743 33.816589
473 0 1 5.111936 -0.347978 33.621490
474 0 1 5.180837 -1.130776 33.064911
475 0 1 5.411134 -1.577306 33.854004
476 0 1 5.994435 -2.231566 34.104095
477 0 1 6.990636 -2.339086 34.335907
478 0 1 6.601235 -2.666886 35.126495
479 0 1 5.682736 -2.846787 34.976685
480 0 1 5.444634 -2.597287 35.847107
481 0 1 4.717034 -2.528987 36.471710
482 0 1 4.082734 -1.852868 36.325806
483 0 1 3.842336 -2.582288 35.716187
484 0 1 2.976335 -2.309087 35.477692
485 0 1 2.455835 -2.193616 34.753998
486 0 1 3.008538 -2.338185 33.915405
487 0 1 2.164537 -2.477687 33.542786
488 0 1 1.334966 -2.573487 33.958893
489 0 1 1.157228 -3.379586 33.450287
490 0 1 0.477678 -2.936288 32.959290
491 0 1 0.548886 -3.495486 32.215210
492 0 1 1.061036 -2.692487 31.835999
493 0 1 1.476796 -3.424287 31.277710
494 0 1 2.429635 -3.394586 31.530212
495 0 1 3.270635 -3.699986 31.099915
496 0 1 3.820035 -4.599887 31.062805
497 0 1 3.534738 -5.184087 31.734192
498 0 1 2.866838 -5.715486 32.220886
499 0 1 2.034936 -5.361188 31.838287
500 0 1 2.371034 -6.181586 31.367310
501 0 1 2.371438 -6.693486 30.575989
502 0 1 1.562638 -7.117887 30.879089
503 0 1 0.789476 -7.318387 30.425415
504 0 1 0.921365 -6.415586 30.053589
505 0 1 0.427194 -5.747685 29.549103
506 0 1 0.357076 -4.816287 29.861298
507 0 1 1.002217 -4.977387 29.127014
508 0 1 1.219285 -4.062287 28.947998
509 0 1 0.945157 -3.456286 28.262207
510 0 1 1.785787 -3.512486 27.740387
511 0 1 2.326135 -4.096086 28.312592
512 0 1 2.046735 -4.855187 27.675293
513 0 1 2.695737 -5.447488 27.315704
514 0 1 2.258737 -5.311585 26.395508
515 0 1 2.923936 -5.304486 25.691101
516 0 1 3.352536 -4.866788 24.901184
517 0 1 3.859536 -4.130187 25.127106
518 0 1 3.447236 -3.785287 24.282501
519 0 1 3.690137 -4.297986 23.504913
520 0 1 3.919038 -4.887286 22.785400
521 0 1 4.142537 -5.802087 23.199585
522 0 1 3.871637 -6.344586 23.936188
523 0 1 3.388936 -5.985187 24.658691
524 0 1 3.109636 -5.512387 23.850403
525 0 1 3.016835 -6.041387 23.020905
526 0 1 2.810136 -6.929687 23.335297
527 0 1 2.448735 -7.634787 22.677795
528 0 1 2.917836 -8.607886 22.543304
529 0 1 2.593137 -9.058986 23.342499
530 0 1 3.571237 -9.369887 23.200012
531 0 1 4.560636 -9.107987 23.308716
532 0 1 4.749238 -9.489186 24.183289
533 0 1 3.986837 -9.997386 24.566010
534 0 1 3.239736 -9.838786 25.137787
535 0 1 2.511438 -9.952888 24.527893
536 0 1 2.229837 -10.688087 24.008209
537 0 1 1.678765 -11.446588 23.951691
538 0 1 1.152295 -10.779086 23.480408
539 0 1 0.763356 -9.997586 23.985291
540 0 1 0.211816 -9.117486 24.111206
541 0 1 0.664907 -8.459687 24.713684
542 0 1 0.146287 -7.766787 25.203888
543 0 1 -0.246943 -7.607286 26.115112
544 0 1 -1.060145 -8.173487 26.106384
545 0 1 -0.925685 -8.822988 25.372406
546 0 1 -1.559775 -8.360187 24.710999
547 0 1 -2.185023 -9.065988 24.812897
548 0 1 -2.777434 -8.948386 24.063812
549 0 1 -2.510573 -8.084786 23.756805
550 0 1 -3.199984 -7.640986 23.237610
551 0 1 -3.904174 -7.027587 23.041504
552 0 1 -4.482665 -7.546487 23.603607
553 0 1 -4.997344 -7.019787 24.194702
554 0 1 -5.360354 -7.908887 24.216705
555 0 1 -5.966582 -7.616687 23.518494
556 0 1 -6.868934 -7.940387 23.457794
557 0 1 -7.256764 -7.429787 22.697815
558 0 1 -7.980931 -7.199186 22.143204
559 0 1 -7.363048 -7.026687 21.387299
560 0 1 -6.919394 -6.861687 20.605408
561 0 1 -6.420856 -7.401486 21.149902
562 0 1 -5.433784 -7.291986 21.156601
563 0 1 -5.723414 -8.172687 21.036102
564 0 1 -4.842715 -8.359487 20.510300
565 0 1 -3.860583 -8.255187 20.281601
566 0 1 -3.778754 -9.191787 20.107498
567 0 1 -3.958503 -9.024686 19.126099
568 0 1 -4.367183 -8.803086 18.227692
569 0 1 -5.196414 -9.226087 18.276505
570 0 1 -6.173594 -9.074986 18.442505
571 0 1 -6.997563 -9.552886 18.441299
572 0 1 -6.734254 -9.522388 17.527298
573 0 1 -5.831573 -9.944686 17.485794
574 0 1 -5.900474 -10.857186 17.004807
575 0 1 -6.308944 -10.229587 16.319595
576 0 1 -6.304034 -9.269786 15.996307
577 0 1 -6.279185 -9.133887 15.067001
578 0 1 -6.746493 -9.799787 14.548798
579 0 1 -5.791816 -10.147487 14.668701
580 0 1 -6.451983 -10.866187 14.506104
581 0 1 -6.284545 -11.633586 14.024704
582 0 1 -6.685454 -12.173587 14.638596
583 0 1 -6.098353 -12.749187 15.143005
584 0 1 -6.382503 -13.598987 15.447800
585 0 1 -7.291137 -14.015187 15.267303
586 0 1 -7.477239 -14.562387 16.120804
587 0 1 -7.357280 -14.280387 17.041000
588 0 1 -8.290008 -14.028987 17.098404
589 0 1 -9.037908 -13.537986 17.423294
590 0 1 -8.736754 -12.661086 17.744400
591 0 1 -9.208034 -12.214187 18.439194
592 0 1 -8.885762 -11.258786 18.575897
593 0 1 -8.483047 -11.414187 19.462708
594 0 1 -7.941495 -10.861787 20.005997
595 0 1 -7.304236 -11.327188 19.462601
596 0 1 -6.516852 -10.789287 19.149094
597 0 1 -6.483294 -11.613486 18.720306
598 0 1 -6.991195 -12.130086 18.096603
599 0 1 -6.047965 -11.987086 17.774704
600 0 1 -6.001224 -12.633687 18.473801
601 0 1 -5.046412 -12.893987 18.447693
602 0 1 -4.424033 -12.172986 18.411301
603 0 1 -3.813636 -12.752687 17.893097
604 0 1 -4.636233 -12.595187 17.314896
605 0 1 -4.489936 -11.689786 17.097900
606 0 1 -4.035403 -11.049687 17.653397
607 0 1 -3.289443 -11.401986 17.059296
608 0 1 -3.812522 -11.749288 16.333496
609 0 1 -3.248614 -11.420386 15.614899
610 0 1 -2.760894 -10.592086 15.802795
611 0 1 -1.819472 -10.267587 15.700806
612 0 1 -1.503806 -10.001086 14.812103
613 0 1 -1.589023 -9.026986 14.904404
614 0 1 -1.823245 -8.135186 14.841599
615 0 1 -2.680903 -7.726187 14.639801
616 0 1 -3.380664 -7.907187 13.977402
617 0 1 -2.842105 -8.079186 13.231796
618 0 1 -3.163943 -8.917287 13.581100
619 0 1 -2.347396 -8.841987 13.985901
620 0 1 -1.781165 -9.607686 13.850906
621 0 1 -1.316653 -9.775187 13.025803
622 0 1 -0.469264 -9.932487 12.570694
623 0 1 0.309697 -9.466987 12.093704
624 0 1 0.954236 -9.727387 11.434296
625 0 1 1.243028 -8.857087 11.629501
626 0 1 0.701844 -8.156087 11.415100
627 0 1 0.521016 -7.520587 10.750900
628 0 1 1.409715 -7.366286 10.433395
629 0 1 2.172937 -6.848886 10.147293
630 0 1 3.126237 -6.680287 10.080795
631 0 1 3.680936 -6.944386 9.297012
632 0 1 3.137937 -6.354787 8.744965
633 0 1 3.905938 -6.447186 8.181503
634 0 1 3.634237 -7.251487 7.796295
635 0 1 3.501436 -8.111887 8.190826
636 0 1 4.171937 -8.481887 7.683685
637 0 1 4.936837 -8.190487 8.133423
638 0 1 5.302438 -8.897487 8.713287
639 0 1 5.465638 -9.393586 7.943665
640 0 1 5.714437 -10.269286 8.063828
641 0 1 6.247338 -11.008487 7.660599
642 0 1 7.011537 -11.617187 7.658203
643 0 1 7.700234 -11.374288 8.317017
644 0 1 8.160935 -12.024686 7.760117
645 0 1 9.127534 -12.071687 7.583939
646 0 1 8.848935 -12.967986 7.704758
647 0 1 9.543237 -13.231986 8.332153
648 0 1 10.464837 -12.988387 8.224747
649 0 1 10.548036 -12.867587 7.298615
650 0 1 10.533536 -13.119786 6.382294
651 0 1 11.449739 -13.130486 6.705048
652 0 1 11.281533 -13.886487 6.130066
653 0 1 10.713635 -13.657287 5.357269
654 0 1 10.739236 -13.058986 4.627335
655 0 1 10.559533 -13.607186 3.883423
656 0 1 9.836434 -14.171086 3.773865
657 0 1 9.290036 -14.518586 4.485153
658 0 1 8.359036 -14.746387 4.343384
659 0 1 7.542535 -15.280887 4.097916
660 0 1 7.821237 -16.070986 4.632156
661 0 1 8.652734 -15.756988 4.905060
662 0 1 8.726037 -15.557786 5.899261
663 0 1 8.222836 -15.823586 6.656296
664 0 1 7.312837 -16.288986 6.897217
665 0 1 6.389436 -16.201385 7.153687
666 0 1 6.495236 -15.688188 7.960266
667 0 1 6.804338 -14.772286 8.068787
668 0 1 6.197236 -14.560187 8.822098
669 0 1 5.680135 -14.511487 8.009125
670 0 1 5.187234 -14.949487 8.679993
671 0 1 4.448838 -15.537686 8.332047
672 0 1 3.485337 -15.468787 8.313675
673 0 1 2.593034 -15.798686 8.180344
674 0 1 1.797307 -15.308087 8.255646
675 0 1 1.340066 -15.184487 7.375549
676 0 1 0.486695 -14.696486 7.013275
677 0 1 0.894666 -13.898887 6.920837
678 0 1 1.809396 -14.155887 6.606796
679 0 1 1.499017 -14.161887 5.692062
680 0 1 1.922635 -14.017587 4.812714
681 0 1 1.849618 -13.383286 4.092880
682 0 1 1.141976 -13.121787 4.666565
683 0 1 0.936204 -12.268487 4.941315
684 0 1 0.466745 -11.464587 5.243423
685 0 1 -0.304225 -10.987687 4.932999
686 0 1 -0.677733 -11.857087 4.738617
687 0 1 -1.392295 -11.651086 5.257690
688 0 1 -2.030265 -11.199286 5.774445
689 0 1 -2.620375 -10.748986 5.129944
690 0 1 -2.714663 -11.002986 4.202072
691 0 1 -3.199054 -10.270886 3.734467
692 0 1 -2.319693 -10.170587 3.379837
693 0 1 -1.545073 -10.289287 2.767105
694 0 1 -0.910933 -9.721387 2.382248
695 0 1 -0.460303 -9.195786 3.072113
696 0 1 -0.648322 -8.732987 3.903076
697 0 1 -1.488803 -8.569186 3.332703
698 0 1 -1.114024 -7.729687 3.511200
699 0 1 -1.547736 -7.392787 4.330200
700 0 1 -1.746585 -8.128787 4.898300
701 0 1 -1.627353 -9.082187 5.084183
702 0 1 -2.469886 -8.682786 5.361465
703 0 1 -2.710715 -8.795186 4.491486
704 0 1 -3.228286 -8.099787 4.900574
705 0 1 -4.050624 -8.591086 4.993896
706 0 1 -3.980223 -7.782587 5.453476
707 0 1 -4.876136 -7.398787 5.197418
708 0 1 -5.657725 -7.771887 5.591812
709 0 1 -5.492843 -8.074786 6.492386
710 0 1 -4.690955 -8.646287 6.339005
711 0 1 -5.197986 -9.095887 5.645050
712 0 1 -5.571456 -8.952287 4.725235
713 0 1 -6.225215 -8.336587 4.876953
714 0 1 -6.813014 -8.566886 5.698227
715 0 1 -7.419557 -8.375186 4.969269
716 0 1 -7.631223 -7.433887 5.167557
717 0 1 -8.597512 -7.594486 5.184753
718 0 1 -9.577773 -7.776887 5.160736
719 0 1 -9.135283 -8.534886 4.750687
720 0 1 -8.738326 -9.123687 5.416931
721 0 1 -9.303004 -9.839986 5.803299
722 0 1 -9.579404 -10.806586 5.934418
723 0 1 -10.418765 -10.233687 6.121277
724 0 1 -11.275723 -9.756587 6.514435
725 0 1 -10.691274 -9.018786 6.306534
726 0 1 -11.223594 -8.365687 6.668533
727 0 1 -12.157714 -8.799087 6.682297
728 0 1 -12.513965 -9.290387 5.697083
729 0 1 -11.913375 -9.369786 4.989838
730 0 1 -11.441455 -9.513486 4.134811
731 0 1 -11.730895 -10.209188 3.573502
732 0 1 -12.517934 -9.915086 3.055496
733 0 1 -11.598014 -9.720786 2.634125
734 0 1 -11.505754 -8.973487 2.005814
735 0 1 -11.923074 -8.457088 2.678452
736 0 1 -11.571275 -7.541387 3.018006
737 0 1 -11.067924 -6.807587 2.844055
738 0 1 -11.171935 -6.073888 2.257584
739 0 1 -11.885804 -6.486987 1.788056
740 0 1 -12.618474 -6.997387 1.637406
741 0 1 -13.424455 -6.710385 1.195664
742 0 1 -13.128253 -5.801785 1.074082
743 0 1 -13.418155 -5.570086 0.162720
744 0 1 -14.244985 -5.687985 -0.397095
745 0 1 -15.092334 -5.960887 0.078537
746 0 1 -15.896964 -5.997087 0.612610
747 0 1 -15.812894 -5.763486 1.582855
748 0 1 -16.472183 -6.439088 1.539505
749 0 1 -16.632162 -5.830987 2.341294
750 0 1 -17.528593 -6.072286 2.627075
751 0 1 -17.869394 -5.933887 1.787659
752 0 1 -18.536562 -5.378587 2.205277
753 0 1 -18.690063 -4.456687 2.016541
754 0 1 -17.889833 -4.089986 2.372315
755 0 1 -17.375124 -3.686585 3.034470
756 0 1 -17.942863 -3.014087 2.649979
757 0 1 -18.608063 -2.915887 1.936096
758 0 1 -18.457964 -2.168088 1.448883
759 0 1 -17.471533 -2.162488 1.494583
760 0 1 -16.698824 -2.877887 1.278366
761 0 1 -16.776854 -3.763787 0.741776
762 0 1 -16.310543 -3.837186 -0.116211
763 0 1 -16.767273 -3.071786 -0.409592
764 0 1 -17.732092 -3.342486 -0.498932
765 0 1 -17.680872 -3.367986 -1.481689
766 0 1 -17.265423 -2.838788 -2.221222
767 0 1 -17.975643 -2.708688 -2.902054
768 0 1 -17.669794 -1.768037 -3.105972
769 0 1 -16.911844 -2.326188 -3.515503
770 0 1 -16.326502 -3.028886 -3.899643
771 0 1 -16.175814 -2.649285 -4.751892
772 0 1 -15.908093 -3.225387 -5.485367
773 0 1 -16.652292 -3.773088 -5.977173
774 0 1 -16.097263 -3.400287 -6.686844
775 0 1 -16.097902 -2.675385 -7.316467
776 0 1 -16.169794 -2.039556 -8.049362
777 0 1 -16.685303 -1.517497 -8.676025
778 0 1 -17.321533 -0.837987 -8.564697
779 0 1 -17.383722 -0.694318 -7.560715
780 0 1 -16.355814 -0.934297 -7.579407
781 0 1 -15.434333 -0.765697 -7.330490
782 0 1 -15.580274 -0.326827 -6.467133
783 0 1 -15.271964 0.524323 -6.155792
784 0 1 -15.753015 1.159574 -6.701233
785 0 1 -16.352182 1.840873 -7.056259
786 0 1 -16.633314 2.173244 -6.207153
787 0 1 -17.271452 2.510373 -5.549805
788 0 1 -17.605963 3.112403 -6.209045
789 0 1 -17.175533 3.600963 -5.508835
790 0 1 -17.044693 4.011613 -6.387207
791 0 1 -16.500834 3.247113 -6.233749
792 0 1 -15.958625 3.955203 -6.678650