LAMMPS data file via MDAnalysis

        2000  atoms
        1999  bonds
           0  angles
           0  dihedrals
           0  impropers

           1  atom types
           1  bond types
           0  angle types
           0  dihedral types
           0  improper types

-30.5 30.5 xlo xhi
-30.5 30.5 ylo yhi
-233.5 233.5 zlo zhi


Masses

1 1.000000

Atoms

1 0 1 -5.657984 8.780216 62.128906
2 0 1 -5.679174 7.907738 62.335693
3 0 1 -5.941454 7.644634 63.166595
4 0 1 -5.675755 6.712265 63.223389
5 0 1 -5.365515 6.731747 62.367615
6 0 1 -4.583754 6.818375 61.902100
7 0 1 -4.586294 7.790386 61.771484
8 0 1 -4.495773 8.233585 60.962006
9 0 1 -4.756535 9.130585 60.786591
10 0 1 -5.485233 8.683685 60.419006
11 0 1 -5.018795 8.699287 59.535889
12 0 1 -4.457064 8.945278 58.704285
13 0 1 -3.703125 8.502617 58.204498
14 0 1 -2.883625 7.959457 58.262512
15 0 1 -3.537785 7.255737 58.393707
16 0 1 -4.332794 7.565807 57.935303
17 0 1 -5.069195 7.634148 58.537903
18 0 1 -5.949295 7.921387 58.200592
19 0 1 -6.147884 8.756416 57.662598
20 0 1 -7.042553 9.102436 57.628784
21 0 1 -8.079105 9.012287 57.855011
22 0 1 -8.877964 8.505386 57.682495
23 0 1 -8.306873 7.753017 57.390686
24 0 1 -8.736805 6.859486 57.323090
25 0 1 -8.274775 6.049057 56.955017
26 0 1 -8.161495 5.894917 55.993103
27 0 1 -7.403183 6.330807 55.572510
28 0 1 -7.024914 5.602535 55.142517
29 0 1 -7.887554 5.118887 55.051605
30 0 1 -8.151054 4.305408 55.401489
31 0 1 -7.216244 4.201399 55.146301
32 0 1 -7.512764 4.085011 54.233704
33 0 1 -7.988533 3.335772 54.587708
34 0 1 -8.819935 3.514456 54.160797
35 0 1 -9.271664 3.868336 53.485901
36 0 1 -9.603065 4.688906 53.214996
37 0 1 -10.371605 4.564455 53.872589
38 0 1 -11.263004 4.711515 54.088593
39 0 1 -11.597504 4.343306 53.290192
40 0 1 -12.441404 4.824257 53.097900
41 0 1 -12.830704 4.502529 52.258392
42 0 1 -13.052204 4.202641 51.356110
43 0 1 -12.442104 3.433989 51.222595
44 0 1 -12.041603 4.358585 51.444092
45 0 1 -11.713703 5.283215 51.286591
46 0 1 -10.924706 5.777008 51.025604
47 0 1 -10.667604 6.273205 50.318207
48 0 1 -9.804014 6.006588 50.050812
49 0 1 -9.948454 5.928627 49.134216
50 0 1 -9.914564 6.826416 48.878906
51 0 1 -9.501635 7.731777 48.684113
52 0 1 -8.789093 7.261406 49.181396
53 0 1 -8.621265 7.162006 48.240295
54 0 1 -7.646025 7.185738 48.159393
55 0 1 -7.877495 6.722958 49.004395
56 0 1 -7.484573 5.948296 49.343201
57 0 1 -7.108494 5.375027 50.076416
58 0 1 -6.871574 4.566847 49.684692
59 0 1 -7.769014 4.232485 49.650208
60 0 1 -8.333103 3.513853 49.399597
61 0 1 -7.531794 3.197146 49.856384
62 0 1 -8.269135 3.099905 50.448212
63 0 1 -7.543404 2.552077 50.733887
64 0 1 -7.575745 1.604286 50.663208
65 0 1 -7.807875 0.678686 50.721100
66 0 1 -7.279003 0.378517 49.950195
67 0 1 -6.614353 -0.207613 50.136414
68 0 1 -6.979574 -0.895122 50.707397
69 0 1 -6.491514 -1.432264 50.132812
70 0 1 -6.385294 -1.653183 49.180115
71 0 1 -7.361885 -1.762243 49.088013
72 0 1 -7.925154 -1.312593 49.822815
73 0 1 -7.864365 -2.237283 50.027313
74 0 1 -6.910744 -2.518394 50.171295
75 0 1 -6.646164 -3.362663 49.796600
76 0 1 -7.257713 -3.479275 49.106110
77 0 1 -6.967073 -2.684784 48.688110
78 0 1 -6.960533 -2.907274 47.695007
79 0 1 -6.087894 -2.570633 47.836700
80 0 1 -5.477924 -1.862203 47.834106
81 0 1 -4.523924 -1.650844 47.956696
82 0 1 -4.460474 -1.410053 48.902405
83 0 1 -3.600254 -1.784754 49.230499
84 0 1 -3.064045 -0.904043 49.191193
85 0 1 -2.839893 -1.008974 48.267792
86 0 1 -3.583054 -0.660553 47.694092
87 0 1 -4.228304 0.051056 47.935303
88 0 1 -3.859074 0.904707 48.072601
89 0 1 -4.230204 1.541567 47.424194
90 0 1 -3.721254 2.416188 47.258484
91 0 1 -3.082954 1.695887 47.606384
92 0 1 -2.150814 1.905926 47.528687
93 0 1 -2.176603 2.627598 46.917694
94 0 1 -2.105635 1.994606 46.213287
95 0 1 -2.447035 1.281187 45.717987
96 0 1 -2.753223 0.553316 45.184814
97 0 1 -3.283943 0.509895 45.966003
98 0 1 -4.196224 0.754496 45.977509
99 0 1 -4.560064 0.447327 45.174988
100 0 1 -5.280235 0.297127 45.845795
101 0 1 -5.975615 0.571066 45.343201
102 0 1 -6.341034 -0.051653 45.949097
103 0 1 -6.071404 -0.784143 45.377808
104 0 1 -6.999935 -1.128904 45.404114
105 0 1 -7.106134 -2.045974 45.375183
106 0 1 -7.266354 -2.417473 46.196106
107 0 1 -7.337364 -2.076153 47.055908
108 0 1 -8.115665 -1.517393 46.799591
109 0 1 -8.736103 -1.592773 47.492615
110 0 1 -9.566715 -1.263334 47.134399
111 0 1 -9.158724 -0.568144 46.525391
112 0 1 -8.684883 0.095165 47.028992
113 0 1 -7.887955 0.374167 46.570709
114 0 1 -7.538013 1.178146 46.956909
115 0 1 -8.293034 1.760037 46.708496
116 0 1 -7.986355 2.652455 46.899292
117 0 1 -7.164774 2.455467 46.443207
118 0 1 -7.400845 2.862818 45.658386
119 0 1 -8.324234 3.011669 45.375702
120 0 1 -9.258343 3.293705 45.513184
121 0 1 -9.809525 2.693367 45.054688
122 0 1 -9.212685 2.041777 45.477203
123 0 1 -9.467754 1.084507 45.325195
124 0 1 -9.353785 0.748116 44.451294
125 0 1 -8.446394 0.542166 44.071503
126 0 1 -8.077824 0.227177 43.208405
127 0 1 -7.758284 -0.224983 43.992096
128 0 1 -8.142975 -0.993713 43.549500
129 0 1 -7.423805 -1.531143 43.252106
130 0 1 -6.649593 -1.165674 43.631805
131 0 1 -6.532204 -0.425413 44.226501
132 0 1 -6.263334 0.479546 44.067291
133 0 1 -5.953894 1.381876 43.935303
134 0 1 -5.954063 1.675406 43.059296
135 0 1 -5.387274 2.268147 43.562592
136 0 1 -5.031544 3.076542 43.889801
137 0 1 -4.336124 2.417916 44.176514
138 0 1 -4.027023 2.782547 43.229095
139 0 1 -3.344265 2.093506 43.301605
140 0 1 -2.641933 1.589867 42.793610
141 0 1 -2.108185 2.343506 42.559601
142 0 1 -2.347685 3.225954 42.394989
143 0 1 -1.430264 3.504835 42.163208
144 0 1 -1.683695 3.319395 41.222900
145 0 1 -2.529234 3.220314 40.695099
146 0 1 -2.883705 2.365027 40.537811
147 0 1 -3.716784 2.049717 40.123413
148 0 1 -3.172415 1.705196 39.371307
149 0 1 -4.103893 1.761496 39.259796
150 0 1 -4.897865 1.769566 39.631287
151 0 1 -5.113674 1.357157 38.710999
152 0 1 -4.713623 1.756447 38.003387
153 0 1 -4.140335 1.609266 37.178101
154 0 1 -4.701683 2.236176 36.752106
155 0 1 -5.604954 2.662487 36.635315
156 0 1 -6.060434 3.379425 36.088409
157 0 1 -6.649994 3.500628 35.281708
158 0 1 -7.423864 3.968386 34.881592
159 0 1 -6.959475 4.742496 34.571991
160 0 1 -5.963005 5.001507 34.494812
161 0 1 -5.197384 5.355988 34.097198
162 0 1 -4.388554 5.135036 34.607910
163 0 1 -3.478914 5.453136 34.605011
164 0 1 -3.098925 5.373627 35.484894
165 0 1 -2.861633 5.184437 36.412109
166 0 1 -1.903454 5.130257 36.620392
167 0 1 -2.530603 5.249737 37.356110
168 0 1 -2.680445 5.941536 38.018311
169 0 1 -2.087765 6.745747 38.151306
170 0 1 -1.162834 6.763557 37.874390
171 0 1 -1.021744 7.740036 37.978912
172 0 1 -1.941565 8.086048 37.886505
173 0 1 -1.391603 8.577126 37.182709
174 0 1 -1.782095 8.234257 36.358398
175 0 1 -1.873955 8.893967 35.694214
176 0 1 -1.941004 9.454044 34.963501
177 0 1 -2.830315 9.038597 34.733215
178 0 1 -3.826645 8.869606 34.511292
179 0 1 -4.096455 9.326515 35.321808
180 0 1 -5.043854 9.214096 35.485107
181 0 1 -5.682854 9.209278 34.766602
182 0 1 -6.616884 9.017845 34.692596
183 0 1 -7.457024 9.514008 34.688110
184 0 1 -7.936544 9.432655 35.496613
185 0 1 -8.388363 10.110126 34.994690
186 0 1 -8.892824 10.833046 35.318115
187 0 1 -9.351833 10.433617 34.554901
188 0 1 -10.240604 10.130447 34.613098
189 0 1 -11.168205 10.589756 34.323395
190 0 1 -11.060703 11.495247 34.266785
191 0 1 -10.457603 12.232906 33.977783
192 0 1 -9.602524 11.926334 33.619110
193 0 1 -8.926584 12.516895 33.363098
194 0 1 -8.608253 12.952637 32.493713
195 0 1 -9.540665 13.207115 32.581116
196 0 1 -9.196564 14.086605 32.611694
197 0 1 -8.458233 14.639904 32.512787
198 0 1 -8.500895 13.807907 31.937105
199 0 1 -8.184534 13.933208 31.021700
200 0 1 -9.008244 14.278107 30.685305
201 0 1 -9.436234 14.769608 31.375490
202 0 1 -9.334564 15.661407 30.990908
203 0 1 -8.510056 15.943306 31.361391
204 0 1 -7.962555 16.233006 32.088684
205 0 1 -7.368793 16.851006 31.671602
206 0 1 -7.750765 16.408707 30.807894
207 0 1 -7.798985 15.510307 30.570101
208 0 1 -7.192894 15.289806 29.851809
209 0 1 -6.327274 15.780807 29.525911
210 0 1 -6.490974 14.872406 29.205904
211 0 1 -5.751274 14.843906 28.537508
212 0 1 -5.530605 15.263004 27.591097
213 0 1 -4.627604 15.275505 27.268007
214 0 1 -4.407093 14.869305 26.459902
215 0 1 -3.873354 15.665104 26.710817
216 0 1 -2.948904 15.385605 27.019716
217 0 1 -2.154203 15.665607 27.464602
218 0 1 -2.121473 14.871708 27.947512
219 0 1 -1.593744 14.148407 27.543489
220 0 1 -2.094793 14.003208 26.736086
221 0 1 -2.103254 14.911205 26.640017
222 0 1 -2.070105 14.453106 25.815493
223 0 1 -2.013865 15.280704 25.323397
224 0 1 -1.332045 15.865505 25.622011
225 0 1 -0.508215 15.746006 26.040102
226 0 1 -0.403847 15.448906 25.131594
227 0 1 -0.496014 14.546604 24.866518
228 0 1 -0.192585 13.664906 25.051607
229 0 1 -0.291164 13.076176 24.156313
230 0 1 -0.031336 12.548145 23.408388
231 0 1 -0.624224 12.011086 22.888308
232 0 1 -1.560724 11.578228 23.040407
233 0 1 -2.372234 12.022205 23.180910
234 0 1 -2.939714 12.536705 23.772310
235 0 1 -3.876974 12.656025 23.911409
236 0 1 -4.140465 12.133446 24.696413
237 0 1 -5.113594 12.208805 24.988314
238 0 1 -5.598953 12.990295 24.882113
239 0 1 -5.596813 13.966808 24.794405
240 0 1 -5.654354 14.893005 24.637911
241 0 1 -6.473305 14.936306 24.134401
242 0 1 -5.896654 15.582905 23.710512
243 0 1 -5.046024 15.041004 23.692293
244 0 1 -5.641445 14.546707 23.106813
245 0 1 -5.875134 14.468407 22.203203
246 0 1 -5.549284 14.651608 21.281008
247 0 1 -5.445713 14.312405 20.403109
248 0 1 -5.019875 14.119408 19.559908
249 0 1 -5.411644 13.744205 18.768709
250 0 1 -6.153553 13.556507 18.231096
251 0 1 -6.599274 14.234707 17.677309
252 0 1 -7.324993 14.109406 17.122698
253 0 1 -7.127014 15.033707 17.420595
254 0 1 -6.982025 15.986408 17.238802
255 0 1 -6.947735 15.720104 18.164003
256 0 1 -6.055355 15.497406 18.046206
257 0 1 -5.356773 15.133205 17.447603
258 0 1 -5.043903 14.945606 16.567003
259 0 1 -5.565994 15.727505 16.327608
260 0 1 -5.358744 16.299507 15.549607
261 0 1 -4.828844 15.987507 14.772294
262 0 1 -4.589165 15.187405 15.217301
263 0 1 -4.004694 14.806606 14.603196
264 0 1 -3.725414 14.305904 15.388001
265 0 1 -3.039944 14.426407 14.684098
266 0 1 -2.848654 13.561165 15.067994
267 0 1 -2.886744 12.718708 15.474900
268 0 1 -2.377314 12.071907 15.908204
269 0 1 -1.629635 11.792656 15.296403
270 0 1 -1.641634 11.385506 16.211199
271 0 1 -0.975039 10.726147 16.599504
272 0 1 -0.717051 11.625366 16.991503
273 0 1 -0.818356 12.456276 17.485598
274 0 1 -1.616005 12.920586 17.174410
275 0 1 -2.504704 13.017017 17.515200
276 0 1 -2.748064 12.147766 17.828798
277 0 1 -3.069365 11.535397 18.564394
278 0 1 -3.059935 10.628975 18.369707
279 0 1 -2.513603 10.212345 18.979204
280 0 1 -1.840504 10.413788 18.384905
281 0 1 -1.322664 10.531425 19.190004
282 0 1 -0.439062 10.445354 19.654604
283 0 1 -0.782837 10.039555 20.428301
284 0 1 0.103714 9.772377 20.751009
285 0 1 0.006628 8.848595 20.656496
286 0 1 0.294920 7.983997 20.781206
287 0 1 0.991400 7.985355 21.496904
288 0 1 0.640844 7.712807 22.325502
289 0 1 1.197195 7.374435 22.963900
290 0 1 2.011444 7.787647 23.008608
291 0 1 2.631927 7.599358 23.730013
292 0 1 2.660946 6.877827 24.420107
293 0 1 2.636597 5.945728 24.197817
294 0 1 2.041744 6.471806 23.668398
295 0 1 1.235987 6.042747 23.720491
296 0 1 0.646358 5.224617 23.785189
297 0 1 0.365808 5.938877 24.380800
298 0 1 -0.316612 6.526848 24.798494
299 0 1 -0.703600 7.392277 24.786409
300 0 1 -0.883884 6.994568 25.702089
301 0 1 -0.792595 6.637547 26.573092
302 0 1 -1.422104 6.156925 26.036196
303 0 1 -2.031275 5.772945 25.388613
304 0 1 -1.594805 4.984116 25.053408
305 0 1 -2.159195 4.673386 25.720003
306 0 1 -3.119915 4.603556 26.108492
307 0 1 -3.961905 4.834576 26.652010
308 0 1 -3.582794 4.873695 27.503511
309 0 1 -3.656424 5.161674 28.413210
310 0 1 -4.349874 5.830086 28.254488
311 0 1 -4.782875 5.333946 27.526308
312 0 1 -4.725004 4.788527 28.356691
313 0 1 -5.134874 4.102478 28.864901
314 0 1 -5.731693 4.217590 29.649294
315 0 1 -6.385105 3.445181 29.702394
316 0 1 -7.200354 3.013722 29.359896
317 0 1 -7.943085 2.597487 28.824007
318 0 1 -8.047834 2.432717 27.926516
319 0 1 -8.575665 3.170201 28.163790
320 0 1 -8.496525 3.792050 27.417910
321 0 1 -7.857803 4.478262 27.343691
322 0 1 -8.082165 4.663986 28.231203
323 0 1 -7.285894 4.851547 28.696993
324 0 1 -7.504004 5.754887 29.044405
325 0 1 -7.129404 6.444008 28.389498
326 0 1 -6.990864 6.989758 29.166689
327 0 1 -7.262573 7.884026 28.925905
328 0 1 -7.559155 7.799828 28.046389
329 0 1 -8.440975 7.446205 28.195009
330 0 1 -8.191784 6.722157 27.684114
331 0 1 -9.082115 6.481266 27.445894
332 0 1 -9.556274 7.263767 27.806398
333 0 1 -9.233534 7.959576 28.385500
334 0 1 -9.212303 8.495655 29.188295
335 0 1 -10.081404 8.250118 29.565706
336 0 1 -10.096704 8.359768 30.551790
337 0 1 -11.010105 8.058968 30.687197
338 0 1 -11.911104 8.139828 30.348604
339 0 1 -12.163303 7.247696 30.329287
340 0 1 -12.483204 6.647026 30.998903
341 0 1 -12.037903 5.846115 30.849489
342 0 1 -11.452305 5.579956 30.097506
343 0 1 -11.663605 5.552956 29.115694
344 0 1 -12.510504 5.240646 29.315096
345 0 1 -12.454105 5.383896 28.341707
346 0 1 -11.776405 4.738747 28.254396
347 0 1 -11.955105 3.819966 28.547091
348 0 1 -12.216003 2.901926 28.709291
349 0 1 -12.439903 2.268566 29.436495
350 0 1 -11.437204 2.230326 29.215212
351 0 1 -11.124905 1.248396 29.211611
352 0 1 -10.330704 1.472227 28.787203
353 0 1 -9.570614 1.045715 29.218294
354 0 1 -9.309273 0.538876 29.995516
355 0 1 -8.979124 -0.116903 29.317904
356 0 1 -8.121834 0.274656 28.997408
357 0 1 -7.257423 -0.166183 28.696688
358 0 1 -6.715094 0.059477 29.428804
359 0 1 -6.000214 0.107836 28.783297
360 0 1 -5.938784 1.006777 29.194094
361 0 1 -6.146694 1.267096 28.275209
362 0 1 -7.101463 1.529627 28.425508
363 0 1 -6.830694 2.125176 27.717409
364 0 1 -6.117334 1.687916 27.162294
365 0 1 -5.583714 2.388796 26.785189
366 0 1 -5.307224 1.453516 26.468111
367 0 1 -4.351593 1.471327 26.392000
368 0 1 -3.394403 1.584517 26.322512
369 0 1 -2.461433 1.334076 26.218294
370 0 1 -2.614164 2.308846 26.285616
371 0 1 -2.831135 2.371046 25.384615
372 0 1 -3.677444 2.037546 25.092806
373 0 1 -3.692425 1.339127 24.348818
374 0 1 -2.710745 1.094656 24.084505
375 0 1 -1.759853 1.034416 24.264498
376 0 1 -1.112545 1.704607 23.774996
377 0 1 -0.674095 1.752947 22.941195
378 0 1 -0.492327 2.171726 22.128008
379 0 1 -1.382044 2.516867 22.227999
380 0 1 -0.735540 3.160542 22.484301
381 0 1 0.157232 3.257351 22.700716
382 0 1 0.204805 3.595581 21.807207
383 0 1 0.697985 3.018812 21.279802
384 0 1 1.532635 2.783474 21.684298
385 0 1 2.158344 2.062027 21.583605
386 0 1 1.357895 1.439997 21.438204
387 0 1 1.824715 1.003437 22.141497
388 0 1 2.225315 0.211256 21.893496
389 0 1 1.859386 -0.321915 21.151705
390 0 1 1.573826 0.250666 20.462206
391 0 1 0.776615 0.337856 20.077303
392 0 1 0.984505 1.016577 19.449007
393 0 1 1.354176 1.794237 19.156206
394 0 1 1.559147 2.037617 20.058199
395 0 1 1.957504 2.922112 19.994509
396 0 1 2.222034 2.811693 19.083803
397 0 1 2.825497 1.995947 19.093401
398 0 1 3.700546 1.599756 19.121508
399 0 1 4.296726 2.339087 18.820009
400 0 1 4.224174 1.998186 17.936708
401 0 1 3.553726 1.333956 17.734697
402 0 1 4.123314 1.153017 16.959993
403 0 1 3.934765 0.282236 17.355196
404 0 1 3.018177 0.268557 17.561403
405 0 1 1.990246 0.141487 17.318605
406 0 1 1.558216 0.900856 16.848497
407 0 1 1.651737 1.796976 16.386904
408 0 1 2.558617 1.719767 16.800203
409 0 1 2.942257 1.753546 15.920808
410 0 1 2.412727 0.945995 15.686997
411 0 1 2.156757 0.747717 14.804109
412 0 1 1.880184 0.106306 14.147202
413 0 1 1.209795 -0.575634 14.304307
414 0 1 1.023296 0.341637 14.668504
415 0 1 0.215240 0.952276 14.620606
416 0 1 -0.039772 0.371376 13.898408
417 0 1 -0.731916 -0.153864 13.553193
418 0 1 -1.565004 0.231436 13.902406
419 0 1 -2.048615 0.858776 13.394197
420 0 1 -3.074484 0.699535 13.464005
421 0 1 -3.081055 0.389736 14.396104
422 0 1 -3.095144 0.952356 15.169694
423 0 1 -2.318523 0.569576 15.613694
424 0 1 -2.376373 1.375397 16.129396
425 0 1 -2.134834 1.888447 16.888201
426 0 1 -1.555674 1.236536 17.398104
427 0 1 -0.889347 0.650307 17.623598
428 0 1 -0.638279 0.474917 16.648699
429 0 1 -0.253916 1.394106 16.567797
430 0 1 0.332569 1.256296 15.796403
431 0 1 -0.147904 2.065987 15.690995
432 0 1 -0.147162 2.899294 16.114000
433 0 1 0.386335 3.296114 16.781404
434 0 1 1.109686 3.871359 17.080400
435 0 1 1.210457 4.328276 16.128008
436 0 1 0.374142 4.719116 15.941606
437 0 1 -0.170277 5.422447 15.618699
438 0 1 -0.273819 4.655626 15.058595
439 0 1 -1.206095 4.945436 15.065797
440 0 1 -1.911684 4.957935 14.375504
441 0 1 -2.781874 4.535492 14.585999
442 0 1 -2.976124 3.708096 14.134706
443 0 1 -3.718084 3.283371 13.690400
444 0 1 -4.235254 3.480553 14.505708
445 0 1 -4.058193 2.577786 14.726396
446 0 1 -4.339283 3.070084 15.486100
447 0 1 -5.199085 3.580473 15.332307
448 0 1 -5.980034 3.054238 15.486802
449 0 1 -5.868944 2.267987 14.912004
450 0 1 -5.937895 1.336706 14.557008
451 0 1 -6.220114 0.426787 14.396302
452 0 1 -5.933455 0.476986 13.474305
453 0 1 -6.174614 -0.489113 13.457002
454 0 1 -6.687464 -0.038593 12.742906
455 0 1 -6.114395 0.759436 12.449708
456 0 1 -5.890684 0.693997 11.512300
457 0 1 -5.172455 0.067616 11.294908
458 0 1 -6.047775 -0.302473 11.557694
459 0 1 -5.887123 -1.118114 11.083802
460 0 1 -5.749964 -2.084333 10.996797
461 0 1 -5.199715 -2.678474 10.472901
462 0 1 -4.527534 -3.406244 10.367906
463 0 1 -4.638023 -4.217434 9.790421
464 0 1 -5.450304 -4.629784 9.434831
465 0 1 -5.564974 -3.969053 8.680146
466 0 1 -6.396894 -3.623573 9.030305
467 0 1 -7.046274 -3.061104 9.398301
468 0 1 -6.504145 -2.695064 10.082597
469 0 1 -6.031904 -3.479034 10.532807
470 0 1 -6.517395 -4.018883 11.217607
471 0 1 -6.045424 -4.651194 11.717896
472 0 1 -5.353575 -5.264023 11.511994
473 0 1 -4.517044 -5.674385 11.661408
474 0 1 -3.814564 -6.285923 11.542603
475 0 1 -4.395424 -6.520294 10.806306
476 0 1 -4.548964 -7.460894 11.008103
477 0 1 -4.514484 -8.387394 11.343705
478 0 1 -4.566254 -8.121593 12.276399
479 0 1 -5.223774 -8.190693 12.944398
480 0 1 -6.081465 -8.277994 13.452806
481 0 1 -6.977283 -8.474094 13.787095
482 0 1 -7.188124 -9.414894 13.666993
483 0 1 -6.820824 -10.279694 13.400102
484 0 1 -6.392424 -11.076593 13.938508
485 0 1 -6.677994 -11.854794 13.507600
486 0 1 -5.825785 -12.046694 13.906800
487 0 1 -6.620163 -12.509394 14.254701
488 0 1 -6.321983 -13.348494 14.009797
489 0 1 -5.753105 -14.083593 14.408708
490 0 1 -4.979584 -14.331493 13.901399
491 0 1 -4.128574 -14.287094 13.299897
492 0 1 -3.701645 -15.037495 13.773408
493 0 1 -4.312864 -15.486094 14.467698
494 0 1 -4.838614 -14.855894 14.951203
495 0 1 -4.290964 -14.868793 15.715394
496 0 1 -3.930344 -15.046293 16.598909
497 0 1 -4.386215 -15.855394 16.827394
498 0 1 -3.745255 -16.577394 16.904802
499 0 1 -4.567184 -17.136593 17.170397
500 0 1 -5.056084 -17.546694 17.873308
501 0 1 -5.751114 -17.445694 18.492403
502 0 1 -5.965664 -16.517094 18.826998
503 0 1 -6.395084 -16.230595 19.638308
504 0 1 -6.180655 -16.581194 20.463808
505 0 1 -6.108524 -17.151493 21.265108
506 0 1 -5.906395 -16.234293 21.416994
507 0 1 -4.956585 -16.574594 21.715807
508 0 1 -4.549225 -16.757994 22.520693
509 0 1 -3.997654 -17.524794 22.108599
510 0 1 -3.378365 -17.988995 22.669100
511 0 1 -2.557453 -18.409193 23.070101
512 0 1 -2.564983 -19.356194 22.895906
513 0 1 -3.498165 -19.022093 22.885805
514 0 1 -3.749485 -19.904093 22.961611
515 0 1 -3.928175 -19.584394 23.858614
516 0 1 -4.812195 -20.094894 23.946108
517 0 1 -5.195904 -20.650293 23.232790
518 0 1 -5.550045 -20.812893 22.263506
519 0 1 -4.931984 -21.126894 21.629305
520 0 1 -4.002304 -21.480694 21.563097
521 0 1 -3.825964 -21.854694 20.648897
522 0 1 -3.345345 -21.003994 20.483202
523 0 1 -3.643795 -20.316994 21.039202
524 0 1 -3.642874 -19.645693 20.334307
525 0 1 -3.984055 -19.271093 19.576601
526 0 1 -4.608555 -19.893394 19.219210
527 0 1 -4.250044 -19.103594 18.636202
528 0 1 -4.004463 -19.869894 18.160494
529 0 1 -3.080975 -19.572495 18.031206
530 0 1 -2.714844 -20.390594 17.814104
531 0 1 -2.008675 -19.935793 18.213900
532 0 1 -1.575434 -19.326593 17.591997
533 0 1 -1.031025 -20.077194 17.577105
534 0 1 -0.249954 -20.482695 17.169497
535 0 1 0.222555 -20.461393 18.124697
536 0 1 1.173515 -20.132895 18.436907
537 0 1 1.809086 -19.560493 17.983995
538 0 1 2.318695 -19.421894 17.184206
539 0 1 2.714355 -19.465694 16.311403
540 0 1 2.285336 -19.876793 15.560700
541 0 1 1.566067 -20.236794 16.072695
542 0 1 1.382626 -19.754694 16.875307
543 0 1 1.409086 -18.948093 16.356508
544 0 1 1.617805 -18.028694 16.584200
545 0 1 0.753611 -17.710693 16.649508
546 0 1 1.059175 -17.432894 15.832398
547 0 1 0.858286 -17.566393 14.865907
548 0 1 0.058216 -17.400593 15.337296
549 0 1 -0.485569 -16.658094 15.772798
550 0 1 -0.393086 -15.836693 16.218798
551 0 1 -0.537973 -15.740494 17.142199
552 0 1 0.466066 -15.630394 16.994295
553 0 1 0.975964 -15.107695 17.616396
554 0 1 0.132637 -14.874994 17.989901
555 0 1 -0.449604 -14.436995 17.383699
556 0 1 -1.220055 -14.393694 17.984102
557 0 1 -1.910275 -14.981995 18.295107
558 0 1 -1.704754 -14.469494 19.045107
559 0 1 -2.541544 -14.415594 19.403200
560 0 1 -3.241175 -13.728994 19.489000
561 0 1 -3.949944 -13.172295 19.183504
562 0 1 -3.159744 -12.553093 19.507601
563 0 1 -2.409534 -12.783293 20.003206
564 0 1 -1.834724 -12.618895 20.808199
565 0 1 -1.187754 -13.242495 21.038698
566 0 1 -0.828989 -14.168394 20.686098
567 0 1 -1.044415 -14.984594 20.211702
568 0 1 -0.067658 -14.958294 20.056795
569 0 1 0.226759 -14.676394 20.954409
570 0 1 -0.029947 -15.135994 21.754396
571 0 1 -0.899160 -14.719093 21.644701
572 0 1 -0.481434 -13.825294 21.702806
573 0 1 0.236263 -13.264093 21.322802
574 0 1 1.229986 -13.488194 21.357805
575 0 1 2.093018 -13.819794 21.617601
576 0 1 1.945705 -12.915194 21.790300
577 0 1 2.446594 -12.108093 21.538500
578 0 1 3.079315 -11.792594 20.782198
579 0 1 2.929245 -10.840195 20.770296
580 0 1 3.800877 -11.134294 20.479403
581 0 1 3.094616 -11.269594 19.861406
582 0 1 2.948097 -10.304493 19.776308
583 0 1 3.007767 -9.441793 19.361605
584 0 1 2.929047 -9.604794 18.410707
585 0 1 2.134285 -9.087894 18.447802
586 0 1 2.539345 -8.367493 19.036699
587 0 1 2.442886 -7.899494 19.876299
588 0 1 3.189247 -7.255795 19.653109
589 0 1 3.481205 -6.517994 19.136507
590 0 1 3.931934 -6.880693 18.338503
591 0 1 4.154247 -7.651993 18.912004
592 0 1 5.093517 -7.383493 18.864809
593 0 1 5.299706 -7.078594 17.975008
594 0 1 5.866016 -6.332924 17.666002
595 0 1 5.856697 -6.264614 18.641909
596 0 1 5.316925 -5.553934 19.022707
597 0 1 5.405506 -4.945305 19.722994
598 0 1 4.859024 -5.095882 20.473406
599 0 1 5.747826 -4.990685 20.867708
600 0 1 6.468517 -4.995422 21.556704
601 0 1 6.602608 -5.858173 21.089602
602 0 1 5.841976 -6.349255 20.778200
603 0 1 6.491344 -7.047894 21.022600
604 0 1 5.551067 -7.258194 21.079195
605 0 1 5.327484 -6.651693 21.872194
606 0 1 4.463898 -6.987793 21.563005
607 0 1 3.608505 -7.117594 22.033205
608 0 1 3.450848 -6.628193 22.815798
609 0 1 4.129654 -7.095295 23.298098
610 0 1 4.366627 -6.088774 23.419405
611 0 1 5.285366 -6.338253 23.146090
612 0 1 6.127975 -6.587793 23.457308
613 0 1 6.194347 -7.367794 24.135988
614 0 1 6.699738 -7.068594 24.927401
615 0 1 6.511948 -6.228775 25.252199
616 0 1 7.425934 -6.068874 25.163301
617 0 1 8.070824 -6.798893 24.737490
618 0 1 8.484726 -6.508894 25.613710
619 0 1 7.994644 -6.120974 26.427614
620 0 1 8.742886 -6.651295 26.721987
621 0 1 9.626797 -7.060894 26.705812
622 0 1 10.262295 -6.365444 26.400606
623 0 1 10.750095 -6.755592 27.235506
624 0 1 11.558098 -6.349384 27.215395
625 0 1 11.819897 -7.016693 27.953310
626 0 1 12.664196 -6.772594 28.361696
627 0 1 12.695896 -6.955093 29.303102
628 0 1 11.840698 -7.341393 29.579409
629 0 1 11.832294 -6.382494 29.194002
630 0 1 12.459896 -5.649794 28.958803
631 0 1 12.868595 -4.818123 28.583803
632 0 1 13.683697 -4.976744 28.136415
633 0 1 13.094597 -5.284103 27.427309
634 0 1 13.533798 -4.465874 27.081209
635 0 1 14.125195 -3.948944 26.575594
636 0 1 14.761997 -3.323824 26.867098
637 0 1 14.476898 -2.908085 26.026003
638 0 1 14.963196 -2.855283 25.199495
639 0 1 15.531895 -2.991853 24.468813
640 0 1 14.707695 -3.344272 24.230715
641 0 1 14.504395 -3.301214 23.286196
642 0 1 14.712395 -4.241653 23.100893
643 0 1 14.762997 -3.833893 22.159609
644 0 1 13.902996 -3.666855 22.463198
645 0 1 13.009495 -3.413503 22.523317
646 0 1 12.763397 -3.672844 23.406191
647 0 1 12.039795 -3.010473 23.209414
648 0 1 11.349796 -2.469093 22.752199
649 0 1 10.998497 -1.598543 22.888308
650 0 1 10.906796 -0.993023 23.573702
651 0 1 10.118797 -0.970224 24.054598
652 0 1 10.553596 -1.785364 24.043886
653 0 1 10.596497 -2.733272 24.054110
654 0 1 10.765095 -2.436853 24.880007
655 0 1 10.777996 -2.715063 25.793795
656 0 1 11.156494 -3.573784 25.569887
657 0 1 11.633797 -4.026714 26.286196
658 0 1 11.580597 -4.455765 27.101595
659 0 1 11.222298 -5.121033 27.789492
660 0 1 11.600197 -4.580864 28.518801
661 0 1 11.510296 -4.216993 29.377108
662 0 1 10.590397 -4.070873 29.548494
663 0 1 10.218994 -3.429004 28.910707
664 0 1 10.713497 -2.634773 29.234499
665 0 1 11.264194 -1.902454 28.815004
666 0 1 10.775394 -1.160515 28.501711
667 0 1 10.360596 -1.836204 27.988314
668 0 1 10.710396 -1.805784 27.105593
669 0 1 11.447594 -1.364693 26.571688
670 0 1 12.341698 -0.862654 26.598207
671 0 1 12.225197 -1.550674 25.879488
672 0 1 12.787895 -1.006334 25.269899
673 0 1 13.078796 -0.255804 24.858706
674 0 1 13.719498 -0.420584 24.168398
675 0 1 14.114296 0.087027 23.506197
676 0 1 15.028896 0.404387 23.239107
677 0 1 15.698494 1.036366 23.104799
678 0 1 15.697395 1.580166 23.970308
679 0 1 15.962997 1.063696 24.783205
680 0 1 15.082695 1.321766 25.031496
681 0 1 14.785896 1.823216 25.889406
682 0 1 14.979397 2.642586 26.386904
683 0 1 15.795597 2.200657 26.702303
684 0 1 15.126797 1.975916 27.414186
685 0 1 15.353195 2.776655 27.882509
686 0 1 14.670895 2.684586 28.479616
687 0 1 14.606194 3.209063 29.345491
688 0 1 14.251995 3.722786 30.027895
689 0 1 13.608097 4.443655 30.110811
690 0 1 13.008194 3.772820 30.220003
691 0 1 12.069794 3.793125 30.007601
692 0 1 11.173294 3.797936 29.583590
693 0 1 11.433895 4.315792 28.847109
694 0 1 11.572697 4.045033 27.919893
695 0 1 11.502495 4.754326 27.231508
696 0 1 12.122597 4.820726 26.518892
697 0 1 12.977898 4.743347 25.967897
698 0 1 12.353195 5.518215 25.814516
699 0 1 11.661396 5.713848 25.168398
700 0 1 11.827095 6.612408 24.953615
701 0 1 10.927498 6.782036 25.087893
702 0 1 10.566597 6.955845 25.962587
703 0 1 11.077995 7.645996 26.417696
704 0 1 11.887794 7.931225 26.726809
705 0 1 11.948097 7.897648 25.668093
706 0 1 12.890797 7.934586 25.620607
707 0 1 13.675797 7.763515 25.077303
708 0 1 13.825294 8.384247 24.267794
709 0 1 13.228294 8.655285 24.933413
710 0 1 13.133797 9.454876 25.415316
711 0 1 13.336796 9.369747 26.420717
712 0 1 13.092297 10.237076 26.571413
713 0 1 12.214596 9.836338 26.846498
714 0 1 12.066597 9.830235 25.866518
715 0 1 11.906395 10.242336 25.020388
716 0 1 12.712395 10.745136 25.118410
717 0 1 12.785698 11.720676 25.185213
718 0 1 12.859894 12.202816 26.015291
719 0 1 12.555595 11.485058 26.505892
720 0 1 12.684296 11.097855 27.372011
721 0 1 11.751297 11.133636 27.765993
722 0 1 11.002296 11.516155 28.134706
723 0 1 10.568195 12.009445 27.419405
724 0 1 9.998215 11.307808 26.952517
725 0 1 10.000656 10.466877 26.428408
726 0 1 9.668976 10.007256 25.647402
727 0 1 10.404694 9.795547 25.060213
728 0 1 10.321495 10.469276 24.395601
729 0 1 10.536896 9.620327 23.997896
730 0 1 10.054794 9.804108 23.168703
731 0 1 10.810295 10.388336 23.204103
732 0 1 11.583694 10.528996 23.777712
733 0 1 12.369495 10.718388 23.280703
734 0 1 12.163197 10.334908 22.447908
735 0 1 11.622498 9.517387 22.534090
736 0 1 11.283195 8.585945 22.507601
737 0 1 10.516994 7.959545 22.623598
738 0 1 9.671665 7.518726 22.909395
739 0 1 9.769085 7.434597 21.969698
740 0 1 8.903255 7.638905 21.588808
741 0 1 8.036247 7.210117 21.737200
742 0 1 7.279125 7.832397 21.993898
743 0 1 6.665924 7.806557 22.767611
744 0 1 6.496937 7.436897 23.701906
745 0 1 5.765255 7.101257 24.154512
746 0 1 5.692276 7.159168 25.155397
747 0 1 5.596546 7.810585 25.803194
748 0 1 6.260666 7.949825 26.488405
749 0 1 6.994236 8.631737 26.372805
750 0 1 6.109795 9.081375 26.448488
751 0 1 6.386787 9.696674 25.725313
752 0 1 6.216995 8.801636 25.349001
753 0 1 5.731308 9.517517 24.786104
754 0 1 5.141056 10.314037 24.948793
755 0 1 5.900486 10.725018 24.624697
756 0 1 5.344196 10.456326 23.830294
757 0 1 4.486027 10.140625 23.509890
758 0 1 4.029266 10.965244 23.519197
759 0 1 4.856766 11.357197 23.361300
760 0 1 5.390686 11.018738 22.671297
761 0 1 5.366596 11.085766 21.675707
762 0 1 5.945927 11.889526 21.640596
763 0 1 5.707054 12.149406 20.739199
764 0 1 5.091934 12.322388 21.423494
765 0 1 5.060474 13.201488 21.772203
766 0 1 4.908714 13.263596 20.791597
767 0 1 5.204956 14.056507 20.287996
768 0 1 5.275116 14.873104 20.784700
769 0 1 4.928307 15.603706 20.175203
770 0 1 5.222786 16.411407 19.795702
771 0 1 6.078487 16.785305 19.882006
772 0 1 6.593357 17.391006 19.377306
773 0 1 7.091614 16.570206 19.303896
774 0 1 7.781944 16.871605 18.741198
775 0 1 8.700508 16.521404 18.459398
776 0 1 8.391346 15.888508 19.032503
777 0 1 7.872276 15.245106 18.502306
778 0 1 8.026405 14.334606 18.328905
779 0 1 7.236664 13.981205 17.893709
780 0 1 7.968155 13.578735 17.367907
781 0 1 7.408085 12.731556 17.618502
782 0 1 6.488026 12.518024 17.895708
783 0 1 5.710205 12.023285 17.535906
784 0 1 4.936855 12.540066 17.328005
785 0 1 5.490685 13.305717 17.491610
786 0 1 5.311676 13.150066 16.530901
787 0 1 5.798847 13.994408 16.379900
788 0 1 5.783546 14.809505 16.931505
789 0 1 4.734245 14.834206 17.005007
790 0 1 4.525734 14.566807 17.907503
791 0 1 3.727306 14.282906 18.311296
792 0 1 3.119064 14.980404 18.106096
793 0 1 2.341576 14.508106 17.879900