LAMMPS data file via write_data, version 23 Jun 2022, timestep = 600000

2000 atoms
2 atom types
1999 bonds
1 bond types

-30.5 30.5 xlo xhi
-30.5 30.5 ylo yhi
-233.5 233.5 zlo zhi

Atoms # bond

73 1 1 -11.552508070256803 1.0173863538574706 -50.82553881336075 0 0 0
74 1 1 -10.779844358754731 1.4401509824588046 -51.13728389814232 0 0 0
75 1 1 -9.891303547039625 1.5620250359168426 -50.663233903457886 0 0 0
63 1 1 -16.364093889726302 0.42361670622827186 -49.29459819910412 0 0 0
64 1 1 -15.591536715386875 0.9473240012268777 -49.157215642988035 0 0 0
62 1 1 -15.725644224322265 -0.13746719961492518 -48.85918790752752 0 0 0
76 1 1 -9.409840693161613 0.954379240577991 -50.06313054721136 0 0 0
77 1 1 -8.512116520849135 1.0177540016639322 -49.65101079574026 0 0 0
65 1 1 -15.477341622924895 1.7587786084381358 -48.620394757974736 0 0 0
67 1 1 -14.003465532537833 1.3936142280459338 -48.17635227959766 0 0 0
66 1 1 -14.574365477969948 2.0945796766801927 -48.44590191523554 0 0 0
71 1 1 -11.661046041882067 2.2582826484457086 -49.44292102146786 0 0 0
72 1 1 -11.66647319601462 1.5878158499794675 -50.08946500480164 0 0 0
70 1 1 -12.524962230239575 2.580668780325022 -49.665695779792145 0 0 0
68 1 1 -13.26504520396093 1.8321744685347754 -48.559822986500954 0 0 0
69 1 1 -13.393549202304683 2.60554397421348 -49.16867999634064 0 0 0
80 1 1 -9.009432703039568 2.968234707387203 -48.35911090661498 0 0 0
79 1 1 -9.19514550649669 2.4612649216117974 -49.187257359709974 0 0 0
78 1 1 -8.459815581701303 1.959221003035255 -49.640835195413054 0 0 0
189 1 1 11.375224014658405 2.7473993238723495 -49.52671769546303 0 0 0
188 1 1 11.428803012086433 1.986313982075624 -48.97190033173558 0 0 0
192 1 1 10.151370618071212 4.716357041895521 -49.15781767993813 0 0 0
193 1 1 10.764585793298217 4.941377698072902 -48.38239502099289 0 0 0
191 1 1 10.645479782712153 3.936483666138908 -49.22666797017689 0 0 0
190 1 1 11.510665660145822 3.7290879545292492 -49.520339029861 0 0 0
59 1 1 -15.702550339520196 -1.3506264863919515 -46.57210793820893 0 0 0
60 1 1 -15.56001472250408 -0.4965066584787012 -46.96406867055909 0 0 0
57 1 1 -15.19020910950238 -0.6789534335807887 -45.90029135148685 0 0 0
61 1 1 -15.653303334110793 -0.10853352912576969 -47.94310537075068 0 0 0
81 1 1 -9.635152542722594 2.6255521250560654 -47.70095095297556 0 0 0
82 1 1 -10.149816367340451 1.8978752077200227 -47.961604749780975 0 0 0
83 1 1 -9.945695612450404 1.8730193691781578 -46.89066426433169 0 0 0
84 1 1 -9.030179026854118 2.155184365753493 -46.87616772375014 0 0 0
85 1 1 -8.557293479781785 2.10218156327682 -46.070809183615495 0 0 0
184 1 1 10.225484480122956 2.9910031616320265 -46.896038690583936 0 0 0
185 1 1 10.730282984964305 2.1285392739910525 -46.89490110340794 0 0 0
183 1 1 11.07500885411525 3.0398008516968242 -46.37044874152159 0 0 0
187 1 1 11.344089278927862 1.65699377192364 -48.04052301338159 0 0 0
186 1 1 11.604700271565417 1.7001584810477264 -47.11551338443762 0 0 0
96 1 1 -9.838968840527341 5.88645193204632 -46.09931539431786 0 0 0
194 1 1 11.231489173655733 4.921632781060968 -47.528119239637384 0 0 0
196 1 1 11.650420602604802 4.936397040847097 -46.463513761552335 0 0 0
195 1 1 11.106375037025243 4.241342254362995 -46.92334876496967 0 0 0
197 1 1 11.191684046867634 4.445673781565827 -45.8168750436979 0 0 0
97 1 1 -9.375052497775405 6.681848990277991 -46.37426277844178 0 0 0
99 1 1 -7.807796979326447 6.6678370741154875 -46.02094918549968 0 0 0
111 1 1 -8.845033222367023 10.815801402273415 -46.63014927454813 0 0 0
109 1 1 -8.681722684816279 9.476333297408583 -46.14465980582081 0 0 0
110 1 1 -8.267367785789471 10.338427788729502 -46.09899684012395 0 0 0
163 1 1 6.8294546008141666 10.249663503266733 -46.97191097793 0 0 0
164 1 1 7.034486125073562 9.484067062517159 -46.31190571244643 0 0 0
165 1 1 8.008539543985462 9.594907759550098 -46.27982481467872 0 0 0
112 1 1 -8.77330854063294 11.823971791985128 -46.83406707759044 0 0 0
113 1 1 -8.1637706530395 12.150963797576562 -46.22513924549918 0 0 0
114 1 1 -7.215567902628239 11.843706862733635 -46.27074794809077 0 0 0
162 1 1 6.692385480143521 11.002801513021788 -46.31681245126342 0 0 0
58 1 1 -15.674594537527515 -1.439255071887773 -45.65209302580793 0 0 0
52 1 1 -15.018863947240128 -1.281047837702703 -44.281309348458386 0 0 0
49 1 1 -12.593908253563262 -1.3783770248169787 -44.18465933419242 0 0 0
48 1 1 -12.717861840193283 -2.2583965197917304 -43.849950026622274 0 0 0
47 1 1 -12.936361444429185 -3.227548928802065 -43.865551042221625 0 0 0
38 1 1 -9.677353978250702 -2.318385435313917 -44.26522435787811 0 0 0
37 1 1 -10.319644989024251 -1.5836337313100757 -44.07495387912197 0 0 0
39 1 1 -8.904931168115892 -2.3958527785035324 -43.74715553156414 0 0 0
56 1 1 -15.635353514955426 -0.4135516208940076 -45.06582411063002 0 0 0
55 1 1 -15.789823818366713 0.17078461968515185 -44.30634518459491 0 0 0
54 1 1 -15.503813923949169 -0.11936803726784073 -43.45336696806578 0 0 0
53 1 1 -14.82689301540044 -0.2832672077163611 -44.06156353101484 0 0 0
50 1 1 -13.503479244881486 -1.061155879281193 -44.196061822412815 0 0 0
51 1 1 -14.216598981519388 -1.0413525074850145 -44.83695281840596 0 0 0
87 1 1 -7.2202787933082195 3.1740418383620774 -45.595328873895774 0 0 0
86 1 1 -8.13138505739841 2.9012821983653234 -45.554077313479105 0 0 0
182 1 1 10.840595087161171 3.1339427476198427 -45.43327871598205 0 0 0
181 1 1 11.066203315438763 2.3414717421642544 -44.86179091818708 0 0 0
180 1 1 11.460734534806464 2.941976848727186 -44.207727077996644 0 0 0
91 1 1 -8.584372390079222 4.776834662878345 -44.420375269193315 0 0 0
92 1 1 -9.544243796539002 4.826628638904518 -44.29689187428558 0 0 0
93 1 1 -9.649385977075989 5.818745796704379 -44.26082664616987 0 0 0
89 1 1 -7.52786102607771 4.33314935600469 -44.15873062429284 0 0 0
90 1 1 -8.361250279319181 4.2139833637385795 -43.68795227057612 0 0 0
88 1 1 -7.439909569829995 3.6627690308081036 -44.78852241717196 0 0 0
178 1 1 11.217925134475909 4.838699366959211 -44.18805949680268 0 0 0
177 1 1 11.155558605742366 5.229385157311555 -43.37147980803851 0 0 0
179 1 1 11.47798453754037 3.90803248628518 -44.11261756469472 0 0 0
201 1 1 13.10487742513271 5.575051845842827 -44.2676782645608 0 0 0
202 1 1 13.036326088876779 5.261458919409082 -43.391226158811236 0 0 0
199 1 1 12.478822725317052 4.771899230456773 -45.50202193594689 0 0 0
200 1 1 12.298638939061872 5.410156662179173 -44.8221229093854 0 0 0
198 1 1 11.719630357196893 4.51415868329002 -45.00468014233562 0 0 0
98 1 1 -8.707959192225546 6.961862990822848 -45.73336471730214 0 0 0
94 1 1 -10.52707608590342 6.2860089372800605 -44.382603438308834 0 0 0
95 1 1 -9.99587227545284 6.274049857646871 -45.255183439736115 0 0 0
102 1 1 -6.6085478789672845 7.121663327253196 -43.89991938379418 0 0 0
103 1 1 -7.362104948185568 7.124266765834222 -43.339194365766915 0 0 0
100 1 1 -7.761202288792115 7.347030191862749 -45.35369666590922 0 0 0
101 1 1 -7.2036705102480845 7.486720810543971 -44.58336402128478 0 0 0
104 1 1 -7.414887800579676 8.072835067609391 -43.54587920233189 0 0 0
169 1 1 8.209328669525407 8.134643285697909 -43.90807719760659 0 0 0
170 1 1 9.100376360872025 8.076484337035142 -43.40272626128204 0 0 0
107 1 1 -8.748447196603967 10.32533582207987 -44.43835570755954 0 0 0
106 1 1 -8.543993419744318 9.450624776657893 -44.059038631989374 0 0 0
108 1 1 -8.894009011161348 9.745170386394731 -45.23280641826254 0 0 0
105 1 1 -8.075573543275032 8.755035826914002 -43.67903573354851 0 0 0
118 1 1 -7.146589023557201 10.004973087343814 -44.36615060877046 0 0 0
117 1 1 -6.4751047140700715 10.688193885345807 -44.409200212968955 0 0 0
119 1 1 -7.810079525320966 10.576620530991958 -43.975573585138996 0 0 0
141 1 1 -2.3119592839533603 8.879623206424583 -43.64840851525491 0 0 0
139 1 1 -2.3510587624091626 10.283830389552179 -43.704887488411934 0 0 0
140 1 1 -1.8869632993740144 9.515200789565037 -44.15694701143949 0 0 0
157 1 1 2.749422575931532 10.410653024348928 -44.95601130741003 0 0 0
156 1 1 2.153655183379439 9.744158427063931 -44.535478551187836 0 0 0
155 1 1 2.4149888059219347 10.304438152411658 -43.879823697292686 0 0 0
158 1 1 3.722431363960336 10.113807733381197 -44.96467703229307 0 0 0
159 1 1 4.538478646406948 10.134240253912802 -45.37975237214239 0 0 0
160 1 1 5.220097805250191 10.739029340412518 -45.30046177584664 0 0 0
168 1 1 8.455538348423385 9.045180681005402 -44.14037714922788 0 0 0
167 1 1 7.896014855304047 9.779128553628068 -44.51187343322869 0 0 0
166 1 1 7.888027064116842 9.280658214380047 -45.36197999953545 0 0 0
161 1 1 6.136942416749048 10.57407271389492 -45.63744659729907 0 0 0
116 1 1 -6.55094438551181 11.074467910686414 -45.24349896429953 0 0 0
115 1 1 -7.376979994649533 11.185064532702688 -45.5891438217567 0 0 0
120 1 1 -7.445398940336072 11.466135352902754 -43.70799064656302 0 0 0
121 1 1 -6.464994800665013 11.488037832189104 -43.64371767836365 0 0 0
123 1 1 -5.364795975832206 12.876785999132045 -43.8561602487323 0 0 0
125 1 1 -4.583913494304078 12.4560877465449 -44.92629376493708 0 0 0
124 1 1 -4.478741017960882 12.677076606762013 -43.964298361793645 0 0 0
126 1 1 -3.7025884185455333 12.80428295032952 -44.929440187987645 0 0 0
122 1 1 -5.798902489284054 12.128400594848511 -43.4125695256098 0 0 0
129 1 1 -3.0773780594251123 12.822179632050494 -43.943869404233226 0 0 0
128 1 1 -2.777010709457924 13.726321016819979 -44.19317448199229 0 0 0
127 1 1 -3.5029903575780597 13.788085009489906 -44.97218729157287 0 0 0
44 1 1 -11.564309718201267 -3.7450709700225584 -41.60066789283944 0 0 0
42 1 1 -10.075018499406868 -3.9504673516940767 -42.325166186044456 0 0 0
46 1 1 -12.777782999355834 -3.2651834470997727 -42.865398111289565 0 0 0
45 1 1 -12.367089418830874 -3.647073494848217 -42.140697663072984 0 0 0
35 1 1 -9.00508830495588 -1.4199256293944251 -42.96208589170679 0 0 0
41 1 1 -9.485008388770533 -3.4391583545646998 -42.85783087675673 0 0 0
43 1 1 -10.762124504617896 -3.4103505180433773 -41.85274557118857 0 0 0
36 1 1 -9.794094029605427 -1.902305849214654 -43.28966786281145 0 0 0
40 1 1 -9.121023208610488 -2.572682795693613 -42.849326117673435 0 0 0
33 1 1 -7.175923898686917 -1.327412688229537 -42.34526608636138 0 0 0
34 1 1 -8.09867379610931 -1.6443665065578106 -42.58369754215779 0 0 0
32 1 1 -6.59247775619839 -1.1982628621801774 -41.554510587098854 0 0 0
31 1 1 -7.401245802822748 -0.7487178050565461 -41.37861608996038 0 0 0
205 1 1 12.650210052603269 3.3928787239554024 -41.18825955419766 0 0 0
208 1 1 11.742868380244461 1.5955108041296182 -41.18870236945477 0 0 0
207 1 1 11.07914049131374 2.2672338739242273 -41.163457323942474 0 0 0
206 1 1 11.805360714684506 2.8278062257637853 -41.32766509446948 0 0 0
175 1 1 10.24451032528462 5.705698798783357 -42.78998310645079 0 0 0
176 1 1 10.272473315283557 4.795963059344707 -43.17170522540999 0 0 0
204 1 1 12.822634725365019 3.975151962718161 -41.9414536287964 0 0 0
203 1 1 13.172675817223146 4.639487407173902 -42.59422177421442 0 0 0
142 1 1 -3.0589055761802624 8.403800241972027 -43.193086720955975 0 0 0
143 1 1 -3.453940320825657 8.490777741523134 -42.33966466150691 0 0 0
174 1 1 10.574972781134424 6.622911293740845 -42.85142663679871 0 0 0
173 1 1 9.7925727382624 7.139467235855205 -42.84435125281558 0 0 0
171 1 1 9.618048508133775 8.156254564980667 -42.51796844067437 0 0 0
172 1 1 10.216402363391511 7.583846895748032 -42.11207431549088 0 0 0
144 1 1 -2.6063611986751067 8.82243219127822 -42.172197695100635 0 0 0
145 1 1 -2.2588560861876052 8.795004707465678 -41.24210655421511 0 0 0
146 1 1 -2.021890371882288 9.738693180849253 -41.0654572142548 0 0 0
137 1 1 -3.4484183560838515 10.808429959115925 -42.7317442791301 0 0 0
147 1 1 -1.4395412211180345 9.884343057471806 -41.839848598237 0 0 0
148 1 1 -0.715073279666544 9.397124023234452 -41.49834193153109 0 0 0
150 1 1 0.20714859769553393 9.731415994488762 -40.95249057832368 0 0 0
152 1 1 0.7419487966458299 10.969212747246683 -41.86524743491172 0 0 0
153 1 1 1.1789114954353912 10.743150339640355 -42.71788983038183 0 0 0
154 1 1 1.9963843737616422 10.557279171492226 -43.05179788239214 0 0 0
138 1 1 -2.5870643904997244 11.045707864184442 -43.1412265016644 0 0 0
132 1 1 -2.2779493394946315 12.766061853697027 -42.057903153930006 0 0 0
135 1 1 -2.544378515503254 11.69898217972371 -41.366046637747104 0 0 0
133 1 1 -2.032884571615839 13.321641847092748 -41.32716794956809 0 0 0
136 1 1 -2.837873076800841 11.171522090894086 -42.13409864319191 0 0 0
134 1 1 -2.5965070253579365 12.571183721217455 -41.1153754796004 0 0 0
130 1 1 -2.4741777502626094 13.08376500383375 -43.18971478094812 0 0 0
131 1 1 -1.5969214487410182 13.054119951268047 -42.78538666962022 0 0 0
26 1 1 -6.967414186212238 -3.854958196371146 -39.15721924308809 0 0 0
24 1 1 -6.483381183392908 -4.417658052324959 -40.77675155139174 0 0 0
25 1 1 -6.942612127193502 -4.498973319591115 -39.912788354480654 0 0 0
23 1 1 -5.890704122806442 -3.7378933345921928 -40.38513241492712 0 0 0
22 1 1 -4.942852553419723 -3.789538307462609 -40.44503591065538 0 0 0
30 1 1 -7.262826578946199 -1.279730987804733 -40.581684358364384 0 0 0
29 1 1 -7.49598028446718 -2.2401687772991115 -40.29206253449688 0 0 0
28 1 1 -6.680462321856137 -2.5995139675608736 -40.6994585670519 0 0 0
27 1 1 -6.856124310957379 -3.190024831693515 -39.91549559943563 0 0 0
19 1 1 -5.4741033067863345 -2.751968294164234 -38.96587319472304 0 0 0
21 1 1 -4.535029429527443 -3.2706011430553463 -39.77747098545899 0 0 0
20 1 1 -4.724388904099605 -2.3167960245487147 -39.42201025893255 0 0 0
11 1 1 -6.481868268738943 0.21177971480281926 -38.63157981781613 0 0 0
12 1 1 -5.4832579539401705 0.14294455299188746 -38.558984281520125 0 0 0
210 1 1 11.726579829401423 1.110527747908923 -39.54967674287468 0 0 0
209 1 1 11.826155156578189 0.8234286595702142 -40.505812923003916 0 0 0
212 1 1 12.790898106475247 1.0340681567243655 -39.312713624007785 0 0 0
211 1 1 12.120972868233315 0.5678467431015574 -38.86313229453433 0 0 0
6 1 1 -8.43051705672696 2.600872419207557 -38.880808644432804 0 0 0
218 1 1 10.776245168859939 3.0172417280521184 -39.01985798683809 0 0 0
217 1 1 10.283865341644505 2.2038932754260276 -38.91929694535695 0 0 0
149 1 1 -0.6974757196787722 10.04169518390953 -40.7816185698235 0 0 0
151 1 1 0.41833584497550214 10.734867370796723 -40.92065365909822 0 0 0
15 1 1 -4.329322589161457 -1.5656973189871444 -38.28553446382322 0 0 0
16 1 1 -3.7665514180079276 -2.0352384600621036 -37.55977677846548 0 0 0
18 1 1 -4.6364464082072665 -2.8448154080796484 -38.468841630751896 0 0 0
17 1 1 -4.0221039575685325 -2.943824328276483 -37.714136425745096 0 0 0
9 1 1 -7.065628115322611 0.9918031691430396 -37.85028184600173 0 0 0
10 1 1 -6.3482171449158855 0.4254612588887554 -37.70628268508057 0 0 0
13 1 1 -5.885874134236543 -0.5943593950240684 -38.02080729814009 0 0 0
14 1 1 -5.085701897996433 -1.0732076121400023 -38.019680685481994 0 0 0
5 1 1 -9.106198541262406 3.1060906967812763 -38.38208683599532 0 0 0
8 1 1 -7.571850698493945 1.8859359582948156 -37.76222267551414 0 0 0
7 1 1 -8.386909350170653 1.782875177332751 -38.34000213180468 0 0 0
4 1 1 -8.238699249545807 3.4780890384460452 -38.170058480031294 0 0 0
215 1 1 10.858494410353135 1.3187337331967006 -37.664933153532346 0 0 0
216 1 1 10.366978702935583 2.0148124861442023 -38.01427459264612 0 0 0
214 1 1 11.537908673142907 1.352659152963709 -38.40593126336299 0 0 0
213 1 1 12.455138710917147 1.4512583908019487 -38.474796694147955 0 0 0
220 1 1 11.871855432624761 3.360231565399653 -37.54728910784024 0 0 0
219 1 1 11.324361732600806 3.0144012296130764 -38.26471909632133 0 0 0
223 1 1 14.144384028613775 3.465887502228862 -36.78534577183758 0 0 0
2 1 1 -7.062885842882959 4.838528893522145 -37.90124156378784 0 0 0
1 1 1 -7.523059103346743 5.545975754318055 -37.44970691701393 0 0 0
3 1 1 -7.7631396639838774 4.337274541944296 -38.35828004574728 0 0 0
221 1 1 12.59905128082315 3.846398727334848 -37.09879228911268 0 0 0
222 1 1 13.402097930955673 3.978917937343583 -36.5539443011562 0 0 0
939 1 1 -13.201672309923303 -11.106476699010273 -33.89416946871929 0 0 0
937 1 1 -12.16849720031726 -11.911783717936025 -34.414226915426035 0 0 0
936 1 1 -11.770962138400327 -12.636837142773096 -33.90424676575355 0 0 0
942 1 1 -13.433116714228687 -9.309857214055361 -35.56889972658467 0 0 0
943 1 1 -13.433140275627654 -8.824521876149877 -34.745905920327665 0 0 0
941 1 1 -13.303795954387628 -10.271889347594815 -35.39093261846385 0 0 0
940 1 1 -13.172120523829681 -10.36481729193145 -34.47891656055104 0 0 0
944 1 1 -12.527508853584312 -8.911416950001874 -34.42162346538176 0 0 0
974 1 1 -19.787893300204196 -8.055765723885571 -34.067024358324026 0 0 0
975 1 1 -19.24631242308851 -7.282966058766483 -34.03296685428739 0 0 0
946 1 1 -11.203590535072491 -8.055923671082315 -35.49009827144032 0 0 0
945 1 1 -12.121085774132217 -8.2455533304005 -35.08371137212675 0 0 0
949 1 1 -9.411285560316502 -8.388950443795133 -33.75682635326046 0 0 0
948 1 1 -9.662335121836387 -7.829143537334158 -34.52230749765653 0 0 0
947 1 1 -10.36445643435048 -8.20346833759786 -35.113790861695676 0 0 0
980 1 1 -22.029180803398784 -4.791879586419897 -33.768045945311336 0 0 0
979 1 1 -21.18503848202151 -5.353265629787506 -33.9603646529815 0 0 0
225 1 1 13.065785980819685 3.599586289224391 -35.51509600933883 0 0 0
226 1 1 12.389850058410218 3.086390756886848 -35.00349201749794 0 0 0
224 1 1 13.871712880131762 3.073891120049601 -35.929925237415695 0 0 0
229 1 1 11.571251648926285 5.07543548919298 -34.802111162265305 0 0 0
227 1 1 12.370806566057487 4.03578998301214 -34.85563676448683 0 0 0
228 1 1 11.716579062738198 4.317506978586614 -35.50037362644663 0 0 0
230 1 1 11.595061274519992 6.006248764051091 -35.17516893519181 0 0 0
236 1 1 10.256361621171665 8.29926371745831 -34.2121443343317 0 0 0
234 1 1 10.880603343623449 7.237455648726204 -34.6847874291967 0 0 0
235 1 1 10.948006062860317 7.753048476441368 -33.8676684449204 0 0 0
237 1 1 9.512982782167914 7.882889292521373 -33.72857085048583 0 0 0
233 1 1 11.320468737643978 8.091881200296093 -34.86042829841493 0 0 0
232 1 1 12.123549680281737 7.637232533299306 -35.136230959347444 0 0 0
231 1 1 12.216926651597822 6.68624758335158 -35.32120928578911 0 0 0
938 1 1 -12.704151200105427 -11.880584412586828 -33.525421559512964 0 0 0
935 1 1 -11.796536259669711 -12.74875825281168 -32.94018859559584 0 0 0
934 1 1 -11.704837704640058 -12.174358999520889 -32.216328659961114 0 0 0
933 1 1 -11.382320280848223 -11.68018827061652 -32.97689698283537 0 0 0
932 1 1 -10.815945242743501 -11.130842305937223 -32.38256158496233 0 0 0
957 1 1 -12.80400624628947 -8.555633287454821 -32.113161521373954 0 0 0
931 1 1 -10.877202109057416 -10.681100538697367 -31.412802937150946 0 0 0
970 1 1 -19.983491981817785 -6.689877907268119 -31.738713662553334 0 0 0
969 1 1 -19.153240098008716 -6.497049608441646 -32.20077018664864 0 0 0
976 1 1 -19.62398614589855 -6.4922002772973135 -33.610168641458685 0 0 0
971 1 1 -20.2526637268987 -7.639181735825826 -31.62767545144739 0 0 0
972 1 1 -19.993428955162774 -8.280738135502476 -32.33569333156685 0 0 0
973 1 1 -19.644863035510593 -7.821646815354171 -33.0873812738486 0 0 0
977 1 1 -20.59155666669463 -6.310453821906062 -33.56664300845452 0 0 0
963 1 1 -17.175883315177675 -7.074535127824883 -31.88078958666446 0 0 0
964 1 1 -18.065796176858203 -6.8956762408195695 -31.57632791213535 0 0 0
962 1 1 -16.20792837080502 -7.0821267424280885 -32.17687499397794 0 0 0
960 1 1 -14.738519443435719 -7.360521118929681 -31.50827482791883 0 0 0
961 1 1 -15.363916808581365 -6.719153308866461 -31.88078492026111 0 0 0
958 1 1 -13.469860577067905 -8.538952133171922 -31.41864490894013 0 0 0
954 1 1 -11.001098173309833 -7.33860096281308 -32.624001494218746 0 0 0
956 1 1 -12.500505504242641 -7.8117124042649655 -32.69335885308758 0 0 0
955 1 1 -11.844111545776673 -7.314351360125768 -33.15129728736736 0 0 0
950 1 1 -10.057376319809965 -7.650579326126094 -33.40957731413212 0 0 0
952 1 1 -9.142525802581243 -7.206207340414508 -32.27583904613855 0 0 0
951 1 1 -9.549379332426472 -6.903008193704124 -33.05011442294744 0 0 0
953 1 1 -10.14643388090599 -7.2847403633518395 -32.14889515498421 0 0 0
978 1 1 -21.08772141598313 -5.670124785452185 -33.039325583001556 0 0 0
982 1 1 -21.918824652995628 -5.119400914286185 -31.884941247774123 0 0 0
981 1 1 -22.20046521039556 -5.008781943820807 -32.80082619303849 0 0 0
968 1 1 -18.506514596197793 -5.880531159769435 -32.10945139737582 0 0 0
967 1 1 -18.440415312512037 -4.9693503965333 -32.32434431870503 0 0 0
966 1 1 -17.88362161303409 -5.203760739466102 -31.592262218901876 0 0 0
239 1 1 7.986681705470457 7.652409602680974 -32.76286798672562 0 0 0
240 1 1 8.104496777016928 8.410484060733099 -31.9317209849588 0 0 0
238 1 1 8.650708444519845 8.115324454144194 -33.349836264015885 0 0 0
242 1 1 7.919973488414175 9.482579200673202 -31.770330923287506 0 0 0
244 1 1 7.681329971937982 10.249122152061481 -32.64789257070154 0 0 0
243 1 1 7.6502793907856885 9.313610942088857 -32.693313055782205 0 0 0
245 1 1 7.128753467782508 10.591578394463069 -33.36799812266596 0 0 0
252 1 1 7.295458452582605 10.659966796212553 -31.615124152327223 0 0 0
247 1 1 7.9736799900494715 11.910108479915843 -32.464373643534756 0 0 0
246 1 1 7.8770991715586485 11.202646965997355 -33.20800916776503 0 0 0
248 1 1 8.294254290003575 12.038132017341736 -31.552945434014333 0 0 0
249 1 1 7.367728223814873 12.41967634036152 -31.696199160779223 0 0 0
846 1 1 -10.135357890724896 -19.077270772524848 -29.330189043908224 0 0 0
847 1 1 -10.553933747980278 -18.243282160681492 -29.237909432399114 0 0 0
900 1 1 -13.995063131925612 -11.487345972020996 -29.202544140433133 0 0 0
929 1 1 -11.423454645642744 -11.361493707828119 -29.717672297041823 0 0 0
901 1 1 -13.219126088797488 -11.17411139585738 -29.641342856019023 0 0 0
928 1 1 -10.8549550518443 -11.961889490081186 -30.207562758640673 0 0 0
927 1 1 -10.235023518880883 -12.601809986388483 -29.669924108864386 0 0 0
926 1 1 -9.65745905343216 -11.855537234879787 -29.986566230668934 0 0 0
925 1 1 -8.794419622603643 -11.258435833755703 -30.066474269827793 0 0 0
998 1 1 -24.336439263560262 -8.798920008958287 -29.570933307529696 0 0 0
1000 1 1 -22.973137981782276 -8.895326743974843 -29.126209492407277 0 0 0
904 1 1 -14.391346930141424 -10.234909073609174 -29.946540753731995 0 0 0
905 1 1 -15.078557440034624 -9.570746287944157 -30.046643934507486 0 0 0
906 1 1 -14.57673679288866 -8.715842937529738 -30.06060282526035 0 0 0
930 1 1 -11.238509276444894 -10.946820307604245 -30.52018554938573 0 0 0
902 1 1 -12.711899806504997 -10.809685459211673 -30.393414230401092 0 0 0
903 1 1 -13.413876991237228 -10.156212633999987 -30.103065550105097 0 0 0
923 1 1 -9.063550418048827 -9.796148957035514 -30.106857673320842 0 0 0
922 1 1 -9.655234274573314 -9.034439235542342 -29.78204726677983 0 0 0
920 1 1 -8.686498345187898 -8.604107849432838 -30.87639249323868 0 0 0
924 1 1 -8.44612237091699 -10.444073496793356 -30.31634321626429 0 0 0
992 1 1 -23.313949172304728 -6.787940256804948 -29.486158011975746 0 0 0
993 1 1 -24.107316674087357 -7.148931606231115 -29.119073096688822 0 0 0
994 1 1 -24.945599643330805 -7.473973845518287 -29.566368526758897 0 0 0
999 1 1 -23.54922835578141 -8.211120190180472 -29.531092134271674 0 0 0
1003 1 1 -21.265354243161536 -8.379485534423889 -29.197052605411645 0 0 0
1002 1 1 -21.674809221100904 -7.743569548194994 -29.803196380885108 0 0 0
1001 1 1 -22.525970964533975 -8.19444825209447 -29.67794380426142 0 0 0
959 1 1 -13.839723654993396 -7.620814568703763 -31.255157833971317 0 0 0
908 1 1 -14.165617424974574 -7.219255705577433 -29.668300493128392 0 0 0
907 1 1 -14.010250205137146 -8.026500945135913 -30.251621653855857 0 0 0
910 1 1 -13.285794779419305 -6.162080663960047 -29.299798843877515 0 0 0
921 1 1 -9.358047757231532 -8.223531877915494 -30.24243306391707 0 0 0
915 1 1 -9.772042108280411 -6.734720112706779 -29.12921365553601 0 0 0
914 1 1 -10.693723964661196 -6.515506137695243 -29.05579013439023 0 0 0
917 1 1 -8.871243452196225 -7.347586012418944 -29.361159028730867 0 0 0
919 1 1 -8.257446014870105 -8.46134020337784 -30.028993073716205 0 0 0
918 1 1 -8.015856211587096 -7.654384999803443 -29.537855740296028 0 0 0
983 1 1 -22.440196263160075 -5.12504251963263 -31.0657909521674 0 0 0
985 1 1 -20.809824589419353 -4.485771146333198 -30.474929252584747 0 0 0
987 1 1 -21.162388691391804 -5.25488916297135 -29.139361040167117 0 0 0
984 1 1 -21.75733354242762 -4.5551264450055235 -30.725899246760413 0 0 0
986 1 1 -20.468639512457994 -4.813775995194209 -29.658612973212247 0 0 0
965 1 1 -18.088393055109734 -6.05903361823677 -31.110168665662172 0 0 0
911 1 1 -12.308192196284953 -5.785907652684229 -29.310556049037196 0 0 0
913 1 1 -11.328226910830638 -5.736804789337189 -29.01644514064208 0 0 0
912 1 1 -11.891509645166435 -4.96959296731138 -28.94180232852482 0 0 0
260 1 1 6.834895549134292 5.492678371675678 -29.837729889774486 0 0 0
261 1 1 7.546833131088353 5.415159037542056 -29.238307871904585 0 0 0
257 1 1 7.526000206928552 7.383000313202751 -29.773027455984238 0 0 0
259 1 1 7.418020612413454 6.21061436154371 -30.010184013805592 0 0 0
256 1 1 7.145284328118321 8.235248766032381 -29.93240687214241 0 0 0
258 1 1 7.512860291575143 6.987766000550746 -30.647179805368253 0 0 0
241 1 1 7.659527940699117 8.829806687974221 -31.174328627477912 0 0 0
253 1 1 7.732769526372307 10.172257985405487 -30.9688847424311 0 0 0
254 1 1 7.077177236617352 10.06697711858742 -30.30292500367584 0 0 0
255 1 1 7.2007721797793875 9.085868998920743 -30.270889738200793 0 0 0
250 1 1 6.9356130699137974 11.987301251394598 -30.912798097852967 0 0 0
251 1 1 6.819895469064597 11.037463844805877 -30.888135638328148 0 0 0
873 1 1 -16.501041802080117 -20.187360098681378 -26.919077658544854 0 0 0
874 1 1 -17.065455508648302 -19.54310139747405 -26.562131429165348 0 0 0
875 1 1 -17.482771040414118 -18.953510922660456 -27.166747678106255 0 0 0
872 1 1 -15.556875990602505 -19.95422445252543 -26.69392067666038 0 0 0
850 1 1 -11.512527518679692 -19.167782575528896 -27.71029242070846 0 0 0
848 1 1 -11.335894159980837 -18.37176497924823 -28.741332591991977 0 0 0
849 1 1 -10.831640447679462 -18.487133722133958 -27.939812073813275 0 0 0
851 1 1 -10.819168575382662 -19.34349337052122 -27.12817765852414 0 0 0
845 1 1 -10.173054962458533 -19.631207658242207 -28.602767535974316 0 0 0
844 1 1 -9.392981525564517 -20.00794217713793 -28.141148937227406 0 0 0
843 1 1 -8.455852490870633 -20.06606615770335 -27.835457593813114 0 0 0
842 1 1 -8.14972461483813 -20.196801271595984 -26.941862143412948 0 0 0
880 1 1 -19.549111375615762 -17.72229706141833 -26.66527332100637 0 0 0
879 1 1 -19.162002030641368 -17.517652792983895 -27.522443231292314 0 0 0
877 1 1 -18.326804732428656 -18.032585520596335 -27.328766275600913 0 0 0
878 1 1 -18.685572856145825 -17.872032756048405 -28.18149757721712 0 0 0
863 1 1 -15.861072483510819 -17.751628116484483 -28.35973065841763 0 0 0
864 1 1 -16.33460957550678 -17.164343944378928 -27.742025622216364 0 0 0
876 1 1 -17.63400146808332 -18.126394200909548 -26.67639895067927 0 0 0
886 1 1 -17.467128828721243 -16.06670278680521 -27.031853869746417 0 0 0
860 1 1 -13.491022659342972 -18.057041864660466 -27.65355537536208 0 0 0
862 1 1 -14.897523625580858 -17.547538365247757 -28.34229490244873 0 0 0
861 1 1 -14.375808945088986 -18.150066688116173 -27.752890181190192 0 0 0
865 1 1 -15.697729206749944 -16.694874465916715 -27.154969254572187 0 0 0
866 1 1 -15.084339201986028 -17.412444825203803 -27.09231106236265 0 0 0
855 1 1 -12.248700964631857 -16.592839841324018 -27.15480944770188 0 0 0
854 1 1 -12.344641117160878 -17.570660859791047 -26.827909401799506 0 0 0
856 1 1 -11.719890468812922 -17.096509934225224 -27.706032819831155 0 0 0
859 1 1 -12.514199786152417 -18.15903951768787 -27.76229012038995 0 0 0
858 1 1 -12.520836769669815 -17.497932538205486 -28.506656794562794 0 0 0
857 1 1 -12.014922128253373 -16.68452641490532 -28.564485760646523 0 0 0
1017 1 1 -23.65308668477296 -14.644569409313162 -27.255872916778767 0 0 0
1016 1 1 -23.35421711183588 -13.7917098304644 -27.41056129889547 0 0 0
1015 1 1 -24.267914331820855 -13.732938218202198 -27.746197571564842 0 0 0
890 1 1 -15.995841514111811 -14.678155218287303 -26.60968247705066 0 0 0
892 1 1 -17.261403398503532 -13.827301490757236 -26.652791970214572 0 0 0
891 1 1 -16.951332146102732 -14.710390526136502 -26.649526582113335 0 0 0
893 1 1 -16.3923437980125 -13.48189659083336 -26.876687666056668 0 0 0
888 1 1 -16.35421120676867 -14.75200756766842 -27.748801064426136 0 0 0
887 1 1 -16.930187333148833 -15.538475516228052 -27.56013511584073 0 0 0
889 1 1 -15.655276996511965 -14.103233568587033 -27.33360270630172 0 0 0
1012 1 1 -24.70607674757004 -11.38830983025424 -27.389334769172176 0 0 0
1013 1 1 -24.73948917674336 -12.381616569589577 -27.354063274552544 0 0 0
1014 1 1 -24.495755141202736 -13.201896376445275 -26.935562639202125 0 0 0
895 1 1 -16.188089195252942 -11.638292851267463 -27.054427434087273 0 0 0
896 1 1 -16.028205841250777 -11.563524430316182 -28.01301497036304 0 0 0
894 1 1 -16.431582794876828 -12.483501097714026 -26.70978440868297 0 0 0
898 1 1 -15.040083367805655 -11.039011481339822 -28.747926916081838 0 0 0
1010 1 1 -23.837539023201646 -10.011708073371187 -28.121239172878205 0 0 0
1009 1 1 -23.91908077539358 -9.224721520345986 -27.620274863438155 0 0 0
1011 1 1 -23.99531443588965 -10.92537908689277 -27.894860883916003 0 0 0
997 1 1 -24.940789114910043 -8.83736069609876 -28.735769744015474 0 0 0
899 1 1 -14.226838600034117 -10.59845068536647 -28.87621790412158 0 0 0
897 1 1 -15.59670424891446 -10.697089248252635 -28.060150751245494 0 0 0
996 1 1 -25.76393850537348 -8.500459029459027 -28.450643682246604 0 0 0
1008 1 1 -23.64518899685931 -8.509805492811564 -27.04844352980616 0 0 0
995 1 1 -25.221912760818213 -7.700877996067864 -28.62357798877936 0 0 0
990 1 1 -23.13031566465871 -6.220737969737563 -28.14922766275634 0 0 0
991 1 1 -22.96269199658045 -7.1076791242026145 -28.58656038684072 0 0 0
1005 1 1 -22.258858881756165 -8.225742754547964 -27.64787085410994 0 0 0