LAMMPS data file via write_data, version 2 Aug 2023, timestep = 20000000, units = lj

2 atoms
1 atom types

-12.5 12.5 xlo xhi
-12.5 12.5 ylo yhi
-12.5 12.5 zlo zhi

Masses

1 125

Pair Coeffs # lj/cut

1 1 1 5 5.61231
1 2 1 2.23607 2.5099
2 2 1 1 1.12246

Atoms # atomic

1 1 4.525318066844181 -6.955505313665778 -9.244893004037982 -1 0 0
2 1 4.586484785770038 -6.903426250618194 -3.9427818157190444 -1 0 0

Velocities

1 0.014458406516328187 -0.010786339172745097 -0.06369181274893063
2 -0.011978116041097171 -0.042009533185540515 -0.04079954997480771
