LAMMPS data file via MDAnalysis

        2000  atoms
        1999  bonds
           0  angles
           0  dihedrals
           0  impropers

           1  atom types
           1  bond types
           0  angle types
           0  dihedral types
           0  improper types

-30.5 30.5 xlo xhi
-30.5 30.5 ylo yhi
-233.5 233.5 zlo zhi


Masses

1 1.000000

Atoms

1 0 1 -19.201880 2.166062 57.822815
2 0 1 -19.859880 2.289782 58.545197
3 0 1 -19.497181 1.711500 59.333893
4 0 1 -19.438381 2.198971 60.222107
5 0 1 -19.270481 3.115486 60.144897
6 0 1 -18.416080 3.168749 60.476807
7 0 1 -18.331381 3.131476 59.471710
8 0 1 -17.770981 3.888060 59.493988
9 0 1 -17.644781 4.721090 58.912811
10 0 1 -17.635580 4.736301 57.982788
11 0 1 -18.046381 5.159672 57.278595
12 0 1 -18.389481 4.564852 56.644592
13 0 1 -17.862780 4.166290 55.931000
14 0 1 -18.197281 3.210226 55.837097
15 0 1 -17.971380 2.603457 55.118896
16 0 1 -17.311680 2.301602 54.406006
17 0 1 -17.150381 2.286381 53.480408
18 0 1 -16.400681 2.944010 53.376709
19 0 1 -16.002180 3.593287 54.019714
20 0 1 -15.150780 3.830588 53.532410
21 0 1 -14.354679 3.272970 53.603394
22 0 1 -14.010181 2.826508 52.791199
23 0 1 -14.593580 2.064961 52.619110
24 0 1 -14.042280 1.487202 52.125183
25 0 1 -14.495979 0.622851 51.947388
26 0 1 -13.853981 0.969742 51.238007
27 0 1 -12.873680 0.916611 51.423798
28 0 1 -12.637981 0.249562 50.816284
29 0 1 -11.876980 0.354391 51.304993
30 0 1 -11.455379 0.398071 52.160889
31 0 1 -11.098431 1.238741 51.792114
32 0 1 -10.562740 1.617781 52.498993
33 0 1 -10.766750 1.372042 53.411713
34 0 1 -9.821970 1.273621 53.705200
35 0 1 -9.629471 0.555741 53.083405
36 0 1 -9.424210 -0.128059 52.447601
37 0 1 -9.340990 0.667021 51.908997
38 0 1 -9.831430 1.474612 51.719513
39 0 1 -8.984550 1.830561 51.832092
40 0 1 -8.291309 2.493548 51.666809
41 0 1 -7.935791 2.353009 50.798798
42 0 1 -7.359780 1.599591 50.746216
43 0 1 -7.604121 1.498991 51.702911
44 0 1 -7.191121 1.711611 52.662689
45 0 1 -7.928881 1.810772 53.324707
46 0 1 -8.362560 1.143322 52.733215
47 0 1 -7.524050 0.645281 52.987305
48 0 1 -7.919581 0.795571 53.888916
49 0 1 -7.230870 0.757912 54.590302
50 0 1 -6.388310 0.397532 54.789795
51 0 1 -5.608872 0.312271 55.367889
52 0 1 -5.148951 0.383431 56.183502
53 0 1 -5.486191 0.904602 56.894897
54 0 1 -5.316370 1.892111 56.920502
55 0 1 -5.111041 2.241051 56.026611
56 0 1 -5.543782 2.889004 55.476990
57 0 1 -5.672211 2.535067 54.565704
58 0 1 -4.990551 2.809040 53.951202
59 0 1 -4.959681 3.794007 54.172699
60 0 1 -4.272831 4.126030 54.805115
61 0 1 -3.385472 4.441191 54.985291
62 0 1 -3.973231 4.886803 55.540497
63 0 1 -3.176140 5.283852 55.824493
64 0 1 -3.505650 5.840969 55.057404
65 0 1 -4.455660 5.747791 54.708588
66 0 1 -3.853381 5.247292 54.142609
67 0 1 -4.224991 5.987251 53.557007
68 0 1 -4.295401 6.930969 53.419800
69 0 1 -5.111340 7.117111 52.978607
70 0 1 -5.053221 7.554211 52.156403
71 0 1 -4.917210 7.577511 51.114105
72 0 1 -3.995781 7.175343 51.067413
73 0 1 -4.641871 6.488609 51.392212
74 0 1 -5.493571 5.952892 51.488892
75 0 1 -5.543971 5.502380 52.308105
76 0 1 -5.035561 4.643970 52.528687
77 0 1 -4.931651 4.323790 51.624298
78 0 1 -5.884572 4.110666 51.876007
79 0 1 -5.879460 3.997166 50.932007
80 0 1 -5.808611 4.523201 50.122803
81 0 1 -5.267300 4.299984 49.354095
82 0 1 -4.766621 3.946902 48.485107
83 0 1 -5.068001 4.677891 47.913513
84 0 1 -4.165810 5.036201 47.635590
85 0 1 -3.279252 4.703781 47.764404
86 0 1 -3.435071 4.186255 47.030212
87 0 1 -2.948672 3.466643 47.447205
88 0 1 -2.998412 2.669106 47.997498
89 0 1 -3.317320 1.926211 47.531616
90 0 1 -2.387181 1.805191 47.324493
91 0 1 -1.496405 2.110281 47.015198
92 0 1 -1.693615 1.199141 46.687805
93 0 1 -0.786955 0.949230 46.343109
94 0 1 0.114519 0.616442 46.439697
95 0 1 0.357708 1.601832 46.456299
96 0 1 1.156681 1.962881 46.013611
97 0 1 1.863048 1.469101 46.251099
98 0 1 2.508411 1.288582 45.550293
99 0 1 2.071880 1.774752 44.881409
100 0 1 3.017929 2.003481 44.657898
101 0 1 2.589958 2.883389 44.528107
102 0 1 2.402748 3.065211 43.614105
103 0 1 1.902080 2.534804 42.977783
104 0 1 0.992057 2.397702 43.256592
105 0 1 1.037540 1.821100 42.475494
106 0 1 0.785919 1.006272 41.993286
107 0 1 -0.038651 1.496241 42.020294
108 0 1 -0.065991 1.898152 41.227692
109 0 1 -0.062621 2.851412 40.847198
110 0 1 -0.744698 3.383389 41.330994
111 0 1 -1.093512 3.639506 40.508301
112 0 1 -0.260001 3.885609 39.988098
113 0 1 0.181799 4.728281 39.708099
114 0 1 0.124830 4.232887 38.957092
115 0 1 -0.698145 4.073053 38.382599
116 0 1 -1.378024 4.233063 39.008209
117 0 1 -1.876709 5.051701 39.219208
118 0 1 -2.186469 4.952011 38.288605
119 0 1 -2.984841 5.578682 38.255005
120 0 1 -3.388411 5.271000 37.394409
121 0 1 -2.818362 5.959961 36.983704
122 0 1 -1.970869 5.813110 36.498505
123 0 1 -1.149304 5.710880 36.901184
124 0 1 -0.872549 5.914032 35.988007
125 0 1 0.027010 5.716900 35.941101
126 0 1 0.078579 5.387161 35.038696
127 0 1 -0.172150 5.157181 34.148987
128 0 1 -0.309727 6.099072 33.896790
129 0 1 0.536159 6.015541 33.424896
130 0 1 1.088680 5.593552 32.739014
131 0 1 1.397800 5.396030 31.814789
132 0 1 1.570537 4.724911 31.130890
133 0 1 1.673710 4.240065 31.924011
134 0 1 1.124469 3.388373 31.912598
135 0 1 0.305030 3.895249 32.122894
136 0 1 -0.182291 3.436602 31.447113
137 0 1 -1.106659 3.793129 31.419006
138 0 1 -1.568409 4.625200 31.785492
139 0 1 -2.389102 4.988892 32.013611
140 0 1 -3.020831 4.690660 32.762787
141 0 1 -2.371781 4.413990 33.379395
142 0 1 -2.216168 4.168280 34.337006
143 0 1 -2.887551 3.523445 34.567505
144 0 1 -2.547921 2.706002 35.013397
145 0 1 -2.618311 2.128971 34.248901
146 0 1 -3.520091 2.254030 34.079803
147 0 1 -3.782681 1.450051 33.699585
148 0 1 -4.153420 0.957722 34.408112
149 0 1 -4.041340 0.317482 35.113007
150 0 1 -3.097210 0.280682 35.127197
151 0 1 -2.380400 -0.368309 35.378113
152 0 1 -1.796879 -0.034839 36.014893
153 0 1 -1.434504 -0.381119 36.885101
154 0 1 -1.984881 -0.947939 36.348602
155 0 1 -1.931284 -1.625398 35.743286
156 0 1 -1.061226 -1.862900 35.963196
157 0 1 -0.575972 -1.110889 35.548309
158 0 1 -0.187090 -0.323349 35.086090
159 0 1 0.208240 -0.261509 35.967010
160 0 1 1.124469 -0.115919 36.106812
161 0 1 1.563320 -0.942219 35.895386
162 0 1 2.479370 -0.971428 35.978394
163 0 1 2.903690 -1.851808 35.798584
164 0 1 2.006969 -2.038959 35.533905
165 0 1 1.784778 -2.888019 35.954407
166 0 1 2.290729 -3.388038 35.327515
167 0 1 2.931987 -4.064068 35.515198
168 0 1 2.469181 -4.083429 36.398407
169 0 1 1.564418 -3.871559 36.652313
170 0 1 0.816391 -3.688179 37.242096
171 0 1 -0.172680 -3.445009 37.253601
172 0 1 -0.120890 -4.171810 36.615295
173 0 1 -0.679291 -3.800798 35.916901
174 0 1 -1.169733 -3.358959 36.629700
175 0 1 -2.105107 -3.646000 36.482910
176 0 1 -2.230744 -2.714708 36.343109
177 0 1 -2.128132 -2.139450 37.100891
178 0 1 -2.241309 -2.504289 37.938995
179 0 1 -2.005574 -1.809189 38.541107
180 0 1 -2.503800 -1.040359 38.267395
181 0 1 -3.016631 -0.303758 37.789185
182 0 1 -3.769351 -0.554310 37.262085
183 0 1 -4.524151 -0.575248 36.629791
184 0 1 -4.560481 -1.511389 36.272491
185 0 1 -5.306101 -2.077638 36.123291
186 0 1 -5.868411 -2.438909 36.754700
187 0 1 -6.510931 -2.151289 37.349792
188 0 1 -6.560532 -1.174879 37.201996
189 0 1 -6.398652 -1.131288 38.199585
190 0 1 -6.207390 -1.637939 39.012299
191 0 1 -5.400382 -1.212518 38.708191
192 0 1 -4.894770 -1.946319 38.195007
193 0 1 -4.317490 -1.204628 38.253693
194 0 1 -3.699051 -1.420879 38.977783
195 0 1 -3.985011 -2.092468 39.553589
196 0 1 -3.147641 -1.826050 39.944214
197 0 1 -2.860100 -0.905189 39.808289
198 0 1 -3.748372 -0.502908 39.970886
199 0 1 -4.069951 0.339592 40.337097
200 0 1 -3.536412 1.098480 40.653595
201 0 1 -3.590432 2.085091 40.401306
202 0 1 -4.457211 1.787762 40.114288
203 0 1 -4.924611 1.068701 40.540405
204 0 1 -5.664120 0.886351 41.156708
205 0 1 -5.350241 1.632172 41.686310
206 0 1 -5.594040 2.511172 41.407410
207 0 1 -5.317860 3.472590 41.345093
208 0 1 -6.049481 4.167116 41.196503
209 0 1 -5.946072 3.417246 40.528107
210 0 1 -6.313450 3.209019 39.658691
211 0 1 -5.941300 3.192806 38.747314
212 0 1 -5.776532 2.998112 37.813110
213 0 1 -4.999381 2.851567 38.291412
214 0 1 -4.825171 3.499737 37.660492
215 0 1 -4.802210 4.206432 36.955505
216 0 1 -5.178391 3.420101 36.537201
217 0 1 -5.260460 3.866040 35.674103
218 0 1 -5.748341 3.053261 35.420502
219 0 1 -6.517731 3.622971 35.108490
220 0 1 -5.962861 3.427447 34.359406
221 0 1 -6.005841 3.172377 33.454407
222 0 1 -6.652581 2.458433 33.312408
223 0 1 -7.180331 3.288183 33.631409
224 0 1 -8.043360 3.024277 33.283691
225 0 1 -7.344281 3.196364 32.541016
226 0 1 -7.619542 2.221661 32.545197
227 0 1 -7.725691 2.758921 31.688293
228 0 1 -7.409512 3.555130 31.190491
229 0 1 -6.945752 3.522187 30.361389
230 0 1 -6.895001 4.175732 29.696686
231 0 1 -6.231020 3.814923 29.077087
232 0 1 -5.799000 3.601361 29.943604
233 0 1 -4.901291 3.435368 30.359985
234 0 1 -4.835511 3.114273 29.385193
235 0 1 -4.169451 2.538590 29.816406
236 0 1 -3.610520 2.536591 29.029205
237 0 1 -2.750062 2.300211 28.498413
238 0 1 -2.281573 1.866711 29.199707
239 0 1 -1.514025 1.297692 29.099213
240 0 1 -1.981633 0.903862 29.825714
241 0 1 -1.629177 0.916611 30.731201
242 0 1 -2.138531 1.782501 30.697388
243 0 1 -3.004151 2.114031 30.359802
244 0 1 -3.835841 1.672421 30.167908
245 0 1 -3.574730 1.354702 31.055389
246 0 1 -3.364090 1.915972 31.767609
247 0 1 -3.776101 1.140560 32.031494
248 0 1 -3.307810 0.496191 32.608002
249 0 1 -2.346901 0.634901 32.650909
250 0 1 -1.583470 0.827132 33.212189
251 0 1 -0.897063 0.276421 33.387909
252 0 1 -0.234791 0.656281 34.010498
253 0 1 0.524349 1.228171 34.233612
254 0 1 1.030811 0.849522 33.431610
255 0 1 1.336799 0.334452 34.196289
256 0 1 1.298088 -0.336389 33.429810
257 0 1 2.104827 -0.361950 34.021698
258 0 1 2.947509 -0.487900 34.572113
259 0 1 3.694957 0.053862 34.595215
260 0 1 4.334938 -0.678318 34.743286
261 0 1 4.048481 -1.500549 34.244812
262 0 1 4.392601 -1.959030 33.486389
263 0 1 3.665901 -1.716659 32.932709
264 0 1 3.604000 -1.302250 32.095612
265 0 1 2.683059 -1.384008 31.711914
266 0 1 3.266830 -1.245918 31.045593
267 0 1 3.062278 -0.861879 30.156403
268 0 1 2.329547 -0.205139 30.134186
269 0 1 2.476539 0.119601 29.236389
270 0 1 3.428180 0.311392 29.054413
271 0 1 4.335479 0.285931 29.369995
272 0 1 5.189029 -0.099869 29.340393
273 0 1 5.452770 0.769732 29.721008
274 0 1 5.300437 1.275440 28.953705
275 0 1 6.166870 1.359961 28.558411
276 0 1 6.764160 1.295931 27.749207
277 0 1 6.468750 0.381241 27.698608
278 0 1 7.236000 -0.146000 27.381287
279 0 1 7.559871 -0.953018 27.734802
280 0 1 7.756519 -1.866018 27.949097
281 0 1 7.460178 -1.776588 28.856384
282 0 1 7.916111 -1.200958 29.429413
283 0 1 7.638141 -0.374409 29.893188
284 0 1 8.003151 0.374861 30.297394
285 0 1 8.442909 -0.332550 30.830811
286 0 1 9.081318 -0.790508 31.377014
287 0 1 9.064018 -1.610578 31.935791
288 0 1 9.238522 -1.889889 31.062897
289 0 1 8.242790 -1.763420 31.020599
290 0 1 7.800788 -1.117248 31.613312
291 0 1 7.049861 -0.645239 31.935913
292 0 1 7.334171 0.051750 32.560486
293 0 1 7.066127 0.173741 33.476501
294 0 1 7.469059 -0.006078 34.385590
295 0 1 6.658481 0.277451 34.836914
296 0 1 7.202098 1.158821 34.895813
297 0 1 8.016567 1.752880 34.865692
298 0 1 7.861560 2.690680 35.259308
299 0 1 6.983158 2.388445 35.063202
300 0 1 7.053848 3.242737 34.756592
301 0 1 6.232498 3.079821 35.079407
302 0 1 5.647670 3.554243 35.694702
303 0 1 6.272949 4.293100 35.553894
304 0 1 6.818260 5.033611 35.136108
305 0 1 7.667781 4.945160 35.549500
306 0 1 7.972240 5.875393 35.635590
307 0 1 7.719429 5.820202 34.724487
308 0 1 7.852310 5.003372 34.315308
309 0 1 8.476589 5.633949 33.872101
310 0 1 9.280319 5.588421 33.338287
311 0 1 9.434719 4.780981 32.871307
312 0 1 8.639568 4.282608 32.718597
313 0 1 9.237720 4.220438 31.944489
314 0 1 9.865318 4.977032 31.823608
315 0 1 10.669521 4.860600 31.271790
316 0 1 11.210819 5.123161 30.544495
317 0 1 10.374317 5.371151 30.105591
318 0 1 10.145420 5.009640 29.264893
319 0 1 10.697521 5.392681 28.632690
320 0 1 10.422321 6.383942 28.454010
321 0 1 10.021019 6.594589 29.325012
322 0 1 9.168621 6.821793 29.671387
323 0 1 8.327030 7.174412 29.409210
324 0 1 7.449718 6.856270 29.045502
325 0 1 6.557189 6.481861 29.048187
326 0 1 6.537941 6.284290 29.977905
327 0 1 6.702438 7.176891 30.271210
328 0 1 5.855300 7.597839 30.382812
329 0 1 6.648201 8.221519 30.445587
330 0 1 6.697689 9.171513 30.304688
331 0 1 7.639198 9.268402 30.340698
332 0 1 8.150318 9.912502 30.769012
333 0 1 8.457489 9.762783 31.651398
334 0 1 8.584030 10.646893 32.159912
335 0 1 7.752849 11.036171 32.511292
336 0 1 7.096668 10.484352 33.076294
337 0 1 6.188068 10.943130 33.019714
338 0 1 6.624771 11.691189 32.669891
339 0 1 6.418579 11.261650 31.825195
340 0 1 5.581050 11.234432 31.422699
341 0 1 4.875350 10.990170 30.820007
342 0 1 4.415260 10.254742 31.100311
343 0 1 4.104759 10.665062 31.912689
344 0 1 3.430828 11.303410 31.690186
345 0 1 2.495208 11.419632 31.937195
346 0 1 1.985050 11.701130 31.107391
347 0 1 1.064060 11.540691 31.093597
348 0 1 0.227928 11.118080 31.000793
349 0 1 -0.554865 10.769833 30.622406
350 0 1 -0.414500 10.083431 31.381714
351 0 1 -0.119101 9.215813 31.645599
352 0 1 0.248767 9.024139 30.742310
353 0 1 0.580879 8.321793 30.202393
354 0 1 -0.077031 7.933281 29.603088
355 0 1 0.534618 7.205219 29.569794
356 0 1 1.476318 7.346531 29.752594
357 0 1 1.032749 7.083363 30.612396
358 0 1 1.728458 6.634281 31.032196
359 0 1 2.639938 6.335873 30.925415
360 0 1 2.916790 5.434402 31.283386
361 0 1 3.795509 5.343403 31.487915
362 0 1 4.179760 5.828022 30.753204
363 0 1 4.022850 5.811050 29.827698
364 0 1 3.172451 5.655640 29.491791
365 0 1 2.767429 6.315170 28.879791
366 0 1 2.346218 6.859161 28.141510
367 0 1 2.292671 5.908081 27.829895
368 0 1 2.333999 5.845001 26.865814
369 0 1 1.649311 5.223671 26.998413
370 0 1 2.260578 4.679590 26.551300
371 0 1 2.237899 5.337311 25.836212
372 0 1 1.987171 4.773272 25.025391
373 0 1 2.891319 4.724901 24.808899
374 0 1 2.614509 3.993880 25.313995
375 0 1 3.143711 3.272846 24.982788
376 0 1 3.959621 2.777056 24.806000
377 0 1 4.216468 3.442190 24.077301
378 0 1 4.855609 3.866251 23.518890
379 0 1 4.587409 4.336971 22.713196
380 0 1 5.210529 5.026409 23.075012
381 0 1 5.333259 4.763481 22.118896
382 0 1 5.748531 4.256395 21.368698
383 0 1 5.405830 3.480290 20.996902
384 0 1 4.555469 3.095942 20.789703
385 0 1 4.306839 2.200550 21.219406
386 0 1 3.844558 1.394100 21.578308
387 0 1 3.247959 1.254011 20.853302
388 0 1 2.313129 0.895340 20.970093
389 0 1 2.352291 1.714812 21.500595
390 0 1 1.534561 1.802860 21.933594
391 0 1 1.112381 0.972592 21.592697
392 0 1 0.262168 1.405432 21.483795
393 0 1 -0.480860 2.017712 21.353699
394 0 1 -0.821330 1.773531 22.221008
395 0 1 -1.829859 1.679081 22.219406
396 0 1 -2.417021 0.902050 22.403503
397 0 1 -3.187251 1.386851 22.200897
398 0 1 -3.768931 0.660280 22.343796
399 0 1 -4.585701 0.424622 21.809494
400 0 1 -5.390311 0.051211 21.302002
401 0 1 -4.682961 -0.680439 21.434006
402 0 1 -3.840821 -0.831199 21.848404
403 0 1 -3.119261 -1.379789 21.695999
404 0 1 -3.073481 -1.865358 22.541901
405 0 1 -3.057530 -2.833839 22.531708
406 0 1 -3.980752 -2.565208 22.257095
407 0 1 -4.349572 -2.234339 21.471100
408 0 1 -4.052102 -2.335060 20.534500
409 0 1 -4.969342 -2.076790 20.070801
410 0 1 -4.892870 -1.670109 19.215195
411 0 1 -4.892581 -2.496139 18.795593
412 0 1 -3.953431 -2.699999 18.483994
413 0 1 -3.070172 -2.214039 18.349106
414 0 1 -2.612721 -1.370458 18.182205
415 0 1 -2.771311 -1.422188 19.112595
416 0 1 -2.445261 -0.704199 19.615601
417 0 1 -2.710541 -1.207069 20.305695
418 0 1 -2.353291 -2.087349 19.927795
419 0 1 -2.345641 -2.982170 19.537201
420 0 1 -2.600251 -3.940468 19.331604
421 0 1 -2.134182 -3.809780 18.526001
422 0 1 -1.659891 -3.927019 17.718704
423 0 1 -1.809420 -4.896349 17.513504
424 0 1 -1.566168 -5.393549 16.674103
425 0 1 -1.710842 -5.745159 15.767197
426 0 1 -0.685353 -5.584179 15.736298
427 0 1 -0.141381 -6.278240 15.355896
428 0 1 -0.131531 -6.590759 16.214005
429 0 1 0.796390 -6.736328 16.615692
430 0 1 0.642997 -7.596130 16.313705
431 0 1 -0.072482 -7.499029 15.661102
432 0 1 0.636447 -8.106329 15.502304
433 0 1 0.013189 -8.220829 14.759598
434 0 1 0.156999 -8.848728 13.988403
435 0 1 0.923008 -8.683729 13.458298
436 0 1 0.825958 -7.764130 13.672104
437 0 1 -0.066780 -7.553528 14.014297
438 0 1 -0.146710 -7.949429 13.115906
439 0 1 -0.644162 -7.789928 12.320297
440 0 1 -1.373333 -8.452328 11.997192
441 0 1 -1.239079 -8.815128 11.109802
442 0 1 -1.396395 -9.692329 10.629303
443 0 1 -1.842463 -10.181229 11.341599
444 0 1 -2.456810 -10.073128 12.043793
445 0 1 -2.848191 -9.286829 12.328995
446 0 1 -3.491770 -9.745228 11.769302
447 0 1 -3.858382 -9.961929 12.637802
448 0 1 -3.358490 -10.790630 12.564499
449 0 1 -4.194022 -11.173429 12.555496
450 0 1 -4.206900 -11.044029 13.492004
451 0 1 -4.849560 -10.821329 14.304306
452 0 1 -4.993382 -9.844128 14.150406
453 0 1 -5.268561 -9.130129 14.738602
454 0 1 -4.653990 -8.422329 14.755493
455 0 1 -4.184620 -7.718529 14.267197
456 0 1 -5.024312 -8.041929 13.797607
457 0 1 -5.032561 -7.040928 13.789398
458 0 1 -5.031811 -6.009579 13.970200
459 0 1 -4.720891 -5.596008 13.186096
460 0 1 -4.237320 -5.202259 13.865097
461 0 1 -4.843131 -4.706459 14.387604
462 0 1 -4.737912 -3.756498 14.416000
463 0 1 -3.893061 -3.465259 14.643402
464 0 1 -3.977831 -2.863239 15.488495
465 0 1 -4.180481 -2.017648 15.039505
466 0 1 -5.162072 -2.159908 14.747894
467 0 1 -5.960541 -2.666939 14.465302
468 0 1 -6.521990 -3.292698 14.870697
469 0 1 -7.369801 -2.917108 15.150406
470 0 1 -7.849732 -2.683439 14.369995
471 0 1 -8.258131 -3.092678 13.581497
472 0 1 -8.884109 -3.740318 13.259094
473 0 1 -8.600811 -4.231699 12.546997
474 0 1 -8.213039 -4.759369 11.839096
475 0 1 -8.023361 -4.240170 11.060699
476 0 1 -7.131861 -4.556278 10.747406
477 0 1 -6.354161 -4.085129 10.480896
478 0 1 -6.025691 -3.569130 9.606735
479 0 1 -5.858681 -4.495190 9.411499
480 0 1 -5.111830 -5.109058 9.144119
481 0 1 -4.256951 -5.494778 9.178238
482 0 1 -3.484110 -5.923500 8.911346
483 0 1 -3.344691 -5.797129 9.866043
484 0 1 -2.620110 -6.268599 10.404099
485 0 1 -1.939583 -6.859428 10.770798
486 0 1 -1.334076 -7.056429 9.994034
487 0 1 -0.674080 -7.426029 9.431290
488 0 1 -0.873009 -8.336330 9.142197
489 0 1 -1.513237 -8.961830 9.574158
490 0 1 -0.765315 -9.427429 9.322632
491 0 1 -1.290709 -9.372330 8.493500
492 0 1 -1.982666 -10.005629 8.717636
493 0 1 -1.058255 -10.376629 8.545288
494 0 1 -0.936266 -11.050930 7.896973
495 0 1 -1.425534 -11.557329 8.532059
496 0 1 -0.472805 -11.600929 8.786682
497 0 1 0.148460 -10.902029 8.830124
498 0 1 0.186538 -10.703030 7.878952
499 0 1 0.927169 -11.269329 7.587875
500 0 1 0.794818 -11.959629 6.952942
501 0 1 0.492569 -12.691830 6.458435
502 0 1 -0.009390 -13.354630 6.039505
503 0 1 -0.871087 -13.707829 6.147263
504 0 1 -1.649689 -13.331329 5.671906
505 0 1 -1.342987 -12.551229 5.089935
506 0 1 -0.763590 -11.718129 5.025177
507 0 1 -1.636717 -11.399629 4.652405
508 0 1 -2.694891 -11.248729 4.537827
509 0 1 -2.358761 -10.545330 3.962570
510 0 1 -2.668831 -9.620430 3.919159
511 0 1 -2.098965 -9.245729 4.649902
512 0 1 -2.405201 -8.325729 4.647766
513 0 1 -2.442082 -7.495930 5.170212
514 0 1 -2.536351 -6.543758 5.530975
515 0 1 -2.860571 -6.822229 6.474152
516 0 1 -3.381192 -7.627829 6.673447
517 0 1 -4.115881 -8.204529 7.091812
518 0 1 -5.072541 -8.261730 7.053848
519 0 1 -5.192980 -8.580429 6.153534
520 0 1 -5.187331 -7.778328 5.668396
521 0 1 -4.821261 -7.876429 4.613052
522 0 1 -5.485230 -8.508030 4.925385
523 0 1 -5.967551 -9.235029 5.209854
524 0 1 -6.501301 -8.620729 5.691910
525 0 1 -6.483222 -7.926729 6.284973
526 0 1 -6.922581 -7.904228 7.148056
527 0 1 -6.122721 -7.407028 7.049347
528 0 1 -6.851670 -6.913729 6.673004
529 0 1 -6.881590 -7.009729 5.722076
530 0 1 -7.016572 -6.078949 5.394806
531 0 1 -7.823590 -6.444489 4.953156
532 0 1 -7.747681 -5.616940 4.524139
533 0 1 -7.570961 -5.420609 3.615387
534 0 1 -6.981791 -6.047659 3.193604
535 0 1 -6.440361 -6.539978 3.841522
536 0 1 -6.156010 -7.045628 3.089874
537 0 1 -6.061341 -6.999329 2.075867
538 0 1 -5.528092 -6.482250 1.474365
539 0 1 -5.214282 -6.875429 0.588455
540 0 1 -5.665741 -6.057449 0.329224
541 0 1 -6.553591 -6.126808 -0.025375
542 0 1 -6.814351 -5.208839 -0.058105
543 0 1 -5.930071 -4.986519 0.345429
544 0 1 -5.242772 -5.177700 0.953873
545 0 1 -5.349202 -5.401579 1.880768
546 0 1 -6.117112 -5.923569 2.044067
547 0 1 -6.154711 -5.356619 2.880646
548 0 1 -6.314652 -4.720669 3.637711
549 0 1 -5.775721 -5.066849 4.345551
550 0 1 -5.819840 -4.167290 4.735855
551 0 1 -5.418381 -3.425058 4.209274
552 0 1 -6.009732 -3.034239 3.534698
553 0 1 -6.807080 -3.659969 3.566437
554 0 1 -6.419981 -3.386709 2.655212
555 0 1 -6.838461 -2.985489 1.926575
556 0 1 -6.889790 -2.140638 2.281906
557 0 1 -6.712792 -1.144729 2.241714
558 0 1 -5.824280 -0.815258 2.504257
559 0 1 -6.146361 0.005671 2.910095
560 0 1 -6.669590 -0.579010 3.442825
561 0 1 -6.000361 -0.887508 4.084625
562 0 1 -5.955502 -1.297508 4.878189
563 0 1 -5.618752 -0.480129 5.181305
564 0 1 -5.888861 0.243490 5.728256
565 0 1 -4.848071 -0.008209 6.019852
566 0 1 -5.385321 0.505421 6.587524
567 0 1 -4.591881 0.454411 7.043793
568 0 1 -4.861790 0.961231 7.829575
569 0 1 -5.353961 0.990521 8.628876
570 0 1 -5.666071 0.293711 7.974411
571 0 1 -6.406991 -0.295189 8.245316
572 0 1 -7.053730 -0.066849 7.615585
573 0 1 -6.492180 -0.766800 7.171768
574 0 1 -6.342911 -0.761570 6.130264
575 0 1 -6.317521 -1.656658 5.748123
576 0 1 -6.013562 -2.256689 6.526062
577 0 1 -5.305460 -2.461178 7.188095
578 0 1 -5.934990 -1.975469 7.816467
579 0 1 -6.063900 -2.542999 8.598969
580 0 1 -6.604460 -3.184170 8.047821
581 0 1 -7.406411 -3.580589 8.266495
582 0 1 -6.934041 -4.256409 7.722305
583 0 1 -7.184712 -4.001419 6.881454
584 0 1 -6.612820 -3.280918 6.546982
585 0 1 -7.404360 -2.915600 6.889435
586 0 1 -7.741251 -2.024830 6.745300
587 0 1 -8.583740 -1.918779 6.354996
588 0 1 -8.552540 -1.631529 7.359650
589 0 1 -8.959671 -1.140638 8.139175
590 0 1 -9.012850 -0.241369 8.380234
591 0 1 -8.527540 0.329272 7.818985
592 0 1 -9.009991 1.063151 7.342865
593 0 1 -8.978981 0.227482 6.829437
594 0 1 -9.781691 0.059012 7.357956
595 0 1 -10.051500 0.665020 6.644852
596 0 1 -9.927731 -0.119138 6.069305
597 0 1 -10.193300 -0.812429 5.450180
598 0 1 -10.859501 -0.107198 5.478424
599 0 1 -11.777580 -0.020578 5.212402
600 0 1 -11.404881 -0.939918 5.264359
601 0 1 -11.814581 -0.743889 6.100464
602 0 1 -11.346081 -0.051489 6.624588
603 0 1 -11.408279 -0.716219 7.369431
604 0 1 -10.503189 -0.697460 7.353516
605 0 1 -10.704559 -0.808908 8.274429
606 0 1 -11.405081 -0.265219 8.628891
607 0 1 -10.946239 0.586331 9.029877
608 0 1 -10.551540 1.473891 9.302567
609 0 1 -10.086262 1.410141 8.523529
610 0 1 -10.470970 1.348841 7.671906
611 0 1 -11.117491 2.010241 7.382507
612 0 1 -11.726082 2.027802 8.142899
613 0 1 -12.618580 2.009011 8.453461
614 0 1 -13.059080 1.497902 7.764542
615 0 1 -13.069281 0.625111 8.134995
616 0 1 -13.502682 0.515480 8.986694
617 0 1 -13.028881 1.270222 9.332596
618 0 1 -12.410782 1.849131 9.813187
619 0 1 -12.718182 1.058041 10.378906
620 0 1 -13.247181 0.291001 10.391006
621 0 1 -13.596781 -0.282009 11.043503
622 0 1 -12.861580 -0.787519 11.264099
623 0 1 -12.322781 -1.264728 10.654602
624 0 1 -11.780479 -1.871708 11.113800
625 0 1 -12.299881 -1.638218 11.892303
626 0 1 -12.806980 -1.742269 12.713898
627 0 1 -13.694080 -1.998268 12.573196
628 0 1 -14.209681 -1.234199 12.944901
629 0 1 -13.715780 -1.086498 13.763199
630 0 1 -13.369480 -1.295839 14.666199
631 0 1 -13.726480 -2.086689 14.261002
632 0 1 -13.689680 -2.972849 14.673904
633 0 1 -14.593479 -2.872589 14.341705
634 0 1 -15.284679 -3.569858 14.276093
635 0 1 -14.495079 -4.099720 14.099106
636 0 1 -13.848282 -4.428249 14.738998
637 0 1 -13.286781 -4.335388 13.940704
638 0 1 -12.464481 -4.631039 13.526001
639 0 1 -11.829182 -4.505039 14.282394
640 0 1 -12.330780 -4.732319 15.078598
641 0 1 -13.152081 -4.479050 15.540298
642 0 1 -13.570980 -4.067608 16.321899
643 0 1 -14.050180 -3.286079 16.390503
644 0 1 -14.480980 -3.556249 17.174896
645 0 1 -14.103279 -4.491169 17.201096
646 0 1 -14.785280 -5.158150 17.188202
647 0 1 -15.533981 -5.505230 17.706497
648 0 1 -16.365881 -5.719250 17.209000
649 0 1 -16.216980 -6.446320 17.766998
650 0 1 -16.772781 -7.253830 17.833694
651 0 1 -17.581480 -7.249929 18.352692
652 0 1 -17.678780 -8.113728 18.000092
653 0 1 -17.929880 -8.664429 17.253204
654 0 1 -18.454380 -8.513828 16.514999
655 0 1 -19.274481 -8.000729 16.472107
656 0 1 -19.169680 -8.779530 15.856293
657 0 1 -19.962381 -9.373129 15.949799
658 0 1 -19.411180 -9.904030 16.510300
659 0 1 -19.019381 -9.876930 17.367798
660 0 1 -18.409380 -9.758228 18.259705
661 0 1 -17.882280 -10.545429 18.003693
662 0 1 -17.136181 -10.495829 17.454697
663 0 1 -16.409981 -9.906128 17.606094
664 0 1 -15.959980 -9.955330 18.466995
665 0 1 -15.692680 -9.021130 18.577896
666 0 1 -15.977281 -8.383530 19.191193
667 0 1 -15.071381 -8.219929 19.366608
668 0 1 -14.478180 -7.571430 18.912598
669 0 1 -13.896881 -7.202129 18.257904
670 0 1 -13.256281 -6.734528 17.516296
671 0 1 -12.446781 -7.116528 17.864594
672 0 1 -12.510580 -7.566128 17.031494
673 0 1 -12.223680 -8.234730 16.307007
674 0 1 -12.665581 -8.678829 15.604294
675 0 1 -13.241680 -9.420429 15.423401
676 0 1 -14.203079 -9.427128 15.297699
677 0 1 -13.977982 -8.878929 16.114807
678 0 1 -13.499781 -8.124828 16.397705
679 0 1 -14.241482 -7.582428 16.164795
680 0 1 -15.114281 -7.162830 16.240204
681 0 1 -15.142281 -6.716129 17.060699
682 0 1 -15.238682 -7.032028 17.949097
683 0 1 -15.604881 -6.446308 18.593002
684 0 1 -15.432579 -5.598148 19.047806
685 0 1 -16.288780 -5.459219 19.398300
686 0 1 -16.644880 -6.421509 19.204193
687 0 1 -16.579981 -7.220629 19.783997
688 0 1 -15.783180 -7.674129 20.055206
689 0 1 -15.516380 -6.820030 19.749405
690 0 1 -14.890881 -7.024529 20.423004
691 0 1 -13.991880 -6.551960 20.572296
692 0 1 -14.737381 -6.266560 21.154999
693 0 1 -14.197182 -5.447220 21.505493
694 0 1 -13.558580 -5.172979 20.813095
695 0 1 -13.554380 -4.575890 21.597198
696 0 1 -12.912479 -4.763569 22.348099
697 0 1 -12.575981 -5.677158 22.482407
698 0 1 -12.489981 -5.406410 23.433594
699 0 1 -11.801979 -5.210209 24.017914
700 0 1 -11.393881 -4.632519 24.693787
701 0 1 -11.650980 -4.012089 24.044800
702 0 1 -10.795792 -3.688379 23.824188
703 0 1 -10.555470 -4.609730 23.853516
704 0 1 -9.572451 -4.639290 23.687897
705 0 1 -9.134861 -5.436150 23.528015
706 0 1 -8.485439 -4.710678 23.345215
707 0 1 -7.948851 -4.736858 22.536896
708 0 1 -7.987210 -3.916809 21.853806
709 0 1 -8.865770 -4.243290 22.298599
710 0 1 -9.126640 -4.826008 21.545395
711 0 1 -9.722651 -4.205429 21.072906
712 0 1 -10.001850 -4.584209 21.979294
713 0 1 -10.405910 -3.736908 22.331802
714 0 1 -9.618549 -3.180359 22.393799
715 0 1 -8.677250 -2.955339 22.371994
716 0 1 -9.146420 -2.424099 23.102295
717 0 1 -9.708900 -1.821939 23.627289
718 0 1 -9.786980 -1.372978 22.812195
719 0 1 -9.363331 -0.626138 23.173004
720 0 1 -10.008121 -0.619989 23.881012
721 0 1 -9.712299 -1.257108 24.589294
722 0 1 -9.841450 -0.637188 25.279388
723 0 1 -10.699070 -0.164888 25.383698
724 0 1 -10.176590 -0.191679 26.252502
725 0 1 -11.045441 -0.019758 26.749512
726 0 1 -11.550880 0.825192 26.699310
727 0 1 -11.879480 1.701161 26.902100
728 0 1 -11.643379 1.530522 27.797211
729 0 1 -10.917770 1.949391 27.382904
730 0 1 -10.145540 2.291682 27.956390
731 0 1 -9.304420 2.492422 28.385010
732 0 1 -9.038521 3.373831 28.627411
733 0 1 -9.712921 4.076185 28.655884
734 0 1 -9.537510 4.923420 29.127808
735 0 1 -9.351360 5.441589 28.318115
736 0 1 -8.431751 5.616211 28.413788
737 0 1 -7.655371 6.146362 28.464996
738 0 1 -7.995430 6.950680 28.964508
739 0 1 -8.175041 7.780251 28.432404
740 0 1 -7.939831 8.498249 28.981201
741 0 1 -7.404530 8.882492 28.208801
742 0 1 -7.642731 9.815601 28.127686
743 0 1 -8.532791 10.134319 28.061188
744 0 1 -7.944031 10.924603 28.084290
745 0 1 -8.810860 11.306629 28.196991
746 0 1 -8.495090 12.190609 27.787903
747 0 1 -8.902431 12.905369 28.240601
748 0 1 -8.615110 13.908169 28.139893
749 0 1 -8.819040 14.542572 27.519501
750 0 1 -8.362501 15.270172 28.008789
751 0 1 -7.812861 15.804073 28.650513
752 0 1 -7.058060 15.981869 28.079010
753 0 1 -6.946221 15.027973 28.211609
754 0 1 -6.450982 15.083973 27.401703
755 0 1 -6.444920 14.170872 26.933289
756 0 1 -6.030692 14.624073 26.129486
757 0 1 -6.478461 15.310169 25.585999
758 0 1 -6.378010 15.768871 24.780884
759 0 1 -7.315510 16.133472 24.806610
760 0 1 -8.016020 16.399372 25.476807
761 0 1 -8.119600 16.727772 24.602203
762 0 1 -9.047359 16.591270 24.281708
763 0 1 -10.021500 16.669971 23.982300
764 0 1 -9.725821 15.899372 23.519287
765 0 1 -9.399860 15.075573 23.025909
766 0 1 -10.320259 15.189770 23.218689
767 0 1 -10.349701 14.851871 22.288696
768 0 1 -10.843870 14.478573 21.523499
769 0 1 -10.297531 13.905170 21.007996
770 0 1 -10.783482 13.529671 20.306900
771 0 1 -10.676109 14.159271 19.565399
772 0 1 -10.179661 14.680973 18.946594
773 0 1 -9.812080 15.582569 18.938705
774 0 1 -9.879471 16.355270 18.415695
775 0 1 -9.110691 16.738472 18.796005
776 0 1 -8.366011 16.690273 18.156708
777 0 1 -7.746891 16.316170 18.838394
778 0 1 -7.159380 15.789371 18.317596
779 0 1 -6.280232 15.268471 18.566696
780 0 1 -5.621312 14.602070 18.618896
781 0 1 -5.996392 13.746273 18.949707
782 0 1 -6.557511 13.693073 18.099197
783 0 1 -6.573111 13.011951 17.426895
784 0 1 -7.406460 12.695713 17.823395
785 0 1 -7.682681 12.695232 16.851593
786 0 1 -8.113461 11.860271 16.653702
787 0 1 -7.538670 11.603092 17.434097
788 0 1 -8.432560 11.149082 17.510803
789 0 1 -8.893040 10.277653 17.395004
790 0 1 -9.088991 9.544510 16.907501
791 0 1 -9.952251 9.971340 16.982498
792 0 1 -10.175230 9.114071 16.564301
793 0 1 -10.771490 8.413002 16.328995
794 0 1 -10.491951 8.811352 15.361908
795 0 1 -10.234631 9.527969 14.781601