LAMMPS data file via MDAnalysis

        2000  atoms
        1999  bonds
           0  angles
           0  dihedrals
           0  impropers

           1  atom types
           1  bond types
           0  angle types
           0  dihedral types
           0  improper types

-30.5 30.5 xlo xhi
-30.5 30.5 ylo yhi
-233.5 233.5 zlo zhi


Masses

1 1.000000

Atoms

1 0 1 -12.473024 0.599061 43.630310
2 0 1 -11.876225 0.499801 42.821106
3 0 1 -11.317724 1.152871 42.430603
4 0 1 -10.883724 0.338870 42.066010
5 0 1 -10.953224 -0.258899 41.387207
6 0 1 -10.598423 0.093621 40.586609
7 0 1 -10.156723 -0.619519 40.096008
8 0 1 -9.796724 -1.444339 40.614014
9 0 1 -9.516125 -1.550319 39.689514
10 0 1 -8.926125 -2.402839 39.634216
11 0 1 -8.557224 -3.275989 39.375397
12 0 1 -7.972565 -2.440580 39.421387
13 0 1 -7.789694 -3.028529 38.590088
14 0 1 -7.190744 -3.379400 39.280304
15 0 1 -6.792713 -2.476329 39.419708
16 0 1 -6.462673 -2.212989 38.586304
17 0 1 -7.439503 -2.092899 38.411713
18 0 1 -8.372623 -1.908481 38.142609
19 0 1 -9.002125 -1.351630 37.620087
20 0 1 -8.157795 -0.879710 37.645599
21 0 1 -8.650623 -0.341579 36.970886
22 0 1 -8.042654 -0.030389 36.312103
23 0 1 -7.811234 -0.821460 35.734985
24 0 1 -8.664825 -0.670350 35.307098
25 0 1 -9.397823 -0.909620 34.784607
26 0 1 -9.534824 -1.809520 34.521606
27 0 1 -9.908123 -1.621829 33.604889
28 0 1 -9.987524 -2.563659 33.350098
29 0 1 -9.363424 -2.389541 32.572296
30 0 1 -8.981424 -2.928439 31.910706
31 0 1 -8.917824 -2.966430 30.934204
32 0 1 -8.407324 -3.024829 30.148987
33 0 1 -7.469296 -3.116168 30.096588
34 0 1 -7.132204 -2.344039 30.622406
35 0 1 -6.316734 -1.856529 30.446503
36 0 1 -5.802673 -1.053190 30.455292
37 0 1 -5.308134 -1.611150 29.883087
38 0 1 -4.347473 -1.835309 30.272491
39 0 1 -3.959524 -2.500060 30.838013
40 0 1 -4.607384 -2.903480 31.472595
41 0 1 -4.661425 -2.370050 32.266907
42 0 1 -5.425293 -2.980880 32.274994
43 0 1 -6.019825 -2.384189 32.793701
44 0 1 -6.537773 -3.156080 32.803711
45 0 1 -5.985224 -3.125369 33.642609
46 0 1 -5.285074 -3.659351 33.992615
47 0 1 -4.662374 -3.038631 33.618988
48 0 1 -3.862064 -3.180389 33.217804
49 0 1 -3.453575 -2.462428 33.777588
50 0 1 -2.943844 -2.441650 34.625183
51 0 1 -2.375494 -2.929858 35.162415
52 0 1 -1.588364 -3.070810 34.645508
53 0 1 -0.953054 -3.396220 33.938599
54 0 1 -1.687944 -3.603379 33.393188
55 0 1 -2.171265 -3.680490 32.577087
56 0 1 -2.701914 -4.470248 32.477112
57 0 1 -2.929234 -4.843349 31.637390
58 0 1 -3.438154 -4.503749 30.837311
59 0 1 -4.025753 -4.082549 30.224792
60 0 1 -4.964273 -4.060748 30.106384
61 0 1 -5.214405 -4.220849 29.104004
62 0 1 -5.934433 -4.415149 28.413605
63 0 1 -6.009773 -4.896350 27.526703
64 0 1 -5.972914 -5.594550 26.806213
65 0 1 -5.494524 -5.546248 25.876587
66 0 1 -4.887644 -4.779050 25.684601
67 0 1 -4.455894 -5.576148 25.983093
68 0 1 -3.666464 -5.724549 25.379395
69 0 1 -3.755085 -6.716849 25.320496
70 0 1 -3.007463 -6.404948 24.767700
71 0 1 -2.773155 -6.406150 23.823914
72 0 1 -2.717735 -6.005349 22.966309
73 0 1 -1.825724 -5.705550 22.961304
74 0 1 -0.945154 -5.508849 22.548492
75 0 1 -1.120575 -4.772849 21.890305
76 0 1 -2.050734 -4.534249 21.707703
77 0 1 -1.786964 -5.290549 21.136795
78 0 1 -2.612055 -5.666148 21.420502
79 0 1 -3.454994 -5.873750 20.839005
80 0 1 -2.783255 -5.499450 20.263901
81 0 1 -3.325504 -4.921950 19.758392
82 0 1 -3.381794 -3.988448 19.678802
83 0 1 -2.955704 -3.588680 18.841797
84 0 1 -2.694565 -2.657310 18.935806
85 0 1 -3.477943 -2.628680 18.440201
86 0 1 -3.673014 -2.797990 17.533798
87 0 1 -4.046055 -3.474319 17.031906
88 0 1 -4.972683 -3.336440 17.085098
89 0 1 -5.430683 -4.084849 16.768295
90 0 1 -6.388264 -4.092549 16.520096
91 0 1 -7.249954 -4.474650 16.240799
92 0 1 -8.083275 -4.105048 16.106201
93 0 1 -8.822224 -4.346749 16.600098
94 0 1 -8.372824 -5.210151 16.580093
95 0 1 -8.411224 -5.043149 15.591003
96 0 1 -7.764343 -5.521548 15.056793
97 0 1 -7.739723 -6.107450 14.210297
98 0 1 -7.642124 -6.953151 14.688293
99 0 1 -7.730305 -6.613650 15.555298
100 0 1 -6.785044 -6.422851 15.337296
101 0 1 -6.017704 -5.725749 15.394897
102 0 1 -5.195465 -5.964149 15.821899
103 0 1 -4.264503 -6.116450 15.384506
104 0 1 -3.785315 -5.867749 16.178894
105 0 1 -3.496454 -6.742148 15.908096
106 0 1 -3.555075 -6.769050 16.830795
107 0 1 -3.253195 -6.336749 17.666504
108 0 1 -2.562103 -6.960750 17.751694
109 0 1 -2.806263 -7.638749 18.452103
110 0 1 -3.351875 -7.516549 19.333405
111 0 1 -4.336994 -7.319049 19.192703
112 0 1 -5.237545 -7.513850 18.908905
113 0 1 -5.252045 -8.275451 19.453003
114 0 1 -5.353914 -9.029650 18.861603
115 0 1 -6.218094 -9.197350 19.176605
116 0 1 -7.158844 -9.140149 18.930496
117 0 1 -6.884823 -8.837649 18.086197
118 0 1 -7.179144 -7.950549 18.020508
119 0 1 -7.184074 -7.279849 18.700500
120 0 1 -6.689835 -7.427850 19.531998
121 0 1 -7.557564 -7.107049 19.723099
122 0 1 -8.255524 -6.953349 20.371399
123 0 1 -9.121223 -7.229150 19.923706
124 0 1 -9.600723 -7.990249 19.571594
125 0 1 -10.040724 -7.218249 19.094208
126 0 1 -10.467625 -6.698249 19.807602
127 0 1 -10.273823 -7.073649 20.646194
128 0 1 -9.967625 -7.440650 21.523300
129 0 1 -10.613924 -7.450149 22.240906
130 0 1 -11.415724 -7.241349 22.721313
131 0 1 -11.874825 -7.951949 23.268402
132 0 1 -11.962324 -7.672950 24.213104
133 0 1 -11.688824 -8.344049 24.800415
134 0 1 -10.900124 -8.960850 24.888214
135 0 1 -10.507624 -9.633049 25.500214
136 0 1 -10.013023 -10.131749 26.140411
137 0 1 -10.239025 -9.244650 26.463287
138 0 1 -9.772024 -8.623750 25.902008
139 0 1 -9.379025 -8.449849 26.782288
140 0 1 -9.819023 -7.957351 27.509399
141 0 1 -9.254524 -7.396750 26.932709
142 0 1 -9.200624 -6.591550 27.453796
143 0 1 -9.456724 -5.708949 27.679199
144 0 1 -10.262224 -6.293250 27.824585
145 0 1 -11.036024 -6.826850 27.901398
146 0 1 -10.793524 -6.330150 28.663605
147 0 1 -11.687824 -6.310248 29.006012
148 0 1 -11.197624 -5.527249 29.248901
149 0 1 -11.011623 -4.604949 29.510498
150 0 1 -10.080524 -4.544549 29.167786
151 0 1 -10.603123 -3.942451 28.633789
152 0 1 -10.566624 -3.305249 27.972595
153 0 1 -10.860224 -3.553039 27.095215
154 0 1 -9.987925 -3.502570 26.654785
155 0 1 -9.601824 -3.317710 25.830902
156 0 1 -9.968525 -2.423410 25.763916
157 0 1 -10.478825 -1.609180 25.899902
158 0 1 -11.265823 -0.966840 25.988403
159 0 1 -11.696625 -0.876500 25.163696
160 0 1 -11.368525 -1.605930 24.583405
161 0 1 -11.451225 -0.883279 23.923889
162 0 1 -10.597824 -1.132440 23.525909
163 0 1 -9.743824 -1.058240 24.034607
164 0 1 -9.117825 -1.140579 23.327515
165 0 1 -9.767124 -1.806779 23.095001
166 0 1 -9.146124 -2.474550 22.849609
167 0 1 -8.589224 -2.085469 22.193298
168 0 1 -7.878395 -1.428470 22.128006
169 0 1 -7.596203 -1.350869 21.219803
170 0 1 -8.425924 -1.644611 20.704605
171 0 1 -8.693424 -1.248109 19.870392
172 0 1 -9.012424 -2.022920 19.365494
173 0 1 -9.887424 -1.656049 19.610901
174 0 1 -9.972023 -0.722730 19.373398
175 0 1 -10.405823 -0.414239 20.163498
176 0 1 -9.824425 -0.037179 20.912598
177 0 1 -9.778124 -0.613099 21.689392
178 0 1 -9.455124 0.200240 22.043503
179 0 1 -9.369724 0.570401 22.967499
180 0 1 -9.369324 0.215359 23.852600
181 0 1 -8.465324 0.287820 23.482300
182 0 1 -8.444725 1.166791 23.916687
183 0 1 -7.693964 1.042041 24.516785
184 0 1 -7.197483 0.282071 24.687592
185 0 1 -6.573364 -0.320680 25.063904
186 0 1 -5.931124 0.446381 24.831909
187 0 1 -5.010674 0.287421 24.714508
188 0 1 -4.154243 -0.135320 24.467010
189 0 1 -3.543024 -0.525520 25.029602
190 0 1 -4.259844 -0.514610 25.670105
191 0 1 -4.464174 -1.398891 26.136993
192 0 1 -4.502375 -1.953590 25.348602
193 0 1 -3.589624 -1.958141 25.087402
194 0 1 -2.807625 -1.658809 25.553894
195 0 1 -2.318415 -0.909299 25.946991
196 0 1 -2.033375 -1.713039 26.325195
197 0 1 -2.040554 -2.104011 27.224915
198 0 1 -1.401304 -2.789298 27.293396
199 0 1 -0.555044 -2.460469 27.513092
200 0 1 -0.181374 -2.248279 26.595001
201 0 1 0.183386 -2.693219 25.800903
202 0 1 0.711857 -3.069989 26.476685
203 0 1 1.232666 -3.033420 27.269806
204 0 1 0.964071 -3.775310 27.808289
205 0 1 1.383692 -4.656949 28.053711
206 0 1 1.605812 -5.354949 27.447601
207 0 1 2.077789 -6.176450 27.157410
208 0 1 2.820307 -5.621449 26.835815
209 0 1 3.276726 -5.905049 27.605103
210 0 1 4.031647 -5.592849 27.119995
211 0 1 4.493507 -6.033050 27.878510
212 0 1 4.733128 -6.490649 28.623688
213 0 1 4.505836 -6.196948 29.457703
214 0 1 3.533485 -6.672250 29.799896
215 0 1 3.067905 -7.474448 29.677704
216 0 1 2.715874 -8.002250 30.421204
217 0 1 3.674175 -8.069249 30.231384
218 0 1 4.395477 -8.135949 30.790192
219 0 1 4.559547 -8.786750 30.186707
220 0 1 5.193077 -9.519850 29.964691
221 0 1 5.051334 -10.409049 29.645691
222 0 1 4.432037 -11.121049 29.579712
223 0 1 4.141308 -11.531650 30.372711
224 0 1 4.795788 -11.848449 30.960114
225 0 1 5.605347 -11.728349 30.513702
226 0 1 6.492805 -11.411849 30.466309
227 0 1 6.986095 -11.970550 31.118011
228 0 1 7.086525 -11.519849 31.904999
229 0 1 6.733654 -10.637349 31.876007
230 0 1 5.945194 -10.488849 31.284790
231 0 1 6.151165 -10.391749 30.327393
232 0 1 6.777405 -10.015349 30.917694
233 0 1 6.791576 -9.090050 31.010986
234 0 1 6.129765 -9.065450 30.302399
235 0 1 6.611866 -8.214250 30.379395
236 0 1 7.316326 -8.263049 29.576294
237 0 1 6.876556 -7.564750 28.942810
238 0 1 6.996765 -6.682151 28.636108
239 0 1 7.090717 -6.328448 27.744110
240 0 1 7.589897 -6.538249 26.941101
241 0 1 8.451694 -6.875949 27.325989
242 0 1 8.438717 -7.342448 26.452911
243 0 1 8.258766 -8.271750 26.459106
244 0 1 8.135876 -9.233950 26.619812
245 0 1 7.585747 -9.850049 27.185303
246 0 1 7.985256 -9.489049 27.961609
247 0 1 8.103077 -9.201849 28.856293
248 0 1 8.758915 -9.841949 28.577789
249 0 1 8.218857 -10.277650 29.294189
250 0 1 8.194378 -10.934249 28.601807
251 0 1 7.724236 -11.199950 27.781891
252 0 1 7.361977 -11.573850 26.880890
253 0 1 7.875256 -11.155250 26.286194
254 0 1 8.647636 -10.552850 26.376587
255 0 1 9.163185 -9.701550 26.162994
256 0 1 9.824165 -10.116450 26.752411
257 0 1 10.312534 -9.293949 27.064789
258 0 1 11.307526 -9.264050 27.020905
259 0 1 11.132736 -10.079949 26.476593
260 0 1 11.300907 -10.422650 25.535889
261 0 1 12.054077 -10.879050 24.982391
262 0 1 11.253815 -10.570149 24.451813
263 0 1 11.490627 -9.596549 24.292908
264 0 1 11.068256 -9.441850 23.448090
265 0 1 11.769596 -10.096450 23.146210
266 0 1 12.596874 -10.340049 22.735992
267 0 1 12.934475 -11.205649 22.541412
268 0 1 13.973476 -11.396150 22.407196
269 0 1 14.377075 -11.668450 21.615402
270 0 1 13.425678 -11.392549 21.402206
271 0 1 13.187077 -11.955449 20.657593
272 0 1 12.497375 -12.620849 20.838394
273 0 1 11.795277 -11.976249 20.722397
274 0 1 11.389988 -11.084649 20.728806
275 0 1 10.797466 -11.256650 21.498199
276 0 1 11.016117 -11.691749 22.417206
277 0 1 10.116154 -11.909049 22.677887
278 0 1 9.888397 -12.334149 23.512207
279 0 1 10.516918 -12.883050 23.937103
280 0 1 9.919697 -13.608949 23.906891
281 0 1 9.814056 -14.506349 23.628510
282 0 1 9.515965 -15.181949 24.236389
283 0 1 9.255688 -14.337550 24.594604
284 0 1 8.575165 -13.741250 24.286713
285 0 1 7.730328 -13.979249 23.895111
286 0 1 7.559795 -13.077449 24.307007
287 0 1 7.861248 -12.214849 23.880310
288 0 1 7.121284 -12.504550 23.373688
289 0 1 7.769276 -12.866649 22.796600
290 0 1 8.452854 -13.162349 22.203705
291 0 1 8.666775 -13.855550 21.674606
292 0 1 9.169785 -14.583249 21.362503
293 0 1 9.472446 -13.971450 20.673203
294 0 1 9.704826 -13.170650 21.190308
295 0 1 8.852406 -12.863549 20.718903
296 0 1 9.307194 -12.152749 21.121597
297 0 1 10.190655 -12.079049 20.670395
298 0 1 9.672035 -11.626050 19.923096
299 0 1 9.019756 -10.866050 19.873199
300 0 1 8.202557 -10.875249 20.255707
301 0 1 7.351456 -10.837350 19.873993
302 0 1 6.610336 -10.885650 20.518097
303 0 1 6.797874 -10.466649 21.335098
304 0 1 6.934837 -9.663050 20.772598
305 0 1 7.125248 -9.029650 21.473297
306 0 1 7.232204 -8.436850 22.159393
307 0 1 6.941547 -8.059850 21.348099
308 0 1 6.651005 -7.172050 21.624298
309 0 1 7.245186 -6.483449 21.457504
310 0 1 6.432926 -6.147849 21.771698
311 0 1 6.991787 -5.491849 21.412994
312 0 1 7.712585 -4.867949 21.591003
313 0 1 8.080505 -5.286250 20.746597
314 0 1 8.811028 -4.629050 20.852295
315 0 1 9.032307 -3.798990 20.464005
316 0 1 8.109406 -3.881648 20.286697
317 0 1 7.326637 -3.823249 20.861908
318 0 1 6.614784 -4.156348 20.405899
319 0 1 6.023785 -3.600269 20.900299
320 0 1 6.170315 -4.161349 21.665497
321 0 1 6.082306 -3.895450 22.544312
322 0 1 6.876957 -3.964750 23.175415
323 0 1 7.007336 -3.196559 23.794891
324 0 1 6.580055 -3.148719 24.667603
325 0 1 6.664146 -3.880750 25.286896
326 0 1 6.743217 -4.261849 24.361511
327 0 1 7.644997 -4.121650 24.650909
328 0 1 8.159576 -3.358720 24.488495
329 0 1 8.719437 -3.243440 25.302185
330 0 1 8.800434 -4.046649 25.775787
331 0 1 7.897827 -4.447349 25.977386
332 0 1 7.667477 -5.354548 26.075012
333 0 1 7.727486 -6.042048 25.431213
334 0 1 7.332985 -6.909450 25.216614
335 0 1 7.724606 -6.758250 24.362000
336 0 1 8.238766 -7.508250 24.615906
337 0 1 7.424847 -7.960151 24.846985
338 0 1 7.315685 -8.935749 24.551514
339 0 1 7.563927 -9.599250 23.964294
340 0 1 7.991978 -8.781750 23.596802
341 0 1 8.605778 -8.924049 24.306702
342 0 1 8.546604 -8.855649 25.252686
343 0 1 8.988865 -8.090549 25.675110
344 0 1 9.293354 -7.436950 25.051208
345 0 1 9.740345 -6.907248 24.426392
346 0 1 8.872406 -6.433848 24.506500
347 0 1 9.654205 -5.888749 24.510315
348 0 1 10.303215 -5.380149 25.081299
349 0 1 10.192745 -4.879249 25.969299
350 0 1 10.322338 -5.199248 26.839294
351 0 1 10.711895 -5.825648 27.451813
352 0 1 10.359386 -5.325149 28.220093
353 0 1 10.519695 -4.472548 28.540192
354 0 1 10.222855 -4.624850 29.395905
355 0 1 11.105595 -4.141049 29.324799
356 0 1 10.487644 -3.365480 29.095612
357 0 1 9.694756 -3.283719 28.609497
358 0 1 9.326267 -2.701228 29.400391
359 0 1 10.027798 -2.284549 29.882690
360 0 1 10.877857 -1.978750 29.480499
361 0 1 11.639046 -2.496200 29.158691
362 0 1 12.168278 -2.079170 29.998199
363 0 1 11.966076 -2.195289 30.984711
364 0 1 11.726685 -2.798640 31.691010
365 0 1 11.773167 -2.164840 32.408600
366 0 1 12.188976 -2.032459 33.249603
367 0 1 11.993275 -2.872400 33.619385
368 0 1 11.481915 -2.951640 34.395905
369 0 1 12.069675 -3.742519 34.467590
370 0 1 12.590275 -3.086820 34.920288
371 0 1 12.510376 -2.636050 35.772217
372 0 1 12.279976 -2.770049 36.725494
373 0 1 12.574177 -3.355708 37.474609
374 0 1 12.950977 -3.501880 38.319214
375 0 1 12.118977 -2.987991 38.248993
376 0 1 12.679176 -2.209769 38.556702
377 0 1 13.247276 -1.533620 38.821808
378 0 1 13.403877 -0.633041 38.857788
379 0 1 13.947777 0.199290 39.102112
380 0 1 13.865875 0.938130 38.522888
381 0 1 13.511074 1.523650 39.274597
382 0 1 14.045876 2.196181 38.870605
383 0 1 14.696976 1.596801 39.372009
384 0 1 14.344276 1.246890 40.225098
385 0 1 14.059177 1.684661 41.015900
386 0 1 13.168877 1.316731 41.286011
387 0 1 12.377277 0.896920 41.590088
388 0 1 12.231876 0.510361 42.450500
389 0 1 12.234177 -0.340329 42.854004
390 0 1 11.233807 -0.363811 42.935913
391 0 1 10.351215 -0.593080 42.993988
392 0 1 10.201485 -1.230350 43.675598
393 0 1 9.713985 -2.033870 43.361603
394 0 1 9.050594 -2.732869 43.264008
395 0 1 8.826244 -3.475768 42.719696
396 0 1 8.682987 -3.193080 41.734314
397 0 1 8.355305 -3.042859 40.854492
398 0 1 8.851795 -2.470081 40.204712
399 0 1 8.442684 -1.905589 39.485992
400 0 1 9.422634 -1.929580 39.617096
401 0 1 9.996807 -2.624570 39.157898
402 0 1 10.762974 -3.037021 38.622589
403 0 1 10.581707 -2.525609 37.797089
404 0 1 10.921307 -1.609460 37.419983
405 0 1 10.368095 -1.712409 36.649414
406 0 1 9.776085 -1.006839 36.742493
407 0 1 9.761017 -0.344020 36.018402
408 0 1 9.592396 -0.064979 35.145203
409 0 1 8.797634 0.459840 34.973907
410 0 1 9.482635 0.907910 35.453400
411 0 1 10.047997 1.405011 36.078796
412 0 1 10.860058 0.964501 36.029297
413 0 1 11.373215 1.785950 35.940186
414 0 1 12.059875 2.473670 36.151703
415 0 1 11.733856 2.732840 36.992188
416 0 1 11.943676 3.368531 37.651306
417 0 1 11.771767 2.725310 38.382996
418 0 1 11.179405 3.281781 38.848389
419 0 1 10.741238 4.166200 39.049316
420 0 1 10.292736 3.560981 38.425812
421 0 1 10.441406 3.743830 37.523590
422 0 1 9.938015 4.561160 37.276306
423 0 1 9.312576 5.045831 37.749908
424 0 1 8.930508 4.734050 36.905487
425 0 1 9.683117 4.979491 36.438293
426 0 1 10.073685 5.214606 35.535797
427 0 1 9.946297 6.133588 35.315186
428 0 1 10.847275 6.022265 34.990997
429 0 1 11.138348 6.455672 34.168213
430 0 1 11.921375 6.024001 33.845215
431 0 1 12.700176 5.717942 34.286407
432 0 1 13.584278 5.604966 33.965912
433 0 1 14.346676 5.880332 33.465515
434 0 1 14.981575 5.156270 33.626099
435 0 1 15.782574 4.632510 33.785706
436 0 1 15.336178 4.266360 33.038910
437 0 1 15.640774 4.245051 32.161804
438 0 1 14.989674 4.761201 31.586792
439 0 1 14.067478 4.367221 31.405487
440 0 1 14.218678 4.466510 30.429016
441 0 1 13.550777 4.904950 29.917389
442 0 1 14.082577 5.396523 29.248413
443 0 1 14.564976 5.632443 28.497192
444 0 1 14.762577 5.557778 27.517395
445 0 1 14.042175 6.027940 26.944397
446 0 1 13.331776 5.685700 26.350006
447 0 1 12.740078 5.006360 26.737488
448 0 1 11.939175 5.212188 26.215088
449 0 1 12.167175 4.308251 25.944885
450 0 1 12.436275 4.581721 25.095001
451 0 1 11.959675 5.158641 24.446686
452 0 1 11.160187 5.575036 24.021698
453 0 1 11.113377 4.603501 24.032288
454 0 1 10.749615 4.432700 24.886292
455 0 1 10.494476 3.536780 24.706512
456 0 1 9.640816 3.967551 24.479614
457 0 1 9.380066 3.252070 23.865112
458 0 1 8.747707 3.790620 23.313110
459 0 1 9.205135 3.995740 22.464294
460 0 1 9.194744 3.600350 21.602600
461 0 1 10.209545 3.809790 21.552704
462 0 1 10.722576 4.452180 22.000198
463 0 1 10.347378 5.340808 22.081207
464 0 1 9.924366 6.065089 22.577087
465 0 1 8.958336 5.947915 22.277100
466 0 1 8.571087 6.825839 22.024094
467 0 1 8.291985 7.503810 21.412903
468 0 1 8.862434 8.259759 21.481400
469 0 1 9.029076 8.474381 22.456100
470 0 1 9.930164 8.298879 22.043900
471 0 1 9.829456 9.232121 22.209198
472 0 1 10.646816 9.495431 21.764603
473 0 1 11.518337 9.720040 22.017395
474 0 1 11.849476 10.609681 21.848206
475 0 1 12.270977 10.563081 22.693604
476 0 1 13.147675 10.861341 22.286194
477 0 1 14.046474 10.710599 22.489807
478 0 1 14.063274 10.719090 23.491699
479 0 1 13.629177 10.057309 23.932007
480 0 1 12.682175 9.983281 23.741302
481 0 1 12.186275 9.318181 24.163208
482 0 1 11.511997 9.854081 23.696899
483 0 1 10.802567 9.599919 24.351898
484 0 1 10.952335 10.151662 25.080994
485 0 1 11.530125 10.636521 25.731293
486 0 1 11.508404 11.107331 26.542694
487 0 1 12.048477 11.131879 27.363403
488 0 1 11.282036 10.679170 27.751007
489 0 1 11.505905 10.530000 28.639893
490 0 1 12.517677 10.388330 28.576599
491 0 1 13.389874 10.014230 28.628510
492 0 1 13.924778 10.515882 27.986786
493 0 1 14.409977 11.385072 28.288086
494 0 1 14.363277 12.143632 27.641510
495 0 1 13.757175 12.822251 28.142395
496 0 1 12.882175 12.387700 28.152893
497 0 1 12.023975 12.557012 27.673309
498 0 1 11.831177 13.473901 27.682892
499 0 1 11.869175 13.456780 26.730988
500 0 1 11.369705 12.831590 26.283600
501 0 1 10.546696 12.367280 26.165588
502 0 1 10.180305 12.542451 27.074402
503 0 1 9.687157 12.772229 27.877991
504 0 1 9.019825 12.394059 28.482697
505 0 1 8.426968 11.808599 27.908600
506 0 1 8.886177 11.234960 27.314301
507 0 1 8.915646 12.030129 26.844604
508 0 1 8.153347 12.581719 27.050995
509 0 1 7.771305 13.445020 27.238312
510 0 1 8.611496 13.916650 27.319611
511 0 1 8.783627 14.852201 27.164612
512 0 1 9.716827 14.880811 27.390198
513 0 1 9.504837 15.190080 28.292908
514 0 1 9.672176 15.205152 29.218506
515 0 1 10.364437 14.781571 29.781097
516 0 1 10.292557 14.533681 30.709503
517 0 1 9.909935 15.159471 31.421112
518 0 1 9.872387 15.806142 32.154694
519 0 1 9.436268 16.293652 31.471100
520 0 1 9.450935 16.851349 30.668884
521 0 1 10.146465 17.179749 30.088501
522 0 1 10.910007 16.823452 30.532898
523 0 1 11.613335 16.203548 30.419189
524 0 1 12.235077 16.010880 31.103516
525 0 1 12.448376 15.383321 31.817291
526 0 1 12.242176 15.016072 32.694214
527 0 1 11.449345 14.678021 33.112610
528 0 1 10.897957 13.900651 33.110809
529 0 1 10.917557 14.177781 34.120087
530 0 1 11.211605 14.311330 35.094116
531 0 1 11.244186 15.159841 35.604401
532 0 1 11.158447 14.416829 36.229095
533 0 1 10.203114 14.496762 35.885101
534 0 1 9.428844 14.974999 35.488312
535 0 1 9.925594 15.795152 35.447296
536 0 1 9.602604 16.613049 35.779602
537 0 1 9.571236 17.541050 35.428497
538 0 1 9.223587 17.656551 34.479401
539 0 1 8.419117 18.164848 34.421692
540 0 1 8.539745 18.156948 35.386505
541 0 1 8.397556 18.538250 36.284790
542 0 1 7.903515 18.995049 37.019806
543 0 1 7.098587 18.662849 37.455109
544 0 1 6.425514 18.281551 38.048309
545 0 1 6.412365 17.375351 37.731903
546 0 1 6.135605 17.606449 36.831909
547 0 1 6.504887 18.095650 36.030304
548 0 1 6.625015 18.661049 35.271790
549 0 1 6.694645 19.593849 35.099609
550 0 1 6.857044 20.048248 35.919495
551 0 1 7.177925 20.594952 36.591187
552 0 1 7.785534 21.315548 36.205811
553 0 1 7.354847 21.857052 36.885406
554 0 1 7.755978 21.991749 37.784790
555 0 1 8.331844 22.406551 37.123291
556 0 1 8.476646 22.976349 36.364410
557 0 1 8.415188 23.887650 36.531616
558 0 1 7.872417 24.184250 35.790802
559 0 1 7.855816 24.060947 34.814301
560 0 1 7.250645 23.356750 34.803711
561 0 1 7.165344 22.661648 35.388489
562 0 1 6.923267 21.664650 35.194885
563 0 1 5.991047 21.490349 34.985504
564 0 1 6.262207 21.714451 34.100098
565 0 1 5.513496 21.015148 34.206207
566 0 1 4.982315 20.659550 34.858704
567 0 1 4.518234 19.835350 34.872314
568 0 1 3.835747 20.433048 34.693207
569 0 1 2.951515 20.694950 34.668701
570 0 1 2.871595 20.283649 35.523010
571 0 1 2.618328 20.902950 36.173584
572 0 1 1.843838 20.659950 35.790192
573 0 1 1.313906 20.685947 36.594208
574 0 1 1.712383 21.520649 36.971313
575 0 1 2.132441 21.705151 37.830688
576 0 1 1.401554 21.442051 38.391998
577 0 1 0.755535 21.516949 37.708313
578 0 1 0.501085 22.279751 37.229401
579 0 1 -0.094444 22.440548 37.982300
580 0 1 -0.513464 23.298351 37.783905
581 0 1 -0.061564 23.519947 37.016907
582 0 1 0.592007 23.799747 36.285400
583 0 1 0.170706 24.566051 35.917908
584 0 1 1.079994 24.905849 35.675110
585 0 1 1.116987 24.097549 35.148010
586 0 1 1.154421 23.398449 34.506897
587 0 1 1.695482 23.169849 33.758789
588 0 1 1.187939 23.433147 32.990601
589 0 1 1.504976 22.767452 32.361389
590 0 1 1.570827 21.769951 32.498901
591 0 1 1.377480 21.273151 33.375000
592 0 1 0.491575 21.082748 33.239990
593 0 1 0.550686 20.713348 34.087097
594 0 1 -0.129194 20.889950 34.791107
595 0 1 -0.887964 20.984852 35.293488
596 0 1 -1.357395 20.665749 36.073212
597 0 1 -1.990494 20.300850 35.402313
598 0 1 -2.677105 20.429050 36.000610
599 0 1 -2.294214 19.587650 36.146790
600 0 1 -2.576775 19.261448 35.332306
601 0 1 -3.469954 19.037548 35.570587
602 0 1 -3.998674 18.290348 35.801208
603 0 1 -3.438503 18.031551 36.567017
604 0 1 -2.931234 17.270050 36.698486
605 0 1 -2.334274 16.470249 36.664917
606 0 1 -3.178755 15.965520 36.929504
607 0 1 -3.317585 15.080579 37.250092
608 0 1 -3.479624 14.785260 38.197815
609 0 1 -2.788244 15.304620 38.607697
610 0 1 -1.927685 14.944570 38.443604
611 0 1 -1.940445 14.027432 38.526001
612 0 1 -1.007343 13.957532 38.309906
613 0 1 -1.013554 14.403378 37.452515
614 0 1 -1.907074 14.496720 36.997101
615 0 1 -1.675163 13.615670 37.101593
616 0 1 -2.609665 13.367692 36.893890
617 0 1 -3.246004 13.758031 36.356506
618 0 1 -3.648323 12.898732 36.644989
619 0 1 -4.239134 12.195611 36.564301
620 0 1 -4.722235 12.282300 35.740906
621 0 1 -5.388504 12.863889 36.044403
622 0 1 -5.825844 12.030931 36.136810
623 0 1 -6.487343 11.901231 36.854889
624 0 1 -6.782753 11.316419 36.125702
625 0 1 -7.148693 10.273862 36.081207
626 0 1 -7.874454 9.908391 36.571899
627 0 1 -8.588425 9.493611 36.060211
628 0 1 -8.636724 9.877000 35.118408
629 0 1 -9.646023 10.050542 34.955688
630 0 1 -10.006124 10.824471 35.313812
631 0 1 -9.644724 11.700982 35.477997
632 0 1 -9.977524 12.315320 34.806793
633 0 1 -10.436625 12.695260 35.597687
634 0 1 -9.610424 12.823689 36.015503
635 0 1 -9.658224 12.766179 37.009308
636 0 1 -9.935524 11.887090 37.432312
637 0 1 -9.291824 11.451192 36.856384
638 0 1 -9.141125 11.166112 37.810791
639 0 1 -8.209454 10.898259 38.058502
640 0 1 -7.874973 10.279401 38.699097
641 0 1 -8.695524 9.662049 38.840912
642 0 1 -8.915024 8.805940 38.536011
643 0 1 -9.030724 8.401372 39.461792
644 0 1 -9.036625 8.512029 40.442413
645 0 1 -8.618923 8.834691 41.240112
646 0 1 -8.769424 8.586629 42.131500
647 0 1 -9.442024 8.270162 42.763000
648 0 1 -9.500423 9.247441 42.740906
649 0 1 -9.879324 9.800111 43.408691
650 0 1 -10.055225 10.771302 43.371216
651 0 1 -10.214825 10.652230 44.278198
652 0 1 -10.610825 10.723451 45.165894
653 0 1 -10.714325 11.678769 44.865204
654 0 1 -10.251225 12.517739 45.017303
655 0 1 -9.818325 12.201661 45.820496
656 0 1 -9.075523 12.379319 46.366516
657 0 1 -9.088024 13.195851 45.916809
658 0 1 -8.255825 13.635800 45.882385
659 0 1 -7.954784 12.903913 46.407013
660 0 1 -7.983355 12.054341 45.979797
661 0 1 -7.259903 12.351941 45.333984
662 0 1 -7.412544 11.513982 44.888184
663 0 1 -8.015743 11.819791 44.211609
664 0 1 -8.642324 11.135720 44.009705
665 0 1 -8.052574 10.728211 44.650787
666 0 1 -7.372574 10.407922 44.046509
667 0 1 -6.520254 10.743451 43.914703
668 0 1 -6.716475 10.030709 43.309204
669 0 1 -7.282204 9.702600 42.656097
670 0 1 -6.723904 9.841691 41.865112
671 0 1 -6.707203 10.850152 41.948395
672 0 1 -7.123394 11.790479 41.793701
673 0 1 -7.994503 11.991349 41.927704
674 0 1 -8.782024 12.482171 41.954498
675 0 1 -9.744225 12.531751 41.682892
676 0 1 -10.672224 12.616002 41.569611
677 0 1 -11.598625 12.239789 41.482391
678 0 1 -12.299225 12.895589 41.567413
679 0 1 -13.179124 12.800122 41.819489
680 0 1 -13.801125 13.588429 41.783997
681 0 1 -14.390823 14.290929 41.695587
682 0 1 -14.968224 14.788690 41.077789
683 0 1 -14.875525 15.668241 40.763397
684 0 1 -13.986824 15.287358 40.584503
685 0 1 -13.663324 16.140850 40.999207
686 0 1 -14.303324 16.603848 40.510803
687 0 1 -13.934525 17.089050 39.783112
688 0 1 -13.976324 18.037849 39.906891
689 0 1 -13.152524 18.213150 39.494293
690 0 1 -13.483324 18.873249 38.931488
691 0 1 -13.885724 19.632351 38.456299
692 0 1 -13.714624 20.466747 38.114990
693 0 1 -14.186324 21.237751 38.510101
694 0 1 -14.326324 22.104549 38.320801
695 0 1 -13.920224 22.987450 38.656891
696 0 1 -13.300124 23.728550 38.640594
697 0 1 -12.465124 23.952251 38.134216
698 0 1 -12.965524 24.312149 37.402100
699 0 1 -12.468224 24.577747 36.631500
700 0 1 -12.316925 25.131550 35.800507
701 0 1 -13.162124 25.297749 36.113495
702 0 1 -14.081924 25.655949 36.019409
703 0 1 -14.758425 25.518551 35.264313
704 0 1 -15.162924 26.326351 35.533508
705 0 1 -15.373224 26.035748 36.489685
706 0 1 -15.553225 27.017147 36.448090
707 0 1 -16.443724 26.989948 36.865601
708 0 1 -16.762625 26.109852 36.873993
709 0 1 -15.938425 26.180950 37.381500
710 0 1 -15.479624 25.372051 37.551605
711 0 1 -16.300425 25.194752 38.052399
712 0 1 -15.845823 25.062252 38.886108
713 0 1 -16.447624 24.283249 39.109192
714 0 1 -16.958624 24.868450 39.652893
715 0 1 -17.226324 24.353748 40.420502
716 0 1 -16.286724 24.424950 40.437012
717 0 1 -16.510624 24.155849 41.310608
718 0 1 -17.321424 23.604450 41.598907
719 0 1 -16.826923 23.767948 42.407104
720 0 1 -17.131624 23.810249 43.298584
721 0 1 -16.914425 24.694149 43.632507
722 0 1 -16.844725 24.347851 44.541687
723 0 1 -16.070425 24.583752 45.005096
724 0 1 -15.114023 24.713848 45.246704
725 0 1 -14.194524 24.857952 44.910797
726 0 1 -13.901324 24.850948 43.965302
727 0 1 -14.619925 25.523548 43.927612
728 0 1 -13.999724 26.211452 43.768188
729 0 1 -13.927724 25.904049 42.868896
730 0 1 -13.006224 25.886051 42.679108
731 0 1 -12.958425 25.841549 41.726807
732 0 1 -13.634724 25.182247 41.465515
733 0 1 -12.989924 24.567348 41.754517
734 0 1 -12.269123 24.546352 42.392303
735 0 1 -13.052924 24.866749 42.897003
736 0 1 -12.728924 24.534351 43.743713
737 0 1 -12.902524 23.970150 44.461090
738 0 1 -12.154224 23.430450 44.752808
739 0 1 -12.306923 22.621647 44.276611
740 0 1 -13.211624 22.899952 44.176208
741 0 1 -13.489424 22.491848 43.337311
742 0 1 -13.199324 22.078449 42.509399
743 0 1 -12.512123 21.613850 42.032806
744 0 1 -12.182823 22.048351 41.333496
745 0 1 -12.316425 21.860348 40.346588
746 0 1 -11.365925 22.027550 40.480194
747 0 1 -10.397823 21.812248 40.576813
748 0 1 -9.693024 22.235149 40.078186
749 0 1 -10.280424 22.992748 39.625183
750 0 1 -10.826124 22.645649 38.890198
751 0 1 -10.313324 22.209549 38.186584
752 0 1 -9.600925 22.506451 37.489685
753 0 1 -9.288925 22.123249 36.598602
754 0 1 -8.492725 22.209347 37.197815
755 0 1 -8.219324 22.125050 38.108490
756 0 1 -8.053394 21.157452 37.731110
757 0 1 -7.556784 20.816650 38.554291
758 0 1 -7.659124 19.854549 38.480103
759 0 1 -7.160454 19.446350 37.854797
760 0 1 -6.242254 19.639149 38.081696
761 0 1 -5.865534 19.475651 37.255096
762 0 1 -6.312443 19.959248 36.594910
763 0 1 -7.143833 20.213150 36.134308
764 0 1 -7.006283 20.414249 35.149506
765 0 1 -7.709003 20.806850 34.523010
766 0 1 -7.848885 20.841549 33.594116
767 0 1 -8.801125 20.684750 33.511810
768 0 1 -8.400524 21.361450 32.969299
769 0 1 -9.306923 21.116150 32.521790
770 0 1 -8.663624 21.220348 31.802887
771 0 1 -8.425625 22.184048 31.486389
772 0 1 -7.561443 21.835651 31.469788
773 0 1 -6.917414 21.953251 32.191498
774 0 1 -6.127705 21.452148 32.345001
775 0 1 -6.316404 20.600349 32.813904
776 0 1 -6.117495 20.261848 33.671509
777 0 1 -6.164743 19.807251 34.584991
778 0 1 -5.292253 19.647152 34.302002
779 0 1 -4.655455 19.729252 33.561584
780 0 1 -4.500954 20.210350 32.743988
781 0 1 -4.329063 20.085049 31.765900
782 0 1 -5.021385 19.595650 31.227509
783 0 1 -4.333214 18.941448 31.068787
784 0 1 -4.051825 18.191750 30.654785
785 0 1 -3.165915 17.743050 30.629608
786 0 1 -2.251163 17.961948 30.891998