LAMMPS data file via MDAnalysis

        2000  atoms
        1999  bonds
           0  angles
           0  dihedrals
           0  impropers

           1  atom types
           1  bond types
           0  angle types
           0  dihedral types
           0  improper types

-30.5 30.5 xlo xhi
-30.5 30.5 ylo yhi
-233.5 233.5 zlo zhi


Masses

1 1.000000

Atoms

1 0 1 15.013524 3.658727 68.508484
2 0 1 14.091222 3.490006 68.147003
3 0 1 14.098924 3.572198 69.158600
4 0 1 14.073724 2.645539 68.818787
5 0 1 13.575425 1.792947 68.944397
6 0 1 14.148023 1.806760 69.752899
7 0 1 13.585725 2.357080 70.389893
8 0 1 14.508523 2.267938 70.764404
9 0 1 15.334825 2.198808 71.219299
10 0 1 15.642323 3.105126 71.580292
11 0 1 15.274522 3.775758 72.150085
12 0 1 14.513925 4.282327 72.593384
13 0 1 14.368623 3.836980 73.468384
14 0 1 14.006822 4.889150 73.471619
15 0 1 13.147424 4.693967 73.191589
16 0 1 13.608521 4.893640 72.394592
17 0 1 13.319024 4.351018 71.614502
18 0 1 12.617921 4.940907 71.485718
19 0 1 11.821122 4.681798 71.869202
20 0 1 11.996823 4.202928 71.007019
21 0 1 11.642724 4.486466 70.143982
22 0 1 10.998422 4.220559 69.444305
23 0 1 10.446023 4.952249 69.178192
24 0 1 9.525514 4.682557 69.354492
25 0 1 9.188485 3.820039 69.342590
26 0 1 8.682481 3.300927 69.974182
27 0 1 8.450162 2.658528 69.246002
28 0 1 8.722592 1.797917 69.667206
29 0 1 9.497613 1.290196 69.225403
30 0 1 9.689523 1.092420 70.169708
31 0 1 10.234521 1.479897 70.800110
32 0 1 9.454274 1.924367 71.161316
33 0 1 8.545892 2.056199 70.839111
34 0 1 8.030122 2.710389 71.267395
35 0 1 7.278424 2.623887 71.889496
36 0 1 7.260582 2.233159 72.799103
37 0 1 7.295121 3.017259 73.332489
38 0 1 8.051892 3.201058 72.647400
39 0 1 8.339334 4.063039 72.969391
40 0 1 8.564515 3.765649 73.839417
41 0 1 9.073182 3.389539 73.093689
42 0 1 9.621224 3.304269 72.239014
43 0 1 10.396424 3.573178 72.767609
44 0 1 10.405221 4.195638 73.476410
45 0 1 9.636994 4.866776 73.403290
46 0 1 9.349084 5.373239 72.623596
47 0 1 8.648652 5.405400 73.381714
48 0 1 8.341962 5.739968 72.519501
49 0 1 7.527993 6.187219 72.372314
50 0 1 8.052972 6.628339 73.095306
51 0 1 8.352944 7.351399 73.761505
52 0 1 8.709374 6.567857 74.132019
53 0 1 9.195474 7.215997 74.693909
54 0 1 9.264283 8.219998 74.841614
55 0 1 9.283433 8.756097 74.003906
56 0 1 9.306912 8.102498 73.360107
57 0 1 8.751771 8.173997 72.567596
58 0 1 9.284135 8.549497 71.812805
59 0 1 9.627015 9.423898 71.606903
60 0 1 9.791581 10.256398 71.265808
61 0 1 10.645623 9.948598 70.860901
62 0 1 10.887624 9.420697 70.170990
63 0 1 10.438821 9.456498 69.359985
64 0 1 9.632043 8.969899 69.515686
65 0 1 8.751382 9.129098 69.607117
66 0 1 8.300004 8.297097 69.617310
67 0 1 7.838841 7.801999 68.999695
68 0 1 8.051324 6.970197 69.444397
69 0 1 7.719601 6.839067 68.477203
70 0 1 7.355153 6.126637 67.937317
71 0 1 7.216553 5.259038 67.703094
72 0 1 7.571263 4.381967 67.591187
73 0 1 6.708672 4.202306 67.127197
74 0 1 6.177712 3.729047 66.500305
75 0 1 5.315503 3.661817 66.177490
76 0 1 4.966832 4.366460 66.863892
77 0 1 4.653252 5.233388 67.134216
78 0 1 4.589982 5.699677 67.981689
79 0 1 4.629002 5.968297 68.913391
80 0 1 4.906502 5.342908 69.544006
81 0 1 4.579022 4.420869 69.427612
82 0 1 3.891942 4.585446 68.778809
83 0 1 3.667092 4.473706 67.837189
84 0 1 2.778653 4.442388 67.591492
85 0 1 3.324601 3.929479 66.990601
86 0 1 2.482461 3.724008 66.511719
87 0 1 1.862004 3.009068 66.082703
88 0 1 2.559731 2.411550 66.339111
89 0 1 2.346543 1.453298 66.334595
90 0 1 3.154553 0.890737 66.149414
91 0 1 2.502034 0.821557 65.448303
92 0 1 2.549733 1.133199 64.559814
93 0 1 3.474492 0.970689 64.403015
94 0 1 4.154091 0.501588 63.947693
95 0 1 3.948193 1.009099 63.182587
96 0 1 4.494423 0.677648 62.470612
97 0 1 4.508221 1.589459 62.049011
98 0 1 5.494782 1.280408 61.969910
99 0 1 5.269543 2.122449 61.502899
100 0 1 5.642712 2.994279 61.410797
101 0 1 6.504052 2.715016 61.449188
102 0 1 7.438820 2.537168 61.422913
103 0 1 7.650921 3.158887 60.692017
104 0 1 6.809651 3.636849 60.599213
105 0 1 5.866890 3.553109 60.315491
106 0 1 5.862931 2.828668 59.659790
107 0 1 5.513314 3.039670 58.708801
108 0 1 5.706383 3.221177 57.764404
109 0 1 6.288651 2.816129 57.113892
110 0 1 6.296223 2.012307 57.524200
111 0 1 6.659901 1.358808 58.083893
112 0 1 6.986283 1.305818 58.943207
113 0 1 7.343163 2.202867 58.879791
114 0 1 7.068161 2.934979 59.397308
115 0 1 7.419392 3.787957 59.614899
116 0 1 7.902073 3.892209 58.820587
117 0 1 8.571763 4.631146 58.950897
118 0 1 9.260922 5.107057 58.536713
119 0 1 9.606442 5.769357 59.105896
120 0 1 9.927323 6.654878 59.446503
121 0 1 10.669423 7.231000 59.126495
122 0 1 11.427423 7.777497 59.366516
123 0 1 12.013223 8.493897 59.669800
124 0 1 12.705922 8.339898 60.333405
125 0 1 12.745622 9.330197 60.597900
126 0 1 13.009023 10.209298 60.554688
127 0 1 13.181623 10.239598 61.556488
128 0 1 12.418122 9.684400 61.505310
129 0 1 11.572724 9.966100 61.881012
130 0 1 11.813924 10.878999 61.981506
131 0 1 12.295423 11.609597 61.658295
132 0 1 11.731622 11.465398 60.842804
133 0 1 10.811822 11.382199 61.084900
134 0 1 10.133924 12.055097 61.197601
135 0 1 9.371415 12.487699 61.595398
136 0 1 8.916512 13.085401 62.273193
137 0 1 8.839543 13.703397 61.490997
138 0 1 9.166482 13.453900 60.635193
139 0 1 8.915185 14.342000 60.532013
140 0 1 9.918622 14.305398 60.520294
141 0 1 10.553224 14.320699 61.231598
142 0 1 10.624421 15.313100 61.115204
143 0 1 10.620225 16.279898 60.774994
144 0 1 9.723084 16.191000 61.176300
145 0 1 9.592824 16.863798 60.564392
146 0 1 9.092664 16.924700 61.424194
147 0 1 8.196122 16.490099 61.528687
148 0 1 7.365963 17.004499 61.335907
149 0 1 6.728413 17.665899 61.621490
150 0 1 7.253983 17.373198 62.380615
151 0 1 7.062821 18.220396 62.789795
152 0 1 6.844841 17.417601 63.501007
153 0 1 6.239453 16.643400 63.749817
154 0 1 5.816643 16.203596 64.520294
155 0 1 4.855343 16.442900 64.508118
156 0 1 4.293732 17.099600 64.892609
157 0 1 3.726002 16.494902 64.307983
158 0 1 4.249611 15.924699 63.692413
159 0 1 4.734551 15.305600 64.247009
160 0 1 5.110333 14.465299 63.776306
161 0 1 5.341523 14.848996 62.923889
162 0 1 5.119553 14.850698 62.045288
163 0 1 4.307984 14.302396 61.956116
164 0 1 3.754811 14.021298 61.188202
165 0 1 3.999333 13.189900 61.528687
166 0 1 3.347241 13.038999 62.140503
167 0 1 3.268304 12.140996 62.557404
168 0 1 2.307862 12.087899 62.756989
169 0 1 2.249993 12.449899 63.654999
170 0 1 2.020203 13.320298 63.837311
171 0 1 2.269871 13.395200 64.768799
172 0 1 1.389313 13.159898 65.030518
173 0 1 1.017913 12.336400 64.754303
174 0 1 0.936963 11.897897 63.875488
175 0 1 0.246380 11.649800 64.460083
176 0 1 -0.169988 10.769696 64.596619
177 0 1 0.126652 11.116498 65.548096
178 0 1 0.992272 11.260697 65.864685
179 0 1 1.748051 11.194196 66.540894
180 0 1 2.197552 11.745797 67.161682
181 0 1 1.317643 12.202798 67.380402
182 0 1 1.252022 13.227498 67.476807
183 0 1 0.506106 13.814298 67.358704
184 0 1 0.270314 13.882695 66.413605
185 0 1 -0.671255 13.429898 66.505402
186 0 1 -1.045452 14.130498 65.936798
187 0 1 -1.480447 14.983598 65.825989
188 0 1 -2.114967 14.972798 66.543793
189 0 1 -2.294328 15.876199 66.684387
190 0 1 -2.817046 16.421000 66.036102
191 0 1 -2.557327 15.794995 65.421509
192 0 1 -3.121938 15.431096 64.687683
193 0 1 -3.940088 15.457799 64.179108
194 0 1 -3.492767 15.553296 63.320984
195 0 1 -4.081188 15.033795 62.848511
196 0 1 -4.006818 15.615598 62.065186
197 0 1 -4.185638 15.041699 61.364288
198 0 1 -4.706817 14.668500 62.076111
199 0 1 -5.499427 15.031896 61.545197
200 0 1 -5.794847 15.925099 61.443909
201 0 1 -5.501087 15.805398 60.544617
202 0 1 -6.231628 15.770696 59.938110
203 0 1 -6.014926 15.297997 59.133392
204 0 1 -5.607378 14.697995 59.710297
205 0 1 -4.699348 14.573895 59.554596
206 0 1 -5.036117 13.883496 59.008606
207 0 1 -5.341478 13.632596 58.072601
208 0 1 -5.975877 12.953000 58.095398
209 0 1 -6.472766 12.679597 58.818695
210 0 1 -6.046318 11.894399 59.134888
211 0 1 -5.060407 11.804296 59.229187
212 0 1 -5.500377 10.957799 59.555695
213 0 1 -4.658897 10.449796 59.633698
214 0 1 -3.871297 10.143998 60.105194
215 0 1 -3.672237 9.802598 59.218109
216 0 1 -2.721437 9.636800 59.325684
217 0 1 -2.058276 9.641896 60.030701
218 0 1 -2.783468 10.314698 60.200806
219 0 1 -2.162908 11.025697 60.355011
220 0 1 -1.423358 11.206998 59.784393
221 0 1 -0.915286 11.872399 60.256714
222 0 1 -0.189693 11.257298 60.525299
223 0 1 0.679520 11.190198 60.936188
224 0 1 0.516898 10.387998 60.328003
225 0 1 1.175982 10.398496 59.594116
226 0 1 2.045521 10.639199 59.133301
227 0 1 2.827672 10.344197 58.595215
228 0 1 3.377354 10.825799 59.217285
229 0 1 4.281403 10.765798 58.939911
230 0 1 5.008122 10.543397 58.390198
231 0 1 5.149262 9.605897 57.984589
232 0 1 5.849232 9.590596 57.376404
233 0 1 5.739632 9.471997 56.409210
234 0 1 6.412282 8.947099 55.979401
235 0 1 6.927971 8.288098 55.511597
236 0 1 7.160893 8.031297 56.421997
237 0 1 7.687512 7.307797 56.102783
238 0 1 7.121342 6.591077 55.937897
239 0 1 7.563252 6.711488 55.072601
240 0 1 7.943871 6.241269 54.388184
241 0 1 7.403031 5.553159 54.886688
242 0 1 6.662743 5.633157 54.358490
243 0 1 6.578774 5.108449 53.554504
244 0 1 6.364914 4.584908 52.733795
245 0 1 6.999054 3.943707 53.016602
246 0 1 7.193593 4.131967 52.146484
247 0 1 7.556744 3.276517 52.371613
248 0 1 8.316274 2.777688 52.533600
249 0 1 8.719262 3.564206 52.747498
250 0 1 9.222104 4.118279 53.350098
251 0 1 9.054605 4.610726 52.520905
252 0 1 8.577283 5.400697 52.154999
253 0 1 9.292592 5.928777 52.239105
254 0 1 8.823693 6.714238 51.989410
255 0 1 8.188573 7.468698 51.731293
256 0 1 7.979905 7.442899 50.773712
257 0 1 7.052754 7.317399 50.911407
258 0 1 6.186722 7.626397 51.285706
259 0 1 6.152112 8.372899 51.909393
260 0 1 6.837983 8.998597 52.158813
261 0 1 7.072571 9.213098 51.256409
262 0 1 7.836934 9.154698 51.791199
263 0 1 7.941285 10.023297 51.316895
264 0 1 7.270894 10.418096 51.915192
265 0 1 7.786141 11.094998 51.475494
266 0 1 8.421693 11.562699 51.978394
267 0 1 7.778634 11.207898 52.649506
268 0 1 7.098633 10.889600 53.296509
269 0 1 6.607094 10.018300 53.129700
270 0 1 6.206822 10.060899 54.002197
271 0 1 5.830903 9.200997 53.919983
272 0 1 6.680794 9.137399 54.299103
273 0 1 7.545601 9.559098 54.227997
274 0 1 7.995984 10.222898 53.780090
275 0 1 8.654462 10.023999 54.465790
276 0 1 8.855973 9.368897 53.781799
277 0 1 8.944421 8.944600 54.625397
278 0 1 9.608884 8.455098 55.140106
279 0 1 9.045434 7.744199 55.417694
280 0 1 9.522443 7.654599 56.201599
281 0 1 9.142594 6.713849 56.451416
282 0 1 8.740434 7.488297 56.855713
283 0 1 9.183633 7.941297 57.557587
284 0 1 8.710565 8.783597 57.569885
285 0 1 8.774102 8.744798 56.587097
286 0 1 7.877484 9.032998 56.918488
287 0 1 7.334584 9.562200 57.422699
288 0 1 7.344174 9.904096 56.475800
289 0 1 6.470231 10.164598 56.211914
290 0 1 6.593033 11.066598 55.947998
291 0 1 6.272664 11.415097 56.778015
292 0 1 5.538964 11.127599 56.313507
293 0 1 4.728104 11.467397 56.035004
294 0 1 5.057953 11.642499 55.136902
295 0 1 5.244542 12.541997 54.877808
296 0 1 5.078103 13.459500 54.865906
297 0 1 4.495072 14.160199 55.156616
298 0 1 3.699994 14.434697 54.695984
299 0 1 3.600732 15.416997 54.612701
300 0 1 2.610162 15.282300 54.558594
301 0 1 2.362004 16.245600 54.347595
302 0 1 3.036671 16.490599 53.711395
303 0 1 4.017453 16.319998 53.385498
304 0 1 3.787713 16.469698 52.451813
305 0 1 3.684651 15.596398 52.240692
306 0 1 3.225922 14.776296 51.991516
307 0 1 3.459294 15.105000 51.109894
308 0 1 4.237092 14.495000 51.285492
309 0 1 4.251381 14.034596 50.439789
310 0 1 4.134762 13.320397 49.806396
311 0 1 4.543404 12.560796 50.227600
312 0 1 4.713364 11.612397 49.862701
313 0 1 5.137673 11.421197 49.018707
314 0 1 5.427254 12.312997 48.838684
315 0 1 5.999981 12.845296 48.421814
316 0 1 5.706124 12.239999 47.747986
317 0 1 5.377934 11.359399 47.795197
318 0 1 4.975312 10.434697 47.657806
319 0 1 4.636792 9.833699 46.981903
320 0 1 4.744393 9.060899 47.536499
321 0 1 4.278542 8.745900 48.258209
322 0 1 3.785283 8.032796 47.868011
323 0 1 3.433633 7.176000 48.085907
324 0 1 4.116993 7.212796 47.392792
325 0 1 3.444531 6.598126 47.175598
326 0 1 2.818642 5.981130 46.755798
327 0 1 2.386231 5.444638 46.068207
328 0 1 3.195054 5.153928 45.569489
329 0 1 4.045674 5.417699 45.210999
330 0 1 4.556405 5.581227 46.104614
331 0 1 5.276352 4.934636 45.909912
332 0 1 4.762532 4.204370 46.164001
333 0 1 4.226071 3.500966 45.897308
334 0 1 3.992272 3.205529 46.792786
335 0 1 4.345223 2.353707 46.545593
336 0 1 4.628762 1.499688 46.870911
337 0 1 4.788151 1.607537 45.960693
338 0 1 4.334961 1.318048 45.185394
339 0 1 4.851033 0.885907 44.548187
340 0 1 4.962071 0.186387 43.887390
341 0 1 4.114762 -0.089652 43.550507
342 0 1 4.560421 -0.827910 43.877014
343 0 1 3.889481 -1.371181 44.167114
344 0 1 4.134491 -1.207183 45.066498
345 0 1 4.193024 -0.460792 45.634308
346 0 1 5.013882 -0.815833 45.993011
347 0 1 5.612061 -0.463973 46.595398
348 0 1 6.358002 -0.895942 47.107605
349 0 1 6.787732 -0.503821 47.800201
350 0 1 7.264084 -0.311942 46.989410
351 0 1 7.850644 -0.937121 47.452911
352 0 1 7.961613 -1.836822 47.689514
353 0 1 8.866693 -2.106950 47.474091
354 0 1 9.782151 -1.940911 47.856384
355 0 1 10.559022 -2.124829 47.312988
356 0 1 11.394822 -2.535375 47.558990
357 0 1 11.518121 -1.722623 48.065094
358 0 1 11.999024 -1.470202 48.886810
359 0 1 12.211724 -2.405484 49.128906
360 0 1 13.141522 -2.263038 49.098999
361 0 1 13.412423 -2.731547 48.303009
362 0 1 12.702622 -2.524835 47.661499
363 0 1 13.386624 -1.962752 47.168304
364 0 1 13.454522 -1.969722 46.258392
365 0 1 13.399125 -1.515464 45.373505
366 0 1 13.020425 -2.189385 44.732300
367 0 1 13.326322 -3.047915 45.078613
368 0 1 14.224523 -2.597209 45.088287
369 0 1 14.895822 -1.910071 45.081390
370 0 1 14.807923 -0.986411 44.851501
371 0 1 15.660424 -0.528121 44.894287
372 0 1 15.525823 -0.260932 45.811493
373 0 1 15.887025 -0.941043 46.475098
374 0 1 15.009023 -1.264644 46.193512
375 0 1 14.439122 -0.975711 46.968506
376 0 1 14.296021 -0.659163 47.882904
377 0 1 14.376725 0.159120 48.567108
378 0 1 15.160722 0.073319 49.152313
379 0 1 14.413022 -0.558841 49.325592
380 0 1 15.173223 -1.025653 49.491394
381 0 1 14.611623 -1.349402 50.199188
382 0 1 14.592225 -2.261811 50.255096
383 0 1 14.951722 -3.163835 50.308197
384 0 1 14.352422 -3.056941 51.059387
385 0 1 14.840322 -2.418460 51.625916
386 0 1 15.769921 -2.178433 51.538513
387 0 1 15.698323 -1.962293 52.441895
388 0 1 15.900323 -1.405414 53.312103
389 0 1 15.126222 -0.847381 53.509216
390 0 1 15.683022 -0.962813 54.306702
391 0 1 14.969022 -1.365073 54.940796
392 0 1 14.448724 -2.120894 54.541290
393 0 1 13.533822 -2.236423 54.792297
394 0 1 13.574723 -2.192956 55.777100
395 0 1 13.252221 -3.164550 55.674988
396 0 1 12.781224 -3.973332 55.845306
397 0 1 13.387723 -4.033092 56.560303
398 0 1 13.903623 -4.790921 56.841614
399 0 1 13.965322 -5.584292 56.333313
400 0 1 13.619622 -4.961152 55.649200
401 0 1 12.980821 -5.628192 55.235107
402 0 1 12.193421 -5.678582 54.522003
403 0 1 12.097623 -5.550193 53.584991
404 0 1 12.243123 -5.096992 52.702606
405 0 1 12.200425 -6.058661 52.542603
406 0 1 11.515725 -6.555081 52.175201
407 0 1 11.065824 -7.330043 51.735992
408 0 1 10.286622 -7.760762 52.003204
409 0 1 9.506524 -7.966332 51.508789
410 0 1 9.410443 -7.647922 50.550415
411 0 1 8.759355 -7.310523 51.157806
412 0 1 8.484883 -6.527032 51.582703
413 0 1 7.822503 -5.787862 51.487213
414 0 1 7.775971 -5.399213 50.569489
415 0 1 6.801011 -5.637982 50.584412
416 0 1 6.294732 -5.991012 51.322906
417 0 1 6.170563 -5.142512 51.644409
418 0 1 6.000832 -5.466392 52.488892
419 0 1 5.317784 -5.741683 51.891907
420 0 1 5.514962 -6.540631 52.392609
421 0 1 5.336762 -6.467353 53.372192
422 0 1 6.018223 -7.031651 53.701294
423 0 1 6.474202 -7.634332 52.987915
424 0 1 7.480034 -7.767762 52.822693
425 0 1 8.113812 -8.503451 52.846710
426 0 1 8.019853 -9.022662 52.040283
427 0 1 8.230073 -9.863683 52.447113
428 0 1 9.148572 -9.719663 52.498413
429 0 1 8.952394 -10.446092 51.840302
430 0 1 9.259194 -10.870322 52.618286
431 0 1 9.542104 -11.731902 52.793793
432 0 1 9.306863 -12.643203 53.062012
433 0 1 9.954823 -12.930743 52.329712
434 0 1 9.778432 -12.391212 51.582703
435 0 1 9.206693 -11.603671 51.036591
436 0 1 8.488103 -11.853423 50.458710
437 0 1 9.159753 -12.305772 50.036011
438 0 1 9.427602 -12.992393 49.380798
439 0 1 9.919324 -13.332902 50.215698
440 0 1 10.486924 -12.891992 50.791504
441 0 1 10.397023 -12.277892 49.973389
442 0 1 11.306623 -12.205972 50.182800
443 0 1 11.671121 -11.515933 50.772888
444 0 1 12.602921 -11.444713 50.718597
445 0 1 12.526025 -12.241052 50.135406
446 0 1 12.360925 -13.049922 49.702789
447 0 1 12.688821 -13.847602 50.090607
448 0 1 13.208222 -14.142303 50.831604
449 0 1 12.689122 -14.322501 51.590088
450 0 1 12.987321 -14.142203 52.484589
451 0 1 13.497224 -13.551402 52.999390
452 0 1 12.550622 -13.234502 52.807007
453 0 1 13.058221 -12.511342 53.031403
454 0 1 13.217622 -12.673701 53.964600
455 0 1 12.421323 -13.284102 53.975800
456 0 1 11.936124 -14.069402 54.165894
457 0 1 12.844823 -14.298402 54.536987
458 0 1 12.844621 -13.917502 55.441803
459 0 1 13.765023 -14.158402 55.477112
460 0 1 13.976823 -14.553502 56.344788
461 0 1 13.300122 -14.956302 55.851593
462 0 1 14.109822 -15.178203 55.286194
463 0 1 14.686624 -15.889102 54.932587
464 0 1 14.174924 -15.664502 54.158997
465 0 1 13.700124 -16.409502 54.439697
466 0 1 12.970925 -16.548903 54.981506
467 0 1 13.037721 -17.380501 54.488708
468 0 1 12.869523 -18.048203 53.880402
469 0 1 13.182622 -17.386301 53.177612
470 0 1 12.848222 -16.796701 52.527008
471 0 1 12.966222 -17.334101 51.786713
472 0 1 13.488023 -16.618801 51.423187
473 0 1 14.011624 -17.095501 50.778992
474 0 1 13.151223 -17.409002 50.636597
475 0 1 13.707723 -17.617502 49.838287
476 0 1 13.338624 -18.455902 49.618805
477 0 1 12.433022 -18.391401 49.898407
478 0 1 11.813924 -18.542902 49.195709
479 0 1 11.744424 -19.522501 49.213104
480 0 1 10.846322 -19.317801 49.482300
481 0 1 10.849725 -19.952501 48.744995
482 0 1 10.085324 -20.413200 49.110107
483 0 1 10.377324 -20.996302 49.812317
484 0 1 10.071923 -21.988701 49.805511
485 0 1 10.006524 -22.410601 50.615295
486 0 1 9.571042 -23.120901 51.107788
487 0 1 9.371312 -23.859402 50.494385
488 0 1 8.966603 -24.082602 51.279785
489 0 1 8.251504 -23.469400 51.506592
490 0 1 7.923790 -22.711601 50.900696
491 0 1 7.729653 -22.307602 51.728699
492 0 1 6.851952 -22.381802 51.247406
493 0 1 7.028824 -22.919500 50.376801
494 0 1 6.457062 -22.411001 49.817108
495 0 1 5.694203 -23.001600 50.034607
496 0 1 5.552002 -23.145102 49.030701
497 0 1 4.698113 -23.428501 48.765106
498 0 1 3.844384 -23.746401 48.355194
499 0 1 3.863511 -23.484402 47.448212
500 0 1 2.960232 -23.651300 47.135712
501 0 1 2.948674 -23.164001 47.896698
502 0 1 2.447263 -23.166201 48.700684
503 0 1 1.727574 -23.704601 49.014496
504 0 1 1.231743 -23.307301 48.335999
505 0 1 1.258313 -22.325802 48.170990
506 0 1 1.638074 -21.472002 48.070984
507 0 1 1.662854 -20.679102 47.569489
508 0 1 1.038233 -21.089401 46.930908
509 0 1 0.653643 -21.944401 46.962494
510 0 1 -0.281606 -22.027302 46.776184
511 0 1 -1.061015 -21.536501 46.553009
512 0 1 -0.453121 -21.076302 47.184113
513 0 1 -0.885145 -20.240801 47.394592
514 0 1 -1.485118 -19.939201 46.657196
515 0 1 -2.099187 -20.376600 47.255096
516 0 1 -1.765668 -20.380800 48.154907
517 0 1 -1.424238 -19.552301 48.545197
518 0 1 -1.817258 -18.878302 47.960205
519 0 1 -1.470838 -17.995901 47.893799
520 0 1 -2.189567 -17.509001 47.307800
521 0 1 -3.152257 -17.229700 47.291290
522 0 1 -3.252406 -16.292601 47.723602
523 0 1 -4.029258 -15.706903 47.699402
524 0 1 -4.231668 -15.957801 46.824890
525 0 1 -3.930597 -15.904902 45.909912
526 0 1 -4.636518 -15.332702 45.505798
527 0 1 -5.559568 -15.396403 45.722595
528 0 1 -6.225868 -15.150502 45.105499
529 0 1 -6.921607 -14.580001 45.539795
530 0 1 -6.939228 -15.261901 46.221405
531 0 1 -6.312316 -15.026801 46.979797
532 0 1 -6.462497 -14.041503 47.187408
533 0 1 -7.277547 -14.456801 47.035706
534 0 1 -7.826637 -14.458701 46.257507
535 0 1 -8.693557 -14.857902 46.420105
536 0 1 -9.594317 -15.196702 46.364014
537 0 1 -10.357078 -15.606902 46.572205
538 0 1 -10.682277 -16.432701 46.278412
539 0 1 -11.581176 -16.353701 45.757385
540 0 1 -12.044177 -16.072702 44.916016
541 0 1 -12.231978 -15.849601 44.027893
542 0 1 -13.065276 -15.466302 43.699707
543 0 1 -12.828477 -14.704703 43.131104
544 0 1 -12.543178 -14.065202 43.817596
545 0 1 -11.568677 -14.355102 43.924500
546 0 1 -11.967177 -14.132903 44.760193
547 0 1 -12.845477 -13.719802 44.875092
548 0 1 -12.807178 -12.811912 44.631195
549 0 1 -12.831378 -12.778132 43.682800
550 0 1 -12.086078 -12.883552 43.135895
551 0 1 -11.678977 -12.064992 42.913696
552 0 1 -11.148578 -11.586972 42.193298
553 0 1 -10.247878 -11.573752 42.529694
554 0 1 -10.456977 -12.410983 42.268707
555 0 1 -10.133178 -12.910722 42.997894
556 0 1 -9.376456 -13.213902 42.507690
557 0 1 -10.264777 -13.601604 42.146912
558 0 1 -9.567618 -14.146903 41.739410
559 0 1 -8.659446 -13.852502 41.337891
560 0 1 -8.070848 -13.833701 40.580994
561 0 1 -8.799266 -14.250003 40.107117
562 0 1 -8.118487 -14.710002 39.599701
563 0 1 -8.347857 -15.632602 39.689087
564 0 1 -9.234416 -15.551402 40.110901
565 0 1 -9.558806 -14.875201 39.554108
566 0 1 -9.630546 -14.257102 38.783813
567 0 1 -10.072528 -13.336303 38.921906
568 0 1 -10.355876 -12.781262 39.695312
569 0 1 -10.474578 -12.122153 38.915802
570 0 1 -10.688077 -11.558341 39.653412
571 0 1 -10.321578 -10.802503 39.107391
572 0 1 -11.194377 -10.737163 38.620209
573 0 1 -11.952678 -11.253043 38.589905
574 0 1 -12.305278 -11.354423 37.657013
575 0 1 -12.986678 -11.939332 38.197113
576 0 1 -13.786078 -11.382583 38.122009
577 0 1 -14.716777 -11.312472 38.198212
578 0 1 -15.120877 -11.856872 38.870605
579 0 1 -15.904877 -11.686461 38.346405
580 0 1 -16.147879 -11.423942 37.401794
581 0 1 -15.387277 -11.003402 36.917908
582 0 1 -14.358277 -11.195521 36.877594
583 0 1 -14.449378 -10.329263 36.482910
584 0 1 -13.846377 -9.672353 36.958008
585 0 1 -12.917178 -9.766871 37.290802
586 0 1 -12.445077 -9.860902 36.446594
587 0 1 -11.718276 -10.345641 36.931488
588 0 1 -10.921378 -10.654471 36.465912
589 0 1 -11.004977 -9.674312 36.588409
590 0 1 -10.729077 -9.619891 35.643707
591 0 1 -11.428477 -9.147391 35.122192
592 0 1 -11.219676 -8.271953 35.584198
593 0 1 -10.426478 -7.907712 36.003998
594 0 1 -9.949626 -8.536202 36.563904
595 0 1 -9.809756 -8.933913 37.408905
596 0 1 -9.548888 -7.992652 37.469604
597 0 1 -8.955428 -7.306003 37.079010
598 0 1 -8.017617 -7.509482 37.016205
599 0 1 -8.003787 -8.518111 36.686584
600 0 1 -7.661598 -9.405492 36.795990
601 0 1 -6.715969 -9.318553 36.826294
602 0 1 -6.103628 -9.036832 37.434509
603 0 1 -5.660207 -8.166982 37.196503
604 0 1 -5.543457 -8.134023 36.202606
605 0 1 -5.972778 -8.611062 35.555786
606 0 1 -5.737136 -8.077752 34.732697
607 0 1 -4.821617 -8.276603 34.364410
608 0 1 -5.312538 -8.971702 33.936401
609 0 1 -4.725448 -9.800193 33.969116
610 0 1 -4.006788 -10.408822 33.779114
611 0 1 -3.292957 -10.853482 33.403107
612 0 1 -2.908378 -9.969913 33.412689
613 0 1 -2.968288 -9.579331 32.471893
614 0 1 -3.324758 -10.164111 31.739594
615 0 1 -2.456786 -10.639953 31.784912
616 0 1 -2.085487 -10.180902 31.053589
617 0 1 -2.423597 -9.309472 30.726105
618 0 1 -3.011058 -9.024522 31.493500
619 0 1 -3.045886 -8.186942 32.028900
620 0 1 -2.867187 -7.255132 32.374512
621 0 1 -1.814348 -7.092261 32.459106
622 0 1 -1.557548 -6.473462 31.761688
623 0 1 -2.267436 -5.890552 31.447815
624 0 1 -2.834687 -5.121352 31.624390
625 0 1 -1.986778 -4.700643 31.327789
626 0 1 -1.729127 -4.002324 31.980988
627 0 1 -1.516448 -4.220563 32.970306
628 0 1 -0.670493 -4.755023 33.008087
629 0 1 0.180520 -4.410413 33.182892
630 0 1 -0.332061 -3.795663 33.640503
631 0 1 -0.204727 -3.443154 34.572113
632 0 1 -0.731273 -2.742780 34.963196
633 0 1 -1.028028 -2.129575 35.685089
634 0 1 -1.288907 -2.200290 36.644012
635 0 1 -1.249927 -2.374366 37.566711
636 0 1 -1.771947 -2.140939 38.313599
637 0 1 -2.294778 -2.924935 38.362610
638 0 1 -2.735797 -2.853648 37.542694
639 0 1 -2.837358 -2.624228 36.549500
640 0 1 -3.752927 -2.431506 36.187012
641 0 1 -4.545587 -2.941960 36.449799
642 0 1 -5.291767 -3.580964 36.083801
643 0 1 -4.900718 -3.213031 35.297485
644 0 1 -4.126998 -3.747062 35.651398
645 0 1 -3.666627 -3.180160 34.972504
646 0 1 -4.278537 -3.179505 34.269897
647 0 1 -5.070808 -3.608270 34.002808
648 0 1 -4.897478 -3.741038 33.065002
649 0 1 -5.161697 -3.595511 32.173004
650 0 1 -5.255508 -2.544259 32.412903
651 0 1 -4.413478 -2.968062 32.460999
652 0 1 -4.101768 -2.541608 33.320984
653 0 1 -4.385707 -1.894082 33.972107
654 0 1 -3.645368 -1.435611 33.680695
655 0 1 -4.215766 -1.248183 32.925812
656 0 1 -4.474166 -0.327434 33.067413
657 0 1 -3.554977 -0.300673 33.011414
658 0 1 -3.319497 -0.996463 32.386597
659 0 1 -3.548927 -1.110602 31.439697
660 0 1 -4.014558 -1.835792 31.055206
661 0 1 -3.844577 -2.647586 30.613403
662 0 1 -2.950048 -2.248424 30.846008
663 0 1 -2.982778 -1.570083 30.095490
664 0 1 -2.496436 -1.711543 29.235901
665 0 1 -2.213937 -1.054511 28.488800
666 0 1 -1.329057 -0.663180 28.389587
667 0 1 -0.460943 -0.298564 28.662811
668 0 1 -0.176473 0.595658 28.608307
669 0 1 -0.135080 1.465688 28.139099
670 0 1 -1.125347 1.547677 28.154297
671 0 1 -0.842477 1.317616 29.019897
672 0 1 -0.780271 1.026727 30.067291
673 0 1 0.155711 0.904729 30.162201
674 0 1 0.704352 1.590779 29.954590
675 0 1 0.757666 2.548947 29.774292
676 0 1 0.235764 3.318837 29.619904
677 0 1 1.195893 3.565419 29.498810
678 0 1 0.803168 4.428479 29.879303
679 0 1 1.146422 4.551557 30.795502
680 0 1 1.940682 4.195310 30.418213
681 0 1 1.883042 3.760159 31.301300
682 0 1 2.801133 3.545056 31.565613
683 0 1 3.043713 2.917890 32.259399
684 0 1 3.544633 2.870858 33.075897
685 0 1 3.644223 2.062596 33.581390
686 0 1 3.192921 2.040486 34.386993
687 0 1 3.118821 1.585488 35.232117
688 0 1 3.713582 0.862588 35.574310
689 0 1 4.375351 1.560086 35.497192
690 0 1 5.007573 0.895089 35.876587
691 0 1 5.641701 0.289609 35.505707
692 0 1 5.074673 -0.277823 35.016785
693 0 1 5.403122 -0.609370 34.077789
694 0 1 5.392193 -0.536662 33.075500
695 0 1 5.383793 -1.484431 33.064606
696 0 1 4.617161 -1.675912 32.539398
697 0 1 4.617901 -2.366925 31.892212
698 0 1 5.356644 -2.868232 32.356598
699 0 1 5.680024 -2.649629 31.506012
700 0 1 6.587563 -2.338237 31.750793
701 0 1 6.373143 -1.578202 32.240601
702 0 1 6.601262 -0.687984 31.916290
703 0 1 6.968312 0.258248 31.895111
704 0 1 7.447281 0.615159 32.639587
705 0 1 8.037904 0.061509 33.102112
706 0 1 8.200574 -0.127032 32.126587
707 0 1 8.869943 -0.524741 32.744507
708 0 1 9.109532 -1.426890 32.559509
709 0 1 9.459214 -1.515731 33.430389
710 0 1 9.883195 -0.773562 33.090790
711 0 1 9.872361 0.100888 33.520996
712 0 1 10.585725 0.723020 33.319214
713 0 1 10.858823 1.622617 33.515900
714 0 1 10.607823 2.332299 34.155396
715 0 1 10.272325 3.104596 33.702087
716 0 1 10.412423 4.046288 33.983704
717 0 1 11.283322 3.652707 34.279999
718 0 1 11.999124 4.016309 33.782990
719 0 1 12.711221 3.364068 33.907288
720 0 1 13.272523 3.924737 34.463501
721 0 1 13.027223 4.568849 33.791199
722 0 1 13.034921 5.484387 34.020508
723 0 1 13.278321 6.409200 33.926605
724 0 1 12.316422 6.428510 33.874908
725 0 1 12.034223 7.053597 33.213898
726 0 1 12.051923 7.966596 33.040405
727 0 1 12.698022 8.481900 33.488007
728 0 1 12.711022 8.066899 34.349396
729 0 1 13.534524 7.914800 34.894989
730 0 1 13.245225 8.844098 35.062195
731 0 1 13.353822 9.434697 35.753113
732 0 1 12.861623 10.205998 35.398804
733 0 1 13.242021 10.434899 36.233612
734 0 1 12.903424 11.318398 35.843292
735 0 1 13.837224 11.172498 35.674988
736 0 1 13.653024 12.061200 36.186493
737 0 1 14.016725 12.224698 35.330811
738 0 1 13.818124 12.317998 34.388000
739 0 1 13.026223 12.012498 34.774506
740 0 1 12.903924 11.978898 33.816711
741 0 1 12.286824 12.187596 33.037903
742 0 1 11.586625 12.154897 33.648499
743 0 1 10.721524 11.849896 33.235687
744 0 1 10.772325 10.922299 33.003387
745 0 1 11.521523 10.742497 33.546295
746 0 1 11.912522 10.331197 32.771484
747 0 1 12.718923 10.443196 32.286407
748 0 1 12.839524 11.364400 31.997314
749 0 1 12.279523 12.156598 31.980499
750 0 1 11.994721 12.994298 31.632385
751 0 1 11.638223 12.329900 31.026489
752 0 1 11.143525 12.211198 31.894104
753 0 1 10.262925 11.972096 32.241302
754 0 1 9.768003 12.159696 31.488800
755 0 1 8.781823 12.017198 31.396698
756 0 1 8.838151 12.215699 30.472290
757 0 1 7.917031 12.381799 30.790314
758 0 1 7.746331 11.402699 31.042206
759 0 1 8.117661 10.945298 30.301514
760 0 1 7.171563 10.625497 30.490906
761 0 1 6.666981 9.749196 30.685913
762 0 1 7.272282 9.068097 31.011902
763 0 1 7.244263 8.236997 31.554108
764 0 1 6.284543 8.150998 31.657501
765 0 1 6.335591 8.124997 32.588593
766 0 1 6.919583 7.579999 33.051208
767 0 1 7.559643 7.560998 32.315704
768 0 1 7.713162 6.715238 31.824707
769 0 1 8.638494 7.184499 31.767303
770 0 1 8.798802 6.977098 30.853516
771 0 1 9.113294 7.337399 30.054993
772 0 1 8.994714 7.255300 29.128387
773 0 1 9.187562 6.289350 28.913513
774 0 1 10.203622 6.151887 28.906311
775 0 1 10.780423 5.330647 29.018005
776 0 1 10.705621 4.818528 28.236694
777 0 1 10.804822 4.807076 27.306091
778 0 1 11.448224 4.243070 26.992004
779 0 1 11.903222 4.732770 26.233398
780 0 1 11.800923 5.448289 26.886688
781 0 1 12.187821 6.247838 27.203796
782 0 1 12.401322 6.303586 26.261108
783 0 1 12.603425 5.804788 25.363312
784 0 1 12.398122 5.734220 24.420197
785 0 1 13.080323 6.037129 23.779205
786 0 1 13.403825 6.379338 22.943298
787 0 1 13.843022 5.485948 22.932892
788 0 1 13.719125 4.938977 22.197403
789 0 1 14.189923 4.111337 21.994202
790 0 1 13.993722 3.251077 22.412506
791 0 1 14.539624 2.992208 23.182190
792 0 1 14.144525 3.705136 23.771088
793 0 1 13.744123 4.056920 24.536713
794 0 1 14.592324 4.260369 24.937805