LAMMPS data file via MDAnalysis

        2000  atoms
        1999  bonds
           0  angles
           0  dihedrals
           0  impropers

           1  atom types
           1  bond types
           0  angle types
           0  dihedral types
           0  improper types

-30.5 30.5 xlo xhi
-30.5 30.5 ylo yhi
-233.5 233.5 zlo zhi


Masses

1 1.000000

Atoms

1 0 1 -7.563749 7.227906 73.072601
2 0 1 -7.859348 7.265404 72.182983
3 0 1 -8.735218 6.652936 72.081604
4 0 1 -8.679260 6.277806 72.993713
5 0 1 -9.179878 7.007702 73.207489
6 0 1 -9.829700 7.740204 73.277496
7 0 1 -10.063850 7.375306 72.437500
8 0 1 -10.624409 6.927804 71.772095
9 0 1 -10.422909 7.360604 70.943604
10 0 1 -10.384809 6.541417 70.539001
11 0 1 -10.376110 6.956807 69.608704
12 0 1 -9.889690 6.515965 68.846191
13 0 1 -10.784809 6.083912 68.921906
14 0 1 -11.572208 6.626885 68.791199
15 0 1 -11.757210 7.355206 68.042999
16 0 1 -10.931910 7.124604 67.658386
17 0 1 -10.320210 6.402585 67.620483
18 0 1 -10.479509 6.690503 66.680298
19 0 1 -10.595009 7.629902 66.529205
20 0 1 -10.688509 7.072705 65.732483
21 0 1 -11.187210 7.222104 64.868591
22 0 1 -10.827410 6.356545 64.695618
23 0 1 -11.626909 5.755265 64.788696
24 0 1 -12.184608 4.914055 64.826599
25 0 1 -12.852711 4.224102 64.606293
26 0 1 -12.819710 3.927186 63.716187
27 0 1 -12.717209 3.429554 62.851593
28 0 1 -11.759109 3.244565 62.810791
29 0 1 -11.957109 4.106404 63.195801
30 0 1 -11.317209 4.802037 62.981293
31 0 1 -10.659611 4.610634 62.330505
32 0 1 -11.140511 4.771534 61.412201
33 0 1 -10.297609 5.199864 61.037689
34 0 1 -10.307610 6.033654 60.455688
35 0 1 -10.502209 6.107815 59.453400
36 0 1 -11.283009 6.650284 59.446503
37 0 1 -11.646809 7.000405 60.215912
38 0 1 -12.431709 7.105004 59.777405
39 0 1 -11.980709 7.161004 58.884003
40 0 1 -12.594910 7.914505 59.059692
41 0 1 -13.183510 7.607502 58.430511
42 0 1 -13.902609 7.501904 59.087708
43 0 1 -13.346310 6.868004 59.458008
44 0 1 -13.063009 6.403256 58.603302
45 0 1 -13.877310 6.492104 58.078491
46 0 1 -14.707310 6.582154 57.634796
47 0 1 -14.775410 5.515275 57.399689
48 0 1 -14.358509 5.239834 56.572388
49 0 1 -13.412109 5.346776 56.835907
50 0 1 -13.512110 4.545216 56.330902
51 0 1 -12.730410 4.141114 56.792999
52 0 1 -12.436211 3.536515 57.550415
53 0 1 -11.529409 3.890477 57.479187
54 0 1 -10.968109 3.153054 57.787201
55 0 1 -10.707310 3.085415 58.697815
56 0 1 -10.571709 4.096623 58.863098
57 0 1 -9.695009 4.464276 58.629211
58 0 1 -9.565910 4.679375 57.672699
59 0 1 -8.773140 4.219964 57.568298
60 0 1 -8.013670 4.598897 58.061188
61 0 1 -8.099480 4.039876 58.809906
62 0 1 -8.648289 4.861096 58.901917
63 0 1 -9.056450 4.501915 59.765686
64 0 1 -8.556068 5.310635 60.057098
65 0 1 -8.000229 5.952214 60.504303
66 0 1 -7.166460 6.269635 60.806793
67 0 1 -7.313959 6.537785 61.708496
68 0 1 -7.944859 7.230206 61.477203
69 0 1 -7.284519 7.609105 60.968201
70 0 1 -6.409538 7.293503 61.121887
71 0 1 -5.855389 7.782406 61.629791
72 0 1 -5.865108 8.134805 60.766602
73 0 1 -4.928009 7.941105 60.549805
74 0 1 -5.243670 7.973305 59.608093
75 0 1 -5.525311 7.309002 58.992798
76 0 1 -6.303869 6.746205 59.137787
77 0 1 -6.363319 7.353306 59.819092
78 0 1 -6.552919 8.033406 59.212799
79 0 1 -6.470690 8.972806 59.257385
80 0 1 -5.792059 9.593007 59.397797
81 0 1 -5.411720 10.211804 58.791290
82 0 1 -5.366560 10.944707 59.359192
83 0 1 -5.906380 11.601106 59.692017
84 0 1 -6.322769 11.313004 60.547485
85 0 1 -6.053919 12.033803 61.145111
86 0 1 -6.413380 12.856908 60.738708
87 0 1 -5.551910 13.075208 61.232300
88 0 1 -5.477100 13.299108 62.181213
89 0 1 -5.468189 13.836705 62.985413
90 0 1 -5.930710 13.501904 63.794098
91 0 1 -5.518419 13.335004 64.620605
92 0 1 -4.705189 13.508904 64.156006
93 0 1 -4.942980 12.656606 63.850189
94 0 1 -4.157269 12.818303 63.359985
95 0 1 -3.624050 12.860303 64.208313
96 0 1 -3.341639 13.790505 64.194702
97 0 1 -2.996330 13.664304 63.288513
98 0 1 -2.240839 13.120008 63.433105
99 0 1 -2.219610 14.170506 63.424011
100 0 1 -1.609209 14.602902 62.726410
101 0 1 -1.892969 13.829503 62.218597
102 0 1 -0.901203 13.966405 62.208588
103 0 1 -0.615002 13.043904 62.081390
104 0 1 -0.678677 12.142705 62.211212
105 0 1 -0.109505 12.251405 61.436493
106 0 1 0.549660 12.090405 62.144501
107 0 1 0.953861 11.865705 63.098389
108 0 1 1.905811 11.503804 63.139587
109 0 1 2.044540 12.281903 63.766205
110 0 1 1.761391 12.365705 64.717804
111 0 1 2.196732 11.787206 65.321899
112 0 1 2.078220 11.194104 66.048218
113 0 1 2.868221 10.760606 66.460602
114 0 1 3.854130 10.747205 66.393188
115 0 1 4.617859 10.623006 66.955811
116 0 1 4.717659 11.021005 67.778503
117 0 1 5.036392 10.330403 68.390411
118 0 1 5.280300 11.255204 68.641602
119 0 1 5.601830 12.169206 68.866302
120 0 1 6.373619 12.346505 68.284302
121 0 1 7.148552 12.414205 67.658997
122 0 1 7.429531 12.674905 66.774689
123 0 1 7.125721 13.059003 65.912506
124 0 1 6.661201 13.129704 65.072510
125 0 1 7.008720 12.440106 64.429016
126 0 1 6.811440 12.760205 63.554901
127 0 1 6.380680 13.616704 63.654205
128 0 1 6.236511 13.736707 62.701416
129 0 1 7.086460 13.273602 62.266998
130 0 1 7.287720 13.879605 62.998108
131 0 1 8.033508 13.762807 62.458191
132 0 1 8.424850 13.589704 61.619202
133 0 1 8.649441 13.485906 60.721893
134 0 1 8.011398 12.869504 61.014587
135 0 1 8.727200 12.475305 60.556000
136 0 1 8.470222 11.653405 61.041687
137 0 1 9.507999 11.723004 61.258789
138 0 1 10.314690 11.117604 61.363098
139 0 1 10.107590 10.824105 62.268402
140 0 1 10.456490 11.188905 63.125000
141 0 1 11.380989 11.539907 63.415283
142 0 1 11.919289 12.356706 63.273010
143 0 1 11.156292 12.543206 62.745911
144 0 1 10.513092 12.122605 62.122101
145 0 1 10.485092 13.055406 62.191406
146 0 1 10.925091 13.883904 62.429413
147 0 1 11.645290 14.195203 62.991913
148 0 1 12.415092 14.196004 63.599915
149 0 1 13.285591 14.524705 63.600800
150 0 1 13.794590 14.122304 62.929199
151 0 1 14.257191 14.272603 62.067596
152 0 1 13.553391 14.040708 61.494690
153 0 1 13.037891 14.465806 60.701508
154 0 1 12.497192 15.286405 60.627502
155 0 1 12.697491 16.163105 60.358093
156 0 1 13.486790 16.644207 60.564911
157 0 1 14.288391 16.302006 60.154205
158 0 1 14.935291 15.604108 60.266907
159 0 1 15.635490 15.159406 59.718384
160 0 1 15.111290 14.415105 59.574005
161 0 1 14.966290 13.571202 59.926697
162 0 1 15.509590 13.923104 60.676208
163 0 1 16.434391 14.088204 61.016907
164 0 1 16.663490 13.430608 61.728210
165 0 1 17.542091 12.962804 61.817108
166 0 1 17.093990 12.187505 61.477509
167 0 1 17.173492 11.258206 61.681213
168 0 1 17.379490 10.765607 60.852600
169 0 1 17.612492 10.578107 59.967102
170 0 1 16.646591 10.509606 60.056213
171 0 1 16.661190 10.529305 59.027802
172 0 1 16.613091 10.805806 58.119690
173 0 1 16.101288 11.556706 58.212708
174 0 1 15.786190 11.174905 59.070801
175 0 1 14.854092 11.062207 59.044006
176 0 1 14.875290 11.673703 59.758484
177 0 1 14.620190 12.483605 60.262512
178 0 1 15.257690 12.247403 61.014099
179 0 1 15.135193 13.057607 61.474091
180 0 1 15.196091 12.305806 62.173187
181 0 1 14.740891 11.485707 62.317993
182 0 1 14.429092 10.559003 62.556396
183 0 1 14.412090 10.115304 61.710205
184 0 1 14.478493 9.593907 62.524811
185 0 1 13.569592 9.565106 62.918213
186 0 1 13.556690 10.077207 63.734711
187 0 1 13.761391 10.933305 64.150299
188 0 1 13.449390 10.487504 64.975311
189 0 1 13.915291 9.796105 65.517090
190 0 1 14.081390 8.899404 65.750793
191 0 1 14.630890 8.068105 65.798309
192 0 1 15.021992 7.479805 65.157990
193 0 1 15.256889 7.718804 64.293518
194 0 1 14.659492 7.015503 63.991913
195 0 1 15.499790 6.451916 63.900513
196 0 1 14.926788 5.928883 64.477112
197 0 1 14.096592 5.409165 64.413605
198 0 1 13.212891 5.660046 63.891907
199 0 1 12.592892 6.198876 63.282410
200 0 1 11.694191 5.811436 63.385315
201 0 1 10.763790 5.841904 63.705811
202 0 1 9.891689 5.794743 64.091187
203 0 1 9.675240 5.502995 63.272095
204 0 1 9.769390 4.601246 63.553406
205 0 1 10.002892 3.714894 63.674805
206 0 1 9.648422 4.008786 64.497314
207 0 1 9.147861 4.760434 64.827087
208 0 1 8.509930 4.818303 64.067993
209 0 1 7.916370 5.107724 63.355011
210 0 1 7.534561 4.318844 63.037201
211 0 1 8.390099 3.855195 63.022705
212 0 1 8.880650 3.583325 62.259094
213 0 1 8.563900 4.476155 62.093811
214 0 1 8.083351 4.490605 61.291290
215 0 1 7.730412 4.935666 60.513184
216 0 1 6.846340 4.891346 59.939789
217 0 1 6.063911 5.271836 59.706604
218 0 1 5.675732 5.156716 60.652496
219 0 1 5.226940 4.975613 61.458008
220 0 1 5.075069 4.009743 61.447693
221 0 1 5.598732 3.222004 61.279114
222 0 1 5.845692 3.589306 60.388916
223 0 1 6.256351 3.121663 59.683502
224 0 1 5.350082 3.262494 59.268707
225 0 1 4.615299 2.648186 59.272797
226 0 1 4.859291 2.489724 58.346313
227 0 1 4.365860 2.028996 57.633392
228 0 1 3.908390 1.855824 56.766205
229 0 1 4.334732 2.741555 56.814911
230 0 1 4.299122 3.331845 57.565002
231 0 1 5.180092 3.059433 57.363800
232 0 1 5.803200 3.611676 56.980591
233 0 1 5.489330 4.280583 56.426392
234 0 1 5.209961 3.408844 56.102600
235 0 1 4.722790 3.075276 55.337189
236 0 1 3.866470 2.948685 55.034302
237 0 1 2.985092 3.180836 55.151093
238 0 1 2.110882 2.842694 55.406097
239 0 1 1.679581 3.207024 56.207001
240 0 1 1.417389 2.599114 56.920593
241 0 1 2.185852 2.113564 57.381500
242 0 1 2.211800 1.326146 57.842499
243 0 1 1.891132 2.042195 58.405701
244 0 1 0.993610 2.013054 58.733002
245 0 1 1.331501 1.903016 59.622314
246 0 1 0.906530 2.755616 59.472900
247 0 1 0.020477 2.553803 59.744598
248 0 1 -0.866585 2.799393 59.476685
249 0 1 -1.398310 3.315033 58.873413
250 0 1 -2.289650 3.188076 58.808807
251 0 1 -2.544209 3.328454 59.699493
252 0 1 -1.944599 4.014565 59.836914
253 0 1 -2.550949 4.761456 59.966095
254 0 1 -3.151600 4.284474 60.561890
255 0 1 -3.912430 4.122925 60.046204
256 0 1 -4.515739 3.628254 60.557312
257 0 1 -4.152609 2.759766 60.492493
258 0 1 -3.900539 2.042973 59.876404
259 0 1 -4.592779 1.818356 59.234497
260 0 1 -3.935970 2.325554 58.734100
261 0 1 -3.102360 1.931916 58.826996
262 0 1 -2.429649 1.843587 58.049103
263 0 1 -1.504019 2.018334 58.109985
264 0 1 -0.976181 1.258164 57.885895
265 0 1 -0.513605 0.970585 58.630615
266 0 1 -0.926472 0.106984 58.548889
267 0 1 -0.486836 -0.317314 59.342194
268 0 1 -0.622843 -1.268314 59.467712
269 0 1 -0.678997 -2.089805 60.060699
270 0 1 0.287987 -1.978176 60.233704
271 0 1 0.173128 -2.933290 60.252411
272 0 1 0.755121 -3.015491 59.519287
273 0 1 1.089611 -3.866905 59.141907
274 0 1 0.391577 -4.474966 58.786102
275 0 1 0.284603 -3.766134 58.168213
276 0 1 -0.124199 -2.936893 58.157715
277 0 1 0.451448 -2.116506 58.213196
278 0 1 0.933731 -2.887500 58.185303
279 0 1 1.285931 -2.331937 57.553284
280 0 1 1.890202 -1.804485 56.984100
281 0 1 1.877399 -2.296455 56.121887
282 0 1 1.442940 -3.103733 56.427002
283 0 1 1.491112 -3.938144 56.932587
284 0 1 1.283421 -4.882896 57.160492
285 0 1 2.103241 -4.978286 56.592285
286 0 1 1.364830 -5.126365 55.894501
287 0 1 1.857201 -5.633956 55.247314
288 0 1 0.992540 -5.939476 55.121216
289 0 1 0.601858 -6.387825 55.894592
290 0 1 -0.161581 -6.991926 55.886902
291 0 1 -1.049623 -7.279455 56.174103
292 0 1 -1.997959 -7.326795 56.013397
293 0 1 -2.403250 -7.870845 56.725098
294 0 1 -2.204960 -8.480674 57.464813
295 0 1 -2.170809 -7.737115 58.097595
296 0 1 -2.918018 -7.967395 58.672485
297 0 1 -3.041010 -8.747485 58.170502
298 0 1 -2.365969 -9.364486 58.022705
299 0 1 -2.572060 -9.885335 57.300293
300 0 1 -2.972929 -10.258666 58.141296
301 0 1 -2.476170 -10.955865 58.492004
302 0 1 -2.072868 -11.765925 58.826202
303 0 1 -2.595190 -11.761195 59.613800
304 0 1 -1.736839 -11.283345 59.772491
305 0 1 -2.104198 -10.932414 60.638397
306 0 1 -1.675259 -10.651496 61.442291
307 0 1 -0.799067 -10.880715 61.896088
308 0 1 -0.154873 -10.136695 61.872101
309 0 1 0.534620 -9.704995 61.316101
310 0 1 1.429752 -9.473065 61.588898
311 0 1 2.300571 -9.334214 61.197113
312 0 1 2.194450 -10.209334 60.933594
313 0 1 2.855949 -10.414845 60.204193
314 0 1 3.219193 -11.337893 60.364807
315 0 1 2.369209 -11.469155 60.781097
316 0 1 1.769020 -12.000926 61.323792
317 0 1 1.922310 -12.964244 61.191193
318 0 1 2.793400 -13.412995 61.429688
319 0 1 2.689442 -13.766894 60.479095
320 0 1 2.114559 -14.193395 61.150299
321 0 1 1.619591 -14.762496 60.563812
322 0 1 1.196421 -15.512195 60.069489
323 0 1 1.206612 -15.835595 59.119690
324 0 1 1.131580 -16.717495 58.652100
325 0 1 0.705841 -17.527195 58.843903
326 0 1 0.207472 -18.208996 58.343201
327 0 1 0.385942 -19.160896 58.325592
328 0 1 -0.159124 -19.461895 57.557098
329 0 1 -0.465229 -20.344995 57.393494
330 0 1 -0.089247 -20.768095 56.616608
331 0 1 0.560945 -21.550596 56.428101
332 0 1 0.881950 -21.053896 57.144104
333 0 1 0.436445 -21.857496 57.430115
334 0 1 0.822960 -21.731596 58.292786
335 0 1 1.132950 -22.185696 59.078186
336 0 1 1.771511 -22.366596 58.449890
337 0 1 2.332981 -22.483397 57.690399
338 0 1 2.780422 -23.307997 57.859985
339 0 1 3.173420 -23.905396 58.445709
340 0 1 3.407650 -24.567596 57.819214
341 0 1 3.647350 -25.463196 57.622894
342 0 1 4.454262 -25.563597 58.055298
343 0 1 4.404869 -26.236897 58.727295
344 0 1 3.412621 -26.437197 58.460205
345 0 1 2.454540 -26.011896 58.452393
346 0 1 1.979252 -26.316397 57.705383
347 0 1 1.215832 -25.949596 57.187805
348 0 1 1.878609 -25.280596 57.150513
349 0 1 2.588951 -24.712095 56.863800
350 0 1 1.817650 -24.236397 57.009613
351 0 1 0.899940 -24.372095 57.166199
352 0 1 0.408523 -23.470995 57.349396
353 0 1 -0.295122 -23.602196 56.712585
354 0 1 -1.201183 -23.920095 56.428009
355 0 1 -2.136209 -23.935696 56.662994
356 0 1 -2.905529 -23.475195 56.820587
357 0 1 -3.818850 -23.117996 57.011902
358 0 1 -4.688709 -23.473295 56.868591
359 0 1 -4.670280 -22.539995 56.658386
360 0 1 -4.963249 -22.448296 55.729614
361 0 1 -4.417429 -22.601397 54.938812
362 0 1 -3.641338 -22.159195 54.506104
363 0 1 -3.115389 -22.867796 54.226898
364 0 1 -2.340500 -22.610697 53.706787
365 0 1 -3.080709 -22.360195 53.159393
366 0 1 -3.084518 -21.484797 52.759003
367 0 1 -3.572269 -21.946695 51.957489
368 0 1 -2.693930 -22.142496 51.545715
369 0 1 -2.375299 -21.664396 50.828094
370 0 1 -1.952530 -20.760595 50.935791
371 0 1 -2.387878 -20.969896 51.786407
372 0 1 -3.190399 -20.482395 51.722992
373 0 1 -3.717369 -19.772295 51.222809
374 0 1 -3.990669 -20.041195 50.372192
375 0 1 -3.950190 -19.286396 49.769592
376 0 1 -3.653728 -18.370596 49.482117
377 0 1 -2.907459 -18.785196 49.902008
378 0 1 -3.113140 -18.488295 50.806610
379 0 1 -3.244770 -17.789597 50.145294
380 0 1 -3.183479 -17.341696 51.035004
381 0 1 -4.060780 -16.975496 51.299591
382 0 1 -3.591450 -16.310795 50.787415
383 0 1 -3.881239 -15.900996 49.980499
384 0 1 -3.265839 -16.627296 49.703094
385 0 1 -4.175589 -16.936295 49.552307
386 0 1 -4.845989 -17.676296 49.425690
387 0 1 -5.111990 -18.513895 49.837006
388 0 1 -6.000450 -18.683296 50.079895
389 0 1 -6.484268 -17.871395 49.817902
390 0 1 -6.832710 -17.592396 48.947510
391 0 1 -6.666300 -18.578695 48.779388
392 0 1 -6.609739 -18.091896 47.975891
393 0 1 -6.858839 -17.630997 47.117096
394 0 1 -7.662689 -17.961695 47.467407
395 0 1 -8.580059 -18.101995 47.295288
396 0 1 -9.047749 -18.283796 46.498901
397 0 1 -9.843719 -18.782295 46.487701
398 0 1 -9.740669 -19.292295 45.669403
399 0 1 -9.347111 -20.189896 45.583893
400 0 1 -9.674419 -20.938896 45.026703
401 0 1 -9.392410 -20.714396 44.164185
402 0 1 -9.757038 -19.840296 43.773804
403 0 1 -9.977669 -18.960094 43.487091
404 0 1 -9.905010 -17.975096 43.183594
405 0 1 -9.229538 -17.737297 43.913513
406 0 1 -8.333729 -18.296595 43.912689
407 0 1 -8.262390 -17.602596 43.267517
408 0 1 -7.693369 -17.914696 42.488586
409 0 1 -7.721899 -17.335297 41.622192
410 0 1 -6.828629 -17.346296 41.838013
411 0 1 -5.990570 -17.779797 41.946899
412 0 1 -5.146339 -18.001595 41.552795
413 0 1 -4.939220 -17.333195 42.233398
414 0 1 -4.240950 -18.056896 42.367493
415 0 1 -3.739510 -17.266895 42.220795
416 0 1 -3.733170 -17.480297 43.182587
417 0 1 -4.305080 -17.865795 43.768616
418 0 1 -4.959370 -18.223396 44.390991
419 0 1 -4.839779 -19.212894 44.356293
420 0 1 -5.752789 -19.005995 44.283905
421 0 1 -5.833210 -19.647995 44.992706
422 0 1 -6.087570 -20.364996 44.427704
423 0 1 -5.829330 -21.287695 44.398987
424 0 1 -5.523939 -22.202196 44.307404
425 0 1 -5.227110 -22.101995 43.387299
426 0 1 -4.558460 -21.352896 43.610413
427 0 1 -4.042120 -20.672895 43.125488
428 0 1 -3.315369 -20.351896 42.630402
429 0 1 -2.741379 -21.140995 42.802307
430 0 1 -2.833920 -20.742596 43.658691
431 0 1 -2.379339 -19.875095 43.396393
432 0 1 -2.038509 -19.450796 42.595398
433 0 1 -1.332729 -18.930695 42.993713
434 0 1 -0.669258 -18.859196 42.302704
435 0 1 0.086365 -19.380495 42.613312
436 0 1 0.661661 -19.222195 43.370209
437 0 1 1.311501 -18.565395 43.296509
438 0 1 1.633461 -18.313095 44.187317
439 0 1 1.134111 -19.089396 44.502197
440 0 1 1.252651 -18.983696 45.461487
441 0 1 1.633659 -18.156796 45.212311
442 0 1 2.580120 -18.428495 45.237213
443 0 1 3.401131 -18.558096 45.742401
444 0 1 4.221210 -18.004196 45.916107
445 0 1 3.794979 -17.190996 46.030884
446 0 1 3.989109 -17.175095 46.968994
447 0 1 3.054909 -17.413496 46.819092
448 0 1 2.234871 -16.947796 47.100006
449 0 1 1.612671 -16.861795 46.382294
450 0 1 1.719482 -16.042095 45.890808
451 0 1 2.444202 -15.844394 46.487610
452 0 1 3.276180 -16.091496 46.868988
453 0 1 3.256783 -15.811996 47.821106
454 0 1 2.464542 -16.299995 47.975708
455 0 1 1.468182 -16.329296 48.163910
456 0 1 1.682312 -16.135696 49.049500
457 0 1 1.381042 -16.969696 49.438507
458 0 1 2.303711 -17.314796 49.454285
459 0 1 2.912449 -17.151794 50.183502
460 0 1 3.713612 -16.796597 49.788605
461 0 1 4.126320 -17.689995 49.990784
462 0 1 3.640499 -18.090895 49.157898
463 0 1 4.411720 -18.531296 49.464111
464 0 1 5.178291 -18.352095 48.912598
465 0 1 5.515942 -19.188295 48.594513
466 0 1 4.784302 -19.615496 49.114807
467 0 1 4.432579 -20.155695 49.794891
468 0 1 3.539131 -20.056995 50.158691
469 0 1 2.661022 -20.585495 50.060913
470 0 1 2.464840 -20.038095 49.272095
471 0 1 1.908081 -19.399096 48.756104
472 0 1 2.160221 -18.472095 48.554504
473 0 1 3.075321 -18.541796 48.429504
474 0 1 3.514450 -19.210596 47.905884
475 0 1 4.249321 -19.382095 47.277496
476 0 1 4.905121 -19.994797 47.629608
477 0 1 4.077770 -20.402596 47.523590
478 0 1 3.136391 -20.430996 47.784088
479 0 1 2.200512 -20.630695 47.859100
480 0 1 1.371262 -20.400095 47.402802
481 0 1 1.237061 -19.571396 46.985199
482 0 1 1.429119 -18.665295 47.171692
483 0 1 0.614448 -18.488096 46.585205
484 0 1 0.207558 -17.784496 46.121399
485 0 1 -0.708296 -17.433495 46.599487
486 0 1 -1.161705 -17.328896 47.381195
487 0 1 -1.038288 -16.329996 47.425903
488 0 1 -1.343269 -15.703395 46.748901
489 0 1 -1.187729 -15.342795 47.682800
490 0 1 -0.230780 -15.447295 47.740997
491 0 1 -0.087696 -15.322295 48.710999
492 0 1 -0.397600 -14.424495 48.987915
493 0 1 -1.059235 -13.783595 48.745697
494 0 1 -0.982899 -13.120456 47.998199
495 0 1 -1.902470 -13.496196 48.000000
496 0 1 -1.518169 -13.694194 47.160400
497 0 1 -2.238459 -14.246495 46.642609
498 0 1 -3.125929 -14.515094 46.945587
499 0 1 -3.336590 -13.735595 47.450897
500 0 1 -3.507769 -12.735564 47.419312
501 0 1 -2.903399 -12.364066 46.709290
502 0 1 -3.211609 -11.587935 47.138489
503 0 1 -3.864479 -11.271535 47.808197
504 0 1 -4.712919 -10.841784 48.072815
505 0 1 -4.164000 -10.115306 48.440186
506 0 1 -4.204449 -9.474364 47.711487
507 0 1 -4.254349 -8.647016 48.207397
508 0 1 -3.541759 -8.665395 47.537903
509 0 1 -2.956020 -9.012136 46.729095
510 0 1 -3.167160 -8.527455 45.945709
511 0 1 -3.450310 -7.921825 45.298004
512 0 1 -3.536190 -8.239566 44.433990
513 0 1 -3.913979 -8.240016 43.580811
514 0 1 -3.513300 -7.653615 42.961304
515 0 1 -4.042849 -6.967655 42.396484
516 0 1 -4.830120 -6.834255 41.846497
517 0 1 -5.367668 -7.594165 42.018311
518 0 1 -6.309580 -7.793655 42.062500
519 0 1 -6.370289 -6.878475 41.685791
520 0 1 -7.218990 -6.716495 42.151001
521 0 1 -7.620708 -5.868276 42.535492
522 0 1 -8.025080 -5.010406 42.549011
523 0 1 -7.926779 -5.189235 43.466492
524 0 1 -8.083820 -4.255010 43.415192
525 0 1 -9.032370 -4.328296 43.203003
526 0 1 -9.371849 -3.491098 43.570801
527 0 1 -8.750530 -3.554801 44.291687
528 0 1 -8.439919 -3.805587 45.129517
529 0 1 -8.491409 -4.826156 45.061890
530 0 1 -9.311640 -5.351455 45.130890
531 0 1 -8.837130 -5.162395 46.024292
532 0 1 -8.364590 -4.426565 46.469910
533 0 1 -8.451080 -4.499336 47.452209
534 0 1 -8.462399 -4.148107 48.321716
535 0 1 -9.419628 -4.198347 48.390594
536 0 1 -9.373680 -3.898420 49.329102
537 0 1 -8.932018 -3.083330 49.586212
538 0 1 -9.158329 -2.412090 48.912292
539 0 1 -9.794170 -2.762762 48.274902
540 0 1 -10.653009 -3.111938 48.562683
541 0 1 -11.122009 -3.936277 48.772400
542 0 1 -10.368509 -4.493026 48.400787
543 0 1 -10.322010 -5.411195 48.003510
544 0 1 -10.217220 -6.321926 48.207397
545 0 1 -10.665409 -6.779615 47.438690
546 0 1 -10.594311 -6.796205 46.519409
547 0 1 -10.356308 -6.922636 45.577911
548 0 1 -11.291510 -6.778215 45.527802
549 0 1 -11.553108 -5.925926 45.142700
550 0 1 -10.701010 -5.491106 45.106110
551 0 1 -9.961040 -6.120426 44.783295
552 0 1 -9.523439 -7.007175 44.840698
553 0 1 -9.777269 -7.903446 44.699799
554 0 1 -10.427010 -7.280565 44.301605
555 0 1 -11.063410 -7.699485 44.823700
556 0 1 -11.502911 -8.557734 44.839294
557 0 1 -12.427811 -8.798644 44.541595
558 0 1 -12.126009 -8.147006 43.893097
559 0 1 -11.333611 -8.747285 43.884705
560 0 1 -11.416109 -9.146276 42.953705
561 0 1 -10.627510 -9.579734 42.458099
562 0 1 -10.791510 -10.458064 42.911804
563 0 1 -10.830910 -10.759616 43.845703
564 0 1 -11.763809 -11.167794 43.790894
565 0 1 -12.195910 -11.520286 42.885498
566 0 1 -12.379509 -12.451175 42.625000
567 0 1 -12.751511 -13.348195 42.460815
568 0 1 -13.594810 -13.070476 42.071991
569 0 1 -13.349609 -12.189765 42.273193
570 0 1 -14.217010 -11.823405 42.114105
571 0 1 -14.221909 -12.112864 43.106903
572 0 1 -14.410610 -11.518184 43.867889
573 0 1 -15.265009 -11.378474 44.319397
574 0 1 -16.084610 -10.929866 44.433197
575 0 1 -16.117310 -11.215575 43.509491
576 0 1 -16.621408 -11.165435 42.717987
577 0 1 -16.854609 -10.691735 41.906403
578 0 1 -17.579010 -10.260406 41.442291
579 0 1 -17.513510 -9.335755 41.730713
580 0 1 -16.552608 -9.548236 41.665588
581 0 1 -16.572809 -8.598735 41.475708
582 0 1 -16.664810 -8.080634 40.622009
583 0 1 -16.864710 -7.624576 39.834290
584 0 1 -16.269810 -8.090434 39.264099
585 0 1 -15.392610 -7.786956 39.178406
586 0 1 -15.319510 -7.487815 38.291290
587 0 1 -15.832910 -7.178525 37.528809
588 0 1 -16.080709 -6.469285 36.993591
589 0 1 -16.035810 -5.590385 36.623199
590 0 1 -16.726109 -5.034805 36.957214
591 0 1 -15.888209 -4.639085 37.141907
592 0 1 -15.590309 -4.134607 36.340912
593 0 1 -14.940909 -4.384676 35.689209
594 0 1 -14.706709 -3.786363 34.979187
595 0 1 -14.248310 -4.250101 34.120789
596 0 1 -13.360210 -4.032125 34.303192
597 0 1 -12.744110 -4.787906 34.034607
598 0 1 -12.812109 -5.763696 34.186890
599 0 1 -12.547609 -6.559585 34.666016
600 0 1 -11.649309 -6.696975 34.989410
601 0 1 -10.956610 -6.067346 34.934814
602 0 1 -11.082008 -5.564334 35.691711
603 0 1 -10.108570 -5.884115 35.688995
604 0 1 -9.822701 -5.283845 34.951599
605 0 1 -9.952660 -4.392936 34.608398
606 0 1 -9.984819 -4.394886 33.629608
607 0 1 -9.630409 -4.642475 32.761810
608 0 1 -10.128189 -5.077465 32.039185
609 0 1 -10.260788 -4.124790 31.836792
610 0 1 -10.284439 -4.290056 30.911011
611 0 1 -10.081181 -4.177892 29.986084
612 0 1 -9.957640 -5.172975 29.852203
613 0 1 -9.595509 -6.031305 29.688507
614 0 1 -9.387669 -6.503076 28.826202
615 0 1 -8.854139 -7.288656 28.979401
616 0 1 -9.320728 -7.271905 29.829498
617 0 1 -9.506769 -8.143355 29.494904
618 0 1 -9.430210 -8.945645 29.017792
619 0 1 -9.952330 -9.083564 29.880615
620 0 1 -10.226818 -9.846345 30.408386
621 0 1 -10.830608 -10.577254 30.399689
622 0 1 -11.267809 -9.789704 29.935394
623 0 1 -12.085609 -9.964984 30.362793
624 0 1 -12.306509 -9.440335 29.594116
625 0 1 -12.916710 -9.699515 28.910095
626 0 1 -12.522808 -9.609885 28.025787
627 0 1 -12.106709 -8.880235 27.627502
628 0 1 -12.036209 -8.451205 26.761993
629 0 1 -11.834808 -8.785224 25.899689
630 0 1 -11.563309 -9.729514 25.733612
631 0 1 -11.217709 -10.625926 26.009186
632 0 1 -11.193609 -11.405494 26.520599
633 0 1 -11.027109 -11.017905 27.385803
634 0 1 -11.325211 -11.809125 27.793610
635 0 1 -12.125309 -12.157725 28.186401
636 0 1 -12.898708 -12.682525 28.293793
637 0 1 -12.095509 -13.202565 28.099609
638 0 1 -11.317610 -13.775294 28.156311
639 0 1 -11.676411 -13.933595 27.283997
640 0 1 -12.595310 -14.080995 27.553802
641 0 1 -13.242210 -14.127595 26.779114
642 0 1 -12.799210 -13.483394 26.211090
643 0 1 -12.170710 -13.020274 25.676605
644 0 1 -11.887810 -12.565864 24.846313
645 0 1 -11.002911 -12.088546 24.779114
646 0 1 -10.399410 -11.604495 24.106689
647 0 1 -10.560909 -11.110404 23.340912
648 0 1 -9.622349 -11.150445 23.478516
649 0 1 -8.923538 -10.597365 23.197205
650 0 1 -8.201059 -11.213035 23.220215
651 0 1 -7.903389 -10.590905 22.652313
652 0 1 -7.377708 -11.441646 22.527588
653 0 1 -7.697449 -11.189836 21.570007
654 0 1 -8.146839 -12.019965 21.362305
655 0 1 -7.415239 -12.157975 20.753204
656 0 1 -6.669350 -11.455085 20.908997
657 0 1 -6.084059 -11.162616 20.251099
658 0 1 -7.027140 -11.095635 19.852295
659 0 1 -7.794430 -10.810466 19.451096
660 0 1 -7.792149 -9.846395 19.313599
661 0 1 -7.416000 -9.402265 20.165192
662 0 1 -6.586769 -9.934806 20.248199
663 0 1 -6.673689 -10.075866 19.324402
664 0 1 -6.478220 -9.151795 19.352692
665 0 1 -5.592510 -8.732785 19.225098
666 0 1 -5.279940 -8.101686 18.541595
667 0 1 -6.210239 -8.121245 18.479599
668 0 1 -6.830559 -7.703485 19.101807
669 0 1 -7.178429 -8.129436 19.845505
670 0 1 -7.740049 -8.033444 20.639206
671 0 1 -7.349998 -8.758445 21.060104
672 0 1 -6.634609 -9.392905 21.162704
673 0 1 -5.821749 -9.769675 20.842194
674 0 1 -5.029259 -9.282935 21.022797
675 0 1 -5.029430 -8.965495 21.938599
676 0 1 -4.292278 -9.418694 22.341003
677 0 1 -4.512150 -9.944585 21.602997
678 0 1 -3.950640 -10.721164 21.314804
679 0 1 -3.913769 -10.791366 22.289093
680 0 1 -3.296040 -10.407605 22.935303
681 0 1 -2.407789 -10.113185 23.398010
682 0 1 -2.350569 -9.620845 22.558899
683 0 1 -3.060049 -8.919814 22.750214
684 0 1 -2.765139 -8.124934 23.184814
685 0 1 -2.708359 -7.291606 22.747589
686 0 1 -3.437620 -6.737976 22.626587
687 0 1 -3.920349 -6.910356 21.819305
688 0 1 -4.867430 -7.010126 21.781097
689 0 1 -4.744148 -6.286565 21.131805
690 0 1 -4.061359 -6.556245 20.519806
691 0 1 -3.341200 -7.060165 19.988007
692 0 1 -2.615999 -6.430055 20.137894
693 0 1 -1.895220 -6.599466 19.537292
694 0 1 -2.319080 -6.221786 18.809494
695 0 1 -3.219730 -6.002515 18.536804
696 0 1 -2.755850 -5.555645 17.837494
697 0 1 -1.755039 -5.462026 17.967896
698 0 1 -1.186615 -4.743055 17.679398
699 0 1 -1.324240 -5.021265 16.762405
700 0 1 -1.758890 -5.471305 16.009903
701 0 1 -0.915848 -6.041194 15.831207
702 0 1 -1.504610 -6.846015 15.546402
703 0 1 -2.240768 -6.915765 14.941406
704 0 1 -2.284069 -5.989265 14.536102
705 0 1 -1.449289 -6.013404 14.139801
706 0 1 -1.454910 -5.057186 13.950806
707 0 1 -0.804873 -5.507776 13.460800
708 0 1 -0.196581 -5.846885 12.732895
709 0 1 0.256481 -5.805536 11.918503
710 0 1 0.100973 -4.903776 11.573395
711 0 1 0.203209 -4.139764 11.017197
712 0 1 -0.010149 -3.720926 10.161896
713 0 1 0.863491 -3.418640 10.418701
714 0 1 1.158781 -4.082323 9.833054
715 0 1 0.922541 -4.993906 9.568497
716 0 1 1.691822 -4.660896 8.984146
717 0 1 1.287151 -4.253486 8.195358
718 0 1 1.580330 -3.364233 8.117676
719 0 1 2.146912 -3.417442 7.384583
720 0 1 3.019672 -2.915697 7.229614
721 0 1 3.725449 -2.927001 7.929047
722 0 1 4.003429 -3.695220 8.357040
723 0 1 4.214642 -2.938818 8.973679
724 0 1 3.628540 -2.639057 9.698029
725 0 1 3.980301 -1.876485 9.180878
726 0 1 3.987549 -1.096046 8.515533
727 0 1 3.543831 -0.965095 9.328979
728 0 1 4.371929 -0.428096 9.191605
729 0 1 4.651031 -1.097564 9.852203
730 0 1 5.456051 -0.549266 9.785004
731 0 1 5.598183 -1.159255 10.524796
732 0 1 5.853550 -1.578224 11.374802
733 0 1 6.736790 -1.289813 11.410202
734 0 1 7.495861 -1.464774 12.052795
735 0 1 8.233181 -0.856075 12.117599
736 0 1 8.551060 -0.872867 13.046600
737 0 1 7.684719 -0.419376 13.042908
738 0 1 7.908791 0.320305 13.632996
739 0 1 8.452801 1.025525 13.160095
740 0 1 8.305290 0.949624 12.171494
741 0 1 7.670769 1.408074 11.558899
742 0 1 6.934601 0.899346 11.701508
743 0 1 7.300369 1.256375 12.525803
744 0 1 6.318501 1.521435 12.362305
745 0 1 5.873192 2.231175 12.781799
746 0 1 5.561409 2.524865 13.669998
747 0 1 4.932449 3.308854 13.762497
748 0 1 5.048080 4.051533 13.127808
749 0 1 4.085541 4.220433 13.127304
750 0 1 3.329639 4.235154 12.517303
751 0 1 2.855690 4.958294 11.997803
752 0 1 3.214512 4.896367 11.071503
753 0 1 3.620312 4.011525 11.282593
754 0 1 2.714920 3.612973 11.188202
755 0 1 2.343372 3.984204 12.013199
756 0 1 1.372341 3.759274 12.160599
757 0 1 0.546036 4.288785 12.051498
758 0 1 1.380772 4.789814 12.182205
759 0 1 0.980001 5.330075 11.437195
760 0 1 0.393217 5.483563 12.173004
761 0 1 -0.373404 5.839455 11.617798
762 0 1 -0.860224 6.271435 12.319794
763 0 1 -0.313486 6.995606 12.566696
764 0 1 -1.009750 6.774907 13.186905
765 0 1 -0.736864 6.389737 14.030701
766 0 1 -0.871363 6.974904 14.859802
767 0 1 -1.086313 6.402924 15.638596
768 0 1 -1.553759 5.552235 15.689697
769 0 1 -0.899292 5.481736 14.934296
770 0 1 -1.148603 4.590947 15.173599
771 0 1 -1.461140 4.257985 16.021606
772 0 1 -1.838089 3.713887 16.727203
773 0 1 -1.769459 2.878514 17.174408
774 0 1 -2.797749 2.664914 17.173004
775 0 1 -3.497410 3.055165 17.701096
776 0 1 -3.496830 3.756684 16.978302
777 0 1 -4.370449 3.545704 16.691498
778 0 1 -5.023149 4.205983 16.331894
779 0 1 -5.749260 4.861775 16.268707
780 0 1 -6.632080 5.143696 16.477905
781 0 1 -6.379688 6.131485 16.549805
782 0 1 -6.492950 5.739525 17.432007
783 0 1 -5.810919 5.150326 17.753998
784 0 1 -5.046249 5.198075 17.075302