LAMMPS data file via MDAnalysis

        2000  atoms
        1999  bonds
           0  angles
           0  dihedrals
           0  impropers

           1  atom types
           1  bond types
           0  angle types
           0  dihedral types
           0  improper types

-30.5 30.5 xlo xhi
-30.5 30.5 ylo yhi
-233.5 233.5 zlo zhi


Masses

1 1.000000

Atoms

1 0 1 -3.909769 -7.056461 54.431396
2 0 1 -3.897480 -7.772259 53.792511
3 0 1 -4.414829 -8.569859 54.017883
4 0 1 -5.435600 -8.612860 53.805786
5 0 1 -6.323120 -8.572960 53.427399
6 0 1 -7.263100 -8.286360 53.632904
7 0 1 -7.983799 -7.825859 54.103607
8 0 1 -8.209099 -8.168461 54.991516
9 0 1 -7.452400 -8.564861 55.499084
10 0 1 -7.802500 -9.341660 55.877014
11 0 1 -7.687698 -10.042660 56.582886
12 0 1 -8.622101 -10.143160 56.846588
13 0 1 -9.290199 -9.459360 56.889496
14 0 1 -9.534000 -8.847759 57.676605
15 0 1 -9.749001 -8.181660 58.301697
16 0 1 -9.061699 -7.592659 58.578003
17 0 1 -8.744200 -7.791759 59.488403
18 0 1 -9.122200 -6.937660 59.652588
19 0 1 -8.460701 -6.262560 59.595306
20 0 1 -7.567200 -6.491161 59.720398
21 0 1 -6.832100 -5.847860 59.761505
22 0 1 -6.266708 -6.622059 59.700806
23 0 1 -5.729408 -5.931360 60.187195
24 0 1 -5.201839 -6.257160 59.439209
25 0 1 -4.593760 -6.156160 60.200500
26 0 1 -3.787659 -6.620260 60.045593
27 0 1 -3.836210 -7.441860 60.526794
28 0 1 -4.010620 -7.660360 61.504608
29 0 1 -3.586288 -8.466560 61.804199
30 0 1 -3.068369 -9.236961 61.413513
31 0 1 -3.031689 -9.131260 62.404907
32 0 1 -3.003210 -8.662060 63.239502
33 0 1 -3.260809 -9.610360 63.381989
34 0 1 -3.150030 -10.386360 62.809814
35 0 1 -3.036671 -10.524060 61.854706
36 0 1 -3.154739 -11.503759 62.024994
37 0 1 -2.890179 -12.325859 62.453186
38 0 1 -2.127480 -12.665859 61.932404
39 0 1 -1.570809 -13.411760 61.617798
40 0 1 -1.811390 -14.205860 62.160492
41 0 1 -1.443319 -14.494659 62.979492
42 0 1 -1.973379 -13.732460 63.325012
43 0 1 -1.455050 -13.023560 62.937500
44 0 1 -1.143129 -12.640360 63.780090
45 0 1 -0.430460 -13.221260 63.918091
46 0 1 0.416340 -13.646759 63.592102
47 0 1 1.285931 -13.034060 63.666901
48 0 1 0.964531 -12.173059 63.650787
49 0 1 0.152460 -11.958059 64.175903
50 0 1 0.478290 -11.050760 64.323608
51 0 1 1.211830 -10.814660 63.657806
52 0 1 1.416250 -10.927460 62.709808
53 0 1 0.801691 -10.409560 62.073608
54 0 1 1.063930 -9.631560 61.546387
55 0 1 1.669411 -10.235960 61.191498
56 0 1 1.869346 -9.837360 60.312317
57 0 1 2.390478 -10.699260 60.230286
58 0 1 2.436775 -11.453560 59.586304
59 0 1 2.523149 -12.341360 59.800995
60 0 1 3.183445 -12.233860 60.455505
61 0 1 3.141136 -11.895260 61.436890
62 0 1 2.546915 -12.230360 62.122192
63 0 1 2.010754 -13.021160 62.076904
64 0 1 2.031494 -13.058861 61.101593
65 0 1 2.802277 -13.674061 60.938507
66 0 1 2.988611 -13.816660 59.955292
67 0 1 2.395016 -14.589260 59.744293
68 0 1 2.037769 -14.959160 58.890991
69 0 1 1.518530 -15.170259 59.675995
70 0 1 0.890030 -15.846560 59.457489
71 0 1 0.555180 -16.736860 59.450409
72 0 1 0.962240 -17.159260 58.693604
73 0 1 0.266811 -17.742460 58.934906
74 0 1 -0.089960 -18.632360 58.990784
75 0 1 -0.461590 -19.425159 59.389893
76 0 1 0.321880 -20.069361 59.384216
77 0 1 1.242401 -20.038260 59.784393
78 0 1 1.816061 -20.794359 59.496704
79 0 1 2.095581 -21.302959 58.684296
80 0 1 2.703518 -20.493860 58.616516
81 0 1 3.283133 -21.141060 58.239685
82 0 1 4.139820 -21.192160 58.740997
83 0 1 4.212471 -21.990761 58.225006
84 0 1 4.463921 -21.561060 57.396606
85 0 1 4.821552 -22.253559 56.867615
86 0 1 3.958761 -22.500259 56.465912
87 0 1 3.176195 -23.084259 56.349396
88 0 1 2.669847 -22.266661 56.083984
89 0 1 2.049364 -21.476360 55.919098
90 0 1 2.570711 -20.884859 56.552704
91 0 1 2.177496 -20.181061 57.254395
92 0 1 2.165266 -19.490561 56.583313
93 0 1 1.683800 -18.805660 56.151703
94 0 1 0.783041 -19.071960 55.832886
95 0 1 0.237570 -18.484261 56.393616
96 0 1 0.016901 -17.615959 56.737915
97 0 1 0.373911 -18.199060 57.441589
98 0 1 0.572121 -19.089159 57.637909
99 0 1 1.270470 -19.680759 57.765106
100 0 1 1.899670 -19.264059 58.297211
101 0 1 2.244158 -18.388060 58.214691
102 0 1 1.527340 -18.478359 57.589996
103 0 1 1.954655 -17.867060 56.933105
104 0 1 2.018446 -16.906460 56.919708
105 0 1 2.972633 -17.247259 56.883209
106 0 1 3.476357 -16.546261 57.300690
107 0 1 3.467888 -15.761560 56.772217
108 0 1 3.448446 -16.156860 55.949402
109 0 1 3.688744 -15.245260 55.825989
110 0 1 4.590649 -15.112761 55.508484
111 0 1 4.917381 -14.826361 54.624908
112 0 1 4.418949 -14.033859 54.827789
113 0 1 4.251801 -13.765760 53.927185
114 0 1 3.877470 -14.559460 53.464691
115 0 1 3.620499 -14.954060 52.577515
116 0 1 3.112364 -15.700859 52.323303
117 0 1 2.804396 -16.231560 51.500793
118 0 1 1.992233 -16.261259 50.988403
119 0 1 1.236690 -16.030359 50.453491
120 0 1 0.931890 -15.172560 50.773804
121 0 1 0.232071 -15.879259 50.690613
122 0 1 -0.637850 -15.510860 50.929688
123 0 1 -1.397080 -15.816860 51.406189
124 0 1 -0.934670 -15.131460 51.861389
125 0 1 -0.632729 -14.221661 51.948395
126 0 1 -1.258141 -14.311060 51.144592
127 0 1 -2.156200 -14.633760 51.027588
128 0 1 -2.556179 -15.423059 51.437683
129 0 1 -2.903090 -16.317060 51.713806
130 0 1 -3.420010 -17.099159 51.442505
131 0 1 -3.325779 -16.614059 50.595490
132 0 1 -4.145720 -16.477261 50.213287
133 0 1 -3.695030 -17.221760 49.654999
134 0 1 -2.933069 -17.762960 49.934113
135 0 1 -3.123480 -18.654060 50.140991
136 0 1 -2.288969 -18.941860 50.463684
137 0 1 -1.423800 -19.030159 50.853790
138 0 1 -0.861031 -18.626760 50.263916
139 0 1 -0.577810 -17.805861 50.779297
140 0 1 -0.047989 -17.313860 50.213806
141 0 1 0.271999 -18.079760 49.731201
142 0 1 0.281139 -19.110760 49.905487
143 0 1 0.289400 -19.660561 50.791412
144 0 1 0.101440 -20.401360 50.194000
145 0 1 0.556700 -20.985161 49.576294
146 0 1 0.557571 -20.704660 48.639008
147 0 1 1.461040 -20.975660 48.654510
148 0 1 1.151720 -21.848459 48.597992
149 0 1 0.278721 -21.793961 48.211700
150 0 1 0.566410 -21.794260 47.333801
151 0 1 0.087580 -22.043360 46.560303
152 0 1 0.435020 -21.965460 45.662415
153 0 1 0.422560 -22.832260 45.363892
154 0 1 0.020561 -22.494360 44.585693
155 0 1 0.719931 -22.330259 43.950897
156 0 1 0.959591 -21.624359 43.376007
157 0 1 1.078180 -21.277161 42.523193
158 0 1 0.864891 -20.469959 42.953796
159 0 1 1.132210 -19.561760 43.042297
160 0 1 1.421671 -18.699360 43.108612
161 0 1 1.770231 -17.869659 43.450989
162 0 1 0.946331 -17.388559 43.336212
163 0 1 1.362270 -16.773960 42.741516
164 0 1 1.171951 -15.882660 42.643188
165 0 1 0.316830 -15.913260 42.099396
166 0 1 0.937401 -16.473560 41.491394
167 0 1 1.009861 -16.765459 40.528198
168 0 1 0.122250 -16.994261 40.783508
169 0 1 0.194050 -16.039560 40.923798
170 0 1 0.042480 -15.164261 40.562103
171 0 1 0.554020 -14.947161 41.354706
172 0 1 1.121240 -14.146759 41.519012
173 0 1 1.227701 -13.706360 40.660400
174 0 1 1.306610 -12.802959 40.440002
175 0 1 2.066526 -12.899361 41.029602
176 0 1 3.020523 -12.679960 41.016998
177 0 1 3.853451 -13.120260 40.721710
178 0 1 4.065130 -13.505159 41.581207
179 0 1 4.920502 -14.008659 41.412994
180 0 1 5.078030 -14.887560 41.256287
181 0 1 5.957970 -14.785360 40.904114
182 0 1 6.004780 -14.979660 39.914917
183 0 1 6.584412 -15.700159 40.139313
184 0 1 7.109249 -16.233259 39.566284
185 0 1 6.384689 -16.884060 39.641998
186 0 1 6.538052 -16.641960 38.732391
187 0 1 6.039101 -17.380360 38.285583
188 0 1 5.147362 -17.579960 38.552704
189 0 1 4.667191 -17.203461 39.303009
190 0 1 4.749599 -16.583361 40.098816
191 0 1 4.023291 -16.129459 40.528809
192 0 1 3.150799 -16.402660 40.331604
193 0 1 2.630165 -16.969660 39.752594
194 0 1 1.677130 -16.918760 39.663300
195 0 1 1.455040 -16.643761 38.775513
196 0 1 1.782863 -17.347059 38.229309
197 0 1 2.498812 -17.752760 37.733887
198 0 1 3.172739 -17.526060 37.043091
199 0 1 3.481630 -16.597059 37.209106
200 0 1 4.155951 -15.855160 37.338501
201 0 1 4.850330 -16.236361 36.823700
202 0 1 5.718071 -15.998760 36.411804
203 0 1 6.123062 -16.074360 37.291504
204 0 1 7.165081 -16.004160 37.411102
205 0 1 7.646000 -16.255760 36.662292
206 0 1 8.505161 -15.946461 36.477600
207 0 1 8.710201 -16.238560 35.542908
208 0 1 8.459362 -16.511259 34.648712
209 0 1 7.778511 -16.922859 34.064392
210 0 1 6.970692 -17.246559 34.593689
211 0 1 6.151958 -16.938459 34.170105
212 0 1 6.549160 -16.140560 34.476105
213 0 1 6.963791 -15.680759 33.742493
214 0 1 6.581589 -15.980261 32.988800
215 0 1 6.685120 -16.858660 32.589813
216 0 1 6.605190 -16.409060 31.728212
217 0 1 6.524052 -16.941660 30.882601
218 0 1 5.552540 -17.021660 30.486208
219 0 1 5.459942 -16.876060 29.578890
220 0 1 6.119240 -17.188761 28.987093
221 0 1 6.832809 -17.532560 29.487001
222 0 1 6.968491 -16.607660 29.826296
223 0 1 7.964401 -16.453960 29.582491
224 0 1 8.748112 -15.930161 29.422487
225 0 1 9.740299 -15.987961 29.595003
226 0 1 9.331322 -15.249460 30.032198
227 0 1 8.822979 -14.508160 30.217287
228 0 1 8.526859 -13.619160 30.168398
229 0 1 8.258949 -14.034660 31.013796
230 0 1 8.179352 -13.557859 31.874788
231 0 1 9.018669 -13.175060 31.579103
232 0 1 9.655930 -12.474260 31.579195
233 0 1 9.916302 -12.258860 32.471497
234 0 1 9.768509 -11.445061 32.024994
235 0 1 9.657330 -10.937160 31.276613
236 0 1 10.652451 -10.981560 31.110415
237 0 1 11.265362 -10.502460 31.635408
238 0 1 11.810661 -11.211960 31.869814
239 0 1 12.684528 -11.731359 31.868593
240 0 1 13.510899 -11.943859 32.304504
241 0 1 14.105499 -12.464060 32.816803
242 0 1 14.653301 -11.921860 33.369812
243 0 1 15.212601 -12.116859 32.544006
244 0 1 15.330502 -12.395861 31.598513
245 0 1 16.086498 -12.956659 31.889498
246 0 1 16.026699 -13.585560 32.634094
247 0 1 15.658401 -14.290260 33.153900
248 0 1 16.251102 -14.703360 32.518311
249 0 1 17.151798 -14.508860 32.501404
250 0 1 17.578098 -15.369560 32.437317
251 0 1 18.420601 -15.343559 33.009003
252 0 1 19.155003 -15.514360 32.460297
253 0 1 19.669102 -15.376360 31.660097
254 0 1 19.493999 -16.198959 31.341188
255 0 1 19.577000 -16.927460 31.939913
256 0 1 19.679600 -17.895861 31.815615
257 0 1 19.834400 -18.885860 32.035706
258 0 1 19.005600 -18.681360 31.673311
259 0 1 18.280003 -18.980261 31.058016
260 0 1 17.597698 -19.678061 30.870516
261 0 1 16.879902 -19.549160 30.219912
262 0 1 16.194302 -18.969160 30.504396
263 0 1 15.852100 -18.363661 29.881014
264 0 1 15.853298 -18.933060 29.076601
265 0 1 15.617298 -18.047159 28.820192
266 0 1 16.535000 -18.038860 28.534609
267 0 1 17.260601 -17.385660 28.655092
268 0 1 18.193401 -17.470261 28.542604
269 0 1 19.106800 -17.278860 28.305391
270 0 1 19.938400 -17.789560 27.988588
271 0 1 20.066601 -18.716259 27.796511
272 0 1 19.359303 -18.280560 27.261415
273 0 1 19.536800 -19.085360 26.851290
274 0 1 18.683102 -18.778259 26.499208
275 0 1 18.295601 -18.035660 26.001894
276 0 1 18.071701 -17.788361 25.022707
277 0 1 17.802799 -17.488661 24.143404
278 0 1 18.175400 -16.615761 24.192110
279 0 1 17.256599 -16.450960 24.104311
280 0 1 17.216202 -16.449659 23.139406
281 0 1 16.977802 -16.363859 22.212008
282 0 1 16.013302 -16.414459 22.046007
283 0 1 15.376499 -15.719660 22.002703
284 0 1 15.092201 -14.754360 21.876299
285 0 1 15.856300 -14.183559 21.606508
286 0 1 15.351700 -13.560860 21.107698
287 0 1 14.884701 -12.736361 21.386705
288 0 1 15.712601 -12.222059 21.495897
289 0 1 16.453999 -11.965361 20.963900
290 0 1 16.192001 -11.326260 20.331209
291 0 1 17.085701 -10.988960 20.245607
292 0 1 17.971100 -10.885760 20.714296
293 0 1 18.110699 -11.417660 19.861910
294 0 1 17.313602 -11.593861 19.414598
295 0 1 17.918301 -10.990360 18.784105
296 0 1 17.922001 -10.263360 19.409807
297 0 1 17.548302 -9.425560 19.683702
298 0 1 16.919498 -9.385960 20.375399
299 0 1 15.989399 -9.606260 20.137606
300 0 1 15.800301 -9.342461 21.022799
301 0 1 14.905102 -9.470459 20.765200
302 0 1 14.198002 -10.151660 20.929796
303 0 1 13.901199 -11.087660 20.835405
304 0 1 13.053902 -11.272060 20.376406
305 0 1 13.500698 -10.999760 19.494204
306 0 1 13.436199 -10.533360 18.654406
307 0 1 13.503799 -11.255960 18.045809
308 0 1 13.118603 -10.642760 17.373507
309 0 1 12.960400 -11.622061 17.168795
310 0 1 13.378399 -12.413460 16.893999
311 0 1 12.660660 -12.936159 16.430910
312 0 1 11.842690 -12.899260 16.929506
313 0 1 11.252281 -12.328060 17.343508
314 0 1 11.011272 -12.510160 18.257204
315 0 1 10.483990 -11.738260 18.570696
316 0 1 10.190712 -12.024361 19.539705
317 0 1 9.511650 -11.298059 19.382402
318 0 1 8.708519 -11.617661 19.210604
319 0 1 8.478142 -10.695260 19.494204
320 0 1 8.173920 -9.998160 20.122194
321 0 1 8.165710 -9.670560 19.235109
322 0 1 8.649311 -8.984959 19.885805
323 0 1 9.294899 -9.752360 20.295504
324 0 1 9.251900 -10.375060 21.009706
325 0 1 9.053280 -10.804160 21.827501
326 0 1 9.004841 -11.689159 21.477404
327 0 1 8.672001 -12.572161 21.538897
328 0 1 7.853500 -12.599260 21.090303
329 0 1 7.570450 -11.718260 21.462206
330 0 1 6.775372 -11.610559 20.910295
331 0 1 6.198811 -12.060160 20.239901
332 0 1 6.381390 -12.641960 20.950304
333 0 1 5.512760 -12.819260 21.373903
334 0 1 5.872910 -12.009460 21.668596
335 0 1 4.985271 -11.691460 22.020205
336 0 1 5.669052 -11.209660 22.430803
337 0 1 6.188290 -10.420060 22.771212
338 0 1 5.774540 -9.704360 23.218691
339 0 1 4.942879 -9.801260 23.636110
340 0 1 4.229900 -10.118160 24.190889
341 0 1 3.618542 -10.851560 24.455294
342 0 1 3.225283 -11.619261 23.978701
343 0 1 2.841574 -11.090960 23.285402
344 0 1 2.088390 -11.692261 23.295412
345 0 1 1.565401 -11.056660 22.841005
346 0 1 1.415930 -10.234060 22.403200
347 0 1 0.608290 -9.919760 22.899813
348 0 1 0.618771 -9.053959 22.573000
349 0 1 -0.095789 -9.390560 22.089006
350 0 1 -1.039681 -9.114559 22.027208
351 0 1 -0.900509 -8.606461 22.774813
352 0 1 -1.541069 -9.222260 23.190310
353 0 1 -1.529190 -8.380260 23.665194
354 0 1 -0.871000 -7.735260 23.905092
355 0 1 -0.715410 -7.398460 24.857302
356 0 1 -0.374920 -6.867859 25.544802
357 0 1 -1.312389 -7.112560 25.758486
358 0 1 -2.143000 -6.697559 25.680513
359 0 1 -2.437160 -5.767160 25.645113
360 0 1 -1.993250 -5.666359 26.581606
361 0 1 -2.414770 -4.942341 27.152010
362 0 1 -2.347719 -5.361259 28.044497
363 0 1 -1.696449 -5.435261 28.790895
364 0 1 -1.884850 -6.296560 28.374086
365 0 1 -1.868879 -6.890461 27.615297
366 0 1 -2.525249 -7.470060 27.260012
367 0 1 -2.898199 -6.756660 27.605410
368 0 1 -3.436619 -7.098461 26.872499
369 0 1 -4.320410 -6.784859 26.648012
370 0 1 -4.590031 -6.012859 26.026308
371 0 1 -4.982140 -5.617161 26.837404
372 0 1 -5.498711 -4.839859 26.964205
373 0 1 -5.009880 -4.189781 27.594606
374 0 1 -4.094601 -4.441269 27.792299
375 0 1 -4.213921 -4.433239 28.807405
376 0 1 -3.394640 -3.965530 28.705111
377 0 1 -3.231550 -3.089720 29.001009
378 0 1 -2.325930 -3.365820 28.851290
379 0 1 -1.729620 -3.119350 28.129396
380 0 1 -2.633749 -3.213211 27.819002
381 0 1 -3.415030 -2.998689 27.304598
382 0 1 -3.639460 -2.095279 27.397005
383 0 1 -4.414660 -2.166160 28.018496
384 0 1 -5.001230 -1.358459 28.012300
385 0 1 -4.909981 -0.813150 28.802614
386 0 1 -5.568390 -0.568451 29.438997
387 0 1 -6.102970 -0.025230 30.072908
388 0 1 -6.969780 -0.306690 30.345400
389 0 1 -6.774220 0.475741 30.763491
390 0 1 -6.642679 0.615410 31.667696
391 0 1 -5.871790 0.504589 32.363098
392 0 1 -5.929569 -0.044870 33.094910
393 0 1 -5.964588 -1.042700 32.976410
394 0 1 -5.567690 -1.110359 33.816284
395 0 1 -5.950319 -0.491581 34.473816
396 0 1 -5.767679 -1.158470 35.090210
397 0 1 -4.907360 -0.932060 35.493195
398 0 1 -4.515789 -1.779079 35.676788
399 0 1 -4.106329 -2.488069 36.263184
400 0 1 -3.534599 -2.945890 35.601410
401 0 1 -2.650690 -2.579309 35.594696
402 0 1 -2.885740 -2.229061 36.470490
403 0 1 -2.874550 -2.376730 37.549896
404 0 1 -1.943569 -1.959490 37.498596
405 0 1 -2.691959 -1.402481 37.670197
406 0 1 -2.501030 -1.556169 38.618713
407 0 1 -3.035069 -1.133150 39.271088
408 0 1 -3.419621 -0.455959 39.760803
409 0 1 -4.086201 0.138481 39.237213
410 0 1 -4.900690 -0.316810 38.862396
411 0 1 -5.841679 -0.299570 38.997803
412 0 1 -6.748859 0.100760 39.145386
413 0 1 -6.984180 0.959570 38.674103
414 0 1 -6.069191 0.905600 38.414307
415 0 1 -5.429699 0.964081 39.182098
416 0 1 -5.280140 1.571520 39.910583
417 0 1 -4.971699 1.131960 40.737793
418 0 1 -4.446899 0.684300 40.174988
419 0 1 -4.060240 1.304560 39.587799
420 0 1 -3.125130 1.315081 39.644287
421 0 1 -2.651989 1.210510 40.518494
422 0 1 -2.550690 0.415310 39.903900
423 0 1 -2.049561 0.007931 39.219788
424 0 1 -1.385519 0.209311 38.475098
425 0 1 -1.383610 1.141051 38.639191
426 0 1 -2.012850 1.788201 39.050690
427 0 1 -1.866900 1.086920 39.729095
428 0 1 -0.911520 1.086870 39.594299
429 0 1 -0.064930 1.078770 40.241516
430 0 1 0.120260 1.932381 39.878510
431 0 1 0.811270 2.416960 39.540100
432 0 1 1.286970 1.671610 39.163300
433 0 1 1.272301 1.269810 38.337799
434 0 1 2.077736 0.981449 38.906799
435 0 1 2.843431 0.512520 38.522308
436 0 1 2.998343 -0.436081 38.531708
437 0 1 2.542782 -0.686170 37.721802
438 0 1 3.348223 -0.810949 37.271088
439 0 1 2.923031 -1.703199 37.226990
440 0 1 2.635809 -1.906811 36.220093
441 0 1 2.699144 -1.980480 35.269104
442 0 1 1.866156 -2.482429 35.370789
443 0 1 2.498857 -3.227001 35.211914
444 0 1 3.346476 -2.834221 34.874817
445 0 1 3.804150 -3.581230 35.274689
446 0 1 4.622131 -4.124279 35.193298
447 0 1 4.817902 -3.695591 36.061493
448 0 1 4.828571 -4.390800 36.714203
449 0 1 5.511940 -4.981810 36.431305
450 0 1 5.720009 -4.874771 37.331909
451 0 1 5.328480 -5.015461 38.205292
452 0 1 4.964901 -5.967861 37.954010
453 0 1 4.500671 -6.110661 38.883484
454 0 1 4.611519 -6.941360 39.405884
455 0 1 5.423939 -7.158060 38.870392
456 0 1 6.228302 -7.437561 39.239807
457 0 1 6.589272 -7.584461 38.405212
458 0 1 6.726921 -6.862560 37.763702
459 0 1 7.641628 -7.153660 37.633606
460 0 1 7.376930 -7.799660 37.010590
461 0 1 7.375370 -7.467760 36.081299
462 0 1 7.244011 -6.556061 36.333588
463 0 1 7.428860 -5.771460 35.810089
464 0 1 6.579880 -5.934959 35.417999
465 0 1 6.531910 -5.848061 34.432190
466 0 1 7.171860 -5.624359 33.765900
467 0 1 6.539562 -4.900219 33.919495
468 0 1 7.187660 -4.726929 34.522583
469 0 1 7.178772 -3.797611 34.022491
470 0 1 7.279720 -3.109501 34.661499
471 0 1 8.085030 -2.606689 34.378998
472 0 1 8.828381 -3.237350 34.107117
473 0 1 8.547192 -3.553699 33.230804
474 0 1 8.003262 -4.332249 33.589508
475 0 1 8.271702 -4.998940 32.922089
476 0 1 8.084980 -4.861460 31.973818
477 0 1 7.643501 -4.202250 31.531099
478 0 1 7.408031 -5.105259 31.266695
479 0 1 7.505470 -5.881960 30.723909
480 0 1 6.944462 -6.586660 30.876314
481 0 1 6.567089 -7.373760 30.323793
482 0 1 6.133110 -7.883759 29.576509
483 0 1 5.988071 -7.276161 28.861513
484 0 1 5.271862 -7.604860 28.272799
485 0 1 4.438892 -7.731760 27.797609
486 0 1 3.505354 -7.762360 27.352694
487 0 1 3.846380 -8.509861 26.922396
488 0 1 4.755970 -8.544159 27.244905
489 0 1 5.537609 -8.127060 26.876894
490 0 1 4.811409 -7.517160 26.620607
491 0 1 4.066290 -6.948160 26.836000
492 0 1 4.065639 -6.714560 25.899904
493 0 1 3.191786 -6.619160 25.388308
494 0 1 3.226879 -7.612659 25.152407
495 0 1 3.891310 -7.509060 24.446413
496 0 1 3.817150 -6.567860 24.408693
497 0 1 4.013990 -6.252560 23.428804
498 0 1 3.179104 -6.001160 23.705812
499 0 1 2.701202 -5.391560 23.170900
500 0 1 2.914165 -6.069759 22.497301
501 0 1 3.003891 -6.819859 21.932405
502 0 1 3.891190 -6.719160 22.286409
503 0 1 4.664772 -6.637060 21.685610
504 0 1 5.228470 -7.381561 21.873796
505 0 1 6.119850 -7.606060 22.045305
506 0 1 6.843552 -7.349461 21.421495
507 0 1 7.734612 -7.276360 21.715700
508 0 1 7.870110 -6.548460 21.017504
509 0 1 8.400768 -5.772060 20.992098
510 0 1 8.009399 -5.002560 20.507708
511 0 1 7.716911 -4.105860 20.283907
512 0 1 7.278561 -4.232719 21.121202
513 0 1 7.527470 -3.484110 21.591600
514 0 1 6.955730 -2.718309 21.405306
515 0 1 7.568840 -2.491510 20.734102
516 0 1 8.129070 -2.154150 21.440004
517 0 1 8.276882 -1.443180 20.872408
518 0 1 8.436352 -0.956501 20.074007
519 0 1 7.916710 -0.298210 20.558809
520 0 1 7.257759 0.395050 20.371706
521 0 1 7.001339 0.403380 19.487200
522 0 1 7.525211 0.528801 18.601198
523 0 1 7.140999 0.643170 17.727404
524 0 1 6.904770 1.255350 17.054903
525 0 1 7.798271 0.985831 16.796907
526 0 1 8.001850 1.569510 16.054903
527 0 1 7.476791 1.161289 15.379106
528 0 1 6.744789 1.187201 14.818604
529 0 1 6.001091 1.700451 15.137803
530 0 1 5.941330 1.528250 16.123796
531 0 1 5.049969 1.630001 16.314608
532 0 1 5.545460 2.447769 16.070406
533 0 1 6.199940 2.985701 16.499910
534 0 1 6.964859 2.666281 15.881608
535 0 1 7.578812 2.925961 15.177796
536 0 1 7.421070 3.641880 15.807603
537 0 1 7.097492 4.489080 15.363404
538 0 1 6.375751 5.215977 15.494096
539 0 1 6.390331 4.665846 16.303102
540 0 1 5.969082 5.413328 16.763796
541 0 1 5.696392 5.721731 17.629107
542 0 1 5.266159 5.968395 18.461397
543 0 1 5.215832 5.056023 18.810900
544 0 1 5.596561 4.371405 18.253405
545 0 1 5.330532 3.610890 17.718294
546 0 1 4.469170 4.144196 17.820604
547 0 1 4.823849 4.313423 16.940599
548 0 1 4.664669 5.265240 17.101809
549 0 1 3.950300 5.235077 16.504702
550 0 1 4.508041 6.095091 16.581896
551 0 1 3.657795 6.325340 16.327806
552 0 1 2.783655 6.712448 16.568697
553 0 1 1.875374 7.177700 16.703203
554 0 1 1.827398 7.953220 17.316408
555 0 1 0.976961 8.413830 17.327608
556 0 1 0.020351 8.455681 17.385408
557 0 1 -0.464140 7.573681 17.395601
558 0 1 -0.566280 6.650639 17.391298
559 0 1 -1.411629 6.457541 17.770510
560 0 1 -2.373129 6.648209 17.812700
561 0 1 -2.780260 7.521690 17.774401
562 0 1 -3.324429 8.153831 18.230700
563 0 1 -3.885090 8.898579 18.204103
564 0 1 -3.946999 9.176750 19.090609
565 0 1 -4.849670 9.477680 19.257601
566 0 1 -4.783379 10.484100 19.025301
567 0 1 -5.432758 11.135139 19.099199
568 0 1 -5.653500 11.100300 18.116106
569 0 1 -4.923250 11.730251 17.933702
570 0 1 -4.800169 12.553600 18.366304
571 0 1 -4.135639 12.878860 18.966097
572 0 1 -3.610220 13.303391 18.271502
573 0 1 -4.435280 13.693371 18.047808
574 0 1 -4.094460 14.624992 18.142107
575 0 1 -3.768959 15.100342 18.895510
576 0 1 -3.416161 15.763439 18.316698
577 0 1 -2.931999 16.373539 17.822298
578 0 1 -2.263060 17.086239 17.809694
579 0 1 -2.380180 16.883141 18.768007
580 0 1 -2.123850 17.813839 18.987307
581 0 1 -2.346769 18.723339 18.552309
582 0 1 -2.188850 19.057541 19.407106
583 0 1 -2.805540 19.030140 20.121798
584 0 1 -2.206949 18.680038 20.798998
585 0 1 -1.573269 18.028240 20.527208
586 0 1 -1.891510 17.852242 21.398500
587 0 1 -1.687500 18.373440 22.117601
588 0 1 -1.725680 18.743141 23.091188
589 0 1 -2.624821 19.075039 23.146791
590 0 1 -3.312300 19.658142 22.842196
591 0 1 -4.270390 19.433739 22.919191
592 0 1 -4.163830 19.831440 22.036409
593 0 1 -4.021919 19.564541 21.129107
594 0 1 -4.889780 19.412941 20.722307
595 0 1 -5.393250 20.190239 20.428606
596 0 1 -4.823969 20.981041 20.411501
597 0 1 -3.981039 20.524040 20.610003
598 0 1 -3.246990 20.862541 21.164904
599 0 1 -3.336729 21.827942 21.401903
600 0 1 -3.813000 22.702042 21.590502
601 0 1 -3.787529 23.621941 21.582094
602 0 1 -4.604139 23.972137 21.097307
603 0 1 -4.934429 24.650940 21.675600
604 0 1 -4.225281 25.108841 22.284105
605 0 1 -4.966511 25.677643 22.322008
606 0 1 -5.812349 25.982441 21.955706
607 0 1 -6.150620 25.168037 22.313402
608 0 1 -7.049271 24.901939 22.151308
609 0 1 -7.796299 25.531242 21.684999
610 0 1 -8.145901 25.696239 22.590700
611 0 1 -8.260399 25.198242 23.331697
612 0 1 -7.629299 24.945442 24.083101
613 0 1 -7.386499 24.760040 24.981600
614 0 1 -6.952410 24.040840 25.433596
615 0 1 -6.805929 23.055340 25.495913
616 0 1 -5.946930 23.117142 25.964693
617 0 1 -6.322128 23.178741 26.850008
618 0 1 -7.319401 23.123840 26.808901
619 0 1 -7.646000 23.874138 27.365389
620 0 1 -7.286699 24.702240 27.811312
621 0 1 -7.819500 25.564541 27.727694
622 0 1 -7.720501 26.529640 27.871614
623 0 1 -7.954800 27.450241 27.899294
624 0 1 -7.991899 28.416641 27.942904
625 0 1 -7.110029 28.876343 28.027803
626 0 1 -6.410040 28.354839 27.756990
627 0 1 -5.782169 27.662941 27.621614
628 0 1 -5.207720 27.570240 26.867311
629 0 1 -4.269119 27.193642 26.831118
630 0 1 -4.079599 26.395042 27.343813
631 0 1 -3.608768 25.758141 26.748201
632 0 1 -2.915400 25.379242 27.310213
633 0 1 -3.377171 25.912743 27.990206
634 0 1 -3.873669 25.197041 27.633608
635 0 1 -4.338400 24.395741 27.365816
636 0 1 -4.700899 24.598640 28.227205
637 0 1 -3.784599 24.344540 28.487398
638 0 1 -3.811880 23.586342 27.784792
639 0 1 -3.067190 23.852940 27.180788
640 0 1 -3.603039 23.479340 26.505892
641 0 1 -4.225571 22.737343 26.557009
642 0 1 -4.845270 22.450043 25.842592
643 0 1 -4.828461 21.507141 25.686586
644 0 1 -4.029890 21.457642 26.148714
645 0 1 -4.051439 20.528339 26.340212
646 0 1 -4.295929 19.642540 26.585604
647 0 1 -4.898840 19.717041 25.864809
648 0 1 -4.915150 19.749840 24.887911
649 0 1 -4.092150 19.293938 25.100313
650 0 1 -3.520390 19.156639 25.853212
651 0 1 -2.792700 18.511341 25.534487
652 0 1 -2.471449 19.422939 25.748507
653 0 1 -1.580950 18.966640 25.923403
654 0 1 -1.388390 18.165741 25.330202
655 0 1 -1.693199 17.363541 25.738588
656 0 1 -1.857849 16.413040 25.256716
657 0 1 -2.418320 15.974941 24.585695
658 0 1 -2.155479 16.274940 23.662203
659 0 1 -2.888399 15.671440 23.466707
660 0 1 -2.560850 14.798969 23.268190
661 0 1 -1.878229 15.414742 22.999910
662 0 1 -1.236450 15.961739 22.511904
663 0 1 -0.309929 15.825039 22.219896
664 0 1 0.387840 16.397141 22.046206
665 0 1 0.806530 15.942841 22.719515
666 0 1 0.777260 15.097340 22.189699
667 0 1 1.781141 15.099941 22.114000
668 0 1 2.470816 15.680141 21.790697
669 0 1 3.377171 15.816940 21.449709
670 0 1 3.761076 15.042641 21.886797
671 0 1 3.829710 14.356091 21.195299
672 0 1 3.897341 13.508881 21.596498
673 0 1 4.846142 13.238800 21.716295
674 0 1 5.363712 14.035339 21.992098
675 0 1 6.061321 14.407681 21.405504
676 0 1 6.710880 14.860451 21.967104
677 0 1 7.406342 14.887989 21.337999
678 0 1 7.444309 15.677341 20.781603
679 0 1 7.733231 16.275440 20.030596
680 0 1 8.252491 16.750240 19.366610
681 0 1 8.434662 15.804241 19.338900
682 0 1 8.045452 14.926891 19.499102
683 0 1 8.434261 14.431690 18.775103
684 0 1 8.592461 14.167198 17.880404
685 0 1 8.368732 13.543449 17.153597
686 0 1 7.907532 12.810822 16.707705
687 0 1 7.882179 11.953991 17.216402
688 0 1 7.081661 11.388390 17.491899
689 0 1 6.720741 12.237221 17.460604
690 0 1 6.579559 13.122631 17.119295
691 0 1 6.229839 12.640831 16.365999
692 0 1 6.418491 12.656662 15.450593
693 0 1 6.729721 11.758301 15.390809
694 0 1 6.005630 11.452221 14.811707
695 0 1 6.153030 11.157669 13.911408
696 0 1 6.044621 10.532089 13.185304
697 0 1 5.602421 11.225239 12.650300
698 0 1 5.498039 12.248711 12.608201
699 0 1 4.876339 12.083252 11.888597
700 0 1 4.502819 11.445770 11.274095
701 0 1 4.725830 10.949451 10.524095
702 0 1 4.634769 11.381172 9.686784
703 0 1 5.348770 11.744781 10.145600
704 0 1 4.883640 12.521759 10.539903
705 0 1 4.086281 12.363300 10.085404
706 0 1 4.554840 12.870869 9.447373
707 0 1 5.436169 13.324291 9.586686
708 0 1 5.936119 12.644798 9.964112
709 0 1 6.509342 12.109959 9.406892
710 0 1 6.770969 12.936932 8.909715
711 0 1 6.458992 13.566429 8.195741
712 0 1 6.636032 14.142670 8.926316
713 0 1 7.563370 13.812248 8.884492
714 0 1 8.229900 14.291561 9.414338
715 0 1 8.739948 13.501030 9.583726
716 0 1 9.615070 13.133232 9.828111
717 0 1 9.530132 12.809410 10.686006
718 0 1 10.402672 12.528980 10.991105
719 0 1 11.197182 12.052078 11.265901
720 0 1 10.857380 12.160992 12.214707
721 0 1 10.294422 11.377972 12.151902
722 0 1 10.616879 11.005272 12.949403
723 0 1 11.408531 11.109531 12.455201
724 0 1 12.269451 11.044090 12.939195
725 0 1 12.759670 10.965710 13.785096
726 0 1 13.508602 11.526428 14.210999
727 0 1 14.337399 11.670082 14.782594
728 0 1 14.875401 12.338501 14.276399
729 0 1 14.154102 12.855270 14.649095
730 0 1 13.647499 12.769920 15.453004
731 0 1 12.769352 12.816391 14.946397
732 0 1 11.924549 13.038162 15.138703
733 0 1 11.110870 13.084442 14.564393
734 0 1 10.369122 12.762890 15.061601
735 0 1 10.252369 12.488838 15.954408
736 0 1 10.799290 11.722290 15.877305
737 0 1 11.363411 12.237160 16.453905
738 0 1 11.245258 11.765911 17.337206
739 0 1 11.137592 10.969990 16.637606
740 0 1 10.296509 10.878262 16.089205
741 0 1 10.589710 10.236240 15.363206
742 0 1 9.882771 9.637581 15.424607
743 0 1 9.014629 9.828732 15.786698
744 0 1 8.887291 9.106960 15.090898
745 0 1 9.633770 8.675442 14.704804
746 0 1 8.973412 8.013710 14.901597
747 0 1 9.656689 7.473221 14.465898
748 0 1 10.285442 7.489479 13.707704
749 0 1 10.825260 6.717178 13.431794
750 0 1 10.771610 6.824921 14.356507
751 0 1 10.566940 7.388100 15.181596
752 0 1 11.063313 7.703259 15.900300
753 0 1 11.638149 7.770012 16.658907
754 0 1 12.128582 8.211281 15.925004
755 0 1 13.078300 8.338459 15.981400
756 0 1 13.270401 8.079491 16.903994
757 0 1 12.946201 7.707039 17.804399
758 0 1 13.481201 7.427238 18.450808
759 0 1 14.427799 7.531399 18.721697
760 0 1 14.497299 6.853642 19.371004
761 0 1 15.455402 6.785858 19.237200
762 0 1 15.693600 7.736858 19.614809
763 0 1 15.343201 8.072998 18.791994
764 0 1 14.874401 8.834251 19.056795
765 0 1 15.541500 9.504692 18.748598
766 0 1 15.820900 9.704060 17.804506
767 0 1 16.415401 8.922588 17.950899
768 0 1 16.893002 8.220829 17.459902
769 0 1 16.373001 7.655289 18.035295
770 0 1 15.819599 6.883942 17.712297
771 0 1 15.168800 7.630482 17.683107
772 0 1 14.903301 7.339142 16.755709
773 0 1 15.052200 6.634151 16.110994
774 0 1 15.757301 6.334709 16.625795
775 0 1 16.479500 6.615681 16.019396
776 0 1 15.922901 6.282740 15.370896
777 0 1 14.988701 5.855091 15.288301
778 0 1 14.810398 5.313820 14.495194
779 0 1 15.164402 4.766985 13.837800
780 0 1 15.745098 3.987551 14.061006
781 0 1 15.356098 3.121691 13.939195
782 0 1 14.990501 3.317560 14.799195
783 0 1 15.174000 2.424420 15.065202
784 0 1 15.059601 2.899861 15.892594
785 0 1 15.613701 2.265040 16.327700
786 0 1 15.797401 1.338150 16.685106
787 0 1 15.681301 0.386601 16.949709
788 0 1 16.237499 0.093491 16.080797