LAMMPS data file via MDAnalysis

        2000  atoms
        1999  bonds
           0  angles
           0  dihedrals
           0  impropers

           1  atom types
           1  bond types
           0  angle types
           0  dihedral types
           0  improper types

-30.5 30.5 xlo xhi
-30.5 30.5 ylo yhi
-233.5 233.5 zlo zhi


Masses

1 1.000000

Atoms

1 0 1 -23.688610 -16.399883 84.852600
2 0 1 -23.714010 -17.403286 84.933716
3 0 1 -22.853710 -17.629486 84.515686
4 0 1 -23.110210 -17.162085 83.719482
5 0 1 -22.878410 -17.486284 82.799408
6 0 1 -22.339611 -16.650284 82.883911
7 0 1 -22.490311 -16.587986 81.918884
8 0 1 -21.643410 -16.984585 81.681213
9 0 1 -21.595610 -16.173784 81.106201
10 0 1 -21.628510 -16.134285 80.128998
11 0 1 -20.905109 -15.829587 79.512299
12 0 1 -20.411610 -16.125786 80.266510
13 0 1 -19.454910 -15.844987 80.416107
14 0 1 -19.104012 -15.469544 79.560089
15 0 1 -19.131111 -15.239905 78.609711
16 0 1 -18.933611 -15.720487 77.784790
17 0 1 -19.853210 -15.491265 77.749817
18 0 1 -20.574909 -15.999486 78.181000
19 0 1 -21.055410 -16.830284 78.052307
20 0 1 -22.041611 -16.678684 78.078705
21 0 1 -21.858311 -17.655285 78.069305
22 0 1 -21.321011 -17.832584 78.861694
23 0 1 -22.197910 -18.075886 79.356293
24 0 1 -22.891911 -18.454784 78.730408
25 0 1 -22.782011 -19.058084 79.432495
26 0 1 -21.822809 -19.212784 79.500702
27 0 1 -20.953711 -19.424685 79.774414
28 0 1 -20.763309 -19.976885 79.046997
29 0 1 -21.587811 -20.364485 79.424011
30 0 1 -21.207809 -21.208185 79.523499
31 0 1 -20.971710 -20.875685 80.402588
32 0 1 -21.794910 -20.320684 80.607300
33 0 1 -21.625509 -20.812786 81.418213
34 0 1 -21.797911 -20.009584 81.939392
35 0 1 -21.225910 -19.256683 81.629303
36 0 1 -20.682810 -20.036686 81.865997
37 0 1 -20.051510 -20.801584 82.030396
38 0 1 -19.445711 -21.173784 81.305389
39 0 1 -19.046610 -21.060486 80.477692
40 0 1 -18.090311 -21.396286 80.658203
41 0 1 -17.965010 -21.193985 79.754883
42 0 1 -17.903910 -20.200886 79.706787
43 0 1 -17.916510 -19.439484 79.044312
44 0 1 -17.740911 -18.557184 78.613281
45 0 1 -17.218809 -17.910084 78.069611
46 0 1 -16.312410 -18.171385 77.848297
47 0 1 -16.186609 -17.220884 77.876495
48 0 1 -16.662409 -17.000385 77.011505
49 0 1 -16.099409 -16.206486 76.945709
50 0 1 -15.330210 -16.020985 76.342712
51 0 1 -15.656111 -15.237565 75.867615
52 0 1 -14.631010 -15.293756 75.769714
53 0 1 -14.188810 -14.661096 76.431885
54 0 1 -13.250450 -14.706056 76.750916
55 0 1 -12.968691 -14.431294 77.683594
56 0 1 -12.222620 -14.513715 78.334991
57 0 1 -12.122601 -13.552106 78.266205
58 0 1 -11.471811 -13.452235 78.929688
59 0 1 -11.818460 -12.604566 78.734894
60 0 1 -12.490629 -12.138246 78.201782
61 0 1 -12.869081 -11.392776 78.676514
62 0 1 -13.317970 -10.568595 78.637909
63 0 1 -13.474119 -10.278575 79.558105
64 0 1 -13.553490 -9.543916 78.897095
65 0 1 -12.614750 -9.266696 78.912903
66 0 1 -11.652910 -9.097596 79.079895
67 0 1 -12.161680 -8.190095 79.011414
68 0 1 -11.757830 -7.754225 78.261719
69 0 1 -12.488600 -7.288306 78.657501
70 0 1 -13.350271 -7.615895 78.593597
71 0 1 -13.813749 -6.929526 78.077515
72 0 1 -14.265310 -7.132626 77.244202
73 0 1 -14.712210 -7.546135 77.951599
74 0 1 -14.640211 -7.198414 78.866791
75 0 1 -14.693710 -6.446423 79.462097
76 0 1 -14.867311 -6.386788 80.371399
77 0 1 -15.684710 -6.426951 79.897705
78 0 1 -16.144011 -7.235905 80.278900
79 0 1 -15.764311 -7.665755 80.962097
80 0 1 -14.924711 -7.246766 81.398804
81 0 1 -14.464411 -7.841525 81.976990
82 0 1 -14.017410 -7.328246 82.668884
83 0 1 -14.538710 -6.599776 83.020203
84 0 1 -15.079111 -5.792027 82.878296
85 0 1 -14.402109 -5.255990 82.506500
86 0 1 -13.467751 -5.278035 82.799408
87 0 1 -13.456820 -5.130597 83.761414
88 0 1 -14.347311 -4.718873 83.511597
89 0 1 -14.700911 -5.150412 84.287811
90 0 1 -14.726910 -4.870751 85.240204
91 0 1 -14.663809 -3.808896 85.249695
92 0 1 -14.268011 -3.793637 86.228210
93 0 1 -15.224409 -3.578244 86.151917
94 0 1 -15.282011 -2.950944 85.428009
95 0 1 -16.181910 -3.258965 85.477783
96 0 1 -16.736712 -2.511986 85.154205
97 0 1 -15.979410 -2.545865 84.640686
98 0 1 -16.277910 -2.357827 83.734711
99 0 1 -17.239010 -2.694997 83.600189
100 0 1 -16.758211 -3.386246 83.104492
101 0 1 -17.131811 -3.838555 83.848694
102 0 1 -18.104509 -3.667454 83.804993
103 0 1 -19.015810 -3.872117 83.535889
104 0 1 -20.042511 -3.881306 83.694000
105 0 1 -20.656311 -3.242955 83.386108
106 0 1 -19.926010 -3.049657 82.829803
107 0 1 -20.100510 -3.164857 81.896606
108 0 1 -19.271910 -3.546155 81.651489
109 0 1 -19.110411 -2.590714 81.634308
110 0 1 -18.938110 -2.033154 82.434082
111 0 1 -19.888809 -1.867024 82.099396
112 0 1 -20.438810 -1.072686 81.969299
113 0 1 -20.040609 -0.376996 81.470795
114 0 1 -19.726210 0.091243 80.675995
115 0 1 -19.743910 1.105335 80.459290
116 0 1 -20.573311 1.132804 79.963013
117 0 1 -20.768810 0.816383 79.125702
118 0 1 -20.950109 0.533305 78.210083
119 0 1 -21.449909 -0.155495 77.777283
120 0 1 -21.951811 -0.475617 78.570618
121 0 1 -20.999710 -0.651017 78.728699
122 0 1 -20.220810 -0.411065 78.225098
123 0 1 -19.525110 0.008193 77.574097
124 0 1 -18.542011 0.036933 77.625793
125 0 1 -17.882910 0.532867 77.141602
126 0 1 -17.137011 0.672885 76.586609
127 0 1 -17.366209 1.602435 76.671814
128 0 1 -18.233810 1.848785 76.479797
129 0 1 -18.937611 2.427913 76.647400
130 0 1 -19.822411 2.743865 76.787292
131 0 1 -19.758211 3.089072 75.901093
132 0 1 -20.473011 3.680793 75.908508
133 0 1 -20.043610 3.630885 75.023010
134 0 1 -20.909710 4.131843 74.749817
135 0 1 -21.125509 3.227054 74.886108
136 0 1 -21.293711 2.808955 74.044495
137 0 1 -21.539011 3.490752 73.440002
138 0 1 -20.757311 3.643764 72.908997
139 0 1 -21.094009 3.451034 72.032898
140 0 1 -20.754910 3.636413 71.190094
141 0 1 -19.743910 3.479476 71.175903
142 0 1 -19.447611 2.752074 71.657288
143 0 1 -19.082310 1.969703 71.169495
144 0 1 -18.422211 1.407844 71.578491
145 0 1 -17.511209 1.111434 71.265015
146 0 1 -16.558809 1.430526 71.097412
147 0 1 -16.047609 0.801956 70.631714
148 0 1 -15.718309 1.720535 70.611298
149 0 1 -15.983511 2.257823 69.866211
150 0 1 -15.282310 2.716556 70.569092
151 0 1 -14.415510 2.443145 70.310913
152 0 1 -13.791929 1.993945 69.772797
153 0 1 -13.072041 1.507785 69.473602
154 0 1 -12.768759 0.824886 68.857910
155 0 1 -13.454950 0.312316 69.409698
156 0 1 -13.179731 -0.563416 69.165405
157 0 1 -12.270029 -0.360276 68.884705
158 0 1 -11.437429 0.044895 68.519501
159 0 1 -11.527100 0.832786 69.125000
160 0 1 -11.577219 0.635093 70.065002
161 0 1 -11.365210 -0.097226 70.626587
162 0 1 -10.635820 0.160945 71.205200
163 0 1 -10.095020 0.536247 71.969788
164 0 1 -9.863070 0.238876 72.834503
165 0 1 -10.123280 -0.719746 72.842285
166 0 1 -9.898750 -1.193177 72.050201
167 0 1 -10.761999 -1.737176 72.116302
168 0 1 -11.178120 -0.915536 71.710999
169 0 1 -11.569300 -0.199517 72.236389
170 0 1 -12.124830 0.412975 71.627106
171 0 1 -12.203020 1.352764 71.307495
172 0 1 -12.385420 1.224056 72.267700
173 0 1 -12.580961 1.472476 73.149689
174 0 1 -13.037790 0.592235 72.968597
175 0 1 -12.705950 0.016906 73.633118
176 0 1 -12.225771 0.761554 74.033905
177 0 1 -11.711390 -0.024136 74.108704
178 0 1 -11.844370 -1.014664 74.371796
179 0 1 -10.903049 -1.166134 74.672211
180 0 1 -11.130381 -0.322037 75.143402
181 0 1 -12.069891 -0.220017 75.511292
182 0 1 -12.684179 0.405105 76.068695
183 0 1 -12.117620 1.088867 75.787689
184 0 1 -11.186880 0.894775 76.014099
185 0 1 -10.485651 0.621246 76.654297
186 0 1 -9.863661 0.841064 75.967896
187 0 1 -9.622620 1.491706 76.607117
188 0 1 -9.049080 0.678466 76.675110
189 0 1 -8.151831 1.106765 76.576294
190 0 1 -8.482641 1.994705 76.182800
191 0 1 -7.828160 2.221195 75.381500
192 0 1 -8.186171 1.777446 74.593903
193 0 1 -7.309950 1.475395 74.447906
194 0 1 -6.699040 1.369304 73.696503
195 0 1 -6.055201 0.973594 74.244812
196 0 1 -6.171210 0.627693 75.117981
197 0 1 -6.898390 1.182315 75.381287
198 0 1 -6.293810 1.476486 76.050690
199 0 1 -5.939511 2.313903 76.406006
200 0 1 -5.106801 2.818763 76.463501
201 0 1 -4.261765 3.230193 76.336395
202 0 1 -4.007622 3.442657 75.429993
203 0 1 -3.533694 2.578105 75.230103
204 0 1 -2.710131 2.678035 75.653595
205 0 1 -2.212790 3.368514 75.137207
206 0 1 -2.202452 2.753734 74.401001
207 0 1 -2.756051 1.920825 74.301514
208 0 1 -3.742426 1.747905 74.411407
209 0 1 -3.692597 1.265136 75.259308
210 0 1 -4.032694 0.449184 74.873199
211 0 1 -3.520899 -0.267975 75.305786
212 0 1 -3.413798 -1.005677 75.983887
213 0 1 -2.598731 -0.535176 76.070190
214 0 1 -2.288821 -1.359864 76.396301
215 0 1 -1.705431 -1.994706 76.068481
216 0 1 -1.503611 -1.169655 75.684509
217 0 1 -1.170630 -0.284775 75.367493
218 0 1 -0.889952 -1.066296 74.914703
219 0 1 -1.353259 -0.660145 74.155212
220 0 1 -1.242289 0.247966 74.468689
221 0 1 -1.257021 0.154304 73.423096
222 0 1 -0.606142 0.367904 72.651917
223 0 1 -1.049330 -0.312997 72.126892
224 0 1 -1.830470 -0.865037 72.213898
225 0 1 -2.629761 -1.427014 72.526489
226 0 1 -2.272219 -2.252187 72.054596
227 0 1 -1.544062 -1.869847 71.564911
228 0 1 -1.333479 -1.610745 70.658813
229 0 1 -0.781760 -0.852387 70.837402
230 0 1 -1.551211 -0.272916 70.830688
231 0 1 -2.381171 0.146495 70.648315
232 0 1 -2.662861 1.034637 70.902283
233 0 1 -2.542931 1.841453 70.409698
234 0 1 -1.681502 1.971595 70.938202
235 0 1 -0.737181 2.110923 71.096313
236 0 1 -0.684641 2.685024 70.214508
237 0 1 0.267179 2.920493 70.033081
238 0 1 0.692590 3.576415 70.609985
239 0 1 0.572019 4.333675 70.081390
240 0 1 0.838850 4.948715 69.415802
241 0 1 1.408990 4.522117 68.699585
242 0 1 1.129728 4.880317 67.808716
243 0 1 1.233369 5.191513 66.926514
244 0 1 0.402101 5.217216 66.403015
245 0 1 1.059759 4.553413 66.086182
246 0 1 0.637468 3.889632 65.507996
247 0 1 0.986780 4.150295 64.691803
248 0 1 0.811948 5.078716 64.618195
249 0 1 -0.126181 5.016914 64.679993
250 0 1 -0.178362 5.542015 65.527100
251 0 1 -0.813731 6.230915 65.325806
252 0 1 -0.857371 5.755317 66.311310
253 0 1 -0.131152 6.424816 66.287811
254 0 1 -0.052931 7.247814 66.731110
255 0 1 0.817979 7.138015 66.371399
256 0 1 0.713510 7.808616 65.728210
257 0 1 0.753820 8.773314 65.585602
258 0 1 -0.066531 8.539515 64.938202
259 0 1 0.249361 8.361213 64.079102
260 0 1 1.151849 7.924816 64.082886
261 0 1 1.868871 8.161414 63.474304
262 0 1 2.686548 7.629215 63.388916
263 0 1 2.393568 6.902515 62.764191
264 0 1 3.339059 6.516914 62.752411
265 0 1 2.615739 5.785514 62.839691
266 0 1 3.168928 5.628913 62.043091
267 0 1 3.744611 4.872615 62.354401
268 0 1 3.835390 5.048416 63.265991
269 0 1 4.407522 4.211143 63.507294
270 0 1 5.027090 4.307353 62.765411
271 0 1 5.391347 3.476886 62.978790
272 0 1 4.682451 2.764594 62.955902
273 0 1 4.914918 2.933524 62.075195
274 0 1 4.579401 2.627605 61.217896
275 0 1 3.813001 2.697723 60.583801
276 0 1 4.186491 1.976364 60.084900
277 0 1 3.472429 1.324577 60.203613
278 0 1 2.889341 0.709354 60.613403
279 0 1 3.355978 -0.105447 60.695801
280 0 1 3.753469 0.399776 61.454895
281 0 1 4.028238 0.302493 62.394287
282 0 1 4.868291 0.205196 61.901703
283 0 1 5.508180 -0.497735 61.796509
284 0 1 6.082799 -0.076295 61.142609
285 0 1 6.178789 0.742973 61.541107
286 0 1 6.815191 0.187946 62.049591
287 0 1 7.205789 0.125915 62.902100
288 0 1 7.862691 -0.172234 62.246307
289 0 1 8.432791 -0.829026 62.375000
290 0 1 9.261690 -1.085793 62.809204
291 0 1 9.913389 -1.040967 61.942413
292 0 1 10.590292 -0.642575 61.415405
293 0 1 10.278791 -0.888116 60.574890
294 0 1 9.817591 -0.071767 60.338501
295 0 1 9.268690 0.734683 60.359406
296 0 1 8.937090 0.488155 59.484406
297 0 1 8.808290 1.157623 58.848694
298 0 1 8.830191 1.626373 57.970612
299 0 1 8.726889 1.576423 56.920593
300 0 1 7.827688 1.353317 56.671600
301 0 1 7.051488 0.763194 56.800110
302 0 1 6.550390 0.010394 56.562988
303 0 1 7.117788 0.048686 55.790497
304 0 1 8.086088 -0.201955 55.761902
305 0 1 8.532492 -1.070675 55.807190
306 0 1 8.110689 -1.864915 55.409088
307 0 1 8.402590 -1.592045 54.562897
308 0 1 8.711889 -0.933366 53.996094
309 0 1 9.617689 -0.782494 53.876587
310 0 1 9.785589 -1.030015 54.785095
311 0 1 10.442591 -1.470006 55.369507
312 0 1 11.155790 -2.123296 55.282715
313 0 1 10.807791 -2.186345 54.382507
314 0 1 10.300589 -2.978394 54.188995
315 0 1 10.847189 -3.732674 53.934204
316 0 1 10.117891 -4.351456 54.032898
317 0 1 10.845690 -4.881846 53.934204
318 0 1 11.663691 -4.639037 54.498505
319 0 1 12.057791 -3.818486 54.172607
320 0 1 11.867689 -2.980206 54.674988
321 0 1 12.057291 -2.057744 54.355286
322 0 1 12.892187 -2.081467 53.848206
323 0 1 12.062189 -2.171574 53.404694
324 0 1 11.153589 -2.531167 53.141113
325 0 1 10.387892 -2.220647 52.635498
326 0 1 10.433790 -1.806676 51.755890
327 0 1 10.769789 -0.974915 52.133301
328 0 1 10.367990 -0.093117 51.848297
329 0 1 10.812189 -0.190736 51.026306
330 0 1 10.241690 0.274333 50.473511
331 0 1 10.450689 0.907493 49.811584
332 0 1 11.248190 0.460155 49.998993
333 0 1 11.643690 0.668166 50.862305
334 0 1 12.192091 1.416625 50.685394
335 0 1 12.146391 1.934955 49.855103
336 0 1 11.644789 1.796985 49.063202
337 0 1 11.937788 2.527763 48.638702
338 0 1 12.795492 2.652313 48.244812
339 0 1 13.059191 3.461143 47.765411
340 0 1 13.150690 4.390563 47.658508
341 0 1 13.103991 4.869716 46.798401
342 0 1 13.373793 4.583816 45.964691
343 0 1 13.568388 3.750205 45.683289
344 0 1 13.562990 3.575942 44.723694
345 0 1 14.154089 3.662006 43.963196
346 0 1 14.366987 2.752586 43.773407
347 0 1 15.326788 2.989444 43.791504
348 0 1 15.971590 2.335685 43.580994
349 0 1 16.010992 1.418746 43.310486
350 0 1 16.907393 1.010925 43.095215
351 0 1 17.702589 0.593715 42.812592
352 0 1 18.428289 1.239425 42.737701
353 0 1 18.852091 0.872516 41.976196
354 0 1 18.919691 -0.135956 42.028992
355 0 1 19.304090 -0.360745 41.186584
356 0 1 18.780989 0.098384 40.555511
357 0 1 18.682089 1.027725 40.214813
358 0 1 17.797190 1.296455 40.227203
359 0 1 16.908091 1.310073 40.604187
360 0 1 16.346891 1.998924 40.266510
361 0 1 15.441092 1.526733 40.144897
362 0 1 15.003592 1.494563 41.030884
363 0 1 14.863890 2.462684 41.031799
364 0 1 14.860189 3.025745 40.275696
365 0 1 14.063990 3.522292 40.159698
366 0 1 13.463987 2.786323 40.624512
367 0 1 12.592390 2.344856 40.785004
368 0 1 11.904692 2.576896 41.394989
369 0 1 11.742891 1.642944 41.208893
370 0 1 11.730490 0.862747 40.674591
371 0 1 10.808290 0.966575 40.791504
372 0 1 10.559790 0.371616 41.488708
373 0 1 9.921289 0.473434 42.221893
374 0 1 10.711489 0.444164 42.774414
375 0 1 10.221590 0.828033 43.514893
376 0 1 10.647791 1.629554 43.535706
377 0 1 9.791288 1.945754 43.225494
378 0 1 9.481890 2.789123 43.519287
379 0 1 8.930891 2.234123 44.122803
380 0 1 8.669989 2.677264 44.945587
381 0 1 9.206991 3.288554 45.656708
382 0 1 9.541792 2.409213 45.690186
383 0 1 8.926691 2.451614 46.420593
384 0 1 8.571589 3.296226 46.708710
385 0 1 8.193289 4.172664 46.800598
386 0 1 8.999792 4.351856 46.356384
387 0 1 9.684591 5.004314 46.253204
388 0 1 9.469889 5.492317 47.037201
389 0 1 10.071489 5.251014 47.760193
390 0 1 9.729090 6.056716 48.190308
391 0 1 9.807390 5.676815 49.084106
392 0 1 9.922392 5.033115 49.809509
393 0 1 9.687891 5.082714 50.760803
394 0 1 9.961191 5.593814 51.466003
395 0 1 10.120890 6.274814 50.705200
396 0 1 10.446989 7.128314 50.920197
397 0 1 9.623690 7.548713 50.879395
398 0 1 9.904589 7.374115 49.888184
399 0 1 9.043291 7.780517 49.798401
400 0 1 9.767988 8.377814 49.474701
401 0 1 9.072489 9.095515 49.282806
402 0 1 9.251989 9.294616 48.395813
403 0 1 8.479292 9.819613 48.185913
404 0 1 7.655389 9.436515 47.852295
405 0 1 7.908590 9.796214 46.952698
406 0 1 7.289690 10.001815 46.349396
407 0 1 6.407289 9.977015 46.773010
408 0 1 5.864507 9.257014 47.084991
409 0 1 5.234769 9.627616 46.476013
410 0 1 4.639169 8.876513 46.253387
411 0 1 5.338590 8.380015 45.829010
412 0 1 5.370222 8.465415 44.876495
413 0 1 6.329988 8.509215 45.002991
414 0 1 6.435689 7.601417 44.712402
415 0 1 5.863508 6.923213 45.002991
416 0 1 5.927888 6.073516 44.672607
417 0 1 6.083520 5.637214 43.760986
418 0 1 6.889589 5.483814 44.194702
419 0 1 6.990789 6.278316 44.633301
420 0 1 6.715890 5.538814 45.288300
421 0 1 6.500188 5.402015 46.191284
422 0 1 5.794790 5.032913 45.573700
423 0 1 5.100049 4.531013 45.912415
424 0 1 4.338460 4.911216 45.529510
425 0 1 4.150350 5.936916 45.595612
426 0 1 4.144918 5.758014 44.652405
427 0 1 4.819211 5.772716 43.946899
428 0 1 4.232030 6.394115 43.452087
429 0 1 3.430158 6.460216 42.927399
430 0 1 2.786920 5.749416 42.672089
431 0 1 3.132509 4.933815 42.398315
432 0 1 3.055639 3.970294 42.172791
433 0 1 2.669347 4.284393 41.346802
434 0 1 2.274560 4.464466 40.491394
435 0 1 1.595258 3.886516 40.544006
436 0 1 0.898630 4.479415 40.195709
437 0 1 0.583028 3.908904 39.413208
438 0 1 -0.291701 4.335746 39.434387
439 0 1 -0.536681 4.063404 38.525208
440 0 1 -0.815569 3.220405 38.886200
441 0 1 -1.508971 3.156364 38.202301
442 0 1 -1.587542 2.185195 38.362305
443 0 1 -2.373591 1.865016 37.976898
444 0 1 -3.261494 2.074935 37.730011
445 0 1 -2.657021 2.802924 37.644806
446 0 1 -3.332606 2.777793 36.999695
447 0 1 -3.585274 3.319164 36.255310
448 0 1 -3.023341 4.122875 36.357910
449 0 1 -2.833661 4.266223 37.284302
450 0 1 -1.852499 4.226604 37.357300
451 0 1 -1.370562 4.431365 36.505188
452 0 1 -0.719969 4.990814 36.028503
453 0 1 0.265821 5.084114 35.955902
454 0 1 0.554361 4.628314 35.092102
455 0 1 -0.033473 4.463165 34.329498
456 0 1 -0.627100 4.351295 35.064514
457 0 1 -1.486311 4.004283 34.814789
458 0 1 -1.337401 4.472045 33.969299
459 0 1 -1.789042 5.267814 34.191101
460 0 1 -2.530251 5.358413 33.523987
461 0 1 -1.887660 5.314613 32.843201
462 0 1 -0.975012 5.358314 33.147095
463 0 1 -1.240981 6.320716 33.065613
464 0 1 -1.273562 7.282516 33.200897
465 0 1 -0.867430 7.489517 34.057007
466 0 1 -1.514880 7.830814 34.746796
467 0 1 -1.633269 8.770713 34.717102
468 0 1 -1.272971 8.715613 35.564301
469 0 1 -0.786101 8.130916 36.160309
470 0 1 -0.341769 8.310912 36.972992
471 0 1 -0.218691 7.627616 37.657898
472 0 1 -0.887450 8.354815 37.872192
473 0 1 0.011068 8.560714 38.263489
474 0 1 -0.286631 8.480014 39.176514
475 0 1 -0.927550 9.019214 39.708588
476 0 1 -0.259009 8.633014 40.343292
477 0 1 0.056470 7.895114 39.819000
478 0 1 0.685072 7.234115 40.085907
479 0 1 1.517038 6.811515 40.298401
480 0 1 1.220251 6.177917 39.620483
481 0 1 0.848310 5.546913 39.045197
482 0 1 -0.003569 5.870414 39.311188
483 0 1 -0.612532 6.187713 40.012512
484 0 1 -1.426352 5.814216 40.394287
485 0 1 -1.803851 6.122516 39.539001
486 0 1 -2.299231 6.776615 38.830292
487 0 1 -2.392170 7.105915 37.901398
488 0 1 -3.150637 7.037914 37.419891
489 0 1 -3.636837 7.781517 37.078308
490 0 1 -4.345778 7.303115 36.661896
491 0 1 -4.489527 6.905216 37.471710
492 0 1 -4.690510 6.143814 36.861389
493 0 1 -4.853390 6.068416 35.973602
494 0 1 -4.846117 5.090316 35.662292
495 0 1 -5.734860 4.758815 35.604187
496 0 1 -5.969380 3.872566 35.641510
497 0 1 -5.576710 3.636806 34.846985
498 0 1 -5.972521 3.485744 33.924988
499 0 1 -6.880431 3.700824 34.289490
500 0 1 -7.734570 3.453433 33.943207
501 0 1 -7.285571 3.915244 33.263702
502 0 1 -6.891331 3.056342 32.949493
503 0 1 -7.207451 2.154773 32.919891
504 0 1 -7.420550 1.450466 33.554291
505 0 1 -6.431960 1.469005 33.321503
506 0 1 -6.542841 0.747844 32.723816
507 0 1 -7.370581 0.390594 33.115204
508 0 1 -7.395291 0.412093 32.107483
509 0 1 -7.665791 0.660255 31.228302
510 0 1 -8.534081 0.278495 31.252502
511 0 1 -9.353380 -0.070496 30.812805
512 0 1 -9.785089 -0.383057 31.628998
513 0 1 -10.141541 -0.946084 32.355713
514 0 1 -11.033171 -1.143994 32.807312
515 0 1 -10.412821 -0.948777 33.541687
516 0 1 -11.072960 -1.360604 34.141388
517 0 1 -11.473730 -1.465706 35.020813
518 0 1 -11.981359 -2.204957 34.610413
519 0 1 -11.619730 -3.054787 34.541809
520 0 1 -12.444071 -3.137036 35.114105
521 0 1 -13.301680 -3.503846 34.896301
522 0 1 -14.027411 -3.929097 35.353210
523 0 1 -14.461611 -3.362035 36.003784
524 0 1 -15.463310 -3.291436 36.051300
525 0 1 -15.791010 -3.487096 36.966309
526 0 1 -16.589211 -3.729645 37.539703
527 0 1 -17.164511 -4.303765 37.021698
528 0 1 -17.544010 -3.916657 36.271484
529 0 1 -18.352610 -4.093026 36.750000
530 0 1 -19.200310 -4.426325 36.494812
531 0 1 -18.600311 -4.993840 35.958588
532 0 1 -18.850910 -5.513487 35.193390
533 0 1 -18.289410 -6.285717 34.881409
534 0 1 -17.389009 -5.839179 35.009888
535 0 1 -16.894110 -5.672188 35.808289
536 0 1 -16.040710 -5.120411 35.736084
537 0 1 -15.683510 -5.790333 35.251007
538 0 1 -14.728010 -5.593331 35.163696
539 0 1 -13.964710 -5.000138 35.105591
540 0 1 -13.520741 -5.910435 35.034302
541 0 1 -13.598110 -6.846625 35.191010
542 0 1 -14.105310 -7.437766 35.726196
543 0 1 -13.267950 -7.848395 35.437317
544 0 1 -13.441111 -8.267325 34.591614
545 0 1 -14.206209 -8.241136 33.995209
546 0 1 -14.627909 -9.095176 33.943604
547 0 1 -15.331110 -8.481526 33.671600
548 0 1 -14.833710 -8.092435 32.976501
549 0 1 -14.862509 -7.167485 32.662689
550 0 1 -15.701109 -7.600655 32.707092
551 0 1 -15.774710 -7.373755 31.796997
552 0 1 -15.349611 -6.770045 31.169189
553 0 1 -15.531309 -7.218785 30.293610
554 0 1 -15.377611 -7.343125 29.335114
555 0 1 -14.580811 -7.590365 28.773102
556 0 1 -14.051409 -7.244025 28.013306
557 0 1 -14.265511 -7.525895 27.090698
558 0 1 -14.984209 -7.806885 26.470306
559 0 1 -14.440710 -7.368954 25.799713
560 0 1 -15.044910 -7.176455 25.118103
561 0 1 -15.057510 -8.036866 24.788513
562 0 1 -15.017511 -8.200116 23.789093
563 0 1 -15.064711 -9.075116 23.353394
564 0 1 -14.310911 -8.582456 23.148102
565 0 1 -13.385592 -8.519456 23.007599
566 0 1 -13.400230 -8.426116 22.038498
567 0 1 -12.564060 -8.179696 21.603500
568 0 1 -13.017750 -8.792605 20.939697
569 0 1 -13.919809 -8.479735 20.699799
570 0 1 -13.545481 -7.608365 20.464905
571 0 1 -12.586330 -7.608166 20.409393
572 0 1 -12.962610 -6.726355 20.541992
573 0 1 -12.188459 -6.309502 21.029205
574 0 1 -11.238371 -6.135336 21.052597
575 0 1 -10.483231 -6.366496 20.473801
576 0 1 -10.582680 -7.174176 19.994598
577 0 1 -9.989050 -6.857415 19.330704
578 0 1 -10.396049 -6.440680 18.559799
579 0 1 -9.449780 -6.466355 18.442505
580 0 1 -9.238640 -6.085007 17.552597
581 0 1 -8.668581 -5.437460 17.133606
582 0 1 -8.362160 -5.860219 16.267899
583 0 1 -9.351381 -5.925730 16.309799
584 0 1 -9.552561 -6.842715 16.113495
585 0 1 -10.373880 -7.152365 15.619995
586 0 1 -9.793390 -7.427355 14.912399
587 0 1 -9.072350 -7.965096 15.272598
588 0 1 -8.556829 -8.043555 14.469498
589 0 1 -9.094061 -8.777926 14.133698
590 0 1 -9.871010 -9.003865 14.607605
591 0 1 -9.869761 -9.827336 14.100006
592 0 1 -10.234390 -10.689355 14.288605
593 0 1 -10.869591 -11.100585 13.816101
594 0 1 -11.658171 -11.623445 13.584900
595 0 1 -12.512659 -12.074815 13.463501
596 0 1 -13.356840 -12.056207 13.050201
597 0 1 -14.338511 -11.895467 12.836105
598 0 1 -15.156111 -11.508367 13.109497
599 0 1 -15.422110 -11.867526 12.212708
600 0 1 -14.885111 -12.697145 12.219803
601 0 1 -14.964510 -13.680375 12.217804
602 0 1 -14.793510 -14.544927 11.708008
603 0 1 -15.749411 -14.615895 11.783600
604 0 1 -15.631609 -15.523885 12.178192
605 0 1 -15.348211 -16.261784 11.669098
606 0 1 -14.574911 -16.581085 11.114502
607 0 1 -14.161909 -17.500984 10.984299
608 0 1 -13.642881 -18.067986 10.401505
609 0 1 -13.546469 -17.411385 9.734634
610 0 1 -14.245611 -16.833786 9.362808
611 0 1 -14.905010 -17.538086 9.014313
612 0 1 -14.630411 -18.432884 8.897324
613 0 1 -15.193411 -19.100685 8.403503
614 0 1 -15.678511 -19.870186 8.100494
615 0 1 -15.062410 -20.582886 7.860549
616 0 1 -15.902510 -20.925686 7.501434
617 0 1 -16.130510 -21.116184 8.450119
618 0 1 -16.131109 -21.775085 9.174805
619 0 1 -15.640610 -21.844885 9.985306
620 0 1 -15.329611 -22.699585 9.552063
621 0 1 -15.306711 -23.132084 8.689819
622 0 1 -15.159210 -23.160284 7.657226
623 0 1 -15.179110 -23.925684 7.104431
624 0 1 -14.853811 -23.421684 6.352035
625 0 1 -14.596811 -24.351385 6.248107
626 0 1 -14.846010 -25.284185 6.363342
627 0 1 -15.200010 -25.534584 5.497024
628 0 1 -15.683310 -24.805784 5.250473
629 0 1 -15.612810 -24.860785 4.251693
630 0 1 -15.079710 -24.892185 3.521713
631 0 1 -15.509510 -25.625984 3.053467
632 0 1 -15.019609 -25.123884 2.378509
633 0 1 -14.815409 -24.284985 1.911956
634 0 1 -14.861410 -23.421385 1.534576
635 0 1 -15.304710 -22.601484 1.775100
636 0 1 -15.503010 -21.901184 1.132080
637 0 1 -14.857710 -21.373785 0.687927
638 0 1 -14.505209 -21.265285 -0.180085
639 0 1 -15.416609 -21.506586 -0.499497
640 0 1 -15.377909 -20.534586 -0.547455
641 0 1 -16.222109 -20.284185 -0.294724
642 0 1 -15.888510 -20.711285 0.542831
643 0 1 -15.184809 -20.249485 1.043533
644 0 1 -14.950211 -20.459385 1.913116
645 0 1 -14.270910 -19.726784 1.731857
646 0 1 -13.718340 -20.292086 2.237106
647 0 1 -12.810270 -20.067286 2.395263
648 0 1 -12.290710 -19.399586 2.917022
649 0 1 -12.705759 -20.126184 3.372757
650 0 1 -11.736300 -20.244286 3.389953
651 0 1 -11.400410 -19.924185 2.585769
652 0 1 -10.536131 -20.008984 2.197586
653 0 1 -9.854401 -19.375584 1.890487
654 0 1 -9.545300 -19.060585 1.041565
655 0 1 -10.086439 -19.820786 0.920196
656 0 1 -10.021740 -19.306484 0.120041
657 0 1 -10.583179 -19.882584 -0.521607
658 0 1 -10.913610 -18.857784 -0.570542
659 0 1 -10.323250 -18.103683 -0.752900
660 0 1 -10.129490 -17.706486 0.114853
661 0 1 -9.511770 -16.962986 0.172989
662 0 1 -8.604731 -16.475285 0.418563
663 0 1 -8.631950 -15.864587 -0.322068
664 0 1 -9.346790 -15.433825 -0.802597
665 0 1 -8.645750 -14.792275 -0.822876
666 0 1 -8.359360 -14.625276 0.095184
667 0 1 -8.043140 -14.950765 1.003509
668 0 1 -7.156411 -14.829335 0.714630
669 0 1 -6.792262 -15.253957 1.507782
670 0 1 -7.478821 -15.886285 1.561401
671 0 1 -6.663790 -16.082985 0.982620
672 0 1 -6.042231 -16.877785 0.869629
673 0 1 -5.607600 -16.159885 1.401565
674 0 1 -6.279490 -16.427383 2.042328
675 0 1 -6.619521 -15.880284 2.690185
676 0 1 -6.828351 -14.983346 3.069534
677 0 1 -6.089911 -14.853705 3.753265
678 0 1 -5.442011 -15.587087 3.919510
679 0 1 -6.006732 -15.377336 4.683715
680 0 1 -6.196181 -14.592275 5.266281
681 0 1 -5.812020 -14.599055 6.176513
682 0 1 -6.240071 -13.711675 6.514358
683 0 1 -5.241951 -13.775777 6.416152
684 0 1 -5.480271 -12.900516 6.665496
685 0 1 -5.463040 -12.002526 6.174194
686 0 1 -5.486550 -12.114615 5.195892
687 0 1 -5.152161 -11.271276 5.468185
688 0 1 -4.347277 -10.808076 5.326110
689 0 1 -4.563435 -9.995145 5.935882
690 0 1 -5.553580 -9.804755 5.734863
691 0 1 -5.316311 -8.856725 5.687530
692 0 1 -5.969660 -8.274526 5.537811
693 0 1 -5.185851 -7.766495 5.472854
694 0 1 -4.570277 -7.330695 6.066360
695 0 1 -4.286376 -6.838524 5.285888
696 0 1 -3.726676 -7.364275 4.665206
697 0 1 -3.117249 -7.583085 5.450546
698 0 1 -2.182482 -7.865414 5.594314
699 0 1 -2.928513 -8.359776 6.122131
700 0 1 -2.139319 -8.521047 6.726501
701 0 1 -2.323512 -8.758506 7.684417
702 0 1 -1.892222 -9.385655 8.314285
703 0 1 -1.335970 -9.041825 9.103470
704 0 1 -0.438822 -9.239505 9.011627
705 0 1 0.350069 -9.816957 9.046829
706 0 1 0.754381 -8.930757 9.176346
707 0 1 1.652547 -9.299006 9.263290
708 0 1 1.930948 -8.616866 8.524734
709 0 1 1.137868 -9.103887 8.098587
710 0 1 0.908159 -8.231906 7.696090
711 0 1 1.191858 -7.351876 8.096130
712 0 1 1.194490 -6.870446 8.903137
713 0 1 1.685289 -6.194895 8.443024
714 0 1 1.837141 -5.637501 7.605148
715 0 1 1.697618 -5.016797 6.884719
716 0 1 1.896741 -4.515555 7.673431
717 0 1 0.956060 -4.232035 8.090195
718 0 1 0.521379 -4.594018 8.840912
719 0 1 0.234411 -3.812417 9.372635
720 0 1 -0.229289 -3.273705 8.732758
721 0 1 -0.912531 -2.727967 9.180664
722 0 1 -1.688750 -3.080945 9.638336
723 0 1 -2.332560 -3.739255 9.408981
724 0 1 -3.088099 -4.188855 9.089096
725 0 1 -3.496218 -3.515427 9.641876
726 0 1 -3.967154 -4.368374 9.506073
727 0 1 -4.606081 -4.921141 9.945282
728 0 1 -4.637345 -5.145749 8.955765
729 0 1 -5.157561 -5.439343 8.257935
730 0 1 -5.496401 -5.949828 7.562103
731 0 1 -5.300120 -5.148209 7.091903
732 0 1 -4.703213 -4.653777 6.531829
733 0 1 -3.848795 -4.623002 6.154602
734 0 1 -3.734524 -4.031565 5.373947
735 0 1 -4.372750 -3.365456 5.723907
736 0 1 -3.889685 -2.569806 5.673950
737 0 1 -3.433932 -2.049645 4.974624
738 0 1 -2.920636 -1.565896 5.675445
739 0 1 -2.068671 -1.392666 5.251693
740 0 1 -2.690861 -0.708707 5.146133
741 0 1 -2.857241 -0.322026 6.018356
742 0 1 -3.367436 0.163783 6.693573
743 0 1 -4.201125 0.507465 6.899154
744 0 1 -5.038191 0.557994 7.424346
745 0 1 -5.499671 0.956645 6.750976
746 0 1 -6.438590 1.091834 6.973495
747 0 1 -6.575621 1.962596 7.290420
748 0 1 -6.589701 2.933273 7.177688
749 0 1 -6.920130 3.637923 7.748275
750 0 1 -6.059670 4.080574 7.939392
751 0 1 -5.454480 4.310436 7.229324
752 0 1 -5.305430 5.220115 7.431991
753 0 1 -4.915520 5.544914 6.622711
754 0 1 -4.305470 5.958816 7.206542
755 0 1 -4.257376 4.940914 7.227188
756 0 1 -3.729283 5.364913 7.898315
757 0 1 -3.783930 5.410217 8.847183
758 0 1 -3.850745 6.030315 9.591492
759 0 1 -4.442208 6.750415 9.698273
760 0 1 -4.760350 7.339916 10.593399
761 0 1 -4.105387 7.377216 11.317093
762 0 1 -3.711936 7.575016 12.188095
763 0 1 -4.128840 7.283317 12.994003
764 0 1 -4.903121 7.050415 13.526703
765 0 1 -5.459000 7.154617 14.352402
766 0 1 -6.113341 7.470413 14.967102
767 0 1 -6.342680 8.017814 15.687607
768 0 1 -5.999110 7.760616 16.512405
769 0 1 -5.545540 8.707713 16.484299
770 0 1 -4.814745 8.414115 17.039307
771 0 1 -4.332543 9.164515 17.366699
772 0 1 -4.600800 9.938216 17.899002
773 0 1 -3.649855 10.206916 17.690506
774 0 1 -3.151625 9.638015 17.076401
775 0 1 -2.584570 10.064315 17.775696
776 0 1 -2.517651 10.832915 17.303802
777 0 1 -1.933989 10.764014 18.061493
778 0 1 -2.706881 10.806716 18.596802
779 0 1 -3.518521 11.113814 18.261398
780 0 1 -4.060400 11.833716 17.990204
781 0 1 -3.524384 12.408416 17.422607
782 0 1 -2.846282 12.797015 17.985901
783 0 1 -3.058506 13.495914 17.306900
784 0 1 -2.130160 13.552115 17.103699
785 0 1 -1.306349 14.005214 17.189194
786 0 1 -1.052641 13.043212 17.204605
787 0 1 -1.055300 12.869815 16.297394