LAMMPS data file via MDAnalysis

        2000  atoms
        1999  bonds
           0  angles
           0  dihedrals
           0  impropers

           1  atom types
           1  bond types
           0  angle types
           0  dihedral types
           0  improper types

-30.5 30.5 xlo xhi
-30.5 30.5 ylo yhi
-233.5 233.5 zlo zhi


Masses

1 1.000000

Atoms

1 0 1 7.659275 -2.827168 78.282715
2 0 1 8.377045 -3.074227 77.600403
3 0 1 8.083584 -3.942566 77.421204
4 0 1 8.421066 -4.431427 78.191803
5 0 1 8.190174 -5.174828 78.864319
6 0 1 7.617016 -5.899926 78.972595
7 0 1 6.733345 -6.303227 79.063690
8 0 1 6.241375 -5.653727 79.595398
9 0 1 5.563816 -5.361826 80.238586
10 0 1 5.287025 -4.578728 80.693115
11 0 1 4.607586 -4.059107 81.147095
12 0 1 4.717705 -4.999127 81.479095
13 0 1 4.178595 -5.757626 81.201996
14 0 1 3.332962 -5.762825 81.644714
15 0 1 2.892647 -6.630726 81.653290
16 0 1 2.110846 -6.553526 81.150299
17 0 1 2.711924 -6.948327 80.443390
18 0 1 2.693575 -7.677227 79.845703
19 0 1 2.894602 -8.545425 80.149506
20 0 1 3.513079 -8.292828 80.834290
21 0 1 3.990690 -8.825227 80.217407
22 0 1 3.547247 -9.686927 80.116302
23 0 1 3.745190 -9.323827 79.203613
24 0 1 4.541706 -9.762326 79.608795
25 0 1 5.042534 -9.531826 80.488586
26 0 1 5.020046 -9.116527 81.292999
27 0 1 5.912376 -8.779527 81.533295
28 0 1 6.617825 -8.280827 81.108582
29 0 1 7.513054 -8.561527 80.855194
30 0 1 8.238934 -7.902327 80.872894
31 0 1 8.012066 -8.081627 79.955383
32 0 1 8.094196 -8.093025 78.982117
33 0 1 7.334373 -8.591927 78.639099
34 0 1 6.721634 -9.010826 78.079102
35 0 1 6.019066 -9.581026 78.463196
36 0 1 6.328056 -10.457527 78.321106
37 0 1 5.771847 -11.174627 77.896393
38 0 1 5.249695 -11.792727 78.380188
39 0 1 4.521585 -12.311327 78.272308
40 0 1 4.418175 -12.270426 79.249084
41 0 1 5.056725 -13.010227 79.166901
42 0 1 5.356407 -13.122227 78.213806
43 0 1 5.307194 -13.519726 77.360199
44 0 1 5.238827 -13.279827 76.485107
45 0 1 4.718056 -13.161827 75.633789
46 0 1 4.238825 -13.607626 74.922791
47 0 1 4.372286 -14.530926 75.161987
48 0 1 4.285826 -14.932226 74.276001
49 0 1 3.423836 -15.395926 74.065308
50 0 1 3.019737 -15.117426 73.194885
51 0 1 3.476891 -15.118326 72.271790
52 0 1 3.991220 -15.576027 71.627594
53 0 1 3.500885 -16.325926 72.069305
54 0 1 3.297804 -17.067026 71.352509
55 0 1 3.404879 -16.283226 70.778381
56 0 1 3.039013 -15.798826 69.935486
57 0 1 2.885365 -14.807627 70.338684
58 0 1 2.213509 -15.429026 70.633789
59 0 1 1.451075 -16.133926 70.421387
60 0 1 1.712845 -17.018726 70.768799
61 0 1 1.672356 -17.714926 70.156616
62 0 1 2.202408 -18.045425 69.415497
63 0 1 1.913185 -18.400227 68.618713
64 0 1 2.343456 -18.523127 67.765106
65 0 1 2.131538 -18.288826 66.865906
66 0 1 2.560684 -18.280127 65.990601
67 0 1 3.048464 -17.649227 66.465607
68 0 1 3.466013 -18.084526 67.137512
69 0 1 4.346426 -17.925526 66.825317
70 0 1 3.923771 -17.166826 66.492493
71 0 1 4.314535 -17.007626 65.582001
72 0 1 5.215725 -16.649227 65.260895
73 0 1 5.310585 -16.453127 66.174805
74 0 1 6.105026 -16.811626 65.684082
75 0 1 6.419304 -16.091125 66.185211
76 0 1 5.876545 -15.443726 65.703918
77 0 1 5.936447 -14.483027 65.338013
78 0 1 5.990456 -13.767326 65.985992
79 0 1 6.743534 -14.008427 66.489685
80 0 1 6.014824 -14.587027 66.680786
81 0 1 6.640465 -15.208326 67.004395
82 0 1 6.374035 -14.663927 67.705017
83 0 1 5.879585 -13.819227 67.785004
84 0 1 6.210426 -12.886326 67.738098
85 0 1 5.586525 -12.307726 68.212006
86 0 1 4.720364 -12.708126 68.234009
87 0 1 4.048927 -12.631826 68.906097
88 0 1 3.629114 -11.823227 69.004517
89 0 1 3.120014 -11.147926 68.532501
90 0 1 2.437160 -11.015326 67.879883
91 0 1 1.757095 -10.577026 67.327301
92 0 1 2.189434 -9.771426 66.958008
93 0 1 2.422672 -9.047127 66.342010
94 0 1 3.172421 -8.463627 66.318115
95 0 1 2.972124 -7.585427 66.705383
96 0 1 3.156757 -7.248227 67.492706
97 0 1 3.398148 -6.274228 67.346100
98 0 1 2.566477 -5.918526 67.698700
99 0 1 1.923666 -6.598927 67.720886
100 0 1 1.393684 -6.169228 67.084595
101 0 1 1.621136 -6.420727 66.157990
102 0 1 2.381685 -6.018628 65.729492
103 0 1 2.425640 -5.307827 65.082703
104 0 1 2.122547 -4.420826 64.964294
105 0 1 2.627972 -4.740128 64.202698
106 0 1 2.034805 -3.997258 63.884094
107 0 1 2.404181 -3.210495 63.454895
108 0 1 3.175228 -3.224917 64.206909
109 0 1 3.491636 -2.365136 64.003418
110 0 1 3.520550 -2.546578 63.031403
111 0 1 3.152161 -2.968598 62.278992
112 0 1 2.431635 -3.228877 61.657898
113 0 1 2.324429 -3.045105 60.647491
114 0 1 2.329855 -3.299437 59.720093
115 0 1 1.449165 -3.543726 59.605804
116 0 1 0.809916 -4.007187 58.997406
117 0 1 0.221445 -4.657326 58.713409
118 0 1 0.834086 -5.288327 58.298584
119 0 1 0.236805 -6.052426 58.325897
120 0 1 -0.008715 -6.656527 59.018890
121 0 1 -1.039906 -6.584427 58.866394
122 0 1 -1.651855 -7.078627 58.331787
123 0 1 -1.474464 -8.030327 58.294189
124 0 1 -2.240845 -8.096725 57.629791
125 0 1 -1.636274 -8.867126 57.653687
126 0 1 -1.072266 -8.280025 57.204102
127 0 1 -0.418156 -8.668926 56.600708
128 0 1 0.008875 -7.855027 56.299103
129 0 1 -0.521265 -7.271927 56.852997
130 0 1 -0.794624 -7.278225 55.911896
131 0 1 -1.714386 -7.006827 55.660889
132 0 1 -2.509745 -6.862427 56.119598
133 0 1 -2.305744 -6.929326 57.024902
134 0 1 -1.949585 -6.024426 57.118591
135 0 1 -1.095465 -5.702527 57.113892
136 0 1 -1.571365 -5.052426 56.553009
137 0 1 -2.212564 -4.714427 57.264801
138 0 1 -3.039974 -4.511527 57.683807
139 0 1 -3.839294 -4.093876 58.017700
140 0 1 -3.743225 -3.237896 57.646606
141 0 1 -3.599705 -3.764016 56.835693
142 0 1 -3.599245 -4.491927 56.193695
143 0 1 -3.238585 -3.787808 55.656189
144 0 1 -3.634375 -3.771676 54.721313
145 0 1 -3.481655 -4.221127 53.866089
146 0 1 -3.664175 -4.654727 52.962708
147 0 1 -2.689425 -4.900027 52.970215
148 0 1 -2.365795 -4.156727 53.434296
149 0 1 -1.566404 -4.759526 53.396606
150 0 1 -1.560024 -5.572728 52.824005
151 0 1 -1.772924 -6.425328 53.160187
152 0 1 -2.400455 -6.954525 52.663910
153 0 1 -2.549995 -7.791928 52.274506
154 0 1 -3.328465 -8.130926 51.831299
155 0 1 -3.491415 -7.762127 50.950195
156 0 1 -2.522274 -7.731526 50.692993
157 0 1 -2.568275 -7.190728 49.924500
158 0 1 -3.382015 -6.691426 49.738403
159 0 1 -4.216785 -6.452227 49.381409
160 0 1 -4.550344 -6.056326 48.573090
161 0 1 -5.423374 -5.662228 48.430603
162 0 1 -6.409416 -5.485226 48.299316
163 0 1 -7.207096 -5.410727 48.840393
164 0 1 -8.159096 -5.665926 48.662598
165 0 1 -8.181496 -5.386027 47.671509
166 0 1 -9.013294 -5.002728 47.396790
167 0 1 -9.301796 -5.782427 47.882996
168 0 1 -9.432693 -5.674326 48.907806
169 0 1 -9.934395 -6.484227 48.758698
170 0 1 -10.696295 -7.078526 48.781311
171 0 1 -10.868496 -6.728827 47.881805
172 0 1 -10.836296 -7.258027 47.048096
173 0 1 -11.397694 -7.223927 46.278900
174 0 1 -10.823395 -6.978426 45.509796
175 0 1 -10.599895 -6.212327 44.904388
176 0 1 -10.840895 -5.506226 45.544006
177 0 1 -10.199696 -6.214528 45.874908
178 0 1 -10.002995 -5.446126 46.388489
179 0 1 -10.506393 -4.718926 46.625305
180 0 1 -10.896996 -4.210728 45.930298
181 0 1 -11.807495 -4.004715 46.063507
182 0 1 -12.560095 -3.445496 46.045898
183 0 1 -13.218596 -3.432026 46.770294
184 0 1 -13.282095 -4.114657 47.429413
185 0 1 -13.840895 -4.736126 47.840393
186 0 1 -13.990995 -5.448727 48.416107
187 0 1 -13.601595 -6.257527 48.794495
188 0 1 -13.474495 -6.858527 49.614685
189 0 1 -14.336494 -7.031426 49.365601
190 0 1 -14.821995 -7.294026 50.160492
191 0 1 -15.374994 -7.554226 50.852905
192 0 1 -15.351496 -8.489025 50.700012
193 0 1 -16.005095 -9.162927 51.034393
194 0 1 -15.519794 -8.830727 51.818390
195 0 1 -15.687695 -9.766626 52.020508
196 0 1 -15.956594 -10.699127 51.852417
197 0 1 -15.463394 -10.943626 52.652588
198 0 1 -14.994894 -11.189426 51.878998
199 0 1 -14.593294 -11.671427 52.625916
200 0 1 -14.690596 -12.610226 52.277588
201 0 1 -14.963894 -13.202627 52.958588
202 0 1 -15.410995 -13.618626 52.192017
203 0 1 -14.717094 -13.776327 51.547607
204 0 1 -14.976395 -14.595926 51.032898
205 0 1 -14.685894 -15.503826 51.291107
206 0 1 -15.070095 -16.078726 51.996613
207 0 1 -14.220795 -16.558926 51.989410
208 0 1 -13.346495 -16.285927 52.135986
209 0 1 -13.137794 -15.349426 52.043793
210 0 1 -12.553494 -14.655426 51.725800
211 0 1 -12.242394 -14.875626 50.864410
212 0 1 -12.457595 -15.542526 50.222504
213 0 1 -12.112995 -15.608126 49.260590
214 0 1 -11.435595 -14.960127 49.481506
215 0 1 -10.500195 -15.089127 49.287109
216 0 1 -10.459496 -16.039627 49.565491
217 0 1 -9.892895 -16.249226 48.808716
218 0 1 -9.088495 -15.778927 49.101410
219 0 1 -8.484495 -16.332026 49.505188
220 0 1 -7.864094 -16.659126 48.849396
221 0 1 -7.617294 -16.467726 47.942200
222 0 1 -7.073595 -17.130226 47.513306
223 0 1 -7.044594 -18.037025 47.151794
224 0 1 -7.108696 -17.413727 46.400085
225 0 1 -6.203846 -17.294725 46.875000
226 0 1 -6.390076 -16.495926 46.340088
227 0 1 -5.581814 -15.950127 46.660583
228 0 1 -5.662273 -15.164726 46.083984
229 0 1 -6.232624 -14.377527 45.868713
230 0 1 -5.770355 -14.305126 45.044189
231 0 1 -6.264664 -14.302126 44.233093
232 0 1 -5.770435 -15.050526 44.090210
233 0 1 -6.283714 -14.797626 43.315491
234 0 1 -7.005995 -15.242126 43.694214
235 0 1 -6.384754 -15.972425 43.709106
236 0 1 -6.764835 -16.747126 43.304596
237 0 1 -7.627396 -16.342627 43.260986
238 0 1 -8.498695 -16.392727 43.722412
239 0 1 -8.459496 -16.096626 42.716400
240 0 1 -8.147995 -15.517426 41.988892
241 0 1 -8.975494 -15.007927 42.415192
242 0 1 -8.709694 -14.022627 42.510101
243 0 1 -9.652596 -13.674227 42.348694
244 0 1 -9.042795 -12.867926 42.352997
245 0 1 -8.296394 -13.048927 41.766602
246 0 1 -8.243095 -13.584126 41.004089
247 0 1 -7.943596 -13.593126 40.037201
248 0 1 -7.537994 -13.451326 39.209503
249 0 1 -8.083395 -12.754726 38.897003
250 0 1 -7.704094 -11.950726 38.603088
251 0 1 -8.665195 -11.940327 38.474396
252 0 1 -8.832096 -11.132027 38.997406
253 0 1 -8.861996 -10.493326 38.253204
254 0 1 -9.808495 -10.303827 38.402405
255 0 1 -10.570194 -10.804926 38.105011
256 0 1 -10.588594 -10.371227 37.305908
257 0 1 -11.057795 -9.536126 37.076599
258 0 1 -11.521495 -9.685026 37.874084
259 0 1 -11.285496 -8.765626 37.867096
260 0 1 -11.404795 -8.188026 37.154694
261 0 1 -11.689295 -8.446226 36.256714
262 0 1 -12.624895 -8.588528 36.339691
263 0 1 -11.992195 -9.416726 36.236084
264 0 1 -11.725195 -9.174426 35.285400
265 0 1 -10.999695 -9.295727 34.580200
266 0 1 -10.707994 -8.955127 35.409485
267 0 1 -10.169695 -8.329727 35.071716
268 0 1 -9.452293 -8.819726 35.415497
269 0 1 -8.893795 -9.603827 35.612305
270 0 1 -9.747494 -9.831126 35.210999
271 0 1 -10.478294 -10.363726 35.401093
272 0 1 -10.212296 -11.337427 35.230194
273 0 1 -9.350395 -11.688726 35.253296
274 0 1 -9.877995 -12.162527 34.627991
275 0 1 -10.814896 -12.205126 34.526794
276 0 1 -10.585495 -12.757427 35.313416
277 0 1 -10.505495 -13.700726 34.930695
278 0 1 -11.353596 -13.725527 34.416901
279 0 1 -11.654495 -13.943226 33.500488
280 0 1 -10.862194 -13.721725 32.911804
281 0 1 -10.664494 -12.765127 33.088806
282 0 1 -11.524295 -12.497026 33.178589
283 0 1 -12.242895 -11.998226 33.555115
284 0 1 -12.173895 -11.049026 33.368713
285 0 1 -11.774495 -10.571327 32.700897
286 0 1 -10.986395 -10.846527 32.303101
287 0 1 -11.170595 -11.082226 31.404297
288 0 1 -11.648294 -11.874926 31.492493
289 0 1 -11.700994 -12.591526 32.177002
290 0 1 -10.962595 -13.086826 31.831116
291 0 1 -10.361794 -12.868727 31.028595
292 0 1 -10.799496 -12.690527 30.154907
293 0 1 -10.552195 -12.371227 29.265015
294 0 1 -10.912594 -11.488626 29.192688
295 0 1 -10.054893 -11.484127 29.630707
296 0 1 -9.309795 -11.959826 30.039886
297 0 1 -9.236195 -12.285526 30.947998
298 0 1 -9.585794 -13.034925 30.507690
299 0 1 -9.318995 -13.433226 31.332886
300 0 1 -9.905396 -14.116127 30.933502
301 0 1 -9.191696 -14.493826 31.497406
302 0 1 -8.190395 -14.421827 31.398315
303 0 1 -8.580395 -14.082026 30.600403
304 0 1 -8.451694 -13.592426 29.731293
305 0 1 -7.462494 -13.557726 29.547485
306 0 1 -7.576096 -14.332827 30.060608
307 0 1 -7.104694 -14.900326 29.517914
308 0 1 -7.584394 -15.606426 29.029205
309 0 1 -8.509796 -15.586626 28.705414
310 0 1 -9.229694 -16.079426 29.008484
311 0 1 -10.045494 -15.791225 28.514496
312 0 1 -10.563095 -16.642227 28.352814
313 0 1 -10.401394 -16.338226 27.434692
314 0 1 -10.494095 -15.386026 27.418396
315 0 1 -10.906094 -14.545126 27.653290
316 0 1 -10.961094 -14.648527 26.663910
317 0 1 -11.115295 -13.856226 26.171692
318 0 1 -10.209095 -13.740427 25.872009
319 0 1 -9.387695 -14.193926 25.711212
320 0 1 -8.497395 -14.299927 25.309296
321 0 1 -7.700294 -14.180527 24.745514
322 0 1 -7.094696 -13.599127 24.291290
323 0 1 -7.941093 -13.147627 24.284790
324 0 1 -7.869795 -12.724627 25.137512
325 0 1 -8.847694 -12.852026 25.083008
326 0 1 -8.849194 -11.932926 25.450714
327 0 1 -9.758295 -12.069326 25.153290
328 0 1 -9.676395 -11.555727 25.949005
329 0 1 -8.925396 -11.018927 26.096893
330 0 1 -8.288595 -11.598825 26.420288
331 0 1 -8.562096 -11.528625 27.359406
332 0 1 -8.364594 -10.858627 28.052612
333 0 1 -8.437595 -10.578627 28.968292
334 0 1 -7.584995 -10.157927 28.604614
335 0 1 -6.843765 -9.901727 28.052002
336 0 1 -6.160135 -10.403526 27.653412
337 0 1 -6.130363 -11.235426 28.054108
338 0 1 -6.125786 -10.913727 28.988892
339 0 1 -6.287045 -11.709627 29.427002
340 0 1 -6.480576 -11.931826 30.291199
341 0 1 -5.870476 -12.523327 30.825287
342 0 1 -6.731504 -12.563627 31.332489
343 0 1 -6.735285 -12.146427 32.241089
344 0 1 -5.916975 -12.121227 32.839203
345 0 1 -5.068775 -12.564726 32.838287
346 0 1 -5.264524 -12.228327 33.743103
347 0 1 -4.596344 -11.884026 34.342407
348 0 1 -4.960285 -11.185127 34.924408
349 0 1 -4.722935 -10.352627 35.391693
350 0 1 -5.608986 -10.760626 35.672607
351 0 1 -6.510216 -11.110826 35.857117
352 0 1 -6.494715 -11.920527 36.339111
353 0 1 -6.649694 -11.049526 36.900085
354 0 1 -7.366695 -10.376627 36.932495
355 0 1 -6.788115 -10.064826 36.226105
356 0 1 -6.219435 -9.358227 36.678802
357 0 1 -5.742695 -8.554325 36.846313
358 0 1 -5.605505 -7.733628 37.407501
359 0 1 -4.753956 -7.333725 37.006989
360 0 1 -5.415016 -7.180027 36.369690
361 0 1 -4.989796 -6.397227 36.798187
362 0 1 -5.910706 -6.178128 36.924805
363 0 1 -6.441994 -5.769326 36.200989
364 0 1 -6.244095 -5.406527 35.354004
365 0 1 -5.409405 -5.778225 35.752289
366 0 1 -4.979794 -5.007226 36.110413
367 0 1 -4.341545 -4.283427 36.195312
368 0 1 -3.613935 -4.904927 36.370789
369 0 1 -3.807575 -5.277827 37.240997
370 0 1 -3.054014 -5.725228 37.652100
371 0 1 -3.510195 -5.939827 38.451599
372 0 1 -2.688576 -5.401127 38.711700
373 0 1 -1.825315 -5.817826 38.792511
374 0 1 -1.487804 -5.106127 39.299500
375 0 1 -1.940414 -5.252728 40.116608
376 0 1 -2.387575 -4.393128 39.747406
377 0 1 -2.099415 -3.843747 38.967499
378 0 1 -1.556265 -3.167828 38.451904
379 0 1 -0.811655 -3.125546 37.835907
380 0 1 -0.859505 -2.880448 36.932404
381 0 1 -1.370745 -2.277806 36.360687
382 0 1 -1.371084 -1.345288 36.473999
383 0 1 -2.259335 -1.182106 36.224396
384 0 1 -2.464375 -0.770756 35.411316
385 0 1 -3.023275 -0.361477 34.777191
386 0 1 -2.850975 0.068172 33.860504
387 0 1 -2.285524 0.612003 34.362610
388 0 1 -2.006845 1.058223 33.508911
389 0 1 -2.727245 0.751073 32.927612
390 0 1 -2.354235 0.575754 32.095215
391 0 1 -2.886854 -0.268196 32.223694
392 0 1 -2.633865 -0.339047 31.306305
393 0 1 -2.219625 -1.200756 31.574585
394 0 1 -2.924496 -1.910347 31.489197
395 0 1 -3.532696 -1.255957 31.027496
396 0 1 -3.899315 -2.144326 30.824585
397 0 1 -3.722336 -2.446286 29.910492
398 0 1 -3.111835 -3.011477 29.354309
399 0 1 -2.417175 -3.687296 29.451508
400 0 1 -2.689116 -4.178927 28.593597
401 0 1 -1.777185 -4.006587 28.562012
402 0 1 -0.992775 -3.922637 27.910095
403 0 1 -0.470425 -4.675627 28.070892
404 0 1 0.276005 -4.217627 27.650299
405 0 1 1.245396 -4.016697 27.475189
406 0 1 0.756565 -4.013108 26.630402
407 0 1 0.055285 -4.311827 26.111511
408 0 1 -0.540436 -4.094407 25.389709
409 0 1 -0.397844 -3.194996 25.010712
410 0 1 0.533726 -3.006697 24.593597
411 0 1 0.060505 -3.710686 24.100098
412 0 1 0.588656 -4.423726 24.399689
413 0 1 0.746615 -4.334027 23.469208
414 0 1 0.837586 -4.921227 22.745789
415 0 1 0.996706 -4.652028 21.838699
416 0 1 0.517155 -5.586026 21.804993
417 0 1 0.040186 -6.238226 22.417206
418 0 1 -0.737354 -6.075726 21.860107
419 0 1 -0.563105 -5.368727 22.429306
420 0 1 -0.541836 -5.028225 21.580597
421 0 1 -0.756945 -5.570328 20.862106
422 0 1 -0.589655 -4.723027 20.379700
423 0 1 0.106266 -4.260327 20.841492
424 0 1 0.878565 -3.673638 20.690994
425 0 1 1.488926 -3.809758 19.863205
426 0 1 1.409904 -4.542527 20.463699
427 0 1 1.592875 -5.441027 20.824203
428 0 1 1.765915 -6.241227 21.313202
429 0 1 1.695845 -6.341027 22.254395
430 0 1 2.132956 -7.191826 22.219208
431 0 1 2.298899 -8.102627 22.029999
432 0 1 1.955545 -7.940026 22.967590
433 0 1 2.498438 -8.557426 23.478210
434 0 1 3.228344 -8.146027 23.981598
435 0 1 2.944855 -8.372326 24.830688
436 0 1 2.526520 -9.232126 24.658997
437 0 1 3.345011 -9.741026 24.596008
438 0 1 2.949093 -10.278826 23.933594
439 0 1 2.291533 -10.237427 24.645813
440 0 1 1.347555 -10.470427 25.204590
441 0 1 1.326595 -10.714025 26.158295
442 0 1 0.490995 -10.719826 26.643799
443 0 1 -0.294874 -11.180727 26.632690
444 0 1 -0.111694 -11.056927 27.559906
445 0 1 -0.476965 -11.886927 27.904205
446 0 1 -0.915014 -11.117826 28.193115
447 0 1 -0.221184 -10.695227 28.819885
448 0 1 -0.440716 -9.759227 28.712097
449 0 1 -0.139765 -8.902726 28.346588
450 0 1 0.639725 -9.501626 28.411407
451 0 1 0.508965 -10.187826 27.844788
452 0 1 1.401516 -10.345325 28.203186
453 0 1 2.315525 -10.454027 28.495087
454 0 1 1.808735 -10.956726 29.169891
455 0 1 1.493586 -11.780127 28.728088
456 0 1 2.298653 -12.193127 29.061584
457 0 1 2.079708 -12.238327 30.052490
458 0 1 1.847475 -13.164825 29.951996
459 0 1 1.971436 -14.072226 30.253113
460 0 1 2.770071 -14.624926 30.293396
461 0 1 2.137119 -14.925926 30.929108
462 0 1 1.405016 -14.424826 31.504608
463 0 1 1.989676 -14.646727 32.183197
464 0 1 2.532782 -15.428827 32.220490
465 0 1 2.150822 -16.099327 32.832092
466 0 1 2.990545 -15.894726 33.297089
467 0 1 3.058104 -16.916826 33.475403
468 0 1 3.085104 -17.525826 34.317200
469 0 1 2.194279 -17.607727 33.882507
470 0 1 1.825476 -17.521626 32.973297
471 0 1 2.248623 -17.060827 32.204590
472 0 1 3.136139 -17.441227 31.868805
473 0 1 3.836735 -18.084326 32.200012
474 0 1 3.600296 -18.675726 33.042389
475 0 1 2.661396 -18.894627 33.058197
476 0 1 1.803255 -18.544327 33.052399
477 0 1 1.362385 -19.426527 33.081512
478 0 1 0.498575 -19.662926 32.659088
479 0 1 0.052225 -20.446926 32.335999
480 0 1 0.448376 -21.336327 32.340302
481 0 1 0.083355 -21.128126 31.482605
482 0 1 -0.290474 -21.056227 30.651886
483 0 1 0.531256 -20.664227 30.500214
484 0 1 0.854225 -20.120926 29.696686
485 0 1 0.403235 -19.609226 30.363586
486 0 1 0.369635 -18.608027 30.329590
487 0 1 -0.301775 -18.102026 29.937195
488 0 1 -0.643675 -17.395226 30.424896
489 0 1 -0.336435 -16.511026 30.045990
490 0 1 -0.394455 -16.625326 29.102509
491 0 1 0.242985 -17.156527 28.578186
492 0 1 0.665655 -16.260826 28.316498
493 0 1 1.320076 -15.576227 28.316101
494 0 1 1.783575 -15.030025 27.621613
495 0 1 2.456491 -14.902126 26.942413
496 0 1 3.238670 -15.451626 27.107513
497 0 1 3.872990 -15.525026 26.314697
498 0 1 4.503506 -15.530426 25.624695
499 0 1 5.020706 -15.209627 26.372498
500 0 1 5.848137 -15.068026 26.944489
501 0 1 5.990864 -15.229927 26.007202
502 0 1 5.874035 -15.056627 25.087189
503 0 1 6.171684 -15.388926 24.285309
504 0 1 5.671547 -14.575926 23.945709
505 0 1 5.873035 -13.989027 23.232788
506 0 1 6.801224 -14.382727 22.902008
507 0 1 7.568584 -13.811926 22.799011
508 0 1 6.865036 -13.544426 22.179993
509 0 1 7.473595 -13.944626 21.484894
510 0 1 7.559155 -13.598026 20.610901
511 0 1 6.671757 -13.439526 20.301102
512 0 1 6.372536 -13.956226 19.538895
513 0 1 5.616966 -14.316427 19.979492
514 0 1 6.040024 -15.150927 20.205704
515 0 1 6.573685 -14.535227 20.662704
516 0 1 7.248775 -14.983427 20.173904
517 0 1 6.898964 -15.237326 19.308701
518 0 1 7.321243 -15.282026 18.363998
519 0 1 8.134193 -15.723125 18.509995
520 0 1 7.585297 -16.508427 18.443100
521 0 1 7.389206 -16.853127 17.606506
522 0 1 7.927765 -17.267426 16.961304
523 0 1 8.483093 -17.838726 17.500397
524 0 1 9.249794 -17.311127 17.766205
525 0 1 9.877254 -17.934027 17.395996
526 0 1 10.026115 -18.552027 18.101501
527 0 1 11.058525 -18.639126 17.942902
528 0 1 10.686554 -19.295727 17.377502
529 0 1 11.152756 -20.143026 17.485306
530 0 1 12.017506 -20.287926 17.034103
531 0 1 12.895504 -19.926426 16.985306
532 0 1 12.661415 -18.955326 17.055496
533 0 1 12.762085 -18.627726 17.913208
534 0 1 13.667706 -18.387026 17.832001
535 0 1 14.560104 -18.246927 17.604599
536 0 1 14.987503 -17.916727 16.852402
537 0 1 14.149605 -17.862526 16.330002
538 0 1 14.650208 -18.168226 15.572998
539 0 1 15.488205 -18.178127 15.962006
540 0 1 15.901104 -17.686327 15.288803
541 0 1 16.669304 -17.134827 15.390594
542 0 1 16.882805 -17.334026 14.512695
543 0 1 17.780605 -16.910427 14.627106
544 0 1 17.803905 -16.202627 14.085800
545 0 1 17.011005 -16.226927 13.576004
546 0 1 16.713406 -15.261227 13.564194
547 0 1 17.006504 -14.298826 13.247894
548 0 1 17.867504 -13.919527 13.344406
549 0 1 18.302307 -13.142826 12.991608
550 0 1 17.835205 -12.970127 12.165207
551 0 1 17.167503 -12.255127 12.341095
552 0 1 17.003704 -11.314426 12.545700
553 0 1 16.695206 -11.474426 11.665497
554 0 1 17.020706 -10.613626 11.582306
555 0 1 17.181904 -9.691426 11.857895
556 0 1 17.347404 -8.767926 11.983597
557 0 1 16.840607 -8.839227 12.871597
558 0 1 17.360107 -7.997826 13.182297
559 0 1 17.293907 -8.280525 14.147507
560 0 1 18.111404 -8.656627 14.499405
561 0 1 18.222706 -9.497326 14.033005
562 0 1 19.079605 -9.512926 13.531006
563 0 1 19.110806 -10.181726 12.916199
564 0 1 18.901806 -9.404026 12.436905
565 0 1 19.320805 -8.556927 12.341400
566 0 1 18.698406 -8.153326 12.863495
567 0 1 18.639107 -7.162127 13.041306
568 0 1 19.165207 -6.573727 13.587296
569 0 1 18.547607 -6.801526 14.275696
570 0 1 17.657005 -6.722327 14.578400
571 0 1 16.724804 -7.030127 14.719498
572 0 1 15.996105 -6.680626 15.285400
573 0 1 15.214005 -6.495127 14.835098
574 0 1 15.634804 -5.621926 14.703003
575 0 1 14.874706 -5.161927 15.013596
576 0 1 14.351807 -4.379826 15.231293
577 0 1 13.414703 -4.581528 15.255997
578 0 1 13.796604 -5.051827 14.509903
579 0 1 13.002876 -5.339827 14.147797
580 0 1 12.471825 -4.565728 14.269394
581 0 1 11.620277 -5.065827 14.231903
582 0 1 10.749603 -4.769427 13.975601
583 0 1 10.044025 -4.942128 14.667603
584 0 1 9.135307 -4.967427 14.995605
585 0 1 9.464214 -4.153428 15.400803
586 0 1 9.722324 -3.994727 16.300797
587 0 1 9.885956 -4.901627 16.391495
588 0 1 9.094654 -5.453427 16.439606
589 0 1 8.863693 -4.627228 16.926804
590 0 1 8.676014 -3.740468 17.059601
591 0 1 8.292824 -2.901347 16.828598
592 0 1 8.496956 -2.291037 16.135605
593 0 1 9.223927 -2.260956 15.481003
594 0 1 9.183025 -2.331616 14.556702
595 0 1 9.286587 -2.971917 13.866196
596 0 1 8.974834 -3.494668 14.649796
597 0 1 8.139175 -3.260407 14.307999
598 0 1 7.381165 -3.894288 14.235596
599 0 1 6.806915 -4.595927 14.006393
600 0 1 6.306824 -5.215928 14.529495
601 0 1 5.689335 -4.554127 14.879303
602 0 1 6.091743 -3.904988 14.286896
603 0 1 6.600777 -3.541596 15.050507
604 0 1 5.810467 -3.035246 15.213806
605 0 1 5.374306 -3.134007 14.350800
606 0 1 4.407064 -2.792706 14.514099
607 0 1 4.602165 -3.258458 15.435608
608 0 1 4.018534 -3.754578 16.111099
609 0 1 3.563835 -4.565228 15.696503
610 0 1 2.908358 -4.030787 15.264893
611 0 1 2.640343 -4.794526 14.742599
612 0 1 2.852688 -5.090725 13.744598
613 0 1 3.517097 -5.522727 14.248306
614 0 1 3.867348 -6.144825 13.585602
615 0 1 4.452076 -5.590127 13.106094
616 0 1 5.425137 -5.469326 13.106293
617 0 1 6.312225 -5.183526 13.273895
618 0 1 6.193077 -4.803326 12.397705
619 0 1 5.663807 -4.145928 11.820801
620 0 1 5.753365 -3.131867 11.678101
621 0 1 5.882187 -2.310368 12.100098
622 0 1 6.900444 -2.395697 12.106598
623 0 1 7.338707 -3.206917 11.761200
624 0 1 8.003967 -2.927357 12.430603
625 0 1 8.457226 -3.400658 11.686493
626 0 1 9.007416 -3.568276 10.913101
627 0 1 9.910744 -3.566447 11.093994
628 0 1 10.793854 -3.368857 11.526901
629 0 1 11.212036 -2.576167 11.281998
630 0 1 11.739086 -2.156577 11.992599
631 0 1 10.858967 -1.692757 11.705902
632 0 1 9.983704 -1.487656 11.338806
633 0 1 9.100796 -1.093106 11.576004
634 0 1 9.167793 -0.129437 11.424408
635 0 1 8.410706 0.091354 11.957596
636 0 1 7.719234 0.124412 11.323898
637 0 1 6.834854 0.555273 11.015198
638 0 1 7.394836 1.396164 10.915298
639 0 1 8.249386 0.962204 10.750397
640 0 1 9.092686 0.485593 10.341400
641 0 1 9.855965 -0.142546 10.267502
642 0 1 8.976566 -0.537438 10.097794
643 0 1 8.162857 -0.489556 9.612732
644 0 1 7.622814 0.215334 9.992554
645 0 1 7.022377 0.814933 9.469040
646 0 1 6.112854 0.630884 9.760513
647 0 1 5.163754 0.527374 10.069107
648 0 1 4.766785 -0.195347 10.486694
649 0 1 4.917675 0.296142 11.276505
650 0 1 4.852154 1.276394 11.390305
651 0 1 5.400597 1.913463 11.861908
652 0 1 6.004276 1.909374 11.113693
653 0 1 5.986866 1.973974 10.172501
654 0 1 5.468327 1.873832 9.226715
655 0 1 4.723946 1.426323 8.880585
656 0 1 3.806520 1.347244 8.883270
657 0 1 2.887333 1.117664 8.855713
658 0 1 2.612087 1.682754 8.082336
659 0 1 1.901886 1.601673 8.636169
660 0 1 2.320934 1.838943 9.471939
661 0 1 2.131617 1.039453 9.879364
662 0 1 1.730036 0.387153 10.515900
663 0 1 1.880405 -0.518036 10.348602
664 0 1 0.921225 -0.755267 10.117996
665 0 1 0.298824 -0.316758 10.621002
666 0 1 0.618155 0.514324 10.214401
667 0 1 0.296515 1.086162 9.526672
668 0 1 -0.317224 1.854433 9.749710
669 0 1 -0.500935 2.781814 9.801453
670 0 1 -1.289265 2.903163 9.223953
671 0 1 -0.892994 3.721294 9.121353
672 0 1 0.014296 3.911493 9.026382
673 0 1 0.866936 3.601352 8.593185
674 0 1 1.095575 3.523414 7.648666
675 0 1 0.258144 3.118824 7.316849
676 0 1 0.133945 2.174472 7.238068
677 0 1 -0.151384 2.067853 6.365555
678 0 1 0.297005 1.636512 5.677261
679 0 1 0.424866 2.454824 5.160675
680 0 1 1.134445 2.171394 4.588654
681 0 1 1.683994 1.406904 4.248840
682 0 1 2.548002 1.908594 4.103149
683 0 1 3.090511 2.234844 4.827423
684 0 1 3.517622 2.839942 5.430756
685 0 1 4.093945 2.605463 6.196075
686 0 1 4.072824 3.612773 6.253052
687 0 1 4.431675 4.499223 6.039505
688 0 1 4.953033 5.183237 6.383118
689 0 1 4.703465 4.649663 7.183975
690 0 1 4.256096 5.519531 7.154816
691 0 1 3.506569 4.999904 6.824738
692 0 1 2.895046 5.117553 6.108429
693 0 1 2.080236 4.979608 5.606354
694 0 1 1.609255 4.162803 5.409424
695 0 1 1.356674 3.636444 4.638763
696 0 1 0.625736 3.242433 4.111542
697 0 1 0.188705 3.620754 3.310394
698 0 1 0.315155 4.536073 2.978195
699 0 1 1.143366 4.584583 3.537384
700 0 1 1.863346 4.724014 2.970016
701 0 1 1.397215 4.500713 2.181976
702 0 1 1.093124 5.232936 1.576904
703 0 1 1.741566 5.668617 0.996948
704 0 1 1.621096 5.606864 0.024719
705 0 1 0.813326 5.657165 -0.382889
706 0 1 0.128675 5.146503 -0.882751
707 0 1 -0.672195 5.614858 -1.001923
708 0 1 -0.667644 6.355270 -1.592514
709 0 1 -1.070515 6.166864 -2.425537
710 0 1 -1.561995 6.268833 -3.210281
711 0 1 -1.629314 5.597087 -3.866348
712 0 1 -1.359196 4.703933 -3.442581
713 0 1 -1.289675 4.480203 -2.525864
714 0 1 -1.024225 3.729204 -2.054260
715 0 1 -1.109884 2.737773 -1.984818
716 0 1 -0.968525 2.175033 -1.242111
717 0 1 -1.487995 2.227172 -0.413605
718 0 1 -1.986584 3.048563 -0.407501
719 0 1 -2.953905 3.122623 -0.361450
720 0 1 -3.169304 3.880823 0.200592
721 0 1 -3.450966 4.714853 0.701157
722 0 1 -3.087814 5.555423 0.526962
723 0 1 -3.226175 5.558202 1.482071
724 0 1 -3.696365 6.090555 2.127014
725 0 1 -3.340385 5.709783 2.868637
726 0 1 -3.955034 6.461433 3.043777
727 0 1 -4.417126 7.081684 3.640060
728 0 1 -4.387196 6.601400 4.447876
729 0 1 -4.144785 6.869293 5.353165
730 0 1 -3.754484 5.972261 5.307617
731 0 1 -3.080275 6.049221 6.017654
732 0 1 -3.551805 5.345993 6.308777
733 0 1 -4.565716 5.204799 6.455353
734 0 1 -4.994625 6.042547 6.422958
735 0 1 -5.351194 6.957874 6.450943
736 0 1 -6.263285 7.162822 6.214417
737 0 1 -5.908464 7.843544 6.726685
738 0 1 -6.059555 8.263245 7.681137
739 0 1 -5.901875 9.192986 7.509628
740 0 1 -5.078365 9.255074 7.011627
741 0 1 -4.247654 8.910122 7.227249
742 0 1 -3.347454 8.570343 7.238052
743 0 1 -3.548244 8.355434 6.347626
744 0 1 -3.138494 8.908764 5.707657
745 0 1 -2.433556 9.302525 6.201996
746 0 1 -3.183275 9.866203 6.397980
747 0 1 -2.587435 10.353855 5.662750
748 0 1 -2.841496 11.274033 5.404953
749 0 1 -3.501945 11.120075 6.137848
750 0 1 -3.994535 10.636585 5.466766
751 0 1 -4.120514 11.047913 4.587524
752 0 1 -4.956276 10.748745 4.191025
753 0 1 -5.801495 11.213562 4.326187
754 0 1 -6.004274 11.985264 4.856094
755 0 1 -6.781006 12.379753 4.379837
756 0 1 -5.929165 12.886475 4.179337
757 0 1 -5.088276 13.382122 4.208282
758 0 1 -4.674065 13.582764 4.995636
759 0 1 -4.354916 14.330376 4.426025
760 0 1 -3.392035 14.317974 4.738510
761 0 1 -2.888695 15.107674 4.872696
762 0 1 -2.928375 16.036972 4.433212
763 0 1 -2.457165 16.763573 4.788864
764 0 1 -3.202934 17.331974 5.101883
765 0 1 -3.150915 17.297173 6.103836
766 0 1 -2.341564 17.742073 6.035507
767 0 1 -2.148584 18.464073 5.464874
768 0 1 -2.861315 18.975574 5.961868
769 0 1 -2.243725 19.625874 6.280594
770 0 1 -2.235905 20.354675 5.656616
771 0 1 -2.945234 20.880375 6.080536
772 0 1 -2.235146 21.423775 6.433624
773 0 1 -2.642204 22.298973 6.643814
774 0 1 -3.295334 21.816673 7.095078
775 0 1 -3.861315 21.095673 7.340851
776 0 1 -3.919235 20.390675 7.907715
777 0 1 -4.512585 20.399574 8.635727
778 0 1 -4.721235 20.389572 9.584976
779 0 1 -5.515816 20.562275 9.156372
780 0 1 -5.459576 21.377472 8.643982
781 0 1 -6.095684 21.976875 8.229584
782 0 1 -5.809595 22.593971 8.927246
783 0 1 -6.692305 22.755272 8.653961
784 0 1 -6.881134 23.391075 9.444885
785 0 1 -7.365595 22.628273 9.684433
786 0 1 -7.883396 22.603775 10.476700