LAMMPS data file via MDAnalysis

        2000  atoms
        1999  bonds
           0  angles
           0  dihedrals
           0  impropers

           1  atom types
           1  bond types
           0  angle types
           0  dihedral types
           0  improper types

-30.5 30.5 xlo xhi
-30.5 30.5 ylo yhi
-233.5 233.5 zlo zhi


Masses

1 1.000000

Atoms

1 0 1 -4.472686 12.250749 39.173584
2 0 1 -3.921537 11.776547 38.501801
3 0 1 -3.127016 12.169347 38.865784
4 0 1 -2.512706 11.696248 39.510315
5 0 1 -2.363676 12.228848 40.281311
6 0 1 -3.188606 11.801747 40.519806
7 0 1 -3.528646 12.455647 41.215088
8 0 1 -3.086507 13.204648 40.826904
9 0 1 -3.983915 13.235250 40.459900
10 0 1 -4.770566 12.705945 40.710510
11 0 1 -4.931026 11.831048 40.391907
12 0 1 -5.051616 10.951547 40.684692
13 0 1 -5.583955 10.976747 39.831299
14 0 1 -5.539806 10.915349 38.907715
15 0 1 -5.312498 10.048947 38.540588
16 0 1 -4.829816 10.546849 37.911804
17 0 1 -4.511386 9.719049 37.618103
18 0 1 -4.736436 8.938146 37.026611
19 0 1 -3.957185 8.350247 37.216797
20 0 1 -4.474565 7.712475 37.813690
21 0 1 -5.124076 7.024888 37.694214
22 0 1 -4.799146 6.145718 37.450195
23 0 1 -4.259786 6.457745 36.651703
24 0 1 -3.701196 6.448567 37.421387
25 0 1 -2.772047 6.203267 37.196899
26 0 1 -2.650987 5.441247 36.591309
27 0 1 -2.905706 4.492497 36.680298
28 0 1 -2.825626 3.493088 36.845490
29 0 1 -3.721866 3.259495 37.242096
30 0 1 -4.253267 4.020268 37.188293
31 0 1 -4.950777 4.311097 37.821411
32 0 1 -4.182086 4.300045 38.309692
33 0 1 -3.645156 3.821007 38.942688
34 0 1 -3.215766 3.843907 39.794312
35 0 1 -3.980688 3.282056 40.107208
36 0 1 -4.373537 2.462949 40.048584
37 0 1 -4.697896 1.531289 40.159607
38 0 1 -5.576017 2.054147 40.023102
39 0 1 -6.391037 2.231778 40.604492
40 0 1 -6.659036 3.096898 40.322601
41 0 1 -6.820636 4.060818 40.257812
42 0 1 -6.666036 4.512948 41.091614
43 0 1 -6.621736 4.878727 41.984802
44 0 1 -7.612636 4.915276 42.042694
45 0 1 -8.263837 4.823666 41.348907
46 0 1 -8.082335 4.910477 40.413910
47 0 1 -7.744737 5.605797 39.812408
48 0 1 -8.493436 6.111687 40.366394
49 0 1 -8.532435 6.189877 39.385986
50 0 1 -8.251237 5.561657 38.657990
51 0 1 -8.250636 4.993248 37.821503
52 0 1 -9.016335 4.475358 38.286407
53 0 1 -9.875337 4.827168 38.681396
54 0 1 -10.814936 4.585316 38.825409
55 0 1 -11.265036 5.325478 39.363403
56 0 1 -11.769736 5.977547 39.887787
57 0 1 -11.946937 6.908165 39.788391
58 0 1 -12.353536 6.973576 40.622314
59 0 1 -13.344836 6.908757 40.494598
60 0 1 -14.124835 7.342278 40.919617
61 0 1 -13.499135 7.506157 41.607483
62 0 1 -14.192935 7.801335 42.373688
63 0 1 -13.310935 8.158849 42.568207
64 0 1 -13.130435 7.233639 42.731293
65 0 1 -13.228736 7.277699 43.695312
66 0 1 -12.494836 6.919697 44.244812
67 0 1 -12.834235 6.033925 44.198090
68 0 1 -13.327935 5.208859 44.256012
69 0 1 -14.169635 4.755898 44.150391
70 0 1 -13.939736 4.815468 45.028290
71 0 1 -13.909835 4.143586 45.646912
72 0 1 -14.577735 3.421048 45.413208
73 0 1 -14.951636 4.312058 45.404785
74 0 1 -15.290936 4.018227 46.230286
75 0 1 -14.635137 3.510926 46.712189
76 0 1 -15.175136 2.898488 47.218292
77 0 1 -15.190135 3.510327 48.000305
78 0 1 -14.568635 4.293747 47.806091
79 0 1 -14.058036 4.696496 48.507599
80 0 1 -13.323836 4.440365 49.001495
81 0 1 -13.646935 3.561375 48.880890
82 0 1 -13.850036 2.736726 48.526703
83 0 1 -13.263835 2.310227 49.249512
84 0 1 -13.628137 2.703149 50.094208
85 0 1 -14.130937 1.912808 49.847809
86 0 1 -13.627036 1.439648 50.551697
87 0 1 -14.080235 1.648576 51.387695
88 0 1 -13.657235 1.821767 52.169006
89 0 1 -13.511235 1.501809 53.090515
90 0 1 -12.493136 1.437077 53.210815
91 0 1 -12.204135 0.498437 53.120605
92 0 1 -11.268736 0.400037 53.401489
93 0 1 -10.352136 0.145428 53.194214
94 0 1 -9.900735 -0.236442 52.460083
95 0 1 -9.125836 -0.596301 52.007111
96 0 1 -9.031936 -0.920642 51.088196
97 0 1 -9.420537 -1.209911 50.196991
98 0 1 -8.820836 -1.276302 49.526093
99 0 1 -9.026036 -2.198081 49.527191
100 0 1 -9.025435 -2.357324 48.596191
101 0 1 -8.378636 -1.765678 48.276794
102 0 1 -7.811037 -2.479108 48.612915
103 0 1 -7.179937 -2.631339 49.309509
104 0 1 -6.834238 -3.562093 49.375793
105 0 1 -6.385335 -2.964738 48.696594
106 0 1 -5.436937 -3.041631 48.559387
107 0 1 -5.294286 -3.759473 49.244202
108 0 1 -4.623096 -3.219383 49.754211
109 0 1 -3.663536 -3.204683 49.749084
110 0 1 -3.125946 -2.438411 49.473389
111 0 1 -2.611997 -1.836129 50.019714
112 0 1 -2.428916 -1.516803 50.958984
113 0 1 -2.246816 -0.607784 50.826111
114 0 1 -1.345886 -0.773433 50.454712
115 0 1 -0.505327 -0.331043 50.772003
116 0 1 -0.371095 -1.018262 51.375610
117 0 1 0.002894 -1.043742 52.263794
118 0 1 -0.335977 -1.645192 52.986816
119 0 1 -0.487035 -1.007583 53.650299
120 0 1 0.395434 -1.139205 53.968384
121 0 1 1.175213 -1.669589 54.121704
122 0 1 1.412613 -1.587062 55.079590
123 0 1 0.812153 -1.909436 55.846893
124 0 1 0.581544 -1.065263 56.376404
125 0 1 0.665463 -0.219634 56.818604
126 0 1 0.362454 -0.806813 57.457611
127 0 1 0.084713 -0.088954 58.052887
128 0 1 0.250113 -0.859813 58.599213
129 0 1 -0.138586 -1.520448 57.908905
130 0 1 -0.862926 -0.891544 57.605804
131 0 1 -1.618656 -1.238338 58.139404
132 0 1 -2.335376 -0.982143 57.617401
133 0 1 -3.210426 -0.993034 58.036896
134 0 1 -3.816276 -1.781093 57.966187
135 0 1 -3.262987 -1.680946 57.119995
136 0 1 -3.535156 -2.520057 56.759491
137 0 1 -4.337705 -2.702398 56.328094
138 0 1 -3.927618 -3.563703 56.273712
139 0 1 -4.137706 -3.664104 55.354889
140 0 1 -3.190137 -3.906102 55.172485
141 0 1 -2.352006 -3.436773 55.059601
142 0 1 -2.211595 -3.694513 54.170197
143 0 1 -1.371116 -3.657123 54.681702
144 0 1 -0.918867 -4.374652 54.325287
145 0 1 -0.117345 -4.517494 54.793610
146 0 1 0.443003 -4.550712 53.947388
147 0 1 0.502373 -5.457174 53.653687
148 0 1 -0.213596 -6.139583 53.657898
149 0 1 -0.613746 -6.281633 54.516693
150 0 1 -0.943656 -5.929283 55.378784
151 0 1 -0.809946 -5.023433 55.566803
152 0 1 -1.131046 -4.545524 56.353210
153 0 1 -1.611736 -5.443073 56.266785
154 0 1 -1.796777 -6.450304 56.416199
155 0 1 -1.368337 -7.126083 55.955902
156 0 1 -0.474857 -6.808803 55.583099
157 0 1 -0.055505 -6.293104 56.272491
158 0 1 0.682314 -6.937114 56.194885
159 0 1 1.412493 -7.411113 56.730194
160 0 1 1.293564 -7.708753 57.608093
161 0 1 1.197323 -7.009964 58.303192
162 0 1 1.028615 -7.025493 59.233093
163 0 1 0.714835 -6.184453 59.481689
164 0 1 1.547493 -6.071283 58.891998
165 0 1 2.183774 -5.456003 58.586395
166 0 1 2.154025 -5.126144 59.538208
167 0 1 2.809193 -5.405664 60.163696
168 0 1 1.867373 -5.600112 60.359192
169 0 1 1.712143 -6.149982 61.137390
170 0 1 2.369244 -6.850233 61.226013
171 0 1 2.246884 -6.610773 62.146790
172 0 1 1.471404 -6.913593 62.605194
173 0 1 0.701134 -6.842233 62.054016
174 0 1 0.073294 -7.266624 62.564301
175 0 1 -0.623895 -7.829593 63.117310
176 0 1 -0.653097 -8.707482 63.526184
177 0 1 -1.557697 -8.755452 63.355499
178 0 1 -1.457687 -9.461734 64.065918
179 0 1 -1.417646 -8.906444 64.862305
180 0 1 -2.245237 -8.614944 65.276306
181 0 1 -1.797466 -7.694282 65.438599
182 0 1 -1.524946 -6.770704 65.646606
183 0 1 -1.134426 -7.156543 66.492188
184 0 1 -0.480627 -7.041103 67.291290
185 0 1 -0.277696 -7.915744 67.692291
186 0 1 -0.023456 -8.833623 67.372101
187 0 1 0.750794 -9.382022 67.046387
188 0 1 1.409693 -9.854232 67.541595
189 0 1 2.345564 -10.168233 67.289490
190 0 1 3.059824 -9.564692 67.561218
191 0 1 2.811543 -8.771983 67.094604
192 0 1 2.235453 -7.957963 67.058502
193 0 1 2.657664 -7.222414 66.553589
194 0 1 2.370453 -6.761524 65.736084
195 0 1 1.768645 -7.008564 65.012817
196 0 1 1.605343 -6.863834 64.082214
197 0 1 2.478934 -6.906343 64.339905
198 0 1 2.562514 -6.483963 63.466705
199 0 1 3.474705 -6.386333 63.349304
200 0 1 3.939787 -6.362663 64.163208
201 0 1 4.527035 -5.665002 63.940094
202 0 1 4.502205 -4.873264 63.429108
203 0 1 5.337615 -4.928524 63.778198
204 0 1 5.851294 -4.208873 64.272308
205 0 1 6.356322 -4.966114 64.106995
206 0 1 7.147032 -5.513032 64.361816
207 0 1 7.211043 -5.600004 63.390198
208 0 1 7.626715 -6.214073 62.797791
209 0 1 8.085933 -5.409553 62.806213
210 0 1 8.614924 -4.576442 62.621399
211 0 1 9.436965 -5.047243 62.821594
212 0 1 10.060256 -5.791954 62.933502
213 0 1 10.621753 -6.516033 63.139709
214 0 1 11.362266 -6.133943 62.691101
215 0 1 11.768004 -6.972333 62.353210
216 0 1 12.119716 -6.781303 61.519409
217 0 1 12.015853 -5.791044 61.629791
218 0 1 12.369376 -5.956314 60.758209
219 0 1 11.549193 -5.985782 60.264801
220 0 1 10.912364 -5.874414 59.567017
221 0 1 10.217246 -5.373683 59.237000
222 0 1 10.618865 -4.663013 58.714996
223 0 1 11.015822 -4.976743 57.887787
224 0 1 10.506946 -4.242553 57.613495
225 0 1 11.410506 -4.123283 57.330200
226 0 1 11.755492 -3.322902 57.642883
227 0 1 11.736793 -2.919603 56.709503
228 0 1 10.742354 -2.852901 56.578705
229 0 1 10.708674 -1.960037 56.926392
230 0 1 9.861835 -2.323798 57.195984
231 0 1 9.900424 -1.350547 57.466187
232 0 1 9.345183 -0.624072 57.631897
233 0 1 9.613433 0.256978 57.824890
234 0 1 10.438243 0.488858 58.214905
235 0 1 10.953395 1.168797 58.820892
236 0 1 11.761474 1.502446 59.218689
237 0 1 11.332664 2.293988 58.858002
238 0 1 11.147613 2.268788 57.910583
239 0 1 10.884585 2.380437 57.049896
240 0 1 11.479056 3.146237 57.236206
241 0 1 12.177646 2.846726 56.681091
242 0 1 12.922183 3.490765 56.657898
243 0 1 13.181785 3.504346 55.755707
244 0 1 13.207442 4.381356 55.390900
245 0 1 13.069835 5.047448 54.718292
246 0 1 13.022094 5.828438 54.053101
247 0 1 13.650035 6.574978 54.064911
248 0 1 14.438464 7.030606 54.449005
249 0 1 14.884364 6.554966 55.170593
250 0 1 15.213065 5.722088 54.797089
251 0 1 14.652965 4.944848 54.532593
252 0 1 14.407264 4.228257 55.151306
253 0 1 14.942863 3.968507 54.396606
254 0 1 14.938865 3.991868 53.462708
255 0 1 14.149886 3.429398 53.216309
256 0 1 13.860854 3.592656 52.334503
257 0 1 14.204856 3.928818 51.417206
258 0 1 13.696055 3.302666 50.892609
259 0 1 12.905044 3.660329 50.430511
260 0 1 12.924064 4.486516 50.038391
261 0 1 13.736175 4.830906 50.325012
262 0 1 14.305465 4.570057 49.584991
263 0 1 14.488063 3.715855 50.000488
264 0 1 14.345263 2.801518 50.087006
265 0 1 13.955783 1.986596 49.681000
266 0 1 13.175185 1.784386 50.201691
267 0 1 12.630565 0.977807 50.252808
268 0 1 11.902873 1.316426 49.762207
269 0 1 11.172675 1.044568 50.308899
270 0 1 10.962474 0.628136 49.478790
271 0 1 10.119193 0.036156 49.448090
272 0 1 10.373054 -0.597984 50.094910
273 0 1 10.422805 -0.100322 50.920197
274 0 1 9.630473 0.475796 50.822510
275 0 1 8.892154 0.080178 50.351410
276 0 1 8.678733 -0.180423 49.416107
277 0 1 8.535575 -0.385764 48.410797
278 0 1 9.129146 -1.087583 48.724487
279 0 1 8.886165 -2.050466 48.495392
280 0 1 9.110065 -1.534169 47.746796
281 0 1 9.603274 -1.667423 46.908813
282 0 1 9.882464 -1.358482 46.054291
283 0 1 9.294524 -0.625152 46.441803
284 0 1 9.498515 0.206826 46.945801
285 0 1 10.088054 0.953625 46.492188
286 0 1 10.029372 1.777177 47.047089
287 0 1 9.305453 2.383218 46.832886
288 0 1 8.332915 2.450906 46.910797
289 0 1 8.488284 3.445756 46.773987
290 0 1 9.350505 3.649728 47.244110
291 0 1 9.347754 4.514657 46.703400
292 0 1 9.506354 5.409508 46.680603
293 0 1 10.274005 5.033188 46.101013
294 0 1 10.473426 5.642369 46.823395
295 0 1 10.481833 6.534317 46.460083
296 0 1 10.904586 7.186188 45.932892
297 0 1 9.959716 7.407097 45.777100
298 0 1 9.065143 7.149277 46.016205
299 0 1 8.358584 7.647446 45.550598
300 0 1 7.643763 7.469128 45.023987
301 0 1 7.056185 8.213246 45.279602
302 0 1 6.327773 8.782948 44.975586
303 0 1 6.051035 8.872346 45.894196
304 0 1 6.896563 8.643247 46.396088
305 0 1 7.299834 9.523248 46.634399
306 0 1 7.743212 10.244447 46.177399
307 0 1 8.003345 9.557748 45.591797
308 0 1 7.668375 9.958249 44.773010
309 0 1 7.326033 9.395448 44.161987
310 0 1 7.975104 9.703145 43.445709
311 0 1 8.384234 10.332147 43.993500
312 0 1 7.773234 11.032048 43.686798
313 0 1 7.378516 11.715348 44.299194
314 0 1 7.882205 12.530149 43.986511
315 0 1 8.046664 13.495946 44.032196
316 0 1 7.725115 13.513547 43.115692
317 0 1 6.840323 13.707047 43.447601
318 0 1 6.733225 14.289247 42.660797
319 0 1 7.214564 15.058648 42.340790
320 0 1 6.926695 14.904546 41.467102
321 0 1 6.277754 14.601048 40.781403
322 0 1 5.381533 14.983247 40.841187
323 0 1 4.486691 14.629849 41.248413
324 0 1 3.588685 14.958547 41.379395
325 0 1 3.544049 15.892747 41.304993
326 0 1 3.263403 16.680546 40.862610
327 0 1 3.131934 17.051548 39.892609
328 0 1 3.845234 16.745346 39.220703
329 0 1 3.515101 17.463848 38.690796
330 0 1 3.304291 18.398846 38.428802
331 0 1 4.272042 18.354748 38.717590
332 0 1 5.009823 18.291046 38.100311
333 0 1 4.707613 19.123348 37.862915
334 0 1 5.437933 19.695446 37.896210
335 0 1 5.784113 20.505547 37.522705
336 0 1 6.439654 20.335346 36.819397
337 0 1 7.106883 21.013248 36.716705
338 0 1 7.822012 20.845249 37.395813
339 0 1 8.687236 20.881546 37.042908
340 0 1 8.134833 21.427746 36.466614
341 0 1 7.614954 21.127148 35.738190
342 0 1 7.122263 21.103848 34.861908
343 0 1 6.541205 20.763947 34.235687
344 0 1 7.166193 20.112049 33.935211
345 0 1 7.085063 19.233349 33.651184
346 0 1 6.241805 18.938648 33.368195
347 0 1 6.456763 18.693146 32.357117
348 0 1 7.012885 19.235645 31.647705
349 0 1 7.386103 20.061749 32.039307
350 0 1 8.002604 19.467945 32.392700
351 0 1 8.692843 19.787144 32.943604
352 0 1 8.472735 20.561146 32.423889
353 0 1 7.915274 21.336246 32.099396
354 0 1 8.079734 21.495449 33.064606
355 0 1 8.525523 22.352245 33.134094
356 0 1 8.709735 22.447746 32.186493
357 0 1 9.206252 23.170147 31.720398
358 0 1 9.749244 22.654747 32.262787
359 0 1 10.075934 22.503746 31.376495
360 0 1 10.711883 21.831448 31.379913
361 0 1 10.774795 21.480747 30.515991
362 0 1 11.656955 21.347248 30.753998
363 0 1 12.147113 21.913044 30.153107
364 0 1 12.236743 21.431946 29.263916
365 0 1 11.446425 21.351246 28.732391
366 0 1 10.786254 21.700146 28.005188
367 0 1 10.287704 21.517544 27.158600
368 0 1 9.634173 20.854649 26.997498
369 0 1 9.761054 20.842945 26.042114
370 0 1 9.527534 19.892849 25.724091
371 0 1 9.960765 19.025448 25.788910
372 0 1 10.854213 18.581249 25.851013
373 0 1 11.120975 17.827347 26.369507
374 0 1 11.647994 18.312847 27.048096
375 0 1 10.926795 18.142147 27.638306
376 0 1 10.645644 18.971645 28.084106
377 0 1 10.335834 18.686146 28.959595
378 0 1 9.723914 17.998146 29.297699
379 0 1 10.128425 17.220047 29.774109
380 0 1 10.172095 16.534046 30.400513
381 0 1 10.601523 15.902150 31.017303
382 0 1 9.931033 15.292249 31.186493
383 0 1 9.495574 14.702847 30.567291
384 0 1 8.653415 14.759648 30.435486
385 0 1 8.618175 15.669545 30.164795
386 0 1 8.663463 15.476346 29.174500
387 0 1 9.389396 15.243447 28.567993
388 0 1 9.645915 14.399648 28.661011
389 0 1 9.788486 13.554646 29.107910
390 0 1 9.940555 12.702249 29.554596
391 0 1 10.701636 12.169747 29.803802
392 0 1 10.401904 12.419747 30.702911
393 0 1 10.146274 11.580747 31.229614
394 0 1 9.438914 11.079450 30.721191
395 0 1 8.782622 10.439446 30.346802
396 0 1 8.020133 9.975747 30.860107
397 0 1 7.531035 10.240949 30.096191
398 0 1 6.805254 9.744748 29.690704
399 0 1 6.757224 9.945348 28.782806
400 0 1 6.179965 9.911748 28.078094
401 0 1 6.636225 9.399846 27.408691
402 0 1 6.306933 8.659146 27.888306
403 0 1 5.387713 8.368546 27.817291
404 0 1 5.576094 7.445755 27.933502
405 0 1 5.027276 7.410668 27.121307
406 0 1 4.084425 7.624146 27.289093
407 0 1 3.737525 6.796788 26.910614
408 0 1 3.962426 7.106495 26.049194
409 0 1 3.733956 7.758816 25.286102
410 0 1 2.957293 8.289845 25.183502
411 0 1 2.681244 9.160447 25.646606
412 0 1 2.008223 8.764947 25.155884
413 0 1 1.344513 9.420445 25.376495
414 0 1 0.573985 9.915147 25.681488
415 0 1 -0.150547 9.874547 24.951111
416 0 1 0.499363 9.570447 24.318787
417 0 1 0.206173 8.678746 24.064392
418 0 1 0.802643 7.957745 23.900787
419 0 1 0.012894 7.448475 23.935791
420 0 1 0.143984 6.990986 24.778015
421 0 1 -0.356197 6.155415 24.534210
422 0 1 -1.288356 5.942547 24.173401
423 0 1 -1.720706 6.685795 23.775085
424 0 1 -2.607986 6.459496 23.515900
425 0 1 -2.765565 5.556786 23.375702
426 0 1 -2.390907 5.613698 22.477997
427 0 1 -2.531957 4.748906 22.846802
428 0 1 -2.495136 3.908429 23.320984
429 0 1 -1.667297 4.080369 23.800201
430 0 1 -2.303916 4.759839 23.966003
431 0 1 -2.378625 5.615456 24.329803
432 0 1 -2.566917 5.254807 25.250397
433 0 1 -2.251775 5.433728 26.202606
434 0 1 -2.857307 4.815697 26.637085
435 0 1 -3.401676 4.414036 25.927185
436 0 1 -4.179887 3.848065 25.769897
437 0 1 -4.918565 3.666676 26.441101
438 0 1 -5.179737 2.990025 25.890015
439 0 1 -5.251977 2.700196 24.926697
440 0 1 -4.918537 3.293408 24.261414
441 0 1 -5.236825 2.973965 23.366089
442 0 1 -5.515367 3.959668 23.306000
443 0 1 -4.901117 4.550389 23.716400
444 0 1 -5.246267 5.469368 23.598297
445 0 1 -5.929536 5.866616 23.044098
446 0 1 -6.445636 5.059327 23.130188
447 0 1 -6.481836 4.453797 22.303497
448 0 1 -7.307336 4.726956 21.878296
449 0 1 -7.652135 4.431225 21.068207
450 0 1 -8.331235 4.500699 20.357498
451 0 1 -8.748734 3.891488 19.784500
452 0 1 -9.348435 3.409558 20.413803
453 0 1 -9.768537 3.027936 21.143799
454 0 1 -9.802537 2.218686 20.567902
455 0 1 -10.167136 1.689027 19.836502
456 0 1 -9.696935 1.300618 19.082306
457 0 1 -8.737535 1.426106 19.122192
458 0 1 -8.442037 0.556958 18.885803
459 0 1 -8.714936 -0.181884 18.281204
460 0 1 -8.300237 -0.506324 17.494904
461 0 1 -9.100036 -0.924102 17.064102
462 0 1 -8.571637 -1.748140 17.024704
463 0 1 -8.205436 -2.635724 17.258102
464 0 1 -8.305337 -2.926315 18.163803
465 0 1 -7.412736 -2.861263 18.518204
466 0 1 -6.645736 -2.886861 19.005905
467 0 1 -6.789136 -3.661582 18.446106
468 0 1 -5.906236 -3.286763 18.149796
469 0 1 -5.623096 -2.977405 17.311295
470 0 1 -5.301197 -2.600982 16.550995
471 0 1 -6.050136 -1.976224 16.729706
472 0 1 -6.173536 -1.465385 15.907196
473 0 1 -5.224775 -1.378204 16.102905
474 0 1 -5.522087 -0.792413 16.768707
475 0 1 -5.290266 -1.251968 17.576294
476 0 1 -4.364316 -1.109634 17.626404
477 0 1 -4.308755 -0.236491 17.159805
478 0 1 -4.746076 -0.015373 17.988495
479 0 1 -4.011575 -0.222423 18.651505
480 0 1 -3.210447 -0.766423 18.711899
481 0 1 -2.340776 -1.002723 18.873795
482 0 1 -2.544437 -1.855281 18.339203
483 0 1 -2.622217 -2.778863 18.614899
484 0 1 -2.189416 -2.470767 19.394806
485 0 1 -3.088476 -2.627198 19.822495
486 0 1 -2.442426 -3.090154 20.195496
487 0 1 -1.899057 -2.555085 20.774002
488 0 1 -1.301006 -1.864232 20.767502
489 0 1 -1.036516 -1.465553 21.586105
490 0 1 -1.555486 -1.119243 22.317200
491 0 1 -1.379306 -0.606014 23.062012
492 0 1 -1.987897 -0.734132 23.809998
493 0 1 -2.836797 -0.230102 23.848206
494 0 1 -3.046136 -0.087135 24.747711
495 0 1 -2.144916 0.155839 25.041107
496 0 1 -2.146177 0.043198 25.963806
497 0 1 -1.246797 0.331227 25.858307
498 0 1 -0.837886 -0.522193 25.802094
499 0 1 -1.055866 -0.403812 26.745300
500 0 1 -0.113416 0.036217 26.594788
501 0 1 0.181815 -0.869973 26.309296
502 0 1 0.963645 -1.227588 26.039490
503 0 1 0.682324 -1.943563 26.557404
504 0 1 1.374203 -1.576080 27.134399
505 0 1 2.152243 -1.222211 27.695801
506 0 1 1.808983 -0.636924 28.457001
507 0 1 0.966633 -0.375102 28.901611
508 0 1 1.009734 -1.307269 29.098511
509 0 1 0.917534 -0.774343 29.869904
510 0 1 0.911524 0.165665 29.900909
511 0 1 0.701844 -0.129314 30.826416
512 0 1 1.398444 -0.734582 31.000214
513 0 1 2.204064 -0.252445 30.981995
514 0 1 2.917294 -0.225444 31.631592
515 0 1 2.974194 -1.186483 31.541412
516 0 1 3.252894 -1.821670 30.890900
517 0 1 3.929078 -1.876128 30.208801
518 0 1 3.578036 -2.034841 29.332886
519 0 1 3.425236 -1.398650 28.676514
520 0 1 4.025401 -0.749294 28.955994
521 0 1 4.060174 0.163628 28.585297
522 0 1 3.688891 0.798535 27.912415
523 0 1 4.423789 0.921376 27.260406
524 0 1 3.866032 1.714768 27.316986
525 0 1 3.217345 2.373708 26.945190
526 0 1 3.265713 3.362756 26.732910
527 0 1 3.596720 3.808228 27.538605
528 0 1 3.398871 4.752778 27.327911
529 0 1 3.306147 5.641545 27.011414
530 0 1 2.448403 5.237477 27.048889
531 0 1 2.239424 4.369545 27.397797
532 0 1 1.484753 4.652836 27.895905
533 0 1 0.810223 5.278347 28.016998
534 0 1 -0.003456 5.586888 27.621613
535 0 1 -0.215547 4.655797 27.888794
536 0 1 -0.806476 3.955056 28.144806
537 0 1 -0.034767 3.608666 27.610901
538 0 1 0.792603 3.444257 28.052612
539 0 1 1.132134 2.713067 27.463501
540 0 1 0.662634 1.976716 27.042999
541 0 1 1.381154 1.543729 27.538788
542 0 1 2.175093 1.962868 27.142487
543 0 1 1.791443 2.154477 26.268494
544 0 1 0.924365 2.136609 25.813599
545 0 1 0.436333 2.938946 25.720215
546 0 1 -0.090295 2.224618 25.364807
547 0 1 -0.584436 2.393948 26.148102
548 0 1 -1.325197 2.940045 26.013397
549 0 1 -1.224836 3.304436 26.907196
550 0 1 -1.878986 3.445378 27.594116
551 0 1 -1.746366 4.311017 28.140991
552 0 1 -1.752326 5.114136 27.719604
553 0 1 -1.691206 5.881505 27.193115
554 0 1 -1.999437 6.728085 26.924011
555 0 1 -2.882276 7.049458 27.051605
556 0 1 -2.468227 7.773827 27.458099
557 0 1 -2.870866 7.183037 28.079010
558 0 1 -3.467565 7.833226 28.273315
559 0 1 -4.022077 8.325547 28.856812
560 0 1 -4.375738 8.610646 29.721191
561 0 1 -5.242845 9.047547 29.580109
562 0 1 -5.352148 8.489549 30.359192
563 0 1 -5.300115 7.880448 31.067902
564 0 1 -6.179636 8.160249 31.229797
565 0 1 -6.227537 7.669217 30.383789
566 0 1 -5.973337 6.771897 30.181396
567 0 1 -5.511467 5.816578 30.013916
568 0 1 -6.331336 5.445427 29.679901
569 0 1 -6.693235 5.486355 28.738007
570 0 1 -7.493135 5.932038 28.363495
571 0 1 -7.070936 6.784436 28.390198
572 0 1 -7.377536 7.613339 28.098389
573 0 1 -8.005734 8.204846 28.572113
574 0 1 -7.731336 8.804849 29.292999
575 0 1 -8.608235 9.399945 29.350708
576 0 1 -8.340337 10.254746 28.989105
577 0 1 -9.199336 10.611749 28.842804
578 0 1 -10.160235 10.381749 28.802490
579 0 1 -11.065736 10.184846 28.994995
580 0 1 -11.517436 10.679448 29.750214
581 0 1 -11.786635 11.025746 28.887299
582 0 1 -11.725936 10.434346 28.167603
583 0 1 -12.573936 10.199346 28.477386
584 0 1 -13.585536 10.185948 28.454987
585 0 1 -14.272536 10.191449 27.752686
586 0 1 -14.658937 9.657445 27.056488
587 0 1 -15.079835 9.009847 27.652313
588 0 1 -15.677735 8.821748 28.447906
589 0 1 -16.100536 9.151845 29.242889
590 0 1 -15.688336 9.695848 29.990692
591 0 1 -16.162737 10.120046 30.757690
592 0 1 -16.958637 10.771749 30.967499
593 0 1 -16.198936 11.412045 30.838684
594 0 1 -16.247538 12.406049 30.640594
595 0 1 -16.082836 13.092446 31.321899
596 0 1 -16.399637 13.964448 31.061890
597 0 1 -15.955035 13.996747 30.158905
598 0 1 -15.461835 13.283345 29.647614
599 0 1 -14.629935 13.758550 29.966187
600 0 1 -13.842536 13.543546 29.451691
601 0 1 -13.096036 13.834046 28.924988
602 0 1 -13.399035 13.586049 28.073395
603 0 1 -12.456836 13.681447 28.084991
604 0 1 -11.822135 13.545949 27.362915
605 0 1 -10.950636 13.155446 27.222290
606 0 1 -10.126636 13.021649 26.797302
607 0 1 -9.485436 13.752248 26.721985
608 0 1 -8.800836 13.078946 26.726105
609 0 1 -8.604337 12.697747 25.914795
610 0 1 -9.100736 12.788548 25.140503
611 0 1 -8.558137 12.727948 24.347809
612 0 1 -9.427636 13.131246 24.062592
613 0 1 -9.807435 14.025548 23.813812
614 0 1 -10.294836 13.695149 24.584991
615 0 1 -11.202236 13.773549 24.327789
616 0 1 -10.982436 13.981748 23.380615
617 0 1 -11.422436 14.443048 22.648895
618 0 1 -11.681335 14.964650 21.901001
619 0 1 -11.444036 14.018949 21.628204
620 0 1 -11.058136 14.341748 20.815201
621 0 1 -10.424935 14.711446 21.393799
622 0 1 -10.654136 15.394948 21.995499
623 0 1 -11.036336 16.067745 22.643616
624 0 1 -10.523736 16.664246 22.033401
625 0 1 -10.913536 16.358944 21.121506
626 0 1 -11.169636 15.425847 20.765808
627 0 1 -11.890935 15.919847 21.147308
628 0 1 -12.776937 15.539048 21.155502
629 0 1 -13.319636 14.751645 21.425003
630 0 1 -13.308036 14.144547 20.704498
631 0 1 -14.035136 13.596448 20.970200
632 0 1 -13.855836 12.830647 21.464203
633 0 1 -14.733935 12.752648 21.767792
634 0 1 -14.742335 11.885247 21.350494
635 0 1 -14.310836 11.317349 22.111298
636 0 1 -14.165936 10.548646 21.456894
637 0 1 -13.469535 10.472348 20.751602
638 0 1 -12.979136 10.652146 19.928696
639 0 1 -13.416335 10.778150 19.023804
640 0 1 -13.892636 11.441846 19.538300
641 0 1 -13.606036 12.384946 19.503799
642 0 1 -13.483336 12.234246 18.548492
643 0 1 -14.226935 12.826749 18.721207
644 0 1 -14.534936 13.459046 17.960495
645 0 1 -13.661336 13.788648 17.840393
646 0 1 -13.484336 14.685445 18.095398
647 0 1 -14.167735 15.270448 18.468002
648 0 1 -13.483735 15.053246 19.102798
649 0 1 -13.960736 14.907948 19.914703
650 0 1 -14.723336 14.584249 19.449402
651 0 1 -15.231036 14.048749 18.839096
652 0 1 -15.629735 14.691247 18.166901
653 0 1 -16.606537 14.675550 18.164307
654 0 1 -16.750237 15.663846 18.112396
655 0 1 -17.566236 15.193048 17.968292
656 0 1 -17.820538 14.679349 17.145096
657 0 1 -18.178637 14.213647 17.891098
658 0 1 -18.731037 13.781148 17.246902
659 0 1 -18.559937 12.935048 17.786407
660 0 1 -18.762037 12.055848 17.429504
661 0 1 -19.275236 11.462850 16.903000
662 0 1 -19.245836 11.010747 16.041595
663 0 1 -19.244837 10.391049 15.321396
664 0 1 -18.756536 9.692246 15.745102
665 0 1 -17.860638 9.666745 16.000504
666 0 1 -17.464937 10.395947 15.476395
667 0 1 -17.064737 11.009248 14.792999
668 0 1 -16.656937 10.380147 14.257507
669 0 1 -16.606237 10.561948 13.322906
670 0 1 -15.775537 10.171746 13.620895
671 0 1 -15.011735 10.251149 14.134903
672 0 1 -14.532136 10.051248 13.352905
673 0 1 -13.604335 9.740548 13.351303
674 0 1 -12.767436 9.681546 12.898193
675 0 1 -13.227536 9.019448 12.372803
676 0 1 -12.962535 8.032445 12.348206
677 0 1 -12.164336 8.563348 12.678696
678 0 1 -11.364936 8.613946 13.208496
679 0 1 -11.292736 9.527547 13.384094
680 0 1 -10.913236 9.100247 12.465805
681 0 1 -10.277236 9.836148 12.721405
682 0 1 -9.957437 10.705647 12.413208
683 0 1 -9.157636 10.428349 12.827805
684 0 1 -8.579736 10.753049 13.462601
685 0 1 -7.994836 10.157346 12.949493
686 0 1 -8.102136 9.455449 13.546097
687 0 1 -7.362337 9.019246 14.017395
688 0 1 -6.670236 8.622148 13.506805
689 0 1 -6.939935 7.690167 13.298599
690 0 1 -6.198236 7.431408 13.908096
691 0 1 -6.790235 7.909947 14.548004
692 0 1 -6.615335 6.999947 14.975800
693 0 1 -6.492635 6.271908 14.352707
694 0 1 -7.443037 6.206906 14.214600
695 0 1 -7.418237 5.653729 15.017395
696 0 1 -8.024137 4.915436 15.247192
697 0 1 -8.775235 4.813015 15.895096
698 0 1 -9.060435 5.665848 16.313705
699 0 1 -9.938436 5.342957 16.270401
700 0 1 -10.713635 5.136406 15.726105
701 0 1 -10.393636 4.248066 15.417206
702 0 1 -10.859336 4.778218 14.713394
703 0 1 -10.394436 5.481625 14.233002
704 0 1 -9.819337 5.791829 14.935303
705 0 1 -9.280736 6.461617 14.488998
706 0 1 -8.404635 6.862317 14.593597
707 0 1 -8.495736 7.709218 15.053192
708 0 1 -8.640635 7.287808 15.908096
709 0 1 -8.193234 7.141179 16.802597
710 0 1 -7.507436 6.758156 17.367096
711 0 1 -8.260236 6.407258 17.876892
712 0 1 -8.830235 6.149807 18.557495
713 0 1 -9.218236 6.749718 17.899200
714 0 1 -9.975636 6.304368 17.473297
715 0 1 -9.861735 7.085125 16.875702
716 0 1 -10.204836 7.575634 17.636398
717 0 1 -9.349336 7.944848 17.880707
718 0 1 -8.424235 7.954148 18.100403
719 0 1 -8.295537 7.510178 18.920395
720 0 1 -7.895837 6.699597 19.342407
721 0 1 -7.630336 7.378827 20.033905
722 0 1 -6.931737 7.862645 20.558395
723 0 1 -6.133136 7.548638 20.048904
724 0 1 -5.505577 7.418007 19.362396
725 0 1 -5.850637 6.934067 18.560806
726 0 1 -5.276376 6.181248 18.359406
727 0 1 -5.395635 5.872147 19.242401
728 0 1 -4.648826 5.338429 19.358093
729 0 1 -3.796827 5.707386 19.154907
730 0 1 -3.840375 5.271027 20.033295
731 0 1 -3.072357 5.106106 20.592697
732 0 1 -2.336015 5.670308 20.384094
733 0 1 -1.836526 5.853997 19.528305
734 0 1 -0.930366 5.460248 19.731995
735 0 1 -0.317926 5.920098 19.218506
736 0 1 -0.631486 5.703728 18.343994
737 0 1 -0.238666 6.355698 17.879196
738 0 1 0.587594 6.016537 18.331802
739 0 1 1.471224 6.418557 18.176605
740 0 1 2.376454 6.280316 18.529297
741 0 1 3.236294 5.978886 18.875198
742 0 1 3.358237 5.742226 17.944504
743 0 1 3.348488 4.807038 17.702698
744 0 1 3.034585 5.110455 16.772903
745 0 1 2.937443 4.599358 15.920898
746 0 1 3.791031 4.139977 15.877594
747 0 1 4.782773 4.322339 16.191299
748 0 1 4.307099 3.843377 16.936707
749 0 1 4.543501 3.478806 17.779099
750 0 1 5.352133 3.909116 18.084000
751 0 1 5.833464 3.941888 17.249802
752 0 1 6.755202 3.391068 17.319305
753 0 1 7.032805 3.160058 18.229294
754 0 1 7.762743 2.612939 18.353394
755 0 1 8.099036 2.708646 19.299805
756 0 1 8.123504 3.655156 19.381699
757 0 1 8.994056 3.459798 19.776001
758 0 1 9.772124 3.669446 20.251999
759 0 1 9.616145 2.678147 20.130997
760 0 1 9.409343 1.768128 20.379898
761 0 1 9.312102 1.114129 19.740097
762 0 1 9.570655 0.316327 20.151505
763 0 1 9.172202 -0.588203 20.274399
764 0 1 9.931834 -1.120673 20.256500
765 0 1 10.025104 -1.377349 21.162598
766 0 1 11.014846 -1.408727 21.421600
767 0 1 11.161544 -1.883855 20.507706
768 0 1 11.329345 -2.509448 19.819702
769 0 1 11.856833 -3.152723 19.287506
770 0 1 11.671885 -3.961004 18.841095
771 0 1 11.302073 -3.584872 18.064804
772 0 1 11.654643 -4.362752 17.470596
773 0 1 11.638385 -4.525844 16.523300
774 0 1 10.995543 -3.910142 16.458496
775 0 1 10.127074 -3.734382 16.907501
776 0 1 9.658954 -4.560634 16.793396
777 0 1 8.963443 -4.649763 17.426208
778 0 1 8.149173 -4.215843 17.600708
779 0 1 7.480505 -3.582214 17.983597
780 0 1 8.244452 -3.021041 17.740097
781 0 1 7.439314 -2.644941 17.472198
782 0 1 6.879794 -3.301183 17.087296
783 0 1 6.014803 -3.144403 16.778305
784 0 1 5.156981 -3.235843 17.036697
785 0 1 4.701312 -2.833398 17.763504
786 0 1 4.274107 -3.596763 17.415009
787 0 1 4.057572 -3.714223 18.306595
788 0 1 4.475804 -3.793283 19.194199
789 0 1 5.413304 -3.629394 19.256500
790 0 1 5.428725 -3.894452 18.381592
791 0 1 5.735964 -4.355342 17.497406
792 0 1 5.932513 -4.310434 16.572601
793 0 1 4.951117 -4.267263 16.673294
794 0 1 4.682713 -4.581213 15.728195
795 0 1 4.306368 -5.175243 15.091904