LAMMPS data file via MDAnalysis

        2000  atoms
        1999  bonds
           0  angles
           0  dihedrals
           0  impropers

           1  atom types
           1  bond types
           0  angle types
           0  dihedral types
           0  improper types

-30.5 30.5 xlo xhi
-30.5 30.5 ylo yhi
-233.5 233.5 zlo zhi


Masses

1 1.000000

Atoms

1 0 1 -7.759484 -4.109886 64.854706
2 0 1 -7.769743 -5.027959 64.533081
3 0 1 -8.487815 -5.694253 64.226318
4 0 1 -8.007804 -6.024536 63.441498
5 0 1 -8.629985 -6.066808 62.688110
6 0 1 -7.778805 -6.458465 62.410004
7 0 1 -7.039013 -6.024566 62.115112
8 0 1 -7.097424 -6.357925 61.233215
9 0 1 -6.200024 -6.411195 61.413513
10 0 1 -5.430672 -6.429164 60.936798
11 0 1 -5.333418 -6.048501 60.034607
12 0 1 -5.744305 -5.196296 60.314209
13 0 1 -4.808085 -5.100900 60.227783
14 0 1 -4.213229 -5.681633 60.645691
15 0 1 -4.193505 -4.795816 61.007690
16 0 1 -4.502362 -3.876594 60.669098
17 0 1 -4.454335 -3.921865 61.569885
18 0 1 -4.882641 -3.206846 62.030609
19 0 1 -5.479977 -2.725866 62.617493
20 0 1 -6.244174 -2.515714 62.103790
21 0 1 -6.391175 -1.835916 62.803894
22 0 1 -5.715804 -1.552026 62.208710
23 0 1 -5.475785 -1.721864 61.345398
24 0 1 -5.374398 -0.754766 61.249695
25 0 1 -4.870059 -0.699224 60.361298
26 0 1 -4.783545 -0.103925 59.539307
27 0 1 -3.941578 0.297266 59.839111
28 0 1 -3.583045 0.706545 60.659393
29 0 1 -3.370545 1.651724 60.403015
30 0 1 -2.803555 2.450373 60.657898
31 0 1 -2.337853 2.761927 59.873199
32 0 1 -2.092423 2.564547 58.906311
33 0 1 -1.527012 2.259684 58.166687
34 0 1 -1.609345 1.427317 58.652802
35 0 1 -2.327553 1.758955 59.253784
36 0 1 -3.189583 1.824427 58.755005
37 0 1 -3.264945 2.760535 58.626099
38 0 1 -3.973412 2.956125 57.979095
39 0 1 -4.278662 2.851343 57.043488
40 0 1 -3.960553 3.665755 56.666016
41 0 1 -4.098851 4.270316 55.945404
42 0 1 -3.590655 5.066393 56.004211
43 0 1 -3.015004 5.370493 55.314392
44 0 1 -2.422825 5.920195 54.759705
45 0 1 -2.060303 6.229094 53.931396
46 0 1 -2.240815 7.181494 53.881104
47 0 1 -3.004563 7.250296 54.433899
48 0 1 -3.066834 7.356997 55.374084
49 0 1 -2.283593 6.812396 55.202789
50 0 1 -1.483803 6.226893 55.338409
51 0 1 -1.619004 6.307696 56.301697
52 0 1 -2.136364 6.911395 56.793488
53 0 1 -3.063134 6.561495 56.825409
54 0 1 -2.857945 5.678294 57.169006
55 0 1 -2.818654 4.943797 57.750183
56 0 1 -2.302643 5.527396 58.307190
57 0 1 -1.494343 5.795195 57.918396
58 0 1 -1.087445 4.977194 57.724304
59 0 1 -0.827786 4.095305 57.347687
60 0 1 -0.497895 3.350775 57.950104
61 0 1 0.248348 3.911143 57.908386
62 0 1 0.394645 3.933775 58.806305
63 0 1 -0.202633 3.260084 59.208099
64 0 1 0.190444 3.265524 60.113403
65 0 1 -0.645024 3.640024 60.102417
66 0 1 -0.870015 4.622004 60.335083
67 0 1 -1.138134 4.497645 61.253784
68 0 1 -0.637314 5.172793 61.704102
69 0 1 -0.259526 4.298235 61.952606
70 0 1 0.171455 4.054404 62.840515
71 0 1 0.596656 4.783686 63.296814
72 0 1 1.198017 5.291697 63.818909
73 0 1 1.139575 6.201796 64.161011
74 0 1 1.833637 6.881094 64.064209
75 0 1 1.303455 7.343695 63.356598
76 0 1 0.379547 7.407496 63.625092
77 0 1 -0.250866 7.897295 63.113190
78 0 1 -0.576184 7.618796 62.238495
79 0 1 -0.052594 6.933394 61.908905
80 0 1 0.230167 6.454997 62.688416
81 0 1 0.129707 5.595095 63.111816
82 0 1 -0.697133 5.201396 62.787811
83 0 1 -1.279553 5.960795 63.100800
84 0 1 -2.169854 6.230494 63.049713
85 0 1 -2.686726 5.905993 63.835205
86 0 1 -3.528084 6.372694 63.944214
87 0 1 -4.378006 6.205096 64.484589
88 0 1 -4.675030 5.506995 63.845703
89 0 1 -4.789628 6.100596 63.136993
90 0 1 -4.483147 6.421793 62.218201
91 0 1 -4.005297 7.194495 62.676605
92 0 1 -4.826592 7.845194 62.960602
93 0 1 -5.554419 7.961894 62.331512
94 0 1 -5.533772 8.871393 62.504211
95 0 1 -4.852332 9.517397 62.965302
96 0 1 -5.205664 9.609797 63.832397
97 0 1 -5.883194 8.930796 63.640411
98 0 1 -5.486159 8.356596 64.342407
99 0 1 -4.766098 8.029295 64.874298
100 0 1 -5.503911 7.346697 64.968597
101 0 1 -5.421736 6.785494 64.199707
102 0 1 -6.379384 6.917994 64.117310
103 0 1 -6.709605 7.340895 64.921295
104 0 1 -6.577155 8.221495 65.393097
105 0 1 -6.293524 7.843195 66.225586
106 0 1 -5.487282 8.272795 65.931702
107 0 1 -5.009009 9.093596 65.825500
108 0 1 -5.221735 9.204596 66.759705
109 0 1 -4.725239 10.103594 66.760681
110 0 1 -5.420050 10.554895 67.140686
111 0 1 -4.960278 10.825895 68.023499
112 0 1 -4.051461 10.765795 67.671509
113 0 1 -3.524235 11.404993 67.120911
114 0 1 -3.898604 10.759996 66.541107
115 0 1 -3.596394 10.833494 65.642700
116 0 1 -3.532774 11.809595 65.510986
117 0 1 -3.091515 12.543894 66.014008
118 0 1 -2.763203 13.462095 66.086487
119 0 1 -3.759099 13.579794 66.198608
120 0 1 -4.584101 13.975794 66.510406
121 0 1 -5.441454 13.647493 66.848602
122 0 1 -5.885554 14.458193 66.630981
123 0 1 -5.603096 15.018995 65.934814
124 0 1 -6.438935 14.716692 65.561584
125 0 1 -6.102194 13.956392 65.162903
126 0 1 -6.309025 13.727396 64.213989
127 0 1 -7.204125 14.095697 63.930298
128 0 1 -7.725214 13.500193 63.271393
129 0 1 -7.788044 13.255995 62.368286
130 0 1 -7.735585 12.326097 62.296997
131 0 1 -7.080504 12.727297 61.733307
132 0 1 -6.488684 13.484697 61.759399
133 0 1 -5.750344 14.200994 61.746490
134 0 1 -5.840935 14.636694 60.890289
135 0 1 -5.049284 15.177393 61.072815
136 0 1 -5.556340 15.374395 61.848511
137 0 1 -5.584919 14.982096 62.827209
138 0 1 -4.794690 14.972795 63.391785
139 0 1 -3.939757 15.005194 62.905487
140 0 1 -3.945923 15.543695 63.735992
141 0 1 -2.951344 15.298594 63.704407
142 0 1 -2.136685 15.100496 63.278503
143 0 1 -1.713013 14.346895 63.601288
144 0 1 -0.790906 14.439493 63.801300
145 0 1 -0.323002 14.516294 63.003387
146 0 1 0.318477 14.204996 62.322815
147 0 1 -0.310986 13.482393 62.379211
148 0 1 -0.083645 12.758692 61.770905
149 0 1 0.429336 12.027094 62.007812
150 0 1 1.085727 12.023493 61.349701
151 0 1 1.723106 11.890497 60.694611
152 0 1 1.981388 11.003195 60.988800
153 0 1 2.198658 10.769094 60.043213
154 0 1 3.170166 10.623796 59.922394
155 0 1 2.734237 9.810495 60.210907
156 0 1 2.624317 8.836496 60.292114
157 0 1 2.820346 8.781496 61.236908
158 0 1 3.581886 8.205595 61.080811
159 0 1 4.290195 7.643397 61.458893
160 0 1 5.066295 8.053595 61.882294
161 0 1 5.414073 8.166494 60.992889
162 0 1 5.787376 9.078096 60.849609
163 0 1 6.700775 8.973394 61.048004
164 0 1 7.416873 9.482294 60.635193
165 0 1 7.581176 9.242495 59.716309
166 0 1 7.733577 9.262796 58.724213
167 0 1 6.920677 9.750395 58.581787
168 0 1 6.118274 9.182093 58.499298
169 0 1 5.770477 9.824594 59.132111
170 0 1 5.476978 10.633196 59.616302
171 0 1 5.047428 11.218493 58.969208
172 0 1 5.851875 10.845392 58.581787
173 0 1 6.383174 10.614794 57.747986
174 0 1 5.639175 10.105494 57.374207
175 0 1 5.622676 9.934195 56.458008
176 0 1 5.004825 9.267595 56.137787
177 0 1 4.168117 9.707094 56.347198
178 0 1 3.293643 9.643595 56.594910
179 0 1 3.362934 9.622797 57.562195
180 0 1 2.741626 10.319494 57.527313
181 0 1 2.448337 10.983995 56.899597
182 0 1 1.596935 10.503695 56.934204
183 0 1 0.950027 11.184397 57.096802
184 0 1 0.931446 11.965593 56.448090
185 0 1 1.590106 12.567896 55.973389
186 0 1 1.415226 13.123796 55.222992
187 0 1 1.611644 13.905497 54.529297
188 0 1 1.390777 13.011095 54.158691
189 0 1 0.579357 12.705393 54.607391
190 0 1 0.898265 12.104994 53.983398
191 0 1 1.262386 11.448294 53.415588
192 0 1 1.227764 11.538195 52.468597
193 0 1 1.144485 10.999094 51.663086
194 0 1 0.931644 11.313097 50.796204
195 0 1 1.653934 11.809694 51.147888
196 0 1 1.714916 12.001295 50.131714
197 0 1 1.597385 12.562296 49.349091
198 0 1 1.874145 13.013597 48.516785
199 0 1 2.810424 13.046095 48.287201
200 0 1 2.715877 13.701895 47.612091
201 0 1 2.462154 14.372194 48.181885
202 0 1 3.339614 14.852095 48.235687
203 0 1 3.934806 14.149195 47.966309
204 0 1 3.729896 13.658094 47.151611
205 0 1 3.618865 12.815996 47.574707
206 0 1 4.000347 11.914095 47.598602
207 0 1 4.628543 11.870592 48.418213
208 0 1 4.912345 11.000395 48.768890
209 0 1 4.744834 11.627993 49.501495
210 0 1 3.999687 11.666796 50.082214
211 0 1 4.464256 12.031992 50.866089
212 0 1 4.212497 10.952593 50.799988
213 0 1 4.489345 10.339193 50.070801
214 0 1 4.165218 9.696196 49.522003
215 0 1 3.522846 10.185595 48.949890
216 0 1 3.482036 9.376894 48.473816
217 0 1 3.264366 8.951895 49.338989
218 0 1 3.317745 8.976595 50.315094
219 0 1 3.548805 8.347193 51.053101
220 0 1 2.697704 8.076593 50.629700
221 0 1 1.739627 7.776396 50.319794
222 0 1 1.501514 7.161795 49.685608
223 0 1 0.531284 7.194796 49.862305
224 0 1 0.193134 6.490294 50.511810
225 0 1 -0.140755 5.903494 51.242798
226 0 1 0.360694 5.216696 51.683899
227 0 1 1.058567 5.841494 51.845093
228 0 1 1.910747 6.076895 51.362000
229 0 1 2.379875 5.235495 51.501801
230 0 1 2.091266 4.470255 52.021088
231 0 1 1.300254 3.734545 51.851501
232 0 1 0.997295 3.116656 52.541290
233 0 1 0.046134 3.404906 52.596191
234 0 1 0.623996 3.750094 53.313507
235 0 1 -0.192494 4.171626 53.621307
236 0 1 0.289096 4.880694 54.087799
237 0 1 0.760646 5.666396 53.630188
238 0 1 0.521327 6.488295 54.060913
239 0 1 0.757316 7.468493 54.101013
240 0 1 1.016357 8.107695 54.744110
241 0 1 0.677738 8.959494 54.465912
242 0 1 0.921726 9.851694 54.260315
243 0 1 1.595146 10.307295 54.701416
244 0 1 2.147476 10.120394 55.559601
245 0 1 2.296127 9.409594 56.211792
246 0 1 1.543514 8.704695 56.331207
247 0 1 2.317535 8.328997 55.954285
248 0 1 2.889495 8.948397 55.430298
249 0 1 3.424686 8.861994 54.650787
250 0 1 4.095245 8.561094 55.336609
251 0 1 4.560985 9.280695 54.986389
252 0 1 5.226497 9.504396 54.293304
253 0 1 5.207237 10.209894 53.634216
254 0 1 5.902275 10.454897 54.334290
255 0 1 6.789176 10.875193 54.253998
256 0 1 6.992774 11.380995 55.069702
257 0 1 6.521175 11.353296 55.945312
258 0 1 7.444774 11.241892 56.319885
259 0 1 8.162776 11.100294 56.987488
260 0 1 8.381076 11.997797 57.162994
261 0 1 9.299674 12.291094 56.963287
262 0 1 9.946776 12.737497 56.466187
263 0 1 10.352473 12.979197 57.232391
264 0 1 10.973174 12.535196 56.588409
265 0 1 11.799975 13.076494 56.737915
266 0 1 11.605075 13.428995 57.557098
267 0 1 12.180575 13.320395 58.276398
268 0 1 11.420573 13.532892 58.921387
269 0 1 11.180976 14.241297 58.330688
270 0 1 10.316974 13.880892 58.618286
271 0 1 9.649776 14.318895 58.054413
272 0 1 8.947776 14.279394 57.386993
273 0 1 8.818477 14.103495 56.397888
274 0 1 8.983577 14.890596 55.885315
275 0 1 9.303576 15.705797 56.324402
276 0 1 9.295077 15.683893 55.325806
277 0 1 8.595973 16.313196 55.105896
278 0 1 7.866775 16.118296 54.560913
279 0 1 7.501377 15.236193 54.784302
280 0 1 7.333877 14.343195 55.195587
281 0 1 7.296474 13.378496 55.178711
282 0 1 7.907276 13.593897 54.494904
283 0 1 8.463775 13.846395 53.746002
284 0 1 8.085574 14.612093 53.159912
285 0 1 7.215274 14.694994 52.805786
286 0 1 7.011577 15.147894 51.895996
287 0 1 6.094177 15.124292 52.234802
288 0 1 5.559875 14.758795 51.531006
289 0 1 5.886577 15.242994 50.834412
290 0 1 5.442176 16.011694 51.238190
291 0 1 4.992885 16.746996 50.871490
292 0 1 5.058734 16.744894 49.894714
293 0 1 4.764606 17.071993 48.979401
294 0 1 4.315204 16.464693 48.372894
295 0 1 5.059906 16.999292 48.006409
296 0 1 5.483577 17.822397 48.041901
297 0 1 6.494377 17.755793 48.231201
298 0 1 7.072475 17.607695 47.465912
299 0 1 7.474178 18.411795 47.269409
300 0 1 7.376377 18.787294 48.109894
301 0 1 6.573375 18.788393 48.652100
302 0 1 5.958377 19.546595 48.596313
303 0 1 6.268875 20.065493 47.841797
304 0 1 5.318077 19.864695 47.700195
305 0 1 5.729175 19.176592 47.163788
306 0 1 5.361278 19.441492 46.286194
307 0 1 4.422775 19.565393 45.942505
308 0 1 4.104534 18.739794 45.670105
309 0 1 3.178874 19.105295 45.465302
310 0 1 3.148376 18.226793 45.715698
311 0 1 2.454166 17.628397 46.070007
312 0 1 3.151485 17.081392 45.770905
313 0 1 2.680606 16.204493 46.046204
314 0 1 3.025497 15.906992 45.192505
315 0 1 3.545265 15.359194 44.601593
316 0 1 4.254154 14.843294 44.866516
317 0 1 4.831966 15.058496 44.101593
318 0 1 5.555976 14.623896 44.539093
319 0 1 5.835178 15.440695 43.995392
320 0 1 5.929775 15.471094 42.976990
321 0 1 6.016975 14.566492 43.098694
322 0 1 5.673076 13.944796 42.450500
323 0 1 5.785274 13.039995 42.175995
324 0 1 6.160976 12.576796 41.378693
325 0 1 6.550876 12.187593 40.537292
326 0 1 6.886375 11.210196 40.678101
327 0 1 7.796978 10.965796 40.712189
328 0 1 8.372874 10.261995 40.437897
329 0 1 8.721675 10.182493 39.556793
330 0 1 8.379977 9.714495 38.776489
331 0 1 7.659175 10.085196 39.236816
332 0 1 6.859775 10.488695 39.507111
333 0 1 5.988075 10.469095 40.002289
334 0 1 5.954277 11.461596 39.897400
335 0 1 5.618877 11.354994 38.955505
336 0 1 5.364276 12.162394 38.358612
337 0 1 5.155307 13.019197 38.667389
338 0 1 4.979465 13.830595 38.268188
339 0 1 5.916873 14.006693 38.364594
340 0 1 6.909675 13.934496 38.352997
341 0 1 6.858776 14.718596 37.786896
342 0 1 6.216575 14.826296 37.086792
343 0 1 5.522075 14.189997 36.805908
344 0 1 5.882877 13.326197 36.887207
345 0 1 5.941875 13.342196 35.914093
346 0 1 5.041416 13.642096 36.005615
347 0 1 4.120666 13.625292 35.897491
348 0 1 3.400447 13.185396 35.426086
349 0 1 2.574165 13.095995 35.972290
350 0 1 2.081565 13.893595 35.779388
351 0 1 1.102375 13.976095 35.492493
352 0 1 0.398296 14.561296 35.851105
353 0 1 -0.556984 14.245794 35.816803
354 0 1 0.065986 13.585394 35.861816
355 0 1 -0.539185 13.297792 36.594788
356 0 1 -0.437542 14.103594 37.083405
357 0 1 -1.309144 13.743895 37.167297
358 0 1 -1.769314 14.027796 36.436096
359 0 1 -2.703015 13.997694 36.431091
360 0 1 -3.319924 13.622797 35.807007
361 0 1 -3.213574 12.702894 36.260712
362 0 1 -3.161023 13.330294 37.055786
363 0 1 -3.998883 13.201494 37.559387
364 0 1 -4.303553 12.383692 38.000397
365 0 1 -4.905566 11.668596 37.702301
366 0 1 -5.526322 10.986696 38.139313
367 0 1 -5.032362 10.938593 38.902710
368 0 1 -5.927824 10.773096 39.157806
369 0 1 -6.751015 11.192392 39.515808
370 0 1 -6.173485 10.884695 40.234497
371 0 1 -6.885285 10.614996 40.743195
372 0 1 -7.774905 10.710295 41.160095
373 0 1 -7.921134 11.537794 40.653412
374 0 1 -7.136424 12.012796 41.060486
375 0 1 -7.748274 12.704794 41.232300
376 0 1 -6.813914 12.907495 41.455292
377 0 1 -6.515965 13.646196 40.893188
378 0 1 -5.749625 14.239893 40.839905
379 0 1 -4.952075 13.832094 40.985107
380 0 1 -4.744526 13.206995 41.726501
381 0 1 -4.626463 12.501192 42.286499
382 0 1 -3.634444 12.158094 42.122986
383 0 1 -3.702343 13.015795 41.754608
384 0 1 -3.671435 13.629496 42.488800
385 0 1 -3.849009 14.478296 42.902588
386 0 1 -4.518839 14.648996 43.565613
387 0 1 -4.605229 15.054495 44.511810
388 0 1 -4.201293 14.180994 44.515991
389 0 1 -4.988478 14.178595 45.091187
390 0 1 -4.845318 13.307894 44.739288
391 0 1 -4.984017 12.380396 44.865509
392 0 1 -4.559573 12.688295 45.608398
393 0 1 -5.556914 12.767096 45.740784
394 0 1 -5.230206 11.938894 46.054291
395 0 1 -4.846751 11.393595 45.449005
396 0 1 -3.901246 11.766993 45.526489
397 0 1 -3.536994 10.894396 45.739288
398 0 1 -3.021664 10.106596 45.856598
399 0 1 -2.846646 9.200792 45.712708
400 0 1 -3.421204 8.527994 46.184601
401 0 1 -3.479144 8.585794 45.137299
402 0 1 -4.117289 7.805895 45.241913
403 0 1 -3.793768 7.658297 44.343506
404 0 1 -3.139225 7.265994 44.826599
405 0 1 -3.932793 6.662894 44.657104
406 0 1 -4.527585 6.196093 45.253296
407 0 1 -5.030009 5.406695 45.512604
408 0 1 -5.765475 4.903193 45.180115
409 0 1 -6.354264 4.340636 44.678284
410 0 1 -7.117495 4.797297 44.376007
411 0 1 -7.610604 4.109934 43.848083
412 0 1 -6.844035 3.608885 43.993713
413 0 1 -6.468184 2.784487 43.656311
414 0 1 -6.388745 1.900244 43.202789
415 0 1 -5.875794 1.879176 42.410889
416 0 1 -5.095353 1.580897 41.973999
417 0 1 -4.965092 0.802965 41.399994
418 0 1 -4.469840 0.169375 42.022217
419 0 1 -3.783307 0.660525 42.571594
420 0 1 -3.895340 0.312506 43.531708
421 0 1 -3.235184 -0.280885 43.166199
422 0 1 -3.872090 -0.631395 42.519806
423 0 1 -4.349577 -1.334074 42.120392
424 0 1 -4.925866 -1.970766 41.662994
425 0 1 -5.593844 -2.294786 42.227783
426 0 1 -6.545525 -2.242964 41.950806
427 0 1 -6.327595 -2.650823 42.834198
428 0 1 -5.537232 -3.071787 42.896301
429 0 1 -4.633084 -2.954485 42.412506
430 0 1 -3.828724 -3.509817 42.381409
431 0 1 -3.536744 -3.568605 43.252014
432 0 1 -3.165875 -2.875505 43.725006
433 0 1 -3.173314 -1.943433 43.634094
434 0 1 -3.708174 -1.763013 44.326416
435 0 1 -3.293395 -0.829454 44.360291
436 0 1 -3.399525 -0.344194 45.132294
437 0 1 -3.622334 0.467036 45.607117
438 0 1 -3.397254 0.818426 44.682709
439 0 1 -2.857293 1.564684 44.370605
440 0 1 -2.700875 1.867815 43.487091
441 0 1 -3.262425 2.596033 43.627899
442 0 1 -3.978322 2.286387 43.083008
443 0 1 -3.861462 2.996306 42.452301
444 0 1 -4.488150 3.526934 42.032593
445 0 1 -5.255517 3.442335 41.446594
446 0 1 -5.873394 2.816344 41.769501
447 0 1 -6.137505 2.392576 40.970795
448 0 1 -5.492745 2.694884 40.329498
449 0 1 -6.398125 2.904295 39.911896
450 0 1 -7.267113 2.565523 40.182190
451 0 1 -7.277775 1.767924 40.763000
452 0 1 -6.942935 1.586874 39.891602
453 0 1 -6.228875 1.901354 39.291595
454 0 1 -5.407221 2.479174 39.290009
455 0 1 -5.221714 3.478594 39.571594
456 0 1 -5.921744 3.812575 40.228912
457 0 1 -5.534602 4.596335 40.614197
458 0 1 -4.519166 4.729826 40.699493
459 0 1 -4.958737 5.185694 39.988312
460 0 1 -5.673794 5.833395 40.377594
461 0 1 -5.666588 6.650797 39.811493
462 0 1 -5.516593 7.342394 39.089813
463 0 1 -4.540467 7.415595 38.871704
464 0 1 -4.015151 7.814295 38.242706
465 0 1 -3.195405 7.456194 38.513306
466 0 1 -2.413716 7.223696 39.041412
467 0 1 -2.214634 6.707495 38.250702
468 0 1 -1.991993 6.229094 37.433807
469 0 1 -1.255475 5.730795 37.858490
470 0 1 -1.545964 4.914294 37.423004
471 0 1 -1.287995 4.665293 38.262299
472 0 1 -0.662896 5.137797 38.739807
473 0 1 -0.654286 4.622416 39.623291
474 0 1 -0.276356 3.788393 39.307587
475 0 1 -1.028183 3.220915 39.034485
476 0 1 -2.000905 3.133185 39.155396
477 0 1 -1.623753 3.776045 39.813202
478 0 1 -1.250454 3.399325 40.609589
479 0 1 -1.507023 2.493075 40.649689
480 0 1 -1.666333 2.371985 41.596313
481 0 1 -1.366364 2.175875 42.496002
482 0 1 -1.344136 2.990355 42.935608
483 0 1 -0.896344 2.642164 43.750793
484 0 1 -0.027123 2.309805 43.852600
485 0 1 0.344127 2.945574 44.476898
486 0 1 0.734664 3.434656 45.267303
487 0 1 1.012577 3.156706 46.219391
488 0 1 1.601104 2.692656 45.620209
489 0 1 1.446407 2.340945 44.708588
490 0 1 2.251056 2.676337 44.315094
491 0 1 3.109436 2.306887 43.984985
492 0 1 2.943737 3.020113 43.314789
493 0 1 3.791065 3.492625 43.427704
494 0 1 3.359935 4.372233 43.604401
495 0 1 3.455394 5.311297 43.585907
496 0 1 2.899917 6.037795 43.301208
497 0 1 3.787593 6.240195 43.066895
498 0 1 4.266216 6.320994 43.901611
499 0 1 4.753917 6.627596 44.665283
500 0 1 4.194835 6.119296 45.307404
501 0 1 3.409725 5.724093 44.960388
502 0 1 2.970165 5.143694 45.627014
503 0 1 2.557506 4.530497 45.001587
504 0 1 2.004146 3.928564 45.541504
505 0 1 2.675624 3.463404 46.020294
506 0 1 2.050315 2.947375 46.522888
507 0 1 2.389167 2.633425 47.339905
508 0 1 2.657665 2.097525 46.530609
509 0 1 1.733406 1.907874 46.635498
510 0 1 1.254978 1.671275 45.874908
511 0 1 1.504875 0.750155 46.024689
512 0 1 0.822055 0.077284 45.957886
513 0 1 1.492866 -0.501653 46.310089
514 0 1 1.722934 -0.789404 47.252686
515 0 1 1.743724 -1.726564 47.250610
516 0 1 1.043186 -2.371725 47.554596
517 0 1 1.813777 -2.926695 47.202698
518 0 1 2.023216 -2.435095 46.400208
519 0 1 2.933876 -2.541834 46.657806
520 0 1 2.910347 -1.556486 46.521301
521 0 1 3.130676 -0.772134 47.087311
522 0 1 3.856407 -1.459966 47.433716
523 0 1 4.651077 -1.920084 47.112396
524 0 1 5.384075 -1.331354 46.955017
525 0 1 4.866107 -0.961904 46.193909
526 0 1 4.569026 -1.772924 45.784790
527 0 1 4.787265 -2.171743 44.954102
528 0 1 4.164028 -2.364477 44.302612
529 0 1 3.535865 -1.658865 44.356598
530 0 1 3.661197 -0.827345 43.988098
531 0 1 3.839336 -0.043916 43.355988
532 0 1 3.822055 0.520216 44.190399
533 0 1 3.163425 0.644865 44.869598
534 0 1 3.376167 -0.125257 45.369202
535 0 1 4.108974 0.052607 46.076294
536 0 1 3.533386 0.274157 46.797089
537 0 1 4.220615 1.000765 46.461395
538 0 1 4.725967 1.680266 47.032410
539 0 1 4.690074 1.283587 47.970886
540 0 1 4.818397 0.882105 48.863007
541 0 1 5.615978 1.323115 48.745483
542 0 1 6.598175 1.263014 48.849304
543 0 1 6.636775 1.445284 49.823303
544 0 1 6.693977 1.015414 50.693115
545 0 1 6.362773 0.354266 51.433807
546 0 1 6.486278 0.996424 52.097412
547 0 1 6.127277 0.333155 52.788910
548 0 1 6.257476 -0.366605 53.411102
549 0 1 6.530876 -1.109045 54.016296
550 0 1 7.192775 -1.287603 53.244812
551 0 1 7.811176 -0.634737 52.928406
552 0 1 8.490573 -0.528677 53.602295
553 0 1 8.151175 -0.193426 54.397003
554 0 1 9.055076 -0.054735 54.672699
555 0 1 9.562076 -0.781057 54.332397
556 0 1 10.288474 -1.387815 54.337097
557 0 1 10.835376 -0.737516 54.802399
558 0 1 10.384376 -0.214277 54.093689
559 0 1 10.427676 0.355276 54.840210
560 0 1 10.604373 0.364035 55.795288
561 0 1 9.758273 0.773917 55.541992
562 0 1 9.579677 0.990095 54.682709
563 0 1 10.092574 1.608496 54.186401
564 0 1 10.769576 1.998194 53.547791
565 0 1 10.870376 1.153296 53.092407
566 0 1 9.997577 1.285445 52.547394
567 0 1 10.326476 0.705515 51.819702
568 0 1 11.289775 0.785384 52.041412
569 0 1 11.019977 -0.064375 51.725586
570 0 1 10.970874 -0.762575 51.062317
571 0 1 11.170177 -1.757284 51.087585
572 0 1 11.601077 -2.307825 50.400391
573 0 1 12.271373 -2.100843 49.619690
574 0 1 11.946277 -2.963754 49.667786
575 0 1 12.378673 -3.543646 50.289185
576 0 1 13.168574 -3.200884 50.756897
577 0 1 13.995173 -3.503374 51.131409
578 0 1 14.121478 -4.147415 51.956696
579 0 1 14.039374 -4.984375 52.444397
580 0 1 14.263175 -5.893213 52.758392
581 0 1 14.691577 -6.775655 52.609802
582 0 1 14.924575 -6.707796 53.530304
583 0 1 15.134875 -7.690155 53.589294
584 0 1 15.556876 -8.392706 53.122711
585 0 1 16.244576 -7.849905 52.827698
586 0 1 16.802975 -8.609356 52.520691
587 0 1 16.730274 -9.368696 51.943390
588 0 1 17.352375 -8.945736 51.338898
589 0 1 17.368679 -8.839136 50.385590
590 0 1 17.323078 -9.786985 50.179688
591 0 1 17.928677 -10.344326 49.633301
592 0 1 18.413975 -9.725595 49.093811
593 0 1 19.224178 -9.348505 49.493988
594 0 1 18.421177 -9.087135 50.007202
595 0 1 18.498676 -8.255436 50.575897
596 0 1 19.049076 -7.818136 49.927185
597 0 1 19.764576 -7.116874 49.707703
598 0 1 19.221275 -6.708585 49.003906
599 0 1 18.467175 -7.055604 48.585815
600 0 1 17.869576 -7.082635 49.324707
601 0 1 17.703476 -6.133750 48.998993
602 0 1 17.865078 -5.329530 49.531616
603 0 1 17.624977 -4.878662 50.373688
604 0 1 17.529076 -4.837009 51.361084
605 0 1 17.964375 -3.999044 51.169403
606 0 1 18.512577 -4.020654 52.058716
607 0 1 17.853577 -3.499124 52.623199
608 0 1 17.529278 -4.413784 52.413513
609 0 1 16.627178 -4.685268 52.558716
610 0 1 16.802876 -4.740264 53.503998
611 0 1 17.163277 -3.901785 53.901306
612 0 1 16.619778 -4.435100 54.507690
613 0 1 16.271576 -4.724115 55.343292
614 0 1 16.504177 -5.635581 55.238708
615 0 1 15.620677 -5.936521 55.034302
616 0 1 16.145473 -6.786436 55.036987
617 0 1 15.679576 -7.547834 54.666992
618 0 1 15.480575 -8.469435 54.704193
619 0 1 14.870875 -8.836626 54.050110
620 0 1 14.207076 -9.385796 53.580902
621 0 1 14.934474 -9.770735 53.173096
622 0 1 14.486873 -10.559536 53.524994
623 0 1 13.913074 -11.047396 52.802704
624 0 1 13.159175 -10.651796 53.161316
625 0 1 12.468677 -10.448935 53.708588
626 0 1 11.841777 -11.174475 53.542999
627 0 1 11.176375 -10.856054 54.194092
628 0 1 10.489276 -11.586685 54.166687
629 0 1 9.899074 -12.301096 53.853210
630 0 1 9.408473 -12.835917 54.477600
631 0 1 9.774974 -13.656395 54.162689
632 0 1 9.310576 -14.333965 54.654297
633 0 1 9.496276 -14.216105 55.619110
634 0 1 8.809875 -14.528055 56.203705
635 0 1 9.454974 -14.843836 56.878204
636 0 1 9.832576 -14.002645 57.059601
637 0 1 10.805175 -14.180885 57.248810
638 0 1 11.072177 -13.723206 58.027405
639 0 1 12.060977 -13.743965 58.123505
640 0 1 12.397574 -14.508684 57.634308
641 0 1 12.650676 -15.499306 57.503387
642 0 1 12.903975 -15.809505 56.662598
643 0 1 11.974376 -15.535906 56.672699
644 0 1 11.955974 -15.098166 55.791504
645 0 1 12.571876 -14.739286 56.394989
646 0 1 12.765075 -13.787344 56.103516
647 0 1 12.511176 -14.357885 55.329102
648 0 1 12.867778 -13.831514 54.611511
649 0 1 12.999576 -13.080576 53.967804
650 0 1 13.611075 -13.895914 53.632385
651 0 1 13.054275 -14.674866 53.578186
652 0 1 12.130176 -14.941456 53.355499
653 0 1 11.749576 -14.378105 52.614288
654 0 1 12.087977 -15.200926 52.140900
655 0 1 13.048373 -15.632807 52.224091
656 0 1 12.851676 -16.319006 51.520599
657 0 1 13.065578 -16.797007 52.364807
658 0 1 13.663375 -17.254606 51.579712
659 0 1 13.987178 -17.957304 51.046600
660 0 1 14.751773 -17.364805 51.127014
661 0 1 14.796775 -16.804806 51.878784
662 0 1 14.665576 -15.946104 51.482300
663 0 1 15.185473 -15.117815 51.556091
664 0 1 15.592578 -15.828104 51.117401
665 0 1 15.313575 -16.322706 50.358704
666 0 1 15.838573 -16.914906 49.830383
667 0 1 16.424976 -17.469404 49.257111
668 0 1 17.352978 -17.686806 49.062103
669 0 1 16.871479 -17.916906 48.292114
670 0 1 17.515377 -17.861204 47.672699
671 0 1 18.225277 -17.268005 48.031189
672 0 1 17.768276 -16.409204 47.951416
673 0 1 17.174274 -16.292105 48.643097
674 0 1 16.829376 -15.345507 48.572998
675 0 1 17.195877 -14.891695 47.840790
676 0 1 17.594875 -14.992115 46.979706
677 0 1 17.381676 -14.100866 46.998688
678 0 1 16.443378 -14.528814 47.028595
679 0 1 15.657275 -14.208385 46.606293
680 0 1 16.099773 -14.681147 45.919312
681 0 1 17.030178 -14.556376 45.873291
682 0 1 17.015076 -14.388697 44.901489
683 0 1 17.792675 -14.054245 45.391693
684 0 1 18.274975 -14.305117 44.522400
685 0 1 17.890076 -13.434866 44.389404
686 0 1 18.383076 -12.755606 43.824097
687 0 1 18.182877 -11.887056 44.231598
688 0 1 18.104477 -11.502214 45.110199
689 0 1 17.566975 -11.063345 44.480713
690 0 1 18.137177 -10.250046 44.306213
691 0 1 18.430077 -9.405256 43.925110
692 0 1 17.641674 -9.574215 43.487915
693 0 1 17.122276 -9.462086 42.674988
694 0 1 17.919376 -8.914896 42.466614
695 0 1 18.717876 -9.457485 42.719910
696 0 1 19.328075 -8.708216 42.944000
697 0 1 18.563679 -8.110985 43.030609
698 0 1 17.987976 -7.572425 42.431488
699 0 1 18.680775 -8.002615 41.949890
700 0 1 18.894577 -7.172735 41.510315
701 0 1 19.830975 -7.532285 41.533203
702 0 1 19.895676 -8.073816 40.765411
703 0 1 20.071575 -8.989525 41.080017
704 0 1 20.094276 -9.647285 40.291992
705 0 1 19.851078 -9.113255 39.536499
706 0 1 19.218075 -9.448195 38.843597
707 0 1 18.564175 -9.760086 38.184296
708 0 1 17.815578 -10.338135 38.226807
709 0 1 17.024776 -10.282085 37.682312
710 0 1 16.971676 -11.199236 38.098999
711 0 1 16.523975 -10.825855 38.817017
712 0 1 17.339676 -10.468645 39.132690
713 0 1 17.385578 -11.467054 39.174408
714 0 1 16.783775 -12.076565 39.763794
715 0 1 17.503178 -11.831514 40.390289
716 0 1 18.160877 -12.492836 40.878204
717 0 1 17.839676 -13.404236 40.605103
718 0 1 17.871677 -13.902735 39.814392
719 0 1 16.969173 -14.243336 39.914398
720 0 1 16.995678 -14.047964 40.897217
721 0 1 17.188274 -14.901514 41.452087
722 0 1 17.529976 -14.913265 42.344513
723 0 1 16.922375 -14.806265 43.094788
724 0 1 17.668278 -14.125284 43.239410
725 0 1 17.538376 -13.148436 43.154114
726 0 1 16.646076 -13.054026 43.440613
727 0 1 15.984477 -13.277756 42.822205
728 0 1 16.000774 -13.943045 42.123108
729 0 1 15.498477 -13.922045 41.271210
730 0 1 14.698276 -13.762674 41.868195
731 0 1 14.350276 -14.666815 41.675415
732 0 1 13.627875 -15.295404 41.717010
733 0 1 13.383174 -14.543945 41.103790
734 0 1 13.013873 -13.871605 40.543213
735 0 1 12.884074 -12.928465 40.676910
736 0 1 11.963374 -13.150385 40.667786
737 0 1 11.631877 -12.894045 41.569092
738 0 1 11.059474 -12.161175 41.734192
739 0 1 10.878875 -12.512426 42.600708
740 0 1 10.295875 -11.737696 42.743896
741 0 1 10.117877 -10.923525 42.358398
742 0 1 9.429675 -10.280245 42.495087
743 0 1 9.172576 -9.890795 43.353210
744 0 1 8.441073 -9.274145 43.467712
745 0 1 8.039275 -9.077196 42.630005
746 0 1 7.384174 -9.309565 43.391602
747 0 1 7.196876 -8.523726 42.788605
748 0 1 6.941074 -8.887526 42.020691
749 0 1 6.164176 -8.270796 42.080994
750 0 1 5.886478 -9.262506 42.196899
751 0 1 5.183685 -9.909864 41.785797
752 0 1 4.826736 -9.055225 41.508087
753 0 1 3.841434 -9.051945 41.400909
754 0 1 3.253326 -8.770266 40.771606
755 0 1 2.529685 -9.343775 41.012390
756 0 1 2.641117 -9.550467 40.097504
757 0 1 2.614006 -10.458006 40.268707
758 0 1 3.199897 -10.641655 39.580811
759 0 1 3.721904 -10.600426 38.753693
760 0 1 3.660205 -10.315836 37.844604
761 0 1 3.707263 -9.415066 38.027405
762 0 1 4.375904 -8.806646 37.714691
763 0 1 4.230716 -8.107046 37.086792
764 0 1 3.863365 -7.383924 37.612915
765 0 1 4.543895 -6.786615 37.737915
766 0 1 5.503574 -6.511505 37.617706
767 0 1 5.506877 -6.520505 38.580109
768 0 1 5.680175 -7.187284 39.247406
769 0 1 5.681175 -6.771305 40.117615
770 0 1 5.089305 -6.012487 40.022400
771 0 1 5.427776 -5.085380 39.777405
772 0 1 6.062675 -4.511653 39.389709
773 0 1 5.765876 -3.702825 39.885590
774 0 1 5.155887 -2.969614 40.240112
775 0 1 4.664085 -2.326505 40.856903
776 0 1 4.815944 -1.661916 40.160583
777 0 1 4.821643 -1.943617 39.265015
778 0 1 4.474975 -1.782404 38.417114
779 0 1 4.626735 -1.209043 37.663300
780 0 1 4.252845 -1.635255 36.866211
781 0 1 4.931568 -2.327314 36.840515
782 0 1 5.862278 -2.323774 36.796387
783 0 1 6.058776 -2.193815 35.863708
784 0 1 6.875976 -2.822447 36.161987
785 0 1 6.964675 -2.577356 35.190002
786 0 1 6.497676 -2.623945 34.307709
787 0 1 6.356174 -2.437906 33.365204
788 0 1 5.583274 -1.932764 33.013306
789 0 1 4.999958 -2.074075 33.744385
790 0 1 4.372287 -2.351244 32.983704
791 0 1 3.762756 -1.898214 33.510193
792 0 1 3.343875 -2.833536 33.609802
793 0 1 3.723495 -3.116697 32.788300
794 0 1 3.094337 -3.863386 32.967590
795 0 1 3.588005 -4.739074 33.054291