LAMMPS data file via MDAnalysis

        2000  atoms
        1999  bonds
           0  angles
           0  dihedrals
           0  impropers

           1  atom types
           1  bond types
           0  angle types
           0  dihedral types
           0  improper types

-30.5 30.5 xlo xhi
-30.5 30.5 ylo yhi
-233.5 233.5 zlo zhi


Masses

1 1.000000

Atoms

1 0 1 -10.421134 21.836161 80.430603
2 0 1 -11.032273 21.571962 81.118591
3 0 1 -10.738873 20.728460 81.472809
4 0 1 -10.824653 20.580957 82.408813
5 0 1 -10.948033 19.635859 82.421082
6 0 1 -10.053763 19.615160 82.640900
7 0 1 -9.913424 18.671862 82.953308
8 0 1 -9.006543 18.595362 82.808594
9 0 1 -8.912684 19.463961 83.130890
10 0 1 -9.284173 18.922762 83.828491
11 0 1 -9.517474 18.235960 84.396118
12 0 1 -9.512214 17.202562 84.367889
13 0 1 -8.604804 16.790659 84.539307
14 0 1 -8.388274 17.650560 84.940094
15 0 1 -7.903394 18.459459 85.083191
16 0 1 -7.491115 19.321657 85.352600
17 0 1 -6.746805 18.745760 85.527802
18 0 1 -6.365974 18.860857 84.589111
19 0 1 -5.695425 19.523859 84.279785
20 0 1 -5.427997 20.011461 83.495300
21 0 1 -4.483285 19.794062 83.394196
22 0 1 -4.204580 20.290060 84.138611
23 0 1 -3.937009 20.648661 85.036682
24 0 1 -4.678232 20.800261 85.538513
25 0 1 -4.998521 20.253458 86.259705
26 0 1 -4.054517 20.069460 86.332794
27 0 1 -4.025196 19.118860 86.465607
28 0 1 -4.009704 18.246759 86.789093
29 0 1 -3.621885 17.378862 86.756714
30 0 1 -3.762626 17.479860 85.777496
31 0 1 -3.967721 16.578360 85.890411
32 0 1 -3.930151 16.958860 84.920502
33 0 1 -4.240964 16.091860 84.564392
34 0 1 -4.846086 15.386058 84.514496
35 0 1 -5.475494 14.708163 85.002808
36 0 1 -5.463954 14.181758 85.765503
37 0 1 -5.142511 13.968463 86.595093
38 0 1 -4.195068 13.962661 86.736206
39 0 1 -4.096965 13.463561 85.829285
40 0 1 -3.501625 13.066360 85.251190
41 0 1 -3.913673 13.111159 84.413391
42 0 1 -3.765033 12.201961 84.264099
43 0 1 -4.597169 12.042060 84.721497
44 0 1 -3.880403 11.984260 85.371582
45 0 1 -4.572790 12.247359 86.017700
46 0 1 -4.021785 11.876861 86.673706
47 0 1 -4.213016 11.854362 87.614807
48 0 1 -3.692834 12.676261 87.757690
49 0 1 -3.237964 13.295161 88.363800
50 0 1 -3.405035 12.999160 89.278809
51 0 1 -2.747135 12.554259 89.777496
52 0 1 -2.061965 12.284160 89.152893
53 0 1 -1.281185 12.223163 88.547791
54 0 1 -0.967662 12.824260 89.210083
55 0 1 -0.330184 12.774058 88.485992
56 0 1 -0.523895 12.163760 87.789398
57 0 1 -0.210395 11.612559 87.046295
58 0 1 -1.213436 11.502761 87.184296
59 0 1 -1.155143 10.493663 87.038818
60 0 1 -0.722602 10.751262 87.830505
61 0 1 -0.620635 10.874961 88.749908
62 0 1 -0.164295 11.595859 89.317108
63 0 1 -0.853996 11.861262 89.885590
64 0 1 -0.361503 11.694461 90.651794
65 0 1 0.110947 10.853961 90.617889
66 0 1 -0.434562 10.718360 91.434998
67 0 1 -0.312446 10.432761 92.376495
68 0 1 0.361455 9.792361 92.169891
69 0 1 0.573258 9.525462 93.034210
70 0 1 0.988156 10.197963 93.514008
71 0 1 1.822907 10.026362 93.797607
72 0 1 2.203988 10.593760 94.484894
73 0 1 1.614884 11.096660 93.901489
74 0 1 0.929806 10.920562 94.500092
75 0 1 1.278145 10.962562 95.379791
76 0 1 1.732235 11.867560 95.352112
77 0 1 1.634755 12.303760 96.174011
78 0 1 0.805996 12.686763 95.960083
79 0 1 0.372365 13.516261 96.061218
80 0 1 0.662926 14.171660 95.360596
81 0 1 0.837887 14.917659 95.921082
82 0 1 0.340195 15.565661 96.445099
83 0 1 -0.329093 16.289759 96.509399
84 0 1 -1.290466 16.344461 96.922302
85 0 1 -1.694583 16.549761 96.120697
86 0 1 -1.753063 16.188860 95.277283
87 0 1 -1.376194 16.806459 94.640015
88 0 1 -0.707233 17.165262 93.984314
89 0 1 -0.038032 16.446459 94.137909
90 0 1 0.775395 16.165758 93.792603
91 0 1 1.515496 16.372759 93.210693
92 0 1 2.362774 16.734159 93.329407
93 0 1 2.686406 15.872058 93.657715
94 0 1 2.427655 15.132861 94.202789
95 0 1 2.970715 14.570361 94.851807
96 0 1 3.423554 14.219260 94.029510
97 0 1 3.484696 14.763160 93.220215
98 0 1 3.495305 14.027659 92.638092
99 0 1 4.343544 14.267558 92.218018
100 0 1 4.975617 13.707660 91.754883
101 0 1 4.918145 12.718760 91.697998
102 0 1 5.604825 12.251361 92.188690
103 0 1 6.328625 11.985160 91.663086
104 0 1 5.655125 11.282458 91.895905
105 0 1 6.267827 10.854663 91.182190
106 0 1 6.686627 11.551860 90.738098
107 0 1 7.252327 11.760360 89.946594
108 0 1 7.436924 12.477561 89.448914
109 0 1 8.299325 12.061061 89.448303
110 0 1 8.691628 12.199962 88.586700
111 0 1 8.528428 11.260360 88.309082
112 0 1 9.044328 10.884459 87.628418
113 0 1 9.428025 10.487960 88.420410
114 0 1 10.083127 9.912059 88.019409
115 0 1 10.189324 10.325160 87.132690
116 0 1 9.968728 9.703460 86.441803
117 0 1 10.060128 9.221660 87.253998
118 0 1 10.188027 8.507461 87.909302
119 0 1 9.367627 7.956061 87.654205
120 0 1 9.486428 7.617461 88.592499
121 0 1 8.830728 6.940742 88.714783
122 0 1 8.445928 6.935191 89.585815
123 0 1 9.250428 6.545890 89.934509
124 0 1 9.939729 6.499942 90.693695
125 0 1 10.938424 6.625743 90.662598
126 0 1 10.903726 5.661719 90.534393
127 0 1 11.804429 5.598033 90.147705
128 0 1 12.614129 6.055949 90.186798
129 0 1 13.046327 6.903300 90.266693
130 0 1 13.678327 7.589660 90.365997
131 0 1 14.264627 7.436561 89.608215
132 0 1 14.481324 6.623019 89.175598
133 0 1 14.962625 5.817332 89.563293
134 0 1 15.870324 5.435149 89.352692
135 0 1 15.955327 4.518329 89.055298
136 0 1 16.726025 4.014602 89.031891
137 0 1 17.379826 4.461951 88.511993
138 0 1 16.882027 5.281730 88.363403
139 0 1 16.866524 6.266662 88.187988
140 0 1 15.931626 6.488193 88.111084
141 0 1 16.498325 6.595820 87.291016
142 0 1 16.297424 5.632251 87.467590
143 0 1 15.469224 5.278922 87.315094
144 0 1 14.591424 5.582080 87.714508
145 0 1 13.976624 4.979720 87.304108
146 0 1 14.505227 4.420329 86.706299
147 0 1 14.500527 3.523169 86.526489
148 0 1 14.920327 3.085841 87.305786
149 0 1 14.018327 3.047808 87.602417
150 0 1 13.447328 2.862860 86.763611
151 0 1 13.262025 1.964370 86.430206
152 0 1 12.519128 1.602061 85.973206
153 0 1 11.964929 0.908561 86.228302
154 0 1 11.791924 -0.005769 86.580811
155 0 1 11.667527 -0.521199 87.379395
156 0 1 11.995126 -1.188659 86.700806
157 0 1 12.643826 -1.695836 86.294189
158 0 1 13.126328 -1.150800 85.724915
159 0 1 13.448228 -1.696773 84.950317
160 0 1 13.592729 -1.288629 84.069794
161 0 1 13.535424 -2.139570 83.700592
162 0 1 12.743928 -1.559140 83.468903
163 0 1 12.008527 -1.129491 83.897308
164 0 1 11.636125 -1.861331 84.405792
165 0 1 11.824826 -2.823543 84.153015
166 0 1 11.264325 -2.421174 83.417786
167 0 1 11.325727 -3.250121 82.930695
168 0 1 10.358926 -3.283710 82.980103
169 0 1 10.546426 -4.053180 82.415588
170 0 1 10.288629 -4.024529 81.496002
171 0 1 9.718125 -3.949199 80.711792
172 0 1 9.205926 -3.716939 79.905212
173 0 1 9.170728 -2.971204 80.548706
174 0 1 8.894326 -2.356637 81.266296
175 0 1 8.731526 -1.434150 81.024902
176 0 1 9.714326 -1.299899 81.197083
177 0 1 9.672925 -0.903371 82.104309
178 0 1 8.773026 -0.550698 81.988007
179 0 1 8.425527 -1.460729 82.194000
180 0 1 8.136926 -2.322068 82.456482
181 0 1 8.599225 -2.767574 83.157104
182 0 1 8.045625 -3.517780 83.009888
183 0 1 8.769029 -3.872070 82.464600
184 0 1 8.018025 -3.418531 82.042786
185 0 1 7.509625 -3.155530 81.229309
186 0 1 8.165025 -3.836690 80.706116
187 0 1 7.468926 -4.463759 80.571716
188 0 1 7.985425 -5.223699 80.575897
189 0 1 8.829125 -5.520268 80.280792
190 0 1 9.743325 -5.785029 79.992706
191 0 1 10.552224 -5.825009 79.414490
192 0 1 10.845628 -5.139100 78.815918
193 0 1 10.568227 -6.014899 78.418213
194 0 1 10.062425 -5.564979 77.767212
195 0 1 9.200524 -6.065320 77.672211
196 0 1 8.586724 -5.989980 76.817902
197 0 1 7.630826 -5.924590 77.123596
198 0 1 7.185524 -5.824180 76.167389
199 0 1 6.542725 -6.479039 75.892395
200 0 1 6.460026 -5.911880 75.100311
201 0 1 6.029126 -6.526420 74.497498
202 0 1 5.432705 -5.730300 74.717712
203 0 1 5.497845 -5.710799 75.652893
204 0 1 6.089127 -4.953950 75.722412
205 0 1 7.035424 -4.493550 75.938690
206 0 1 7.755227 -4.251300 75.371094
207 0 1 7.024327 -4.480830 74.752014
208 0 1 6.508526 -5.057330 74.025604
209 0 1 6.559124 -5.535459 73.233398
210 0 1 5.768525 -5.019549 72.813293
211 0 1 4.795075 -5.150899 72.567200
212 0 1 3.894394 -5.366799 72.504608
213 0 1 3.597764 -5.566998 73.435608
214 0 1 2.870587 -6.108129 73.026703
215 0 1 2.080636 -5.563199 73.162689
216 0 1 1.604424 -5.879180 74.003296
217 0 1 1.603497 -4.979339 74.292999
218 0 1 1.645054 -4.599370 73.413300
219 0 1 0.907616 -4.236039 72.893707
220 0 1 0.251996 -3.535674 72.882019
221 0 1 -0.154632 -4.382689 72.483398
222 0 1 -0.441604 -4.224519 71.556885
223 0 1 -0.232215 -4.778689 70.779510
224 0 1 0.509064 -4.982480 70.255005
225 0 1 0.775605 -5.204490 69.345581
226 0 1 0.199345 -5.781098 68.765808
227 0 1 -0.630165 -5.508380 69.274109
228 0 1 -1.581504 -5.409669 69.203796
229 0 1 -1.828315 -4.599099 68.758392
230 0 1 -2.765064 -4.760829 68.767212
231 0 1 -2.434043 -4.599910 69.778290
232 0 1 -2.497333 -5.063828 70.587585
233 0 1 -3.360145 -4.713250 70.741516
234 0 1 -3.295024 -4.077819 70.124390
235 0 1 -3.773721 -3.954520 69.329102
236 0 1 -3.850687 -3.979909 68.391998
237 0 1 -3.721775 -4.992520 68.249817
238 0 1 -3.491292 -5.853099 68.712097
239 0 1 -4.379383 -5.872849 68.977600
240 0 1 -4.779478 -6.348290 69.749512
241 0 1 -4.207027 -6.988790 70.243408
242 0 1 -3.588459 -7.641700 70.665009
243 0 1 -3.229873 -6.710879 70.642883
244 0 1 -2.716594 -6.637919 71.432495
245 0 1 -2.817405 -7.504189 71.805298
246 0 1 -2.669853 -8.441659 71.970703
247 0 1 -1.726715 -8.602201 72.058105
248 0 1 -1.195236 -8.143519 71.424011
249 0 1 -1.000762 -7.736711 72.239990
250 0 1 -0.142745 -7.363719 72.544495
251 0 1 0.475884 -7.406379 71.807617
252 0 1 1.350007 -7.640140 71.347809
253 0 1 1.368466 -7.469541 70.413696
254 0 1 0.568806 -7.175710 70.910095
255 0 1 -0.316543 -6.814309 70.679291
256 0 1 -0.201953 -5.985070 71.147491
257 0 1 -0.211956 -6.055240 72.110199
258 0 1 -1.030014 -5.597770 72.210693
259 0 1 -1.753154 -5.254649 72.795898
260 0 1 -2.465354 -5.478810 72.216309
261 0 1 -3.328434 -5.176560 72.423706
262 0 1 -3.847354 -4.515180 72.962311
263 0 1 -4.019145 -4.763030 73.910889
264 0 1 -3.867328 -5.376090 74.626801
265 0 1 -3.594490 -6.190539 75.065002
266 0 1 -3.887334 -6.525340 74.239899
267 0 1 -3.253694 -6.260009 73.557098
268 0 1 -2.405174 -5.941159 73.809998
269 0 1 -2.095035 -5.642240 74.630981
270 0 1 -1.717685 -5.994540 75.447388
271 0 1 -2.570262 -5.551148 75.684387
272 0 1 -3.114265 -5.412610 76.483215
273 0 1 -3.718015 -4.719440 76.545105
274 0 1 -4.505302 -5.327889 76.528503
275 0 1 -4.849733 -4.501290 75.936493
276 0 1 -5.467184 -5.036710 75.331909
277 0 1 -6.330284 -5.460269 75.166809
278 0 1 -6.937145 -5.744140 74.447388
279 0 1 -7.798225 -5.881610 74.089783
280 0 1 -7.610914 -5.791820 73.133118
281 0 1 -7.000494 -5.022260 73.312103
282 0 1 -7.901874 -4.764350 73.463989
283 0 1 -8.757663 -4.198709 73.549988
284 0 1 -8.919623 -5.143159 73.387604
285 0 1 -8.804313 -5.733689 72.658203
286 0 1 -9.537774 -6.307019 72.490906
287 0 1 -9.880645 -7.092849 73.109985
288 0 1 -10.207534 -6.337449 73.585083
289 0 1 -10.150483 -6.770339 74.450409
290 0 1 -11.102723 -6.749759 74.671387
291 0 1 -11.038764 -5.773120 74.427002
292 0 1 -11.483394 -5.978780 75.237701
293 0 1 -12.204934 -5.348248 75.471710
294 0 1 -12.479133 -6.275849 75.529785
295 0 1 -12.757915 -7.141679 75.243805
296 0 1 -12.623254 -6.948709 74.283813
297 0 1 -12.287604 -7.917989 74.507507
298 0 1 -12.041774 -8.061879 73.601196
299 0 1 -12.861064 -8.339839 73.156494
300 0 1 -13.292415 -7.978169 72.422089
301 0 1 -14.048083 -7.643929 72.991089
302 0 1 -13.762404 -6.722949 73.105804
303 0 1 -13.564692 -6.212960 72.359894
304 0 1 -12.989432 -6.978129 72.141510
305 0 1 -12.043593 -6.895659 72.013092
306 0 1 -11.371823 -6.151820 71.996887
307 0 1 -11.533143 -5.986920 71.058990
308 0 1 -11.064084 -5.684709 70.319092
309 0 1 -11.143683 -4.697930 70.322601
310 0 1 -10.457614 -4.517430 69.632111
311 0 1 -10.216813 -3.642425 69.969910
312 0 1 -10.193204 -3.037860 69.188110
313 0 1 -9.745814 -2.705756 68.402100
314 0 1 -10.733594 -2.784320 68.319214
315 0 1 -11.656714 -2.488748 68.161896
316 0 1 -11.352195 -1.647599 68.631500
317 0 1 -11.283534 -1.590320 69.540009
318 0 1 -11.957414 -0.847760 69.803406
319 0 1 -12.200084 0.030932 70.005707
320 0 1 -12.102164 -0.422338 70.825104
321 0 1 -11.896163 -0.155179 71.753906
322 0 1 -11.022365 0.123240 71.634491
323 0 1 -10.862794 1.052409 71.281097
324 0 1 -10.745774 1.857310 70.722900
325 0 1 -10.970553 2.475642 71.418304
326 0 1 -10.256133 3.134669 71.288208
327 0 1 -9.579373 3.773680 71.005615
328 0 1 -8.667634 3.574401 70.919983
329 0 1 -9.043784 4.015361 70.156311
330 0 1 -8.223784 4.478221 70.415497
331 0 1 -7.495605 4.701861 70.994995
332 0 1 -7.931224 5.519572 71.214905
333 0 1 -8.349053 5.931891 71.954407
334 0 1 -9.246684 6.114711 71.600098
335 0 1 -9.591044 5.204932 71.893707
336 0 1 -10.175113 4.869472 71.210388
337 0 1 -11.095784 4.677951 71.504608
338 0 1 -11.789504 4.642631 72.169098
339 0 1 -12.064084 4.054481 72.861389
340 0 1 -12.731692 3.696772 73.476807
341 0 1 -13.053544 3.159129 74.248108
342 0 1 -12.439794 2.613089 73.862610
343 0 1 -11.932343 2.728781 74.709717
344 0 1 -11.167603 2.716590 74.062988
345 0 1 -10.377713 2.480521 73.591919
346 0 1 -10.115094 3.451419 73.692810
347 0 1 -9.709073 4.144721 74.188110
348 0 1 -9.330184 4.739459 74.878998
349 0 1 -9.148025 5.026870 73.996307
350 0 1 -8.674495 4.274680 73.777588
351 0 1 -7.771583 4.515079 74.058807
352 0 1 -7.656543 3.726969 74.589600
353 0 1 -7.370735 3.745539 75.507385
354 0 1 -6.506954 4.278190 75.404297
355 0 1 -6.148414 4.704242 74.616089
356 0 1 -5.701395 4.734900 73.778687
357 0 1 -5.144840 4.961261 72.966614
358 0 1 -4.318180 4.908641 73.425781
359 0 1 -3.423765 4.635859 73.719604
360 0 1 -2.486824 4.786521 74.052612
361 0 1 -2.409442 5.541308 73.492889
362 0 1 -2.532184 5.086791 72.685211
363 0 1 -3.151325 5.806720 72.421906
364 0 1 -3.310733 5.988231 71.479004
365 0 1 -4.150381 5.488238 71.732391
366 0 1 -4.897548 5.301711 71.088104
367 0 1 -5.475774 5.026412 70.364502
368 0 1 -5.692474 4.293250 69.700317
369 0 1 -5.668684 4.912829 68.880981
370 0 1 -5.823783 4.158519 68.296295
371 0 1 -6.031595 4.132312 67.397308
372 0 1 -5.472694 3.368491 67.595795
373 0 1 -5.093339 3.579749 66.796692
374 0 1 -4.615436 2.984568 66.248901
375 0 1 -4.569942 2.763179 65.273315
376 0 1 -4.063077 3.577281 65.068115
377 0 1 -4.400556 3.957911 64.150299
378 0 1 -4.486940 4.484012 64.895905
379 0 1 -5.380157 4.946540 65.066406
380 0 1 -5.619094 5.826861 65.308807
381 0 1 -5.887624 6.230289 66.223999
382 0 1 -6.029113 7.120379 66.569214
383 0 1 -5.059131 7.220363 66.546692
384 0 1 -4.352653 6.634143 66.962585
385 0 1 -4.403408 5.765189 67.392700
386 0 1 -3.406435 5.765010 67.295898
387 0 1 -3.183004 6.693431 67.306702
388 0 1 -3.185033 7.686259 67.420197
389 0 1 -3.544475 8.020659 68.261292
390 0 1 -3.212993 7.411159 68.894409
391 0 1 -4.010417 6.865130 68.855286
392 0 1 -4.044494 6.003699 69.283691
393 0 1 -4.486106 5.173060 69.139008
394 0 1 -4.162435 4.277019 69.041382
395 0 1 -3.804985 3.689341 68.382507
396 0 1 -4.170717 2.813842 68.347412
397 0 1 -3.296403 2.497939 67.971191
398 0 1 -2.332405 2.756030 67.999298
399 0 1 -2.020103 2.096499 67.334900
400 0 1 -1.406383 2.129630 66.614410
401 0 1 -0.686016 1.678351 66.112183
402 0 1 -0.235935 1.685191 67.020813
403 0 1 0.756928 1.868411 67.200012
404 0 1 1.053845 1.164462 66.534485
405 0 1 1.236466 0.191871 66.359009
406 0 1 0.808747 -0.603582 66.047699
407 0 1 1.284195 -0.540349 65.200195
408 0 1 1.537785 -1.383599 65.655609
409 0 1 2.489026 -1.276200 65.779907
410 0 1 2.733864 -0.300660 65.736603
411 0 1 3.443154 -0.393018 66.452301
412 0 1 4.381966 -0.229180 66.620483
413 0 1 5.224797 0.256621 66.501801
414 0 1 4.686276 0.987521 66.096405
415 0 1 5.517407 0.977351 65.626099
416 0 1 6.057427 0.284472 65.298798
417 0 1 6.596924 0.637271 65.989410
418 0 1 7.458924 0.728892 65.570709
419 0 1 8.378125 0.833941 65.245117
420 0 1 9.062528 0.526889 64.655792
421 0 1 9.244325 1.271449 64.144501
422 0 1 9.748326 1.904281 63.657501
423 0 1 9.700425 2.615569 63.003998
424 0 1 9.764726 3.022170 63.850708
425 0 1 9.054326 2.739829 64.376892
426 0 1 9.078324 3.665629 64.807190
427 0 1 9.127828 4.589080 64.398102
428 0 1 9.263825 4.066520 63.629211
429 0 1 8.839524 4.867011 63.181305
430 0 1 7.991024 4.775031 62.620605
431 0 1 7.623627 5.261771 61.875183
432 0 1 8.252328 5.885772 62.232788
433 0 1 8.416226 6.024680 61.328888
434 0 1 8.012727 6.818221 61.215912
435 0 1 8.283925 7.249450 62.008698
436 0 1 8.117929 8.140162 62.162994
437 0 1 7.751027 8.642360 62.891205
438 0 1 7.139626 8.461761 62.207001
439 0 1 6.534424 7.720660 61.887787
440 0 1 6.795624 8.436660 61.238586
441 0 1 6.136326 7.905761 60.731110
442 0 1 5.350415 7.877360 60.023987
443 0 1 5.282227 7.197772 59.293701
444 0 1 4.322037 7.079722 59.083588
445 0 1 4.565018 6.290641 59.721893
446 0 1 4.044755 5.909892 58.983307
447 0 1 3.534276 5.153789 59.380493
448 0 1 3.019288 4.568370 59.996094
449 0 1 2.605027 3.956942 59.381409
450 0 1 2.223908 3.706599 58.564514
451 0 1 1.622105 3.436019 57.928711
452 0 1 1.211106 4.320670 57.657104
453 0 1 0.248517 4.127170 57.673889
454 0 1 0.530167 3.764251 58.602905
455 0 1 0.711648 3.250800 59.460602
456 0 1 1.178345 3.997710 59.909302
457 0 1 0.779126 3.829081 60.816895
458 0 1 1.247857 3.124289 61.263916
459 0 1 1.977128 2.488032 61.066498
460 0 1 2.482865 2.116122 60.335602
461 0 1 3.076317 2.615939 59.758087
462 0 1 3.681397 1.991229 59.383087
463 0 1 2.853955 1.594211 59.134491
464 0 1 3.140244 0.838721 58.584198
465 0 1 3.756058 0.832702 59.291809
466 0 1 4.485238 0.530871 58.781799
467 0 1 4.308667 -0.376409 58.409393
468 0 1 4.966935 -0.986180 58.443695
469 0 1 5.145375 -1.901551 58.292114
470 0 1 5.213006 -1.856036 59.243103
471 0 1 5.996525 -1.945474 59.706299
472 0 1 5.785828 -2.694291 59.103394
473 0 1 6.160325 -2.334901 58.203186
474 0 1 6.969925 -2.084646 57.762207
475 0 1 7.215027 -2.660169 57.085815
476 0 1 7.972325 -2.911918 56.530304
477 0 1 8.712228 -2.594917 56.991608
478 0 1 8.773927 -3.245815 57.754913
479 0 1 9.475125 -3.155051 58.343201
480 0 1 9.375825 -3.173797 59.332001
481 0 1 10.065026 -2.960662 59.957001
482 0 1 11.019326 -2.673526 60.126099
483 0 1 11.107827 -2.030721 59.423309
484 0 1 11.859529 -2.261220 58.814301
485 0 1 12.600129 -2.810012 58.980591
486 0 1 12.723924 -3.087123 59.894287
487 0 1 13.293027 -3.803939 59.516998
488 0 1 13.910424 -4.508130 59.813110
489 0 1 14.256928 -4.660449 60.670105
490 0 1 13.855027 -5.525559 60.879700
491 0 1 14.226624 -6.441829 60.945587
492 0 1 14.949426 -6.737460 60.357117
493 0 1 15.279725 -7.607709 60.680389
494 0 1 15.174928 -7.855210 61.583496
495 0 1 15.995526 -7.443360 61.791687
496 0 1 15.987126 -6.792569 62.474304
497 0 1 16.705223 -6.213979 62.187988
498 0 1 17.268524 -6.639869 62.833588
499 0 1 17.837128 -5.833449 62.722107
500 0 1 18.362125 -5.175370 63.189606
501 0 1 18.661125 -4.247720 63.244385
502 0 1 19.262226 -3.515241 63.123108
503 0 1 19.604424 -3.330774 62.116302
504 0 1 20.141026 -2.834060 61.480713
505 0 1 20.882126 -2.522947 61.018616
506 0 1 21.230125 -1.672570 60.780212
507 0 1 20.347725 -1.390590 60.368896
508 0 1 19.756927 -1.934489 59.751801
509 0 1 20.318527 -1.539060 59.102783
510 0 1 20.827423 -0.742250 59.392090
511 0 1 19.907326 -0.568669 59.429596
512 0 1 19.252724 0.010871 58.937592
513 0 1 18.388527 -0.070638 58.539093
514 0 1 18.075027 0.457072 57.801697
515 0 1 17.124626 0.628020 57.623901
516 0 1 16.367523 1.311042 57.490112
517 0 1 16.380726 0.942820 56.628387
518 0 1 16.123924 1.080432 55.768890
519 0 1 15.576127 0.988120 54.997406
520 0 1 15.159524 0.547442 54.194000
521 0 1 16.165726 0.490321 54.096985
522 0 1 16.510826 1.323470 53.697205
523 0 1 15.731324 1.245082 53.133789
524 0 1 16.453728 1.087699 52.441101
525 0 1 17.177326 0.690081 51.873413
526 0 1 16.703423 0.829532 51.081909
527 0 1 16.726624 -0.057340 50.703186
528 0 1 17.335625 0.308890 50.044098
529 0 1 17.731224 1.003611 50.587708
530 0 1 18.499825 1.023211 51.130798
531 0 1 18.847725 1.885882 51.149109
532 0 1 18.313828 2.682570 51.369293
533 0 1 17.674828 3.282149 51.604614
534 0 1 18.077324 3.886988 52.264313
535 0 1 18.484226 3.878482 53.147217
536 0 1 17.604225 3.926200 53.527893
537 0 1 17.997826 2.998259 53.654999
538 0 1 18.798027 2.733489 54.044495
539 0 1 19.193924 2.479571 54.892609
540 0 1 19.301926 2.318270 55.809601
541 0 1 18.547726 1.890342 56.121216
542 0 1 17.943325 1.039679 56.047302
543 0 1 17.113026 1.452010 55.774994
544 0 1 16.734924 2.341140 55.973694
545 0 1 17.332527 2.809470 55.435089
546 0 1 17.554024 3.679850 55.808807
547 0 1 17.925728 4.006930 56.668610
548 0 1 17.053925 4.410880 56.918091
549 0 1 17.212025 4.315272 57.891296
550 0 1 16.793526 5.156070 57.971313
551 0 1 15.872727 5.451690 57.862701
552 0 1 15.036126 5.740382 57.533691
553 0 1 14.490129 4.938201 57.349792
554 0 1 13.773526 4.253070 57.434692
555 0 1 13.623826 3.603621 58.188599
556 0 1 14.433526 4.057090 58.212708
557 0 1 15.428224 3.877398 58.312592
558 0 1 15.382226 3.345099 59.125793
559 0 1 15.231729 2.560340 58.659912
560 0 1 14.638925 3.049289 57.945007
561 0 1 13.845326 2.587420 57.725311
562 0 1 14.431024 2.069739 57.076416
563 0 1 13.925324 2.314360 56.319092
564 0 1 13.663026 1.812480 55.484100
565 0 1 13.416127 0.963179 55.162415
566 0 1 13.487924 0.523581 54.336090
567 0 1 12.771226 -0.071931 54.693604
568 0 1 12.530526 -0.592340 55.441711
569 0 1 13.223924 -0.597711 56.124298
570 0 1 12.959825 -1.500270 55.923798
571 0 1 13.049325 -2.451917 55.674316
572 0 1 12.555226 -2.704206 56.430511
573 0 1 11.976426 -3.076833 55.749817
574 0 1 11.714929 -3.306926 54.861511
575 0 1 12.386327 -3.467599 54.185303
576 0 1 11.912728 -3.938501 53.516510
577 0 1 10.991628 -3.814349 53.466003
578 0 1 10.652127 -2.934675 53.246399
579 0 1 10.815427 -1.995904 52.904999
580 0 1 11.183526 -1.994025 51.995697
581 0 1 10.273026 -1.975373 51.623291
582 0 1 9.291627 -2.168493 51.709290
583 0 1 8.688127 -2.850383 51.740784
584 0 1 9.038224 -3.058627 50.876190
585 0 1 8.320928 -3.733190 50.957306
586 0 1 8.515328 -3.656249 50.040802
587 0 1 9.062226 -3.070247 49.505188
588 0 1 8.378827 -2.486007 49.088013
589 0 1 7.787827 -2.424257 48.346985
590 0 1 7.054924 -1.964254 48.171692
591 0 1 6.051827 -1.955737 48.059998
592 0 1 6.055428 -2.152265 47.139496
593 0 1 6.150525 -1.878455 46.199707
594 0 1 5.313027 -1.310990 46.437317
595 0 1 4.444737 -1.012799 46.762299
596 0 1 3.731247 -1.669639 46.423706
597 0 1 3.771595 -1.858010 45.409393
598 0 1 3.173977 -1.793943 44.636688
599 0 1 2.845437 -1.151761 45.243011
600 0 1 1.916558 -0.882001 45.358887
601 0 1 2.465016 -0.136441 45.660004
602 0 1 3.035668 0.429042 46.311401
603 0 1 2.737755 1.301291 46.547302
604 0 1 3.418805 1.397460 45.834991
605 0 1 3.869526 2.258090 45.973694
606 0 1 3.730378 2.350802 45.027710
607 0 1 4.153397 2.569960 44.118195
608 0 1 4.180935 1.602733 44.003296
609 0 1 4.350304 1.023452 44.825287
610 0 1 5.293328 1.106509 45.050690
611 0 1 6.152428 1.626811 45.074188
612 0 1 6.811825 1.018142 44.782898
613 0 1 6.153027 0.689711 44.168304
614 0 1 6.235226 1.046771 43.315186
615 0 1 5.576226 0.525271 42.902313
616 0 1 6.248925 -0.120469 42.822205
617 0 1 5.851525 -0.874131 43.302094
618 0 1 5.837525 -0.960450 42.363586
619 0 1 5.079045 -1.035218 41.758484
620 0 1 5.072068 -0.713811 40.810791
621 0 1 4.555386 -1.048970 40.065491
622 0 1 4.142754 -1.541869 39.352905
623 0 1 4.987355 -1.312799 39.091095
624 0 1 5.284508 -0.682321 38.492096
625 0 1 5.676426 -0.961999 37.608307
626 0 1 6.322125 -0.997968 38.289917
627 0 1 6.306427 -1.467750 39.182983
628 0 1 5.819325 -1.042520 39.984589
629 0 1 6.069024 -0.111650 40.174805
630 0 1 6.868626 -0.497708 40.582001
631 0 1 7.024827 0.420199 40.321503
632 0 1 6.908726 0.422179 39.352417
633 0 1 6.679127 0.722331 38.432190
634 0 1 7.509427 1.283210 38.336487
635 0 1 7.848427 1.599891 37.495911
636 0 1 7.483525 2.437960 37.757599
637 0 1 6.988125 2.674590 37.009216
638 0 1 6.929024 1.860331 36.470306
639 0 1 7.107224 0.971469 36.049194
640 0 1 7.515526 1.287841 35.255310
641 0 1 7.749627 1.487441 34.327393
642 0 1 6.958024 1.396891 33.868805
643 0 1 6.163628 0.958320 33.994995
644 0 1 6.516228 0.952262 34.901306
645 0 1 5.767426 0.534591 35.343201
646 0 1 5.312417 0.311309 34.506592
647 0 1 4.800087 -0.174291 35.153503
648 0 1 4.735585 -0.566789 34.234497
649 0 1 3.994545 -1.318189 34.132385
650 0 1 3.799057 -0.478788 33.752502
651 0 1 3.212708 -0.951459 33.036591
652 0 1 2.966916 -1.324079 32.130798
653 0 1 3.089318 -2.215837 31.738312
654 0 1 2.849995 -2.481965 30.738800
655 0 1 2.006367 -2.227016 30.441589
656 0 1 1.764435 -3.001693 30.022705
657 0 1 2.017746 -3.885659 30.364899
658 0 1 1.427784 -4.012599 29.639709
659 0 1 1.019227 -4.669499 30.168213
660 0 1 0.129715 -4.536830 30.515015
661 0 1 -0.510143 -5.121989 30.879211
662 0 1 0.044926 -4.998809 31.769287
663 0 1 0.338784 -4.157449 32.160797
664 0 1 1.268326 -3.856750 32.314301
665 0 1 1.613797 -3.390163 33.134003
666 0 1 2.156167 -2.784614 32.653992
667 0 1 2.882645 -3.182409 33.043793
668 0 1 3.522545 -2.953155 33.669800
669 0 1 3.710167 -2.544912 34.523193
670 0 1 3.371567 -3.131351 35.373108
671 0 1 2.521058 -3.301559 35.744110
672 0 1 2.312195 -3.430003 36.708710
673 0 1 2.137757 -2.522605 36.993500
674 0 1 1.847046 -2.221269 37.827606
675 0 1 1.513386 -1.840007 38.647583
676 0 1 1.081997 -0.996350 38.516510
677 0 1 0.797356 -0.218511 37.888916
678 0 1 -0.226463 -0.118669 38.019409
679 0 1 -0.866683 -0.400991 37.423798
680 0 1 -1.022285 -0.940110 36.636688
681 0 1 -1.637153 -0.585000 36.011993
682 0 1 -2.329463 -0.432820 36.671112
683 0 1 -1.964454 0.299010 37.071808
684 0 1 -1.402374 1.040500 36.817596
685 0 1 -0.462944 0.934401 36.996307
686 0 1 -0.062866 1.706160 36.560211
687 0 1 0.744958 1.290580 36.226807
688 0 1 1.015896 1.537440 35.328308
689 0 1 1.488446 2.187251 34.802795
690 0 1 0.996167 2.828280 34.381989
691 0 1 0.194485 3.013129 33.929016
692 0 1 0.760907 2.555861 33.234589
693 0 1 0.902714 1.638469 33.049500
694 0 1 1.218617 1.970580 32.196411
695 0 1 0.919007 2.642550 31.535706
696 0 1 0.087987 3.148799 31.684204
697 0 1 -0.664653 3.645388 32.060394
698 0 1 -1.378112 3.090499 32.409790
699 0 1 -2.309684 3.317042 32.263000
700 0 1 -2.812416 3.959220 31.665405
701 0 1 -2.231224 4.599391 31.299713
702 0 1 -2.984893 4.558459 30.681885
703 0 1 -3.646682 4.974200 30.076996
704 0 1 -3.766725 5.834971 29.633698
705 0 1 -3.656879 5.850360 30.568909
706 0 1 -3.008375 5.978312 31.244995
707 0 1 -2.321186 6.622420 31.342712
708 0 1 -2.145744 7.308021 30.643707
709 0 1 -3.073225 7.123000 30.480896
710 0 1 -3.062774 7.872859 29.944000
711 0 1 -3.489748 8.304259 29.140900
712 0 1 -3.268465 8.266559 28.181488
713 0 1 -2.678436 8.057261 27.422485
714 0 1 -2.399223 8.794063 26.879089
715 0 1 -1.605163 8.642562 26.356506
716 0 1 -0.953723 7.992061 25.970215
717 0 1 -0.261333 8.673362 26.074890
718 0 1 0.602536 8.584861 25.593201
719 0 1 0.614876 7.544360 25.693298
720 0 1 1.511727 7.933860 25.943695
721 0 1 1.582108 8.302161 26.819885
722 0 1 2.377976 7.923461 27.142792
723 0 1 2.893837 7.116641 27.450989
724 0 1 2.469376 6.231898 27.543884
725 0 1 2.283226 5.547389 28.227203
726 0 1 2.804795 5.868541 28.972809
727 0 1 3.259827 5.097239 28.709991
728 0 1 3.490746 4.319209 28.266388
729 0 1 4.200867 4.083880 27.648407
730 0 1 3.859986 3.172202 27.552612
731 0 1 3.878335 2.234549 27.356110
732 0 1 3.329216 1.815600 28.077209
733 0 1 3.577965 1.525512 29.001312
734 0 1 3.813397 1.151072 29.881989
735 0 1 2.798825 1.283419 29.939606
736 0 1 1.966828 0.957091 29.557098
737 0 1 2.746125 0.626960 29.122314
738 0 1 2.651104 -0.008969 28.334991
739 0 1 2.601445 -0.673879 27.622894
740 0 1 3.507348 -0.422471 27.772614
741 0 1 3.569455 -0.941388 26.994812
742 0 1 3.852086 -1.262889 26.136505
743 0 1 3.216034 -1.137799 25.401703
744 0 1 3.850274 -0.369691 25.282990
745 0 1 4.663918 -0.312349 25.835297
746 0 1 4.952958 -0.922589 25.170898
747 0 1 4.887055 -1.844323 25.461395
748 0 1 5.049466 -1.932265 24.520599
749 0 1 5.460995 -1.323869 23.883301
750 0 1 6.155228 -1.139051 23.300598
751 0 1 5.583127 -0.952901 22.600189
752 0 1 5.502457 -1.935039 22.300507
753 0 1 5.192357 -2.770435 22.833405
754 0 1 5.958325 -2.821666 23.520691
755 0 1 5.905526 -3.766790 23.867096
756 0 1 5.195008 -4.404010 24.080597
757 0 1 4.581067 -4.521409 23.349487
758 0 1 4.060936 -4.717019 22.589813
759 0 1 4.175725 -5.046960 21.635406
760 0 1 5.054314 -5.485339 21.555695
761 0 1 4.637246 -5.315770 20.657501
762 0 1 5.235875 -4.964730 20.065506
763 0 1 5.134495 -4.838990 19.105194
764 0 1 4.285157 -4.342660 19.064804
765 0 1 3.525036 -4.585160 18.458099
766 0 1 2.875306 -4.965699 17.839401
767 0 1 3.721207 -5.014140 17.394897
768 0 1 4.386376 -5.735539 17.466599
769 0 1 5.104527 -6.381539 17.543793
770 0 1 5.626927 -7.246629 17.653702
771 0 1 6.580525 -7.037410 17.568604
772 0 1 7.444226 -7.273099 17.159302
773 0 1 7.728928 -7.790330 17.898804
774 0 1 7.439225 -8.565808 18.339600
775 0 1 6.647027 -8.478900 19.063400
776 0 1 6.352025 -9.384770 18.841705
777 0 1 7.264428 -9.656960 19.197495
778 0 1 7.757626 -10.153119 19.941406
779 0 1 8.296327 -10.971021 19.788895
780 0 1 8.118627 -10.898549 20.701401
781 0 1 8.352025 -10.525899 21.540802
782 0 1 7.556126 -10.909669 21.924698
783 0 1 6.660527 -10.673730 21.942596
784 0 1 6.700325 -10.669160 22.877686
785 0 1 5.745526 -10.628240 22.664307
786 0 1 5.498456 -9.725209 22.501190
787 0 1 4.675675 -9.708459 23.084412
788 0 1 3.827855 -9.454909 22.682709
789 0 1 4.059708 -8.732369 22.150894
790 0 1 3.231957 -8.683749 21.620499
791 0 1 2.439675 -9.011889 22.077805
792 0 1 1.964936 -9.259339 22.828094
793 0 1 2.263596 -8.629859 23.465515
794 0 1 1.947594 -7.829480 22.964600
795 0 1 1.621945 -7.055989 22.486404
796 0 1 1.621377 -7.729899 21.652695
797 0 1 1.575974 -7.163360 20.882996
798 0 1 0.744225 -7.766759 20.944504