LAMMPS data file via MDAnalysis

        2000  atoms
        1999  bonds
           0  angles
           0  dihedrals
           0  impropers

           1  atom types
           1  bond types
           0  angle types
           0  dihedral types
           0  improper types

-30.5 30.5 xlo xhi
-30.5 30.5 ylo yhi
-233.5 233.5 zlo zhi


Masses

1 1.000000

Atoms

1 0 1 -10.225036 -17.371641 46.173492
2 0 1 -10.713916 -17.632242 46.951996
3 0 1 -11.370187 -18.253042 47.158508
4 0 1 -11.956105 -18.216143 46.367615
5 0 1 -12.734166 -18.353542 45.818512
6 0 1 -12.834855 -17.681541 45.103912
7 0 1 -13.174455 -17.159042 45.879791
8 0 1 -12.759046 -16.309042 45.842102
9 0 1 -12.986156 -16.128841 46.708405
10 0 1 -12.440606 -16.771442 47.118103
11 0 1 -11.841935 -16.099941 47.409607
12 0 1 -11.747865 -15.161840 47.363495
13 0 1 -11.580716 -14.320142 47.786804
14 0 1 -11.682397 -14.775241 48.601807
15 0 1 -11.022836 -15.278541 49.062805
16 0 1 -10.296275 -15.732541 49.468689
17 0 1 -10.218356 -14.775441 49.600891
18 0 1 -9.415046 -14.871741 49.095703
19 0 1 -9.313466 -15.500141 49.770294
20 0 1 -9.295476 -15.130641 50.695099
21 0 1 -9.012315 -14.397840 50.049316
22 0 1 -8.392415 -13.615241 49.571716
23 0 1 -7.637345 -13.944840 49.994110
24 0 1 -6.906716 -13.313340 50.351593
25 0 1 -6.065726 -13.438840 49.866913
26 0 1 -5.989806 -12.708642 50.503998
27 0 1 -6.133086 -12.228841 51.284790
28 0 1 -6.257886 -11.162141 51.266602
29 0 1 -6.334615 -10.787442 50.403107
30 0 1 -5.256076 -10.721641 50.289703
31 0 1 -4.314116 -10.481141 49.941589
32 0 1 -3.767537 -10.779740 49.162994
33 0 1 -2.857982 -10.730041 49.292511
34 0 1 -2.974834 -10.047341 48.578003
35 0 1 -2.748945 -10.719342 47.893097
36 0 1 -2.507751 -10.076940 47.285187
37 0 1 -2.076377 -10.155641 46.406494
38 0 1 -3.003724 -10.246140 46.032898
39 0 1 -2.646837 -10.203740 45.169403
40 0 1 -1.702787 -9.843930 45.080109
41 0 1 -0.815896 -9.567590 44.742310
42 0 1 -0.540097 -10.488542 44.980408
43 0 1 -1.424127 -10.827741 44.911194
44 0 1 -1.665546 -10.638141 44.062988
45 0 1 -0.769086 -10.624341 43.774414
46 0 1 -0.025876 -10.348641 43.115204
47 0 1 -0.779325 -10.290341 42.602417
48 0 1 -1.311395 -9.613551 43.035309
49 0 1 -1.680375 -9.554540 43.882507
50 0 1 -2.329366 -10.018041 43.303802
51 0 1 -2.110992 -10.580140 42.537292
52 0 1 -2.511033 -9.833470 42.080811
53 0 1 -2.965207 -9.464511 41.334503
54 0 1 -3.784307 -9.861241 41.131104
55 0 1 -4.033095 -9.423741 40.295197
56 0 1 -3.677375 -9.084970 39.460388
57 0 1 -3.392089 -10.001441 39.390503
58 0 1 -2.479724 -9.866681 39.749390
59 0 1 -2.301507 -10.712140 39.342102
60 0 1 -2.157504 -11.252942 38.576996
61 0 1 -2.311160 -12.036340 39.005707
62 0 1 -2.631307 -12.019141 38.141510
63 0 1 -3.312948 -11.418042 38.106201
64 0 1 -2.646919 -11.194840 37.419189
65 0 1 -2.220607 -11.690341 36.703888
66 0 1 -2.195377 -12.422742 36.044098
67 0 1 -1.862264 -13.298039 35.669006
68 0 1 -2.093305 -12.990842 34.781006
69 0 1 -2.430185 -12.302041 34.179016
70 0 1 -3.295205 -12.584641 33.751404
71 0 1 -3.405690 -11.593442 34.052612
72 0 1 -4.059266 -12.007142 34.624695
73 0 1 -4.017386 -11.038041 34.798096
74 0 1 -4.575715 -10.436742 34.276093
75 0 1 -3.799442 -9.875352 34.029114
76 0 1 -4.490655 -9.486711 34.594513
77 0 1 -4.142507 -8.600850 34.395386
78 0 1 -4.486997 -7.704600 34.046997
79 0 1 -3.944366 -7.187421 33.448914
80 0 1 -3.493005 -7.696561 32.824493
81 0 1 -3.509181 -8.484391 32.320007
82 0 1 -2.566612 -8.539781 32.749390
83 0 1 -2.107793 -9.448510 32.944885
84 0 1 -2.149616 -10.404441 33.299988
85 0 1 -2.565202 -10.456040 32.415405
86 0 1 -3.392902 -10.259841 31.882690
87 0 1 -3.284408 -9.383000 31.544098
88 0 1 -2.800510 -9.134122 30.684113
89 0 1 -3.770660 -9.318971 30.639313
90 0 1 -4.682986 -9.521941 30.461212
91 0 1 -5.645226 -9.459071 30.618713
92 0 1 -6.339536 -10.075242 30.268890
93 0 1 -7.002246 -9.287080 30.385193
94 0 1 -7.800885 -9.789170 30.498199
95 0 1 -7.523595 -10.466840 31.072296
96 0 1 -8.460166 -10.388141 31.024292
97 0 1 -8.281446 -10.620641 31.925507
98 0 1 -9.213117 -10.954041 31.947601
99 0 1 -9.457006 -11.285340 31.052795
100 0 1 -10.093366 -10.736741 31.545715
101 0 1 -10.627946 -9.959352 31.496704
102 0 1 -11.091947 -9.623641 32.324310
103 0 1 -10.956965 -10.153440 33.132507
104 0 1 -10.359445 -10.833741 33.459412
105 0 1 -9.446805 -11.168441 33.603210
106 0 1 -8.627385 -10.804242 33.856293
107 0 1 -8.605926 -10.046842 33.231293
108 0 1 -8.532216 -9.535970 34.044891
109 0 1 -7.921645 -8.738820 34.084290
110 0 1 -7.314345 -9.170571 34.800201
111 0 1 -7.005206 -8.236201 34.681610
112 0 1 -6.085576 -8.217992 34.561401
113 0 1 -5.648866 -7.439622 34.095306
114 0 1 -6.540406 -6.954732 33.932587
115 0 1 -6.928966 -6.604600 33.083191
116 0 1 -5.968465 -6.486260 32.950012
117 0 1 -6.060096 -5.562821 33.326294
118 0 1 -6.628316 -5.405370 32.610291
119 0 1 -7.093015 -5.149961 31.844696
120 0 1 -7.152276 -4.219630 31.956207
121 0 1 -7.629106 -3.726602 31.220306
122 0 1 -7.080495 -3.095451 31.788605
123 0 1 -6.581376 -2.267911 31.664185
124 0 1 -7.173926 -1.651181 32.127411
125 0 1 -7.477286 -0.785405 32.391785
126 0 1 -7.974536 -0.103900 32.716003
127 0 1 -8.726926 -0.654327 32.865295
128 0 1 -8.249866 -1.296651 33.386292
129 0 1 -7.659705 -1.551690 34.098083
130 0 1 -7.927276 -1.653861 35.019104
131 0 1 -7.009305 -1.582721 35.212585
132 0 1 -6.558196 -0.726688 35.006104
133 0 1 -5.863687 -0.776607 35.656097
134 0 1 -5.461347 -1.581010 36.056610
135 0 1 -4.531365 -1.329501 35.965912
136 0 1 -4.288096 -0.639758 35.313690
137 0 1 -3.635249 -0.432307 36.054291
138 0 1 -3.707965 0.289298 35.493500
139 0 1 -4.604745 0.230573 35.926697
140 0 1 -4.369546 1.114339 36.157196
141 0 1 -4.458556 1.954860 35.677490
142 0 1 -3.751048 1.464200 35.212097
143 0 1 -3.343974 1.078830 34.410797
144 0 1 -3.777498 0.233498 34.312805
145 0 1 -3.280622 -0.366590 33.702209
146 0 1 -3.756261 -1.059491 34.156799
147 0 1 -3.811322 -1.803151 34.842285
148 0 1 -3.005782 -1.816590 35.302002
149 0 1 -2.711980 -1.287591 34.570587
150 0 1 -2.389667 -1.841031 33.799896
151 0 1 -2.207725 -1.441060 32.990601
152 0 1 -1.660115 -1.279790 32.195892
153 0 1 -2.123973 -2.168290 32.176514
154 0 1 -1.746986 -2.862321 32.874908
155 0 1 -1.676896 -3.740031 32.586212
156 0 1 -1.992465 -3.835321 31.700806
157 0 1 -1.373037 -3.389161 31.188202
158 0 1 -0.992757 -2.487991 31.286896
159 0 1 -0.190816 -2.173230 30.786102
160 0 1 -0.340917 -1.873901 29.901703
161 0 1 0.278716 -1.230691 29.495300
162 0 1 -0.239717 -0.436652 29.284607
163 0 1 0.629042 -0.005649 29.559204
164 0 1 1.083045 -0.801892 30.011810
165 0 1 1.827285 -0.277507 29.799896
166 0 1 1.863524 0.656062 30.022797
167 0 1 2.651442 0.810840 29.523499
168 0 1 3.304763 1.508868 29.579407
169 0 1 3.061045 2.263949 29.023987
170 0 1 2.530356 2.846350 28.365692
171 0 1 1.705283 2.452479 28.333496
172 0 1 1.115374 3.207709 28.175812
173 0 1 1.730903 3.107310 27.381592
174 0 1 1.813933 3.491198 26.492188
175 0 1 1.985865 4.387568 26.238495
176 0 1 2.709346 4.800281 26.721191
177 0 1 3.543772 4.388827 26.376190
178 0 1 4.493754 4.280429 26.110687
179 0 1 4.283175 4.011390 26.954193
180 0 1 4.164435 4.402350 27.898499
181 0 1 5.080264 4.197928 27.716614
182 0 1 5.624106 3.383609 27.966003
183 0 1 5.622195 3.392558 28.926910
184 0 1 6.598273 3.264178 29.062408
185 0 1 6.666133 4.201228 28.871002
186 0 1 7.515643 3.901248 29.216095
187 0 1 8.161845 4.081820 29.862305
188 0 1 8.537642 4.365420 30.691010
189 0 1 9.185042 3.874289 31.338593
190 0 1 8.222144 3.787287 31.467712
191 0 1 8.576842 2.997317 31.774994
192 0 1 9.266044 2.349040 32.093109
193 0 1 9.673945 1.538840 32.437805
194 0 1 10.383044 2.092719 32.240112
195 0 1 10.427844 1.569899 31.371490
196 0 1 9.612346 1.973899 31.103302
197 0 1 9.112346 2.636679 30.575500
198 0 1 9.439845 3.469310 30.243713
199 0 1 9.692145 3.004859 29.422211
200 0 1 10.047645 3.611197 28.667114
201 0 1 10.970744 3.709849 28.747986
202 0 1 10.960044 2.792708 28.955109
203 0 1 10.506343 2.499537 29.757812
204 0 1 11.482543 2.688708 30.023407
205 0 1 11.056243 2.030738 30.562103
206 0 1 11.363845 1.354159 29.973206
207 0 1 11.960944 1.605079 30.662201
208 0 1 11.775947 1.106009 31.394501
209 0 1 12.167644 0.641099 32.154510
210 0 1 13.064044 0.725440 32.320312
211 0 1 13.350444 0.156136 31.653503
212 0 1 14.241744 -0.193818 32.003906
213 0 1 15.103347 -0.092307 32.454803
214 0 1 15.359443 -0.615955 31.623291
215 0 1 14.912147 -0.376519 30.755798
216 0 1 14.783145 0.649421 30.810211
217 0 1 14.267142 0.625089 30.010315
218 0 1 14.503943 0.906293 29.181000
219 0 1 15.064643 1.722430 29.222687
220 0 1 15.900744 1.967158 28.770386
221 0 1 16.769243 1.650988 28.977509
222 0 1 16.606844 0.856679 28.414490
223 0 1 17.312044 0.616107 27.865509
224 0 1 18.055143 1.304549 27.667511
225 0 1 18.655142 1.990081 27.500916
226 0 1 18.820444 1.504720 26.678314
227 0 1 18.232244 1.558768 25.901611
228 0 1 18.403944 2.387809 26.335297
229 0 1 18.624544 3.185660 25.834595
230 0 1 19.517344 3.453170 25.905396
231 0 1 19.202044 4.434291 25.859711
232 0 1 19.538843 5.193160 26.309601
233 0 1 19.627142 5.992808 25.781097
234 0 1 20.209944 6.656657 25.274200
235 0 1 20.820444 7.106700 24.670105
236 0 1 21.750845 6.982738 24.414703
237 0 1 22.429846 6.341769 24.675201
238 0 1 23.084944 5.785289 25.094208
239 0 1 23.102243 6.023578 26.031097
240 0 1 22.792944 6.036220 26.997009
241 0 1 23.573244 5.606898 27.268097
242 0 1 22.861746 5.266490 27.873413
243 0 1 23.115343 5.467380 28.780884
244 0 1 23.498343 4.557170 28.844696
245 0 1 23.306143 3.638579 28.894501
246 0 1 23.424044 3.045439 29.638916
247 0 1 22.752043 3.723017 29.996613
248 0 1 23.594343 4.014621 30.397614
249 0 1 22.954042 3.969447 31.085114
250 0 1 22.707144 4.272609 31.942688
251 0 1 21.800043 3.960089 31.817688
252 0 1 20.874544 3.889357 32.161804
253 0 1 20.238443 3.474890 32.734985
254 0 1 19.339144 3.143588 32.687805
255 0 1 18.611242 3.269770 33.412598
256 0 1 17.758444 3.009547 33.851410
257 0 1 17.531942 2.133628 33.514313
258 0 1 17.147943 1.758998 34.312805
259 0 1 17.397142 2.258467 35.051697
260 0 1 16.658842 2.734099 35.307709
261 0 1 16.148043 2.069430 34.894806
262 0 1 15.192245 2.234538 34.948486
263 0 1 15.330443 1.569037 34.313416
264 0 1 15.483745 1.937240 33.446991
265 0 1 15.052444 1.705779 32.631012
266 0 1 15.275844 2.534468 32.112610
267 0 1 14.763545 1.909839 31.496216
268 0 1 15.615844 2.047827 31.048492
269 0 1 16.528944 1.840037 30.868103
270 0 1 16.950743 2.281810 31.605194
271 0 1 17.666342 2.650161 32.245392
272 0 1 17.601446 3.603038 32.093903
273 0 1 16.935244 3.778041 32.793793
274 0 1 16.275145 4.211749 33.330505
275 0 1 16.834543 4.837661 32.741699
276 0 1 16.210943 5.402408 33.196594
277 0 1 15.622443 6.215728 33.313995
278 0 1 15.238944 7.078490 33.563416
279 0 1 15.774543 7.462680 34.211914
280 0 1 15.098544 7.479819 34.838898
281 0 1 15.898147 7.922969 35.181610
282 0 1 16.449446 7.935138 35.962311
283 0 1 17.053244 7.224391 35.895203
284 0 1 17.690443 7.166678 35.169617
285 0 1 17.605944 6.254748 35.360596
286 0 1 16.702841 6.161651 35.137695
287 0 1 16.480246 5.214091 35.208984
288 0 1 15.761744 4.749801 34.892090
289 0 1 14.832343 4.506038 35.153290
290 0 1 15.061942 4.808368 36.013489
291 0 1 15.529944 5.539218 36.388306
292 0 1 15.559745 4.974849 37.144501
293 0 1 15.236442 4.136847 36.845398
294 0 1 15.423743 3.255717 37.238098
295 0 1 14.905845 2.642600 36.758698
296 0 1 14.372844 1.883368 36.899414
297 0 1 13.556342 1.347690 36.800507
298 0 1 13.337043 0.604176 36.217499
299 0 1 12.827144 0.701735 35.430511
300 0 1 12.674846 -0.228795 35.514709
301 0 1 12.704844 -1.277921 35.529388
302 0 1 12.490645 -2.015092 36.137909
303 0 1 11.905944 -2.418210 36.822906
304 0 1 12.813945 -2.698402 36.997711
305 0 1 13.721744 -2.691701 37.142395
306 0 1 14.061145 -3.445281 36.665894
307 0 1 13.812644 -4.140021 37.281891
308 0 1 13.147246 -4.168101 37.918304
309 0 1 13.472144 -3.750491 38.709503
310 0 1 13.828845 -3.276120 39.506989
311 0 1 13.541545 -2.845971 40.358215
312 0 1 12.783042 -3.319251 39.963196
313 0 1 12.500045 -2.646402 40.558807
314 0 1 12.336444 -1.832912 40.046387
315 0 1 12.997943 -1.294881 39.509705
316 0 1 12.502746 -1.416492 38.705688
317 0 1 12.094646 -0.516502 38.713684
318 0 1 11.421546 -1.186832 38.441895
319 0 1 11.305545 -1.274140 39.446594
320 0 1 11.209342 -2.097511 39.974213
321 0 1 11.223342 -3.074540 40.179596
322 0 1 11.255645 -2.558191 40.969696
323 0 1 11.811244 -2.623111 41.848389
324 0 1 11.811645 -2.368011 42.762299
325 0 1 11.227645 -2.834111 43.348907
326 0 1 11.670646 -2.810670 44.153015
327 0 1 11.516746 -2.497842 45.013916
328 0 1 10.893344 -2.821552 45.631409
329 0 1 10.476142 -3.655771 45.383209
330 0 1 10.704543 -4.197810 46.187195
331 0 1 10.725345 -5.109681 46.000610
332 0 1 9.961345 -5.419560 46.621796
333 0 1 9.377242 -5.165421 45.818298
334 0 1 8.689044 -5.416852 45.257294
335 0 1 8.500545 -6.068011 44.570587
336 0 1 7.789443 -6.617381 44.917206
337 0 1 7.647944 -6.750451 45.808105
338 0 1 7.912642 -7.610431 46.070709
339 0 1 7.807242 -8.536731 46.401703
340 0 1 7.913245 -8.221351 47.325012
341 0 1 7.152305 -7.664031 47.080994
342 0 1 6.307403 -7.738622 46.532104
343 0 1 5.693274 -8.240472 45.924011
344 0 1 4.762305 -8.322841 45.827087
345 0 1 4.318145 -8.502810 46.585388
346 0 1 3.851874 -7.756310 46.792389
347 0 1 3.407996 -7.930411 45.967499
348 0 1 2.508174 -7.581071 45.985809
349 0 1 1.808375 -7.769071 45.383911
350 0 1 1.575114 -7.798911 46.283203
351 0 1 0.831084 -8.042790 46.829193
352 0 1 0.260215 -7.580531 47.430115
353 0 1 -0.174688 -7.352811 48.302612
354 0 1 0.660533 -7.975221 48.380096
355 0 1 1.125903 -8.712750 47.909393
356 0 1 0.268184 -9.183501 47.885010
357 0 1 -0.549367 -8.946660 47.462097
358 0 1 -0.639657 -8.894631 46.460297
359 0 1 0.084605 -9.079581 45.877991
360 0 1 0.739566 -8.991292 45.196503
361 0 1 1.600264 -8.985381 44.778900
362 0 1 1.946975 -9.820710 44.380402
363 0 1 1.252444 -10.524140 44.784912
364 0 1 0.560923 -10.695540 44.045197
365 0 1 1.113044 -11.239841 43.532196
366 0 1 1.959384 -11.633441 43.590607
367 0 1 2.014914 -12.432940 43.165710
368 0 1 2.895465 -12.874541 43.184814
369 0 1 3.161494 -13.756841 42.975494
370 0 1 2.729285 -14.419141 43.608490
371 0 1 2.814505 -14.332440 44.585205
372 0 1 3.610774 -13.956140 44.318909
373 0 1 4.509192 -14.110841 44.616089
374 0 1 5.159953 -14.074540 43.874207
375 0 1 5.490264 -13.823941 42.981689
376 0 1 4.543876 -13.991342 42.807098
377 0 1 4.834975 -14.290441 41.922394
378 0 1 5.140925 -15.193041 41.996399
379 0 1 5.746715 -14.736641 41.401703
380 0 1 6.282115 -13.997041 41.594696
381 0 1 6.454074 -13.712241 40.702911
382 0 1 5.923984 -12.973641 40.714203
383 0 1 6.655665 -12.399941 40.499084
384 0 1 7.156837 -12.609342 41.362793
385 0 1 7.819144 -12.785541 41.990692
386 0 1 8.702846 -13.056840 42.083191
387 0 1 9.295142 -12.704141 42.702789
388 0 1 9.023345 -11.722541 42.821594
389 0 1 8.835444 -10.821542 42.922607
390 0 1 9.397143 -10.157140 43.396484
391 0 1 9.853045 -10.248540 44.258301
392 0 1 10.609843 -9.704501 44.471588
393 0 1 10.396945 -9.748530 45.416290
394 0 1 11.239345 -9.489331 45.787994
395 0 1 12.180945 -9.477960 45.582214
396 0 1 12.915545 -9.964692 45.269806
397 0 1 13.524844 -9.689981 45.992096
398 0 1 14.375045 -9.381270 46.296204
399 0 1 15.286845 -9.221112 46.016205
400 0 1 14.846244 -9.185300 45.174713
401 0 1 15.652545 -9.321691 44.643402
402 0 1 14.933646 -9.304221 43.990204
403 0 1 14.477344 -8.490479 44.070587
404 0 1 15.151046 -8.351560 43.464691
405 0 1 15.376143 -7.768670 44.175995
406 0 1 15.515544 -6.841681 43.926605
407 0 1 15.367545 -5.935441 43.884796
408 0 1 14.424346 -5.724311 43.992889
409 0 1 14.169547 -5.544541 44.930786
410 0 1 15.114242 -5.476930 45.085693
411 0 1 15.906844 -5.924960 45.592010
412 0 1 16.524542 -5.172641 45.635101
413 0 1 16.417543 -5.091401 44.652588
414 0 1 16.225645 -4.243510 45.097900
415 0 1 16.235243 -3.559381 44.284790
416 0 1 15.635844 -4.287261 43.857300
417 0 1 15.142043 -3.754960 43.251312
418 0 1 14.992942 -3.243171 44.096191
419 0 1 14.463042 -2.456922 44.324188
420 0 1 13.647544 -2.707671 44.708191
421 0 1 13.064345 -2.516240 43.963898
422 0 1 13.710845 -1.814210 43.654785
423 0 1 13.525947 -1.116811 42.990387
424 0 1 14.004745 -0.919976 42.184204
425 0 1 14.191543 -0.859166 41.225800
426 0 1 15.062644 -0.373910 41.139008
427 0 1 15.379344 -1.303842 41.227600
428 0 1 16.093744 -1.961652 41.288696
429 0 1 16.309843 -1.028722 41.511505
430 0 1 17.035742 -0.398872 41.269287
431 0 1 17.807745 0.044370 41.630188
432 0 1 18.701242 0.139464 41.285583
433 0 1 19.524744 0.632829 41.210602
434 0 1 20.021944 0.124863 40.588989
435 0 1 20.702444 -0.070283 41.261414
436 0 1 20.884344 0.862883 41.276611
437 0 1 21.356043 0.721928 40.413300
438 0 1 21.988241 1.388839 40.587799
439 0 1 22.347242 0.757226 41.244904
440 0 1 23.209044 0.481257 41.705200
441 0 1 22.408842 -0.047847 41.922394
442 0 1 22.057646 -0.092219 42.802094
443 0 1 22.188742 0.486743 43.536316
444 0 1 22.226645 0.593161 44.467102
445 0 1 21.910742 1.481919 44.407990
446 0 1 21.185743 1.354468 43.795502
447 0 1 21.125643 1.869449 42.998108
448 0 1 21.559244 2.473738 43.686005
449 0 1 22.056746 3.327979 43.699707
450 0 1 21.867643 3.268630 44.750397
451 0 1 21.329042 4.047210 44.591187
452 0 1 21.003942 4.968287 44.711090
453 0 1 21.266344 4.812449 45.610901
454 0 1 21.596144 5.673339 45.587189
455 0 1 21.942842 6.034568 44.693512
456 0 1 21.751646 5.207858 44.140411
457 0 1 21.498243 5.433299 43.237610
458 0 1 21.408243 5.958220 42.470093
459 0 1 21.465246 6.894328 42.605988
460 0 1 20.495642 7.046729 42.466309
461 0 1 19.692442 6.918887 43.005615
462 0 1 19.308645 7.829490 43.189514
463 0 1 19.546446 8.809360 43.309601
464 0 1 19.293745 9.487269 42.706696
465 0 1 20.062044 9.594089 42.178406
466 0 1 20.333643 10.313659 41.630798
467 0 1 20.537344 11.247157 41.489685
468 0 1 20.927046 11.069060 42.343384
469 0 1 21.748644 10.548457 42.495483
470 0 1 22.647543 10.571361 42.850098
471 0 1 23.182043 11.318957 43.026001
472 0 1 22.846342 11.404559 43.978699
473 0 1 22.925844 12.010558 44.647095
474 0 1 22.330442 11.265059 45.002899
475 0 1 22.044443 10.946757 45.914490
476 0 1 21.634844 11.198058 46.767395
477 0 1 21.328741 10.720260 47.535400
478 0 1 20.564844 11.268958 47.640503
479 0 1 20.421141 11.251258 46.652588
480 0 1 19.694044 10.574359 46.799988
481 0 1 18.708944 10.584960 46.516907
482 0 1 18.369543 11.385859 46.980286
483 0 1 18.157042 11.560161 46.080505
484 0 1 18.930845 11.859458 45.601685
485 0 1 18.213743 12.367358 45.342712
486 0 1 18.638144 13.111659 45.696411
487 0 1 18.319342 12.797858 46.580200
488 0 1 17.478743 13.184058 46.125793
489 0 1 17.084242 12.410357 46.543793
490 0 1 16.517344 12.188258 47.229095
491 0 1 15.871345 11.597259 46.881805
492 0 1 15.882045 10.844760 47.536896
493 0 1 16.055944 9.858607 47.656891
494 0 1 15.334144 9.822970 47.005096
495 0 1 14.851447 10.322459 46.332092
496 0 1 14.366042 11.168361 46.078491
497 0 1 14.986342 11.667361 45.636902
498 0 1 14.068542 11.846259 45.299805
499 0 1 13.218345 11.453059 45.308990
500 0 1 12.868743 11.722060 46.207703
501 0 1 12.113143 11.352660 46.661499
502 0 1 11.546042 10.790759 47.308197
503 0 1 11.699744 10.258159 48.066498
504 0 1 12.200942 9.455981 48.038300
505 0 1 11.832343 8.611751 47.765991
506 0 1 12.447845 7.872340 47.497192
507 0 1 13.375243 7.799209 47.182404
508 0 1 13.300944 7.510879 46.266205
509 0 1 13.472747 6.738509 45.757996
510 0 1 14.227843 6.046878 45.667389
511 0 1 15.082343 5.760921 45.508484
512 0 1 15.546943 4.977260 45.172913
513 0 1 15.034942 4.551890 45.878693
514 0 1 14.472342 3.885188 45.470215
515 0 1 13.754245 3.220507 45.277313
516 0 1 14.084243 3.529559 44.403290
517 0 1 14.057242 3.609050 43.437103
518 0 1 13.242545 3.187358 43.515991
519 0 1 12.679545 3.218287 42.731995
520 0 1 11.865745 3.800009 42.540192
521 0 1 10.972743 3.596259 42.785797
522 0 1 10.843043 4.421420 42.262085
523 0 1 10.874145 4.884768 41.470886
524 0 1 11.194343 5.655360 41.098816
525 0 1 10.330047 5.328361 40.626495
526 0 1 10.712344 5.465037 39.684601
527 0 1 11.026343 5.093818 38.883789
528 0 1 10.289645 5.637870 38.633392
529 0 1 9.463244 6.160991 38.698700
530 0 1 10.007644 6.926379 38.398315
531 0 1 10.003142 7.306621 39.267700
532 0 1 9.077544 7.693538 39.285492
533 0 1 8.446544 8.419188 39.285004
534 0 1 8.803946 8.478789 38.388306
535 0 1 9.512645 8.292899 37.760315
536 0 1 9.396644 7.566447 37.152710
537 0 1 9.484344 8.116191 36.337311
538 0 1 8.707442 7.576438 36.136688
539 0 1 8.679545 7.106090 35.330109
540 0 1 9.427146 6.582820 35.180298
541 0 1 9.457545 7.009410 34.284485
542 0 1 10.343944 7.047610 34.564087
543 0 1 10.828544 7.817821 34.891602
544 0 1 11.564044 8.112681 35.523499
545 0 1 12.025245 7.840629 34.723694
546 0 1 12.489444 8.294551 34.000305
547 0 1 12.956843 7.918330 33.253784
548 0 1 12.270743 7.344859 33.047913
549 0 1 12.596545 7.220840 32.129303
550 0 1 12.086646 7.039630 31.333801
551 0 1 11.099143 6.845031 31.478088
552 0 1 10.406646 7.317119 30.970795
553 0 1 9.486045 7.399341 31.352600
554 0 1 9.004245 8.278369 31.358307
555 0 1 8.124244 7.996680 31.037598
556 0 1 8.193744 8.930968 31.020386
557 0 1 7.692645 8.832000 30.151886
558 0 1 8.178344 8.646388 29.347900
559 0 1 7.469646 9.225238 29.249512
560 0 1 6.967353 9.963298 29.638214
561 0 1 6.594176 9.254130 30.266693
562 0 1 6.050174 9.524341 29.539001
563 0 1 6.021686 9.965140 28.671906
564 0 1 6.685164 10.601760 28.686310
565 0 1 7.577144 11.043262 28.668213
566 0 1 8.430945 11.310660 28.990906
567 0 1 9.007346 11.959758 29.386414
568 0 1 8.589942 12.196959 28.534088
569 0 1 7.919345 12.424460 27.842712
570 0 1 7.155684 12.924758 27.564697
571 0 1 7.946044 12.950160 26.990692
572 0 1 7.506446 12.357860 26.278107
573 0 1 7.778342 11.461558 26.342407
574 0 1 8.419044 10.865458 26.668304
575 0 1 7.952445 10.676360 27.427307
576 0 1 7.063575 10.592257 27.144989
577 0 1 6.471644 10.665160 26.400513
578 0 1 6.287913 10.439059 25.489410
579 0 1 6.439696 10.314460 24.484985
580 0 1 5.990344 10.557059 23.666687
581 0 1 5.765014 11.396159 23.280396
582 0 1 6.197974 12.059760 23.804108
583 0 1 5.839934 11.660758 24.620300
584 0 1 4.894614 11.377158 24.707794
585 0 1 3.969844 11.194461 24.752411
586 0 1 4.393573 10.936160 25.629791
587 0 1 4.209785 11.971660 25.822510
588 0 1 3.558722 12.195560 26.406097
589 0 1 3.498683 13.145259 26.556000
590 0 1 4.420505 13.403159 26.869904
591 0 1 4.230395 14.275859 27.262512
592 0 1 4.462363 14.878161 27.992004
593 0 1 5.046214 15.475360 28.679688
594 0 1 4.294253 16.077456 28.852386
595 0 1 3.727515 16.909159 28.908813
596 0 1 3.510573 17.818560 28.687103
597 0 1 3.960906 17.493158 27.835388
598 0 1 3.011485 17.532061 27.711212
599 0 1 3.515143 18.215960 27.314392
600 0 1 3.931983 17.669859 26.759399
601 0 1 3.202086 17.707258 26.150604
602 0 1 2.251014 17.813959 26.311798
603 0 1 2.226355 17.096956 26.876801
604 0 1 1.374923 17.551558 27.287201
605 0 1 0.466704 17.491259 27.745514
606 0 1 0.942603 18.375257 27.814087
607 0 1 1.783522 18.753859 28.084808
608 0 1 2.684043 19.161058 28.343597
609 0 1 2.135764 19.311659 29.158386
610 0 1 1.797763 20.192057 29.566010
611 0 1 2.688155 20.435358 30.047913
612 0 1 3.247615 20.941256 29.450012
613 0 1 2.529803 21.574160 29.122009
614 0 1 3.280204 21.734156 28.617401
615 0 1 4.296615 21.582857 28.609009
616 0 1 5.121604 22.123056 29.001190
617 0 1 4.604175 22.925058 29.028412
618 0 1 3.751006 23.351259 28.737701
619 0 1 3.516993 23.823759 29.586914
620 0 1 3.681533 23.851957 30.530884
621 0 1 3.484805 22.889059 30.312500
622 0 1 2.635356 23.346056 30.268707
623 0 1 1.722815 23.159258 30.005798
624 0 1 1.530513 23.292559 30.923584
625 0 1 1.060294 22.646860 31.460297
626 0 1 1.410155 21.843859 31.171509
627 0 1 0.592635 21.455858 31.569611
628 0 1 0.515693 21.173555 32.480713
629 0 1 1.116443 21.860460 32.821594
630 0 1 1.301913 22.476957 33.504700
631 0 1 2.110995 23.010157 33.658203
632 0 1 2.853774 22.496958 34.014801
633 0 1 3.207713 22.498560 34.891998
634 0 1 2.581065 22.587458 35.654785
635 0 1 1.631305 22.727259 35.441406
636 0 1 1.643695 21.824259 35.214813
637 0 1 0.767833 22.025259 35.440186
638 0 1 0.163054 21.611856 34.839111
639 0 1 -0.455445 21.876360 34.149597
640 0 1 -0.706437 22.557261 33.528290
641 0 1 -1.630376 22.706461 33.802795
642 0 1 -2.241613 22.133059 33.299591
643 0 1 -1.974359 21.991961 32.356293
644 0 1 -2.784688 22.294359 31.878296
645 0 1 -3.367423 21.529757 31.561584
646 0 1 -3.185209 21.008558 30.672913
647 0 1 -2.226089 21.013956 30.618286
648 0 1 -1.493825 21.470758 30.111206
649 0 1 -1.701625 22.292658 30.707611
650 0 1 -1.359265 23.152758 30.472809
651 0 1 -1.338716 23.370256 31.380310
652 0 1 -2.326473 23.200258 31.253784
653 0 1 -2.722497 24.008959 30.901886
654 0 1 -2.193401 24.197557 30.072815
655 0 1 -1.932693 24.727160 29.268005
656 0 1 -2.279668 25.584856 29.419006
657 0 1 -3.202157 25.880159 29.173096
658 0 1 -4.009496 25.518759 29.462799
659 0 1 -4.277596 25.710657 30.396790
660 0 1 -4.207715 24.744959 30.726685
661 0 1 -4.131755 23.774958 31.018616
662 0 1 -4.340585 22.995459 31.523407
663 0 1 -4.847245 22.212160 31.564697
664 0 1 -4.449075 21.323160 31.469910
665 0 1 -4.426566 20.503458 31.999695
666 0 1 -4.104917 19.601358 32.022583
667 0 1 -4.746856 18.924959 32.165009
668 0 1 -5.651025 18.783857 32.369385
669 0 1 -6.634856 18.580759 32.227112
670 0 1 -7.602925 18.317461 32.130798
671 0 1 -7.311746 17.348658 32.194214
672 0 1 -7.618445 16.711756 31.464905
673 0 1 -7.629827 15.911357 30.934998
674 0 1 -7.119786 15.322261 31.586609
675 0 1 -7.006166 14.573260 32.196411
676 0 1 -7.555526 14.534560 32.970795
677 0 1 -6.949117 15.291560 33.127899
678 0 1 -6.730325 15.828158 32.404205
679 0 1 -5.886296 15.498359 32.083893
680 0 1 -5.503615 15.072459 31.330902
681 0 1 -5.290816 14.269259 30.857605
682 0 1 -5.892995 13.474959 30.938812
683 0 1 -5.763255 13.517459 31.943298
684 0 1 -6.120345 13.864360 32.844604
685 0 1 -5.340936 14.415561 32.667786
686 0 1 -4.697715 14.185061 32.010986
687 0 1 -4.369746 13.619060 31.292114
688 0 1 -4.765965 12.837260 30.936401
689 0 1 -4.687396 12.123561 30.333191
690 0 1 -4.619586 11.690558 29.489197
691 0 1 -5.413236 12.238261 29.250916
692 0 1 -5.889815 11.535861 28.796692
693 0 1 -5.309016 11.105159 28.089905
694 0 1 -5.896085 11.150058 27.296600
695 0 1 -6.153575 11.218459 26.338684
696 0 1 -6.740975 11.234260 25.652008
697 0 1 -6.272737 10.614959 25.125305
698 0 1 -5.669116 11.094661 24.546112
699 0 1 -5.482806 11.035758 23.614105
700 0 1 -6.055017 11.636260 23.154388
701 0 1 -6.431516 12.483958 23.167786
702 0 1 -6.849856 12.264857 24.009796
703 0 1 -6.840405 12.123260 24.927094
704 0 1 -7.420365 11.331958 24.706390
705 0 1 -7.844405 12.067458 24.256287
706 0 1 -8.715365 11.955859 23.830994
707 0 1 -9.344445 12.645560 23.945007
708 0 1 -10.029906 12.584857 24.609009
709 0 1 -10.756555 12.764461 23.996796
710 0 1 -11.661256 12.465659 24.275391
711 0 1 -11.917935 13.464061 24.231689
712 0 1 -12.088067 14.220561 23.757202
713 0 1 -11.249866 14.421760 24.173492
714 0 1 -10.620486 14.809760 23.548798
715 0 1 -9.921685 14.757659 22.942993
716 0 1 -9.271506 15.225059 22.346802
717 0 1 -9.060016 14.413459 21.817703
718 0 1 -8.307286 13.784858 21.897095
719 0 1 -7.445725 13.487960 22.187408
720 0 1 -7.302415 12.600657 21.914398
721 0 1 -7.198705 12.829558 20.966797
722 0 1 -6.239175 12.610560 20.724792
723 0 1 -5.865476 11.841460 21.120300
724 0 1 -6.620477 11.257861 21.267700
725 0 1 -7.488355 10.803958 21.522202
726 0 1 -8.186696 10.453658 22.149002
727 0 1 -8.766095 11.019259 22.650513
728 0 1 -8.281486 10.417060 23.238098
729 0 1 -7.783235 10.246257 24.069092
730 0 1 -7.452596 9.754077 24.812805
731 0 1 -7.929887 9.866050 25.680298
732 0 1 -8.253575 9.783069 26.622009
733 0 1 -8.585076 9.637839 27.482788
734 0 1 -8.437455 10.186557 28.278595
735 0 1 -8.726876 9.816009 29.192108
736 0 1 -8.724576 10.665057 29.700104
737 0 1 -8.417605 10.163760 30.526001
738 0 1 -7.570765 9.697207 30.637299
739 0 1 -6.758105 9.256579 30.993195
740 0 1 -6.355786 8.862239 30.169312
741 0 1 -5.420476 8.604468 30.452606
742 0 1 -5.175506 9.185790 31.203094
743 0 1 -4.826896 8.961028 31.976501
744 0 1 -3.846656 9.010268 31.992706
745 0 1 -4.021945 9.415709 31.135895
746 0 1 -3.354566 8.727870 30.928894
747 0 1 -3.815580 8.127479 30.375610
748 0 1 -4.430615 8.397780 29.659698
749 0 1 -5.262406 8.195029 29.224213
750 0 1 -5.159316 8.620528 28.400696
751 0 1 -4.188725 8.593257 28.135986
752 0 1 -4.454465 9.004119 27.335602
753 0 1 -5.052596 9.558551 26.745789
754 0 1 -4.733356 9.925578 25.911194
755 0 1 -5.546166 9.677810 25.461487
756 0 1 -5.091096 10.156161 24.790588
757 0 1 -4.800176 9.467441 24.119507
758 0 1 -4.501935 8.575210 24.285706
759 0 1 -3.581811 8.692851 24.220612
760 0 1 -2.609962 8.803851 23.990692
761 0 1 -2.326965 9.367530 23.326294
762 0 1 -2.956504 9.908267 22.849396
763 0 1 -2.947543 9.216571 22.190704
764 0 1 -3.203498 8.215388 22.397095
765 0 1 -3.848876 7.683539 21.923203
766 0 1 -4.750876 7.864928 22.180405
767 0 1 -5.077905 7.014277 21.926102
768 0 1 -5.895175 6.979999 21.387207
769 0 1 -6.522895 7.664809 21.311707
770 0 1 -7.006856 7.404449 20.463104
771 0 1 -7.672305 7.862147 19.942200
772 0 1 -8.537776 7.626628 20.303299
773 0 1 -9.150506 7.974658 19.678101
774 0 1 -9.767446 7.814788 20.366501
775 0 1 -9.366395 8.039401 21.254105
776 0 1 -9.051536 8.711238 20.511597
777 0 1 -8.859376 9.249198 19.675293
778 0 1 -8.718905 10.097060 19.172897
779 0 1 -7.873845 10.421359 19.111496
780 0 1 -7.149476 10.699859 18.471497
781 0 1 -6.887515 11.571261 18.340500
782 0 1 -6.003507 11.298160 18.046097
783 0 1 -5.756026 11.518661 19.021393
784 0 1 -5.286906 11.049460 19.716904
785 0 1 -4.992476 11.027358 20.647705
786 0 1 -4.957236 10.168757 20.302307
787 0 1 -4.425185 9.882457 21.054001
788 0 1 -3.896137 9.428329 21.751099
789 0 1 -3.085897 9.531817 21.130295
790 0 1 -2.797347 8.948237 20.419403
791 0 1 -2.456945 8.472209 19.552597