LAMMPS data file via MDAnalysis

        2000  atoms
        1999  bonds
           0  angles
           0  dihedrals
           0  impropers

           1  atom types
           1  bond types
           0  angle types
           0  dihedral types
           0  improper types

-30.5 30.5 xlo xhi
-30.5 30.5 ylo yhi
-233.5 233.5 zlo zhi


Masses

1 1.000000

Atoms

1 0 1 -20.081625 6.261926 47.256897
2 0 1 -19.915525 6.898744 46.562500
3 0 1 -19.002825 6.800393 46.872192
4 0 1 -18.414524 6.475533 46.186707
5 0 1 -18.102024 6.871575 45.361511
6 0 1 -17.671524 6.051446 45.055603
7 0 1 -17.698425 5.410516 44.327606
8 0 1 -18.497925 5.150334 44.889099
9 0 1 -18.702724 4.263474 45.197113
10 0 1 -19.649725 4.010415 44.866516
11 0 1 -19.891325 3.165986 45.217285
12 0 1 -19.312624 2.431560 44.994202
13 0 1 -19.321125 2.778533 44.144592
14 0 1 -19.766026 2.119195 43.648102
15 0 1 -19.849525 1.318334 43.115997
16 0 1 -20.648424 1.314595 43.728302
17 0 1 -21.429825 1.378286 43.162292
18 0 1 -20.775024 0.801296 42.811096
19 0 1 -20.023424 0.839376 42.130005
20 0 1 -20.392624 0.687854 41.241516
21 0 1 -20.636925 0.014604 40.601196
22 0 1 -21.154125 -0.079066 39.794983
23 0 1 -21.271025 -0.648885 39.050812
24 0 1 -21.065525 -1.216595 38.311005
25 0 1 -21.157024 -0.698466 37.484497
26 0 1 -20.969625 -0.472165 36.613312
27 0 1 -20.079424 -0.279845 36.244293
28 0 1 -19.485624 -0.703274 36.878998
29 0 1 -18.831125 -0.028216 36.572906
30 0 1 -18.871325 0.331735 35.677307
31 0 1 -19.628325 0.877065 35.708893
32 0 1 -19.239525 0.759706 34.815002
33 0 1 -18.927425 -0.100936 34.362213
34 0 1 -18.472025 -0.101035 33.510498
35 0 1 -19.080124 0.586265 33.364990
36 0 1 -18.765125 1.373445 33.805389
37 0 1 -18.139225 0.988105 34.520508
38 0 1 -17.885624 1.761003 33.980896
39 0 1 -17.642925 2.680619 34.147003
40 0 1 -17.129126 3.540096 34.239807
41 0 1 -17.708725 3.728204 33.486084
42 0 1 -17.872925 3.494844 32.542603
43 0 1 -18.443224 2.746671 32.162994
44 0 1 -17.814625 3.217145 31.551392
45 0 1 -17.565725 3.510724 30.654388
46 0 1 -18.409225 3.106792 30.473297
47 0 1 -18.020124 3.746225 29.774506
48 0 1 -18.299925 4.338773 29.083191
49 0 1 -17.402925 4.135915 29.077515
50 0 1 -17.316124 3.470092 28.357605
51 0 1 -17.309626 3.325200 27.394104
52 0 1 -16.886225 3.193668 26.523499
53 0 1 -16.870924 2.172721 26.621399
54 0 1 -16.381226 1.440265 26.296692
55 0 1 -15.548825 1.846088 26.515686
56 0 1 -15.008225 2.057815 25.777496
57 0 1 -14.546825 1.321704 25.340607
58 0 1 -15.111325 0.471275 24.895508
59 0 1 -15.946425 0.935935 24.493713
60 0 1 -16.010025 1.672063 25.077393
61 0 1 -16.945724 1.415885 24.905396
62 0 1 -16.708925 1.423795 23.863495
63 0 1 -16.928724 0.532735 23.907501
64 0 1 -17.019424 -0.298735 24.378387
65 0 1 -17.873924 -0.486445 24.886505
66 0 1 -18.333925 -0.042275 24.223389
67 0 1 -19.273224 0.193065 24.463104
68 0 1 -19.398325 0.274774 25.440094
69 0 1 -19.189325 -0.572184 25.050110
70 0 1 -19.191824 -1.170516 25.779907
71 0 1 -19.412825 -1.545726 26.640015
72 0 1 -20.219425 -1.971705 26.368500
73 0 1 -20.480625 -1.566836 25.524200
74 0 1 -19.657625 -2.141425 25.419800
75 0 1 -19.682325 -2.993735 24.925293
76 0 1 -19.968424 -3.835036 24.602600
77 0 1 -20.202024 -3.640725 25.514313
78 0 1 -19.902124 -3.275176 26.371094
79 0 1 -19.485125 -4.138015 26.577911
80 0 1 -19.612125 -4.053916 27.587708
81 0 1 -18.631624 -3.712676 27.500793
82 0 1 -17.804325 -3.981936 27.909210
83 0 1 -17.451624 -4.365375 27.174713
84 0 1 -17.007925 -4.398755 26.358887
85 0 1 -16.143925 -4.737855 26.687805
86 0 1 -16.158825 -5.602454 26.968109
87 0 1 -15.466226 -6.011775 27.518799
88 0 1 -15.179826 -6.909194 27.530884
89 0 1 -15.806827 -7.522204 27.935791
90 0 1 -15.520026 -8.426505 27.608887
91 0 1 -15.427625 -9.306605 28.066406
92 0 1 -14.642325 -9.910007 28.146606
93 0 1 -14.900025 -10.534705 27.439087
94 0 1 -14.702126 -11.518806 27.596100
95 0 1 -15.398225 -12.117005 27.824493
96 0 1 -15.513026 -11.570205 28.763916
97 0 1 -15.272126 -11.624606 29.727112
98 0 1 -14.545926 -11.828805 30.478516
99 0 1 -14.437426 -11.828506 31.476807
100 0 1 -14.156425 -12.717105 31.779510
101 0 1 -13.387227 -12.331805 32.160187
102 0 1 -12.723426 -11.604804 32.185394
103 0 1 -12.186727 -11.395505 32.892517
104 0 1 -11.949426 -11.449306 33.865906
105 0 1 -12.748126 -11.112306 34.265594
106 0 1 -13.250026 -10.628905 33.603394
107 0 1 -14.178725 -10.437507 33.495087
108 0 1 -14.999926 -10.030505 33.209412
109 0 1 -14.281925 -9.410106 33.385193
110 0 1 -13.859526 -9.312507 34.299316
111 0 1 -13.361127 -8.517905 34.075195
112 0 1 -13.624227 -8.417405 33.130005
113 0 1 -12.874726 -8.430705 32.603790
114 0 1 -13.560426 -8.805804 32.058807
115 0 1 -13.742926 -9.092807 31.118988
116 0 1 -13.794226 -8.244306 30.657593
117 0 1 -13.117326 -8.073806 31.348999
118 0 1 -12.248525 -7.903806 31.718292
119 0 1 -12.342225 -7.028995 31.415802
120 0 1 -13.068025 -6.601106 31.945099
121 0 1 -13.685826 -6.752225 31.210815
122 0 1 -14.299826 -6.088984 30.731903
123 0 1 -14.725326 -5.231036 30.634888
124 0 1 -14.589926 -4.300036 30.773987
125 0 1 -15.289126 -3.674586 30.522888
126 0 1 -14.845426 -3.343385 31.274811
127 0 1 -15.708625 -2.808646 31.122986
128 0 1 -16.191425 -2.549765 32.006714
129 0 1 -15.481626 -2.529065 32.724091
130 0 1 -16.063524 -3.226905 32.958099
131 0 1 -15.608426 -4.021106 33.448090
132 0 1 -15.943326 -4.794196 33.849091
133 0 1 -16.903625 -4.917716 33.826904
134 0 1 -16.718325 -5.095115 34.770905
135 0 1 -16.519424 -5.973655 34.423492
136 0 1 -15.763927 -6.083196 33.887299
137 0 1 -15.079725 -6.602595 34.206512
138 0 1 -14.658626 -6.902995 35.016693
139 0 1 -14.234126 -5.987975 34.930908
140 0 1 -13.567725 -6.293105 35.631409
141 0 1 -13.142325 -6.932525 36.245300
142 0 1 -12.747525 -7.243915 37.102295
143 0 1 -12.778026 -6.432345 37.675903
144 0 1 -11.781125 -6.639415 37.696594
145 0 1 -11.389127 -6.047305 38.451294
146 0 1 -11.714925 -6.411857 39.298706
147 0 1 -11.706225 -5.544576 39.677612
148 0 1 -12.579326 -5.522117 39.966003
149 0 1 -12.822625 -5.050696 39.117889
150 0 1 -13.675725 -5.378554 38.869995
151 0 1 -14.186926 -5.698455 39.626892
152 0 1 -14.073326 -4.794147 39.969696
153 0 1 -14.304026 -4.917815 40.931793
154 0 1 -13.396226 -4.547816 40.934296
155 0 1 -13.755526 -3.647305 40.898102
156 0 1 -14.007226 -2.746396 40.677094
157 0 1 -14.050426 -3.227736 39.891388
158 0 1 -13.453027 -3.639045 39.259094
159 0 1 -13.852026 -2.864486 38.956909
160 0 1 -13.624425 -1.972636 38.840912
161 0 1 -13.810526 -1.565345 39.759705
162 0 1 -13.359525 -0.759925 39.447510
163 0 1 -12.581925 -1.271216 39.364899
164 0 1 -12.640325 -1.413045 40.341492
165 0 1 -11.885427 -2.029895 40.240112
166 0 1 -11.236325 -2.477425 40.781097
167 0 1 -10.894425 -2.466916 39.918793
168 0 1 -10.755225 -1.583335 39.563507
169 0 1 -9.810025 -1.388606 39.574890
170 0 1 -9.381326 -2.188796 39.871307
171 0 1 -8.810407 -2.314486 40.607208
172 0 1 -8.077796 -2.866086 40.248505
173 0 1 -8.547465 -3.710234 40.357910
174 0 1 -9.094125 -3.316415 39.699310
175 0 1 -9.480126 -3.413705 38.834106
176 0 1 -8.994325 -4.212556 38.994202
177 0 1 -8.372525 -4.287005 38.214294
178 0 1 -7.914805 -3.502434 38.727997
179 0 1 -7.537717 -3.496205 37.841797
180 0 1 -6.714416 -3.047456 38.133209
181 0 1 -7.042836 -2.190455 37.871704
182 0 1 -7.346837 -1.564776 37.233795
183 0 1 -7.178536 -0.722285 36.830994
184 0 1 -6.254996 -0.927476 36.691589
185 0 1 -5.538936 -0.443724 36.363495
186 0 1 -4.792676 -1.098466 36.307190
187 0 1 -4.290755 -1.403775 35.513000
188 0 1 -3.875575 -2.022835 34.872894
189 0 1 -4.368917 -2.359456 34.127808
190 0 1 -4.731755 -3.093535 33.633301
191 0 1 -4.643775 -2.630585 32.771912
192 0 1 -4.346385 -2.483605 31.883484
193 0 1 -4.210746 -2.763804 30.934814
194 0 1 -3.783185 -1.912844 30.997894
195 0 1 -3.730376 -1.101805 31.651794
196 0 1 -4.677806 -0.913356 31.881104
197 0 1 -5.314345 -0.218295 31.859711
198 0 1 -4.401576 0.049684 32.081909
199 0 1 -3.903306 0.763625 32.389008
200 0 1 -3.291156 0.086885 32.730591
201 0 1 -2.960635 -0.655715 33.367798
202 0 1 -2.559636 0.252364 33.368896
203 0 1 -1.855725 0.327665 34.009094
204 0 1 -2.197656 0.133655 34.912109
205 0 1 -1.258155 -0.200005 34.710907
206 0 1 -0.610295 -0.860396 34.807404
207 0 1 -0.067088 -1.271775 35.508698
208 0 1 0.683497 -1.610924 35.084900
209 0 1 0.800647 -2.335456 35.735199
210 0 1 1.162370 -2.003634 36.502014
211 0 1 2.051105 -2.270026 36.564209
212 0 1 2.669883 -2.927735 36.916107
213 0 1 3.639293 -3.028754 37.142212
214 0 1 4.564536 -3.026335 37.379395
215 0 1 5.370112 -2.567956 36.966614
216 0 1 5.705596 -3.245145 36.358612
217 0 1 5.817435 -4.257255 36.311096
218 0 1 5.799884 -5.260005 36.203308
219 0 1 5.995784 -6.080867 35.709106
220 0 1 6.926764 -6.080386 36.086700
221 0 1 7.630733 -5.800075 35.545990
222 0 1 8.108443 -6.462115 34.969391
223 0 1 8.584002 -6.600526 34.096985
224 0 1 8.285716 -7.557105 34.014099
225 0 1 9.211165 -7.606505 33.883392
226 0 1 9.898646 -8.322705 33.861389
227 0 1 10.527434 -7.874005 34.497192
228 0 1 11.206374 -7.307776 34.940002
229 0 1 10.985072 -6.435266 34.624298
230 0 1 11.046775 -5.487037 34.991608
231 0 1 10.596927 -5.180575 34.192505
232 0 1 11.164172 -4.411435 34.201813
233 0 1 12.118175 -4.603965 34.136688
234 0 1 12.690475 -4.605414 35.049194
235 0 1 12.811572 -5.511657 34.736603
236 0 1 13.640975 -5.751266 34.322601
237 0 1 13.770576 -4.777205 34.281616
238 0 1 14.190375 -5.151324 35.078613
239 0 1 13.690074 -4.410895 35.314911
240 0 1 13.839274 -3.447465 35.131409
241 0 1 14.067874 -2.444995 35.087585
242 0 1 13.194373 -2.283305 35.507996
243 0 1 12.408076 -1.859975 35.826416
244 0 1 12.667575 -1.038266 36.282288
245 0 1 12.563273 -0.671984 37.111389
246 0 1 12.955974 0.068746 36.628906
247 0 1 13.775676 0.050525 36.174316
248 0 1 14.668773 0.239145 35.910706
249 0 1 15.476375 -0.188494 35.617401
250 0 1 15.664874 -0.427396 34.762604
251 0 1 16.188477 0.329065 34.968292
252 0 1 17.099075 0.009055 34.771301
253 0 1 17.519978 0.691884 34.312897
254 0 1 17.966976 0.791604 35.172791
255 0 1 17.718678 0.076865 35.804504
256 0 1 17.634476 -0.904574 35.749298
257 0 1 18.604675 -1.041775 35.716187
258 0 1 19.308674 -1.192185 35.135193
259 0 1 19.848278 -1.824404 35.655304
260 0 1 20.390278 -2.369675 36.302185
261 0 1 20.919575 -3.261735 36.235687
262 0 1 21.745373 -2.913525 35.784485
263 0 1 21.640675 -3.806365 35.460693
264 0 1 21.025875 -4.373076 34.962494
265 0 1 20.580776 -4.845386 34.176514
266 0 1 21.270676 -5.277135 33.591797
267 0 1 21.481274 -4.381825 33.393188
268 0 1 22.408676 -4.316295 33.675995
269 0 1 22.433277 -5.305745 33.820312
270 0 1 22.010975 -6.137795 34.189087
271 0 1 22.478275 -6.394496 33.381714
272 0 1 22.590878 -6.565036 32.372711
273 0 1 22.232677 -7.432965 32.161194
274 0 1 21.257576 -7.284665 32.222504
275 0 1 20.856373 -7.687507 31.491913
276 0 1 20.668476 -8.490905 31.019592
277 0 1 20.381474 -9.390605 31.173187
278 0 1 19.492374 -8.970206 30.997803
279 0 1 18.966373 -8.228305 31.287109
280 0 1 18.042873 -8.150706 31.485901
281 0 1 17.356678 -8.295905 32.167389
282 0 1 17.156673 -9.126506 31.834290
283 0 1 16.260273 -8.784205 31.510590
284 0 1 16.508175 -7.885806 31.335693
285 0 1 16.864277 -7.880506 30.492004
286 0 1 17.273174 -8.351207 29.721710
287 0 1 17.201675 -8.575206 28.827515
288 0 1 16.473976 -9.110705 29.252289
289 0 1 15.589374 -9.292304 29.588196
290 0 1 15.449676 -9.567605 28.684509
291 0 1 15.046474 -10.379905 28.768707
292 0 1 14.207477 -10.823106 28.932404
293 0 1 13.776073 -10.015704 28.441284
294 0 1 13.099475 -9.937205 27.788910
295 0 1 13.163173 -10.909005 27.694092
296 0 1 13.254573 -11.779407 27.341003
297 0 1 14.152175 -11.827806 26.820801
298 0 1 14.635573 -12.504005 27.316986
299 0 1 13.923076 -12.870006 26.769592
300 0 1 13.370776 -12.868205 25.981995
301 0 1 13.192874 -12.676906 25.093384
302 0 1 12.386973 -12.267205 25.475098
303 0 1 12.870376 -11.616506 24.945984
304 0 1 12.773776 -10.807605 25.412598
305 0 1 12.894076 -10.091907 25.983093
306 0 1 12.892177 -9.170104 25.731110
307 0 1 12.533977 -8.272204 25.826813
308 0 1 12.044173 -7.936305 25.056396
309 0 1 11.884974 -8.896106 24.843903
310 0 1 11.910476 -9.411105 24.030304
311 0 1 12.639873 -9.191106 23.386108
312 0 1 12.668174 -8.911805 22.343399
313 0 1 13.020373 -8.839705 21.479996
314 0 1 12.235072 -8.281905 21.277695
315 0 1 11.745975 -7.534406 21.715103
316 0 1 11.062877 -7.059285 22.222397
317 0 1 11.441173 -6.691985 23.040588
318 0 1 10.847674 -5.962846 23.140900
319 0 1 10.139014 -6.469806 23.430206
320 0 1 9.373824 -6.897494 23.025208
321 0 1 8.795085 -7.636207 23.359802
322 0 1 9.114783 -8.554805 23.312103
323 0 1 8.918426 -9.038606 24.135406
324 0 1 8.231963 -9.392606 23.547485
325 0 1 7.576213 -10.061006 23.819702
326 0 1 7.043986 -10.322005 23.038605
327 0 1 6.956676 -11.251105 23.207794
328 0 1 6.705874 -10.943606 22.344101
329 0 1 7.523063 -10.406905 22.118103
330 0 1 7.905776 -11.032306 21.350098
331 0 1 7.203044 -11.256804 20.651794
332 0 1 7.946185 -11.737407 20.204407
333 0 1 8.698543 -11.183005 20.034393
334 0 1 8.800963 -12.041105 19.579498
335 0 1 8.570094 -12.507405 18.783295
336 0 1 8.682055 -12.034306 17.976395
337 0 1 9.234004 -11.393306 17.495895
338 0 1 9.831103 -11.969106 17.950806
339 0 1 10.493045 -11.345405 18.245102
340 0 1 11.226974 -11.217505 18.766403
341 0 1 10.745013 -10.432506 18.842804
342 0 1 10.169215 -10.487006 19.625000
343 0 1 10.513812 -11.255706 20.038803
344 0 1 9.817393 -11.992405 19.925705
345 0 1 10.164245 -11.860705 20.778992
346 0 1 9.216735 -12.124906 20.796600
347 0 1 9.652305 -12.619505 21.528595
348 0 1 10.579154 -12.528006 21.802505
349 0 1 11.238673 -11.892104 22.114304
350 0 1 12.107776 -11.979705 21.710907
351 0 1 12.573073 -12.040905 22.565002
352 0 1 11.791476 -12.449805 23.004089
353 0 1 11.042872 -13.048306 22.812103
354 0 1 10.516322 -12.996905 23.568207
355 0 1 9.809936 -13.685506 23.738098
356 0 1 9.118945 -13.055705 23.435791
357 0 1 8.404723 -13.353806 22.837006
358 0 1 8.248633 -14.043805 22.254105
359 0 1 7.539985 -14.541305 21.878296
360 0 1 6.887053 -14.724105 21.221893
361 0 1 7.092834 -15.458205 20.660400
362 0 1 7.993052 -15.436805 20.330795
363 0 1 7.495173 -15.776406 19.544006
364 0 1 7.187716 -16.547104 19.034302
365 0 1 6.168986 -16.334204 18.822495
366 0 1 5.575244 -15.605506 19.022400
367 0 1 4.843215 -15.156505 19.221207
368 0 1 4.229075 -15.668506 19.718292
369 0 1 4.900794 -16.250504 20.141998
370 0 1 4.323974 -16.042704 20.894196
371 0 1 4.132934 -16.834204 20.337799
372 0 1 4.036735 -17.755005 20.521103
373 0 1 4.541385 -17.817604 21.347107
374 0 1 4.073894 -18.588404 21.778702
375 0 1 3.315604 -18.324005 22.390701
376 0 1 3.718234 -19.122904 22.881409
377 0 1 4.263865 -18.324903 22.846313
378 0 1 4.737136 -19.102304 23.103302
379 0 1 4.502364 -19.363504 24.012604
380 0 1 4.427424 -18.470604 24.356384
381 0 1 5.023814 -18.202404 25.018799
382 0 1 5.894393 -18.305405 25.228210
383 0 1 5.828914 -17.552305 24.606812
384 0 1 5.562205 -16.805605 25.118805
385 0 1 5.144526 -16.888304 25.981110
386 0 1 4.542556 -16.256804 25.622406
387 0 1 4.256763 -15.532205 25.063507
388 0 1 4.251094 -16.308304 24.537994
389 0 1 3.787333 -16.185604 23.656616
390 0 1 3.006595 -15.662206 23.437805
391 0 1 2.657966 -15.799806 22.543304
392 0 1 3.072616 -16.230904 21.765396
393 0 1 2.716483 -17.083805 21.819092
394 0 1 2.370383 -17.799704 21.304794
395 0 1 2.541133 -17.892105 20.376495
396 0 1 2.829906 -17.033504 20.012802
397 0 1 2.456645 -16.075705 20.263901
398 0 1 1.548518 -15.753005 19.918594
399 0 1 1.217576 -15.150306 20.611694
400 0 1 1.859145 -14.520005 20.423096
401 0 1 1.482183 -13.616706 20.115601
402 0 1 0.733962 -13.032306 20.277496
403 0 1 1.422265 -12.662605 20.763596
404 0 1 1.259587 -12.223906 21.668198
405 0 1 1.058196 -11.388804 22.054596
406 0 1 0.700341 -11.516604 22.904510
407 0 1 0.853856 -12.445806 22.654694
408 0 1 0.609529 -13.291905 23.063599
409 0 1 0.132716 -14.025706 23.453094
410 0 1 -0.779836 -14.296306 23.306091
411 0 1 -1.096236 -14.007606 22.454697
412 0 1 -1.932916 -13.989905 22.869812
413 0 1 -2.660596 -13.953406 22.196106
414 0 1 -2.406495 -13.119705 21.776596
415 0 1 -2.903676 -12.464005 22.325500
416 0 1 -3.826665 -12.558906 22.512085
417 0 1 -4.805785 -12.584306 22.331894
418 0 1 -5.680116 -12.384206 21.915604
419 0 1 -6.197375 -11.755706 22.328201
420 0 1 -5.361825 -11.451606 22.633789
421 0 1 -6.011226 -10.710305 22.303604
422 0 1 -5.409106 -10.623305 21.590302
423 0 1 -5.538285 -10.038306 20.839996
424 0 1 -5.937655 -9.972804 19.944397
425 0 1 -4.990087 -10.142005 19.766296
426 0 1 -4.869126 -9.970305 18.856201
427 0 1 -5.597535 -10.662604 18.795898
428 0 1 -6.039536 -9.795205 18.838104
429 0 1 -6.734586 -9.176906 18.968399
430 0 1 -7.001145 -10.006406 19.242599
431 0 1 -7.796247 -9.817105 18.803802
432 0 1 -7.245446 -10.039805 18.017593
433 0 1 -7.963567 -10.106305 17.367599
434 0 1 -8.188186 -10.882905 16.859406
435 0 1 -8.241866 -11.512404 17.562698
436 0 1 -8.645656 -12.213205 18.075699
437 0 1 -9.234525 -12.404205 17.301392
438 0 1 -10.049525 -11.835805 17.430496
439 0 1 -10.813926 -11.264405 17.593994
440 0 1 -11.361325 -11.651607 16.842896
441 0 1 -10.902326 -12.022406 16.074295
442 0 1 -11.345124 -12.812905 15.778595
443 0 1 -11.589025 -13.164406 16.585495
444 0 1 -12.126725 -13.927005 16.585098
445 0 1 -13.009826 -13.816606 16.138199
446 0 1 -13.331626 -14.676906 15.976395
447 0 1 -13.771926 -14.762805 16.893906
448 0 1 -14.555326 -14.682906 16.255600
449 0 1 -15.005225 -14.081906 16.855499
450 0 1 -15.703826 -14.669206 17.097595
451 0 1 -16.447525 -15.283505 16.951996
452 0 1 -16.899025 -14.554706 17.417099
453 0 1 -16.302225 -13.804805 17.318100
454 0 1 -15.857526 -13.279805 17.987396
455 0 1 -15.678725 -12.379306 17.926605
456 0 1 -16.551725 -11.907805 17.910294
457 0 1 -17.443325 -12.025705 18.221405
458 0 1 -18.324224 -12.261106 18.630707
459 0 1 -19.262724 -12.517205 18.635803
460 0 1 -19.881725 -13.115405 19.038895
461 0 1 -20.494625 -13.784205 18.661194
462 0 1 -20.444525 -14.250705 19.572495
463 0 1 -19.989925 -15.074706 19.962601
464 0 1 -20.906124 -14.995206 20.409195
465 0 1 -20.359125 -15.449805 21.019806
466 0 1 -20.849724 -14.842605 21.488998
467 0 1 -21.230524 -14.456006 22.357407
468 0 1 -21.256424 -13.563704 21.967804
469 0 1 -21.857424 -13.060205 22.592285
470 0 1 -22.509224 -13.105306 23.346710
471 0 1 -22.845325 -12.574506 22.595306
472 0 1 -22.230625 -12.012305 23.142914
473 0 1 -22.793125 -11.343905 22.749603
474 0 1 -22.479324 -10.830504 22.020508
475 0 1 -23.125425 -10.353106 22.506897
476 0 1 -23.311924 -10.030105 21.531799
477 0 1 -23.670025 -9.214606 21.190399
478 0 1 -24.113424 -8.776607 21.940399
479 0 1 -23.713524 -8.163707 21.366898
480 0 1 -24.333426 -7.491506 21.462296
481 0 1 -23.817425 -7.217326 20.554504
482 0 1 -24.575125 -6.978656 20.003006
483 0 1 -24.941324 -6.427676 20.772400
484 0 1 -25.495026 -5.681396 20.517593
485 0 1 -24.885824 -5.943675 19.811401
486 0 1 -25.077324 -6.037576 18.844101
487 0 1 -24.560925 -6.606566 18.275406
488 0 1 -24.020725 -6.918944 18.972198
489 0 1 -23.565624 -7.727805 18.934998
490 0 1 -22.931025 -8.297706 18.448105
491 0 1 -22.048124 -8.493106 18.781601
492 0 1 -21.775826 -8.004207 19.554001
493 0 1 -20.953724 -7.432075 19.472900
494 0 1 -20.595724 -7.858905 20.264297
495 0 1 -20.838024 -7.280814 21.044495
496 0 1 -20.874926 -7.661805 22.005707
497 0 1 -20.245125 -7.155734 22.480194
498 0 1 -20.023325 -6.271026 22.650787
499 0 1 -20.261826 -5.674325 23.365295
500 0 1 -20.835325 -6.022857 23.988098
501 0 1 -21.491524 -6.046615 24.697205
502 0 1 -21.916624 -6.837356 24.299103
503 0 1 -22.783825 -7.292384 24.148193
504 0 1 -22.280624 -7.788505 24.808197
505 0 1 -23.097124 -7.606807 25.331207
506 0 1 -22.245125 -7.194594 25.709290
507 0 1 -22.390224 -6.198096 25.377106
508 0 1 -21.770725 -5.767156 25.960907
509 0 1 -21.158724 -5.286065 26.597809
510 0 1 -20.341524 -5.795295 26.947815
511 0 1 -20.498224 -5.702834 27.882202
512 0 1 -20.370525 -5.224336 28.707794
513 0 1 -21.306725 -5.048495 28.811310
514 0 1 -20.969824 -4.196496 28.973999
515 0 1 -20.899824 -3.287625 29.329102
516 0 1 -21.471025 -2.505345 29.708893
517 0 1 -21.623724 -2.795584 28.837494
518 0 1 -22.265125 -2.084784 28.600098
519 0 1 -21.972324 -1.149865 28.369385
520 0 1 -21.930124 -0.230296 28.561401
521 0 1 -22.320826 0.670665 28.502991
522 0 1 -23.215025 0.665475 28.850800
523 0 1 -23.388025 0.902364 29.832794
524 0 1 -22.755125 1.615472 29.816284
525 0 1 -23.602724 1.979497 29.477386
526 0 1 -24.484724 2.065660 29.777313
527 0 1 -24.561825 2.878152 29.185303
528 0 1 -23.881824 3.394727 29.713684
529 0 1 -23.800724 3.843324 30.587097
530 0 1 -22.894424 3.698156 30.912201
531 0 1 -22.624525 3.691314 30.004791
532 0 1 -21.891026 3.035062 30.163513
533 0 1 -21.830124 2.452134 29.274689
534 0 1 -21.423525 1.591533 29.007294
535 0 1 -21.575924 1.862188 28.089813
536 0 1 -21.082825 2.309398 27.417694
537 0 1 -20.711926 2.747712 26.648407
538 0 1 -20.877125 3.352884 25.884399
539 0 1 -21.697424 2.871856 26.161011
540 0 1 -22.520525 3.043199 26.622406
541 0 1 -22.998024 3.894824 26.540009
542 0 1 -22.220825 4.490403 26.382812
543 0 1 -21.661625 3.857045 27.005402
544 0 1 -22.426224 4.333863 27.344116
545 0 1 -21.527124 4.696523 27.444305
546 0 1 -22.218424 5.284116 27.851288
547 0 1 -23.062025 5.426766 28.243713
548 0 1 -22.817924 5.031217 29.091095
549 0 1 -22.745125 5.382573 30.056885
550 0 1 -21.957825 5.709344 30.457489
551 0 1 -21.072624 5.432305 30.166595
552 0 1 -20.797924 6.327394 30.128693
553 0 1 -20.808025 7.220716 30.420593
554 0 1 -20.294224 7.704076 31.128296
555 0 1 -19.726524 6.990506 31.372498
556 0 1 -20.643524 6.571805 31.452393
557 0 1 -20.881926 6.225755 32.319092
558 0 1 -21.531725 6.287316 32.984009
559 0 1 -21.028124 5.514985 33.297699
560 0 1 -20.665924 5.239495 34.189606
561 0 1 -21.591724 4.998956 34.337006
562 0 1 -21.794525 5.529435 35.131592
563 0 1 -20.978325 6.012723 34.990601
564 0 1 -21.402725 6.738114 35.414185
565 0 1 -21.388525 7.685803 35.331299
566 0 1 -20.620424 7.170995 35.111298
567 0 1 -20.587725 7.381425 34.175995
568 0 1 -20.081524 8.169065 34.080994
569 0 1 -19.380024 8.129346 34.759796
570 0 1 -18.786325 7.718846 34.198914
571 0 1 -18.581224 8.558454 33.836914
572 0 1 -17.690325 8.663606 33.454285
573 0 1 -18.132324 9.528523 33.338806
574 0 1 -17.848625 9.637883 34.194000
575 0 1 -18.096725 10.521787 34.445709
576 0 1 -17.195925 10.831735 34.169312
577 0 1 -16.784725 11.208837 33.385590
578 0 1 -17.682224 11.431226 32.945801
579 0 1 -16.925924 11.805413 32.415894
580 0 1 -16.826426 12.366334 33.198792
581 0 1 -16.043125 12.879395 33.006897
582 0 1 -15.784726 12.603192 32.101990
583 0 1 -15.241225 11.760137 32.195587
584 0 1 -14.553626 11.423715 32.896301
585 0 1 -14.847225 12.189527 33.453308
586 0 1 -14.660726 12.270936 34.371002
587 0 1 -15.019226 11.368016 34.709808
588 0 1 -14.264926 11.327764 35.438812
589 0 1 -13.441827 10.902165 35.360504
590 0 1 -13.770426 10.520642 34.509888
591 0 1 -12.992024 10.501576 33.797485
592 0 1 -12.654027 9.584287 33.600098
593 0 1 -13.170125 9.341374 34.418488
594 0 1 -12.806525 8.550614 34.731812
595 0 1 -11.865827 8.502336 34.594391
596 0 1 -11.926225 7.841443 33.856384
597 0 1 -11.953225 6.913335 34.108002
598 0 1 -12.900826 7.309033 34.383301
599 0 1 -13.338626 7.546056 35.215393
600 0 1 -13.930326 8.194715 34.674713
601 0 1 -14.722325 7.687615 34.738495
602 0 1 -15.499026 7.388154 34.290710
603 0 1 -15.306325 7.530065 33.339600
604 0 1 -15.622426 6.583314 33.353394
605 0 1 -15.230325 5.719285 33.414307
606 0 1 -14.652925 5.068494 33.907104
607 0 1 -15.026026 5.154084 34.764801
608 0 1 -14.633025 4.720304 35.571594
609 0 1 -15.546126 4.322286 35.545990
610 0 1 -15.831225 5.122064 36.033295
611 0 1 -16.145725 4.781564 36.851593
612 0 1 -15.620526 4.382073 37.508392
613 0 1 -14.627326 4.523465 37.752686
614 0 1 -15.065025 5.253186 38.209808
615 0 1 -14.629525 5.620687 37.477600
616 0 1 -14.974226 6.324964 37.018494
617 0 1 -14.336326 7.071515 36.979889
618 0 1 -14.696325 7.349164 36.120392
619 0 1 -13.969926 6.749356 35.888916
620 0 1 -13.712226 6.597283 34.938599
621 0 1 -12.919927 6.161695 35.189392
622 0 1 -12.135526 5.963384 35.692200
623 0 1 -12.109626 5.206864 36.290405
624 0 1 -12.773927 5.235955 37.067596
625 0 1 -12.423627 6.238225 36.930511
626 0 1 -11.433326 6.125985 36.930115
627 0 1 -10.731725 5.470853 37.198914
628 0 1 -11.044526 5.554246 38.130707
629 0 1 -11.058724 4.624463 38.457214
630 0 1 -10.831326 3.724525 38.250793
631 0 1 -10.852525 2.695293 38.100800
632 0 1 -11.208226 2.590907 37.252106
633 0 1 -11.937924 1.972572 37.236084
634 0 1 -12.759927 2.129335 36.788391
635 0 1 -12.969125 1.102435 36.711395
636 0 1 -13.730626 1.654708 37.127289
637 0 1 -13.456326 1.716714 38.074310
638 0 1 -13.723926 0.913366 38.564087
639 0 1 -14.441126 1.502454 38.727295
640 0 1 -15.002826 1.433545 37.936890
641 0 1 -15.300626 1.568380 37.036194
642 0 1 -14.758025 0.802844 36.683197
643 0 1 -14.782025 0.617666 35.701904
644 0 1 -15.007826 -0.354504 35.650787
645 0 1 -14.539025 -0.269015 36.479706
646 0 1 -14.198226 -0.865365 37.142792
647 0 1 -13.314425 -0.899655 37.518890
648 0 1 -12.617726 -1.238875 36.946503
649 0 1 -13.040326 -1.747285 36.201904
650 0 1 -13.868926 -1.538865 35.862488
651 0 1 -14.210425 -1.714144 34.931488
652 0 1 -13.331025 -1.525485 34.697388
653 0 1 -12.390824 -1.288735 34.507599
654 0 1 -12.513526 -1.202836 33.568695
655 0 1 -11.748525 -0.673915 33.754395
656 0 1 -11.500226 0.266595 33.543610
657 0 1 -10.805924 -0.226235 33.042694
658 0 1 -10.063626 0.397405 33.034485
659 0 1 -10.654225 1.058984 32.726410
660 0 1 -9.885726 1.341624 32.325684
661 0 1 -9.734326 1.530853 31.371307
662 0 1 -9.833627 0.551185 31.178314
663 0 1 -9.909226 -0.418046 31.145813
664 0 1 -9.793826 -1.369115 31.014587
665 0 1 -10.117326 -1.185506 30.081909
666 0 1 -9.363626 -1.798745 30.217804
667 0 1 -8.635346 -2.464535 30.235291
668 0 1 -8.419225 -3.053315 29.461609
669 0 1 -8.970395 -3.770936 29.692200
670 0 1 -9.155375 -4.725705 29.522400
671 0 1 -9.581525 -5.132066 28.779602
672 0 1 -10.318625 -5.682746 28.344910
673 0 1 -9.727025 -5.449695 27.673187
674 0 1 -9.707326 -4.480456 27.879395
675 0 1 -9.515225 -3.660775 27.263916
676 0 1 -9.006677 -2.861594 26.950104
677 0 1 -9.274526 -1.947236 26.661407
678 0 1 -10.164826 -2.180716 26.350800
679 0 1 -9.940724 -2.581605 25.502686
680 0 1 -9.125855 -3.040295 25.771606
681 0 1 -9.209796 -3.822146 25.256805
682 0 1 -9.555825 -4.444165 24.606293
683 0 1 -9.676724 -4.374246 23.700195
684 0 1 -10.051625 -5.326186 23.876892
685 0 1 -10.822724 -5.844054 23.739014
686 0 1 -10.737025 -6.217675 22.875610
687 0 1 -11.145326 -6.023696 21.982498
688 0 1 -11.988126 -6.574975 21.929703
689 0 1 -11.856526 -5.925725 21.182693
690 0 1 -12.290727 -6.162807 20.313293
691 0 1 -13.068826 -6.076144 20.866806
692 0 1 -13.802926 -5.571784 20.381805
693 0 1 -14.268826 -6.352866 20.622299
694 0 1 -15.039426 -6.023795 20.170502
695 0 1 -15.300826 -5.223414 20.680206
696 0 1 -15.429626 -5.359345 21.710098
697 0 1 -15.374927 -5.340426 22.702606
698 0 1 -15.233325 -4.926555 23.534912
699 0 1 -16.072325 -4.433616 23.420288
700 0 1 -16.182825 -3.541026 23.632599
701 0 1 -15.433125 -3.613286 23.016510
702 0 1 -15.093326 -4.172046 22.294296
703 0 1 -14.524726 -3.878606 21.540695
704 0 1 -14.414825 -3.671935 20.600601
705 0 1 -13.767826 -3.440104 19.862000
706 0 1 -14.027326 -4.019635 19.193893
707 0 1 -13.555026 -4.329415 18.470505
708 0 1 -13.880126 -3.479535 18.119797
709 0 1 -13.586825 -3.758034 17.218597
710 0 1 -13.073726 -3.203305 16.604202
711 0 1 -13.075826 -3.695164 15.774506
712 0 1 -13.194726 -3.903435 14.878296
713 0 1 -12.918225 -4.419894 14.118607
714 0 1 -13.661426 -5.054505 14.128799
715 0 1 -14.579626 -5.372245 13.840302
716 0 1 -14.142626 -6.058684 13.380005
717 0 1 -13.846625 -7.019526 13.451996
718 0 1 -14.683426 -7.371245 13.815399
719 0 1 -14.591426 -7.726806 14.695892
720 0 1 -14.612226 -8.607406 14.287704
721 0 1 -15.482526 -8.912807 14.158997
722 0 1 -15.991326 -8.970506 15.013702
723 0 1 -15.106425 -8.695205 15.336502
724 0 1 -14.809926 -7.926307 15.903702
725 0 1 -14.150426 -7.939605 16.525497
726 0 1 -13.803226 -8.413606 15.812805
727 0 1 -13.033025 -8.194606 15.299606
728 0 1 -12.169724 -8.024705 14.800095
729 0 1 -12.193025 -7.084556 15.102600
730 0 1 -11.532525 -7.018546 15.778793
731 0 1 -12.116925 -6.821277 16.557007
732 0 1 -12.139627 -7.795405 16.833801
733 0 1 -11.429126 -8.352405 16.527802
734 0 1 -12.293225 -8.758704 16.399399
735 0 1 -11.833026 -9.039405 17.248901
736 0 1 -12.395825 -8.947206 18.058395
737 0 1 -13.224725 -8.521304 18.177002
738 0 1 -14.064626 -8.733005 17.731705
739 0 1 -13.473825 -9.567605 17.944092
740 0 1 -13.182324 -8.994205 17.262604
741 0 1 -12.630225 -9.754905 17.226105
742 0 1 -12.999526 -10.608905 16.925797
743 0 1 -12.539624 -10.541905 15.988297
744 0 1 -13.247525 -9.862906 16.251602
745 0 1 -13.988626 -9.489604 15.659302
746 0 1 -13.162225 -9.577907 15.212601
747 0 1 -13.623425 -10.385005 14.912598
748 0 1 -14.331626 -10.166507 14.206207
749 0 1 -13.905025 -10.351106 13.354492
750 0 1 -14.483326 -10.381804 12.595306
751 0 1 -14.315825 -9.864705 11.865601
752 0 1 -15.222226 -9.681205 12.038406
753 0 1 -15.969325 -9.311706 11.490402
754 0 1 -15.712026 -8.367606 11.430695
755 0 1 -15.787126 -7.514405 10.938400
756 0 1 -14.860926 -7.507705 10.889999
757 0 1 -14.574426 -7.280646 10.020905
758 0 1 -15.447425 -7.541606 9.715469
759 0 1 -16.243925 -7.691504 9.139862
760 0 1 -15.718326 -6.976966 8.816666
761 0 1 -15.285825 -7.528304 8.148148
762 0 1 -15.285226 -8.250905 7.525681
763 0 1 -14.780926 -9.130206 7.566528
764 0 1 -13.860226 -8.924205 7.640503
765 0 1 -13.172925 -8.891706 8.316086
766 0 1 -12.510026 -8.203105 8.537048
767 0 1 -12.129525 -8.867606 7.949326
768 0 1 -11.941525 -9.381005 7.146896
769 0 1 -11.688226 -9.201905 6.253891
770 0 1 -11.070926 -8.930705 5.536026
771 0 1 -11.252225 -9.871406 5.573242
772 0 1 -11.447427 -10.713405 6.094208