LAMMPS data file via MDAnalysis

        2000  atoms
        1999  bonds
           0  angles
           0  dihedrals
           0  impropers

           1  atom types
           1  bond types
           0  angle types
           0  dihedral types
           0  improper types

-30.5 30.5 xlo xhi
-30.5 30.5 ylo yhi
-233.5 233.5 zlo zhi


Masses

1 1.000000

Atoms

1 0 1 -13.601408 -12.569297 84.741211
2 0 1 -13.833307 -13.094537 83.962402
3 0 1 -12.859026 -13.035037 83.574005
4 0 1 -13.170908 -13.702817 82.842102
5 0 1 -13.600706 -12.839967 82.786011
6 0 1 -13.200506 -12.206697 82.146393
7 0 1 -12.965307 -11.285306 82.262512
8 0 1 -12.999907 -10.549697 82.906982
9 0 1 -12.369747 -9.932248 83.251190
10 0 1 -11.462517 -9.516736 83.045288
11 0 1 -10.647186 -9.112958 83.376892
12 0 1 -10.936087 -8.354337 83.875793
13 0 1 -10.980747 -7.725476 83.073700
14 0 1 -11.183546 -6.864207 83.570892
15 0 1 -10.685976 -6.031197 83.509491
16 0 1 -10.005148 -5.934287 84.183197
17 0 1 -9.521317 -6.488566 84.780701
18 0 1 -9.284258 -5.637446 85.105194
19 0 1 -8.305468 -5.437417 85.126709
20 0 1 -7.985548 -5.413308 84.286804
21 0 1 -7.173457 -5.706027 83.864410
22 0 1 -6.625748 -5.461186 83.140991
23 0 1 -6.558777 -6.017737 82.357788
24 0 1 -6.307517 -6.893116 82.614899
25 0 1 -5.648768 -7.581156 82.924683
26 0 1 -5.325608 -6.727507 83.065002
27 0 1 -4.643857 -7.058426 82.444000
28 0 1 -4.296566 -7.921366 82.075806
29 0 1 -3.636441 -8.039866 82.863098
30 0 1 -3.106261 -8.753287 82.518982
31 0 1 -2.742007 -8.942817 81.663696
32 0 1 -2.889048 -8.006867 81.849609
33 0 1 -2.214644 -7.314347 82.237183
34 0 1 -2.000206 -7.236176 83.156403
35 0 1 -1.881808 -6.253148 83.047485
36 0 1 -1.541228 -6.153447 84.011292
37 0 1 -1.634997 -5.323176 83.565704
38 0 1 -0.744036 -5.074837 83.594208
39 0 1 -0.173376 -5.695176 84.074402
40 0 1 0.267122 -5.353846 84.880615
41 0 1 -0.012106 -6.207886 85.260895
42 0 1 0.124273 -7.207556 85.389008
43 0 1 -0.606219 -7.820937 85.686005
44 0 1 -0.689768 -7.329606 86.566803
45 0 1 -0.653208 -7.047776 87.528900
46 0 1 -0.663065 -6.946257 88.553192
47 0 1 -0.202017 -6.612126 89.374603
48 0 1 -0.282889 -5.612517 89.178894
49 0 1 -0.269259 -5.220276 90.049316
50 0 1 -0.323557 -4.292887 89.766205
51 0 1 -0.823557 -3.481599 89.992310
52 0 1 -1.347727 -2.805222 90.490509
53 0 1 -2.069014 -3.480042 90.627594
54 0 1 -1.665636 -3.508855 91.498993
55 0 1 -2.233799 -3.959298 92.144897
56 0 1 -2.145090 -3.063081 92.475708
57 0 1 -1.768667 -2.253094 92.080597
58 0 1 -1.752257 -1.614468 91.390900
59 0 1 -2.519863 -1.456345 92.066803
60 0 1 -2.327751 -1.321748 93.032410
61 0 1 -2.375304 -0.510949 93.644989
62 0 1 -1.424397 -0.156358 93.443115
63 0 1 -1.370886 0.398395 92.640503
64 0 1 -0.581446 0.819873 92.196289
65 0 1 0.354284 0.488452 91.933105
66 0 1 0.357931 -0.362458 92.342285
67 0 1 0.491434 -0.532136 93.297394
68 0 1 1.242155 -0.084386 92.923218
69 0 1 1.882974 -0.021435 93.664001
70 0 1 1.541033 -0.612336 94.381805
71 0 1 1.630453 -1.192357 93.542999
72 0 1 1.796343 -2.161946 93.266998
73 0 1 2.429212 -2.769086 92.973297
74 0 1 2.523062 -3.439368 92.345398
75 0 1 2.668733 -4.399607 92.424103
76 0 1 2.822634 -4.351277 93.329407
77 0 1 3.716154 -4.637908 93.083618
78 0 1 3.872282 -5.544756 93.399811
79 0 1 3.742841 -6.378476 92.930115
80 0 1 3.297094 -7.170086 93.312683
81 0 1 2.377004 -7.203227 93.663696
82 0 1 1.501703 -7.566897 93.935699
83 0 1 1.445963 -8.076478 94.735901
84 0 1 1.193842 -8.589898 95.522491
85 0 1 0.745901 -9.241937 95.977295
86 0 1 -0.099787 -8.871247 96.148590
87 0 1 -0.212809 -8.800097 97.104492
88 0 1 0.479692 -8.649037 97.747894
89 0 1 0.908762 -9.140088 98.413910
90 0 1 1.660925 -8.720218 98.795715
91 0 1 1.905802 -7.884217 98.568909
92 0 1 1.977213 -7.472317 97.715698
93 0 1 1.469583 -6.791287 98.196289
94 0 1 0.581323 -7.096436 98.466400
95 0 1 1.160303 -7.137047 99.260315
96 0 1 1.291334 -6.360007 99.820892
97 0 1 1.015451 -5.496647 100.096008
98 0 1 1.878881 -5.368857 99.698486
99 0 1 2.645063 -4.812296 99.831390
100 0 1 3.452444 -4.678767 100.427002
101 0 1 3.135641 -4.166653 101.152008
102 0 1 3.384664 -3.461100 101.717010
103 0 1 3.407152 -4.069111 102.460999
104 0 1 3.823313 -4.577536 103.113007
105 0 1 4.734224 -4.374407 103.550995
106 0 1 4.566701 -5.016606 104.231995
107 0 1 3.718622 -5.447917 104.166992
108 0 1 4.210531 -6.313597 104.050995
109 0 1 4.482992 -6.898356 104.729004
110 0 1 3.893743 -7.509766 104.306000
111 0 1 3.794382 -8.404098 104.067017
112 0 1 3.952871 -9.316228 104.229004
113 0 1 3.986463 -10.259967 104.311005
114 0 1 4.603303 -11.031648 104.182007
115 0 1 5.045793 -11.814816 103.893982
116 0 1 4.342535 -12.446237 103.554016
117 0 1 5.116102 -13.014047 103.812012
118 0 1 4.916994 -13.470317 104.625000
119 0 1 5.874341 -13.619117 104.431000
120 0 1 6.584562 -14.200517 104.420990
121 0 1 5.927324 -14.616717 103.830017
122 0 1 5.835454 -14.475019 102.911011
123 0 1 6.180433 -14.632117 101.970001
124 0 1 6.089662 -13.716817 101.761993
125 0 1 6.425752 -14.224118 101.045990
126 0 1 5.540571 -14.906716 100.912994
127 0 1 6.048044 -15.517018 100.317017
128 0 1 6.438722 -15.348016 99.446289
129 0 1 6.451284 -15.529017 98.458618
130 0 1 7.027395 -15.879117 97.862305
131 0 1 6.424795 -15.447917 97.227783
132 0 1 6.848180 -14.687617 96.789307
133 0 1 7.053663 -14.607118 97.794189
134 0 1 7.563493 -13.874217 97.383698
135 0 1 8.442595 -14.239417 97.130096
136 0 1 8.761892 -13.767518 96.363098
137 0 1 9.368994 -14.531617 96.566498
138 0 1 9.835394 -15.202016 97.087708
139 0 1 10.531893 -15.871716 96.918396
140 0 1 10.110094 -16.698616 97.074890
141 0 1 9.173994 -16.651316 97.296295
142 0 1 8.839693 -17.420116 97.784790
143 0 1 9.753592 -17.781017 97.849609
144 0 1 10.171793 -18.648317 98.138916
145 0 1 9.637693 -19.351717 97.806702
146 0 1 8.735495 -19.082417 97.590210
147 0 1 8.211092 -19.907516 97.406982
148 0 1 8.458693 -19.563017 96.575806
149 0 1 8.064093 -18.726217 96.522583
150 0 1 7.616094 -18.263817 97.272400
151 0 1 6.819845 -18.102417 96.716095
152 0 1 6.107732 -17.563316 97.192810
153 0 1 6.134843 -16.996716 97.966797
154 0 1 5.235731 -17.372215 97.850800
155 0 1 5.175062 -17.728216 98.728210
156 0 1 4.890272 -18.310617 99.464783
157 0 1 5.026624 -18.498316 100.378998
158 0 1 5.517122 -19.323116 100.475006
159 0 1 4.912904 -19.329716 101.166016
160 0 1 5.323545 -19.535616 102.007019
161 0 1 4.849222 -19.234917 102.764008
162 0 1 4.028883 -19.010817 103.106995
163 0 1 3.945524 -18.031317 103.067017
164 0 1 4.399053 -17.508816 102.385010
165 0 1 4.103284 -18.325216 102.024994
166 0 1 3.312315 -17.801216 102.197998
167 0 1 2.403742 -17.690016 101.864990
168 0 1 2.900434 -17.020916 101.403015
169 0 1 2.250963 -16.643417 100.761993
170 0 1 1.450193 -17.310417 100.778015
171 0 1 1.268823 -16.768017 101.507996
172 0 1 1.220243 -16.981016 102.411011
173 0 1 1.088705 -17.727716 103.057007
174 0 1 1.056364 -18.636517 102.708008
175 0 1 0.626272 -19.535915 102.740997
176 0 1 -0.231917 -19.279417 103.061005
177 0 1 -0.772356 -20.103516 102.833008
178 0 1 -0.854037 -20.239016 101.899994
179 0 1 -0.557459 -19.315315 101.940002
180 0 1 -0.655459 -18.778917 101.143982
181 0 1 -1.102179 -19.385416 100.550995
182 0 1 -0.485148 -20.086817 100.216003
183 0 1 -0.351206 -20.012617 99.250488
184 0 1 -0.318075 -19.203716 99.850586
185 0 1 -0.737948 -18.991516 98.983215
186 0 1 -0.911696 -18.984118 98.007507
187 0 1 -0.262057 -18.851316 97.298096
188 0 1 -0.019797 -17.935017 97.610992
189 0 1 -0.306269 -17.460815 98.381287
190 0 1 -0.084788 -16.535816 98.527008
191 0 1 0.590421 -15.900817 98.303009
192 0 1 0.687563 -15.919717 99.264282
193 0 1 1.085184 -15.029817 99.520691
194 0 1 1.440042 -15.005116 98.673309
195 0 1 1.554094 -14.484717 97.877594
196 0 1 0.690553 -13.997117 97.928192
197 0 1 0.959192 -13.143426 98.367493
198 0 1 1.215132 -13.174077 99.266693
199 0 1 0.226473 -13.230618 99.287811
200 0 1 -0.600909 -13.431916 98.879303
201 0 1 -1.323885 -13.471517 98.286896
202 0 1 -1.781317 -12.676217 98.577087
203 0 1 -2.073878 -11.753747 98.869995
204 0 1 -2.653868 -11.807046 99.622589
205 0 1 -3.192017 -11.070678 99.915710
206 0 1 -3.664212 -11.103677 100.833984
207 0 1 -4.556977 -11.327958 100.996002
208 0 1 -5.449578 -11.147767 100.705017
209 0 1 -5.247408 -11.248937 99.716797
210 0 1 -5.967177 -11.813878 99.548401
211 0 1 -6.165667 -12.159917 98.661194
212 0 1 -6.057978 -13.195687 98.923492
213 0 1 -5.421137 -13.835317 99.206787
214 0 1 -5.193158 -14.778417 99.215088
215 0 1 -5.273667 -14.732118 98.292206
216 0 1 -6.190798 -14.841218 98.259796
217 0 1 -6.268668 -13.952117 97.847504
218 0 1 -5.559687 -13.592017 97.253906
219 0 1 -6.187468 -13.591619 96.462189
220 0 1 -6.548687 -12.753078 96.568298
221 0 1 -5.971938 -11.944516 96.421906
222 0 1 -5.468688 -11.907197 95.615204
223 0 1 -4.906857 -12.649327 95.339905
224 0 1 -4.537978 -11.989137 94.756592
225 0 1 -4.305577 -12.460088 93.901001
226 0 1 -4.973067 -12.213956 93.227203
227 0 1 -4.626547 -11.785596 92.421204
228 0 1 -4.267148 -11.314317 91.690094
229 0 1 -3.631098 -10.672927 91.452911
230 0 1 -4.233538 -9.948007 91.170715
231 0 1 -5.090388 -10.283957 91.530212
232 0 1 -5.724858 -10.430636 92.257812
233 0 1 -5.781918 -9.656556 92.860718
234 0 1 -6.740248 -9.557157 92.946411
235 0 1 -7.098437 -10.428798 93.091400
236 0 1 -7.296227 -10.629487 92.133698
237 0 1 -6.591868 -10.862567 91.593018
238 0 1 -6.851607 -11.587987 92.241791
239 0 1 -7.530577 -11.453576 92.906494
240 0 1 -8.288677 -11.372987 92.290497
241 0 1 -8.714678 -12.293458 92.124817
242 0 1 -8.643328 -13.225896 91.993103
243 0 1 -7.933188 -13.077527 92.564911
244 0 1 -7.252417 -13.698117 92.387817
245 0 1 -7.710028 -14.033717 91.602295
246 0 1 -7.929587 -14.973817 91.407715
247 0 1 -8.760817 -15.092118 90.884308
248 0 1 -8.858997 -14.175118 91.180206
249 0 1 -9.290707 -14.479318 91.964417
250 0 1 -9.969286 -13.789716 92.110901
251 0 1 -10.576927 -14.472718 91.824219
252 0 1 -10.895678 -14.231517 90.986298
253 0 1 -11.220568 -15.113917 91.014709
254 0 1 -12.025946 -14.778016 91.514587
255 0 1 -12.668978 -14.102117 91.655212
256 0 1 -13.054407 -14.525418 90.923492
257 0 1 -13.391108 -15.381516 90.674805
258 0 1 -14.286907 -15.111318 90.742706
259 0 1 -14.711607 -14.554116 90.117096
260 0 1 -15.522507 -14.130918 90.414612
261 0 1 -16.432108 -13.712317 90.623505
262 0 1 -15.794306 -13.039086 90.268311
263 0 1 -15.929808 -12.122708 89.921295
264 0 1 -14.946207 -12.196446 89.881714
265 0 1 -14.339407 -11.634847 90.404114
266 0 1 -13.832706 -10.974936 90.901794
267 0 1 -14.208006 -11.281377 91.693695
268 0 1 -13.939306 -12.107976 92.111694
269 0 1 -13.330908 -11.882117 91.441010
270 0 1 -12.706026 -12.211257 90.855804
271 0 1 -11.816118 -12.614747 90.813599
272 0 1 -11.461327 -13.108947 90.083801
273 0 1 -10.653547 -12.508977 90.173584
274 0 1 -10.045967 -11.765138 90.284607
275 0 1 -9.873466 -11.124337 89.467285
276 0 1 -10.672077 -10.733006 89.143890
277 0 1 -10.592506 -10.862517 88.167786
278 0 1 -11.444178 -10.579957 87.700317
279 0 1 -11.230108 -11.414277 87.210083
280 0 1 -10.952448 -11.370088 86.329193
281 0 1 -10.988537 -11.934047 85.581299
282 0 1 -10.362556 -12.445958 85.105896
283 0 1 -10.534296 -11.799508 84.475098
284 0 1 -9.909536 -11.256806 84.929291
285 0 1 -9.550297 -10.453446 84.498810
286 0 1 -9.038517 -11.069257 84.101593
287 0 1 -9.889288 -11.170266 83.686798
288 0 1 -10.023857 -10.582868 82.938110
289 0 1 -10.665567 -11.332196 82.880096
290 0 1 -11.095407 -11.074197 82.044708
291 0 1 -11.351206 -11.209256 81.135406
292 0 1 -11.689466 -11.173038 80.279297
293 0 1 -12.019747 -10.463666 79.729706
294 0 1 -11.418047 -9.871198 80.231689
295 0 1 -11.383276 -9.292207 79.456390
296 0 1 -11.986326 -9.189748 78.639709
297 0 1 -12.006067 -9.536496 77.750488
298 0 1 -12.371267 -9.540158 76.888000
299 0 1 -12.126127 -10.181817 76.234589
300 0 1 -11.848927 -9.605828 75.482117
301 0 1 -12.203856 -8.665397 75.500092
302 0 1 -11.479658 -8.048257 75.573090
303 0 1 -12.100748 -7.316996 75.469788
304 0 1 -12.230898 -6.311047 75.301208
305 0 1 -13.027006 -6.321137 75.748413
306 0 1 -13.759007 -6.194188 75.170715
307 0 1 -13.529207 -6.696227 74.308105
308 0 1 -13.258707 -6.368937 73.468384
309 0 1 -12.795958 -5.510457 73.140808
310 0 1 -11.957087 -5.656456 73.537415
311 0 1 -12.282887 -6.411677 73.089203
312 0 1 -11.955877 -6.404707 72.191711
313 0 1 -11.244207 -6.355958 72.877411
314 0 1 -10.835667 -6.162266 73.770111
315 0 1 -10.495567 -5.463856 74.301086
316 0 1 -10.000257 -6.092106 74.862091
317 0 1 -9.440348 -6.654696 74.367798
318 0 1 -9.193417 -7.464577 74.904205
319 0 1 -9.399637 -8.186797 74.305389
320 0 1 -10.201317 -8.087678 73.808502
321 0 1 -10.753616 -7.582057 73.127106
322 0 1 -10.655928 -7.804476 72.136414
323 0 1 -11.215677 -8.359578 71.511993
324 0 1 -10.872637 -8.327218 70.581787
325 0 1 -11.324987 -7.980776 69.880096
326 0 1 -10.589266 -7.606356 69.448303
327 0 1 -11.208197 -7.829937 68.727417
328 0 1 -10.665407 -7.346106 68.186310
329 0 1 -9.733816 -7.296956 67.988098
330 0 1 -8.996687 -7.304636 68.592804
331 0 1 -8.628157 -8.232137 68.156982
332 0 1 -7.633378 -8.288926 68.252808
333 0 1 -7.288687 -7.593377 68.849396
334 0 1 -7.246977 -6.722207 68.421204
335 0 1 -6.563248 -6.928486 67.772491
336 0 1 -6.012747 -7.169457 67.067505
337 0 1 -5.469817 -6.386027 66.782410
338 0 1 -5.271777 -5.638916 66.169006
339 0 1 -4.451857 -5.601227 65.739685
340 0 1 -4.528538 -4.741297 65.395996
341 0 1 -3.547577 -4.407507 65.392883
342 0 1 -2.999781 -3.608330 65.250000
343 0 1 -2.939205 -3.682013 64.340698
344 0 1 -2.080151 -3.306794 64.441589
345 0 1 -2.146214 -2.484710 63.828186
346 0 1 -3.037852 -2.673278 63.627106
347 0 1 -3.859272 -2.316502 63.240112
348 0 1 -3.703110 -3.077321 62.603607
349 0 1 -3.463520 -4.007563 62.313995
350 0 1 -2.489748 -3.832762 62.138092
351 0 1 -2.243912 -3.554906 61.226807
352 0 1 -2.925463 -3.607939 60.529602
353 0 1 -2.564820 -4.345276 59.961700
354 0 1 -2.329195 -3.995562 59.086304
355 0 1 -2.158375 -3.139760 58.735809
356 0 1 -1.234549 -3.354348 58.705597
357 0 1 -0.661219 -4.062909 58.871216
358 0 1 -0.490217 -3.998242 59.823303
359 0 1 -0.821306 -3.123503 59.591309
360 0 1 -0.267138 -3.077969 58.803284
361 0 1 0.664102 -2.716239 58.755615
362 0 1 1.110224 -1.903487 58.582001
363 0 1 0.402311 -1.946997 58.014099
364 0 1 0.700994 -2.671553 57.443115
365 0 1 1.589102 -2.426677 57.639893
366 0 1 2.088854 -3.150080 58.007690
367 0 1 3.047083 -3.290322 58.187103
368 0 1 3.233885 -3.436600 57.265198
369 0 1 4.208845 -3.452945 57.105591
370 0 1 4.944444 -4.115691 57.106110
371 0 1 4.635732 -3.869752 56.175903
372 0 1 3.874803 -4.314927 55.708008
373 0 1 3.212553 -3.900149 55.096191
374 0 1 2.475862 -3.336808 54.842010
375 0 1 2.536241 -2.861851 53.988403
376 0 1 1.592073 -2.986628 53.684814
377 0 1 0.688852 -2.766108 53.993591
378 0 1 0.412061 -2.138407 54.604492
379 0 1 1.210703 -2.638102 55.055206
380 0 1 0.486143 -2.992779 55.589813
381 0 1 0.458544 -3.979094 55.647705
382 0 1 0.413324 -4.276736 56.571716
383 0 1 0.017484 -5.111037 56.324005
384 0 1 -0.354288 -4.782036 57.112000
385 0 1 -1.077029 -4.943976 56.403809
386 0 1 -1.635617 -4.708176 55.619385
387 0 1 -0.857748 -4.184351 55.417694
388 0 1 -0.438277 -4.676367 54.704010
389 0 1 -0.698847 -5.486397 55.256500
390 0 1 -0.654349 -6.186226 54.540894
391 0 1 -1.538277 -6.408417 54.205505
392 0 1 -1.572098 -5.488127 54.002991
393 0 1 -1.587307 -4.674826 53.541504
394 0 1 -2.444094 -4.741156 53.121887
395 0 1 -3.062773 -5.401627 53.384613
396 0 1 -3.832630 -5.319777 52.724091
397 0 1 -4.633397 -5.201317 53.358612
398 0 1 -4.963988 -4.471886 53.997406
399 0 1 -5.688878 -4.711007 53.462402
400 0 1 -5.947228 -5.407877 53.987915
401 0 1 -6.163998 -6.125937 54.583191
402 0 1 -6.678387 -6.130047 53.690704
403 0 1 -6.726357 -6.021706 52.687683
404 0 1 -7.397597 -5.522936 53.164185
405 0 1 -7.221636 -4.821797 52.541412
406 0 1 -7.498957 -3.912732 52.524689
407 0 1 -8.131346 -4.444438 53.111084
408 0 1 -8.048536 -4.007374 53.937805
409 0 1 -8.452297 -3.918055 54.791412
410 0 1 -8.814466 -4.259827 55.616913
411 0 1 -9.277737 -5.154467 55.872803
412 0 1 -8.516586 -5.818587 55.941589
413 0 1 -8.380148 -6.398287 55.128998
414 0 1 -8.783607 -6.991406 54.518707
415 0 1 -9.724436 -7.132287 54.830109
416 0 1 -9.666338 -7.532446 55.695984
417 0 1 -9.917807 -6.845816 56.360504
418 0 1 -10.242887 -6.172078 56.977112
419 0 1 -10.396677 -5.257117 56.731995
420 0 1 -10.711046 -4.504826 57.189087
421 0 1 -10.227827 -4.619397 58.036102
422 0 1 -10.382887 -4.881596 58.971191
423 0 1 -10.887186 -5.726838 58.864105
424 0 1 -10.953777 -5.655146 59.850800
425 0 1 -11.724987 -5.418616 60.306885
426 0 1 -11.379557 -4.562087 60.556793
427 0 1 -12.282337 -4.277157 60.553009
428 0 1 -12.482466 -3.277232 60.414612
429 0 1 -12.245577 -2.415574 60.282990
430 0 1 -11.337477 -2.013757 60.131714
431 0 1 -11.962227 -1.578496 59.455505
432 0 1 -12.443777 -0.766946 59.238098
433 0 1 -11.936737 -0.282426 59.887909
434 0 1 -12.300898 -0.072797 60.755890
435 0 1 -12.411097 -0.577996 61.548309
436 0 1 -12.241497 -1.004098 62.332794
437 0 1 -12.647806 -0.607766 63.085388
438 0 1 -13.352707 -0.235966 62.607910
439 0 1 -13.152906 0.438304 61.955811
440 0 1 -13.694006 0.071864 61.239594
441 0 1 -14.362406 0.221912 60.530609
442 0 1 -14.916506 0.614852 59.873596
443 0 1 -15.476606 -0.194386 59.900696
444 0 1 -14.945406 -0.951226 59.980591
445 0 1 -15.685408 -1.277146 59.491699
446 0 1 -15.088907 -0.953007 58.834717
447 0 1 -15.218508 -0.262528 58.109314
448 0 1 -14.301107 -0.561375 57.852295
449 0 1 -13.555607 -0.365308 58.410095
450 0 1 -12.992907 -1.184136 58.195984
451 0 1 -13.672907 -1.925156 58.333893
452 0 1 -14.408506 -2.282065 57.835510
453 0 1 -13.876007 -3.018670 58.046295
454 0 1 -13.752508 -3.158805 57.078613
455 0 1 -13.041107 -2.705626 56.633301
456 0 1 -13.125406 -2.078807 55.971008
457 0 1 -13.104307 -1.140698 55.957703
458 0 1 -13.882406 -0.519227 55.812012
459 0 1 -14.281408 -0.268357 54.958405
460 0 1 -14.398806 -1.210858 55.027496
461 0 1 -13.828207 -1.964837 55.203400
462 0 1 -14.445507 -2.731456 55.126312
463 0 1 -14.183907 -2.584319 54.179413
464 0 1 -14.930807 -2.493506 53.538391
465 0 1 -14.727106 -3.470256 53.132599
466 0 1 -15.057007 -3.716950 54.002289
467 0 1 -15.956707 -3.713086 54.217285
468 0 1 -16.802408 -4.274176 54.364807
469 0 1 -16.937506 -3.419131 53.960602
470 0 1 -17.201406 -4.169230 53.352905
471 0 1 -16.433107 -4.529786 52.982483
472 0 1 -15.484407 -4.264506 52.836090
473 0 1 -15.525806 -5.085618 52.223816
474 0 1 -15.557108 -6.065247 52.275085
475 0 1 -15.993107 -6.709467 51.780609
476 0 1 -15.745508 -6.024466 51.145599
477 0 1 -16.414408 -6.685977 50.893188
478 0 1 -15.687107 -7.208796 50.703796
479 0 1 -15.583607 -6.460877 50.108704
480 0 1 -15.696907 -5.735447 49.398010
481 0 1 -15.950308 -4.817097 49.717010
482 0 1 -15.841307 -3.913502 49.273804
483 0 1 -16.511206 -4.170928 48.595886
484 0 1 -17.251108 -3.580094 48.461609
485 0 1 -17.537508 -3.659352 47.551910
486 0 1 -16.591108 -4.039183 47.569397
487 0 1 -15.924107 -3.646209 46.882507
488 0 1 -15.036007 -3.387040 47.150787
489 0 1 -14.906507 -4.304448 47.172394
490 0 1 -14.673208 -5.148386 47.511902
491 0 1 -14.980507 -6.078417 47.281494
492 0 1 -15.457407 -6.503706 46.546204
493 0 1 -15.930607 -7.291007 46.553894
494 0 1 -16.098608 -6.939797 45.704895
495 0 1 -16.547808 -7.625447 45.163086
496 0 1 -16.242807 -8.538917 45.217712
497 0 1 -15.326006 -8.311898 45.113495
498 0 1 -15.306807 -9.169507 45.586395
499 0 1 -14.924107 -9.448188 46.403290
500 0 1 -15.122307 -9.603597 47.321594
501 0 1 -14.517406 -10.256516 47.773987
502 0 1 -14.784807 -11.212447 47.556305
503 0 1 -14.793108 -12.153287 47.414185
504 0 1 -15.377108 -12.873246 47.569000
505 0 1 -16.243307 -13.089276 47.218903
506 0 1 -17.152006 -13.290318 47.264496
507 0 1 -16.831808 -14.047318 46.842499
508 0 1 -16.274008 -14.358617 46.107117
509 0 1 -16.356607 -13.566617 45.504608
510 0 1 -15.664007 -14.148217 45.241089
511 0 1 -15.023607 -13.485116 45.528107
512 0 1 -14.627806 -13.698318 44.707611
513 0 1 -13.744108 -13.600917 45.173096
514 0 1 -13.558306 -13.842317 46.138092
515 0 1 -13.743208 -14.691817 46.562500
516 0 1 -14.218607 -15.331616 46.025787
517 0 1 -13.939507 -16.140017 46.388397
518 0 1 -13.085207 -16.581816 46.031097
519 0 1 -12.666107 -17.340717 45.615997
520 0 1 -11.758627 -17.541216 45.767303
521 0 1 -11.943918 -18.315916 45.353516
522 0 1 -12.326817 -17.734118 44.542297
523 0 1 -11.763567 -18.232517 43.969513
524 0 1 -12.028837 -18.877516 43.331299
525 0 1 -11.551016 -18.904217 42.546997
526 0 1 -11.048826 -18.585716 43.270386
527 0 1 -10.551577 -18.013216 42.679596
528 0 1 -9.767878 -17.730516 42.027100
529 0 1 -9.445377 -17.663116 41.161499
530 0 1 -10.225546 -17.637817 40.487793
531 0 1 -9.360746 -17.599415 40.058289
532 0 1 -9.371737 -16.706615 39.637085
533 0 1 -8.531878 -16.324615 39.826508
534 0 1 -7.913018 -15.832517 40.384705
535 0 1 -7.014708 -15.759618 40.733093
536 0 1 -6.444348 -15.440017 40.056793
537 0 1 -6.373148 -16.412518 40.007996
538 0 1 -5.897377 -16.075516 39.158508
539 0 1 -5.231717 -15.754018 38.517303
540 0 1 -4.777987 -16.136417 37.759399
541 0 1 -4.511967 -17.032417 37.661804
542 0 1 -3.759766 -16.774416 37.161987
543 0 1 -2.907759 -16.467716 36.860504
544 0 1 -3.480175 -16.410515 36.006500
545 0 1 -4.415217 -16.182415 35.815186
546 0 1 -5.037928 -15.438317 35.720398
547 0 1 -5.858748 -14.893918 35.557892
548 0 1 -5.514628 -14.835816 34.700409
549 0 1 -4.781126 -14.103116 34.710205
550 0 1 -4.232558 -13.438817 34.230896
551 0 1 -3.808575 -13.858317 35.053711
552 0 1 -2.817873 -13.779916 34.924194
553 0 1 -3.059912 -14.159116 34.023499
554 0 1 -2.993067 -14.976018 34.586700
555 0 1 -2.065298 -14.915917 34.652008
556 0 1 -1.857838 -14.327218 35.381500
557 0 1 -1.679417 -13.382817 35.305115
558 0 1 -1.420397 -12.739087 35.967102
559 0 1 -1.315027 -11.856627 35.782196
560 0 1 -0.484049 -12.343518 36.035492
561 0 1 -0.314978 -12.751647 35.108612
562 0 1 -0.901366 -13.065248 34.376099
563 0 1 -0.279757 -13.303817 33.610992
564 0 1 0.376573 -13.108397 34.316498
565 0 1 1.110914 -13.152268 33.786407
566 0 1 1.855283 -12.664857 33.404114
567 0 1 2.497423 -13.401217 33.681213
568 0 1 3.070062 -13.608117 34.424103
569 0 1 3.858511 -13.099977 34.381409
570 0 1 4.319704 -13.819718 33.987488
571 0 1 5.023172 -13.910417 33.243988
572 0 1 4.709630 -12.999347 33.164490
573 0 1 3.998613 -12.380677 33.000610
574 0 1 3.664243 -12.525006 32.106293
575 0 1 4.231802 -13.030377 31.457884
576 0 1 4.888422 -13.286717 30.819883
577 0 1 4.775411 -13.629418 29.930693
578 0 1 4.840093 -12.786408 29.416197
579 0 1 5.769151 -12.610677 29.302702
580 0 1 6.360151 -11.842587 29.478392
581 0 1 6.841375 -11.169208 29.970091
582 0 1 6.860414 -11.057866 29.027708
583 0 1 6.469373 -10.212586 28.767485
584 0 1 6.593961 -9.235627 28.989103
585 0 1 7.005735 -8.465268 29.303709
586 0 1 7.222394 -8.044087 28.516691
587 0 1 7.263692 -7.099667 28.123808
588 0 1 7.940191 -7.630686 27.773405
589 0 1 7.197294 -7.564847 27.108610
590 0 1 7.516794 -6.711026 26.878508
591 0 1 7.675191 -6.127736 27.616789
592 0 1 6.967134 -5.536807 27.989500
593 0 1 6.911443 -5.172856 28.848295
594 0 1 6.280683 -4.479916 28.641294
595 0 1 5.581064 -3.917624 28.681395
596 0 1 6.197973 -3.289267 28.901884
597 0 1 6.123655 -2.769591 29.746702
598 0 1 5.453523 -2.952250 30.430296
599 0 1 4.845373 -2.907149 31.121794
600 0 1 5.071531 -2.945010 32.119690
601 0 1 5.618371 -3.225575 32.925903
602 0 1 6.275053 -3.597983 32.357483
603 0 1 6.713972 -3.960953 33.144287
604 0 1 7.045522 -4.478697 32.508209
605 0 1 6.542161 -4.718728 31.740294
606 0 1 5.735181 -4.233187 31.378782
607 0 1 4.880125 -4.353726 31.927610
608 0 1 5.114984 -5.287516 31.676390
609 0 1 4.452352 -5.746577 32.210815
610 0 1 3.789823 -6.196646 31.587309
611 0 1 2.953691 -5.744097 31.786100
612 0 1 2.293875 -6.109137 32.468109
613 0 1 2.330583 -6.854527 33.105988
614 0 1 2.828771 -7.724717 32.914490
615 0 1 3.440943 -7.236676 33.443695
616 0 1 2.720632 -7.306166 34.045990
617 0 1 1.791754 -7.453408 34.265198
618 0 1 1.037653 -7.805726 33.791809
619 0 1 0.533544 -7.394578 34.563507
620 0 1 0.453233 -6.908427 33.714905
621 0 1 0.304682 -5.993866 33.796387
622 0 1 1.084425 -5.391137 33.970886
623 0 1 0.729501 -4.528447 33.870911
624 0 1 -0.213877 -4.573727 33.679016
625 0 1 -0.616148 -4.761406 32.800293
626 0 1 -0.027449 -5.337777 32.364685
627 0 1 0.340204 -4.913266 31.547392
628 0 1 -0.417506 -4.517687 31.095793
629 0 1 -0.959357 -4.676396 30.307188
630 0 1 -1.469998 -5.114237 30.998594
631 0 1 -2.322909 -4.582097 31.101408
632 0 1 -2.140688 -3.662310 31.379789
633 0 1 -2.749998 -3.419848 32.093994
634 0 1 -3.320986 -3.638280 31.366697
635 0 1 -3.761297 -4.484927 31.615690
636 0 1 -3.984127 -4.971976 32.425110
637 0 1 -3.518530 -4.647797 33.227203
638 0 1 -4.222126 -4.071631 32.990509
639 0 1 -5.086398 -3.597970 33.153595
640 0 1 -5.685227 -2.945191 33.559387
641 0 1 -6.517638 -2.588723 33.836090
642 0 1 -7.195378 -3.058715 33.343292
643 0 1 -7.582247 -3.852851 33.765594
644 0 1 -8.563087 -3.619530 33.425507
645 0 1 -8.338177 -2.715611 33.627991
646 0 1 -8.650927 -2.648812 34.585205
647 0 1 -9.348116 -3.304307 34.699097
648 0 1 -9.937527 -2.768676 34.153595
649 0 1 -10.329367 -2.447770 33.293488
650 0 1 -11.264006 -2.223838 33.296509
651 0 1 -11.087786 -1.810607 32.449585
652 0 1 -10.197006 -1.872437 32.113098
653 0 1 -9.727818 -2.625764 32.465912
654 0 1 -9.238197 -3.175700 31.886595
655 0 1 -9.119957 -2.646140 31.061491
656 0 1 -8.929987 -2.687131 30.062895
657 0 1 -8.053568 -2.865680 30.534483
658 0 1 -8.321407 -3.558812 31.149504
659 0 1 -9.258907 -3.825152 30.987211
660 0 1 -10.100157 -4.255677 30.944304
661 0 1 -10.874876 -4.664807 31.393309
662 0 1 -11.365908 -4.115809 30.791899
663 0 1 -11.926348 -4.784636 31.160795
664 0 1 -12.565687 -4.968037 31.862791
665 0 1 -12.824057 -5.492898 31.037901
666 0 1 -13.436106 -6.302386 31.008696
667 0 1 -13.821608 -7.170647 30.797087
668 0 1 -14.640907 -6.661877 30.565702
669 0 1 -14.933607 -6.188416 29.750090
670 0 1 -15.752007 -6.495966 29.425688
671 0 1 -15.691908 -7.413367 29.485807
672 0 1 -15.607908 -7.796547 28.550901
673 0 1 -15.499708 -8.784936 28.461912
674 0 1 -15.323408 -9.168077 27.541899
675 0 1 -14.794607 -9.378587 26.776091
676 0 1 -14.102507 -9.830377 26.361204
677 0 1 -13.287407 -9.994378 26.754301
678 0 1 -12.776787 -10.337567 27.528898
679 0 1 -12.961008 -11.184916 27.934813
680 0 1 -13.129206 -11.291698 26.995787
681 0 1 -12.573557 -10.850938 26.391996
682 0 1 -11.778427 -11.204797 26.061705
683 0 1 -12.376966 -11.951268 25.942686
684 0 1 -11.913168 -12.479257 25.257505
685 0 1 -11.273867 -13.087028 25.675901
686 0 1 -10.953226 -13.642018 24.925200
687 0 1 -11.467188 -14.437917 24.509398
688 0 1 -11.735247 -15.196918 24.116514
689 0 1 -12.059196 -14.797418 23.322111
690 0 1 -11.252886 -14.340617 23.422300
691 0 1 -10.750856 -13.530417 23.157804
692 0 1 -11.608717 -13.145328 22.970793
693 0 1 -11.293467 -13.715318 22.210402
694 0 1 -11.058226 -12.746358 22.083296
695 0 1 -11.193157 -11.916087 22.726286
696 0 1 -10.588346 -11.629598 23.425901
697 0 1 -11.125397 -11.173907 24.042997
698 0 1 -11.828577 -11.280858 23.269590
699 0 1 -12.484756 -10.646956 23.018187
700 0 1 -13.026808 -10.410697 22.246305
701 0 1 -13.907507 -10.742017 22.617613
702 0 1 -14.685106 -10.569907 23.253294
703 0 1 -14.161907 -11.405047 23.281614
704 0 1 -13.402407 -11.922717 22.996305
705 0 1 -13.526308 -12.601426 22.317305
706 0 1 -13.837507 -11.870397 21.893995
707 0 1 -13.948908 -11.785047 20.952803
708 0 1 -14.471106 -12.230947 20.178694
709 0 1 -13.501207 -12.445107 20.207594
710 0 1 -12.646166 -12.105697 20.326506
711 0 1 -12.691545 -12.692647 19.624998
712 0 1 -12.428307 -13.485017 19.993498
713 0 1 -11.463266 -13.825116 19.944304
714 0 1 -10.982897 -12.956216 20.160200
715 0 1 -10.871958 -12.057706 19.903990
716 0 1 -10.218487 -11.448417 19.520399
717 0 1 -11.057697 -11.323657 18.968000
718 0 1 -11.632948 -10.771218 18.408201
719 0 1 -12.467157 -10.588637 17.861403
720 0 1 -12.441637 -9.656608 17.628904
721 0 1 -12.908497 -8.858277 17.316404
722 0 1 -13.090307 -8.305427 18.036695
723 0 1 -13.792006 -7.680268 17.853605
724 0 1 -14.572107 -7.594527 18.375792
725 0 1 -15.109507 -8.367688 18.153791
726 0 1 -15.467306 -8.340978 17.227995
727 0 1 -15.540207 -8.958217 16.520597
728 0 1 -15.659708 -9.837056 15.974394
729 0 1 -15.221708 -9.501437 15.185606
730 0 1 -14.323706 -9.897767 14.970701
731 0 1 -14.282307 -9.573796 15.918699
732 0 1 -14.746407 -8.662807 15.759092
733 0 1 -13.983807 -8.560237 15.098906
734 0 1 -13.721807 -7.859637 15.790892
735 0 1 -13.413908 -7.115906 16.340101
736 0 1 -14.347406 -6.779187 16.518095
737 0 1 -14.015406 -6.387696 15.740294
738 0 1 -14.770107 -6.560837 15.218901
739 0 1 -15.249807 -6.350886 16.028502
740 0 1 -16.141108 -6.320588 15.646299
741 0 1 -16.847906 -5.827256 15.129393
742 0 1 -16.715208 -6.154046 14.216795
743 0 1 -16.230406 -5.226067 13.969496
744 0 1 -16.325006 -4.331357 13.468992
745 0 1 -16.730406 -4.460417 12.518904
746 0 1 -16.801407 -4.678666 11.585905
747 0 1 -16.309008 -4.439217 10.786100
748 0 1 -16.566206 -5.191096 10.233900
749 0 1 -15.645006 -5.064316 10.266294
750 0 1 -14.782606 -4.682927 10.021101
751 0 1 -14.146807 -4.776516 10.853300
752 0 1 -13.795607 -3.859662 10.864698
753 0 1 -14.346708 -3.135798 10.745604
754 0 1 -14.823206 -2.399064 11.112791
755 0 1 -15.421106 -1.691605 11.270994
756 0 1 -16.152407 -1.839127 11.808500
757 0 1 -16.439806 -1.116997 11.309004
758 0 1 -16.124308 -0.479207 11.926603
759 0 1 -16.003508 0.500144 11.819197
760 0 1 -16.664307 0.551482 11.126204
761 0 1 -16.427908 0.775722 10.257795
762 0 1 -16.564108 1.741733 10.067793
763 0 1 -17.282808 2.331924 10.064497
764 0 1 -17.758007 1.866702 10.756102
765 0 1 -17.872307 1.262912 10.020094
766 0 1 -17.529207 0.339923 10.203505
767 0 1 -18.378807 -0.065839 10.379499
768 0 1 -19.233606 -0.121945 10.852903
769 0 1 -19.576807 -0.933705 11.303404
770 0 1 -19.457108 -0.670087 12.191099