LAMMPS data file via MDAnalysis

        2000  atoms
        1999  bonds
           0  angles
           0  dihedrals
           0  impropers

           1  atom types
           1  bond types
           0  angle types
           0  dihedral types
           0  improper types

-30.5 30.5 xlo xhi
-30.5 30.5 ylo yhi
-233.5 233.5 zlo zhi


Masses

1 1.000000

Atoms

1 0 1 -20.734241 -8.445292 56.780090
2 0 1 -20.202641 -7.582133 56.530487
3 0 1 -21.112841 -7.581063 56.209991
4 0 1 -21.414042 -8.350483 55.739594
5 0 1 -21.924141 -7.720162 55.128296
6 0 1 -22.384041 -8.531733 55.175903
7 0 1 -22.491640 -8.972532 54.260895
8 0 1 -22.013340 -9.864353 54.243805
9 0 1 -22.362741 -10.338972 53.459900
10 0 1 -22.898140 -11.099342 53.292389
11 0 1 -23.850040 -10.823742 53.292206
12 0 1 -23.634541 -9.877462 53.039490
13 0 1 -23.467640 -10.236221 52.208099
14 0 1 -22.968540 -9.408882 52.130707
15 0 1 -22.433140 -8.661602 52.290100
16 0 1 -21.724140 -8.043262 52.362396
17 0 1 -21.569441 -7.245244 51.837189
18 0 1 -21.320341 -6.791392 51.016113
19 0 1 -20.755442 -5.998162 50.897400
20 0 1 -20.299240 -6.611163 50.295593
21 0 1 -21.025042 -6.923613 49.700897
22 0 1 -21.684240 -7.630923 49.478394
23 0 1 -21.848742 -8.554771 49.153107
24 0 1 -21.942640 -7.769612 48.540283
25 0 1 -22.831640 -7.426312 48.660797
26 0 1 -23.015341 -8.319202 48.455383
27 0 1 -23.513441 -8.722672 49.175110
28 0 1 -23.405540 -7.850253 49.459106
29 0 1 -24.291540 -7.649533 49.102417
30 0 1 -24.396740 -8.433941 49.554810
31 0 1 -24.988941 -8.295012 50.240509
32 0 1 -24.454741 -8.506882 51.012207
33 0 1 -23.886742 -9.170752 51.401093
34 0 1 -22.953941 -9.229912 51.125092
35 0 1 -22.641941 -9.698172 50.203491
36 0 1 -21.782042 -9.407282 50.629700
37 0 1 -20.844341 -9.233433 50.734711
38 0 1 -20.004042 -8.864342 50.340302
39 0 1 -19.914042 -9.752722 50.532013
40 0 1 -20.330841 -10.557343 51.085297
41 0 1 -21.274040 -10.307732 51.327911
42 0 1 -20.713140 -10.385582 52.100891
43 0 1 -20.516941 -9.431732 52.271301
44 0 1 -20.488541 -9.244781 53.225311
45 0 1 -19.922640 -9.932602 53.645386
46 0 1 -19.144840 -10.417141 53.367401
47 0 1 -19.028440 -10.912342 52.564514
48 0 1 -19.945042 -10.577742 52.708405
49 0 1 -20.272541 -11.462542 52.770996
50 0 1 -19.931541 -11.494041 53.802399
51 0 1 -19.640841 -12.268742 54.315002
52 0 1 -19.998741 -12.203842 55.175415
53 0 1 -19.753241 -11.308743 55.401703
54 0 1 -19.924141 -10.771843 56.258301
55 0 1 -19.025341 -10.712442 55.927887
56 0 1 -18.937241 -9.740492 55.985504
57 0 1 -18.636940 -8.833822 56.160400
58 0 1 -19.327841 -8.176592 56.426788
59 0 1 -18.647141 -7.598794 56.110504
60 0 1 -17.857540 -7.201222 56.538086
61 0 1 -17.119141 -7.882763 56.509003
62 0 1 -16.524240 -7.563242 55.700806
63 0 1 -16.750540 -8.510382 55.796692
64 0 1 -17.528740 -8.930012 55.295197
65 0 1 -17.209742 -9.791481 55.549011
66 0 1 -17.610641 -10.117161 56.443909
67 0 1 -17.956942 -11.080341 56.612915
68 0 1 -16.994041 -11.313242 56.756805
69 0 1 -16.610241 -11.325842 57.640808
70 0 1 -16.373640 -10.363213 57.841888
71 0 1 -16.005640 -10.503162 56.945496
72 0 1 -15.888539 -11.306541 56.386505
73 0 1 -16.244341 -11.344143 55.497101
74 0 1 -15.309539 -11.218441 55.411987
75 0 1 -14.732240 -11.296442 54.666199
76 0 1 -14.700440 -10.371122 54.970398
77 0 1 -14.982539 -9.535591 54.538208
78 0 1 -15.147340 -8.718422 54.082794
79 0 1 -15.914041 -8.379072 53.546906
80 0 1 -15.458341 -8.575132 52.738586
81 0 1 -14.637839 -8.853313 52.345612
82 0 1 -14.282840 -8.920292 51.465698
83 0 1 -13.327340 -8.689491 51.343201
84 0 1 -13.677440 -8.979902 50.450500
85 0 1 -14.453240 -8.438492 50.485687
86 0 1 -15.164840 -8.902641 50.115906
87 0 1 -14.990840 -8.271782 49.462494
88 0 1 -15.062739 -7.578782 50.142517
89 0 1 -15.525239 -6.898022 50.606506
90 0 1 -14.866839 -6.232533 50.456299
91 0 1 -15.382640 -5.597872 49.953705
92 0 1 -15.757739 -5.044932 49.205017
93 0 1 -16.127541 -4.437552 48.581207
94 0 1 -15.601439 -3.664473 48.171692
95 0 1 -14.830140 -3.311873 47.579803
96 0 1 -14.065740 -3.719992 48.082306
97 0 1 -14.659940 -4.482703 48.264801
98 0 1 -13.776440 -4.617383 48.703094
99 0 1 -13.954040 -3.699753 49.110596
100 0 1 -12.990040 -3.516602 48.859589
101 0 1 -13.289240 -2.594841 48.876312
102 0 1 -14.187240 -2.418282 49.034912
103 0 1 -14.156640 -2.533072 48.062805
104 0 1 -14.090940 -1.618132 47.816406
105 0 1 -13.173640 -1.840382 47.752594
106 0 1 -12.820240 -2.050202 46.899292
107 0 1 -13.395940 -2.462092 46.266998
108 0 1 -13.606339 -2.681073 45.312897
109 0 1 -14.030139 -3.380572 45.782288
110 0 1 -14.907939 -3.246193 46.180603
111 0 1 -15.493840 -2.737843 45.648407
112 0 1 -15.450540 -1.900662 45.220398
113 0 1 -16.300941 -2.289492 45.007904
114 0 1 -17.005442 -2.934153 44.970490
115 0 1 -17.204241 -3.673623 45.531708
116 0 1 -18.057840 -3.531153 45.924713
117 0 1 -18.308441 -2.671662 45.890198
118 0 1 -18.777142 -1.961232 46.299408
119 0 1 -18.341240 -1.082499 46.401093
120 0 1 -17.647942 -0.528748 46.816193
121 0 1 -17.141840 -0.567936 45.964600
122 0 1 -17.812441 -0.187045 45.319611
123 0 1 -17.873140 0.372438 44.579498
124 0 1 -18.122940 1.123779 44.132294
125 0 1 -17.721241 1.948829 44.454285
126 0 1 -17.000641 2.360858 44.932587
127 0 1 -17.415041 2.953567 44.346191
128 0 1 -17.208241 3.748519 43.911102
129 0 1 -17.498440 4.122436 43.074493
130 0 1 -16.566542 4.029739 42.881989
131 0 1 -16.251741 3.057067 42.697113
132 0 1 -16.918541 2.316459 42.580505
133 0 1 -17.739641 2.566707 43.038086
134 0 1 -18.099041 1.913757 42.387390
135 0 1 -18.701441 1.272846 42.002594
136 0 1 -19.673441 1.476509 41.844696
137 0 1 -19.803940 2.462177 42.250092
138 0 1 -19.431341 3.421257 42.286804
139 0 1 -18.702042 3.922267 42.551392
140 0 1 -18.813040 4.263988 41.638184
141 0 1 -19.200041 3.409839 41.382599
142 0 1 -19.308241 2.661277 40.823395
143 0 1 -19.761141 1.834026 40.718811
144 0 1 -20.246141 2.524688 40.265991
145 0 1 -20.639240 3.317157 40.052094
146 0 1 -21.545540 3.453018 40.219116
147 0 1 -22.209240 2.811176 39.757904
148 0 1 -23.023340 3.301826 39.577698
149 0 1 -22.742041 3.620578 38.736908
150 0 1 -22.402340 2.814239 38.270996
151 0 1 -21.993940 2.138206 37.719910
152 0 1 -21.620741 1.234668 37.536896
153 0 1 -22.369841 0.891298 37.007507
154 0 1 -21.924341 0.147800 36.529205
155 0 1 -21.756641 -0.131693 35.655090
156 0 1 -21.803541 -0.299191 34.739502
157 0 1 -21.610741 0.441005 34.160583
158 0 1 -22.084541 0.607448 33.307495
159 0 1 -22.979641 0.695398 33.697601
160 0 1 -23.441841 1.539108 33.719299
161 0 1 -23.673941 2.187179 34.399506
162 0 1 -24.400240 2.822486 34.406403
163 0 1 -23.851341 3.227619 33.739502
164 0 1 -24.135040 4.018867 33.398010
165 0 1 -24.222342 4.260257 34.315613
166 0 1 -24.688641 5.029357 33.957214
167 0 1 -25.099640 5.790767 33.390198
168 0 1 -25.075541 6.733108 33.565613
169 0 1 -25.048941 6.540248 32.682190
170 0 1 -25.372641 6.838027 31.829285
171 0 1 -25.514341 5.914489 31.644714
172 0 1 -25.252340 5.094837 31.155792
173 0 1 -24.619541 4.362049 31.085693
174 0 1 -25.330740 4.067436 31.714508
175 0 1 -25.431940 3.704429 30.798401
176 0 1 -24.801340 3.371398 30.182587
177 0 1 -24.022741 2.799819 30.215790
178 0 1 -23.535341 3.468807 30.704895
179 0 1 -22.791941 3.217319 31.271606
180 0 1 -22.760342 2.791698 32.216187
181 0 1 -22.584240 1.827808 31.940613
182 0 1 -22.392841 1.049606 31.384705
183 0 1 -21.567242 1.461257 30.953186
184 0 1 -21.195742 1.743827 30.149689
185 0 1 -20.231941 1.619438 30.012604
186 0 1 -19.637341 1.191539 29.403503
187 0 1 -19.010241 0.455493 29.100891
188 0 1 -18.352640 0.733938 28.425201
189 0 1 -17.749441 0.241386 27.868195
190 0 1 -18.214840 0.475288 27.036896
191 0 1 -17.696140 1.316097 27.032501
192 0 1 -17.370340 2.177326 27.417786
193 0 1 -16.450840 2.108898 27.640900
194 0 1 -15.668540 2.008327 28.197815
195 0 1 -15.515439 2.985988 28.211304
196 0 1 -15.921939 2.953449 27.372803
197 0 1 -16.570440 2.764648 26.639496
198 0 1 -16.842541 3.520938 27.280304
199 0 1 -16.940842 4.419899 27.024109
200 0 1 -17.860840 4.575408 26.829803
201 0 1 -17.361841 5.427448 26.656799
202 0 1 -16.437040 5.493576 27.074005
203 0 1 -15.774739 6.059349 27.429688
204 0 1 -15.653239 6.997489 27.812988
205 0 1 -14.914041 6.915519 27.245087
206 0 1 -14.633439 7.473468 27.961212
207 0 1 -13.773140 7.793437 27.976288
208 0 1 -13.410540 7.473308 27.129791
209 0 1 -12.468440 7.546848 27.303192
210 0 1 -12.295939 8.468109 27.448486
211 0 1 -11.418740 8.109390 27.191101
212 0 1 -10.493939 8.228416 27.253296
213 0 1 -9.858239 7.642456 27.692291
214 0 1 -9.802939 8.526608 28.154602
215 0 1 -8.977941 9.141319 28.328003
216 0 1 -9.207841 8.770180 27.420105
217 0 1 -8.376740 8.308098 27.279999
218 0 1 -8.169641 9.242977 27.479004
219 0 1 -7.796100 9.872856 26.797302
220 0 1 -7.346262 10.071259 25.992188
221 0 1 -6.754541 9.552258 26.530487
222 0 1 -6.717050 8.605267 26.853302
223 0 1 -5.825929 8.927769 27.264404
224 0 1 -5.585300 8.410328 28.065186
225 0 1 -4.821580 8.646210 28.600708
226 0 1 -4.931020 8.329739 29.511902
227 0 1 -5.490060 8.946037 29.944885
228 0 1 -5.379011 9.371288 29.036407
229 0 1 -4.636140 9.670258 29.669403
230 0 1 -3.781271 9.261337 29.753204
231 0 1 -3.460041 9.141258 30.624603
232 0 1 -3.581861 8.848969 31.525208
233 0 1 -3.137319 8.169319 32.030090
234 0 1 -3.742931 7.371208 31.764709
235 0 1 -3.671030 7.691158 30.854309
236 0 1 -3.287490 7.315399 30.055908
237 0 1 -3.245121 6.869167 29.207703
238 0 1 -2.295850 7.022876 29.308502
239 0 1 -1.839601 7.082908 30.142487
240 0 1 -1.492330 6.186077 30.095093
241 0 1 -1.003290 6.619998 29.463501
242 0 1 -0.697330 7.580509 29.542389
243 0 1 -0.213190 7.248676 30.315399
244 0 1 -0.244550 7.864498 31.097900
245 0 1 0.220940 8.375778 30.484009
246 0 1 0.371800 7.954128 29.639313
247 0 1 0.602219 7.518348 28.822906
248 0 1 1.007899 7.882297 27.982605
249 0 1 1.943263 8.026489 27.891205
250 0 1 1.818448 7.290329 28.540100
251 0 1 2.035203 7.043388 29.453491
252 0 1 2.904814 7.050937 29.829590
253 0 1 3.761111 6.622829 29.847107
254 0 1 4.437418 6.841266 29.208405
255 0 1 4.337481 6.542587 28.246796
256 0 1 5.306700 6.498027 28.178406
257 0 1 5.675791 6.646129 28.978516
258 0 1 6.180789 7.399826 29.244598
259 0 1 7.117320 7.217876 29.235992
260 0 1 7.124510 7.029567 30.249512
261 0 1 7.404231 7.903018 30.590912
262 0 1 6.661841 7.570388 31.147186
263 0 1 7.323740 7.756446 31.975494
264 0 1 8.252051 7.980148 31.679596
265 0 1 8.985869 8.175926 32.344116
266 0 1 9.703769 8.865967 32.404388
267 0 1 9.778289 8.521957 31.506714
268 0 1 10.703761 8.570488 31.192291
269 0 1 10.470359 9.456657 30.901794
270 0 1 11.068561 9.206520 30.196991
271 0 1 11.181849 8.620476 29.471802
272 0 1 10.687152 7.791267 29.592499
273 0 1 10.055739 7.083667 29.393616
274 0 1 9.879321 6.158409 29.051086
275 0 1 10.226272 5.314876 28.908600
276 0 1 10.504382 4.293258 28.879608
277 0 1 10.244609 3.462017 29.294708
278 0 1 9.427711 3.725566 28.831116
279 0 1 8.915889 4.491706 28.430695
280 0 1 8.767669 4.649719 29.377808
281 0 1 8.536590 3.966697 30.071808
282 0 1 9.087901 3.409889 30.607605
283 0 1 8.686702 2.851688 31.283295
284 0 1 8.010600 2.150379 31.169891
285 0 1 8.454638 1.435726 31.690002
286 0 1 8.768512 0.743858 31.019989
287 0 1 8.675990 1.526828 30.468109
288 0 1 9.438960 1.176887 29.939514
289 0 1 9.530482 1.460929 29.054688
290 0 1 8.806449 2.053566 28.991302
291 0 1 8.246509 1.203918 28.964203
292 0 1 7.720049 0.469907 29.228912
293 0 1 7.273089 -0.339735 29.226685
294 0 1 6.490180 -0.415596 28.718597
295 0 1 6.791251 0.470089 28.489105
296 0 1 6.517439 0.438671 27.584900
297 0 1 6.506171 1.388229 27.523193
298 0 1 5.616061 1.120838 27.397614
299 0 1 4.816241 0.569847 27.304993
300 0 1 4.217131 0.790668 26.603912
301 0 1 3.521040 1.410686 26.534485
302 0 1 3.546959 1.793567 25.603516
303 0 1 2.683293 1.995239 25.990814
304 0 1 2.384522 2.959857 25.956512
305 0 1 1.583493 3.454349 26.002686
306 0 1 1.460879 2.961296 26.808594
307 0 1 0.656920 2.566417 26.372192
308 0 1 -0.078170 1.912937 26.309387
309 0 1 -0.507039 1.056919 26.126007
310 0 1 -0.544721 0.324953 25.473602
311 0 1 -0.945060 -0.243374 24.767914
312 0 1 -0.816980 0.157333 24.009705
313 0 1 -1.018230 0.437831 23.155304
314 0 1 -0.923631 1.402118 23.052094
315 0 1 -1.664550 2.034858 22.681610
316 0 1 -2.392751 1.858127 23.412506
317 0 1 -3.090690 1.297416 23.708588
318 0 1 -3.455160 1.589336 22.768707
319 0 1 -3.750761 1.556659 21.852692
320 0 1 -3.056831 2.300907 21.837708
321 0 1 -3.595941 2.986278 21.390305
322 0 1 -3.466640 2.949806 20.411697
323 0 1 -2.583240 3.030109 20.096893
324 0 1 -1.660270 2.962287 20.408508
325 0 1 -1.079080 3.728378 20.233093
326 0 1 -0.142150 3.504688 20.333694
327 0 1 0.103369 2.666557 20.854706
328 0 1 0.282019 1.853019 21.388596
329 0 1 0.168660 1.197868 22.005402
330 0 1 -0.727571 1.146778 21.391403
331 0 1 -0.190200 0.419458 21.154205
332 0 1 0.802540 0.397016 21.170593
333 0 1 1.648375 0.269277 20.842896
334 0 1 2.478941 -0.011294 21.204895
335 0 1 2.357905 -0.927882 21.040695
336 0 1 3.301270 -0.919207 20.917908
337 0 1 4.046050 -0.339837 20.882294
338 0 1 4.611880 -0.889428 20.321899
339 0 1 4.945460 -1.482888 20.961792
340 0 1 5.120970 -1.622462 21.854492
341 0 1 5.150752 -2.564223 21.510498
342 0 1 5.223471 -3.419253 21.919601
343 0 1 6.024851 -3.058203 21.588394
344 0 1 6.446871 -2.223633 21.899506
345 0 1 6.824519 -1.700343 21.216904
346 0 1 7.085120 -0.740517 21.431900
347 0 1 6.631430 -0.237303 20.796097
348 0 1 6.831549 0.228488 19.890106
349 0 1 6.525019 0.149505 18.988998
350 0 1 7.029768 -0.007752 18.176208
351 0 1 7.573180 0.445507 17.506393
352 0 1 8.347232 0.986507 17.308807
353 0 1 8.950011 1.167118 18.089005
354 0 1 8.541839 1.806549 18.717407
355 0 1 9.071719 1.438476 19.437103
356 0 1 9.749530 2.187027 19.333405
357 0 1 10.232142 1.662796 18.725006
358 0 1 11.242091 1.607688 19.008896
359 0 1 11.379809 1.688659 19.966293
360 0 1 11.660190 0.921588 20.490799
361 0 1 11.055041 0.393665 19.949493
362 0 1 11.844131 0.256120 19.314499
363 0 1 12.141059 0.496828 18.437195
364 0 1 12.762858 0.655618 17.733307
365 0 1 13.724360 0.497058 17.880203
366 0 1 14.636161 0.752878 17.520905
367 0 1 15.112060 0.164514 18.073898
368 0 1 15.635661 0.846597 18.593292
369 0 1 15.207961 0.082477 19.052902
370 0 1 16.103758 0.142490 19.338806
371 0 1 16.276461 1.071327 19.688904
372 0 1 15.503860 1.088619 20.285004
373 0 1 14.579459 1.078426 20.750793
374 0 1 15.142760 1.753597 21.096207
375 0 1 15.700660 2.393688 21.479904
376 0 1 15.893161 3.295097 21.882294
377 0 1 14.977561 3.315078 21.744797
378 0 1 14.842261 3.367568 22.670197
379 0 1 15.491561 2.661449 23.081604
380 0 1 16.371561 2.268257 22.949005
381 0 1 16.640459 1.400856 22.608307
382 0 1 15.768962 1.077308 22.873291
383 0 1 14.960860 0.730457 22.751312
384 0 1 14.438159 0.104270 23.320892
385 0 1 13.720260 -0.034827 22.697998
386 0 1 12.948161 -0.491694 22.189102
387 0 1 12.946162 -1.175026 22.910004
388 0 1 12.064578 -1.400912 22.522003
389 0 1 11.781230 -1.990853 23.242096
390 0 1 10.836051 -2.270833 23.440704
391 0 1 10.406589 -2.895262 22.892090
392 0 1 11.096362 -3.624272 23.089386
393 0 1 10.834361 -4.531373 22.915894
394 0 1 10.930930 -4.825922 23.895203
395 0 1 10.406051 -5.592112 23.793091
396 0 1 10.393722 -5.194684 24.720306
397 0 1 10.223498 -4.308033 25.040009
398 0 1 11.095351 -3.902894 24.728516
399 0 1 11.386790 -4.585782 25.277191
400 0 1 11.116481 -5.011233 26.032593
401 0 1 11.055102 -5.076342 26.999603
402 0 1 11.428622 -4.478302 27.740509
403 0 1 11.020339 -4.242423 28.602997
404 0 1 10.362910 -4.758063 28.135590
405 0 1 9.928039 -4.499243 28.998901
406 0 1 9.741271 -5.408772 28.766296
407 0 1 9.281711 -5.801222 29.483490
408 0 1 8.794639 -5.037404 29.167114
409 0 1 9.128539 -4.682374 28.321594
410 0 1 8.394309 -4.147643 28.717285
411 0 1 7.870039 -3.688633 28.102509
412 0 1 7.886061 -3.423312 27.152191
413 0 1 6.962969 -3.539172 27.296204
414 0 1 6.085619 -3.202332 27.209106
415 0 1 6.099219 -3.081763 26.276886
416 0 1 5.807570 -3.720072 25.586700
417 0 1 5.834559 -4.682963 25.511993
418 0 1 5.567000 -5.315243 26.233704
419 0 1 5.565478 -5.946423 25.489014
420 0 1 4.845339 -5.923672 24.863800
421 0 1 4.159220 -5.964123 25.482513
422 0 1 3.745608 -6.025553 24.583313
423 0 1 2.867455 -6.330674 24.885895
424 0 1 2.476943 -5.487492 25.068115
425 0 1 2.064421 -4.547402 24.887390
426 0 1 2.254185 -4.345093 23.987213
427 0 1 1.331170 -4.330992 24.110413
428 0 1 1.097399 -3.414183 23.876190
429 0 1 0.200800 -3.669632 23.806793
430 0 1 -0.633081 -4.151303 23.778992
431 0 1 -0.578840 -4.383832 22.846008
432 0 1 -1.232240 -5.078072 22.975494
433 0 1 -1.155160 -5.658322 22.257599
434 0 1 -2.022489 -5.639103 21.837204
435 0 1 -2.626661 -4.975483 22.375397
436 0 1 -2.934091 -4.765812 21.492599
437 0 1 -3.460969 -5.145363 20.730606
438 0 1 -2.871820 -5.685593 20.139206
439 0 1 -2.334650 -4.922432 20.560394
440 0 1 -1.521221 -5.318833 20.824402
441 0 1 -0.633550 -5.288773 20.525696
442 0 1 -0.117191 -6.083203 20.689499
443 0 1 0.140050 -6.878802 21.166504
444 0 1 -0.647729 -7.104943 20.761902
445 0 1 -1.181011 -7.421093 20.092300
446 0 1 -1.439821 -7.100512 19.252808
447 0 1 -1.473440 -8.093193 19.320099
448 0 1 -0.614311 -7.639983 18.885498
449 0 1 -0.651611 -7.850922 17.942703
450 0 1 -0.518550 -8.686092 17.510605
451 0 1 -0.865091 -9.032942 16.702606
452 0 1 -1.219020 -8.165371 16.701096
453 0 1 -0.739841 -7.254963 16.409103
454 0 1 0.245720 -7.500924 16.499207
455 0 1 0.946259 -8.158302 16.550400
456 0 1 1.160653 -7.809903 17.403793
457 0 1 2.015969 -7.839032 17.853195
458 0 1 2.604756 -7.104342 17.635300
459 0 1 2.240860 -6.955683 16.750595
460 0 1 3.066916 -6.630503 16.317398
461 0 1 3.340279 -7.348443 15.630296
462 0 1 3.972079 -6.638562 15.391404
463 0 1 3.604529 -6.540392 14.539506
464 0 1 3.454590 -7.070662 13.707704
465 0 1 4.266001 -7.022332 13.211106
466 0 1 4.708209 -7.850962 12.926698
467 0 1 4.347109 -8.408401 13.596894
468 0 1 5.280440 -8.720581 13.642900
469 0 1 5.836718 -8.145082 14.099702
470 0 1 6.331210 -8.771872 14.640702
471 0 1 6.208369 -9.380901 15.360597
472 0 1 6.765440 -10.156052 15.259995
473 0 1 6.491930 -10.332422 16.210907
474 0 1 7.208102 -10.621941 16.767792
475 0 1 7.926650 -11.011242 17.340698
476 0 1 8.086341 -11.501642 16.492493
477 0 1 8.896960 -11.612242 15.954194
478 0 1 9.439132 -11.184143 15.256700
479 0 1 9.542811 -12.192741 15.308305
480 0 1 9.843959 -12.839842 14.720399
481 0 1 9.901992 -12.838341 13.801698
482 0 1 9.008521 -12.782442 14.132096
483 0 1 8.653850 -12.580442 13.255906
484 0 1 7.933070 -12.373241 12.635499
485 0 1 8.706149 -12.347242 12.078095
486 0 1 9.401420 -12.982441 11.934907
487 0 1 9.501769 -12.365341 11.188600
488 0 1 9.985641 -12.787243 10.451005
489 0 1 10.436572 -12.184143 9.858537
490 0 1 9.864581 -11.981941 9.072526
491 0 1 9.008590 -11.753042 8.676286
492 0 1 8.180770 -12.112242 8.969758
493 0 1 7.929499 -11.145241 8.872437
494 0 1 8.350219 -10.852341 9.752137
495 0 1 7.740351 -10.130791 9.938203
496 0 1 7.395461 -9.273092 10.068894
497 0 1 6.616580 -8.724651 9.875276
498 0 1 5.990408 -8.064482 9.970536
499 0 1 5.296542 -7.598233 10.324906
500 0 1 4.884181 -6.967473 9.725022
501 0 1 5.279669 -7.591082 9.152116
502 0 1 4.833449 -7.975762 8.388795
503 0 1 4.523860 -8.853092 7.995484
504 0 1 5.264540 -9.505241 7.942384
505 0 1 5.583590 -10.492842 7.956635
506 0 1 5.999259 -10.563643 7.059403
507 0 1 5.994830 -10.619843 6.102098
508 0 1 5.151118 -10.989243 5.901505
509 0 1 5.320338 -11.881342 5.592027
510 0 1 5.306170 -12.687342 5.159745
511 0 1 4.662329 -13.014742 5.802125
512 0 1 3.953791 -13.521542 6.233964
513 0 1 3.039731 -13.716042 6.067506
514 0 1 2.304017 -14.270641 6.078797
515 0 1 1.843760 -13.511242 5.675416
516 0 1 0.971869 -13.585041 6.058000
517 0 1 0.354470 -12.852642 5.809556
518 0 1 -0.528329 -12.524942 5.979188
519 0 1 -0.005260 -11.733341 6.083665
520 0 1 0.751450 -11.100042 6.101640
521 0 1 0.405921 -10.978642 6.966020
522 0 1 -0.220621 -10.328922 7.409089
523 0 1 -1.035430 -10.458372 6.844880
524 0 1 -1.779960 -10.850143 6.418641
525 0 1 -2.042341 -11.060942 5.542573
526 0 1 -2.716520 -10.408611 5.598603
527 0 1 -2.070640 -9.955732 4.949525
528 0 1 -1.844369 -9.075573 4.658616
529 0 1 -2.577960 -8.629232 4.224168
530 0 1 -2.983421 -9.487442 4.221528
531 0 1 -3.294511 -9.031942 5.019654
532 0 1 -3.429401 -9.146482 5.965775
533 0 1 -2.607101 -9.418432 6.495545
534 0 1 -1.986850 -9.136921 7.148255
535 0 1 -1.615280 -8.753632 8.066804
536 0 1 -0.933771 -8.104763 8.146852
537 0 1 -0.126029 -8.183033 7.610383
538 0 1 0.421540 -7.512864 7.175996
539 0 1 -0.267551 -6.963772 6.882844
540 0 1 -1.125631 -7.275982 7.223268
541 0 1 -1.846441 -6.909012 7.797364
542 0 1 -1.801681 -6.323452 7.034028
543 0 1 -2.726041 -6.557793 7.101228
544 0 1 -3.405731 -5.854693 7.164277
545 0 1 -3.523370 -6.450192 7.884583
546 0 1 -4.434370 -5.975983 7.804536
547 0 1 -5.018520 -5.532153 7.147157
548 0 1 -4.760339 -5.842642 6.237901
549 0 1 -3.793519 -5.760342 5.934114
550 0 1 -3.088840 -5.221543 5.549668
551 0 1 -3.924860 -5.150883 5.052430
552 0 1 -4.100801 -6.075161 4.899308
553 0 1 -4.704420 -6.734322 5.221101
554 0 1 -5.721879 -6.792843 5.048585
555 0 1 -5.218469 -6.753693 4.248246
556 0 1 -5.100629 -7.109963 3.338838
557 0 1 -5.554950 -7.594733 2.593995
558 0 1 -4.792970 -8.178862 2.874497
559 0 1 -4.951141 -8.615112 2.056855
560 0 1 -5.016401 -8.953672 1.152604
561 0 1 -5.166151 -9.288971 0.261460
562 0 1 -4.357830 -9.517792 -0.270370
563 0 1 -3.884250 -10.328583 0.101396
564 0 1 -4.123371 -10.967642 -0.562087
565 0 1 -5.023071 -11.176643 -0.541106
566 0 1 -5.728740 -11.720242 -0.162154
567 0 1 -6.491720 -12.014442 -0.744781
568 0 1 -6.920610 -12.398542 -1.533263
569 0 1 -7.849889 -12.425041 -1.214614
570 0 1 -8.193440 -12.688042 -2.065383
571 0 1 -7.584409 -12.050142 -2.491073
572 0 1 -6.960540 -11.650543 -3.063460
573 0 1 -6.293581 -10.992443 -3.313384
574 0 1 -5.511150 -10.448563 -3.207503
575 0 1 -5.282510 -9.718193 -3.810225
576 0 1 -5.867710 -10.318562 -4.287398
577 0 1 -4.968660 -10.354982 -4.738463
578 0 1 -4.351570 -10.962542 -4.214522
579 0 1 -3.461280 -10.597843 -4.147338
580 0 1 -3.547590 -10.008461 -4.875503
581 0 1 -4.041421 -9.325993 -5.428939
582 0 1 -4.955890 -9.033123 -5.494887
583 0 1 -4.901920 -8.042103 -5.491942
584 0 1 -4.093961 -7.855902 -6.019195
585 0 1 -4.506879 -7.139342 -6.515655
586 0 1 -5.466030 -6.812123 -6.641814
587 0 1 -5.234651 -6.552962 -5.714705
588 0 1 -5.582941 -5.754773 -6.187835
589 0 1 -6.571489 -5.687983 -6.360503
590 0 1 -6.441610 -6.107653 -7.175246
591 0 1 -6.539340 -5.186982 -7.415572
592 0 1 -7.383859 -5.033703 -6.987578
593 0 1 -7.835950 -5.659863 -7.675536
594 0 1 -7.846250 -6.177613 -8.504867
595 0 1 -7.838550 -6.045681 -9.425735
596 0 1 -7.289260 -5.210772 -9.568923
597 0 1 -6.489130 -5.803544 -9.724105
598 0 1 -5.623050 -5.358101 -9.722915
599 0 1 -6.054460 -4.685994 -9.127120
600 0 1 -5.790639 -3.831103 -8.758590
601 0 1 -4.842090 -4.258223 -8.985427
602 0 1 -4.537771 -3.362504 -9.049132
603 0 1 -3.771039 -3.008553 -8.578780
604 0 1 -3.519441 -3.880562 -8.482528
605 0 1 -2.845071 -3.486132 -9.103164
606 0 1 -2.714509 -2.511942 -9.073501
607 0 1 -2.896371 -1.892212 -9.821502
608 0 1 -3.595840 -1.956032 -9.216521
609 0 1 -3.458351 -0.975441 -9.305739
610 0 1 -2.918270 -0.446162 -9.979125
611 0 1 -2.346349 -0.836277 -10.690505
612 0 1 -3.064390 -0.734776 -11.257796
613 0 1 -3.065420 0.184650 -11.502303
614 0 1 -2.972700 1.227737 -11.459701
615 0 1 -3.213880 2.088668 -11.001098
616 0 1 -3.453651 1.568176 -10.257506
617 0 1 -3.020650 2.349758 -9.907882
618 0 1 -2.901691 3.210376 -9.602324
619 0 1 -2.213651 3.790489 -10.065902
620 0 1 -2.506380 4.217979 -10.885100
621 0 1 -3.256719 4.763858 -11.190902
622 0 1 -3.527441 4.757659 -10.251403
623 0 1 -3.247980 5.418758 -9.668990
624 0 1 -3.780370 6.248256 -9.558959
625 0 1 -3.319881 6.968158 -9.119155
626 0 1 -2.776960 7.802459 -9.161880
627 0 1 -3.203210 8.391487 -8.439086
628 0 1 -3.984340 7.840736 -8.235717
629 0 1 -4.098560 8.711369 -7.982604
630 0 1 -4.143079 8.218170 -7.098784
631 0 1 -4.282800 7.302116 -6.879958
632 0 1 -3.665420 7.572929 -6.096496
633 0 1 -4.227041 8.252846 -5.854415
634 0 1 -4.114351 8.622467 -4.927093
635 0 1 -5.022760 8.839287 -4.982253
636 0 1 -5.883951 8.408138 -5.045730
637 0 1 -5.989221 7.488685 -4.734221
638 0 1 -6.913320 7.702617 -4.732848
639 0 1 -7.734590 7.377468 -4.318954
640 0 1 -8.189340 8.254448 -4.086394
641 0 1 -8.608739 8.852787 -4.714156
642 0 1 -7.844511 9.385738 -4.686446
643 0 1 -7.103712 8.863918 -4.419433
644 0 1 -6.607500 9.132858 -3.669936
645 0 1 -6.389699 10.025959 -3.904494
646 0 1 -6.834070 10.309559 -4.728896
647 0 1 -5.862100 10.215057 -4.870635
648 0 1 -5.788570 11.158356 -5.070891
649 0 1 -5.273931 11.916260 -4.941024
650 0 1 -4.762491 12.174858 -4.162047
651 0 1 -4.793321 12.006557 -3.191009
652 0 1 -5.070310 11.789158 -2.340285
653 0 1 -5.684440 11.123558 -2.117614
654 0 1 -5.893280 10.197857 -2.090346
655 0 1 -5.079690 10.118359 -2.588012
656 0 1 -5.408109 10.496460 -3.352920
657 0 1 -4.953760 10.835556 -4.202422
658 0 1 -4.850811 10.765259 -5.138549
659 0 1 -4.257680 10.745956 -5.904540
660 0 1 -4.559011 9.892857 -6.181014
661 0 1 -3.969289 10.358559 -6.860396
662 0 1 -3.908910 10.978958 -7.593993
663 0 1 -4.691940 11.253159 -8.044936
664 0 1 -4.943510 10.996258 -8.974700
665 0 1 -4.753540 10.060459 -8.741866
666 0 1 -5.307230 9.741959 -9.444625
667 0 1 -6.183759 9.889656 -9.786605
668 0 1 -6.221321 10.157257 -10.735991
669 0 1 -6.037641 10.894657 -11.427794
670 0 1 -5.646980 10.769958 -12.317199
671 0 1 -5.577690 11.358059 -13.087096
672 0 1 -5.106840 11.309658 -13.979903
673 0 1 -5.992422 11.568558 -14.357299
674 0 1 -5.433570 12.036659 -14.938994
675 0 1 -6.101781 12.407059 -15.524703
676 0 1 -5.685310 12.357056 -16.386795
677 0 1 -5.843721 12.215958 -17.357300
678 0 1 -6.045919 13.143356 -17.030197
679 0 1 -6.945570 13.100456 -17.324707
680 0 1 -7.091821 13.039158 -16.374298
681 0 1 -6.303300 13.532158 -15.990096
682 0 1 -6.835241 13.252258 -15.206893
683 0 1 -6.716779 14.249359 -15.116698
684 0 1 -6.103651 14.406059 -14.392898
685 0 1 -5.318380 14.316257 -13.933196
686 0 1 -4.682590 14.517357 -14.698501
687 0 1 -4.616109 15.415859 -14.328902
688 0 1 -4.214340 16.323559 -14.243606
689 0 1 -3.487020 16.841358 -14.574203
690 0 1 -3.703050 17.702759 -14.909499
691 0 1 -3.741571 17.809456 -13.917693
692 0 1 -3.123060 17.688255 -13.166793
693 0 1 -2.256410 17.424156 -13.584899
694 0 1 -1.745260 18.192657 -13.360900
695 0 1 -1.208730 17.524361 -13.803298
696 0 1 -0.851301 17.543556 -14.659698
697 0 1 -0.425100 18.326157 -15.089293
698 0 1 -0.914001 17.644157 -15.640502
699 0 1 -1.052370 17.399158 -16.592896
700 0 1 -0.144479 17.636459 -16.779099
701 0 1 0.312659 16.909157 -17.291397
702 0 1 0.925620 16.630157 -17.986694
703 0 1 0.358359 15.891960 -18.320007
704 0 1 -0.226579 15.589058 -18.966904
705 0 1 0.350480 14.932758 -19.310501
706 0 1 -0.440099 14.266060 -19.334900
707 0 1 -0.553670 13.244560 -19.220001
708 0 1 -1.464040 13.640659 -18.905792
709 0 1 -1.767370 13.735359 -19.865601
710 0 1 -1.862331 13.131458 -20.637604
711 0 1 -2.415880 13.326557 -21.349503
712 0 1 -1.844369 12.529057 -21.600906
713 0 1 -0.964530 12.780857 -21.271500
714 0 1 -0.047080 12.693359 -20.869293
715 0 1 0.764460 12.203056 -20.838104
716 0 1 1.158547 11.444759 -20.482300
717 0 1 1.034039 11.190159 -21.496506
718 0 1 1.246741 10.253357 -21.710205
719 0 1 1.693211 9.752159 -22.406601
720 0 1 1.527382 8.796440 -22.553101
721 0 1 0.589850 8.584728 -22.685501
722 0 1 0.067910 8.452820 -23.509201
723 0 1 0.548340 8.079777 -24.274506
724 0 1 0.547061 7.493728 -25.012497
725 0 1 0.668070 7.926227 -25.813293
726 0 1 1.289910 8.636856 -25.774292
727 0 1 2.136294 9.083176 -25.938507
728 0 1 1.669377 9.339378 -25.115204
729 0 1 1.469763 9.795658 -24.282303
730 0 1 2.270833 10.152058 -23.943100
731 0 1 2.029280 11.044857 -23.609406
732 0 1 2.542586 11.643658 -23.063202
733 0 1 2.456192 10.767456 -22.673599
734 0 1 3.242800 10.929657 -23.266998
735 0 1 4.062220 10.635059 -22.755203
736 0 1 4.350161 11.415157 -23.263504
737 0 1 4.357420 10.667358 -24.029694
738 0 1 3.633650 10.890957 -24.650803
739 0 1 3.709849 11.677059 -25.211700
740 0 1 4.435549 12.205460 -25.677994
741 0 1 5.359858 12.477058 -25.687195
742 0 1 5.842551 13.256058 -25.749695
743 0 1 6.710009 12.908157 -26.009995
744 0 1 7.277110 13.375759 -25.392502
745 0 1 7.785738 13.373558 -26.127594
746 0 1 7.246890 13.480259 -26.964401
747 0 1 8.145770 13.927956 -26.981903
748 0 1 8.027999 14.851757 -26.814896
749 0 1 7.826918 15.720261 -26.316406
750 0 1 7.665751 14.928360 -25.850098
751 0 1 6.972460 15.417259 -25.393097
752 0 1 6.600718 16.151657 -24.802704
753 0 1 7.064421 16.692360 -25.441299
754 0 1 7.926112 16.713860 -24.924500
755 0 1 7.998961 16.887260 -23.962006
756 0 1 8.397731 17.572456 -23.261597
757 0 1 7.943888 18.125458 -23.886200
758 0 1 8.930820 18.117355 -24.063507
759 0 1 9.493670 18.016159 -23.267197
760 0 1 9.966109 17.614258 -22.552094
761 0 1 9.644641 18.248360 -21.869507
762 0 1 9.252711 18.943756 -21.336700
763 0 1 10.119681 18.996559 -20.989899
764 0 1 10.184630 20.055859 -20.852203
765 0 1 10.997951 20.648560 -20.893906
766 0 1 11.376800 19.869759 -20.498398
767 0 1 10.921149 19.224655 -20.004898
768 0 1 11.118720 18.438156 -19.469101
769 0 1 10.853602 18.056557 -20.303406
770 0 1 11.233668 18.686356 -20.997406
771 0 1 11.835860 18.575459 -21.687698
772 0 1 12.205058 18.114357 -22.459198
773 0 1 11.828269 17.318657 -22.101501
774 0 1 12.676860 16.867157 -22.165192
775 0 1 13.346461 16.164360 -22.488205
776 0 1 12.972659 16.635956 -23.228104
777 0 1 12.399760 15.975555 -22.801804
778 0 1 12.900661 15.148159 -22.999802
779 0 1 12.531062 14.788460 -23.861298
780 0 1 12.031329 14.073059 -24.226807
781 0 1 11.618651 13.871658 -23.336395
782 0 1 12.214259 13.603359 -22.665894
783 0 1 11.833201 13.454559 -21.774902
784 0 1 11.548591 12.548660 -21.891296
785 0 1 11.712100 11.842056 -21.290100
786 0 1 12.368258 11.156658 -21.606995