LAMMPS data file via MDAnalysis

        2000  atoms
        1999  bonds
           0  angles
           0  dihedrals
           0  impropers

           1  atom types
           1  bond types
           0  angle types
           0  dihedral types
           0  improper types

-30.5 30.5 xlo xhi
-30.5 30.5 ylo yhi
-233.5 233.5 zlo zhi


Masses

1 1.000000

Atoms

1 0 1 -12.505607 -11.947957 37.314209
2 0 1 -11.784606 -11.597957 36.704803
3 0 1 -11.188308 -10.856055 36.406616
4 0 1 -12.029208 -11.005157 35.878906
5 0 1 -12.700107 -10.474856 35.504089
6 0 1 -12.620807 -10.554156 34.525787
7 0 1 -12.029107 -9.890555 34.827301
8 0 1 -11.523707 -9.131257 34.634613
9 0 1 -10.912807 -9.461656 35.227295
10 0 1 -10.049006 -9.568456 35.651794
11 0 1 -9.440207 -8.812455 35.586304
12 0 1 -9.166808 -7.896256 35.601593
13 0 1 -8.461507 -7.614556 34.994812
14 0 1 -7.579696 -7.796055 34.665100
15 0 1 -7.728156 -6.906655 34.394714
16 0 1 -7.053336 -6.384256 33.787506
17 0 1 -6.189057 -6.289055 33.366516
18 0 1 -6.645827 -6.397656 32.524811
19 0 1 -7.079637 -5.556555 32.317688
20 0 1 -7.673017 -5.076954 31.811890
21 0 1 -7.478026 -5.088456 30.858307
22 0 1 -7.990937 -5.695156 30.280701
23 0 1 -8.750506 -6.024756 29.837585
24 0 1 -9.206508 -5.749356 30.627014
25 0 1 -8.718007 -6.221456 31.265503
26 0 1 -9.573806 -6.630455 31.076996
27 0 1 -10.400907 -5.998156 30.875214
28 0 1 -11.199306 -6.232855 30.347900
29 0 1 -11.689406 -6.521956 29.547394
30 0 1 -12.578906 -6.595756 29.907715
31 0 1 -13.438907 -6.873856 29.844910
32 0 1 -13.254107 -7.299355 30.738586
33 0 1 -13.236607 -8.007855 30.075195
34 0 1 -14.037007 -7.849856 29.482391
35 0 1 -14.450107 -7.118155 29.076416
36 0 1 -14.488406 -6.812056 28.110413
37 0 1 -13.664707 -6.325156 27.957886
38 0 1 -14.407308 -5.631755 28.061188
39 0 1 -13.731407 -5.604955 28.812897
40 0 1 -14.631606 -5.728555 29.157104
41 0 1 -14.960307 -6.317855 29.864014
42 0 1 -15.858506 -6.117856 29.769989
43 0 1 -16.374306 -5.368656 29.957092
44 0 1 -17.158508 -5.681256 29.463898
45 0 1 -17.100006 -6.371155 30.194000
46 0 1 -17.271809 -6.906256 30.912506
47 0 1 -16.784706 -7.312655 31.625610
48 0 1 -16.956005 -7.747956 32.489899
49 0 1 -16.465008 -6.984255 32.603790
50 0 1 -16.627907 -6.324556 31.928009
51 0 1 -17.215206 -5.813756 32.552002
52 0 1 -16.853706 -5.538455 33.395599
53 0 1 -17.255806 -6.349455 33.765991
54 0 1 -18.158009 -6.135456 33.414185
55 0 1 -18.282307 -6.223155 32.460510
56 0 1 -18.062706 -6.893055 31.857788
57 0 1 -18.609406 -6.952555 31.096191
58 0 1 -18.503006 -6.044256 30.917603
59 0 1 -18.867008 -5.198555 31.140686
60 0 1 -19.219505 -4.924157 30.273315
61 0 1 -19.407608 -5.861556 30.198090
62 0 1 -19.213406 -6.869755 30.034790
63 0 1 -18.731308 -7.063456 29.191895
64 0 1 -18.559708 -7.664956 28.503906
65 0 1 -18.047108 -7.941855 27.691406
66 0 1 -18.515507 -7.992655 26.872314
67 0 1 -17.827206 -7.581357 26.349213
68 0 1 -18.124409 -7.711655 25.389404
69 0 1 -17.988907 -7.770455 24.401001
70 0 1 -18.104908 -8.047357 23.556000
71 0 1 -18.109905 -7.061755 23.614014
72 0 1 -18.299706 -6.337256 23.072693
73 0 1 -17.885105 -5.644255 22.513702
74 0 1 -17.640606 -6.528256 22.163605
75 0 1 -17.003708 -6.562356 21.381699
76 0 1 -17.188408 -7.061656 20.577103
77 0 1 -16.388508 -7.540455 20.204102
78 0 1 -15.617908 -8.120055 20.190506
79 0 1 -14.836806 -8.538156 20.312805
80 0 1 -14.602607 -9.427556 20.485397
81 0 1 -15.206006 -9.365155 19.690704
82 0 1 -15.126307 -10.390956 19.635803
83 0 1 -14.718507 -9.897857 18.975204
84 0 1 -13.889107 -9.501756 19.101105
85 0 1 -13.888906 -9.367356 18.152206
86 0 1 -12.907707 -9.200156 18.205002
87 0 1 -12.471507 -9.479856 17.475906
88 0 1 -11.732207 -9.846255 17.017700
89 0 1 -11.657407 -10.336957 17.944595
90 0 1 -12.239507 -10.753556 17.308304
91 0 1 -12.733207 -11.067056 16.479401
92 0 1 -13.653207 -10.687957 16.264206
93 0 1 -13.754307 -11.081256 15.448898
94 0 1 -14.583907 -11.475356 15.329193
95 0 1 -14.166007 -12.207856 15.759003
96 0 1 -13.828607 -12.601056 16.588898
97 0 1 -14.493306 -12.392356 17.203400
98 0 1 -14.078107 -12.967956 17.785202
99 0 1 -13.824207 -12.306256 18.480606
100 0 1 -14.653907 -12.672956 18.869705
101 0 1 -14.905606 -13.426856 18.359894
102 0 1 -14.264307 -14.156655 18.097107
103 0 1 -13.527407 -14.490756 18.648804
104 0 1 -12.644706 -14.704156 18.259308
105 0 1 -11.699407 -14.726657 18.181503
106 0 1 -10.813708 -15.100057 18.264893
107 0 1 -10.464707 -15.002255 17.323792
108 0 1 -11.213107 -14.487857 17.010803
109 0 1 -11.158807 -13.550456 17.263504
110 0 1 -10.841407 -13.095056 16.519104
111 0 1 -10.612407 -12.367856 17.030792
112 0 1 -9.745507 -12.208856 17.372299
113 0 1 -9.209407 -12.662856 17.983795
114 0 1 -8.760406 -13.445457 18.377701
115 0 1 -8.486606 -14.268657 18.817505
116 0 1 -7.558726 -14.447057 19.046692
117 0 1 -7.936887 -14.395057 19.921494
118 0 1 -7.496957 -13.527356 20.031296
119 0 1 -7.525237 -13.609456 20.934097
120 0 1 -7.662417 -14.001355 21.807098
121 0 1 -7.140397 -14.682857 22.313004
122 0 1 -6.206496 -14.934556 22.195404
123 0 1 -6.132337 -14.485356 23.093292
124 0 1 -5.650968 -15.121757 23.713287
125 0 1 -5.375648 -14.238656 24.026398
126 0 1 -4.413337 -14.253257 23.893188
127 0 1 -4.205317 -15.192256 24.244995
128 0 1 -4.656377 -16.033455 24.053497
129 0 1 -4.637046 -16.048956 25.039307
130 0 1 -4.813796 -16.723354 25.708496
131 0 1 -3.933326 -17.024155 25.893616
132 0 1 -3.906886 -17.738455 25.262207
133 0 1 -3.498748 -18.566154 25.244598
134 0 1 -3.242356 -18.211956 24.390900
135 0 1 -2.444837 -18.489655 24.841400
136 0 1 -1.795497 -17.826155 24.877014
137 0 1 -1.983817 -17.477755 25.718292
138 0 1 -1.875587 -16.554255 25.674896
139 0 1 -1.631078 -16.630655 24.736206
140 0 1 -1.827178 -16.137655 23.958984
141 0 1 -1.475997 -15.323256 24.272797
142 0 1 -0.783458 -14.750155 24.587402
143 0 1 0.142323 -14.627755 24.845795
144 0 1 0.566773 -14.697757 24.036194
145 0 1 -0.102977 -14.783256 23.329285
146 0 1 -0.973586 -14.518956 23.461395
147 0 1 -1.295768 -14.285457 22.583801
148 0 1 -2.142726 -14.617057 22.294907
149 0 1 -3.054458 -14.743756 22.410095
150 0 1 -3.457307 -13.908656 22.028000
151 0 1 -3.203588 -13.036357 22.382004
152 0 1 -3.736106 -12.891156 21.607300
153 0 1 -3.881686 -12.402957 20.843201
154 0 1 -4.104346 -11.652757 20.332199
155 0 1 -4.762076 -11.157657 20.912796
156 0 1 -4.647388 -10.276156 21.316605
157 0 1 -3.802028 -9.948356 21.084900
158 0 1 -2.907256 -10.157157 20.906296
159 0 1 -1.945956 -10.222556 21.112305
160 0 1 -2.157157 -9.288856 21.054993
161 0 1 -2.156377 -8.712457 20.267105
162 0 1 -1.715617 -8.525355 19.371994
163 0 1 -0.724298 -8.479257 19.402100
164 0 1 -0.753737 -8.658456 20.418198
165 0 1 -0.878146 -7.654755 20.591797
166 0 1 -0.459567 -7.195355 21.287399
167 0 1 0.374993 -7.308655 21.771194
168 0 1 0.449582 -6.946055 22.647095
169 0 1 1.188085 -7.539456 22.666901
170 0 1 1.659806 -8.311456 22.276794
171 0 1 2.218694 -7.756155 22.833588
172 0 1 2.735263 -8.129756 23.513214
173 0 1 3.678742 -7.916455 23.398987
174 0 1 4.512872 -7.761555 22.950409
175 0 1 5.487512 -7.613556 22.957214
176 0 1 6.061452 -8.356357 23.142487
177 0 1 6.967023 -8.405856 23.358795
178 0 1 6.906651 -7.507456 23.645203
179 0 1 7.419164 -7.421755 24.451202
180 0 1 7.956853 -7.457057 25.218811
181 0 1 8.636014 -6.901055 25.472412
182 0 1 8.653703 -7.319956 26.284912
183 0 1 9.419492 -7.548956 26.780212
184 0 1 8.864522 -6.773757 27.181610
185 0 1 8.638844 -7.207955 28.010498
186 0 1 8.502622 -7.241656 29.013611
187 0 1 7.550683 -7.234356 28.787689
188 0 1 6.831082 -6.888556 28.258087
189 0 1 7.207093 -5.966856 28.308990
190 0 1 6.856645 -6.294555 29.136200
191 0 1 5.945653 -6.488455 28.987488
192 0 1 5.033845 -6.286255 28.676514
193 0 1 4.094632 -6.534755 28.760498
194 0 1 3.530663 -6.392456 29.510895
195 0 1 3.668294 -5.566756 29.899902
196 0 1 3.159574 -5.444556 30.715210
197 0 1 3.449021 -6.005756 31.434814
198 0 1 2.567407 -6.243455 31.868286
199 0 1 2.471990 -7.001256 31.274292
200 0 1 1.627940 -7.040856 31.649200
201 0 1 0.827977 -6.876656 31.125916
202 0 1 1.412936 -6.251656 30.658112
203 0 1 1.478490 -5.284256 30.826813
204 0 1 1.504243 -5.216356 31.788696
205 0 1 1.638906 -5.505255 32.649414
206 0 1 1.763143 -5.345955 33.594299
207 0 1 1.101764 -4.573355 33.825684
208 0 1 0.433904 -4.527356 33.107117
209 0 1 -0.454726 -4.929757 33.023590
210 0 1 -1.373937 -4.778355 33.392883
211 0 1 -1.952626 -5.459755 33.724915
212 0 1 -2.545377 -6.101555 33.442810
213 0 1 -1.731257 -6.434556 33.659790
214 0 1 -1.746356 -6.163156 34.587708
215 0 1 -1.909556 -7.096255 34.560486
216 0 1 -2.454257 -7.685055 35.036194
217 0 1 -1.994058 -7.163456 35.654297
218 0 1 -2.316947 -6.273056 35.520508
219 0 1 -2.479648 -5.324755 35.649506
220 0 1 -2.390656 -5.714856 36.540009
221 0 1 -2.314286 -5.349656 37.492004
222 0 1 -2.369098 -4.329155 37.285095
223 0 1 -3.224948 -4.510855 37.612488
224 0 1 -4.034106 -4.031756 37.461090
225 0 1 -4.747348 -3.324955 37.450806
226 0 1 -4.977447 -4.014756 38.053406
227 0 1 -4.322766 -4.595656 38.429901
228 0 1 -4.070086 -5.502756 38.482117
229 0 1 -3.399247 -6.190256 38.702301
230 0 1 -2.816777 -7.035756 38.751495
231 0 1 -3.546527 -7.135756 39.390503
232 0 1 -3.788577 -7.025555 40.336304
233 0 1 -3.871608 -7.317656 41.256195
234 0 1 -3.562337 -7.087355 42.210297
235 0 1 -3.332047 -6.357155 41.613098
236 0 1 -2.432467 -5.893055 41.779388
237 0 1 -1.938558 -5.220955 42.291290
238 0 1 -2.300736 -5.220656 43.193390
239 0 1 -2.373767 -4.453656 43.753510
240 0 1 -1.455586 -4.312356 44.091095
241 0 1 -1.137378 -3.713856 43.409698
242 0 1 -0.758006 -4.050255 42.542786
243 0 1 -0.694077 -3.303856 41.929199
244 0 1 -1.057927 -2.963255 42.785706
245 0 1 -1.123958 -1.983056 42.717804
246 0 1 -0.568828 -2.262255 43.484894
247 0 1 0.300193 -2.559756 43.157104
248 0 1 0.945998 -2.935055 42.585907
249 0 1 0.991076 -3.669056 41.921204
250 0 1 1.245618 -3.208556 41.135010
251 0 1 1.462508 -3.999556 40.556396
252 0 1 2.272985 -4.376456 40.162598
253 0 1 3.178853 -4.391556 39.850494
254 0 1 3.466985 -3.698555 40.595093
255 0 1 4.164632 -3.766255 41.185089
256 0 1 4.022813 -4.698256 41.487488
257 0 1 4.868703 -4.756155 40.991516
258 0 1 5.422883 -5.439456 41.334503
259 0 1 4.883473 -5.772456 42.000397
260 0 1 4.220223 -6.549455 42.043213
261 0 1 4.754113 -7.300755 42.557983
262 0 1 3.840005 -7.471156 42.389404
263 0 1 3.559243 -8.360456 42.107605
264 0 1 3.298062 -8.671556 41.219788
265 0 1 4.251172 -8.796956 41.108398
266 0 1 3.961331 -8.447957 40.238098
267 0 1 3.339292 -9.185355 40.089111
268 0 1 2.618018 -8.983056 39.552887
269 0 1 1.755549 -8.541757 39.699799
270 0 1 1.724669 -7.926556 40.452789
271 0 1 0.921016 -7.429856 40.125702
272 0 1 1.183249 -6.569155 40.652100
273 0 1 0.811637 -5.966256 40.062500
274 0 1 1.473781 -6.302455 39.440186
275 0 1 1.492274 -5.906556 38.610291
276 0 1 2.369473 -6.253855 38.430389
277 0 1 3.205914 -6.216856 37.936401
278 0 1 2.478669 -6.257656 37.367615
279 0 1 2.629493 -6.131356 36.391296
280 0 1 2.071614 -6.015556 35.643188
281 0 1 1.905793 -5.109856 35.533905
282 0 1 1.628306 -4.272255 35.748291
283 0 1 2.338632 -3.982956 36.309509
284 0 1 1.543351 -3.942656 36.787415
285 0 1 1.097764 -3.051856 36.825287
286 0 1 1.577065 -2.249556 37.101685
287 0 1 2.184367 -1.687155 37.621002
288 0 1 2.140878 -0.837956 38.125793
289 0 1 2.140653 -0.914956 39.091705
290 0 1 3.047563 -0.533597 39.303009
291 0 1 3.435132 -1.321557 38.838593
292 0 1 3.813394 -1.190457 37.959290
293 0 1 4.566575 -0.764056 37.587311
294 0 1 5.238912 -1.484757 37.408112
295 0 1 5.158734 -1.622357 38.310089
296 0 1 5.906762 -1.595154 38.924011
297 0 1 5.819825 -0.657906 38.841400
298 0 1 6.445443 -0.437966 39.522308
299 0 1 6.724484 0.327114 39.051788
300 0 1 7.264783 0.936204 38.404602
301 0 1 8.187783 1.131614 38.788910
302 0 1 8.389741 1.950214 39.288788
303 0 1 7.400495 1.860074 39.407196
304 0 1 7.460233 2.801094 39.637695
305 0 1 7.614594 3.737764 39.852112
306 0 1 7.608514 4.196495 39.031799
307 0 1 7.518483 3.846004 38.098602
308 0 1 8.504884 3.978654 37.996002
309 0 1 9.214864 3.925575 38.730499
310 0 1 9.325273 4.810825 38.476105
311 0 1 9.500642 5.687685 38.492798
312 0 1 9.584855 5.562065 39.466400
313 0 1 9.895333 6.525955 39.388397
314 0 1 10.206582 6.242254 40.232391
315 0 1 10.432714 6.067604 41.166687
316 0 1 9.770692 6.644884 41.704010
317 0 1 9.671044 7.124464 40.909790
318 0 1 10.516774 7.531715 41.248810
319 0 1 11.354943 8.121743 41.219696
320 0 1 11.215852 8.916524 41.719513
321 0 1 10.471101 9.501090 41.939911
322 0 1 10.880792 10.281009 41.599396
323 0 1 10.178254 10.928035 41.365112
324 0 1 9.915593 10.259917 40.795288
325 0 1 10.729943 10.186908 40.430389
326 0 1 10.197442 9.896806 39.654785
327 0 1 9.597184 9.827052 38.956207
328 0 1 9.572682 10.751433 39.261505
329 0 1 9.030942 10.870654 38.463898
330 0 1 8.343602 10.783065 39.148102
331 0 1 8.427712 11.377063 39.903015
332 0 1 8.279122 12.222854 39.530701
333 0 1 8.523152 12.921004 40.157898
334 0 1 9.409043 13.168273 39.869904
335 0 1 9.717084 12.241595 39.683411
336 0 1 10.244123 12.670455 38.991394
337 0 1 10.885102 12.943084 38.338501
338 0 1 10.154843 12.453586 37.977203
339 0 1 9.529115 13.148086 37.670807
340 0 1 9.014215 13.474143 38.364197
341 0 1 8.288972 14.100703 38.453400
342 0 1 7.683362 14.524253 37.802399
343 0 1 7.770902 15.431273 38.081909
344 0 1 6.815194 15.354003 37.829498
345 0 1 6.561364 14.622516 38.437683
346 0 1 5.814744 14.018405 38.534607
347 0 1 5.252633 14.401874 39.229614
348 0 1 4.727532 15.076415 39.690094
349 0 1 3.851022 15.293254 40.093689
350 0 1 3.324494 14.675784 40.609894
351 0 1 2.445893 15.151954 40.593903
352 0 1 1.513286 15.489753 40.820404
353 0 1 0.782544 14.854095 41.082703
354 0 1 0.053723 14.271773 40.992401
355 0 1 -0.582797 14.575564 41.656616
356 0 1 -1.567267 14.463336 41.856384
357 0 1 -1.638618 15.296226 41.391205
358 0 1 -1.674787 15.544234 42.280609
359 0 1 -1.231637 14.883033 42.837708
360 0 1 -0.702426 14.128943 43.141693
361 0 1 -0.093457 13.749335 42.516785
362 0 1 0.236724 13.122733 41.877289
363 0 1 1.177962 13.009006 41.751007
364 0 1 2.078542 13.351783 41.658386
365 0 1 2.730884 14.037692 41.376404
366 0 1 3.483762 13.402522 41.408386
367 0 1 3.684773 12.446784 41.228088
368 0 1 3.771691 12.660094 42.178497
369 0 1 4.220895 12.637485 42.997314
370 0 1 4.143872 12.713122 44.007996
371 0 1 4.367265 13.618865 43.847290
372 0 1 4.220834 14.480865 43.457794
373 0 1 3.802663 15.080863 44.067902
374 0 1 3.114823 15.767795 44.130798
375 0 1 3.678445 16.527233 44.093506
376 0 1 3.000764 17.250046 43.873901
377 0 1 2.924422 17.346622 44.818604
378 0 1 2.303102 17.969967 45.147095
379 0 1 1.578311 18.423893 45.594910
380 0 1 2.320254 18.979706 45.894196
381 0 1 1.550590 19.555546 46.186401
382 0 1 1.704331 20.409645 46.601898
383 0 1 1.045438 20.341343 47.200592
384 0 1 0.537442 19.698044 46.716095
385 0 1 0.128533 19.026943 46.161896
386 0 1 -0.738036 19.465946 46.297211
387 0 1 -1.269937 18.751904 45.941193
388 0 1 -0.929076 18.404156 45.132202
389 0 1 -1.741706 18.560493 44.622406
390 0 1 -1.496367 19.494946 44.275604
391 0 1 -1.404017 20.408443 43.956207
392 0 1 -1.683057 20.754345 44.882996
393 0 1 -2.233567 21.534744 44.667511
394 0 1 -1.809146 22.340645 45.023315
395 0 1 -1.467357 21.851147 45.834717
396 0 1 -1.260726 21.776344 46.764404
397 0 1 -1.640746 22.184044 47.578094
398 0 1 -1.353288 23.023746 47.277313
399 0 1 -1.099927 23.449345 46.439209
400 0 1 -1.513207 24.339844 46.299011
401 0 1 -2.426116 24.492645 45.994690
402 0 1 -3.049697 25.248547 45.830505
403 0 1 -2.351277 25.441746 46.434509
404 0 1 -2.261416 24.841644 47.195496
405 0 1 -2.811267 24.016644 47.207703
406 0 1 -3.379537 23.287544 47.382599
407 0 1 -3.874267 22.853146 46.657806
408 0 1 -3.193446 22.289043 46.266602
409 0 1 -3.313897 21.828045 47.108612
410 0 1 -2.795596 22.293045 47.766205
411 0 1 -2.647246 21.375546 48.146606
412 0 1 -2.880008 22.115444 48.795990
413 0 1 -3.435086 22.674946 49.277802
414 0 1 -3.649777 21.754745 49.415588
415 0 1 -4.359378 21.608646 50.046295
416 0 1 -4.737178 20.727943 49.906311
417 0 1 -4.522798 19.817547 49.863190
418 0 1 -4.698037 19.451744 49.002991
419 0 1 -3.707606 19.683346 49.105591
420 0 1 -3.258376 19.156673 49.748291
421 0 1 -3.540017 19.078114 50.669983
422 0 1 -4.434577 19.241436 51.000793
423 0 1 -4.970107 19.999447 50.967804
424 0 1 -4.346667 20.417946 51.536896
425 0 1 -4.626987 20.438145 52.512299
426 0 1 -4.127297 21.140244 52.189911
427 0 1 -4.994767 21.390045 52.098511
428 0 1 -5.039027 22.213245 52.569000
429 0 1 -5.738078 22.251244 53.224792
430 0 1 -6.112407 23.094944 53.695404
431 0 1 -5.358117 23.733345 53.937500
432 0 1 -5.059207 24.617344 53.877014
433 0 1 -5.379687 25.353046 53.298309
434 0 1 -4.879786 25.069344 52.562012
435 0 1 -5.286536 24.089645 52.504791
436 0 1 -5.441337 23.210346 52.764801
437 0 1 -6.376227 23.257244 52.429016
438 0 1 -6.243007 23.426544 51.424194
439 0 1 -6.392558 24.326344 51.650513
440 0 1 -5.424888 24.436745 51.380005
441 0 1 -5.463626 23.700844 50.768097
442 0 1 -4.799006 23.399246 50.160095
443 0 1 -5.318936 23.830246 49.468292
444 0 1 -5.350377 24.735943 49.117889
445 0 1 -4.669597 25.156044 49.705017
446 0 1 -4.234557 25.993145 49.625702
447 0 1 -4.339337 26.867443 50.005402
448 0 1 -3.536868 26.878445 50.521698
449 0 1 -2.985757 26.062744 50.334595
450 0 1 -2.529817 26.358547 49.528687
451 0 1 -2.362697 27.351246 49.592987
452 0 1 -1.908338 27.002247 48.854187
453 0 1 -0.931706 27.104645 49.339508
454 0 1 -0.947856 26.316143 48.850494
455 0 1 -0.614627 25.729847 49.505493
456 0 1 -1.006118 25.612743 50.405792
457 0 1 -0.846038 26.547543 50.574799
458 0 1 0.094533 26.315647 50.535400
459 0 1 -0.004947 26.177345 51.515106
460 0 1 -0.203776 25.887844 52.389587
461 0 1 0.605952 25.737247 52.871887
462 0 1 1.401097 25.736042 52.365692
463 0 1 1.483687 24.902344 51.706787
464 0 1 1.868934 24.413944 52.478607
465 0 1 2.797072 24.501945 52.324005
466 0 1 3.541184 24.339245 52.928589
467 0 1 3.404592 23.377045 53.278809
468 0 1 3.317945 23.011745 54.183411
469 0 1 3.518853 22.915646 55.152100
470 0 1 3.787133 22.009644 54.770294
471 0 1 3.718255 21.144344 54.385315
472 0 1 3.431813 20.437645 53.792206
473 0 1 3.703294 19.713745 54.432709
474 0 1 3.610795 19.480045 55.380890
475 0 1 3.817513 18.703396 55.874084
476 0 1 3.854173 17.739895 55.779694
477 0 1 3.155892 17.869125 55.171387
478 0 1 3.548154 16.977886 55.099701
479 0 1 2.970994 16.234837 55.334412
480 0 1 3.069364 15.520095 55.990112
481 0 1 3.857842 15.417064 56.476196
482 0 1 3.807023 14.939795 57.240906
483 0 1 4.029214 14.750712 58.127686
484 0 1 3.418283 14.984515 58.800415
485 0 1 2.576207 14.811645 59.214203
486 0 1 2.590037 15.269862 60.087891
487 0 1 2.840024 15.041835 61.054993
488 0 1 1.961783 14.663825 61.503998
489 0 1 1.619979 13.797336 61.349091
490 0 1 0.962684 13.214496 61.015411
491 0 1 1.772174 13.276683 60.521484
492 0 1 2.592954 12.861114 60.662903
493 0 1 2.298900 13.067115 61.568512
494 0 1 1.873841 12.200164 61.608704
495 0 1 1.177356 12.180945 62.250092
496 0 1 0.819947 11.463435 62.765198
497 0 1 -0.023618 11.607326 62.418091
498 0 1 -0.434108 12.050853 63.135315
499 0 1 -0.725818 12.656863 62.491608
500 0 1 -0.753938 13.344832 63.158997
501 0 1 -0.852157 14.252303 63.293610
502 0 1 -0.409097 14.634154 64.097290
503 0 1 0.092883 14.007213 64.695709
504 0 1 0.264962 13.959273 65.617889
505 0 1 1.122380 13.769786 66.037903
506 0 1 1.885150 14.218623 66.552185
507 0 1 2.804902 14.499446 66.560608
508 0 1 3.099032 13.702243 66.890594
509 0 1 3.524415 12.843616 66.757690
510 0 1 4.082662 12.938025 67.519104
511 0 1 4.690293 12.844214 66.856689
512 0 1 5.297265 12.376224 67.401489
513 0 1 5.107392 13.007865 68.080597
514 0 1 4.611142 13.037444 68.963013
515 0 1 5.345101 12.639365 69.432709
516 0 1 6.038602 12.540523 68.703613
517 0 1 6.426202 11.665183 68.602295
518 0 1 7.134301 11.013854 68.524994
519 0 1 6.810502 10.210166 68.988708
520 0 1 6.799642 10.388953 69.933990
521 0 1 5.907464 10.330695 70.123596
522 0 1 5.845784 10.353145 69.103210
523 0 1 5.147393 9.801955 68.667694
524 0 1 5.522645 9.076758 68.207489
525 0 1 5.403623 8.395570 67.553589
526 0 1 5.539422 7.658535 68.118408
527 0 1 5.361875 6.787303 68.321594
528 0 1 5.254392 6.282335 69.170288
529 0 1 4.363374 6.365844 68.762390
530 0 1 4.405072 5.598714 69.275208
531 0 1 3.811162 5.619785 68.456604
532 0 1 4.142903 4.649715 68.426392
533 0 1 4.644433 3.941095 68.103607
534 0 1 5.377912 3.810184 67.520386
535 0 1 5.746484 3.870883 66.642090
536 0 1 5.330834 4.507364 66.042694
537 0 1 5.166043 3.731315 65.579285
538 0 1 4.672894 3.121685 65.049805
539 0 1 5.054582 2.395984 64.538086
540 0 1 5.525205 2.651575 63.766907
541 0 1 6.152864 2.245285 64.316895
542 0 1 6.791673 1.743865 63.839508
543 0 1 7.017793 1.400573 63.041016
544 0 1 7.045194 0.384664 63.095093
545 0 1 6.150903 -0.171055 63.233612
546 0 1 5.969384 -0.345496 62.278107
547 0 1 6.176835 -1.276156 62.358002
548 0 1 6.435792 -1.505356 61.481293
549 0 1 5.518193 -1.737557 61.672913
550 0 1 5.900704 -2.292355 62.347900
551 0 1 5.462804 -1.996756 63.205902
552 0 1 5.813691 -1.256756 63.797791
553 0 1 6.413434 -2.041155 63.833405
554 0 1 6.117242 -2.591256 64.615601
555 0 1 6.673425 -1.968754 65.102295
556 0 1 6.335004 -2.635756 65.608490
557 0 1 5.766244 -2.414856 66.356110
558 0 1 6.004815 -1.578755 66.671906
559 0 1 6.769254 -2.009057 66.226898
560 0 1 7.692132 -2.369755 66.540100
561 0 1 8.069634 -2.975956 65.854401
562 0 1 8.509332 -3.690754 66.261292
563 0 1 8.306561 -4.315356 66.962006
564 0 1 7.389222 -4.344056 67.134583
565 0 1 6.782014 -4.973855 67.553802
566 0 1 6.257874 -4.478756 68.224396
567 0 1 7.024732 -4.844555 68.618500
568 0 1 6.176862 -5.273456 68.779602
569 0 1 6.552384 -6.221756 68.720001
570 0 1 7.495893 -6.363555 68.754089
571 0 1 7.722135 -5.724355 67.990509
572 0 1 7.962842 -5.396656 67.095215
573 0 1 8.378453 -5.257156 66.239594
574 0 1 9.122693 -5.664956 65.762390
575 0 1 8.667253 -5.403356 64.926086
576 0 1 8.892243 -5.867156 64.038818
577 0 1 8.582925 -5.087655 63.537201
578 0 1 8.733823 -5.320055 62.572388
579 0 1 8.412145 -4.910956 61.790405
580 0 1 7.651261 -5.214655 61.300690
581 0 1 7.628121 -6.114855 61.544495
582 0 1 6.717874 -6.258255 61.170105
583 0 1 6.354154 -5.902456 60.273499
584 0 1 5.989572 -5.941455 59.368896
585 0 1 5.278592 -6.485956 59.620300
586 0 1 5.079312 -6.664156 60.488098
587 0 1 4.610234 -7.455657 60.061401
588 0 1 3.912702 -7.384955 59.350891
589 0 1 3.797414 -6.998156 58.436188
590 0 1 4.230603 -7.176056 57.641602
591 0 1 3.691823 -6.493455 57.378906
592 0 1 3.815042 -5.913355 56.633301
593 0 1 4.523114 -5.903856 55.975586
594 0 1 5.222611 -6.215255 56.598083
595 0 1 5.124043 -5.267056 56.749695
596 0 1 4.646745 -4.538857 57.038910
597 0 1 3.983285 -4.788956 57.703491
598 0 1 3.309754 -4.041054 57.863190
599 0 1 3.286893 -3.100457 57.789703
600 0 1 2.528508 -3.495255 58.216095
601 0 1 2.445531 -3.254256 59.111084
602 0 1 1.836337 -3.584755 59.784698
603 0 1 1.021859 -3.197655 59.396698
604 0 1 0.433763 -2.408055 59.393311
605 0 1 -0.276927 -2.294156 60.084106
606 0 1 -0.001496 -1.610856 60.791290
607 0 1 0.100333 -0.972556 61.496307
608 0 1 1.058957 -0.922955 61.457703
609 0 1 1.680974 -0.399205 61.966797
610 0 1 1.192166 -0.753155 62.741516
611 0 1 0.595754 -0.500315 63.376587
612 0 1 0.673894 -0.782654 64.297485
613 0 1 0.125903 -1.576556 64.181305
614 0 1 -0.156947 -2.427256 64.458099
615 0 1 -0.652057 -2.952256 63.730713
616 0 1 -0.836547 -3.887856 63.921204
617 0 1 -0.301267 -4.407456 63.324493
618 0 1 0.589704 -4.768155 63.457092
619 0 1 0.192662 -4.962155 62.575897
620 0 1 0.708869 -5.828955 62.635406
621 0 1 1.356097 -5.582455 63.375397
622 0 1 1.466004 -6.531955 63.152893
623 0 1 1.625716 -6.242356 62.242889
624 0 1 2.219171 -6.910155 61.936005
625 0 1 2.216628 -7.886857 61.851196
626 0 1 1.975446 -8.487056 61.141693
627 0 1 2.535970 -8.973556 60.458313
628 0 1 2.265588 -9.062455 59.502411
629 0 1 2.197619 -8.962756 58.565186
630 0 1 1.680221 -9.599055 58.112793
631 0 1 1.244933 -8.800857 57.701813
632 0 1 0.904860 -8.278855 56.892700
633 0 1 0.753072 -7.306756 56.585907
634 0 1 -0.153777 -7.078356 56.918213
635 0 1 0.278604 -6.452555 57.473999
636 0 1 -0.571097 -6.089156 57.250000
637 0 1 -1.240836 -6.302856 56.585815
638 0 1 -1.939986 -6.406355 55.865112
639 0 1 -2.640887 -5.878955 56.267090
640 0 1 -1.956946 -5.168056 56.413696
641 0 1 -1.461917 -4.684056 55.728210
642 0 1 -1.532447 -3.757555 55.918793
643 0 1 -1.299237 -3.075257 56.578613
644 0 1 -0.890098 -2.508255 55.939606
645 0 1 -0.738446 -1.556456 56.179993
646 0 1 0.077603 -1.101256 56.186401
647 0 1 0.216533 -1.395257 55.245911
648 0 1 0.917161 -0.707856 55.389709
649 0 1 1.316537 -1.544255 55.657898
650 0 1 1.827699 -1.041054 55.023407
651 0 1 2.519662 -1.451056 55.473206
652 0 1 3.303914 -1.241156 54.980591
653 0 1 3.977952 -1.591355 55.548706
654 0 1 4.251924 -0.680455 55.445007
655 0 1 3.864022 -0.283505 54.654388
656 0 1 3.878404 0.408603 55.316498
657 0 1 3.135823 0.558093 54.784088
658 0 1 2.504668 1.016506 54.204590
659 0 1 2.266435 0.821525 55.078705
660 0 1 1.904981 1.246145 55.872986
661 0 1 1.441678 2.120304 55.720306
662 0 1 0.843673 2.690774 55.248291
663 0 1 -0.040696 2.436515 55.008698
664 0 1 -0.756347 1.910055 55.457794
665 0 1 -1.180938 1.225513 54.912689
666 0 1 -0.697587 1.463704 54.135406
667 0 1 -1.128846 2.293605 53.778595
668 0 1 -1.736796 2.579463 54.388397
669 0 1 -1.244187 2.859794 55.182098
670 0 1 -0.658736 3.561904 54.852112
671 0 1 -1.035346 4.084924 54.115692
672 0 1 -1.586436 4.140785 53.322113
673 0 1 -2.045787 3.557834 52.735992
674 0 1 -2.663907 2.917835 52.434296
675 0 1 -3.037307 2.549314 53.313995
676 0 1 -2.163398 2.163324 53.445892
677 0 1 -2.773986 1.542625 52.960693
678 0 1 -1.930408 1.030944 52.961792
679 0 1 -1.358096 0.277675 52.556610
680 0 1 -0.389997 0.324554 52.731689
681 0 1 -0.336057 -0.356217 53.443787
682 0 1 -1.067468 -1.003457 53.266693
683 0 1 -1.713817 -1.725957 53.287994
684 0 1 -1.940967 -1.739556 52.342896
685 0 1 -1.482837 -1.988856 51.546112
686 0 1 -0.766986 -2.657654 51.717102
687 0 1 -1.294057 -3.490256 51.794312
688 0 1 -1.443646 -3.290257 52.751099
689 0 1 -2.398957 -3.050057 52.680786
690 0 1 -3.429618 -2.953156 52.626007
691 0 1 -4.332778 -2.837155 52.392700
692 0 1 -4.790828 -2.602656 53.254791
693 0 1 -4.343587 -3.350855 53.634094
694 0 1 -4.371238 -3.684256 54.516907
695 0 1 -5.175227 -4.253356 54.591095
696 0 1 -5.660186 -4.801356 53.919800
697 0 1 -6.443717 -5.159356 53.446289
698 0 1 -6.502727 -4.687657 52.600403
699 0 1 -7.105117 -4.626456 51.810089
700 0 1 -7.124497 -3.699555 51.575500
701 0 1 -7.991626 -3.268357 51.871796
702 0 1 -8.122508 -3.621254 52.776001
703 0 1 -7.555287 -2.945157 53.143188
704 0 1 -6.611598 -3.151656 53.151703
705 0 1 -6.796367 -2.534054 53.854706
706 0 1 -6.874967 -2.417157 54.819885
707 0 1 -5.908526 -2.426156 54.778992
708 0 1 -5.612718 -1.462556 54.995789
709 0 1 -5.200606 -1.485455 55.854309
710 0 1 -4.524167 -1.560357 55.159912
711 0 1 -4.595696 -0.676957 55.489594
712 0 1 -3.966157 -0.295697 56.176086
713 0 1 -4.076118 0.513654 55.644714
714 0 1 -4.439637 1.356164 55.640686
715 0 1 -5.211368 0.990684 56.186584
716 0 1 -5.825566 0.556033 56.736084
717 0 1 -5.339408 0.201404 57.454102
718 0 1 -4.407706 0.698985 57.461609
719 0 1 -3.807338 0.353164 58.078705
720 0 1 -3.679816 1.245933 58.200500
721 0 1 -3.697497 1.407274 59.156006
722 0 1 -4.153398 0.651994 59.598083
723 0 1 -4.102227 -0.360875 59.268799
724 0 1 -4.168307 -1.160355 59.903198
725 0 1 -4.522048 -2.072155 59.655212
726 0 1 -3.682868 -2.594155 59.464691
727 0 1 -4.105178 -2.871155 58.653198
728 0 1 -4.497437 -3.495755 57.948792
729 0 1 -4.349847 -4.314156 58.473816
730 0 1 -5.170877 -4.921555 58.460602
731 0 1 -5.877818 -4.311356 58.628998
732 0 1 -6.197486 -4.976155 59.172791
733 0 1 -5.628367 -5.480855 59.702209
734 0 1 -5.150218 -5.128056 60.431488
735 0 1 -4.624627 -5.098456 61.176697
736 0 1 -5.333528 -5.558856 61.645813
737 0 1 -5.986756 -5.139657 62.296387
738 0 1 -5.426738 -4.370656 61.877808
739 0 1 -5.793536 -3.508255 61.650787
740 0 1 -6.603766 -4.091156 61.790283
741 0 1 -6.586747 -4.985356 61.441803
742 0 1 -7.292338 -5.222156 60.874695
743 0 1 -7.381038 -5.078057 59.884796
744 0 1 -7.612906 -5.971056 59.511993
745 0 1 -7.393437 -5.684455 58.522003
746 0 1 -8.244437 -6.201355 58.587891
747 0 1 -7.912818 -6.473956 57.668610
748 0 1 -8.384006 -5.564156 57.688507
749 0 1 -7.688956 -4.916556 57.751190
750 0 1 -8.080127 -4.024556 57.984192
751 0 1 -7.659888 -3.575955 58.688995
752 0 1 -6.888518 -3.645955 58.052094
753 0 1 -7.126746 -2.762757 58.096710
754 0 1 -7.639968 -1.930356 58.344391
755 0 1 -8.561206 -2.085557 58.649506
756 0 1 -9.234307 -1.422455 58.607483
757 0 1 -9.275907 -1.237956 59.603607
758 0 1 -8.920407 -1.084056 60.439911
759 0 1 -8.711406 -1.505255 61.226501
760 0 1 -8.165606 -1.597256 62.047089
761 0 1 -8.217856 -2.494256 61.780487
762 0 1 -9.158307 -2.684056 61.800415
763 0 1 -9.282807 -2.500454 60.886902
764 0 1 -10.081706 -2.870356 61.286407
765 0 1 -10.518407 -3.481755 60.620789
766 0 1 -11.023208 -2.682755 60.359192
767 0 1 -11.346807 -2.075757 60.953186
768 0 1 -12.301007 -2.110356 60.921295
769 0 1 -12.454007 -1.210957 60.693512
770 0 1 -11.640107 -0.648884 60.374390
771 0 1 -11.232907 0.201314 60.222595
772 0 1 -11.435206 0.369823 59.288910
773 0 1 -12.048007 -0.321644 58.930206
774 0 1 -12.317607 -0.407345 58.054199
775 0 1 -13.217507 -0.439797 57.739502
776 0 1 -13.413607 -0.375325 56.839600
777 0 1 -12.803508 -0.582036 56.073090
778 0 1 -13.052607 0.275234 55.720306
779 0 1 -12.189107 0.479404 55.330017
780 0 1 -12.539008 1.190854 55.954803
781 0 1 -12.541907 1.819663 56.668488
782 0 1 -13.265907 2.349544 56.434204
783 0 1 -13.692307 3.196615 56.254700
784 0 1 -13.865007 3.202625 55.310791
785 0 1 -13.789407 2.334344 54.916595
786 0 1 -14.490207 2.838304 54.479614
787 0 1 -14.540208 3.012645 53.478302
788 0 1 -15.092807 3.446165 52.729614
789 0 1 -15.877807 3.249134 52.269806