LAMMPS data file via MDAnalysis

        2000  atoms
        1999  bonds
           0  angles
           0  dihedrals
           0  impropers

           1  atom types
           1  bond types
           0  angle types
           0  dihedral types
           0  improper types

-30.5 30.5 xlo xhi
-30.5 30.5 ylo yhi
-233.5 233.5 zlo zhi


Masses

1 1.000000

Atoms

1 0 1 5.459926 -13.408456 31.924805
2 0 1 5.904346 -12.569856 31.903015
3 0 1 6.561725 -11.895558 32.090515
4 0 1 7.388385 -11.635758 32.439392
5 0 1 7.832305 -12.510056 32.409088
6 0 1 7.812698 -12.088157 31.525513
7 0 1 8.732124 -11.935658 31.663086
8 0 1 8.343124 -11.145757 32.015594
9 0 1 8.610317 -10.371858 32.602692
10 0 1 8.646946 -10.255258 33.527008
11 0 1 9.610355 -10.326657 33.520294
12 0 1 9.438148 -9.886767 34.374390
13 0 1 9.432125 -9.979857 35.317810
14 0 1 9.720406 -10.940557 35.309387
15 0 1 10.200714 -11.685157 35.484497
16 0 1 10.645916 -11.183257 34.806610
17 0 1 11.067616 -12.022357 34.705109
18 0 1 11.849014 -12.072358 34.183289
19 0 1 12.691216 -11.633058 34.596588
20 0 1 12.569317 -11.928456 35.519501
21 0 1 12.727116 -12.209058 36.440399
22 0 1 12.301216 -11.890656 37.227783
23 0 1 12.649315 -11.283757 37.886688
24 0 1 11.671116 -11.363858 38.129517
25 0 1 10.972515 -11.492658 37.552490
26 0 1 10.043396 -11.079658 37.694885
27 0 1 9.301937 -11.641358 37.669800
28 0 1 8.585926 -11.576756 37.060303
29 0 1 8.292088 -10.677758 37.150787
30 0 1 7.982757 -9.915967 36.630402
31 0 1 8.086678 -9.111588 36.111511
32 0 1 7.417835 -9.085576 36.795898
33 0 1 6.904705 -8.225987 36.587006
34 0 1 6.799827 -8.037656 35.638489
35 0 1 7.324207 -7.727098 34.922913
36 0 1 7.642776 -8.151696 34.065002
37 0 1 7.451034 -7.400348 33.477905
38 0 1 8.407814 -7.582017 33.311493
39 0 1 8.531376 -7.308488 34.247406
40 0 1 8.686756 -6.559907 33.552887
41 0 1 9.486694 -6.293388 33.195190
42 0 1 9.625778 -5.374769 33.501312
43 0 1 8.673977 -5.330478 33.340698
44 0 1 8.768028 -5.443887 32.409607
45 0 1 9.473648 -5.037828 31.895905
46 0 1 10.071594 -4.936567 31.111389
47 0 1 10.629318 -4.249017 31.317993
48 0 1 10.068588 -3.519878 31.377594
49 0 1 9.431046 -3.891967 30.827698
50 0 1 8.656746 -3.388998 31.104401
51 0 1 8.957718 -3.174377 30.230103
52 0 1 8.733456 -2.909128 29.368988
53 0 1 7.896118 -2.871927 29.752197
54 0 1 7.302677 -2.759538 30.494812
55 0 1 6.597885 -3.429767 30.436188
56 0 1 5.825027 -2.898927 30.433807
57 0 1 5.190204 -3.406908 30.925415
58 0 1 4.995285 -4.316469 30.659088
59 0 1 4.328426 -4.865287 30.223389
60 0 1 3.394676 -5.211618 30.272491
61 0 1 2.504974 -4.803968 30.608887
62 0 1 3.202995 -4.144308 30.801300
63 0 1 2.881126 -4.071748 31.669006
64 0 1 2.045417 -4.258127 32.085510
65 0 1 1.329136 -4.646577 32.608002
66 0 1 1.651584 -5.204378 33.358398
67 0 1 1.572555 -5.724489 34.148712
68 0 1 0.740440 -5.776338 34.540405
69 0 1 0.375784 -5.162698 33.933594
70 0 1 -0.617173 -5.182416 34.177704
71 0 1 -1.475085 -5.107938 34.364288
72 0 1 -1.723145 -5.255067 33.449188
73 0 1 -2.165194 -6.115777 33.310791
74 0 1 -2.613204 -6.940227 33.152191
75 0 1 -2.696534 -7.387897 32.340393
76 0 1 -3.000834 -8.143188 32.857391
77 0 1 -3.082625 -8.427648 31.927887
78 0 1 -2.371434 -8.697747 31.336090
79 0 1 -1.577914 -8.424676 31.826111
80 0 1 -0.777930 -9.049317 31.654999
81 0 1 -0.318030 -9.726537 31.210114
82 0 1 0.525743 -9.277827 31.167603
83 0 1 -0.122788 -8.669976 30.669312
84 0 1 -0.949604 -8.207528 30.489807
85 0 1 -1.894234 -8.288907 30.340607
86 0 1 -1.671294 -8.021457 29.420013
87 0 1 -1.353875 -8.322658 28.551208
88 0 1 -0.689656 -8.091037 27.912598
89 0 1 -0.676482 -8.946698 28.375214
90 0 1 -0.117304 -9.258657 29.155609
91 0 1 -0.421847 -10.062158 28.826202
92 0 1 -1.419295 -10.031157 28.700714
93 0 1 -2.167874 -10.752557 28.409698
94 0 1 -1.552254 -11.318856 27.828491
95 0 1 -1.330195 -11.830956 27.097595
96 0 1 -1.220854 -11.335357 26.261505
97 0 1 -2.063595 -10.989957 25.859589
98 0 1 -3.008515 -10.887958 25.788513
99 0 1 -3.316824 -10.988656 24.895599
100 0 1 -2.762703 -10.824658 24.041504
101 0 1 -3.433205 -11.209958 23.429993
102 0 1 -4.307595 -10.996057 23.696686
103 0 1 -4.275324 -10.505857 22.868805
104 0 1 -5.152724 -10.823056 22.638489
105 0 1 -5.770775 -11.516257 22.323700
106 0 1 -5.077895 -12.028756 21.908508
107 0 1 -4.969504 -12.910558 21.534393
108 0 1 -5.046303 -13.865258 21.432495
109 0 1 -4.439873 -13.806958 20.656296
110 0 1 -4.940545 -14.567157 20.484100
111 0 1 -4.329915 -15.252957 20.276306
112 0 1 -3.778414 -15.528957 20.995605
113 0 1 -3.076325 -15.361457 20.375504
114 0 1 -2.645255 -15.148157 19.569092
115 0 1 -1.792624 -14.854157 19.110992
116 0 1 -0.904957 -15.317357 19.447998
117 0 1 -0.769097 -15.225657 18.424896
118 0 1 0.218454 -15.158657 18.541794
119 0 1 0.679483 -15.928658 18.252594
120 0 1 1.594207 -15.877457 18.516495
121 0 1 1.606395 -16.721659 18.090195
122 0 1 1.289926 -16.677458 17.175797
123 0 1 2.046394 -16.155159 17.029694
124 0 1 2.327255 -16.750957 16.315796
125 0 1 3.192447 -16.993559 15.957092
126 0 1 3.351974 -16.938658 16.919907
127 0 1 3.228675 -17.860458 16.629196
128 0 1 2.321086 -18.008558 16.413895
129 0 1 2.023887 -18.956358 16.516602
130 0 1 1.194955 -18.752157 16.080200
131 0 1 0.890148 -19.445059 16.702103
132 0 1 0.101387 -18.923859 16.646194
133 0 1 -0.613856 -18.513458 16.164902
134 0 1 -0.561674 -19.318058 15.550400
135 0 1 0.220449 -19.185259 14.916992
136 0 1 0.109432 -18.294258 15.025406
137 0 1 -0.354790 -18.403257 14.185898
138 0 1 -1.159615 -18.140959 14.669098
139 0 1 -1.559994 -18.398558 13.774200
140 0 1 -1.312775 -17.923258 12.909897
141 0 1 -1.753914 -17.128057 13.126099
142 0 1 -2.477534 -17.107958 13.708405
143 0 1 -2.858544 -16.426258 13.182693
144 0 1 -3.752415 -16.199858 12.869904
145 0 1 -4.568724 -16.328259 13.359695
146 0 1 -5.187834 -15.739257 14.021301
147 0 1 -5.715064 -15.032557 14.353302
148 0 1 -5.682044 -14.061456 14.507507
149 0 1 -5.108254 -13.294358 14.201096
150 0 1 -4.830994 -13.403958 13.284805
151 0 1 -5.238024 -12.578656 13.020508
152 0 1 -5.858935 -12.597657 12.319794
153 0 1 -5.087925 -12.529656 11.759995
154 0 1 -5.100674 -11.567258 11.941895
155 0 1 -4.197205 -11.227757 11.676605
156 0 1 -4.722535 -10.766656 11.008896
157 0 1 -3.945874 -10.989657 10.580994
158 0 1 -3.742474 -11.932256 10.385406
159 0 1 -4.254504 -12.723157 10.609406
160 0 1 -4.875325 -12.559957 9.945419
161 0 1 -5.233883 -11.688657 10.089996
162 0 1 -5.729474 -11.055558 9.579407
163 0 1 -5.457854 -10.493457 10.292404
164 0 1 -6.379715 -10.357156 10.153305
165 0 1 -7.378344 -10.304257 10.382996
166 0 1 -7.995003 -10.303857 11.128403
167 0 1 -8.439144 -10.359159 10.239594
168 0 1 -8.385593 -10.619157 9.302841
169 0 1 -9.428223 -10.549357 9.350143
170 0 1 -10.238384 -10.791356 9.734360
171 0 1 -11.046383 -10.290658 9.400314
172 0 1 -11.512585 -10.841756 8.773697
173 0 1 -12.411785 -10.635657 9.013702
174 0 1 -13.353184 -10.392657 8.864807
175 0 1 -13.063385 -9.491906 9.178848
176 0 1 -13.393185 -8.579627 9.127228
177 0 1 -13.944584 -7.866348 8.588852
178 0 1 -14.537284 -8.424596 8.112335
179 0 1 -14.952284 -9.346028 8.051804
180 0 1 -14.601084 -9.506288 7.171616
181 0 1 -14.430284 -10.373357 6.802063
182 0 1 -14.764984 -9.900388 6.002579
183 0 1 -14.342583 -9.074237 5.798035
184 0 1 -13.655684 -9.538198 5.381531
185 0 1 -13.340384 -10.416059 5.724274
186 0 1 -13.411785 -10.884656 6.546982
187 0 1 -13.104683 -10.505057 7.395874
188 0 1 -12.566383 -9.844157 6.918121
189 0 1 -12.367184 -8.991529 7.390228
190 0 1 -11.551785 -8.930436 6.870651
191 0 1 -11.187485 -9.384557 7.593460
192 0 1 -11.076183 -9.117797 8.510162
193 0 1 -10.219185 -9.544797 8.332184
194 0 1 -9.752924 -10.389157 8.287537
195 0 1 -9.843584 -10.103559 7.359467
196 0 1 -9.173664 -9.828988 6.731598
197 0 1 -9.576565 -9.275838 6.057892
198 0 1 -8.881935 -8.639907 6.270676
199 0 1 -8.641933 -7.788288 5.851624
200 0 1 -7.860825 -7.057628 5.854630
201 0 1 -7.340914 -7.365947 6.652939
202 0 1 -6.555115 -7.772348 6.261826
203 0 1 -6.216923 -8.284348 6.939774
204 0 1 -6.449505 -8.195306 7.835236
205 0 1 -7.374854 -8.302827 7.864105
206 0 1 -8.280083 -8.008517 7.780334
207 0 1 -8.414654 -7.161008 7.265747
208 0 1 -8.511404 -6.201597 7.421783
209 0 1 -7.635624 -5.866027 7.825729
210 0 1 -7.023144 -5.056718 8.059265
211 0 1 -6.221594 -5.352777 8.499222
212 0 1 -5.577895 -5.920127 8.116714
213 0 1 -4.661664 -6.049068 7.702393
214 0 1 -4.520865 -6.011056 6.815475
215 0 1 -4.743245 -5.047718 7.011826
216 0 1 -5.146754 -4.211217 7.046295
217 0 1 -5.815884 -4.006958 6.396606
218 0 1 -6.656165 -4.160888 5.990051
219 0 1 -6.087544 -4.854467 5.636139
220 0 1 -6.397555 -5.292358 4.843002
221 0 1 -6.957404 -5.735908 5.468323
222 0 1 -7.517424 -5.448267 4.768921
223 0 1 -7.556464 -4.783897 4.097672
224 0 1 -6.692254 -4.347517 4.468323
225 0 1 -7.147555 -3.702007 5.005493
226 0 1 -7.710434 -3.770507 4.210495
227 0 1 -8.309925 -3.123437 4.565323
228 0 1 -8.934944 -3.386238 5.216537
229 0 1 -8.725994 -3.575237 6.186325
230 0 1 -7.833664 -3.812627 6.348999
231 0 1 -7.245265 -4.428747 6.790787
232 0 1 -7.567364 -3.746128 7.439667
233 0 1 -6.708264 -3.531278 7.804688
234 0 1 -6.412045 -2.884208 7.192993
235 0 1 -6.929074 -2.314777 6.495453
236 0 1 -6.779274 -1.420747 6.192673
237 0 1 -7.627244 -0.950918 5.852783
238 0 1 -8.054333 -1.260028 6.717087
239 0 1 -8.724953 -1.535257 7.610214
240 0 1 -9.462093 -0.965387 7.699677
241 0 1 -9.575014 -1.914228 7.399841
242 0 1 -9.988983 -2.129798 8.216141
243 0 1 -10.378084 -2.008808 9.076523
244 0 1 -10.444283 -1.081678 8.794144
245 0 1 -10.518883 -0.143632 8.770416
246 0 1 -9.971085 0.569476 9.256363
247 0 1 -9.137993 0.186705 9.607056
248 0 1 -9.010384 -0.404838 10.281204
249 0 1 -9.603754 -1.145198 10.416107
250 0 1 -10.413784 -0.950567 9.888199
251 0 1 -11.236383 -0.492841 9.718887
252 0 1 -12.039185 -0.130374 10.081207
253 0 1 -12.210785 -1.159898 10.083298
254 0 1 -12.110985 -0.984537 9.123230
255 0 1 -12.728683 -0.243978 9.375793
256 0 1 -13.440983 -0.784950 9.836746
257 0 1 -13.715485 -0.093893 10.449600
258 0 1 -13.352484 0.331681 11.261597
259 0 1 -13.408783 0.993378 10.532104
260 0 1 -12.854183 1.403132 9.902283
261 0 1 -12.043484 1.720641 10.347504
262 0 1 -11.207085 2.295844 10.394302
263 0 1 -11.745184 3.069331 10.213699
264 0 1 -10.856483 3.546423 10.100601
265 0 1 -10.886484 4.426432 9.646835
266 0 1 -10.577784 4.715674 10.495895
267 0 1 -9.815372 4.740904 9.932083
268 0 1 -9.229725 3.998114 10.076401
269 0 1 -8.912424 3.092722 10.101593
270 0 1 -8.562054 2.237372 9.934036
271 0 1 -7.890213 2.932181 9.688217
272 0 1 -7.503773 3.879492 9.787735
273 0 1 -7.574914 4.058943 10.739395
274 0 1 -7.888304 4.867472 11.118500
275 0 1 -8.715584 4.454222 11.073593
276 0 1 -9.292503 4.472422 11.892303
277 0 1 -10.205185 4.536162 11.585800
278 0 1 -10.969084 4.573294 12.170593
279 0 1 -11.281384 3.769232 12.612900
280 0 1 -11.259483 3.719733 13.561203
281 0 1 -10.386484 3.732573 14.032104
282 0 1 -10.126183 2.843062 14.355698
283 0 1 -10.931984 2.255251 14.218704
284 0 1 -10.717484 1.389933 14.599197
285 0 1 -10.492485 0.722474 13.924606
286 0 1 -10.241184 -0.140521 13.635803
287 0 1 -10.248983 -0.316419 14.627304
288 0 1 -10.427185 -1.189657 14.958099
289 0 1 -11.147484 -1.015157 15.581406
290 0 1 -10.950384 -0.043481 15.673096
291 0 1 -10.609283 0.574011 16.313507
292 0 1 -9.833363 1.140473 16.401505
293 0 1 -9.274124 1.562022 17.103897
294 0 1 -9.773964 1.426432 17.877396
295 0 1 -8.924583 1.399323 18.402206
296 0 1 -8.815945 0.617333 18.909805
297 0 1 -8.836903 0.031054 18.086899
298 0 1 -9.334755 -0.767528 18.368408
299 0 1 -8.642693 -1.168138 18.901901
300 0 1 -8.054443 -1.136337 19.645004
301 0 1 -8.342545 -0.515752 20.346008
302 0 1 -9.231323 -0.376853 19.961105
303 0 1 -9.873774 -0.019966 20.571304
304 0 1 -10.151585 0.806265 21.070404
305 0 1 -10.194485 1.200623 21.958694
306 0 1 -10.358084 1.924292 21.410599
307 0 1 -10.403984 2.164423 22.365601
308 0 1 -9.890415 2.945712 22.087997
309 0 1 -9.791504 3.328532 21.220200
310 0 1 -10.645283 2.947184 20.935303
311 0 1 -10.265385 3.543654 20.186096
312 0 1 -10.651382 2.757601 19.807205
313 0 1 -11.385183 2.302912 20.297104
314 0 1 -12.329184 2.496752 20.174194
315 0 1 -12.383183 3.180991 19.522903
316 0 1 -11.508385 3.491423 19.079697
317 0 1 -10.814184 3.856322 18.586899
318 0 1 -10.601583 4.069411 17.581894
319 0 1 -11.340384 3.908053 17.000702
320 0 1 -11.838684 3.711863 17.781494
321 0 1 -12.655582 4.101820 17.562805
322 0 1 -12.673283 3.157042 17.694901
323 0 1 -13.060883 2.757884 18.541397
324 0 1 -13.977684 2.816103 18.850708
325 0 1 -13.941284 2.479323 19.760193
326 0 1 -14.565484 1.920272 19.234604
327 0 1 -14.747084 2.106452 18.310806
328 0 1 -15.644784 2.145354 18.686493
329 0 1 -16.157684 1.281792 18.825394
330 0 1 -16.197084 1.479422 19.795898
331 0 1 -16.515684 0.830575 20.444092
332 0 1 -17.172184 1.234732 19.877808
333 0 1 -18.204384 1.220183 19.984894
334 0 1 -19.055584 1.573081 19.631897
335 0 1 -19.505484 0.891318 20.196396
336 0 1 -20.132183 0.218218 20.461304
337 0 1 -19.338984 -0.378467 20.411499
338 0 1 -18.660883 -0.838840 20.976807
339 0 1 -19.252983 -1.518928 21.399796
340 0 1 -19.597883 -2.063657 20.622406
341 0 1 -20.475483 -2.293508 20.322006
342 0 1 -20.995483 -2.406097 21.151306
343 0 1 -21.791084 -2.129398 21.583099
344 0 1 -21.580084 -1.181047 21.465607
345 0 1 -22.428684 -1.414218 21.144897
346 0 1 -23.118584 -1.002538 21.601303
347 0 1 -23.948084 -1.023397 22.169998
348 0 1 -23.846384 -0.787012 23.123810
349 0 1 -23.755283 0.139653 23.377014
350 0 1 -23.884384 1.040837 23.509003
351 0 1 -23.683584 1.232823 24.448212
352 0 1 -22.850483 1.176732 24.049500
353 0 1 -22.595783 0.351912 23.559906
354 0 1 -22.575483 -0.523803 23.110901
355 0 1 -21.777384 -0.165868 22.670410
356 0 1 -21.946884 0.673085 22.270096
357 0 1 -22.462685 0.575242 21.505798
358 0 1 -21.890083 1.240122 21.156601
359 0 1 -21.095984 1.226563 21.712006
360 0 1 -20.872784 1.984362 22.271805
361 0 1 -21.655584 2.390273 21.942307
362 0 1 -21.678383 3.137133 22.502899
363 0 1 -21.511684 3.308184 23.446106
364 0 1 -20.788883 3.999571 23.455505
365 0 1 -20.094084 3.579093 24.006592
366 0 1 -19.415783 3.598101 23.246216
367 0 1 -19.851583 3.257521 22.470505
368 0 1 -19.504583 2.412684 22.307098
369 0 1 -18.903685 2.139571 21.554398
370 0 1 -18.381784 2.673293 22.280197
371 0 1 -18.687084 2.271811 23.095703
372 0 1 -18.806684 2.220061 24.102509
373 0 1 -18.485184 3.175761 24.237000
374 0 1 -18.033384 2.735892 24.948914
375 0 1 -17.466784 2.260851 24.441803
376 0 1 -16.674484 2.307711 23.816589
377 0 1 -16.230083 1.451222 23.649200
378 0 1 -16.608784 0.755641 23.133789
379 0 1 -17.446585 0.955908 23.482910
380 0 1 -17.693483 1.686881 22.707001
381 0 1 -18.469284 1.096923 22.671295
382 0 1 -18.946983 0.759364 23.483887
383 0 1 -19.598083 1.418133 23.656799
384 0 1 -20.463583 1.124253 23.886200
385 0 1 -21.076784 0.569573 24.291687
386 0 1 -20.294283 0.226273 24.655609
387 0 1 -20.275284 -0.673995 24.277588
388 0 1 -21.160883 -0.912607 24.112915
389 0 1 -21.699385 -1.582897 23.669891
390 0 1 -21.956484 -2.514837 23.760101
391 0 1 -22.928984 -2.279338 23.470398
392 0 1 -23.282084 -1.594217 24.054413
393 0 1 -22.615183 -1.572267 24.714203
394 0 1 -23.191284 -1.423358 25.417114
395 0 1 -23.299984 -0.649799 26.017914
396 0 1 -23.451084 -0.012985 25.272491
397 0 1 -24.219685 0.484995 24.971588
398 0 1 -24.369284 1.311032 25.492401
399 0 1 -24.009983 1.134663 26.368103
400 0 1 -23.565285 0.302828 26.692688
401 0 1 -22.746984 0.363759 27.118805
402 0 1 -22.148983 1.131732 27.268005
403 0 1 -21.270784 1.404622 27.522797
404 0 1 -21.812384 1.797221 28.308594
405 0 1 -21.752884 1.505873 29.214203
406 0 1 -20.879383 1.251992 29.505798
407 0 1 -20.290884 1.956843 29.092285
408 0 1 -20.190584 2.076273 28.130493
409 0 1 -20.213984 2.776103 27.519989
410 0 1 -20.154385 3.469962 28.166992
411 0 1 -20.676683 4.062544 27.586090
412 0 1 -21.628384 4.428801 27.446594
413 0 1 -21.574684 5.361651 27.355988
414 0 1 -21.233883 5.783022 26.566589
415 0 1 -20.657084 6.215552 27.227905
416 0 1 -21.344284 6.665904 27.713684
417 0 1 -21.927784 6.034392 28.212708
418 0 1 -22.831083 5.519064 28.011505
419 0 1 -23.500984 4.810942 27.781891
420 0 1 -23.825983 5.345274 26.947296
421 0 1 -24.624884 5.922663 26.846893
422 0 1 -25.204084 6.096613 27.526184
423 0 1 -25.676884 5.269892 27.545502
424 0 1 -26.606184 5.654253 27.557404
425 0 1 -26.498484 6.383193 26.866699
426 0 1 -26.534483 6.327712 25.898987
427 0 1 -26.377283 6.824164 25.053192
428 0 1 -25.422684 6.988261 25.010315
429 0 1 -24.938383 7.676821 25.527710
430 0 1 -24.193884 8.251014 25.512604
431 0 1 -24.527784 8.238112 26.425415
432 0 1 -23.681984 8.524493 26.644897
433 0 1 -23.968584 8.793731 27.541107
434 0 1 -23.384584 8.158664 27.879608
435 0 1 -22.492384 8.499755 28.093384
436 0 1 -22.626684 8.589965 27.080688
437 0 1 -22.551483 9.463824 26.846008
438 0 1 -23.097383 9.314662 26.089203
439 0 1 -23.008484 10.281642 25.731293
440 0 1 -22.125683 10.370543 25.412994
441 0 1 -21.276684 10.786643 25.165009
442 0 1 -20.396784 11.163245 25.545410
443 0 1 -19.671583 11.731345 25.481812
444 0 1 -19.353384 10.932643 25.167206
445 0 1 -19.007183 10.469943 24.371796
446 0 1 -19.392584 10.452544 23.535706
447 0 1 -18.518583 10.223144 23.207001
448 0 1 -18.033484 10.976642 22.752594
449 0 1 -18.412983 11.263442 21.918106
450 0 1 -19.002983 10.673942 22.427994
451 0 1 -19.394585 11.563643 22.618713
452 0 1 -20.036983 10.924743 22.707214
453 0 1 -19.852184 10.068542 22.368500
454 0 1 -19.528883 9.841723 21.548492
455 0 1 -19.614084 10.461043 20.863205
456 0 1 -19.066984 11.061442 20.427505
457 0 1 -19.880083 11.306842 20.033401
458 0 1 -19.887983 12.166244 20.550903
459 0 1 -20.037884 12.781745 21.354004
460 0 1 -20.828884 12.384742 21.695892
461 0 1 -21.238184 12.763843 22.451004
462 0 1 -20.784883 13.593444 22.585999
463 0 1 -20.879784 14.508143 22.210297
464 0 1 -20.857985 15.065242 21.521194
465 0 1 -20.286983 14.370444 21.083206
466 0 1 -19.383884 14.327743 21.439194
467 0 1 -19.570885 15.028144 22.097794
468 0 1 -18.811184 15.311244 22.647888
469 0 1 -18.679083 14.805743 23.449188
470 0 1 -18.170383 15.487742 23.873108
471 0 1 -18.202383 15.549743 24.825897
472 0 1 -17.947084 15.273742 25.735992
473 0 1 -17.246883 15.187743 25.036316
474 0 1 -16.916683 15.547942 25.864105
475 0 1 -16.118883 15.272342 25.467590
476 0 1 -15.658484 14.800841 26.267090
477 0 1 -15.079984 14.142844 25.883911
478 0 1 -14.513884 13.271041 25.856995
479 0 1 -14.203083 13.153541 26.725311
480 0 1 -14.263783 12.401542 26.139008
481 0 1 -13.358383 12.450141 25.755310
482 0 1 -12.592384 13.039042 25.729095
483 0 1 -11.917784 13.040542 26.563507
484 0 1 -11.036884 13.045642 27.098816
485 0 1 -10.449684 12.908942 27.877502
486 0 1 -9.648354 13.316943 27.800293
487 0 1 -8.873795 13.377444 27.192108
488 0 1 -8.737545 13.792644 26.310913
489 0 1 -7.937363 13.293143 26.298004
490 0 1 -8.408615 13.123343 25.504791
491 0 1 -8.309555 12.616443 24.683807
492 0 1 -7.980256 12.682544 23.698303
493 0 1 -8.659714 12.734542 23.076904
494 0 1 -8.745373 11.906241 22.661896
495 0 1 -9.528503 11.347243 22.471298
496 0 1 -10.314283 10.762641 22.405396
497 0 1 -11.057884 10.997142 22.926910
498 0 1 -11.691584 11.625342 22.452896
499 0 1 -12.173183 12.455642 22.252396
500 0 1 -12.477484 13.329345 22.400406
501 0 1 -11.683884 13.913741 22.389008
502 0 1 -12.161983 14.723243 22.513916
503 0 1 -12.936684 15.280341 22.311600
504 0 1 -13.087185 14.430541 21.962204
505 0 1 -13.536884 14.373942 21.081207
506 0 1 -13.695284 15.205943 21.469406
507 0 1 -14.510084 15.402942 21.998001
508 0 1 -14.667784 14.578742 22.462296
509 0 1 -14.793183 14.209544 23.366913
510 0 1 -14.201183 13.501643 23.177795
511 0 1 -14.962884 13.148543 23.591003
512 0 1 -15.297584 13.111442 24.508301
513 0 1 -14.423883 12.794642 24.775604
514 0 1 -14.529984 11.834144 24.911102
515 0 1 -14.389284 11.144744 25.595093
516 0 1 -13.663584 10.661143 25.090515
517 0 1 -12.741585 10.359443 25.320190
518 0 1 -12.151184 11.086543 25.133301
519 0 1 -11.365883 11.084044 24.676300
520 0 1 -11.164984 10.130942 24.468109
521 0 1 -12.081484 9.853431 24.162598
522 0 1 -12.232384 9.067302 23.703186
523 0 1 -12.225384 9.275695 22.735687
524 0 1 -11.424284 8.920623 22.294205
525 0 1 -10.592684 9.260474 22.264893
526 0 1 -10.272583 8.758113 21.486496
527 0 1 -9.858013 7.887732 21.381805
528 0 1 -9.488255 7.103644 21.195007
529 0 1 -10.066784 6.370680 20.940704
530 0 1 -10.500383 6.953902 20.239395
531 0 1 -10.492783 7.959803 20.398407
532 0 1 -10.295084 8.208014 19.480408
533 0 1 -9.958183 7.358832 19.126495
534 0 1 -10.785084 7.210612 18.743805
535 0 1 -11.367085 6.454852 18.457306
536 0 1 -11.528784 5.901461 17.714996
537 0 1 -11.158382 5.964804 16.838501
538 0 1 -10.220984 6.093562 16.548904
539 0 1 -10.641884 5.793383 15.686707
540 0 1 -10.832485 6.730200 15.469498
541 0 1 -10.652683 7.513381 14.883499
542 0 1 -10.669083 8.493834 14.774002
543 0 1 -10.284883 9.346423 14.529205
544 0 1 -10.714985 9.757693 13.755005
545 0 1 -10.879484 10.520644 14.302307
546 0 1 -10.714684 10.302642 15.220795
547 0 1 -10.893484 11.216144 15.337204
548 0 1 -11.252184 11.426841 14.526794
549 0 1 -11.667583 12.204841 14.138397
550 0 1 -10.928083 12.778644 13.879105
551 0 1 -10.717484 13.492244 14.416702
552 0 1 -10.897284 13.199443 15.276001
553 0 1 -11.286484 13.977942 15.667099
554 0 1 -10.986683 13.776542 16.547897
555 0 1 -10.754984 13.547843 17.427307
556 0 1 -10.303484 12.752543 17.162506
557 0 1 -9.356945 12.653945 17.214600
558 0 1 -8.599213 12.888343 17.696701
559 0 1 -8.287113 13.544642 18.360199
560 0 1 -7.541375 13.603545 17.680298
561 0 1 -7.052193 13.862842 16.815201
562 0 1 -7.572825 14.669242 17.030304
563 0 1 -7.027335 15.465842 17.008102
564 0 1 -6.104084 15.720843 17.026596
565 0 1 -5.901774 16.466642 17.580002
566 0 1 -5.345904 16.944044 18.215103
567 0 1 -5.413285 17.911039 18.299103
568 0 1 -4.503815 18.021444 17.885101
569 0 1 -3.758555 17.411940 17.759705
570 0 1 -4.078595 16.510542 17.742905
571 0 1 -4.121895 15.525542 17.650803
572 0 1 -3.643065 14.865043 18.255997
573 0 1 -3.677044 14.297843 17.466995
574 0 1 -3.800204 14.190642 16.477402
575 0 1 -4.038044 14.359145 15.608002
576 0 1 -4.575884 13.603744 15.311905
577 0 1 -4.597205 12.874442 14.732605
578 0 1 -5.057244 13.487441 14.113297
579 0 1 -5.733304 12.887443 14.197601
580 0 1 -6.008994 12.788043 15.089706
581 0 1 -5.499764 12.291842 15.632599
582 0 1 -5.485465 11.516543 16.207306
583 0 1 -5.450154 11.768241 17.150101
584 0 1 -6.170405 12.386741 17.330505
585 0 1 -6.040274 12.439044 18.255096
586 0 1 -6.298283 12.465442 19.219208
587 0 1 -6.306275 11.870345 19.968903
588 0 1 -6.159934 11.856345 20.882797
589 0 1 -5.736195 12.714244 20.555496
590 0 1 -4.898884 13.252341 20.550201
591 0 1 -4.736094 12.619143 19.841797
592 0 1 -4.286654 12.493545 19.022797
593 0 1 -4.479784 11.515544 18.774200
594 0 1 -3.552384 11.561141 18.878006
595 0 1 -2.658005 11.154643 19.018799
596 0 1 -3.131634 10.351043 18.996597
597 0 1 -2.922123 9.443172 18.808105
598 0 1 -2.122975 9.502742 19.342896
599 0 1 -1.259844 9.398364 19.870499
600 0 1 -0.961365 8.692363 20.377808
601 0 1 -1.687893 8.636695 20.951004
602 0 1 -1.519194 8.403213 21.879608
603 0 1 -1.434775 8.823714 22.791504
604 0 1 -0.826943 8.327403 23.356812
605 0 1 -0.862213 7.355422 23.478394
606 0 1 -0.307461 6.862093 24.056091
607 0 1 -0.857540 6.342291 24.564697
608 0 1 -1.541874 5.777483 24.293213
609 0 1 -1.856305 4.846152 24.496399
610 0 1 -2.191334 4.741572 25.412292
611 0 1 -2.587264 3.901022 25.668488
612 0 1 -3.245604 4.137541 25.024902
613 0 1 -4.149004 4.296122 24.848297
614 0 1 -5.054545 4.591200 25.113190
615 0 1 -5.710864 3.976172 25.402893
616 0 1 -5.595084 4.026972 24.373993
617 0 1 -6.527005 3.985682 24.275696
618 0 1 -6.695595 4.794154 23.733307
619 0 1 -6.077195 5.236990 23.115204
620 0 1 -5.657013 6.177580 23.118011
621 0 1 -5.426795 7.059950 22.795105
622 0 1 -5.727324 7.034583 21.878906
623 0 1 -5.498614 7.891303 21.601501
624 0 1 -5.062264 8.292815 22.423203
625 0 1 -4.403695 8.124724 23.048584
626 0 1 -4.051014 7.827712 23.932007
627 0 1 -4.780295 8.234904 24.484100
628 0 1 -4.647654 8.129474 25.399506
629 0 1 -4.287095 7.984374 26.305389
630 0 1 -4.034825 7.098280 26.601593
631 0 1 -3.629963 7.723944 27.204712
632 0 1 -3.322834 8.515803 27.671112
633 0 1 -3.638875 7.780364 28.225800
634 0 1 -4.354035 7.379103 28.854187
635 0 1 -3.930974 6.575972 28.428406
636 0 1 -3.967965 6.384551 29.379791
637 0 1 -3.651904 5.477751 29.338104
638 0 1 -2.996455 5.192061 28.625214
639 0 1 -2.345913 5.918963 28.699310
640 0 1 -1.987624 6.680773 29.208099
641 0 1 -1.135004 7.015273 28.890503
642 0 1 -0.286784 6.851054 29.405304
643 0 1 -0.167979 6.899352 30.339294
644 0 1 -0.248953 7.700083 30.970093
645 0 1 -0.600455 7.872900 30.126495
646 0 1 -0.495072 8.651103 30.589508
647 0 1 -0.663512 9.600413 31.048004
648 0 1 0.026661 10.198844 31.369507
649 0 1 -0.234011 11.150344 31.559814
650 0 1 -0.085360 12.124843 31.605194
651 0 1 0.153961 11.734942 30.797485
652 0 1 -0.670491 11.893844 30.200287
653 0 1 -0.309363 12.601642 29.642487
654 0 1 0.245805 11.862441 29.414490
655 0 1 0.256197 11.073344 28.812103
656 0 1 -0.263789 10.408343 29.324707
657 0 1 0.370100 10.412841 30.082001
658 0 1 1.303356 10.228744 29.910492
659 0 1 1.087608 9.667602 30.704895
660 0 1 2.063026 9.624831 30.860291
661 0 1 2.603897 10.040534 30.161499
662 0 1 3.108066 9.165034 30.490692
663 0 1 3.720397 9.767032 30.965393
664 0 1 4.406665 9.458472 31.620392
665 0 1 5.224765 9.916373 31.811798
666 0 1 6.106426 10.118041 31.637390
667 0 1 6.212177 9.835822 32.540283
668 0 1 7.049987 9.546744 32.946503
669 0 1 7.473846 8.776282 32.680206
670 0 1 7.278656 8.002131 33.174896
671 0 1 6.545154 8.185122 33.765015
672 0 1 6.131828 7.924094 34.622192
673 0 1 6.080245 7.307162 35.306000
674 0 1 6.874717 7.811854 35.341797
675 0 1 7.106758 7.249602 36.118713
676 0 1 7.472175 6.459422 36.474396
677 0 1 7.418075 6.661143 37.391693
678 0 1 8.084835 6.972811 38.030609
679 0 1 8.848816 6.636492 37.466309
680 0 1 8.639328 6.331763 36.579285
681 0 1 9.650356 6.494372 36.634399
682 0 1 10.619915 6.568564 36.471405
683 0 1 11.434616 6.941931 36.829895
684 0 1 11.987816 6.726531 36.077789
685 0 1 11.213615 6.954581 35.582214
686 0 1 11.739616 6.826121 34.748993
687 0 1 11.645615 5.954684 35.194397
688 0 1 12.650116 6.209242 35.033386
689 0 1 13.223114 5.459254 35.173004
690 0 1 13.914516 4.843001 34.756897
691 0 1 13.029816 4.412573 34.881897
692 0 1 12.842316 3.478541 34.894592
693 0 1 12.583218 3.494681 33.928802
694 0 1 12.558517 4.397402 33.548798
695 0 1 11.828815 3.833113 33.239105
696 0 1 12.262314 3.099223 32.730011
697 0 1 11.664917 2.937514 32.003510
698 0 1 10.866116 2.939772 32.547607
699 0 1 10.371616 3.752814 32.784790
700 0 1 9.781448 4.119963 33.422913
701 0 1 9.999146 4.921233 32.844910
702 0 1 9.229668 4.661833 32.268188
703 0 1 8.699177 5.433074 32.549316
704 0 1 7.848415 5.537364 32.267792
705 0 1 6.900856 5.504511 31.884003
706 0 1 6.437744 4.618311 31.620789
707 0 1 5.578197 4.661223 31.250610
708 0 1 5.608406 4.752963 30.274811
709 0 1 4.957428 4.052001 30.197815
710 0 1 5.751617 3.556162 30.124207
711 0 1 6.587467 3.274901 30.553711
712 0 1 6.140975 2.435923 30.471008
713 0 1 5.951828 1.872374 31.216187
714 0 1 5.546196 1.437493 32.110199
715 0 1 6.051246 1.837992 32.743713
716 0 1 6.361705 1.079863 33.222107
717 0 1 6.533565 0.253108 33.693909
718 0 1 7.515396 0.277899 33.821808
719 0 1 7.860878 -0.344730 33.219116
720 0 1 8.370094 -0.988698 33.697601
721 0 1 8.539345 -1.440397 34.535889
722 0 1 9.426968 -1.800037 34.448090
723 0 1 10.187218 -2.272998 34.801788
724 0 1 11.079716 -2.430627 35.108704
725 0 1 11.570316 -3.178468 35.391785
726 0 1 11.564514 -4.158567 35.297211
727 0 1 12.125515 -4.885238 35.525909
728 0 1 11.505817 -5.580787 35.549896
729 0 1 10.588318 -5.534067 35.790802
730 0 1 9.712128 -5.184198 35.900085
731 0 1 10.007774 -5.332937 36.820007
732 0 1 9.464546 -4.526138 37.153412
733 0 1 10.158016 -4.384527 37.793610
734 0 1 10.127815 -3.519798 38.155212
735 0 1 9.248127 -3.082578 38.178802
736 0 1 8.677326 -3.423738 38.884613
737 0 1 8.566597 -2.819747 39.585999
738 0 1 8.697186 -2.371107 40.496887
739 0 1 8.173668 -3.166727 40.867798
740 0 1 7.314296 -3.510337 41.134399
741 0 1 6.944255 -4.275838 40.715698
742 0 1 7.147777 -3.671447 39.947906
743 0 1 6.508487 -2.969028 40.136505
744 0 1 6.052906 -2.701877 39.350708
745 0 1 5.441806 -2.872797 38.572296
746 0 1 5.078826 -3.723508 38.860504
747 0 1 5.197635 -4.495058 38.269897
748 0 1 4.669525 -5.202978 38.618988
749 0 1 4.297397 -5.474699 37.818787
750 0 1 4.011615 -5.248537 36.897217
751 0 1 4.466537 -6.027238 36.514191
752 0 1 3.737358 -6.316988 35.941711
753 0 1 3.352855 -7.154518 36.339111
754 0 1 2.853656 -7.724147 36.982391
755 0 1 2.563556 -8.044847 36.100403
756 0 1 1.861305 -7.517026 35.715912
757 0 1 2.095497 -7.117057 36.562988
758 0 1 2.038967 -6.274957 37.121490
759 0 1 1.269895 -5.975898 37.559387
760 0 1 0.414091 -5.455978 37.263184
761 0 1 0.793232 -4.633968 36.903900
762 0 1 0.456926 -3.756767 36.728088
763 0 1 1.011716 -3.025688 36.511688
764 0 1 0.902908 -2.096708 36.644714
765 0 1 1.106256 -1.556108 35.828308
766 0 1 1.253067 -1.649497 34.872406
767 0 1 0.507230 -1.317537 34.413605
768 0 1 -0.034506 -0.688547 34.887604
769 0 1 0.510620 0.033175 34.685608
770 0 1 0.946766 -0.404203 35.436798
771 0 1 1.027485 -0.617626 36.363586
772 0 1 1.693138 -0.067903 36.941803
773 0 1 2.041027 0.789830 36.709290
774 0 1 1.031854 0.726019 36.796814
775 0 1 0.160610 0.401866 36.531403
776 0 1 -0.120186 -0.120401 37.275085
777 0 1 -0.905585 -0.627681 37.019989
778 0 1 -1.357064 -0.539295 36.101410
779 0 1 -2.161314 0.045003 36.202606
780 0 1 -1.416174 0.647343 36.289917
781 0 1 -1.920575 1.222792 35.688995
782 0 1 -1.348944 1.784152 36.308807
783 0 1 -0.808291 2.203562 35.669495
784 0 1 -0.645459 3.163664 35.231903
785 0 1 -0.490086 3.883784 34.595001
786 0 1 0.487764 3.813513 34.811310