LAMMPS data file via MDAnalysis

        2000  atoms
        1999  bonds
           0  angles
           0  dihedrals
           0  impropers

           1  atom types
           1  bond types
           0  angle types
           0  dihedral types
           0  improper types

-30.5 30.5 xlo xhi
-30.5 30.5 ylo yhi
-233.5 233.5 zlo zhi


Masses

1 1.000000

Atoms

1 0 1 -3.987844 15.115371 20.735107
2 0 1 -4.716845 15.383071 20.040695
3 0 1 -5.328085 14.800597 19.603195
4 0 1 -4.990005 15.514068 18.924194
5 0 1 -4.841936 16.510969 18.926300
6 0 1 -5.783297 16.610968 18.723297
7 0 1 -6.318815 16.180571 19.365692
8 0 1 -7.037207 16.301767 18.705093
9 0 1 -7.189825 15.389869 18.626999
10 0 1 -7.809195 14.968200 18.054596
11 0 1 -8.393295 15.299468 17.357208
12 0 1 -8.465494 14.379447 17.082596
13 0 1 -7.760715 13.835689 16.701599
14 0 1 -7.046776 14.470248 16.752899
15 0 1 -7.046335 14.485419 15.768798
16 0 1 -6.702757 13.689330 16.149796
17 0 1 -6.922935 13.250777 16.957596
18 0 1 -7.600975 12.591929 16.780502
19 0 1 -8.114796 12.623981 15.937896
20 0 1 -8.408796 11.762008 15.727904
21 0 1 -7.733986 11.054851 15.967299
22 0 1 -7.150875 11.245170 16.701004
23 0 1 -7.889196 10.785857 17.125504
24 0 1 -8.703196 10.919589 17.675201
25 0 1 -9.109695 11.459010 18.322098
26 0 1 -8.976595 12.363257 18.612595
27 0 1 -9.803194 12.527129 18.072296
28 0 1 -9.655096 13.023368 17.236603
29 0 1 -10.153894 12.493228 16.670593
30 0 1 -10.797094 12.536201 15.852904
31 0 1 -11.732395 12.516009 15.662902
32 0 1 -12.681295 12.250258 15.366897
33 0 1 -12.939396 11.281447 15.362197
34 0 1 -13.250396 11.363650 14.442595
35 0 1 -13.544596 12.227698 14.717696
36 0 1 -13.696695 12.478141 15.656203
37 0 1 -13.379795 12.724441 16.543900
38 0 1 -13.334395 12.759551 17.484695
39 0 1 -13.487096 12.237170 18.223099
40 0 1 -12.793695 12.852839 18.427094
41 0 1 -12.214895 13.484191 18.692703
42 0 1 -12.522595 13.933619 19.417206
43 0 1 -12.701196 14.729499 18.958496
44 0 1 -12.549195 15.604171 19.469208
45 0 1 -13.392196 15.868770 19.871307
46 0 1 -12.707895 16.520067 20.123001
47 0 1 -13.379395 16.904867 19.515305
48 0 1 -12.913896 17.663969 19.924805
49 0 1 -13.135196 18.519567 19.439804
50 0 1 -12.382895 18.856970 19.774200
51 0 1 -12.833296 19.767370 19.619400
52 0 1 -13.139595 20.025068 18.720306
53 0 1 -12.611095 19.603567 18.065903
54 0 1 -12.620695 18.810568 17.451004
55 0 1 -11.978094 18.213869 17.959305
56 0 1 -11.048197 18.509668 17.851196
57 0 1 -10.816896 19.460966 18.033798
58 0 1 -10.593096 19.727068 18.924805
59 0 1 -10.640394 20.424368 19.646896
60 0 1 -10.959196 20.227869 20.577698
61 0 1 -11.051895 21.028067 21.107697
62 0 1 -11.940895 21.336668 21.430603
63 0 1 -11.451494 21.741968 22.198196
64 0 1 -12.021696 21.336767 22.786713
65 0 1 -12.412795 20.776369 23.385010
66 0 1 -11.907797 19.961668 23.380707
67 0 1 -12.686795 19.625669 22.856689
68 0 1 -13.580695 19.475668 23.283600
69 0 1 -14.227596 18.720568 23.329895
70 0 1 -14.414595 17.749067 23.080109
71 0 1 -14.311596 18.075468 22.235703
72 0 1 -13.410995 18.310667 22.138199
73 0 1 -13.088796 17.433767 21.793900
74 0 1 -13.854795 16.945768 22.017197
75 0 1 -13.467996 16.611368 22.922607
76 0 1 -13.911795 17.076967 23.705414
77 0 1 -14.671095 16.516268 23.573395
78 0 1 -15.020996 15.562469 23.740204
79 0 1 -14.772196 14.688270 23.514709
80 0 1 -14.000496 15.251868 23.240387
81 0 1 -14.276796 14.851989 22.448502
82 0 1 -14.963495 14.347861 21.953903
83 0 1 -15.489496 13.639720 22.346497
84 0 1 -15.562996 12.667670 22.335403
85 0 1 -15.755795 12.140998 23.129791
86 0 1 -15.080696 11.996100 23.815796
87 0 1 -14.854696 12.624049 24.542694
88 0 1 -15.736296 12.602431 24.814087
89 0 1 -15.699095 13.285541 24.109192
90 0 1 -15.612896 14.217380 24.345703
91 0 1 -16.310396 14.521758 24.967194
92 0 1 -16.808195 14.784999 25.742798
93 0 1 -16.261295 14.789340 26.541687
94 0 1 -16.975195 14.474368 27.118713
95 0 1 -17.172695 13.604438 26.852295
96 0 1 -16.868496 12.679030 27.109711
97 0 1 -16.866695 12.438369 28.081604
98 0 1 -16.783495 11.673949 28.680908
99 0 1 -16.571995 11.103580 27.934601
100 0 1 -16.514996 10.186889 27.719116
101 0 1 -17.002096 9.831409 26.945190
102 0 1 -17.603395 9.136371 27.072113
103 0 1 -17.336695 9.045779 28.039612
104 0 1 -16.937096 8.760070 28.834900
105 0 1 -16.998095 8.041278 28.300415
106 0 1 -16.164095 8.428119 27.917297
107 0 1 -15.241596 8.655139 28.113403
108 0 1 -15.300896 8.887599 29.095795
109 0 1 -15.568895 9.513110 29.807709
110 0 1 -15.952295 9.372619 30.669586
111 0 1 -15.884596 8.653029 31.311707
112 0 1 -15.119896 8.345328 31.608795
113 0 1 -15.560795 7.600749 31.145294
114 0 1 -15.639095 6.745970 30.678192
115 0 1 -15.581896 7.387930 29.991211
116 0 1 -14.712395 7.060030 30.273987
117 0 1 -14.116196 6.641268 30.969116
118 0 1 -14.480595 6.968977 31.729309
119 0 1 -13.604595 6.659960 31.923187
120 0 1 -12.898795 6.181618 32.490601
121 0 1 -12.059595 6.209729 31.945404
122 0 1 -11.625996 5.515955 31.438202
123 0 1 -11.571896 5.232615 32.436493
124 0 1 -11.221495 4.695864 33.139008
125 0 1 -11.024496 3.823958 33.453308
126 0 1 -10.239294 3.837079 34.086090
127 0 1 -10.670397 4.350941 34.764191
128 0 1 -11.566397 4.101328 35.051300
129 0 1 -11.251995 3.935769 35.966705
130 0 1 -10.582195 4.006388 36.683502
131 0 1 -9.873396 3.531119 37.101196
132 0 1 -10.510096 3.636088 37.815094
133 0 1 -9.998896 4.452170 37.687103
134 0 1 -10.571396 5.019623 37.130493
135 0 1 -11.387896 5.226937 36.656403
136 0 1 -11.389395 6.085206 37.078491
137 0 1 -11.217096 6.961680 37.313416
138 0 1 -11.267796 7.475680 36.500916
139 0 1 -11.976995 8.142230 36.743805
140 0 1 -11.905794 8.254039 37.692200
141 0 1 -11.208296 7.970679 38.323608
142 0 1 -11.762495 8.472629 38.856903
143 0 1 -11.927896 9.387961 38.766693
144 0 1 -12.106396 10.170558 38.179901
145 0 1 -12.571495 9.496840 37.733704
146 0 1 -13.362696 9.735431 37.230713
147 0 1 -14.161596 9.724311 37.758789
148 0 1 -14.253895 10.273089 38.566498
149 0 1 -15.013395 10.775508 38.158295
150 0 1 -15.607895 11.220031 37.549805
151 0 1 -15.083096 10.842521 36.823486
152 0 1 -14.215296 11.102660 36.799805
153 0 1 -13.384995 11.382449 36.362396
154 0 1 -13.883696 11.899848 35.656097
155 0 1 -14.045395 11.666598 34.732300
156 0 1 -13.803895 12.494250 34.297913
157 0 1 -14.442896 12.581588 35.041016
158 0 1 -14.915396 12.780879 34.263306
159 0 1 -15.755295 13.130229 33.906403
160 0 1 -15.294195 13.455367 33.181305
161 0 1 -15.250296 12.749709 32.504303
162 0 1 -14.319195 12.367579 32.265686
163 0 1 -14.534796 12.243991 31.333984
164 0 1 -13.770796 12.837581 31.404694
165 0 1 -13.305196 13.467059 30.891693
166 0 1 -12.686296 13.876369 30.283691
167 0 1 -11.886295 13.322577 30.304596
168 0 1 -11.953695 13.748107 31.222687
169 0 1 -10.985296 13.662368 31.203003
170 0 1 -10.910597 12.942321 30.629700
171 0 1 -10.621096 12.203231 31.170197
172 0 1 -9.704395 12.337180 30.776184
173 0 1 -9.002996 11.780101 30.525299
174 0 1 -8.067196 11.508178 30.464508
175 0 1 -8.309694 10.825419 31.059998
176 0 1 -7.718596 10.406970 31.796906
177 0 1 -7.562716 11.288859 31.735107
178 0 1 -7.110765 12.175017 31.541199
179 0 1 -6.280806 11.695289 31.856293
180 0 1 -5.990425 11.756598 30.944794
181 0 1 -5.306885 11.899589 31.552612
182 0 1 -5.245266 11.810878 32.589600
183 0 1 -5.195436 12.718078 32.443787
184 0 1 -4.319235 12.705668 32.723511
185 0 1 -3.632175 12.054309 32.438599
186 0 1 -4.051245 11.878631 33.253784
187 0 1 -4.276276 12.501678 33.893890
188 0 1 -3.571316 12.914088 34.399506
189 0 1 -2.722645 13.353950 34.374298
190 0 1 -1.842085 13.300620 34.024109
191 0 1 -1.068636 13.147120 34.543884
192 0 1 -0.973436 12.223468 34.774811
193 0 1 -0.368395 11.520419 35.021393
194 0 1 -0.808006 10.780639 35.540588
195 0 1 -1.262985 9.905631 35.699402
196 0 1 -2.097376 10.309989 36.045807
197 0 1 -2.944525 10.686408 35.711792
198 0 1 -3.634787 11.304748 36.207794
199 0 1 -4.161486 11.000808 37.006012
200 0 1 -4.549685 10.952098 37.868713
201 0 1 -4.915636 11.644988 38.431396
202 0 1 -5.740976 11.405898 38.830811
203 0 1 -5.368435 10.690749 39.372498
204 0 1 -4.827415 10.390517 40.082306
205 0 1 -5.634226 10.678378 40.499207
206 0 1 -6.500937 11.095119 40.366211
207 0 1 -6.142546 11.926509 40.051086
208 0 1 -6.947136 12.229228 40.451111
209 0 1 -7.769905 11.787078 40.458710
210 0 1 -8.321795 11.825721 41.223389
211 0 1 -8.638895 11.776629 42.106384
212 0 1 -7.686304 11.634498 42.014313
213 0 1 -7.741205 10.740619 41.730591
214 0 1 -8.086096 10.529040 40.907013
215 0 1 -7.791306 10.780719 40.023712
216 0 1 -7.152605 10.905879 39.355194
217 0 1 -6.752836 10.612899 38.488403
218 0 1 -6.840216 10.867431 37.480804
219 0 1 -6.890554 9.885100 37.535889
220 0 1 -7.426805 9.970351 38.267609
221 0 1 -8.345297 9.867930 37.802612
222 0 1 -8.599695 9.191279 37.210815
223 0 1 -9.144094 9.572810 36.494598
224 0 1 -9.125595 9.593551 35.522888
225 0 1 -8.304695 9.305938 35.944397
226 0 1 -8.062895 8.445098 36.378784
227 0 1 -8.394995 7.856047 37.055695
228 0 1 -8.866196 7.040179 37.327209
229 0 1 -8.089094 6.873190 36.721008
230 0 1 -7.509054 6.822619 36.027008
231 0 1 -7.447294 6.533019 35.110413
232 0 1 -7.255507 7.504557 34.797607
233 0 1 -6.777145 7.735167 35.676300
234 0 1 -6.320807 7.074748 35.195099
235 0 1 -5.760216 7.445269 34.452515
236 0 1 -5.753016 7.240180 33.478790
237 0 1 -6.653955 7.567969 33.500183
238 0 1 -6.806635 6.928347 32.825104
239 0 1 -6.388945 6.149559 33.313690
240 0 1 -6.416624 5.293602 33.754517
241 0 1 -7.152176 5.556170 34.231110
242 0 1 -8.084295 5.341759 34.217407
243 0 1 -8.532896 5.649519 33.379913
244 0 1 -8.127695 5.348750 32.598602
245 0 1 -8.473295 6.149699 32.229187
246 0 1 -8.064295 5.917803 31.413605
247 0 1 -8.475096 5.066655 31.225586
248 0 1 -7.664215 4.949854 30.747589
249 0 1 -6.778175 4.499568 30.676300
250 0 1 -6.621416 3.531579 30.950592
251 0 1 -6.870497 3.459779 29.971191
252 0 1 -7.256516 3.711240 29.071991
253 0 1 -7.865595 2.996289 28.957794
254 0 1 -8.703495 2.349459 28.965302
255 0 1 -8.522196 1.397589 28.855286
256 0 1 -8.603495 1.708869 27.898987
257 0 1 -9.417597 2.080060 27.443787
258 0 1 -10.051596 2.610369 27.838806
259 0 1 -10.809595 2.642628 27.238403
260 0 1 -11.552496 2.473010 26.701202
261 0 1 -11.604895 2.400859 25.776001
262 0 1 -12.003096 2.108279 24.947998
263 0 1 -12.557896 1.492699 24.398590
264 0 1 -11.696695 1.061249 24.584503
265 0 1 -10.940695 0.426999 24.704803
266 0 1 -10.161695 0.828309 24.446503
267 0 1 -10.582094 0.447940 23.694489
268 0 1 -9.646496 0.234858 23.900299
269 0 1 -9.189495 -0.672981 23.949310
270 0 1 -9.057795 -1.104032 23.070007
271 0 1 -8.690895 -1.999822 22.966003
272 0 1 -7.957094 -2.565391 22.819489
273 0 1 -7.280935 -1.894201 22.468399
274 0 1 -7.287235 -0.942951 22.622101
275 0 1 -6.372404 -0.961391 22.242493
276 0 1 -5.920786 -0.495752 21.474304
277 0 1 -5.060825 -0.397592 21.145798
278 0 1 -4.110506 -0.745101 21.314697
279 0 1 -4.775225 -1.441312 21.283295
280 0 1 -4.918924 -1.072912 20.419495
281 0 1 -5.348206 -1.475831 19.619507
282 0 1 -4.859766 -1.843101 18.840897
283 0 1 -5.761415 -2.118242 18.591095
284 0 1 -6.403395 -2.335252 19.345093
285 0 1 -7.272535 -1.963990 19.256805
286 0 1 -7.603725 -2.207990 20.168793
287 0 1 -8.110895 -3.004102 20.318100
288 0 1 -8.942495 -3.252101 20.795105
289 0 1 -9.112295 -4.246791 20.858704
290 0 1 -9.005995 -4.698240 20.028107
291 0 1 -8.369995 -4.649011 19.235001
292 0 1 -8.766794 -5.553930 18.951599
293 0 1 -8.070496 -5.752231 18.365799
294 0 1 -7.825695 -4.848840 18.320297
295 0 1 -7.310385 -5.146032 19.009598
296 0 1 -6.676504 -5.022130 18.352402
297 0 1 -5.792395 -4.581851 18.191605
298 0 1 -5.700245 -4.264831 19.130707
299 0 1 -5.619307 -4.601072 20.051804
300 0 1 -6.176176 -4.773071 20.884598
301 0 1 -6.230085 -5.559530 21.381393
302 0 1 -6.175554 -6.469532 21.199997
303 0 1 -6.372255 -7.428031 21.186707
304 0 1 -5.654425 -7.904031 21.647400
305 0 1 -6.445715 -8.031831 22.230896
306 0 1 -6.976477 -8.684430 22.563110
307 0 1 -7.185804 -9.244031 23.316010
308 0 1 -6.568806 -10.002931 23.522705
309 0 1 -6.587065 -10.811431 23.073090
310 0 1 -7.593824 -10.726830 23.222504
311 0 1 -7.579315 -11.739532 23.411194
312 0 1 -7.912895 -12.600730 23.683105
313 0 1 -8.677496 -12.722131 23.151703
314 0 1 -9.332296 -12.123631 23.572601
315 0 1 -9.486696 -12.357131 24.483795
316 0 1 -10.214094 -11.816430 24.833801
317 0 1 -10.092497 -12.085731 25.763214
318 0 1 -10.611296 -11.904330 26.547485
319 0 1 -10.186796 -10.999230 26.609497
320 0 1 -10.875795 -10.673831 26.022705
321 0 1 -11.032396 -9.721030 25.859009
322 0 1 -12.011896 -9.635931 26.043610
323 0 1 -12.305994 -10.473230 25.827789
324 0 1 -12.958996 -10.608531 25.093384
325 0 1 -13.791096 -10.112131 25.282104
326 0 1 -14.097595 -9.370730 25.848297
327 0 1 -14.828995 -9.316529 25.212189
328 0 1 -14.657396 -8.326032 25.166504
329 0 1 -15.195196 -7.592731 24.853607
330 0 1 -15.723995 -7.348833 25.608612
331 0 1 -15.963596 -8.268031 25.954803
332 0 1 -16.298996 -8.287930 25.108093
333 0 1 -17.240696 -7.925630 24.880798
334 0 1 -17.769196 -8.645532 24.669891
335 0 1 -17.335495 -8.989631 25.502197
336 0 1 -17.522095 -9.914631 25.331909
337 0 1 -18.430096 -10.019131 25.120605
338 0 1 -19.376696 -9.840631 25.110107
339 0 1 -19.670795 -9.843930 26.015289
340 0 1 -20.455996 -9.901731 26.644012
341 0 1 -20.720695 -9.647731 27.537994
342 0 1 -21.687296 -9.700030 27.510590
343 0 1 -21.281796 -8.839231 27.212799
344 0 1 -21.206495 -8.231231 26.500214
345 0 1 -21.209896 -7.978330 25.583008
346 0 1 -21.428295 -8.240130 24.647095
347 0 1 -21.194895 -7.310133 24.706116
348 0 1 -20.320795 -7.355031 25.065887
349 0 1 -19.332996 -7.513032 25.054901
350 0 1 -19.186695 -6.886732 24.331390
351 0 1 -19.080896 -7.012531 23.409790
352 0 1 -18.079796 -6.980031 23.511505
353 0 1 -17.526596 -6.284931 23.939606
354 0 1 -17.960295 -5.709331 23.291992
355 0 1 -18.383696 -4.915330 23.767212
356 0 1 -18.013996 -4.143861 23.336395
357 0 1 -17.659096 -3.485641 23.869690
358 0 1 -17.389296 -2.553960 23.878204
359 0 1 -17.327095 -1.820911 24.438110
360 0 1 -17.110796 -1.394651 25.239105
361 0 1 -16.985296 -0.449571 25.519501
362 0 1 -16.408195 -0.328801 24.789185
363 0 1 -16.215595 0.631089 25.172211
364 0 1 -16.380396 1.163680 26.055786
365 0 1 -16.918495 1.432938 25.231293
366 0 1 -17.743895 1.532929 25.690613
367 0 1 -18.336895 1.314189 26.387299
368 0 1 -18.354595 0.522868 27.020203
369 0 1 -19.003296 0.423138 27.767303
370 0 1 -19.534296 0.763350 28.510406
371 0 1 -19.216696 1.259499 29.305115
372 0 1 -18.638395 0.582530 29.676910
373 0 1 -19.574495 0.502539 29.957306
374 0 1 -19.492395 1.047869 30.738892
375 0 1 -19.386595 0.702010 31.616394
376 0 1 -19.847496 0.011590 31.010101
377 0 1 -20.022095 -0.325662 31.882996
378 0 1 -20.666695 -0.742631 31.310699
379 0 1 -21.192196 -1.143201 31.976196
380 0 1 -21.891695 -1.415801 32.651489
381 0 1 -22.336496 -1.252940 33.519409
382 0 1 -21.695196 -1.939080 33.700897
383 0 1 -22.619696 -2.234660 33.817596
384 0 1 -22.218395 -2.565461 34.668884
385 0 1 -21.708796 -2.908422 35.343689
386 0 1 -20.878895 -2.536990 35.289917
387 0 1 -20.503096 -1.889230 35.965210
388 0 1 -20.891895 -1.456090 35.191101
389 0 1 -19.927696 -1.348232 35.209503
390 0 1 -19.621996 -0.557571 35.739502
391 0 1 -19.695496 -0.344501 34.764404
392 0 1 -19.978195 0.278680 35.399109
393 0 1 -19.569996 1.083548 35.843994
394 0 1 -18.828396 0.860888 36.391602
395 0 1 -18.768295 -0.107002 36.308716
396 0 1 -18.747196 0.054648 35.377289
397 0 1 -18.032495 0.776309 35.491211
398 0 1 -18.399996 0.821210 34.544617
399 0 1 -18.788395 1.186589 33.723083
400 0 1 -18.360495 0.545029 33.186188
401 0 1 -17.886396 -0.212652 32.902710
402 0 1 -17.293995 0.265858 32.185394
403 0 1 -16.503296 0.334599 32.627106
404 0 1 -15.798695 0.393960 33.364990
405 0 1 -16.177595 0.062258 34.195007
406 0 1 -16.457695 0.913949 34.451111
407 0 1 -15.908295 1.650889 34.304291
408 0 1 -14.977095 1.779309 34.116089
409 0 1 -14.773195 1.793189 35.042114
410 0 1 -15.603195 2.012479 35.522003
411 0 1 -15.432196 1.230788 36.045715
412 0 1 -15.687395 0.864339 36.934814
413 0 1 -14.766796 1.172059 37.057892
414 0 1 -13.873795 1.443959 36.790283
415 0 1 -13.876995 0.772469 36.090210
416 0 1 -13.499295 0.106049 36.632507
417 0 1 -13.130896 -0.031572 35.788696
418 0 1 -13.163296 0.708588 35.119812
419 0 1 -13.226095 0.214228 34.308289
420 0 1 -13.102495 -0.714092 34.007202
421 0 1 -12.992195 -1.354451 33.190796
422 0 1 -12.928096 -0.593881 32.601593
423 0 1 -13.326096 -0.549371 31.767792
424 0 1 -13.241495 -1.233831 31.151093
425 0 1 -13.526996 -1.928081 31.687408
426 0 1 -13.227096 -2.357831 30.846497
427 0 1 -12.317495 -2.250531 30.662292
428 0 1 -11.453997 -2.334232 30.341888
429 0 1 -11.091394 -2.270952 29.427002
430 0 1 -10.391596 -2.236890 28.763916
431 0 1 -10.264595 -2.741311 27.976807
432 0 1 -9.425196 -2.822791 27.455811
433 0 1 -10.149496 -2.547570 26.880798
434 0 1 -11.128496 -2.556031 26.850098
435 0 1 -11.468996 -2.038532 26.146484
436 0 1 -10.741695 -1.459361 25.947296
437 0 1 -10.696495 -0.632781 25.496216
438 0 1 -10.050896 0.005879 25.841187
439 0 1 -9.233397 -0.090261 26.284210
440 0 1 -8.413996 -0.172431 25.820984
441 0 1 -8.350996 -1.059470 26.222107
442 0 1 -8.849596 -1.608991 25.650909
443 0 1 -8.975096 -2.498361 25.422791
444 0 1 -8.273895 -3.229171 25.646606
445 0 1 -7.400805 -3.489282 25.947601
446 0 1 -7.859396 -3.168071 26.682404
447 0 1 -7.583586 -4.041511 27.081696
448 0 1 -7.186377 -4.418121 26.354095
449 0 1 -6.795506 -5.136930 26.854889
450 0 1 -6.087645 -5.349231 27.532104
451 0 1 -5.328846 -5.937032 27.255402
452 0 1 -5.760796 -6.840831 27.172394
453 0 1 -6.126085 -7.451730 27.768616
454 0 1 -5.435595 -7.935430 27.258209
455 0 1 -5.932726 -8.596931 27.757111
456 0 1 -5.634346 -9.080831 28.523407
457 0 1 -5.792345 -9.775731 29.124298
458 0 1 -5.761045 -10.467831 28.450592
459 0 1 -4.848736 -10.220931 28.280609
460 0 1 -3.908276 -10.094831 28.207703
461 0 1 -3.370676 -10.231431 29.073212
462 0 1 -3.660965 -10.399731 30.035400
463 0 1 -2.921715 -11.026231 29.894592
464 0 1 -3.112076 -11.943631 29.926392
465 0 1 -2.384455 -12.342330 29.567413
466 0 1 -1.696445 -11.633731 29.449310
467 0 1 -1.831655 -11.664432 28.473389
468 0 1 -1.495806 -10.942431 28.087311
469 0 1 -1.045626 -10.243731 27.558197
470 0 1 -0.516186 -9.519331 27.282104
471 0 1 0.220585 -9.621631 27.923706
472 0 1 0.685995 -8.812831 27.807007
473 0 1 1.149565 -8.113332 28.230896
474 0 1 0.640524 -7.622732 28.898315
475 0 1 0.929415 -8.382230 29.409302
476 0 1 1.321182 -8.449430 30.308105
477 0 1 1.335007 -9.133731 31.048584
478 0 1 2.103128 -9.220031 31.639313
479 0 1 2.297131 -10.083931 31.968597
480 0 1 2.700855 -10.250431 32.841705
481 0 1 2.990597 -9.347631 32.945709
482 0 1 2.941637 -8.972230 33.807098
483 0 1 2.606541 -8.389831 34.465698
484 0 1 3.558744 -8.595830 34.513489
485 0 1 4.088354 -9.402831 34.890015
486 0 1 3.189875 -9.816730 34.835693
487 0 1 3.732893 -10.572031 34.767303
488 0 1 2.959995 -10.869130 35.315887
489 0 1 3.776236 -10.825231 35.794617
490 0 1 4.173716 -10.591631 36.686798
491 0 1 4.122095 -10.894231 37.603790
492 0 1 5.033003 -10.989930 37.815796
493 0 1 5.303614 -11.858130 37.490906
494 0 1 5.149984 -11.767531 36.522583
495 0 1 5.823713 -11.104430 36.339111
496 0 1 6.535383 -11.347831 36.908386
497 0 1 7.013124 -10.883731 36.188904
498 0 1 7.774416 -11.120330 35.663910
499 0 1 7.825624 -11.241431 34.639801
500 0 1 8.357534 -10.541430 34.087006
501 0 1 9.015493 -10.229831 33.507294
502 0 1 9.215223 -10.180330 34.500397
503 0 1 9.438616 -9.514431 35.180908
504 0 1 10.395056 -9.337430 35.385406
505 0 1 11.327993 -9.166631 35.432709
506 0 1 11.247343 -9.431730 34.479401
507 0 1 12.232805 -9.515831 34.593994
508 0 1 11.891417 -8.628831 34.495087
509 0 1 11.959414 -7.898130 33.839203
510 0 1 12.864904 -7.362833 33.992401
511 0 1 12.730204 -7.474031 34.900513
512 0 1 12.521204 -7.941831 35.676910
513 0 1 12.197805 -7.434232 36.461212
514 0 1 12.696806 -7.499330 37.283905
515 0 1 12.588903 -8.383130 36.981689
516 0 1 12.624804 -9.355432 36.892395
517 0 1 11.667807 -9.458031 37.278503
518 0 1 11.924845 -10.059331 38.022797
519 0 1 11.902414 -10.095831 38.971313
520 0 1 12.258005 -9.213031 38.597687
521 0 1 11.785376 -8.622331 38.055511
522 0 1 11.313147 -7.948532 37.550995
523 0 1 10.923334 -7.231130 37.054016
524 0 1 10.811323 -6.617033 36.278503
525 0 1 10.629072 -6.205532 37.126404
526 0 1 10.272894 -5.364732 36.774597
527 0 1 9.904436 -5.382532 35.899414
528 0 1 9.585806 -4.643991 35.227783
529 0 1 9.414465 -3.812490 35.622009
530 0 1 10.253706 -3.726491 36.051605
531 0 1 10.428514 -3.253370 35.209717
532 0 1 10.103365 -2.715402 35.973999
533 0 1 9.222692 -2.584991 35.686096
534 0 1 9.017763 -2.556741 34.699402
535 0 1 8.357313 -2.626951 33.955292
536 0 1 8.473295 -2.489520 33.040192
537 0 1 9.347315 -2.169912 33.192810
538 0 1 10.092676 -2.581352 33.695587
539 0 1 10.652834 -2.567811 32.917694
540 0 1 11.075827 -1.728511 32.959808
541 0 1 11.335245 -2.280252 33.702606
542 0 1 12.195204 -2.582320 33.215088
543 0 1 12.345903 -2.424241 34.142303
544 0 1 11.943254 -3.100551 34.727692
545 0 1 12.669706 -3.540181 35.183105
546 0 1 12.802206 -4.140913 34.449310
547 0 1 13.588305 -3.756360 34.016388
548 0 1 13.378202 -3.065791 34.606598
549 0 1 13.765005 -2.223411 34.843811
550 0 1 13.215506 -1.442670 34.941589
551 0 1 12.422804 -0.913232 35.272095
552 0 1 11.553663 -1.147601 34.818909
553 0 1 11.701216 -1.140201 33.874084
554 0 1 12.321604 -0.573030 33.475006
555 0 1 11.402006 -0.333560 33.137299
556 0 1 11.093603 -0.783311 32.341797
557 0 1 11.828856 -0.588121 31.658691
558 0 1 12.361105 -1.011031 30.983398
559 0 1 12.824903 -0.827062 30.159302
560 0 1 12.642504 -1.048490 29.164886
561 0 1 13.220404 -1.636300 28.630615
562 0 1 13.298803 -2.432201 29.138702
563 0 1 13.736807 -2.757692 28.374908
564 0 1 14.271505 -2.878480 27.572205
565 0 1 13.475306 -3.131891 27.200409
566 0 1 12.904303 -2.524020 26.772186
567 0 1 12.519506 -3.287441 27.180908
568 0 1 12.344404 -4.238931 27.231812
569 0 1 13.154505 -4.269132 27.612793
570 0 1 14.026007 -4.247451 27.224792
571 0 1 14.537703 -3.635450 26.659698
572 0 1 15.455206 -3.600980 27.133698
573 0 1 16.047506 -3.701541 26.365601
574 0 1 16.111506 -3.357311 25.483398
575 0 1 16.457006 -2.920060 24.688690
576 0 1 16.818907 -2.043290 24.413086
577 0 1 16.211706 -1.537202 24.912689
578 0 1 15.814405 -2.034591 24.125793
579 0 1 15.586805 -1.848722 23.176086
580 0 1 15.747404 -1.515752 22.276199
581 0 1 16.182005 -1.101180 21.505600
582 0 1 16.702105 -0.738431 20.752502
583 0 1 16.880705 -1.655551 20.437302
584 0 1 16.780005 -1.895940 19.529999
585 0 1 15.997004 -1.756150 18.944901
586 0 1 16.199705 -1.487592 18.024292
587 0 1 15.780005 -1.583381 17.022003
588 0 1 15.788706 -1.560481 16.098206
589 0 1 14.969404 -1.094392 16.409302
590 0 1 14.975805 -0.807811 15.485198
591 0 1 14.856405 -1.659581 15.025695
592 0 1 14.706903 -1.144962 14.190795
593 0 1 13.784304 -0.824052 13.879302
594 0 1 13.325205 -1.342820 14.577697
595 0 1 13.178503 -1.180181 15.466399
596 0 1 13.240004 -1.940850 16.006805
597 0 1 12.855204 -2.058011 16.860306
598 0 1 13.198805 -2.905492 16.624496
599 0 1 12.905104 -3.583982 15.930099
600 0 1 13.285105 -3.846212 15.134307
601 0 1 13.371206 -4.189691 14.251998
602 0 1 13.783804 -3.309951 14.369903
603 0 1 13.238203 -2.547801 14.168792
604 0 1 12.967604 -2.978292 13.251693
605 0 1 13.751005 -2.462501 12.839202
606 0 1 13.382303 -1.576041 12.977904
607 0 1 12.408506 -1.639001 13.166595
608 0 1 11.798697 -2.029592 13.837707
609 0 1 11.407965 -2.694200 14.545699
610 0 1 10.577394 -2.154121 14.692504
611 0 1 10.950594 -2.192352 15.618102
612 0 1 10.007963 -1.728791 15.522704
613 0 1 10.062265 -1.195661 14.710998
614 0 1 10.720015 -0.578950 15.000503
615 0 1 11.179483 0.077590 15.595992
616 0 1 12.021414 -0.019531 15.109496
617 0 1 12.337805 0.797429 15.434691
618 0 1 12.948606 1.479708 15.793395
619 0 1 12.661306 1.870679 16.606598
620 0 1 12.165403 2.162490 15.859191
621 0 1 11.396513 2.033040 16.420807
622 0 1 11.229765 1.645959 17.263596
623 0 1 11.853773 0.959979 16.923904
624 0 1 11.482023 0.096429 16.841995
625 0 1 11.571493 -0.895162 16.929901
626 0 1 11.037046 -1.325620 17.641495
627 0 1 11.656874 -1.908801 18.126801
628 0 1 12.334604 -1.603700 18.765594
629 0 1 13.069605 -2.181482 18.853195
630 0 1 12.514303 -2.136121 19.707901
631 0 1 12.506407 -1.330100 20.227402
632 0 1 13.174803 -0.910150 19.729401
633 0 1 13.501604 -1.765210 20.090607
634 0 1 13.633204 -2.700422 19.727203
635 0 1 12.919306 -3.009031 20.239807
636 0 1 12.251104 -3.615312 20.510101
637 0 1 11.412035 -3.185800 20.627808
638 0 1 10.973936 -4.026182 20.312805
639 0 1 10.019533 -4.058601 20.188599
640 0 1 10.359613 -4.933931 20.447693
641 0 1 11.271906 -5.093132 20.537506
642 0 1 11.397234 -5.602830 21.327499
643 0 1 12.108164 -5.850931 20.664703
644 0 1 12.989202 -6.166933 21.018402
645 0 1 13.484304 -6.179231 20.238007
646 0 1 12.865904 -6.955631 20.178299
647 0 1 12.590506 -7.842630 20.414093
648 0 1 12.849707 -8.483232 19.708603
649 0 1 12.900404 -8.943730 20.629105
650 0 1 13.633307 -9.321130 20.145599
651 0 1 13.106806 -10.106030 20.315308
652 0 1 13.150106 -11.027631 20.162399
653 0 1 13.920103 -11.626531 20.302399
654 0 1 14.144606 -11.229430 19.397095
655 0 1 14.570704 -11.203530 18.483307
656 0 1 14.152506 -11.129731 17.682800
657 0 1 14.951902 -11.641231 17.683304
658 0 1 15.553404 -11.615031 16.946198
659 0 1 15.221704 -12.140830 16.246002
660 0 1 16.025206 -11.816031 15.829696
661 0 1 15.436403 -11.923930 15.111907
662 0 1 14.835604 -11.487231 14.465194
663 0 1 14.786005 -11.522830 13.560699
664 0 1 15.236605 -10.673731 13.417205
665 0 1 15.477205 -10.795530 12.453795
666 0 1 15.958605 -10.143431 12.049102
667 0 1 15.995306 -9.449831 11.341201
668 0 1 15.383005 -9.437631 10.619399
669 0 1 14.782705 -9.524131 11.376006
670 0 1 14.539904 -10.119031 10.696593
671 0 1 13.977705 -9.481431 10.273192
672 0 1 13.149805 -9.899430 10.522506
673 0 1 13.368105 -9.786731 9.582168
674 0 1 12.488203 -9.921031 9.033797
675 0 1 12.284803 -9.533530 8.228393
676 0 1 12.724005 -8.837430 8.689315
677 0 1 12.585405 -8.292630 7.882552
678 0 1 13.434305 -7.870130 7.615172
679 0 1 14.267504 -8.215131 7.398513
680 0 1 14.753607 -7.441431 7.633574
681 0 1 15.219004 -6.791631 8.186461
682 0 1 14.459604 -6.890031 8.758773
683 0 1 14.815702 -6.174531 9.326446
684 0 1 15.132105 -6.143232 10.158004
685 0 1 15.940004 -6.606531 10.001403
686 0 1 15.455305 -7.342130 10.373794
687 0 1 14.434305 -7.404531 10.337203
688 0 1 14.224005 -7.874231 11.239593
689 0 1 14.312407 -7.027330 11.789596
690 0 1 13.673304 -6.632331 12.390105
691 0 1 14.047903 -5.801931 12.669402
692 0 1 13.820704 -4.970331 13.023696
693 0 1 13.933603 -4.051782 12.826400
694 0 1 13.586004 -4.003782 11.964705
695 0 1 12.639402 -4.204900 12.103393
696 0 1 11.893385 -4.175401 11.473907
697 0 1 11.110716 -4.688680 11.656295
698 0 1 10.699976 -4.163332 11.002501
699 0 1 10.944082 -3.351041 10.469604
700 0 1 10.685724 -2.435901 10.692199
701 0 1 11.064802 -2.280940 9.825255
702 0 1 10.892233 -1.801641 9.018569
703 0 1 11.456003 -2.537820 8.720199
704 0 1 10.888327 -3.342080 8.939971
705 0 1 11.806395 -3.481050 8.609069
706 0 1 12.582907 -3.121232 8.253661
707 0 1 12.963804 -3.108152 9.175521
708 0 1 13.197405 -3.137830 10.120299
709 0 1 13.355703 -2.311610 9.713836
710 0 1 12.747904 -1.593831 9.965545
711 0 1 12.884905 -1.058172 10.807403
712 0 1 12.028833 -0.647031 11.019301
713 0 1 11.524904 -0.294141 10.245696
714 0 1 11.120066 0.263299 10.927199
715 0 1 11.140196 1.155490 10.637893
716 0 1 10.740904 1.431679 11.494094
717 0 1 10.723524 1.955399 12.298995
718 0 1 10.605364 1.225989 12.897399
719 0 1 11.106394 0.592829 12.386306
720 0 1 11.262064 -0.251081 11.822097
721 0 1 10.957014 -0.926111 11.283996
722 0 1 10.314646 -1.577811 11.157302
723 0 1 9.589003 -2.211721 11.242797
724 0 1 8.734365 -1.722970 11.200698
725 0 1 8.426695 -2.035211 10.330001
726 0 1 7.635374 -2.253171 9.874755
727 0 1 7.229216 -3.099702 9.731154
728 0 1 6.590876 -2.387620 9.853637
729 0 1 6.635675 -1.448901 9.568740
730 0 1 6.098253 -1.285180 8.830077
731 0 1 5.527414 -0.574661 8.428863
732 0 1 4.647974 -0.179792 8.565246
733 0 1 4.206575 0.423119 9.198943
734 0 1 3.777494 1.108079 9.686584
735 0 1 2.924696 1.580909 9.721755
736 0 1 2.529232 0.771458 9.378539
737 0 1 1.643309 0.386298 9.221023
738 0 1 1.640185 -0.520391 8.990310
739 0 1 1.493361 -0.865312 9.892425
740 0 1 0.872814 -0.155731 10.219695
741 0 1 0.072886 0.326548 9.860274
742 0 1 -0.609636 0.042449 9.235610
743 0 1 -1.030205 -0.763982 8.927794
744 0 1 -0.390936 -1.220001 8.339889
745 0 1 -0.219536 -1.568502 9.189406
746 0 1 -0.863905 -2.142961 8.844176
747 0 1 -1.269174 -1.983840 9.657866
748 0 1 -2.039425 -2.462442 9.831710
749 0 1 -2.276196 -3.032001 9.019790
750 0 1 -2.511705 -3.149181 8.064956
751 0 1 -2.071005 -3.981000 8.272185
752 0 1 -2.996605 -4.212602 8.068633
753 0 1 -2.634285 -4.971132 8.517257
754 0 1 -2.483746 -5.483831 9.356505
755 0 1 -1.780125 -5.744031 9.928145
756 0 1 -1.678345 -4.882331 9.631454
757 0 1 -0.933374 -4.918531 10.188201
758 0 1 -0.333256 -4.797910 11.029799
759 0 1 0.084984 -3.968862 11.436492
760 0 1 -0.600456 -3.656661 12.106002
761 0 1 -1.203245 -4.293521 12.576705
762 0 1 -1.988365 -4.896631 12.858306
763 0 1 -1.395826 -5.704431 12.817794
764 0 1 -2.016436 -6.271932 12.301803
765 0 1 -1.657556 -6.663930 11.468398
766 0 1 -0.755165 -6.463830 11.623504
767 0 1 -0.234955 -6.480331 12.462905
768 0 1 0.490284 -6.822931 11.941192
769 0 1 0.351565 -6.651731 10.945891
770 0 1 0.677984 -5.768632 10.879394
771 0 1 1.405047 -6.156631 10.438994
772 0 1 2.149208 -6.021532 11.136092
773 0 1 2.115690 -6.517931 11.996596
774 0 1 2.881651 -6.509130 12.517104
775 0 1 2.662668 -6.202531 13.367095
776 0 1 1.690420 -5.775831 13.410003
777 0 1 1.222841 -5.300630 12.706405
778 0 1 1.701885 -4.588731 13.097396
779 0 1 1.473850 -3.746471 12.677093
780 0 1 1.093554 -2.790311 12.743300
781 0 1 1.651327 -2.988651 13.527999