LAMMPS data file via MDAnalysis

        2000  atoms
        1999  bonds
           0  angles
           0  dihedrals
           0  impropers

           1  atom types
           1  bond types
           0  angle types
           0  dihedral types
           0  improper types

-30.5 30.5 xlo xhi
-30.5 30.5 ylo yhi
-233.5 233.5 zlo zhi


Masses

1 1.000000

Atoms

1 0 1 -13.761703 8.553578 51.389709
2 0 1 -13.467103 9.508779 51.527893
3 0 1 -12.564502 9.221280 51.751892
4 0 1 -11.719903 8.817780 51.555603
5 0 1 -11.183103 8.345052 52.225403
6 0 1 -11.479302 7.439038 52.005798
7 0 1 -10.532203 7.364919 52.145599
8 0 1 -10.830003 6.772519 52.877502
9 0 1 -10.258702 6.279630 52.330597
10 0 1 -9.517402 6.052098 51.613190
11 0 1 -10.064301 6.406659 50.792511
12 0 1 -10.680102 5.681520 50.487000
13 0 1 -11.409602 5.884141 51.054688
14 0 1 -12.315402 5.728951 51.162903
15 0 1 -12.312001 4.991090 50.546906
16 0 1 -11.832103 4.527841 51.168213
17 0 1 -12.525702 3.874532 51.249512
18 0 1 -12.400802 3.136689 51.915588
19 0 1 -12.277902 2.564691 52.623901
20 0 1 -13.066802 2.046170 52.917603
21 0 1 -12.936202 2.611451 53.686584
22 0 1 -13.239802 3.588601 53.809387
23 0 1 -14.128402 3.840501 53.544617
24 0 1 -14.275702 2.986840 53.971710
25 0 1 -14.461102 2.083692 54.428497
26 0 1 -15.100102 1.898301 55.109985
27 0 1 -15.200402 2.669980 55.703094
28 0 1 -15.621802 3.524312 55.991608
29 0 1 -15.611102 3.743562 57.009613
30 0 1 -15.979703 4.648690 56.947998
31 0 1 -15.373801 5.309140 56.545898
32 0 1 -15.539002 6.138700 57.007202
33 0 1 -16.410402 6.394441 57.125916
34 0 1 -17.093903 6.193109 56.471191
35 0 1 -17.809803 6.331059 55.824310
36 0 1 -17.726904 7.018659 55.150208
37 0 1 -17.408703 7.281529 54.312805
38 0 1 -17.307003 6.712911 53.604187
39 0 1 -16.516104 7.241101 53.742188
40 0 1 -17.237703 7.650399 53.326416
41 0 1 -17.788403 7.269780 52.568787
42 0 1 -16.870604 7.327191 52.353302
43 0 1 -16.696503 8.346562 52.269592
44 0 1 -16.752302 8.933179 51.527405
45 0 1 -17.404003 8.880681 50.778412
46 0 1 -16.504103 8.573781 50.558716
47 0 1 -15.789203 9.065480 51.027710
48 0 1 -15.333302 9.760880 50.506989
49 0 1 -15.542903 10.379079 51.209991
50 0 1 -14.926702 10.328382 51.921692
51 0 1 -14.136302 10.294080 52.426910
52 0 1 -14.094302 9.509580 52.964996
53 0 1 -13.729503 9.347680 53.801788
54 0 1 -14.237903 8.549481 53.900513
55 0 1 -13.868703 7.805692 54.452515
56 0 1 -13.025002 8.345841 54.280884
57 0 1 -12.142402 8.758679 54.126709
58 0 1 -12.542703 9.596082 54.044708
59 0 1 -12.801702 10.489980 54.206787
60 0 1 -13.653401 10.433080 54.647705
61 0 1 -13.107303 10.045480 55.342590
62 0 1 -12.797002 9.768079 56.276794
63 0 1 -12.444001 10.348981 56.990387
64 0 1 -13.237403 10.824182 57.161316
65 0 1 -13.172603 11.449380 56.334503
66 0 1 -12.678802 12.215680 56.647095
67 0 1 -12.327203 12.245580 57.597290
68 0 1 -11.664802 12.783280 57.147705
69 0 1 -11.594401 13.767781 57.107483
70 0 1 -10.861503 14.243081 57.520111
71 0 1 -9.925902 14.456780 57.355408
72 0 1 -9.760701 14.703877 56.384491
73 0 1 -8.759302 14.670583 56.471985
74 0 1 -8.835502 14.884580 57.450104
75 0 1 -7.843803 14.815980 57.476807
76 0 1 -7.401702 14.103681 58.014893
77 0 1 -6.708602 14.202580 57.317413
78 0 1 -6.151103 14.253079 58.158813
79 0 1 -6.331703 15.163480 57.968292
80 0 1 -5.938102 15.248578 57.115509
81 0 1 -5.047504 15.400083 57.462585
82 0 1 -5.165702 14.508283 57.011108
83 0 1 -5.713903 13.776982 57.358704
84 0 1 -5.135303 13.047078 57.476013
85 0 1 -5.595003 12.198781 57.577911
86 0 1 -6.316103 11.860181 58.234589
87 0 1 -6.297702 12.728482 58.579803
88 0 1 -5.897302 12.180680 59.240601
89 0 1 -6.305301 11.480081 59.777710
90 0 1 -6.999004 11.386182 60.442017
91 0 1 -6.718603 11.850480 61.302002
92 0 1 -6.022804 11.108579 61.169189
93 0 1 -5.300102 11.516679 61.608002
94 0 1 -4.461002 11.242581 61.317688
95 0 1 -4.651002 10.614179 60.601990
96 0 1 -3.800803 10.219979 60.788086
97 0 1 -3.485801 9.342778 60.501099
98 0 1 -2.659322 9.273480 60.002899
99 0 1 -1.753763 9.041883 59.813507
100 0 1 -1.527912 9.882981 60.209991
101 0 1 -1.007503 10.539781 60.712097
102 0 1 -1.391643 11.328980 60.273590
103 0 1 -1.297252 11.377080 59.306885
104 0 1 -1.605453 10.895581 58.527191
105 0 1 -2.422773 10.385880 58.384003
106 0 1 -2.354034 9.609578 57.815002
107 0 1 -2.857581 9.067182 57.203613
108 0 1 -3.212444 8.789578 56.403412
109 0 1 -3.999202 8.350091 56.037598
110 0 1 -4.193403 8.510880 55.040009
111 0 1 -4.329002 8.511682 54.033600
112 0 1 -4.192003 7.612771 54.549591
113 0 1 -3.659953 6.962712 54.083191
114 0 1 -3.116012 6.153611 53.894196
115 0 1 -2.571862 5.456910 53.528503
116 0 1 -3.076873 4.970250 52.923584
117 0 1 -3.811902 4.400910 52.982788
118 0 1 -3.812402 4.165921 52.028412
119 0 1 -4.364902 4.885770 51.582703
120 0 1 -3.567111 5.293031 51.431488
121 0 1 -3.756803 5.074929 50.487793
122 0 1 -4.069303 5.393659 49.588593
123 0 1 -4.726402 4.991132 49.025909
124 0 1 -4.041503 4.593080 48.474701
125 0 1 -3.842101 5.537831 48.383484
126 0 1 -3.710202 6.506970 48.666687
127 0 1 -3.342742 7.212560 49.250916
128 0 1 -2.706401 6.946069 48.552704
129 0 1 -3.002342 7.665841 47.939789
130 0 1 -3.521663 8.367902 47.487000
131 0 1 -2.846553 8.810979 46.934814
132 0 1 -1.981063 9.274579 47.107788
133 0 1 -1.643031 9.551679 48.028809
134 0 1 -0.813312 9.109578 48.059601
135 0 1 -1.059472 8.446332 48.742401
136 0 1 -1.560771 8.036592 49.474792
137 0 1 -0.924833 7.397080 49.770996
138 0 1 -0.129663 7.690961 50.355591
139 0 1 0.478358 7.792500 51.141602
140 0 1 -0.498523 7.633019 51.389313
141 0 1 -1.329973 7.132810 51.252808
142 0 1 -1.899211 6.922940 52.067902
143 0 1 -2.695302 6.406270 52.362610
144 0 1 -3.203912 7.140782 52.677887
145 0 1 -3.246272 8.038831 52.996399
146 0 1 -2.452552 8.106252 53.544617
147 0 1 -1.870323 7.684880 52.953888
148 0 1 -2.038482 8.610082 52.735504
149 0 1 -2.110431 9.199681 53.491089
150 0 1 -1.711631 8.522481 54.125916
151 0 1 -0.937972 8.047891 53.763794
152 0 1 -0.389182 7.689431 53.099701
153 0 1 0.398057 7.237771 53.446594
154 0 1 1.177798 7.003701 53.967499
155 0 1 1.811059 7.301240 53.306091
156 0 1 1.753617 6.333692 53.169495
157 0 1 2.557927 5.886022 53.565796
158 0 1 3.119649 5.080060 53.545502
159 0 1 2.794839 4.235650 53.163300
160 0 1 1.884617 4.016252 52.922607
161 0 1 1.761967 3.739320 53.833588
162 0 1 1.152327 3.504109 54.519012
163 0 1 0.745057 2.665639 54.908386
164 0 1 0.470647 3.131570 55.727783
165 0 1 0.723187 4.098191 55.759399
166 0 1 1.113337 3.923970 56.617096
167 0 1 1.988337 3.780160 56.998413
168 0 1 1.425948 3.405210 57.741699
169 0 1 1.456578 2.551969 57.373413
170 0 1 1.729258 1.637212 57.049194
171 0 1 0.855027 1.714398 56.648895
172 0 1 0.162318 1.363172 57.213013
173 0 1 -0.586843 1.300832 57.810486
174 0 1 -1.516702 1.089231 58.089508
175 0 1 -1.210943 0.175591 58.312500
176 0 1 -1.191852 -0.510459 59.030609
177 0 1 -1.631954 -1.404599 58.975494
178 0 1 -2.615493 -1.133496 59.310791
179 0 1 -3.270252 -1.826737 59.544403
180 0 1 -2.884813 -1.925292 60.464111
181 0 1 -2.853221 -2.748530 60.976593
182 0 1 -1.977844 -3.179780 60.871490
183 0 1 -1.819171 -4.106120 60.631409
184 0 1 -1.581893 -4.234439 59.646790
185 0 1 -1.377384 -3.298511 59.643188
186 0 1 -0.782213 -2.622380 59.367615
187 0 1 -0.374202 -2.574929 58.488098
188 0 1 -0.319232 -3.181899 57.764313
189 0 1 -0.361972 -4.119029 57.280792
190 0 1 0.129567 -4.912900 57.117096
191 0 1 0.811337 -4.636729 57.692108
192 0 1 1.176457 -5.382979 57.243103
193 0 1 1.050368 -6.227830 57.682892
194 0 1 0.393208 -6.479709 56.960297
195 0 1 0.654767 -6.740180 56.094513
196 0 1 1.509028 -7.306180 56.229706
197 0 1 2.437358 -6.939811 56.418793
198 0 1 3.332417 -6.736899 56.275909
199 0 1 4.297148 -6.994639 56.566010
200 0 1 4.480868 -6.014920 56.666412
201 0 1 5.261227 -5.743520 57.210083
202 0 1 4.597447 -6.108180 57.822998
203 0 1 5.108767 -6.902850 57.613190
204 0 1 5.251488 -6.867330 58.567993
205 0 1 4.953328 -7.759570 58.895905
206 0 1 4.765847 -8.025939 57.953308
207 0 1 4.386378 -8.654910 58.549103
208 0 1 4.828858 -9.442401 58.865784
209 0 1 4.200947 -9.860190 58.208710
210 0 1 4.479357 -10.099830 57.351501
211 0 1 5.084017 -10.882300 57.167999
212 0 1 5.779990 -10.296309 57.394806
213 0 1 5.957301 -10.682790 58.247894
214 0 1 6.696896 -10.686490 58.812317
215 0 1 6.754626 -10.114320 59.622101
216 0 1 7.580758 -10.724410 59.576904
217 0 1 8.075459 -9.899581 59.367096
218 0 1 8.722718 -9.204070 59.371307
219 0 1 8.079007 -8.576240 59.780304
220 0 1 8.358529 -9.155190 60.475586
221 0 1 8.917970 -8.273250 60.459412
222 0 1 8.940240 -8.516030 61.359406
223 0 1 8.738317 -9.053330 62.107391
224 0 1 9.118649 -9.819850 62.468597
225 0 1 9.330709 -10.690700 62.167908
226 0 1 9.327386 -11.470429 62.699097
227 0 1 9.139787 -11.654319 63.634003
228 0 1 8.237527 -11.353620 63.674103
229 0 1 8.022630 -12.058421 63.043396
230 0 1 7.372258 -12.703420 62.805389
231 0 1 7.070471 -12.862319 61.902496
232 0 1 6.864010 -13.815021 61.820404
233 0 1 7.464577 -14.445020 61.342987
234 0 1 7.202088 -13.965119 60.541504
235 0 1 6.603129 -14.132020 59.791412
236 0 1 5.909255 -14.385619 60.385590
237 0 1 4.991198 -14.670619 60.393005
238 0 1 4.391518 -14.132319 60.969696
239 0 1 4.599518 -13.533221 61.698303
240 0 1 4.791777 -12.642520 61.864594
241 0 1 3.896197 -12.451819 61.996887
242 0 1 3.280728 -12.088920 61.427795
243 0 1 2.337727 -12.167720 61.549713
244 0 1 2.349587 -13.075419 61.944702
245 0 1 2.996487 -13.681920 61.682190
246 0 1 3.477868 -14.592921 61.605804
247 0 1 3.992268 -15.348319 61.436707
248 0 1 4.826397 -15.836619 61.265900
249 0 1 5.234927 -16.618420 61.694794
250 0 1 5.917946 -17.037119 62.278198
251 0 1 5.088757 -17.542519 62.297485
252 0 1 5.425457 -18.052118 63.057892
253 0 1 5.873816 -18.921318 62.951904
254 0 1 6.457203 -18.703018 62.215210
255 0 1 7.237946 -19.238419 62.304901
256 0 1 8.018468 -19.716518 62.419617
257 0 1 8.532647 -20.178120 63.057800
258 0 1 9.245446 -20.801418 63.279907
259 0 1 9.266809 -21.653818 62.824005
260 0 1 10.071580 -21.240818 62.381287
261 0 1 10.759019 -21.431419 61.729492
262 0 1 9.901677 -21.385118 61.218109
263 0 1 9.203927 -20.903219 61.698212
264 0 1 8.756227 -21.028019 60.839905
265 0 1 8.333699 -20.989119 59.999695
266 0 1 8.923089 -21.659519 59.691284
267 0 1 8.468587 -22.142220 60.414917
268 0 1 7.570017 -21.952719 60.714996
269 0 1 6.770714 -22.275219 60.375610
270 0 1 7.513358 -22.123619 59.723511
271 0 1 6.982472 -21.750420 59.094604
272 0 1 6.560771 -21.085119 58.611511
273 0 1 5.704497 -20.926218 58.287201
274 0 1 4.761038 -21.155519 58.347412
275 0 1 4.115448 -20.710119 57.845612
276 0 1 3.212388 -20.922018 58.252594
277 0 1 2.219268 -21.057219 58.496399
278 0 1 1.259667 -20.791719 58.570099
279 0 1 0.469597 -21.133120 58.940491
280 0 1 0.384907 -21.577719 58.103607
281 0 1 0.355076 -21.452019 57.097107
282 0 1 -0.139482 -22.162319 57.489502
283 0 1 -0.650503 -22.916319 57.510986
284 0 1 -1.006023 -23.661718 57.032196
285 0 1 -1.572711 -22.919819 56.765411
286 0 1 -2.122253 -22.713820 55.974701
287 0 1 -1.507663 -21.997219 55.762512
288 0 1 -1.150503 -21.176218 55.323792
289 0 1 -0.752462 -21.316519 54.449005
290 0 1 -0.473773 -20.589418 53.877014
291 0 1 -0.225063 -20.542118 52.914795
292 0 1 -1.104322 -20.104420 52.917114
293 0 1 -1.684223 -19.347818 52.498810
294 0 1 -1.653562 -19.805319 51.677307
295 0 1 -2.379203 -20.224619 51.290710
296 0 1 -2.921104 -19.984518 50.534698
297 0 1 -2.633163 -19.462219 49.831390
298 0 1 -3.476932 -19.574619 49.393707
299 0 1 -4.053401 -19.305819 48.691193
300 0 1 -3.296024 -19.215719 47.929688
301 0 1 -3.761003 -20.029419 47.826508
302 0 1 -4.173301 -20.561218 47.044983
303 0 1 -4.259101 -21.299818 46.417114
304 0 1 -4.778701 -21.907120 46.957489
305 0 1 -5.147302 -22.404320 47.738098
306 0 1 -4.880203 -23.290718 47.582489
307 0 1 -4.092702 -22.908718 47.115112
308 0 1 -3.684501 -23.600618 47.749695
309 0 1 -3.654163 -23.910419 46.875610
310 0 1 -3.219363 -23.478819 46.043488
311 0 1 -2.714492 -23.628418 45.198914
312 0 1 -2.416183 -23.236919 44.398987
313 0 1 -1.875903 -22.998619 43.653198
314 0 1 -2.129382 -22.973019 42.705505
315 0 1 -1.288942 -23.456518 42.788788
316 0 1 -1.052472 -24.312920 43.184204
317 0 1 -1.654203 -24.833519 42.548798
318 0 1 -1.355962 -25.807219 42.269897
319 0 1 -0.569353 -25.637018 42.839813
320 0 1 -0.250533 -26.113718 42.058594
321 0 1 -0.043434 -26.013418 41.129395
322 0 1 0.075596 -26.202820 40.203613
323 0 1 0.942486 -26.064419 39.750183
324 0 1 1.418868 -25.594318 40.525513
325 0 1 2.175448 -25.963120 40.049103
326 0 1 2.645158 -26.373219 40.806702
327 0 1 3.422168 -25.792118 40.958893
328 0 1 4.347998 -26.099018 40.730499
329 0 1 4.072068 -26.576220 39.931702
330 0 1 4.859747 -27.005018 39.532898
331 0 1 5.338479 -26.454519 40.228699
332 0 1 6.060881 -26.709419 39.632111
333 0 1 6.941613 -26.713120 39.999603
334 0 1 7.626107 -26.160818 39.717590
335 0 1 8.459718 -26.583220 39.413086
336 0 1 9.387788 -26.647419 39.461212
337 0 1 10.063588 -26.733620 40.161194
338 0 1 9.920209 -25.911419 40.701691
339 0 1 10.335519 -25.316618 41.335297
340 0 1 10.307187 -24.434118 40.876190
341 0 1 10.692437 -23.676218 41.423584
342 0 1 11.222028 -22.950418 41.141785
343 0 1 11.243817 -23.218920 40.200897
344 0 1 10.916108 -23.814819 39.505493
345 0 1 11.308137 -24.049719 38.677887
346 0 1 10.611718 -23.674519 38.203491
347 0 1 11.263436 -23.062220 37.973206
348 0 1 10.709828 -22.790018 37.296814
349 0 1 10.794816 -22.080818 36.568695
350 0 1 11.572160 -21.769718 36.209808
351 0 1 11.575128 -22.066519 35.297394
352 0 1 10.772679 -21.698118 34.838013
353 0 1 10.242726 -21.038519 35.226105
354 0 1 9.700379 -21.025318 34.467712
355 0 1 9.150117 -21.644520 34.768616
356 0 1 8.568299 -21.291519 34.051605
357 0 1 7.677708 -21.722319 33.879517
358 0 1 7.125754 -22.505018 33.795197
359 0 1 6.920502 -23.290520 34.329803
360 0 1 7.186949 -24.079119 34.745483
361 0 1 7.204735 -25.068319 34.528900
362 0 1 6.647999 -24.880819 35.339508
363 0 1 5.995373 -24.540319 35.923889
364 0 1 6.714720 -24.333519 36.619293
365 0 1 5.923073 -24.095819 36.980011
366 0 1 5.811814 -23.980619 37.880493
367 0 1 6.587248 -23.579519 38.248108
368 0 1 6.486401 -22.890018 38.887695
369 0 1 6.374526 -22.568619 39.787292
370 0 1 6.676674 -21.700819 39.413086
371 0 1 7.081923 -21.501120 40.326904
372 0 1 7.813258 -20.900120 40.251190
373 0 1 8.678918 -20.620319 39.928101
374 0 1 9.491879 -20.048618 39.923889
375 0 1 10.111619 -20.212519 39.197205
376 0 1 11.017976 -20.211920 38.975494
377 0 1 10.846459 -21.160019 38.994293
378 0 1 10.790929 -21.485619 38.045807
379 0 1 9.985936 -21.712420 38.526001
380 0 1 9.220887 -21.416019 37.968597
381 0 1 9.592866 -20.674919 38.429291
382 0 1 10.499978 -20.352619 38.178711
383 0 1 10.276116 -19.366619 38.292694
384 0 1 9.338437 -19.562618 38.331604
385 0 1 9.542268 -19.417719 37.421997
386 0 1 8.797029 -18.857119 37.601685
387 0 1 7.878197 -19.025518 37.395386
388 0 1 8.458898 -19.839918 37.143005
389 0 1 7.673428 -20.377819 36.910095
390 0 1 6.951546 -20.853918 36.605499
391 0 1 6.110514 -20.988218 36.157196
392 0 1 5.665230 -21.834120 36.435486
393 0 1 5.781296 -22.596119 35.886597
394 0 1 5.913628 -23.520319 35.546387
395 0 1 5.415665 -23.281618 34.795898
396 0 1 5.405903 -23.520319 33.833710
397 0 1 5.009068 -23.945318 33.029205
398 0 1 4.548888 -24.278818 32.216187
399 0 1 4.034577 -24.825218 32.748413
400 0 1 3.459817 -24.816919 32.009003
401 0 1 2.627167 -24.377018 31.654694
402 0 1 3.367848 -24.179718 30.911804
403 0 1 3.038918 -23.648619 30.165710
404 0 1 3.014237 -23.947918 29.269592
405 0 1 2.188397 -23.501619 29.423187
406 0 1 2.852137 -22.852219 29.476501
407 0 1 2.380189 -22.209120 28.945801
408 0 1 2.979817 -21.604019 28.607513
409 0 1 3.062197 -21.171820 29.437195
410 0 1 2.486027 -20.402020 29.562592
411 0 1 3.178708 -19.721619 29.900513
412 0 1 2.937558 -18.858419 29.491089
413 0 1 2.119628 -18.811619 28.929504
414 0 1 2.577418 -17.872019 28.863892
415 0 1 2.134848 -17.864220 28.053497
416 0 1 2.549388 -17.224119 27.501801
417 0 1 2.325007 -16.352219 27.905212
418 0 1 2.445477 -15.820020 28.722412
419 0 1 2.692048 -15.125920 29.401489
420 0 1 1.958727 -15.595620 29.677887
421 0 1 1.432898 -14.833919 29.867188
422 0 1 1.452458 -14.199920 29.159485
423 0 1 1.077887 -13.256019 29.150391
424 0 1 1.496247 -12.908120 28.402893
425 0 1 1.080668 -13.668120 28.042297
426 0 1 0.260728 -13.186620 28.319489
427 0 1 0.106078 -14.110320 28.552185
428 0 1 -0.657092 -14.213321 29.138092
429 0 1 -0.702302 -15.052821 29.752686
430 0 1 -0.338462 -14.704619 30.638794
431 0 1 0.148787 -13.893821 30.978699
432 0 1 -0.494962 -13.737319 31.695312
433 0 1 -1.460992 -13.858720 31.794006
434 0 1 -1.490713 -13.375121 32.589203
435 0 1 -2.393132 -12.922919 32.677795
436 0 1 -2.955901 -13.720420 32.781311
437 0 1 -3.233363 -13.700919 33.686188
438 0 1 -3.615932 -12.827519 33.644989
439 0 1 -3.147113 -12.147319 34.157990
440 0 1 -2.257972 -11.831019 33.921814
441 0 1 -1.489112 -12.318721 33.695496
442 0 1 -0.813173 -11.727519 33.970215
443 0 1 -0.091432 -11.131968 34.314514
444 0 1 0.593918 -11.731620 34.527893
445 0 1 1.085766 -10.951760 34.698212
446 0 1 1.732058 -10.259459 34.536011
447 0 1 2.475188 -9.810250 34.934601
448 0 1 2.846848 -8.997849 34.509216
449 0 1 1.939397 -8.999030 34.094208
450 0 1 1.424946 -8.652249 33.324799
451 0 1 0.811467 -8.092130 32.852905
452 0 1 1.249299 -7.694779 32.113800
453 0 1 0.330308 -8.054990 31.883087
454 0 1 0.611249 -7.228650 31.509888
455 0 1 0.331727 -6.843261 30.666107
456 0 1 0.128947 -6.570020 29.758911
457 0 1 -0.582092 -7.156920 29.516693
458 0 1 -0.856662 -6.831960 28.611908
459 0 1 -1.669532 -7.328420 28.645508
460 0 1 -2.097942 -8.128770 28.343689
461 0 1 -1.801893 -9.011889 28.152008
462 0 1 -1.308631 -8.983060 27.327911
463 0 1 -1.148452 -8.849820 26.379303
464 0 1 -1.604062 -9.541680 25.859589
465 0 1 -1.717042 -10.283120 25.263306
466 0 1 -1.819244 -10.966819 24.558502
467 0 1 -2.557563 -10.877688 23.922913
468 0 1 -2.219922 -11.773021 24.125214
469 0 1 -2.239452 -12.692620 24.013916
470 0 1 -2.807002 -13.189319 23.378204
471 0 1 -2.502033 -13.275020 22.458008
472 0 1 -2.098832 -12.313720 22.235306
473 0 1 -2.406722 -11.424970 22.294601
474 0 1 -2.154252 -10.781230 21.615005
475 0 1 -2.332523 -9.912459 22.103195
476 0 1 -2.488193 -9.003400 21.808594
477 0 1 -1.914192 -9.290389 21.067001
478 0 1 -1.423322 -8.552369 21.487793
479 0 1 -1.779622 -8.278090 20.552002
480 0 1 -2.578384 -8.055961 20.123901
481 0 1 -3.479882 -8.169589 19.748398
482 0 1 -4.264003 -7.990020 19.103394
483 0 1 -4.602104 -7.236680 18.596802
484 0 1 -4.871402 -6.611920 17.896805
485 0 1 -5.000303 -5.716739 17.566803
486 0 1 -5.700403 -5.336930 17.034393
487 0 1 -5.807601 -4.581920 16.486496
488 0 1 -6.707702 -4.749530 16.766907
489 0 1 -7.233001 -4.428130 17.544006
490 0 1 -7.879604 -4.909310 17.934998
491 0 1 -7.921503 -5.421990 17.013306
492 0 1 -8.005301 -6.274930 16.469604
493 0 1 -8.878802 -5.889010 16.231995
494 0 1 -9.138502 -5.102870 16.907394
495 0 1 -9.633302 -4.642539 17.568405
496 0 1 -10.115703 -4.103940 18.205994
497 0 1 -10.485002 -3.207810 18.419708
498 0 1 -10.359302 -2.269984 18.283203
499 0 1 -10.222503 -1.309300 18.398895
500 0 1 -9.968701 -0.835936 17.593903
501 0 1 -9.379402 -1.406346 17.041794
502 0 1 -9.496202 -1.955869 17.826996
503 0 1 -8.688202 -1.968976 18.337402
504 0 1 -8.001903 -1.424851 18.967896
505 0 1 -7.439502 -0.700475 18.991699
506 0 1 -7.783403 -0.977136 19.870300
507 0 1 -7.923202 0.000482 19.587708
508 0 1 -6.927303 0.169431 19.379196
509 0 1 -6.004802 0.116670 19.792404
510 0 1 -5.860004 1.032342 19.906494
511 0 1 -6.128501 1.893128 20.182602
512 0 1 -6.707002 2.227071 20.852509
513 0 1 -6.795703 3.126592 20.577896
514 0 1 -6.393203 4.009160 20.718506
515 0 1 -6.927001 4.761720 20.996597
516 0 1 -7.817604 4.962468 21.261703
517 0 1 -7.745803 5.882619 21.063904
518 0 1 -6.909004 6.421941 20.946503
519 0 1 -6.430301 7.032681 20.411301
520 0 1 -6.324703 7.194570 19.458298
521 0 1 -6.613601 8.036969 19.084808
522 0 1 -6.421302 8.959680 18.959991
523 0 1 -6.990604 9.557782 19.517792
524 0 1 -7.139404 10.087380 18.729401
525 0 1 -7.380802 10.769979 18.096603
526 0 1 -6.947902 10.379380 17.258896
527 0 1 -6.758602 10.276879 16.368896
528 0 1 -7.349903 9.632081 15.974304
529 0 1 -7.017002 9.569081 15.067795
530 0 1 -6.338502 10.046880 14.548294
531 0 1 -6.237503 9.487679 13.698593
532 0 1 -5.322303 9.742879 13.353897
533 0 1 -4.564102 9.828179 13.944107
534 0 1 -4.380002 8.987580 13.541306
535 0 1 -3.583133 9.352582 13.095505
536 0 1 -2.806033 8.957780 12.693604
537 0 1 -2.843513 8.076650 13.142593
538 0 1 -3.300113 7.242249 12.916306
539 0 1 -3.722402 7.535760 13.780502
540 0 1 -3.709502 8.088742 14.553497
541 0 1 -4.675502 8.198812 14.766998
542 0 1 -4.962402 7.822400 13.899200
543 0 1 -4.787202 6.936051 14.165604
544 0 1 -4.017303 6.370919 13.924194
545 0 1 -3.136302 6.660588 14.255905
546 0 1 -2.638322 7.266721 14.826004
547 0 1 -2.095443 8.103269 14.971603
548 0 1 -1.949302 7.447148 15.675400
549 0 1 -1.546312 7.121011 16.546097
550 0 1 -1.220313 6.330312 16.964706
551 0 1 -1.347852 5.408162 16.911102
552 0 1 -0.550372 4.883641 16.894592
553 0 1 0.359797 4.889031 17.193207
554 0 1 0.898007 4.109361 17.324203
555 0 1 1.254616 4.755559 17.910400
556 0 1 0.927878 4.774850 18.879303
557 0 1 1.053677 3.880052 18.793304
558 0 1 1.745108 3.273820 19.038406
559 0 1 2.606168 3.673459 19.313705
560 0 1 2.916028 3.835408 18.420197
561 0 1 3.163357 2.922311 18.189804
562 0 1 4.086157 2.936261 18.386902
563 0 1 4.408967 2.108811 18.033508
564 0 1 3.991887 1.331559 18.199203
565 0 1 3.807557 0.329789 18.181000
566 0 1 3.605757 0.769891 17.294601
567 0 1 2.848027 1.346929 17.355194
568 0 1 2.251078 0.566381 17.513901
569 0 1 2.915417 -0.034430 17.772491
570 0 1 3.602267 -0.792781 17.859406
571 0 1 2.798857 -1.185615 18.106903
572 0 1 3.269028 -2.059405 18.148300
573 0 1 2.846728 -2.495641 18.821808
574 0 1 1.973199 -2.317929 19.403992
575 0 1 1.709387 -2.464688 18.458405
576 0 1 0.815898 -2.637910 18.174500
577 0 1 0.324887 -3.042270 17.347992
578 0 1 0.178738 -3.689811 16.617294
579 0 1 -0.658792 -3.876510 16.139297
580 0 1 -1.080783 -3.035090 15.914093
581 0 1 -0.703643 -2.850280 16.839798
582 0 1 -1.286512 -2.067964 16.817001
583 0 1 -0.355033 -2.050023 17.224594
584 0 1 -0.202442 -1.836085 18.199402
585 0 1 -0.899433 -1.620780 18.920303
586 0 1 -0.484722 -0.787749 18.606598
587 0 1 -0.052352 -1.223825 19.402405
588 0 1 0.735907 -1.812287 19.726700
589 0 1 1.079678 -1.056951 20.135605
590 0 1 1.035138 -0.270900 19.536896
591 0 1 0.679738 -0.704232 18.727295
592 0 1 0.497637 0.285699 18.801605
593 0 1 0.877099 1.129571 19.028397
594 0 1 -0.020343 1.086831 19.187195
595 0 1 -0.674983 1.478070 19.755402
596 0 1 -0.701633 1.881509 18.869003
597 0 1 -0.729812 2.724591 18.436707
598 0 1 -0.924522 3.624799 18.692505
599 0 1 -1.764682 3.999608 18.510101
600 0 1 -2.113094 4.177701 19.345200
601 0 1 -1.941512 4.857179 20.026505
602 0 1 -1.007072 5.168740 20.223495
603 0 1 -0.237052 4.727120 19.928192
604 0 1 -0.921234 4.110990 20.294495
605 0 1 -1.659482 4.154622 20.827896
606 0 1 -2.191762 3.485269 21.304993
607 0 1 -2.677093 3.992349 21.941605
608 0 1 -3.135602 4.037271 21.094406
609 0 1 -4.050903 4.228261 21.212296
610 0 1 -4.454902 3.688130 20.605698
611 0 1 -5.140903 3.258691 20.048492
612 0 1 -5.395603 2.816331 20.822205
613 0 1 -4.562904 2.401879 21.100906
614 0 1 -4.006103 2.208200 21.908798
615 0 1 -4.173702 1.886880 22.846588
616 0 1 -4.074703 1.517041 23.778809
617 0 1 -4.355102 2.102239 24.556488
618 0 1 -3.520322 1.793248 25.060699
619 0 1 -2.757163 2.368299 24.992096
620 0 1 -3.170131 3.192800 25.320984
621 0 1 -3.349162 3.837770 24.639709
622 0 1 -3.974101 4.595071 24.433990
623 0 1 -4.047002 5.590589 24.424591
624 0 1 -3.768302 6.311341 23.760590
625 0 1 -3.117263 6.761128 24.321686
626 0 1 -2.452773 6.409539 23.755615
627 0 1 -1.805772 7.173062 23.579498
628 0 1 -2.017152 8.078889 23.865295
629 0 1 -2.656842 8.715482 24.180511
630 0 1 -3.137372 8.320378 23.471405
631 0 1 -2.783183 8.727780 22.644806
632 0 1 -1.859083 8.885980 22.515686
633 0 1 -2.202502 8.551179 21.703094
634 0 1 -1.328052 8.518380 21.296097
635 0 1 -0.964412 7.578038 21.177994
636 0 1 -0.248672 7.022050 20.792603
637 0 1 0.580739 6.612912 20.545303
638 0 1 1.358277 6.440209 19.938705
639 0 1 1.147658 6.301732 18.947800
640 0 1 1.327778 7.073529 18.462708
641 0 1 1.878148 7.209508 19.179596
642 0 1 2.384728 7.988362 18.858902
643 0 1 2.363698 8.891980 18.373901
644 0 1 2.712437 9.805181 18.320892
645 0 1 3.475007 10.134179 18.697296
646 0 1 4.140078 9.908181 19.376694
647 0 1 4.496947 9.466680 20.109406
648 0 1 4.542378 10.351480 20.368195
649 0 1 5.383292 10.709378 20.641998
650 0 1 4.958508 10.648580 21.469894
651 0 1 4.832177 11.226880 22.202499
652 0 1 4.556418 11.831380 21.538498
653 0 1 4.817797 12.398480 20.785294
654 0 1 4.412037 12.307080 19.921692
655 0 1 3.771067 12.385079 19.258392
656 0 1 3.228257 11.832479 18.733307
657 0 1 2.938668 11.329782 18.007004
658 0 1 3.664487 11.645280 17.554306
659 0 1 4.523398 11.325379 17.993301
660 0 1 5.032927 11.552979 17.196396
661 0 1 5.956044 11.263780 17.301208
662 0 1 6.283719 10.288480 17.129303
663 0 1 6.823210 9.526780 17.377106
664 0 1 6.521662 9.046880 16.535904
665 0 1 6.402968 8.865380 15.548798
666 0 1 7.175053 9.458081 15.783707
667 0 1 7.795817 9.488980 16.490799
668 0 1 8.637696 9.772481 16.836899
669 0 1 7.985039 10.573682 17.058899
670 0 1 7.870446 11.575978 16.943893
671 0 1 8.799397 11.731282 17.056305
672 0 1 8.806279 11.573579 16.127304
673 0 1 8.768758 12.579381 16.299301
674 0 1 8.089578 12.681378 15.589905
675 0 1 7.590828 13.298280 15.016800
676 0 1 7.381197 13.526578 14.118103
677 0 1 6.607266 13.915479 14.406906
678 0 1 7.373738 14.408780 14.646103
679 0 1 7.082135 14.571580 13.787903
680 0 1 7.329678 14.713078 12.866501
681 0 1 8.019959 15.422879 12.832001
682 0 1 8.256989 15.472680 11.916992
683 0 1 9.159318 15.490781 12.443893
684 0 1 8.929677 16.288980 13.054993
685 0 1 8.663098 16.539083 12.200592
686 0 1 8.583379 16.921282 11.286301
687 0 1 8.381120 16.859083 10.333603
688 0 1 8.812966 16.785582 9.453415
689 0 1 8.710946 17.487280 8.725937
690 0 1 8.980817 18.367079 8.955582
691 0 1 8.446198 18.119680 9.678574
692 0 1 7.587277 18.187582 10.071899
693 0 1 7.552927 18.225981 11.079895
694 0 1 6.722298 17.849379 10.759598
695 0 1 5.829056 17.560080 10.307404
696 0 1 5.210787 17.972479 10.881393
697 0 1 4.464016 17.787882 10.283096
698 0 1 4.001217 18.649778 10.234100
699 0 1 3.712298 18.986982 9.354187
700 0 1 3.338217 18.182180 8.995529
701 0 1 2.327477 18.147383 9.077042
702 0 1 2.325888 18.993483 8.573212
703 0 1 1.352109 18.733980 8.498184
704 0 1 1.632258 18.646280 7.559464
705 0 1 1.681107 18.229483 6.666748
706 0 1 1.284127 18.826181 5.980911
707 0 1 1.031687 17.949781 5.739716
708 0 1 1.913037 17.741980 5.412689
709 0 1 2.625527 18.140581 5.912979
710 0 1 2.758637 19.012480 6.350433
711 0 1 2.655358 19.377882 5.487442
712 0 1 2.118867 19.604383 4.772995
713 0 1 1.993838 19.435781 3.799896
714 0 1 1.895758 19.625380 2.851837
715 0 1 2.174647 19.961782 1.969833
716 0 1 1.306489 20.255980 1.612915
717 0 1 0.511468 20.367483 2.094497
718 0 1 0.447667 19.434584 2.202377
719 0 1 0.354539 18.490480 2.256393
720 0 1 1.051198 17.833281 2.092804
721 0 1 0.842747 16.941580 2.077865
722 0 1 0.842738 16.316084 2.815201
723 0 1 0.715027 17.023081 3.453567
724 0 1 0.133439 17.402082 4.099548
725 0 1 -0.680723 16.940580 4.165497
726 0 1 -0.120773 16.166380 4.240631
727 0 1 -0.336253 16.474180 3.287338
728 0 1 -0.589702 15.493581 3.164428
729 0 1 -1.229463 15.469281 2.387512
730 0 1 -1.343282 15.457379 1.421814
731 0 1 -0.864093 16.328680 1.611877
732 0 1 -1.607673 16.779280 1.199157
733 0 1 -1.958812 16.690081 2.079803
734 0 1 -2.685012 16.266378 2.463104
735 0 1 -3.523662 16.705881 2.535400
736 0 1 -3.893302 16.064482 1.923996
737 0 1 -4.336902 15.397283 2.360397
738 0 1 -4.289402 14.649282 2.979873
739 0 1 -3.300891 15.061482 3.103683
740 0 1 -2.893302 15.117482 4.059937
741 0 1 -2.581422 14.978780 4.974152
742 0 1 -2.944873 14.496381 5.785080
743 0 1 -3.233833 14.135980 6.599625
744 0 1 -2.792701 14.597180 7.408234
745 0 1 -3.335132 14.111081 8.037247
746 0 1 -3.630742 14.451081 8.864883
747 0 1 -3.587182 14.256780 9.843582
748 0 1 -4.480302 14.159780 10.203705
749 0 1 -5.304403 13.585481 9.815048
750 0 1 -5.231002 14.440579 9.405914
751 0 1 -5.159902 15.388379 9.212769
752 0 1 -5.029403 15.418378 8.238434
753 0 1 -5.574104 15.987279 7.657684
754 0 1 -5.621902 16.770582 8.066498
755 0 1 -6.157901 17.224581 7.364777
756 0 1 -6.807502 16.613981 7.109177
757 0 1 -7.198503 15.777081 7.237244
758 0 1 -6.454002 15.178880 7.227127
759 0 1 -5.919002 14.598783 6.675690
760 0 1 -5.040002 15.091981 6.779175
761 0 1 -4.762802 14.292779 6.365936
762 0 1 -4.502903 14.229383 5.437363
763 0 1 -4.365503 15.086881 5.666779
764 0 1 -4.286602 16.048582 5.779816
765 0 1 -4.860004 16.001181 6.538376
766 0 1 -5.483503 16.733580 6.662628
767 0 1 -6.272903 17.256182 6.377213
768 0 1 -5.608703 17.851782 6.709885
769 0 1 -5.093803 18.170080 7.407974
770 0 1 -5.713401 18.898283 7.302078
771 0 1 -6.055603 19.813879 7.164856
772 0 1 -5.820404 19.823782 6.207626
773 0 1 -6.043602 19.713682 5.258759
774 0 1 -5.388202 20.224379 4.714310
775 0 1 -5.043102 20.718580 5.463303
776 0 1 -4.118003 20.819479 4.938644
777 0 1 -3.453733 21.397879 4.632599
778 0 1 -2.742242 21.740080 3.941955
779 0 1 -3.340513 21.541983 3.288177
780 0 1 -3.033693 21.284582 2.408569
781 0 1 -2.098212 21.179781 2.096634
782 0 1 -2.536493 21.705481 1.414581
783 0 1 -2.126542 21.572783 0.601440
784 0 1 -1.368892 22.096380 1.039108
785 0 1 -1.308122 21.203081 1.250198
786 0 1 -1.487972 20.276682 0.803909
787 0 1 -2.460761 20.029280 0.818527
788 0 1 -3.362151 20.473783 1.071258
789 0 1 -3.428031 19.522879 0.788269
790 0 1 -4.179702 18.759981 0.489715
791 0 1 -4.543804 18.849684 -0.357315
792 0 1 -4.480201 17.967283 -0.682221