LAMMPS data file via MDAnalysis

        2000  atoms
        1999  bonds
           0  angles
           0  dihedrals
           0  impropers

           1  atom types
           1  bond types
           0  angle types
           0  dihedral types
           0  improper types

-30.5 30.5 xlo xhi
-30.5 30.5 ylo yhi
-233.5 233.5 zlo zhi


Masses

1 1.000000

Atoms

1 0 1 24.712784 1.613040 40.240906
2 0 1 23.851883 1.318269 40.486206
3 0 1 23.122284 1.146909 41.072601
4 0 1 23.381180 0.302970 40.544708
5 0 1 23.252480 -0.615599 40.667511
6 0 1 23.629982 -0.889340 39.840607
7 0 1 22.833679 -1.350940 39.987610
8 0 1 23.358383 -2.098790 40.405701
9 0 1 24.185783 -1.699330 40.652496
10 0 1 24.952682 -1.180550 40.314209
11 0 1 25.340782 -0.335130 40.489899
12 0 1 25.570683 -0.665561 39.593384
13 0 1 26.183983 -1.381541 39.536499
14 0 1 26.647182 -0.561860 39.258789
15 0 1 26.307884 -0.337189 38.359100
16 0 1 25.996780 0.583110 38.530884
17 0 1 26.847183 1.128011 38.382812
18 0 1 27.050583 1.133640 37.394287
19 0 1 27.860580 1.365279 36.885315
20 0 1 28.752983 1.068900 37.104706
21 0 1 29.615582 1.508729 37.205902
22 0 1 29.108482 2.316230 37.183594
23 0 1 30.000183 2.635850 37.261810
24 0 1 30.154083 1.971179 37.996307
25 0 1 29.895279 1.225570 38.489105
26 0 1 29.131783 1.542890 38.981384
27 0 1 28.302582 1.246089 39.443390
28 0 1 28.379379 1.255880 40.373993
29 0 1 27.590282 1.775430 40.560699
30 0 1 27.061882 1.656860 41.382294
31 0 1 26.118980 1.514190 41.142212
32 0 1 25.860481 1.788770 42.059204
33 0 1 26.026283 2.497010 41.441101
34 0 1 25.529480 2.569459 40.635590
35 0 1 25.490482 3.347409 41.134613
36 0 1 24.863983 3.982681 41.438202
37 0 1 24.565582 4.822619 41.887787
38 0 1 24.004379 5.590631 41.871216
39 0 1 23.302483 6.194743 42.139099
40 0 1 23.543983 6.980214 42.610199
41 0 1 23.038082 7.643710 43.026398
42 0 1 22.232483 8.140271 42.749603
43 0 1 21.585682 8.502728 42.081116
44 0 1 20.975883 8.395940 42.802887
45 0 1 20.535179 7.647389 42.417694
46 0 1 20.934681 6.794599 42.571503
47 0 1 21.776283 6.444051 42.843506
48 0 1 22.437080 5.807837 42.610687
49 0 1 22.058479 4.977210 42.307983
50 0 1 21.826584 4.319570 41.649597
51 0 1 21.697582 3.812379 42.471008
52 0 1 21.974480 3.143079 41.833588
53 0 1 22.781982 2.558309 41.689911
54 0 1 22.087784 1.837621 41.929199
55 0 1 21.460884 1.185649 42.194702
56 0 1 21.032883 0.506059 42.728516
57 0 1 20.575882 0.625440 41.869202
58 0 1 20.087883 0.050170 42.416016
59 0 1 20.418381 -0.719680 42.810913
60 0 1 20.326683 -1.642230 42.613403
61 0 1 21.180382 -2.117430 42.525299
62 0 1 20.966282 -2.072081 43.512512
63 0 1 20.134281 -1.686110 43.687408
64 0 1 20.319984 -1.287200 44.502686
65 0 1 21.321983 -1.294909 44.647003
66 0 1 22.227581 -1.592181 44.614410
67 0 1 22.278580 -0.670199 44.260803
68 0 1 21.369484 -0.274150 44.011902
69 0 1 20.935883 0.240850 44.754211
70 0 1 20.489983 0.329641 45.636688
71 0 1 21.331284 0.451139 46.119385
72 0 1 21.968384 0.120870 45.521698
73 0 1 22.339279 -0.293540 46.325409
74 0 1 22.358082 -0.453780 47.278015
75 0 1 21.684082 -1.086711 46.998291
76 0 1 21.662781 -2.041631 47.189789
77 0 1 21.122879 -2.364430 47.942291
78 0 1 21.547581 -2.501010 48.819000
79 0 1 21.136181 -3.280879 49.101410
80 0 1 20.590080 -4.096301 48.893494
81 0 1 19.844383 -3.641501 48.808502
82 0 1 19.312382 -3.180110 48.192810
83 0 1 18.440681 -2.765769 48.023407
84 0 1 18.326080 -3.701899 48.023315
85 0 1 17.608280 -3.552600 48.579895
86 0 1 16.657482 -3.164981 48.539001
87 0 1 15.983482 -3.755801 48.870605
88 0 1 15.956581 -3.856900 47.926910
89 0 1 15.446182 -4.581401 48.180695
90 0 1 15.932880 -4.756000 47.345093
91 0 1 16.760983 -4.458701 46.908905
92 0 1 16.590881 -5.356502 46.522308
93 0 1 16.026482 -5.981601 46.084412
94 0 1 15.272583 -5.735101 45.557983
95 0 1 14.497482 -6.077701 46.049408
96 0 1 14.434681 -6.032701 47.029694
97 0 1 13.707481 -5.523200 47.420410
98 0 1 14.486382 -5.699302 48.044708
99 0 1 14.904381 -6.564000 47.878387
100 0 1 15.546982 -6.063701 48.330505
101 0 1 15.682281 -6.789001 48.953094
102 0 1 15.344383 -7.612500 49.270386
103 0 1 15.374481 -7.721400 50.220886
104 0 1 16.299480 -7.371402 50.225494
105 0 1 17.010483 -6.992801 50.838806
106 0 1 17.850582 -6.799399 51.353699
107 0 1 18.729980 -6.846400 51.742493
108 0 1 19.009483 -7.554900 51.126099
109 0 1 18.430283 -8.077701 51.763000
110 0 1 18.996983 -8.776300 52.128906
111 0 1 19.550282 -9.508100 51.759094
112 0 1 19.989281 -9.517501 50.938110
113 0 1 19.824982 -8.945801 50.188202
114 0 1 20.535080 -8.317201 50.114594
115 0 1 21.115379 -7.686301 49.547913
116 0 1 20.808983 -7.276601 50.359894
117 0 1 21.016380 -6.396100 50.609894
118 0 1 21.804184 -6.853000 50.869385
119 0 1 21.896484 -7.677300 51.281097
120 0 1 21.800484 -8.637000 51.603088
121 0 1 21.309681 -8.724000 52.386902
122 0 1 20.419582 -9.125700 52.581604
123 0 1 20.389084 -10.070201 52.467896
124 0 1 20.457680 -11.031199 52.528992
125 0 1 19.841282 -11.507800 53.134003
126 0 1 20.528481 -12.066100 53.387512
127 0 1 19.729683 -12.428500 53.677704
128 0 1 19.568081 -13.290700 54.166809
129 0 1 20.040081 -13.420201 55.004211
130 0 1 20.751083 -12.928901 55.400787
131 0 1 21.117279 -12.844800 56.293091
132 0 1 20.419781 -12.351901 56.740784
133 0 1 20.551182 -13.272099 57.193390
134 0 1 21.186279 -14.054400 57.011688
135 0 1 21.592583 -13.194301 57.179016
136 0 1 21.849884 -12.953000 58.104492
137 0 1 22.224281 -13.738801 58.479614
138 0 1 22.050980 -14.674500 58.575500
139 0 1 21.486984 -14.566701 59.364502
140 0 1 21.137981 -14.949401 60.184296
141 0 1 22.034584 -14.968101 60.521698
142 0 1 22.351784 -14.037801 60.468292
143 0 1 21.468182 -13.789601 60.762787
144 0 1 20.673981 -13.451400 60.976410
145 0 1 20.705681 -13.687001 61.940613
146 0 1 20.111881 -12.868800 62.129517
147 0 1 19.423882 -13.471301 62.463806
148 0 1 18.942982 -12.860600 62.991791
149 0 1 18.760082 -12.352801 63.774689
150 0 1 19.776482 -12.260800 64.014587
151 0 1 20.647381 -11.930301 64.166809
152 0 1 20.255882 -11.047301 64.046600
153 0 1 19.759682 -11.378701 64.845795
154 0 1 20.710381 -11.322700 65.053802
155 0 1 20.246979 -12.060901 65.510986
156 0 1 19.475182 -11.960601 66.097595
157 0 1 18.738781 -11.898000 66.752686
158 0 1 19.539982 -11.971200 67.266113
159 0 1 20.098579 -11.397901 67.907104
160 0 1 20.300079 -10.672000 67.313904
161 0 1 20.767281 -10.203200 68.068695
162 0 1 21.383682 -10.900001 68.289795
163 0 1 22.237984 -10.498700 67.917297
164 0 1 22.452282 -9.702500 68.413910
165 0 1 23.339279 -10.033601 68.135193
166 0 1 23.740681 -9.631400 67.367188
167 0 1 23.136284 -8.864100 67.645294
168 0 1 22.532883 -8.008901 67.661591
169 0 1 22.848881 -8.038000 66.747711
170 0 1 23.007484 -7.505900 65.994904
171 0 1 23.688179 -7.140000 65.496002
172 0 1 24.434982 -6.964200 64.834595
173 0 1 24.711182 -7.013900 65.748505
174 0 1 25.507080 -6.457400 65.332886
175 0 1 25.576981 -5.536101 65.030701
176 0 1 25.839684 -4.711801 64.662109
177 0 1 24.968483 -4.637900 65.048584
178 0 1 24.755383 -4.500899 64.125916
179 0 1 24.574379 -3.600699 63.664703
180 0 1 23.879482 -3.094779 63.196594
181 0 1 23.113884 -3.495900 62.744995
182 0 1 22.339382 -2.939250 62.842499
183 0 1 21.585884 -3.537900 62.772095
184 0 1 21.106781 -3.286780 61.998505
185 0 1 20.610680 -4.091102 61.595490
186 0 1 20.213684 -3.376399 61.123199
187 0 1 20.351379 -2.481951 61.040588
188 0 1 20.172482 -1.630521 61.328796
189 0 1 20.924381 -1.469649 60.802307
190 0 1 20.604179 -0.695510 60.417206
191 0 1 20.724884 0.163280 60.017212
192 0 1 20.828079 0.967059 59.487396
193 0 1 19.984581 0.981380 60.022217
194 0 1 20.471081 1.790309 60.109711
195 0 1 20.275780 2.706769 59.923798
196 0 1 20.305283 2.523219 58.890900
197 0 1 19.418682 2.669179 59.079590
198 0 1 18.816681 2.054300 58.702515
199 0 1 19.124680 2.513540 57.922699
200 0 1 18.675781 3.337650 57.772797
201 0 1 17.744881 3.610891 57.592194
202 0 1 17.083481 3.387950 56.957794
203 0 1 17.407883 3.626779 56.055786
204 0 1 17.641682 2.966020 55.348694
205 0 1 17.155682 2.309419 54.755798
206 0 1 17.107281 2.908929 53.982483
207 0 1 16.320984 3.522510 53.851013
208 0 1 15.529381 3.679370 54.368500
209 0 1 14.972382 3.033210 54.046387
210 0 1 14.119183 3.409370 54.058411
211 0 1 13.799282 2.602170 53.593903
212 0 1 13.791481 1.758149 53.157196
213 0 1 13.849182 1.338229 52.250183
214 0 1 14.553982 1.513280 51.633484
215 0 1 15.047279 2.233720 52.144806
216 0 1 14.538582 2.999959 51.888489
217 0 1 14.526081 3.941680 52.057007
218 0 1 14.897182 4.587890 51.455017
219 0 1 14.424980 5.366269 51.782196
220 0 1 13.813980 6.110471 51.717712
221 0 1 13.273300 5.544600 51.194794
222 0 1 13.020611 6.409663 50.870209
223 0 1 12.298153 7.166663 50.843689
224 0 1 12.159019 7.985620 50.379913
225 0 1 12.129742 8.902741 50.321594
226 0 1 11.643673 9.108811 49.500183
227 0 1 10.717213 8.729760 49.814911
228 0 1 10.622772 7.748540 49.923584
229 0 1 11.250130 7.141837 49.494995
230 0 1 10.535572 6.383794 49.738708
231 0 1 10.148220 5.929814 49.014496
232 0 1 11.099903 6.135764 48.746399
233 0 1 10.964481 5.958312 47.767883
234 0 1 11.761082 5.850415 47.187012
235 0 1 11.128292 6.067239 46.480103
236 0 1 10.597260 6.690318 46.017609
237 0 1 11.191582 7.403218 46.357117
238 0 1 10.984051 7.099998 47.221497
239 0 1 10.363480 7.355683 47.971893
240 0 1 9.978130 8.164571 47.554108
241 0 1 10.350323 8.457150 46.702606
242 0 1 9.498371 8.566709 46.207001
243 0 1 8.643044 8.131120 46.143097
244 0 1 7.962451 7.466170 45.893707
245 0 1 8.363480 7.040647 46.676208
246 0 1 8.818382 6.745368 47.463287
247 0 1 9.086761 6.157092 46.738495
248 0 1 8.976463 5.190209 46.643188
249 0 1 9.409073 4.899180 47.403900
250 0 1 8.536442 4.579579 47.604004
251 0 1 7.862422 5.208379 48.012909
252 0 1 6.973030 5.722844 47.877899
253 0 1 6.658050 6.445022 47.303009
254 0 1 5.834529 6.572688 46.819794
255 0 1 6.028343 5.978250 45.922089
256 0 1 5.354770 5.403640 46.259399
257 0 1 4.599441 5.681905 45.715790
258 0 1 4.889091 6.645776 45.400391
259 0 1 4.582351 7.537667 45.219910
260 0 1 4.467021 8.471791 44.897583
261 0 1 5.391651 8.773160 44.856812
262 0 1 6.103492 8.260949 44.554688
263 0 1 5.741573 7.407510 44.859406
264 0 1 6.084102 7.069884 44.040009
265 0 1 6.161521 6.215629 44.473999
266 0 1 5.353393 5.794374 43.959595
267 0 1 4.868820 5.777272 43.054596
268 0 1 4.458110 6.406974 42.402405
269 0 1 3.866619 6.639552 41.724609
270 0 1 3.695316 7.489413 42.055603
271 0 1 2.845090 6.995053 41.842499
272 0 1 2.858043 7.811110 41.328400
273 0 1 3.585277 7.380000 40.859009
274 0 1 3.798215 6.632026 40.249298
275 0 1 3.722408 7.370934 39.708405
276 0 1 4.680921 7.009131 39.762604
277 0 1 5.162330 6.074397 39.536591
278 0 1 4.345411 5.675977 39.975586
279 0 1 4.603031 4.769660 40.188416
280 0 1 5.031101 4.632600 41.085815
281 0 1 5.470649 5.429580 40.871887
282 0 1 6.179561 5.596259 41.391113
283 0 1 6.666702 5.033999 40.779205
284 0 1 7.518772 5.204949 41.071594
285 0 1 7.791923 4.327929 41.269409
286 0 1 8.413353 3.555110 41.360199
287 0 1 9.038570 3.687169 40.658295
288 0 1 9.601063 3.227769 40.037506
289 0 1 10.150822 2.863389 40.759491
290 0 1 11.020370 3.333631 40.744385
291 0 1 11.123913 3.735349 41.606384
292 0 1 11.724831 3.708249 42.356384
293 0 1 11.980480 3.582050 43.263611
294 0 1 11.479362 4.396140 43.360596
295 0 1 11.818710 4.547709 44.248901
296 0 1 12.066811 4.529130 45.257111
297 0 1 12.344170 5.503949 45.196808
298 0 1 13.142700 5.969356 45.501495
299 0 1 13.420582 6.863103 45.464996
300 0 1 13.644981 7.626100 45.993500
301 0 1 13.444580 8.542321 45.974396
302 0 1 12.703903 8.811212 46.458405
303 0 1 12.963001 9.615769 46.913696
304 0 1 13.436581 9.610131 46.068115
305 0 1 13.306984 9.474908 45.143890
306 0 1 13.771584 8.774369 44.655701
307 0 1 14.599983 8.778169 44.206909
308 0 1 15.129181 8.771340 44.968384
309 0 1 15.213181 7.845460 44.623901
310 0 1 16.181782 7.686320 45.026093
311 0 1 17.093880 7.414872 45.213013
312 0 1 17.874680 6.892085 45.371887
313 0 1 18.395180 7.407468 44.711395
314 0 1 18.813583 7.714030 43.933411
315 0 1 18.358681 7.059630 43.455200
316 0 1 17.670681 7.029296 42.796112
317 0 1 17.217381 7.394416 42.083496
318 0 1 17.818783 6.929019 41.543213
319 0 1 18.370979 6.300273 41.095612
320 0 1 17.638481 6.152274 40.451996
321 0 1 17.306984 5.915185 39.599304
322 0 1 17.777882 5.161689 39.217499
323 0 1 17.941681 4.602750 38.342804
324 0 1 17.855282 3.984029 39.025513
325 0 1 17.652081 3.057571 38.808807
326 0 1 16.755383 3.417871 38.692810
327 0 1 16.041782 3.689321 38.081116
328 0 1 15.642181 4.439450 38.513702
329 0 1 16.014481 5.153100 37.933807
330 0 1 16.340382 5.031350 36.989288
331 0 1 16.070580 4.093900 36.888702
332 0 1 15.428082 4.144460 36.227295
333 0 1 16.299782 4.538110 35.848999
334 0 1 16.971184 4.219380 35.114502
335 0 1 17.757381 4.116189 35.681885
336 0 1 18.038280 4.153670 34.748505
337 0 1 18.964382 4.441049 34.438416
338 0 1 19.643379 5.168689 34.235413
339 0 1 19.706779 5.967002 33.730408
340 0 1 20.469284 6.497117 34.036896
341 0 1 20.809582 7.199151 33.534088
342 0 1 21.506882 7.471492 32.928192
343 0 1 22.139183 6.829228 33.335510
344 0 1 22.611984 7.385491 34.029388
345 0 1 23.421082 7.955729 33.924713
346 0 1 22.783081 8.629289 34.103302
347 0 1 22.377083 9.545571 34.105286
348 0 1 22.972382 10.295999 34.033600
349 0 1 22.869484 10.731481 34.852783
350 0 1 22.042381 11.084859 35.188904
351 0 1 22.030682 10.178048 35.552704
352 0 1 21.023979 10.065198 35.758911
353 0 1 20.358181 10.176148 35.017303
354 0 1 19.977081 9.862050 34.200806
355 0 1 20.428879 10.531659 33.717896
356 0 1 19.839783 11.333180 33.812408
357 0 1 18.883781 11.093759 33.731201
358 0 1 18.500481 11.380219 34.563202
359 0 1 18.578880 12.293969 34.466003
360 0 1 19.175381 12.103028 35.133484
361 0 1 19.422180 11.884858 36.050201
362 0 1 19.279984 11.196641 36.670715
363 0 1 19.410484 11.355191 37.602203
364 0 1 18.979584 12.093209 38.069397
365 0 1 18.713680 11.768239 38.942017
366 0 1 18.225281 11.504819 38.138489
367 0 1 17.507782 10.924081 38.490906
368 0 1 16.914780 10.266900 37.979187
369 0 1 15.927982 10.119851 37.865906
370 0 1 15.958580 9.157811 37.525909
371 0 1 15.959682 9.760968 36.752899
372 0 1 16.560081 9.001370 36.531006
373 0 1 17.397583 8.790528 36.061005
374 0 1 17.992882 8.062219 35.804810
375 0 1 17.374981 7.764590 35.127808
376 0 1 16.915283 7.053658 34.646088
377 0 1 15.954082 7.071317 34.933289
378 0 1 15.602882 6.480935 34.100006
379 0 1 15.806782 6.458446 33.175995
380 0 1 16.438282 5.776053 33.521088
381 0 1 16.551281 5.750710 32.491394
382 0 1 16.278782 6.594245 32.044891
383 0 1 15.779480 6.106292 31.366791
384 0 1 14.874382 6.048352 31.750610
385 0 1 14.029182 5.654655 31.924011
386 0 1 14.290382 4.879991 31.295105
387 0 1 15.089283 4.405950 31.694000
388 0 1 14.551281 4.853499 32.389709
389 0 1 14.883881 5.320069 33.214996
390 0 1 14.696281 6.196160 33.556000
391 0 1 14.834480 6.787173 32.794403
392 0 1 13.892582 6.791333 32.381287
393 0 1 13.636883 7.488172 31.706696
394 0 1 13.180122 8.289819 31.977386
395 0 1 13.437382 8.072370 32.869812
396 0 1 12.667881 8.170941 33.440491
397 0 1 12.932171 7.908309 34.347412
398 0 1 12.851223 8.845338 34.376801
399 0 1 12.324043 9.589288 34.133301
400 0 1 12.481972 10.385228 33.616211
401 0 1 12.844601 11.217481 33.175690
402 0 1 13.088203 11.999688 32.596008
403 0 1 13.975681 12.479020 32.591187
404 0 1 14.088882 12.993009 33.361206
405 0 1 13.977180 12.104981 33.735107
406 0 1 13.841282 12.253968 34.702209
407 0 1 14.736980 12.366330 34.962585
408 0 1 14.164780 13.063760 35.277893
409 0 1 13.862381 12.885690 36.125610
410 0 1 13.883183 12.328538 36.932312
411 0 1 12.868942 12.273690 36.906494
412 0 1 11.974373 12.021890 36.725800
413 0 1 11.391212 11.328980 36.535492
414 0 1 10.600212 11.148419 36.022491
415 0 1 10.000092 10.999368 36.760712
416 0 1 9.501450 10.783971 35.963196
417 0 1 9.219040 11.516789 35.411499
418 0 1 9.755802 11.090848 34.626587
419 0 1 9.398582 11.981221 34.340515
420 0 1 8.847321 12.624108 34.987091
421 0 1 8.517670 13.339108 35.470612
422 0 1 9.020882 13.196801 36.246307
423 0 1 9.666721 13.273698 36.915588
424 0 1 10.316212 13.968690 36.761810
425 0 1 9.900200 14.795350 36.803589
426 0 1 9.096474 14.487241 37.025696
427 0 1 8.852711 14.697701 36.119385
428 0 1 7.907493 14.536798 36.369385
429 0 1 7.082073 14.086209 36.055908
430 0 1 6.733222 14.958829 36.270386
431 0 1 6.680450 15.907140 36.090912
432 0 1 5.906860 16.109133 35.558502
433 0 1 5.624992 16.049883 34.641998
434 0 1 6.544410 16.250502 34.557495
435 0 1 7.470771 16.513151 34.407898
436 0 1 8.133621 16.782602 33.853394
437 0 1 7.378219 16.943899 33.299713
438 0 1 6.552852 17.166601 32.903290
439 0 1 6.181602 16.303942 33.127686
440 0 1 5.555130 17.006502 33.432190
441 0 1 5.265502 16.797602 32.552094
442 0 1 4.298542 16.938902 32.307098
443 0 1 4.010009 16.914400 33.295197
444 0 1 4.177961 16.068399 33.607697
445 0 1 3.375021 15.631841 33.782013
446 0 1 2.591165 16.150702 33.737915
447 0 1 2.140932 16.696703 34.420288
448 0 1 2.088500 17.257101 33.663086
449 0 1 1.693481 17.852900 32.960602
450 0 1 2.398717 18.513300 32.978699
451 0 1 2.453397 18.073500 32.120697
452 0 1 2.176860 18.673601 31.411194
453 0 1 1.478681 19.325102 31.562714
454 0 1 1.509990 19.947500 32.250488
455 0 1 0.742370 20.487600 32.101593
456 0 1 0.068031 19.676901 32.311798
457 0 1 -0.486840 18.982901 32.719299
458 0 1 -1.196108 19.568899 32.370789
459 0 1 -1.286259 20.214201 31.701111
460 0 1 -0.298268 20.286303 31.473297
461 0 1 -0.436669 21.030703 32.170807
462 0 1 -0.984919 21.803499 32.373810
463 0 1 -1.752949 22.376699 32.658112
464 0 1 -2.492009 21.755503 32.860901
465 0 1 -3.438679 21.894503 32.599609
466 0 1 -3.188870 21.964998 33.530090
467 0 1 -2.860768 21.409700 34.182709
468 0 1 -3.445038 20.715300 34.170105
469 0 1 -3.772898 20.334200 34.992310
470 0 1 -3.240380 21.046499 35.351593
471 0 1 -3.564038 21.570398 36.058899
472 0 1 -2.746298 22.032202 36.151703
473 0 1 -2.491669 21.135698 36.510986
474 0 1 -2.329400 20.295801 37.002106
475 0 1 -3.203330 20.581102 37.253784
476 0 1 -3.213259 20.096701 38.126709
477 0 1 -3.668719 19.357100 37.738098
478 0 1 -3.806319 18.687101 38.385498
479 0 1 -3.628649 17.936998 37.773987
480 0 1 -3.444338 17.745699 36.856995
481 0 1 -3.964810 16.996901 36.964813
482 0 1 -3.608698 17.118002 36.046387
483 0 1 -3.304268 16.320292 35.544495
484 0 1 -3.581208 16.560999 34.710602
485 0 1 -3.266629 16.076639 33.973907
486 0 1 -3.717419 15.692410 33.075409
487 0 1 -3.276398 14.948670 32.639404
488 0 1 -3.641669 14.174710 32.218689
489 0 1 -3.122090 14.688100 31.524200
490 0 1 -2.674078 14.086461 30.903687
491 0 1 -3.146279 14.428189 30.130890
492 0 1 -3.416449 13.580300 30.453003
493 0 1 -3.919409 14.132600 31.046509
494 0 1 -4.881070 14.394471 31.041016
495 0 1 -5.626458 13.750951 30.746307
496 0 1 -6.493500 13.757939 31.213898
497 0 1 -5.904639 13.060658 31.579987
498 0 1 -5.507779 12.227288 32.064087
499 0 1 -5.633349 11.759271 32.856201
500 0 1 -6.336539 11.168210 32.499390
501 0 1 -7.125319 10.578500 32.459290
502 0 1 -7.084019 10.412580 33.389587
503 0 1 -7.725918 9.904008 33.832001
504 0 1 -7.232119 9.177548 34.211090
505 0 1 -7.707419 9.393491 35.021210
506 0 1 -8.472818 9.969121 35.336395
507 0 1 -8.437819 9.092340 35.840302
508 0 1 -8.061520 9.600801 36.498596
509 0 1 -7.632420 10.249528 35.927399
510 0 1 -8.388920 10.846990 36.226196
511 0 1 -8.978519 11.504380 36.669098
512 0 1 -9.674919 11.133882 37.184998
513 0 1 -10.364918 10.963380 37.891998
514 0 1 -9.748318 11.208520 38.570190
515 0 1 -10.496220 10.792932 39.132507
516 0 1 -11.278218 10.448419 38.818115
517 0 1 -11.536618 9.547608 38.475098
518 0 1 -12.430018 9.707459 38.084290
519 0 1 -13.384619 9.771878 38.097504
520 0 1 -14.137518 10.547509 37.918304
521 0 1 -14.645819 11.332780 37.910492
522 0 1 -14.551119 10.987878 38.761993
523 0 1 -15.019819 11.726590 39.174988
524 0 1 -15.695919 11.512528 38.546997
525 0 1 -16.278919 10.852719 38.825500
526 0 1 -16.036419 10.797528 37.862000
527 0 1 -16.611418 10.057538 37.580383
528 0 1 -15.906019 9.515698 37.352295
529 0 1 -15.567919 8.847478 37.899902
530 0 1 -14.979818 8.124589 37.892395
531 0 1 -15.250719 8.251580 38.809998
532 0 1 -15.992018 7.611300 38.757690
533 0 1 -16.543018 6.850667 39.342804
534 0 1 -16.866718 7.645930 39.721802
535 0 1 -16.178419 7.371318 40.297302
536 0 1 -16.918818 7.637549 40.785187
537 0 1 -17.721018 7.433311 40.330109
538 0 1 -18.511818 7.871819 40.702301
539 0 1 -18.670418 8.778459 41.040710
540 0 1 -18.731018 8.198770 41.833008
541 0 1 -19.258318 7.624391 42.313904
542 0 1 -18.552618 8.059148 42.887512
543 0 1 -18.587719 9.032800 42.723907
544 0 1 -19.560719 9.222611 42.724915
545 0 1 -20.012218 8.775601 41.926514
546 0 1 -20.760519 8.413571 41.419098
547 0 1 -21.500019 7.832749 41.492188
548 0 1 -21.282518 6.869784 41.666992
549 0 1 -22.220619 6.798697 41.473206
550 0 1 -22.821318 6.180327 41.132507
551 0 1 -23.052319 5.425860 40.546997
552 0 1 -22.769218 5.350600 39.668701
553 0 1 -21.864618 5.694623 39.545715
554 0 1 -21.114519 5.127629 39.483215
555 0 1 -20.723118 5.726184 40.116211
556 0 1 -20.246319 6.435178 40.417114
557 0 1 -19.352118 5.886483 40.282501
558 0 1 -18.731218 5.614976 39.588806
559 0 1 -18.092918 5.100940 39.061096
560 0 1 -17.825418 6.010100 38.922913
561 0 1 -17.906319 6.787171 38.365997
562 0 1 -17.562819 6.258552 37.665802
563 0 1 -17.016819 5.556140 37.946411
564 0 1 -16.110018 5.144910 37.926208
565 0 1 -15.916418 4.632640 37.103699
566 0 1 -16.142118 3.705760 36.962311
567 0 1 -17.047619 3.537721 36.764191
568 0 1 -17.314619 2.955720 37.446991
569 0 1 -17.666718 2.236421 36.802185
570 0 1 -18.397219 1.643630 36.550995
571 0 1 -18.629019 0.740560 36.590912
572 0 1 -18.069019 0.001620 36.363800
573 0 1 -17.912518 -0.900830 36.179413
574 0 1 -17.452518 -1.497599 35.582794
575 0 1 -17.350918 -0.718760 35.074310
576 0 1 -18.279619 -0.535710 34.879395
577 0 1 -18.347618 -0.925090 33.972504
578 0 1 -18.820318 -0.811820 33.168213
579 0 1 -18.684118 -1.752120 33.416687
580 0 1 -18.510918 -2.411921 32.724792
581 0 1 -17.854218 -2.212859 32.134003
582 0 1 -17.925817 -2.776271 31.360992
583 0 1 -17.922018 -3.739699 31.584686
584 0 1 -18.329319 -4.447001 32.051086
585 0 1 -19.244518 -4.611701 32.359985
586 0 1 -19.263519 -4.675500 33.342285
587 0 1 -19.237318 -3.972201 34.087585
588 0 1 -19.881519 -3.277819 33.845490
589 0 1 -19.844618 -2.335440 33.831390
590 0 1 -20.329218 -1.683501 34.302185
591 0 1 -20.947718 -2.338019 34.034607
592 0 1 -21.505619 -3.055560 34.423401
593 0 1 -21.786219 -3.029879 33.494110
594 0 1 -22.475418 -2.311890 33.396393
595 0 1 -22.523819 -1.784270 34.186493
596 0 1 -22.229319 -1.351660 34.987213
597 0 1 -21.927319 -1.024960 35.847412
598 0 1 -22.418818 -1.283459 36.678894
599 0 1 -21.574219 -1.019021 37.092102
600 0 1 -22.075619 -0.324540 36.687500
601 0 1 -22.283018 0.582990 36.666412
602 0 1 -21.717218 1.311240 36.414185
603 0 1 -21.312119 2.171220 36.685608
604 0 1 -21.394918 3.110099 36.658813
605 0 1 -21.528118 3.718129 37.411194
606 0 1 -22.171618 4.439059 37.500397
607 0 1 -22.072819 4.984200 38.272095
608 0 1 -22.465418 5.761523 37.805603
609 0 1 -22.977318 6.549167 38.116699
610 0 1 -22.372618 6.484239 38.789917
611 0 1 -22.260519 7.442166 38.900696
612 0 1 -22.449018 8.206311 39.421600
613 0 1 -22.616518 9.017598 39.856903
614 0 1 -22.873919 9.810071 40.332794
615 0 1 -22.718519 10.678391 39.907410
616 0 1 -21.867218 11.191060 39.960815
617 0 1 -21.111719 10.851270 40.435486
618 0 1 -20.256218 11.100011 40.808807
619 0 1 -19.647219 10.836308 40.151184
620 0 1 -19.394218 11.733140 40.158600
621 0 1 -19.616219 12.133271 40.944702
622 0 1 -19.178419 11.287351 41.190796
623 0 1 -18.527519 11.938478 41.059998
624 0 1 -18.464119 11.670991 41.981201
625 0 1 -18.700819 12.591001 42.227112
626 0 1 -17.847418 13.091741 42.093201
627 0 1 -17.635918 12.792008 41.210693
628 0 1 -16.872318 12.967969 40.654114
629 0 1 -15.976919 12.613050 40.618896
630 0 1 -16.263319 12.425191 41.537201
631 0 1 -16.037619 13.245229 41.991699
632 0 1 -15.092119 13.221391 41.875092
633 0 1 -14.244019 13.568719 42.160004
634 0 1 -13.991518 14.316400 41.607483
635 0 1 -14.051119 14.527619 42.604797
636 0 1 -13.799719 14.783570 43.566895
637 0 1 -14.367517 14.050290 43.784698
638 0 1 -14.500319 13.649671 44.649902
639 0 1 -14.519718 13.351609 45.601013
640 0 1 -13.882219 12.643762 45.377411
641 0 1 -13.209618 12.554841 44.727997
642 0 1 -12.395719 12.689080 44.254608
643 0 1 -12.467818 12.285161 43.340210
644 0 1 -13.252718 11.716889 43.255707
645 0 1 -13.755819 12.431798 42.840607
646 0 1 -13.198418 12.297620 42.045105
647 0 1 -12.846918 11.464082 42.340790
648 0 1 -12.460718 10.539330 42.407288
649 0 1 -13.126318 10.225400 41.751801
650 0 1 -13.600918 9.779111 42.482605
651 0 1 -13.812218 9.278901 43.271698
652 0 1 -12.995819 9.933961 43.410583
653 0 1 -12.801218 10.435609 44.250183
654 0 1 -13.085518 10.976110 44.994995
655 0 1 -12.298518 10.954770 45.509094
656 0 1 -12.023918 10.685769 46.364014
657 0 1 -12.904518 10.388749 46.682007
658 0 1 -12.838919 9.485631 46.401398
659 0 1 -13.203619 8.556439 46.616394
660 0 1 -13.198519 7.699069 47.147705
661 0 1 -12.411618 7.625400 47.592987
662 0 1 -11.591518 7.789800 47.063812
663 0 1 -10.649719 7.891019 47.070892
664 0 1 -10.213919 8.726911 46.890808
665 0 1 -9.556719 8.377938 47.511902
666 0 1 -8.949518 7.801679 47.036591
667 0 1 -8.367819 8.297330 47.718689
668 0 1 -7.787419 8.978478 47.390594
669 0 1 -7.263020 9.792192 47.373810
670 0 1 -8.039219 10.163529 47.766998
671 0 1 -7.591519 9.977349 48.673889
672 0 1 -6.787619 9.705110 49.089905
673 0 1 -6.119149 9.261250 49.648102
674 0 1 -5.736020 10.139710 49.745789
675 0 1 -4.918240 9.567479 49.651489
676 0 1 -4.147488 9.773709 49.260895
677 0 1 -4.908890 10.135888 48.849091
678 0 1 -5.680529 10.078801 48.218506
679 0 1 -6.141049 10.801579 48.573792
680 0 1 -5.349068 11.349179 48.343811
681 0 1 -5.968258 12.093919 48.324799
682 0 1 -6.119328 12.596730 47.537598
683 0 1 -5.998478 13.417470 47.039001
684 0 1 -5.116940 13.487679 47.340088
685 0 1 -4.621640 13.831960 48.050903
686 0 1 -3.860070 14.038228 47.574493
687 0 1 -4.291749 13.709729 46.726685
688 0 1 -3.681199 14.380418 46.256195
689 0 1 -3.458939 13.860742 45.471985
690 0 1 -4.008290 13.609078 44.726105
691 0 1 -4.306988 13.643090 43.819885
692 0 1 -4.775559 12.875539 43.552612
693 0 1 -4.629368 12.904481 42.647003
694 0 1 -3.901299 12.270501 42.724701
695 0 1 -3.052849 12.659261 42.466095
696 0 1 -2.855198 12.672921 43.385712
697 0 1 -2.453839 13.116120 44.262604
698 0 1 -1.799448 13.652791 43.800690
699 0 1 -1.463040 13.562398 42.932800
700 0 1 -0.494688 13.784749 43.027191
701 0 1 -0.349398 13.083119 42.364288
702 0 1 -0.990359 12.389321 42.171600
703 0 1 -0.630250 11.575620 42.622498
704 0 1 -0.675749 10.800210 41.947113
705 0 1 -1.605069 10.780110 42.216492
706 0 1 -1.703028 9.931668 41.807312
707 0 1 -1.347550 9.721681 40.932800
708 0 1 -0.734210 9.325360 41.572815
709 0 1 -0.182999 9.227818 42.287201
710 0 1 -1.076268 9.049279 42.601288
711 0 1 -1.536429 8.196038 42.333405
712 0 1 -2.053879 7.927329 41.543213
713 0 1 -2.579499 8.344171 40.863892
714 0 1 -2.570279 9.310449 40.843811
715 0 1 -2.557068 10.251470 40.777100
716 0 1 -3.300900 10.843350 40.661499
717 0 1 -4.023400 10.382001 40.243195
718 0 1 -4.303448 9.591569 39.758087
719 0 1 -5.126530 9.911408 39.398712
720 0 1 -5.302540 9.503888 38.521484
721 0 1 -6.139138 9.453851 38.055511
722 0 1 -6.736519 9.756139 38.700409
723 0 1 -6.527520 10.148290 39.632202
724 0 1 -6.955418 9.452470 40.199402
725 0 1 -6.694890 8.551820 40.431213
726 0 1 -7.630120 8.592500 40.692413
727 0 1 -8.238117 8.796819 41.370697
728 0 1 -7.672019 8.126779 41.748688
729 0 1 -7.951819 7.476460 42.343903
730 0 1 -7.567919 8.118848 42.945984
731 0 1 -7.146920 7.307630 43.163208
732 0 1 -6.317158 7.809960 43.251312
733 0 1 -5.353329 7.790950 43.341003
734 0 1 -4.712969 8.128308 43.971893
735 0 1 -3.838969 8.409589 43.692413
736 0 1 -3.075339 8.839871 43.317993
737 0 1 -2.292069 8.707669 43.961609
738 0 1 -1.451869 8.782128 43.571991
739 0 1 -1.397528 7.854920 43.491608
740 0 1 -1.399788 7.009940 43.027710
741 0 1 -1.852709 6.133620 43.007202
742 0 1 -2.064990 5.162200 43.059509
743 0 1 -2.288458 5.470389 43.922394
744 0 1 -3.048310 6.022979 43.820587
745 0 1 -3.576390 5.353179 44.084503
746 0 1 -4.131718 4.610429 43.872986
747 0 1 -4.740029 4.189679 43.304108
748 0 1 -4.737458 4.378999 42.355103
749 0 1 -4.336218 4.866670 41.606384
750 0 1 -4.410349 5.737197 41.217590
751 0 1 -4.316418 6.175534 40.342987
752 0 1 -5.190278 6.275289 40.781891
753 0 1 -5.496079 6.102815 41.661102
754 0 1 -6.412179 6.187057 41.361908
755 0 1 -6.125008 6.933578 41.840393
756 0 1 -6.471760 7.251582 41.018188
757 0 1 -6.914219 7.515788 40.200989
758 0 1 -7.619118 7.218711 39.636414
759 0 1 -7.836220 7.940850 38.990997
760 0 1 -8.143719 8.019509 38.092987
761 0 1 -7.229920 8.376969 37.916809
762 0 1 -7.421620 7.952661 37.074799
763 0 1 -7.971919 7.315000 36.544403
764 0 1 -8.675117 7.421309 35.848297
765 0 1 -9.433418 7.135234 36.364990
766 0 1 -9.913017 7.988469 36.406006
767 0 1 -10.630919 8.570901 36.557709
768 0 1 -10.726418 8.462190 35.609100
769 0 1 -11.627018 8.756341 35.423004
770 0 1 -11.832719 8.990430 34.438416
771 0 1 -11.899919 9.848489 33.923096
772 0 1 -11.768819 10.420529 33.135498
773 0 1 -11.493618 9.964810 32.362305
774 0 1 -11.432018 10.424680 31.549988
775 0 1 -11.864718 11.066911 32.107697
776 0 1 -12.493618 11.683450 32.378204
777 0 1 -13.206518 12.179528 32.037292
778 0 1 -12.833019 12.062879 31.133209
779 0 1 -13.265419 11.829499 30.351990
780 0 1 -13.971119 11.242211 30.639587
781 0 1 -13.460318 10.491151 30.397003
782 0 1 -13.562019 10.139089 29.546906
783 0 1 -12.647319 10.281060 29.285004
784 0 1 -11.835018 10.359391 28.834991
785 0 1 -11.245018 9.926400 28.230408
786 0 1 -11.075918 9.571511 27.392303
787 0 1 -10.799618 10.451779 27.029602
788 0 1 -10.752419 11.476151 27.099792
789 0 1 -11.651118 11.500600 27.409393