LAMMPS data file via MDAnalysis

        2000  atoms
        1999  bonds
           0  angles
           0  dihedrals
           0  impropers

           1  atom types
           1  bond types
           0  angle types
           0  dihedral types
           0  improper types

-30.5 30.5 xlo xhi
-30.5 30.5 ylo yhi
-233.5 233.5 zlo zhi


Masses

1 1.000000

Atoms

1 0 1 -17.512831 7.356057 76.484711
2 0 1 -17.901531 6.966680 77.231293
3 0 1 -17.356131 7.677438 77.776794
4 0 1 -16.849031 8.042748 78.542999
5 0 1 -16.221132 8.803239 78.562897
6 0 1 -17.070431 9.173139 78.395813
7 0 1 -17.479931 9.149236 77.554993
8 0 1 -16.811132 9.528039 76.916382
9 0 1 -16.721931 8.871266 76.178284
10 0 1 -16.163431 8.539327 75.422394
11 0 1 -15.806531 8.492269 74.519714
12 0 1 -15.382930 7.781796 75.072388
13 0 1 -15.181130 8.019040 75.947601
14 0 1 -14.288131 7.890706 76.082886
15 0 1 -13.536031 8.242677 75.624298
16 0 1 -12.860930 8.244496 74.990601
17 0 1 -12.469131 7.793687 75.771606
18 0 1 -11.755631 8.369756 76.140900
19 0 1 -11.473931 8.354657 77.041687
20 0 1 -11.477132 7.400228 77.175903
21 0 1 -11.148231 6.604589 76.701782
22 0 1 -11.210530 5.780637 76.291809
23 0 1 -10.467431 5.676278 75.738800
24 0 1 -9.712731 5.644238 75.232208
25 0 1 -9.185031 6.323789 75.749817
26 0 1 -8.874431 5.869996 76.482208
27 0 1 -8.638631 5.344808 77.290100
28 0 1 -7.974431 4.987908 76.766602
29 0 1 -7.411981 4.509439 76.072510
30 0 1 -8.284829 4.518796 75.711914
31 0 1 -8.548532 4.247647 74.853607
32 0 1 -8.611630 5.233037 74.601685
33 0 1 -9.420030 4.916596 74.221313
34 0 1 -10.378230 4.902516 74.494019
35 0 1 -10.118831 4.022569 74.215790
36 0 1 -9.342629 3.460118 74.469391
37 0 1 -9.552732 2.631677 73.830200
38 0 1 -9.370231 2.481969 72.859711
39 0 1 -9.932931 2.290338 72.092194
40 0 1 -10.629029 1.891008 72.595398
41 0 1 -11.073331 2.129586 71.748413
42 0 1 -11.707631 2.683637 71.403503
43 0 1 -11.368230 3.377339 70.791595
44 0 1 -10.926030 3.848927 70.066101
45 0 1 -10.986730 4.525716 69.384583
46 0 1 -11.696031 4.871037 68.851318
47 0 1 -12.352231 5.297597 68.292389
48 0 1 -12.937230 5.732339 67.718506
49 0 1 -12.749730 6.502179 67.143188
50 0 1 -13.369031 6.821179 66.511597
51 0 1 -12.812031 6.784116 65.746399
52 0 1 -13.146530 5.844819 65.630981
53 0 1 -12.896331 4.985539 66.026489
54 0 1 -13.676530 4.450227 65.679199
55 0 1 -12.929530 4.639859 64.970001
56 0 1 -12.748430 4.718408 64.076508
57 0 1 -13.219831 5.143128 63.404785
58 0 1 -13.415931 4.284249 62.896698
59 0 1 -13.270930 3.357797 62.795502
60 0 1 -13.582630 3.752107 61.943909
61 0 1 -13.644431 4.335938 61.240509
62 0 1 -12.731030 4.309739 60.994110
63 0 1 -12.020930 3.703198 61.224396
64 0 1 -12.620630 2.845117 61.194092
65 0 1 -12.879630 1.885858 61.223083
66 0 1 -13.895030 1.947969 61.144989
67 0 1 -13.681130 2.030648 60.231995
68 0 1 -13.029631 1.477178 59.870697
69 0 1 -13.530630 1.579408 59.014709
70 0 1 -14.216231 1.079839 58.609894
71 0 1 -14.271331 0.119115 59.042908
72 0 1 -14.513530 -0.505938 58.348999
73 0 1 -15.275031 -1.005023 58.509003
74 0 1 -15.410830 -0.421437 59.312012
75 0 1 -14.907130 0.091319 60.002289
76 0 1 -14.921231 -0.604487 60.671387
77 0 1 -15.337731 -1.182938 61.266693
78 0 1 -15.833531 -1.342219 62.101410
79 0 1 -15.141030 -2.025542 62.174896
80 0 1 -15.489530 -2.180392 63.046387
81 0 1 -15.200631 -3.117991 63.046600
82 0 1 -14.424130 -3.174542 62.405609
83 0 1 -13.569731 -3.281102 62.786407
84 0 1 -12.806030 -2.818942 62.998901
85 0 1 -11.902631 -3.143561 62.960907
86 0 1 -11.413131 -2.672963 62.295898
87 0 1 -11.476331 -3.447352 61.717102
88 0 1 -12.098631 -3.665812 61.094696
89 0 1 -12.193231 -4.165322 60.243713
90 0 1 -11.516629 -4.472623 60.904297
91 0 1 -11.018430 -5.241511 61.097107
92 0 1 -10.403630 -4.757903 60.508698
93 0 1 -9.781430 -4.596133 61.212189
94 0 1 -9.085731 -4.412742 61.845215
95 0 1 -9.057031 -5.104032 62.558197
96 0 1 -9.980830 -5.172633 62.957001
97 0 1 -9.960031 -5.781882 63.742401
98 0 1 -9.550330 -6.559793 63.367615
99 0 1 -8.879231 -7.059402 63.832306
100 0 1 -8.816131 -6.602612 64.675507
101 0 1 -9.087930 -6.568831 65.638489
102 0 1 -9.815431 -5.921742 65.532410
103 0 1 -10.534329 -5.268613 65.693909
104 0 1 -11.105229 -4.548343 65.383911
105 0 1 -10.803130 -3.630292 65.526917
106 0 1 -10.746331 -2.993293 66.297302
107 0 1 -10.066831 -2.685773 66.867798
108 0 1 -9.541230 -2.109822 67.499390
109 0 1 -9.927131 -2.362193 68.367401
110 0 1 -8.999230 -2.130622 68.628784
111 0 1 -8.216729 -1.949313 69.194397
112 0 1 -8.694730 -1.822757 70.022400
113 0 1 -8.947831 -1.211133 70.717194
114 0 1 -9.752332 -0.713792 70.950104
115 0 1 -9.052930 -0.800309 71.686584
116 0 1 -9.548032 -1.185511 72.410706
117 0 1 -9.985829 -2.071912 72.369507
118 0 1 -10.102429 -2.054862 73.319519
119 0 1 -9.934331 -2.134711 74.284302
120 0 1 -9.994731 -2.956872 73.912201
121 0 1 -10.242131 -3.914912 74.002808
122 0 1 -9.763131 -4.714572 74.126099
123 0 1 -9.151132 -5.444991 74.191498
124 0 1 -9.781131 -5.586253 73.422607
125 0 1 -9.951631 -6.455503 73.861511
126 0 1 -9.320432 -6.872622 73.215393
127 0 1 -10.110532 -6.859202 72.724792
128 0 1 -10.433331 -5.952022 72.635986
129 0 1 -11.347631 -5.580852 72.365784
130 0 1 -10.955029 -4.788552 71.959808
131 0 1 -10.159032 -5.149423 71.479095
132 0 1 -9.825931 -5.057462 70.565796
133 0 1 -10.787030 -4.957812 70.578796
134 0 1 -10.658031 -5.893592 70.564087
135 0 1 -10.580731 -6.650672 70.011292
136 0 1 -9.708329 -7.059253 69.692200
137 0 1 -9.839330 -6.489572 68.925507
138 0 1 -9.125131 -5.825412 68.699799
139 0 1 -8.583831 -6.376632 68.135681
140 0 1 -7.826730 -5.826732 68.197296
141 0 1 -7.123170 -5.296052 68.583191
142 0 1 -6.394010 -5.784432 68.223083
143 0 1 -5.672231 -6.082742 67.729797
144 0 1 -5.072801 -5.336312 67.787201
145 0 1 -4.946462 -4.359113 67.971405
146 0 1 -5.808520 -4.164443 68.383606
147 0 1 -6.112679 -4.721942 69.178192
148 0 1 -6.123792 -3.881701 69.625916
149 0 1 -6.346051 -4.624412 70.175598
150 0 1 -6.083911 -5.360433 70.652802
151 0 1 -6.517011 -5.266612 71.460693
152 0 1 -6.026830 -6.166852 71.735992
153 0 1 -5.186160 -6.733912 71.436584
154 0 1 -6.009091 -7.263003 71.677307
155 0 1 -6.098130 -7.702062 72.613098
156 0 1 -5.772950 -8.000602 73.434387
157 0 1 -5.991071 -7.749982 74.404205
158 0 1 -6.721190 -8.138383 73.935699
159 0 1 -7.485520 -8.620912 73.479401
160 0 1 -6.708650 -9.234693 73.331299
161 0 1 -6.012080 -9.566413 72.722992
162 0 1 -6.326032 -9.488261 71.729492
163 0 1 -6.944520 -10.198712 71.977203
164 0 1 -6.656711 -11.155763 71.910309
165 0 1 -5.731811 -11.422263 71.726990
166 0 1 -5.068601 -11.416163 71.080597
167 0 1 -4.966590 -12.409963 70.861603
168 0 1 -4.379710 -12.684463 70.108795
169 0 1 -3.821271 -12.004863 69.787598
170 0 1 -3.252530 -12.660563 69.421692
171 0 1 -3.043752 -13.073363 70.320190
172 0 1 -2.124721 -12.676162 70.171295
173 0 1 -1.537172 -13.224563 69.570618
174 0 1 -0.747041 -13.468463 69.153503
175 0 1 -0.046050 -13.966962 68.730286
176 0 1 0.108889 -13.486861 67.880188
177 0 1 -0.048961 -12.992063 67.125916
178 0 1 0.778449 -12.476762 67.009094
179 0 1 1.725745 -12.557363 66.892303
180 0 1 2.204247 -13.357863 66.468811
181 0 1 2.356978 -14.024762 65.872498
182 0 1 1.702018 -14.640964 65.592804
183 0 1 1.309418 -14.311763 66.387085
184 0 1 1.385070 -13.548663 65.803192
185 0 1 0.485209 -13.673263 66.235901
186 0 1 -0.034831 -13.669063 65.418213
187 0 1 -0.805131 -13.673862 66.029297
188 0 1 -1.536721 -14.226062 65.943787
189 0 1 -1.428781 -13.905162 66.800598
190 0 1 -1.094341 -13.000962 67.039703
191 0 1 -1.549031 -12.394162 66.493591
192 0 1 -2.169280 -11.707461 66.805695
193 0 1 -2.606921 -10.942962 66.432007
194 0 1 -3.367910 -10.619243 65.880096
195 0 1 -3.766320 -10.944062 65.078400
196 0 1 -4.512650 -10.406173 65.021210
197 0 1 -4.797721 -9.562953 64.691406
198 0 1 -4.913711 -9.922343 63.787201
199 0 1 -3.943771 -10.010093 63.657593
200 0 1 -4.212081 -9.207393 63.221710
201 0 1 -4.982070 -9.123603 62.486694
202 0 1 -4.828250 -10.117152 62.588501
203 0 1 -5.356971 -10.784852 62.924713
204 0 1 -6.026820 -10.317702 62.332092
205 0 1 -6.154920 -10.329051 61.309998
206 0 1 -5.209470 -10.417693 61.555511
207 0 1 -5.354661 -9.742232 60.903412
208 0 1 -5.095429 -9.969003 59.880096
209 0 1 -4.353570 -10.611331 59.734497
210 0 1 -4.949090 -11.434463 59.626892
211 0 1 -4.397660 -11.283462 58.802002
212 0 1 -4.372910 -11.613261 57.841187
213 0 1 -4.417720 -12.499663 57.413086
214 0 1 -5.372849 -12.656962 57.357788
215 0 1 -5.297080 -12.566161 56.366516
216 0 1 -6.285649 -12.675162 56.438995
217 0 1 -6.480962 -11.775863 56.697815
218 0 1 -7.408771 -11.783362 56.963684
219 0 1 -8.125430 -12.288661 56.487701
220 0 1 -8.814530 -12.062663 57.042694
221 0 1 -9.099231 -12.179563 56.111603
222 0 1 -8.975331 -12.666362 55.309906
223 0 1 -8.479331 -13.366763 54.849487
224 0 1 -8.841229 -13.881263 54.091614
225 0 1 -9.740130 -13.909461 54.282104
226 0 1 -9.768929 -12.979062 54.108215
227 0 1 -10.503230 -12.952361 54.726196
228 0 1 -11.114631 -13.318763 53.997986
229 0 1 -11.793330 -13.890363 53.588989
230 0 1 -12.553531 -13.443362 53.285583
231 0 1 -12.983030 -12.530162 53.251312
232 0 1 -12.492830 -12.148562 52.485291
233 0 1 -11.797030 -12.791062 52.423889
234 0 1 -11.518231 -11.864062 52.651001
235 0 1 -11.576932 -11.178863 51.966187
236 0 1 -10.685031 -11.064363 51.846710
237 0 1 -10.509629 -11.876563 52.272705
238 0 1 -9.509931 -11.898862 52.333191
239 0 1 -8.666430 -11.608962 52.669098
240 0 1 -8.557931 -10.658202 52.646698
241 0 1 -8.778331 -11.067662 51.738190
242 0 1 -9.089330 -11.831862 51.219788
243 0 1 -9.546031 -11.105863 50.742889
244 0 1 -8.985030 -10.556811 50.147491
245 0 1 -8.585832 -9.704103 50.389587
246 0 1 -8.870030 -9.009082 49.737701
247 0 1 -8.414830 -9.766433 49.306488
248 0 1 -7.767831 -10.347592 49.851685
249 0 1 -8.230432 -10.927363 49.278809
250 0 1 -7.842031 -11.868663 49.263916
251 0 1 -6.947560 -12.240262 49.481812
252 0 1 -6.397271 -12.608764 50.170105
253 0 1 -6.012820 -13.480563 50.083099
254 0 1 -5.277101 -12.767661 50.158112
255 0 1 -4.382091 -13.065661 50.122803
256 0 1 -4.704412 -13.959462 50.439606
257 0 1 -5.103961 -14.184762 49.642303
258 0 1 -5.795381 -14.893462 49.679993
259 0 1 -5.372571 -14.962462 50.541687
260 0 1 -6.261731 -15.311461 50.886108
261 0 1 -6.917680 -15.864062 50.337494
262 0 1 -6.687360 -16.830162 50.576416
263 0 1 -7.045020 -17.653461 50.967499
264 0 1 -7.137631 -18.377562 51.597595
265 0 1 -7.210832 -19.285461 51.384094
266 0 1 -6.488561 -19.145262 50.658386
267 0 1 -7.137000 -19.549761 50.191589
268 0 1 -7.459271 -18.752661 49.744995
269 0 1 -7.377381 -19.143560 48.862488
270 0 1 -7.165372 -18.835161 47.984894
271 0 1 -7.233911 -18.735462 47.095703
272 0 1 -7.612630 -17.926962 47.496307
273 0 1 -7.235440 -17.014662 47.462799
274 0 1 -7.401551 -16.822163 46.587402
275 0 1 -8.270930 -17.275560 46.715607
276 0 1 -7.802030 -18.048061 46.311584
277 0 1 -7.935929 -17.243561 45.760101
278 0 1 -8.731030 -17.027361 45.240509
279 0 1 -9.183530 -16.186161 45.209503
280 0 1 -9.783530 -16.864061 44.899292
281 0 1 -9.359830 -16.592861 44.061584
282 0 1 -8.506930 -16.271461 44.220612
283 0 1 -8.166631 -16.772762 43.532104
284 0 1 -7.255170 -16.715061 43.835815
285 0 1 -7.447850 -15.958562 44.415497
286 0 1 -7.727429 -15.543162 45.253296
287 0 1 -6.855439 -15.309161 45.609192
288 0 1 -5.990521 -15.124063 45.337799
289 0 1 -6.187291 -14.410861 44.695984
290 0 1 -5.294631 -14.185561 44.338501
291 0 1 -5.854489 -14.148562 43.554413
292 0 1 -6.399320 -13.998061 42.746887
293 0 1 -6.204572 -13.094462 42.389099
294 0 1 -6.584701 -13.410962 41.554993
295 0 1 -6.983182 -14.285062 41.463287
296 0 1 -7.598931 -14.427661 40.760803
297 0 1 -8.588132 -14.301661 40.858398
298 0 1 -9.464231 -13.909362 41.091400
299 0 1 -9.956929 -13.876964 40.324493
300 0 1 -10.089631 -14.557063 39.636292
301 0 1 -10.907632 -14.974063 39.248413
302 0 1 -10.480229 -15.269862 38.409607
303 0 1 -10.699031 -14.712462 37.651794
304 0 1 -11.499829 -14.767262 38.186798
305 0 1 -12.017430 -14.229463 38.720093
306 0 1 -11.174830 -13.723863 38.998993
307 0 1 -11.847230 -13.141862 38.587311
308 0 1 -11.506631 -13.188563 37.666504
309 0 1 -11.030129 -13.245662 36.873413
310 0 1 -11.891730 -13.554162 36.663391
311 0 1 -12.285131 -12.702361 36.888489
312 0 1 -12.915730 -12.024863 37.154999
313 0 1 -13.893130 -11.895762 37.089294
314 0 1 -14.705031 -11.864762 37.633698
315 0 1 -14.032630 -12.250361 38.234009
316 0 1 -13.132030 -11.909862 38.465912
317 0 1 -13.776931 -11.559661 39.007111
318 0 1 -13.390631 -10.741992 39.362488
319 0 1 -13.390131 -10.633082 38.408386
320 0 1 -12.740231 -10.578622 37.700592
321 0 1 -12.488931 -9.956561 36.964691
322 0 1 -13.173131 -9.548923 37.437195
323 0 1 -13.485230 -10.267703 36.777405
324 0 1 -13.721330 -9.805362 35.951691
325 0 1 -13.828631 -9.775981 34.941101
326 0 1 -13.354630 -9.304923 34.206512
327 0 1 -13.880830 -8.559852 34.288513
328 0 1 -14.600030 -8.252013 34.876587
329 0 1 -15.371730 -8.783053 34.842407
330 0 1 -14.858430 -9.287784 34.220306
331 0 1 -15.232831 -10.163451 34.003204
332 0 1 -14.630431 -10.760232 33.616913
333 0 1 -14.652631 -11.260262 34.508087
334 0 1 -15.212131 -11.716762 33.892395
335 0 1 -16.062431 -11.816262 33.509216
336 0 1 -16.164732 -11.133563 32.859497
337 0 1 -17.081831 -10.758042 32.870300
338 0 1 -17.280731 -9.867381 32.858490
339 0 1 -16.895332 -8.988093 32.984711
340 0 1 -17.607431 -8.824372 33.605194
341 0 1 -17.111132 -8.119113 33.201691
342 0 1 -17.798531 -7.555612 33.534790
343 0 1 -18.561932 -8.003682 33.721893
344 0 1 -18.758032 -7.267253 34.307983
345 0 1 -19.616932 -7.833142 34.386597
346 0 1 -20.126131 -8.079892 33.626404
347 0 1 -20.732731 -8.417352 33.003296
348 0 1 -20.560831 -9.113162 32.414612
349 0 1 -21.378332 -9.226974 32.018616
350 0 1 -21.420031 -10.236423 31.929901
351 0 1 -22.228531 -10.655313 32.266693
352 0 1 -21.507532 -11.092162 32.660400
353 0 1 -22.275232 -11.222861 33.289917
354 0 1 -21.490231 -10.835532 33.706116
355 0 1 -21.795332 -11.142062 34.580597
356 0 1 -22.375931 -11.047061 35.354797
357 0 1 -22.020931 -10.182813 35.129211
358 0 1 -21.382732 -10.376712 35.887207
359 0 1 -21.036032 -10.151793 36.701813
360 0 1 -21.732832 -9.557513 36.804291
361 0 1 -21.539032 -8.980132 36.019196
362 0 1 -21.452732 -8.033353 36.250793
363 0 1 -21.068432 -7.473521 35.548889
364 0 1 -21.042431 -6.566342 35.511414
365 0 1 -21.762232 -5.919072 35.697693
366 0 1 -21.272532 -5.049922 35.670593
367 0 1 -20.962332 -4.549403 36.470398
368 0 1 -21.645332 -4.698913 37.159302
369 0 1 -21.780832 -3.760053 37.446594
370 0 1 -20.987831 -3.224683 37.621094
371 0 1 -20.428732 -2.458083 37.693512
372 0 1 -19.446032 -2.448043 37.446716
373 0 1 -19.927132 -2.409133 36.552185
374 0 1 -19.095232 -2.600913 36.139496
375 0 1 -19.486931 -3.405192 35.883392
376 0 1 -19.338831 -3.066743 34.963104
377 0 1 -18.537432 -3.586183 34.927490
378 0 1 -18.077431 -2.808692 35.115387
379 0 1 -17.560732 -2.111253 34.848206
380 0 1 -17.838131 -1.902612 33.908691
381 0 1 -17.806732 -1.668895 32.958588
382 0 1 -17.034632 -1.268931 32.575287
383 0 1 -16.122332 -0.925837 32.813416
384 0 1 -15.563031 -1.426022 33.350708
385 0 1 -15.232131 -0.858216 34.047913
386 0 1 -14.904330 -1.650199 34.522095
387 0 1 -13.960830 -1.788781 34.641907
388 0 1 -13.947131 -2.274753 33.742706
389 0 1 -14.088830 -1.346381 33.564789
390 0 1 -13.214730 -1.261134 33.972412
391 0 1 -12.914130 -0.695952 34.683594
392 0 1 -13.346630 -0.093251 34.080383
393 0 1 -13.328430 0.627988 33.379303
394 0 1 -12.758531 0.079852 32.950684
395 0 1 -11.896729 -0.374345 33.166412
396 0 1 -11.704431 -0.245250 32.195190
397 0 1 -10.749930 -0.404487 32.088593
398 0 1 -10.685929 -0.766520 32.966705
399 0 1 -10.988730 -1.261220 33.810211
400 0 1 -10.185929 -1.663978 34.101410
401 0 1 -9.607131 -1.997392 33.475006
402 0 1 -8.956830 -2.631192 33.026093
403 0 1 -8.428731 -1.821683 32.782898
404 0 1 -7.594232 -1.506097 32.192688
405 0 1 -7.749330 -0.649297 31.738403
406 0 1 -8.190331 -0.444301 30.924896
407 0 1 -8.238431 -0.899125 30.030212
408 0 1 -8.659631 -0.362628 29.395813
409 0 1 -9.252931 0.403628 29.541016
410 0 1 -9.070432 1.284909 29.874908
411 0 1 -8.703731 2.201650 29.579895
412 0 1 -7.728230 2.258458 29.441284
413 0 1 -6.990930 2.906537 29.507202
414 0 1 -6.433660 3.694928 29.347595
415 0 1 -6.088901 4.522439 29.618500
416 0 1 -5.256532 4.166909 29.315796
417 0 1 -4.412950 3.783467 29.169495
418 0 1 -4.365211 4.679627 29.528107
419 0 1 -3.444850 4.933080 29.796112
420 0 1 -3.326772 5.903108 29.559601
421 0 1 -2.548902 6.474668 29.865692
422 0 1 -2.404731 7.462178 30.127594
423 0 1 -2.983390 7.621167 30.831696
424 0 1 -2.589181 8.479596 31.167786
425 0 1 -2.668721 9.361337 31.540009
426 0 1 -1.633302 9.180638 31.617889
427 0 1 -1.857000 9.793038 32.338898
428 0 1 -2.492351 9.617837 33.091888
429 0 1 -3.319671 9.233537 32.703491
430 0 1 -4.150102 9.712438 32.456299
431 0 1 -5.064610 9.760739 32.087708
432 0 1 -4.991250 10.761136 31.989288
433 0 1 -5.505040 11.092237 31.262299
434 0 1 -4.895619 10.383939 31.012299
435 0 1 -4.682351 9.666837 30.368988
436 0 1 -3.719390 9.595239 30.402802
437 0 1 -3.571000 9.232438 29.540497
438 0 1 -2.679302 9.407338 29.969513
439 0 1 -2.499831 9.537335 29.029510
440 0 1 -2.950910 8.955869 28.414490
441 0 1 -3.691941 8.541177 27.868286
442 0 1 -4.453462 8.703557 28.494385
443 0 1 -4.616681 9.023396 29.370087
444 0 1 -5.245631 9.608838 29.065094
445 0 1 -6.029801 9.778039 29.611084
446 0 1 -5.496369 10.507436 29.427704
447 0 1 -5.610030 10.378438 28.501495
448 0 1 -6.569901 10.385339 28.713196
449 0 1 -6.394792 9.458936 28.681091
450 0 1 -6.484571 9.382939 27.768402
451 0 1 -6.872472 8.562337 27.432098
452 0 1 -7.622930 9.179540 27.250793
453 0 1 -7.791831 10.098836 27.266907
454 0 1 -7.924331 10.877339 27.700195
455 0 1 -8.357030 11.688039 27.308289
456 0 1 -8.787730 12.526338 27.069000
457 0 1 -9.022330 13.384740 26.890198
458 0 1 -9.049432 13.449636 25.911499
459 0 1 -9.311030 12.801438 25.264801
460 0 1 -10.184529 12.504937 25.131714
461 0 1 -10.848330 12.981236 24.567596
462 0 1 -10.226029 12.986836 23.884399
463 0 1 -10.568431 13.767537 23.379395
464 0 1 -10.913930 14.697438 23.457703
465 0 1 -9.992930 14.823739 23.566895
466 0 1 -9.283031 15.566640 23.889801
467 0 1 -8.818631 16.376539 23.784302
468 0 1 -9.163030 17.328939 23.805511
469 0 1 -9.731030 17.526739 24.566589
470 0 1 -9.090631 18.202539 24.513000
471 0 1 -8.163630 17.974939 24.216797
472 0 1 -8.349832 17.933737 23.290314
473 0 1 -8.315230 18.895536 23.051788
474 0 1 -8.133229 19.171041 22.212402
475 0 1 -8.347831 19.106237 21.252304
476 0 1 -8.272531 18.842741 20.379196
477 0 1 -8.710530 19.375238 19.684006
478 0 1 -8.533231 18.893141 18.910599
479 0 1 -8.111531 18.247641 18.406998
480 0 1 -7.535851 17.931238 17.696899
481 0 1 -7.697732 17.024641 17.419601
482 0 1 -6.905311 16.504938 17.455292
483 0 1 -5.928422 16.239737 17.561295
484 0 1 -5.773850 17.156340 17.630402
485 0 1 -5.888150 17.155138 16.694397
486 0 1 -5.102111 17.683737 16.642899
487 0 1 -4.771380 18.395239 17.097702
488 0 1 -4.037101 17.757139 17.412506
489 0 1 -3.137901 17.672941 17.096603
490 0 1 -2.265302 17.992838 17.338699
491 0 1 -1.398570 17.733339 16.986694
492 0 1 -1.424501 16.848837 16.613495
493 0 1 -1.735410 16.010538 16.359695
494 0 1 -1.900571 15.339635 15.686204
495 0 1 -2.793931 14.980336 15.470094
496 0 1 -3.487222 14.292836 15.128404
497 0 1 -4.118112 13.956540 15.900895
498 0 1 -4.137660 13.411439 16.828705
499 0 1 -3.527780 14.148938 17.017792
500 0 1 -2.550891 14.050736 16.933807
501 0 1 -2.492530 14.137540 17.901093
502 0 1 -1.694200 14.473737 17.555496
503 0 1 -1.623451 13.699739 16.996704
504 0 1 -0.609262 13.439736 16.781601
505 0 1 0.080128 14.161839 17.108902
506 0 1 0.859210 13.955136 17.576294
507 0 1 1.279170 14.826737 17.399796
508 0 1 1.882466 14.407636 16.713593
509 0 1 1.979546 13.447938 16.616608
510 0 1 2.398219 12.867940 17.367493
511 0 1 2.310338 12.442136 16.542908
512 0 1 1.926566 11.548738 16.595703
513 0 1 1.187258 10.929837 16.567200
514 0 1 1.396699 10.385339 17.314896
515 0 1 0.680779 9.771939 17.513199
516 0 1 0.409098 9.305337 16.761597
517 0 1 1.098119 8.829549 17.286102
518 0 1 1.526269 8.603086 16.489700
519 0 1 1.030049 9.215737 15.838502
520 0 1 1.785247 9.705838 15.494798
521 0 1 2.720423 10.023538 15.304505
522 0 1 3.621760 10.324937 15.435807
523 0 1 3.494990 9.426339 15.847993
524 0 1 3.007039 8.599477 16.000595
525 0 1 3.621810 7.996377 15.636201
526 0 1 2.867053 7.572186 15.398499
527 0 1 3.039159 7.778516 14.470399
528 0 1 3.698529 8.426667 14.286408
529 0 1 3.773280 7.720098 13.669496
530 0 1 4.677569 8.110669 13.705598
531 0 1 4.882831 8.195157 12.740907
532 0 1 5.008498 9.050267 12.307298
533 0 1 4.271201 9.749337 12.355607
534 0 1 4.559798 9.703137 11.329194
535 0 1 4.731730 9.733640 10.283006
536 0 1 4.204631 10.388337 9.722016
537 0 1 3.929858 11.127839 9.172776
538 0 1 4.075530 12.032636 9.369416
539 0 1 4.906508 11.584638 9.311006
540 0 1 5.132220 10.686238 9.159852
541 0 1 5.588981 11.119336 9.922685
542 0 1 5.987620 10.230737 10.156007
543 0 1 5.750590 9.489537 10.695695
544 0 1 5.657691 10.321538 11.216508
545 0 1 5.910869 10.529538 12.130799
546 0 1 6.213099 9.917737 12.833100
547 0 1 7.047950 9.461938 13.152101
548 0 1 7.466311 10.027036 13.871705
549 0 1 7.933398 10.884336 13.842500
550 0 1 8.900569 11.008039 13.677201
551 0 1 9.214770 11.138036 14.518296
552 0 1 8.988849 11.754239 15.177903
553 0 1 9.779059 11.413640 15.727204
554 0 1 10.077559 11.341538 16.650101
555 0 1 10.844249 11.825337 16.696808
556 0 1 10.966979 12.076737 17.614807
557 0 1 11.128161 12.981439 17.875595
558 0 1 10.920482 13.911939 18.068893
559 0 1 11.513110 13.907838 18.890701
560 0 1 11.568141 13.208138 19.569702
561 0 1 10.739470 13.168138 19.050095
562 0 1 10.436778 13.517537 19.874603
563 0 1 9.924590 14.123136 20.335205
564 0 1 9.277621 13.449338 20.391205
565 0 1 8.371268 13.023438 20.129898
566 0 1 8.997340 13.343740 19.446503
567 0 1 8.676478 14.213239 19.251801
568 0 1 8.217360 15.040238 19.555405
569 0 1 7.310939 15.513238 19.625305
570 0 1 6.684772 15.769536 18.953094
571 0 1 5.907050 16.325739 18.835495
572 0 1 5.044448 16.052038 19.107605
573 0 1 4.558120 15.285939 19.395096
574 0 1 4.147330 14.495336 19.738602
575 0 1 4.784850 13.916337 20.017700
576 0 1 4.227748 13.405637 20.616898
577 0 1 3.308957 13.174336 20.655792
578 0 1 2.901984 12.562139 21.355606
579 0 1 2.897115 13.421338 21.775696
580 0 1 2.294705 13.182939 22.439697
581 0 1 1.573668 12.986936 21.830093
582 0 1 1.327208 12.052938 21.924408
583 0 1 1.585456 11.890836 21.012405
584 0 1 2.164294 11.906938 20.074005
585 0 1 2.267997 11.154439 20.649994
586 0 1 2.271872 10.208837 20.585495
587 0 1 1.801364 10.169938 21.417603
588 0 1 2.587880 9.955937 22.101196
589 0 1 2.419896 9.021798 21.794495
590 0 1 1.744370 8.385159 21.992798
591 0 1 2.422503 7.658757 22.064606
592 0 1 1.969489 6.856179 21.608994
593 0 1 2.823006 7.162637 21.230698
594 0 1 2.566857 6.192399 21.091095
595 0 1 2.422654 6.465138 20.122192
596 0 1 2.077119 5.605668 19.987396
597 0 1 1.417655 4.947080 19.868805
598 0 1 1.127579 4.960027 18.996902
599 0 1 0.209449 5.007058 18.812805
600 0 1 -0.219821 4.895848 19.787598
601 0 1 -0.816072 4.971299 19.073502
602 0 1 -0.676030 4.382886 18.329102
603 0 1 -0.204160 4.515958 17.470001
604 0 1 0.574559 4.874269 16.969406
605 0 1 1.385499 4.606599 16.564102
606 0 1 1.744008 4.351850 15.748902
607 0 1 2.463677 4.032388 15.259400
608 0 1 2.986619 4.912797 15.493897
609 0 1 3.360890 5.647969 15.116197
610 0 1 3.954360 5.540479 15.821595
611 0 1 4.244491 6.133348 15.093507
612 0 1 5.102771 5.768998 15.035203
613 0 1 5.416148 5.309110 15.806504
614 0 1 5.278769 6.226087 15.984696
615 0 1 6.148009 6.111638 15.543595
616 0 1 6.430118 7.046388 15.493104
617 0 1 7.381770 7.237557 15.759309
618 0 1 8.052680 6.980397 16.386200
619 0 1 8.921920 7.308789 16.497406
620 0 1 8.798919 8.265649 16.677704
621 0 1 8.791781 9.181336 16.969803
622 0 1 9.572040 8.898740 17.516998
623 0 1 10.470111 8.601808 17.624802
624 0 1 10.902202 7.854947 18.105103
625 0 1 10.466838 6.978047 18.053894
626 0 1 10.617000 5.987958 18.261795
627 0 1 11.255561 6.151559 19.053497
628 0 1 11.708961 6.156087 19.929199
629 0 1 10.931857 5.989949 20.407196
630 0 1 10.386668 6.135919 21.195404
631 0 1 10.213519 5.355729 21.693695
632 0 1 10.074420 4.546086 22.217606
633 0 1 10.869700 4.542478 22.761688
634 0 1 10.323501 3.932157 23.301605
635 0 1 10.913871 3.666886 24.048187
636 0 1 11.321200 3.231229 23.309296
637 0 1 10.877528 2.616899 22.692688
638 0 1 10.849509 2.666009 21.717697
639 0 1 10.742938 2.024579 21.020996
640 0 1 11.131511 1.245458 20.474106
641 0 1 11.399791 0.690648 21.259995
642 0 1 11.437778 -0.087758 20.628799
643 0 1 11.248740 -0.662476 19.993103
644 0 1 10.568217 -0.931819 20.574707
645 0 1 11.023051 -1.685990 20.139404
646 0 1 10.082049 -1.977132 19.994095
647 0 1 10.002788 -1.191659 19.379501
648 0 1 10.335498 -0.510863 18.701202
649 0 1 9.859149 0.328187 18.916794
650 0 1 9.331321 0.666429 18.197296
651 0 1 9.666389 1.587659 18.042694
652 0 1 10.616981 1.811170 17.815506
653 0 1 11.135402 2.050927 17.002197
654 0 1 12.062400 2.192639 17.074005
655 0 1 12.719970 1.967786 17.748993
656 0 1 12.653270 2.901906 17.575699
657 0 1 12.040950 3.121819 18.242798
658 0 1 11.923167 4.020009 18.695801
659 0 1 11.516841 4.709996 18.154800
660 0 1 11.143828 3.935098 17.687500
661 0 1 11.229579 2.991326 17.554504
662 0 1 11.320590 3.454267 16.659103
663 0 1 11.560210 3.185456 15.719102
664 0 1 11.956038 3.010648 14.869004
665 0 1 12.192321 2.937459 13.861207
666 0 1 12.779071 2.654229 13.124207
667 0 1 12.776568 1.809198 13.564607
668 0 1 13.567969 1.323506 13.563401
669 0 1 14.092471 0.602979 13.733598
670 0 1 14.775271 -0.025191 13.871003
671 0 1 15.203071 -0.782210 14.205506
672 0 1 14.510169 -1.481965 14.346803
673 0 1 15.038268 -1.503312 15.162400
674 0 1 14.935168 -2.465793 15.047105
675 0 1 14.922568 -3.463813 15.241395
676 0 1 14.912768 -4.249162 15.689698
677 0 1 15.613070 -4.343081 16.344406
678 0 1 15.804969 -5.187562 15.849793
679 0 1 16.234770 -4.413362 15.391496
680 0 1 17.165869 -4.387033 15.770509
681 0 1 17.268969 -4.243373 16.730194
682 0 1 17.124769 -3.811923 17.554504
683 0 1 17.639170 -2.993592 17.203796
684 0 1 17.295771 -2.879962 18.081100
685 0 1 16.429468 -2.578082 17.686600
686 0 1 17.031069 -2.072822 17.181702
687 0 1 17.190069 -1.190656 17.462601
688 0 1 17.421770 -0.355245 17.056595
689 0 1 17.909967 0.456498 17.194595
690 0 1 18.422167 0.234979 16.426498
691 0 1 19.017469 -0.511205 16.503693
692 0 1 19.603670 0.108276 16.988708
693 0 1 19.655169 -0.581515 17.742905
694 0 1 18.679567 -0.447534 17.749695
695 0 1 18.661169 0.434157 18.208801
696 0 1 18.895868 0.000415 19.035400
697 0 1 18.731966 0.574718 19.763199
698 0 1 17.777868 0.733647 20.056000
699 0 1 18.093470 1.666307 20.277008
700 0 1 18.702868 2.172379 20.803802
701 0 1 18.350870 1.444226 21.357208
702 0 1 19.061769 1.811086 21.851105
703 0 1 18.731867 1.195718 22.464096
704 0 1 19.290869 0.662568 21.935608
705 0 1 18.881670 -0.194394 22.140594
706 0 1 18.654970 -0.576476 21.288406
707 0 1 19.065268 -1.011485 20.550003
708 0 1 18.492067 -1.302344 19.836899
709 0 1 18.850168 -1.684289 19.030304
710 0 1 18.384169 -2.464793 18.750397
711 0 1 19.296968 -2.789302 18.874298
712 0 1 19.573267 -3.553561 19.353699
713 0 1 20.531969 -3.688832 19.509506
714 0 1 21.001768 -4.160903 18.802597
715 0 1 21.615671 -3.452952 18.941696
716 0 1 22.172968 -2.969592 18.305695
717 0 1 21.569666 -3.143323 17.642502
718 0 1 21.051966 -3.833982 17.112503
719 0 1 21.127466 -4.784463 17.170197
720 0 1 21.282969 -5.713973 17.033005
721 0 1 20.713770 -6.496371 16.936096
722 0 1 21.278769 -6.680633 17.740402
723 0 1 20.378069 -6.893632 17.949203
724 0 1 19.596769 -7.338283 17.619293
725 0 1 19.005167 -6.954112 18.293396
726 0 1 18.323771 -7.584672 18.415192
727 0 1 17.425470 -7.748202 18.222595
728 0 1 16.927568 -6.934253 18.255096
729 0 1 16.002069 -6.670432 18.259094
730 0 1 15.686168 -5.782052 17.920105
731 0 1 14.831168 -6.114821 18.134308
732 0 1 13.974872 -6.064603 17.794708
733 0 1 13.699370 -6.481063 17.036804
734 0 1 13.638370 -7.392303 17.081100
735 0 1 13.309070 -7.875302 17.810898
736 0 1 13.923469 -8.580182 17.716492
737 0 1 13.391467 -8.824142 18.417603
738 0 1 13.929271 -9.331153 19.127396
739 0 1 13.872668 -10.275313 19.470795
740 0 1 12.995269 -10.437442 19.632095
741 0 1 12.542769 -10.829383 20.307693
742 0 1 11.568179 -10.782512 20.207703
743 0 1 10.993430 -10.079272 20.427994
744 0 1 10.589240 -9.438962 20.939194
745 0 1 11.306888 -8.826793 20.629898
746 0 1 10.506747 -8.362412 20.316406
747 0 1 9.698211 -8.383702 20.875092
748 0 1 9.179969 -7.484893 20.834503
749 0 1 8.406779 -7.637061 21.389603
750 0 1 7.678561 -8.067052 21.974106
751 0 1 7.244811 -7.853732 21.153198
752 0 1 7.228660 -6.858993 21.439102
753 0 1 6.933261 -6.043853 20.976700
754 0 1 7.372439 -5.738952 20.179001
755 0 1 6.418769 -5.627393 20.114899
756 0 1 5.900580 -5.215793 19.375504
757 0 1 6.661128 -4.689082 19.274002
758 0 1 6.994208 -4.709832 20.189804
759 0 1 7.757831 -4.119752 19.903503
760 0 1 7.413100 -3.412192 20.479004
761 0 1 6.808768 -2.687062 20.413101
762 0 1 7.299819 -1.821248 20.367905
763 0 1 7.470939 -2.220702 21.182098
764 0 1 6.524318 -2.041432 21.287903
765 0 1 5.907851 -1.333735 21.387100
766 0 1 5.009170 -1.005378 21.257507
767 0 1 5.611018 -0.572413 20.661102
768 0 1 6.562320 -0.686557 20.869202
769 0 1 6.503249 -0.010381 20.179993
770 0 1 6.358268 0.237668 19.266098
771 0 1 5.546920 -0.279391 19.478195
772 0 1 5.446261 -1.004483 18.733200
773 0 1 4.487041 -1.111619 18.881195
774 0 1 4.388438 -1.434010 17.921295
775 0 1 4.291041 -1.055491 17.069504
776 0 1 4.776198 -1.763299 16.611496
777 0 1 5.008430 -2.615493 17.092804
778 0 1 5.953891 -2.259292 17.278305
779 0 1 5.797931 -2.193522 16.332703
780 0 1 5.545070 -3.063912 15.942903
781 0 1 5.512519 -2.351672 15.390595
782 0 1 5.248889 -2.237403 14.476594