LAMMPS data file via MDAnalysis

        2000  atoms
        1999  bonds
           0  angles
           0  dihedrals
           0  impropers

           1  atom types
           1  bond types
           0  angle types
           0  dihedral types
           0  improper types

-30.5 30.5 xlo xhi
-30.5 30.5 ylo yhi
-233.5 233.5 zlo zhi


Masses

1 1.000000

Atoms

1 0 1 -14.434465 17.211395 85.684906
2 0 1 -15.060665 16.441395 85.837006
3 0 1 -14.743565 15.648392 85.484894
4 0 1 -13.792265 15.520695 85.464783
5 0 1 -14.012064 15.428993 86.385681
6 0 1 -14.529764 14.625595 86.408600
7 0 1 -13.929665 13.908394 86.630798
8 0 1 -13.153666 14.029892 87.205994
9 0 1 -12.837965 13.141891 87.177917
10 0 1 -12.893866 13.245293 86.190308
11 0 1 -12.250555 12.868294 85.502289
12 0 1 -11.650305 13.568092 85.754517
13 0 1 -11.477575 14.503792 85.499817
14 0 1 -11.848494 14.815895 84.552399
15 0 1 -12.056105 14.579994 83.634003
16 0 1 -11.689575 13.810593 83.074402
17 0 1 -11.261225 14.521294 82.541504
18 0 1 -10.722185 13.719292 82.894989
19 0 1 -11.101875 13.440193 82.063995
20 0 1 -12.037605 13.668392 81.818298
21 0 1 -11.823765 13.849094 80.948181
22 0 1 -11.060946 14.215996 80.479095
23 0 1 -10.237335 14.621895 80.532288
24 0 1 -10.152164 13.826694 80.056396
25 0 1 -10.466885 13.739193 79.158997
26 0 1 -11.222975 13.327293 78.792389
27 0 1 -11.919344 12.780396 79.171509
28 0 1 -11.961103 11.869133 78.734009
29 0 1 -12.163134 11.783512 77.751099
30 0 1 -12.101755 10.911293 77.204712
31 0 1 -12.729185 11.506935 76.720306
32 0 1 -13.011366 10.866802 76.014008
33 0 1 -13.815365 10.624763 76.607788
34 0 1 -13.318766 9.799255 76.634399
35 0 1 -13.950266 9.329582 77.292908
36 0 1 -14.256565 9.231392 76.434814
37 0 1 -13.605465 8.867493 75.843903
38 0 1 -14.274164 8.849174 75.106384
39 0 1 -13.511366 8.339104 74.660217
40 0 1 -14.304964 7.800694 74.871399
41 0 1 -14.630964 6.959953 74.506104
42 0 1 -14.310665 6.994965 73.595490
43 0 1 -13.471165 7.223663 73.944611
44 0 1 -12.674044 6.768723 74.231018
45 0 1 -12.513346 6.394993 75.101807
46 0 1 -11.770144 5.843204 75.434998
47 0 1 -11.173376 6.432724 75.012207
48 0 1 -11.099146 5.551804 74.701202
49 0 1 -11.621655 4.896225 75.071594
50 0 1 -12.376425 4.532055 75.534790
51 0 1 -13.016966 4.033352 76.085205
52 0 1 -13.616865 3.264602 75.994812
53 0 1 -14.076666 4.059383 76.180695
54 0 1 -14.518764 3.689785 75.403900
55 0 1 -13.635765 3.854763 74.975006
56 0 1 -13.556065 2.899633 74.999298
57 0 1 -13.393064 2.123630 74.427002
58 0 1 -14.202065 1.863394 74.825989
59 0 1 -14.566065 2.757892 74.938202
60 0 1 -14.434664 2.735409 73.992706
61 0 1 -13.721266 3.343082 73.649414
62 0 1 -13.549166 2.766392 72.931885
63 0 1 -13.576864 1.791853 72.691498
64 0 1 -13.296164 1.745067 71.749817
65 0 1 -12.701395 1.545376 70.986298
66 0 1 -12.105255 0.901188 71.403503
67 0 1 -11.563536 1.026945 72.167206
68 0 1 -10.566885 1.063232 71.905396
69 0 1 -9.603266 0.891256 71.847595
70 0 1 -8.709734 1.226833 72.175903
71 0 1 -8.871605 1.435241 71.224304
72 0 1 -8.129265 1.364794 70.680786
73 0 1 -7.336084 1.089103 71.147003
74 0 1 -6.516464 0.869333 71.567200
75 0 1 -6.080444 0.088203 71.849792
76 0 1 -5.472275 -0.628117 71.864410
77 0 1 -5.210514 -1.403616 71.393616
78 0 1 -5.681635 -2.234267 71.139008
79 0 1 -5.678635 -3.108896 71.646210
80 0 1 -5.779776 -2.613316 72.396393
81 0 1 -5.828985 -2.572518 73.339203
82 0 1 -5.555204 -3.386776 73.860413
83 0 1 -5.779116 -3.240128 74.847290
84 0 1 -5.346806 -2.385407 75.038605
85 0 1 -4.867544 -1.941366 74.340698
86 0 1 -4.341394 -2.318676 75.058411
87 0 1 -4.719505 -2.651407 75.904999
88 0 1 -4.523325 -3.534096 75.640808
89 0 1 -4.281414 -4.453568 75.349304
90 0 1 -4.937885 -4.274067 74.641510
91 0 1 -5.467625 -3.932806 75.402283
92 0 1 -6.245834 -4.262836 75.805206
93 0 1 -6.840956 -4.942047 76.014191
94 0 1 -6.982855 -5.865986 75.733795
95 0 1 -6.641014 -6.610907 76.202911
96 0 1 -6.208914 -5.857277 76.726105
97 0 1 -6.205345 -5.021046 77.226898
98 0 1 -6.179615 -5.440767 78.074402
99 0 1 -5.698244 -6.241486 77.878693
100 0 1 -4.885965 -6.678967 77.846100
101 0 1 -4.983665 -7.024426 78.785889
102 0 1 -4.082865 -6.955517 79.042389
103 0 1 -4.138834 -7.357456 79.918213
104 0 1 -4.778645 -6.666916 80.227112
105 0 1 -4.433174 -6.135897 80.936493
106 0 1 -4.064905 -6.802366 81.543884
107 0 1 -3.210809 -7.202467 81.864807
108 0 1 -3.171243 -8.156406 82.090698
109 0 1 -2.447546 -8.262007 82.735809
110 0 1 -2.376257 -9.057707 82.148804
111 0 1 -2.849918 -9.582607 81.504211
112 0 1 -2.961790 -9.307407 80.616699
113 0 1 -2.760040 -9.626507 79.681213
114 0 1 -3.619503 -9.462906 79.235504
115 0 1 -4.355906 -9.294605 79.843689
116 0 1 -4.655554 -9.788307 80.628601
117 0 1 -4.814835 -10.725906 80.767090
118 0 1 -4.969425 -10.728407 81.777008
119 0 1 -4.192055 -11.309208 81.806702
120 0 1 -4.875484 -11.733208 81.145996
121 0 1 -5.590136 -12.399307 81.235901
122 0 1 -5.958765 -11.948807 80.495300
123 0 1 -5.640745 -12.783907 80.061493
124 0 1 -5.016026 -13.447006 80.477295
125 0 1 -5.757915 -13.980106 80.151917
126 0 1 -6.089834 -14.906706 80.235809
127 0 1 -6.320604 -14.956606 79.304199
128 0 1 -6.284506 -15.628706 78.617798
129 0 1 -6.502516 -16.250706 79.360504
130 0 1 -7.255775 -16.892107 79.446198
131 0 1 -7.120094 -17.490507 78.737000
132 0 1 -6.192595 -17.667206 78.359009
133 0 1 -6.292604 -17.370007 77.491791
134 0 1 -5.859545 -17.719707 76.678284
135 0 1 -5.565155 -18.264706 75.846313
136 0 1 -4.840925 -18.342506 75.290192
137 0 1 -4.387045 -18.670307 76.057709
138 0 1 -4.217695 -19.146606 76.881287
139 0 1 -3.970134 -20.028206 76.405884
140 0 1 -3.756244 -20.915707 76.915100
141 0 1 -4.625135 -20.642607 77.178589
142 0 1 -5.097916 -21.466908 77.158295
143 0 1 -5.264235 -21.485506 76.211609
144 0 1 -4.857445 -21.999407 75.429291
145 0 1 -4.121864 -22.256807 74.802307
146 0 1 -3.400217 -22.048206 75.354309
147 0 1 -3.675056 -21.213606 75.780609
148 0 1 -3.316631 -20.546507 75.236908
149 0 1 -2.422836 -20.690407 75.091187
150 0 1 -1.606375 -20.187107 74.937012
151 0 1 -2.233228 -19.409506 74.736389
152 0 1 -2.360199 -20.157907 74.157288
153 0 1 -1.769937 -19.651106 73.613892
154 0 1 -1.485685 -18.773506 73.364014
155 0 1 -0.915735 -19.515507 72.913818
156 0 1 -1.356495 -19.245907 72.131897
157 0 1 -1.795633 -18.612507 71.538391
158 0 1 -1.954714 -18.607906 70.620392
159 0 1 -2.775436 -19.087107 70.606201
160 0 1 -3.514623 -19.195206 69.964508
161 0 1 -3.891615 -18.819506 69.152405
162 0 1 -3.559526 -18.857107 68.254517
163 0 1 -2.903753 -18.286707 67.687103
164 0 1 -2.318636 -18.310507 66.890198
165 0 1 -1.594234 -18.209007 67.543396
166 0 1 -0.782186 -17.724007 67.545593
167 0 1 -1.206854 -17.072407 68.216400
168 0 1 -1.573324 -16.468607 67.577393
169 0 1 -2.404728 -16.013807 67.825989
170 0 1 -2.154217 -15.571106 68.619812
171 0 1 -1.418754 -15.364006 68.093903
172 0 1 -1.626625 -15.405607 67.181213
173 0 1 -1.397575 -14.377007 67.070801
174 0 1 -0.760977 -14.280407 66.370209
175 0 1 -0.393224 -13.988606 67.153687
176 0 1 -0.272485 -13.296507 66.464691
177 0 1 0.096483 -12.474007 66.810913
178 0 1 0.923426 -12.960207 66.738586
179 0 1 1.561556 -13.401707 67.362488
180 0 1 2.201807 -12.801407 67.673004
181 0 1 2.871695 -12.541206 68.291809
182 0 1 2.170206 -12.066607 68.789307
183 0 1 1.453345 -12.656906 68.530090
184 0 1 0.950526 -12.435005 69.320709
185 0 1 0.212015 -12.339407 69.886505
186 0 1 -0.162664 -13.056006 70.432800
187 0 1 0.699095 -13.431006 70.342590
188 0 1 0.621336 -12.882007 71.080688
189 0 1 0.817507 -13.806307 71.394714
190 0 1 0.583494 -14.641106 71.021393
191 0 1 0.414515 -15.512207 70.570709
192 0 1 -0.127886 -15.565306 69.752014
193 0 1 -0.646936 -14.768507 69.549011
194 0 1 -1.525995 -14.838707 69.955597
195 0 1 -1.530094 -13.906107 70.312897
196 0 1 -2.498382 -13.787706 70.566711
197 0 1 -1.975338 -13.106107 71.104309
198 0 1 -2.619529 -12.508907 70.725311
199 0 1 -2.009468 -11.752106 70.651703
200 0 1 -1.513124 -11.484007 71.438995
201 0 1 -1.228624 -10.616806 71.706482
202 0 1 -1.712335 -11.005806 72.481995
203 0 1 -0.978365 -11.175407 73.007385
204 0 1 -0.785646 -10.267906 73.262085
205 0 1 -1.476644 -9.889008 72.796082
206 0 1 -2.445110 -9.611706 72.949005
207 0 1 -2.178894 -8.773308 73.448914
208 0 1 -2.530138 -8.246807 72.694397
209 0 1 -2.556480 -8.018227 71.811005
210 0 1 -1.600734 -8.035227 71.748199
211 0 1 -1.023084 -7.281326 71.822815
212 0 1 -1.882932 -6.769108 71.510193
213 0 1 -2.862272 -6.943796 71.618591
214 0 1 -3.255689 -7.218576 70.795197
215 0 1 -3.627952 -7.785927 71.503113
216 0 1 -3.614465 -8.231606 72.375793
217 0 1 -4.546024 -8.122807 72.492706
218 0 1 -5.066525 -7.612797 73.090210
219 0 1 -5.634954 -6.817797 73.285095
220 0 1 -5.260204 -6.311405 73.985596
221 0 1 -6.080055 -5.897697 73.753204
222 0 1 -6.208704 -5.834946 72.833984
223 0 1 -6.839705 -6.619717 72.793610
224 0 1 -7.573135 -6.196247 73.258209
225 0 1 -8.365595 -6.635826 72.927917
226 0 1 -8.587385 -5.994316 72.257294
227 0 1 -9.417944 -6.459747 72.466614
228 0 1 -9.445875 -5.789165 73.206696
229 0 1 -9.426386 -4.834227 73.316498
230 0 1 -9.687984 -4.585577 74.202301
231 0 1 -8.894194 -4.119757 74.066589
232 0 1 -9.282595 -3.538117 73.359894
233 0 1 -9.968176 -2.830797 73.351807
234 0 1 -9.755825 -3.219857 72.486816
235 0 1 -9.088755 -2.643757 71.957703
236 0 1 -9.041185 -1.797796 71.435608
237 0 1 -9.416485 -1.847197 70.555695
238 0 1 -8.933125 -1.021027 70.565491
239 0 1 -9.189924 -0.641277 69.626801
240 0 1 -9.990814 -0.626698 70.356018
241 0 1 -10.830765 -0.465077 69.763916
242 0 1 -11.383974 -1.214346 69.517395
243 0 1 -12.353544 -1.095677 69.221802
244 0 1 -11.668955 -1.064427 68.482117
245 0 1 -10.911634 -0.922636 67.883118
246 0 1 -10.304186 -1.193146 67.263702
247 0 1 -9.713114 -1.909857 67.416290
248 0 1 -9.636185 -1.952677 68.398010
249 0 1 -9.017015 -2.561516 68.096405
250 0 1 -8.651625 -3.229817 67.557983
251 0 1 -7.713625 -3.319117 67.337097
252 0 1 -7.957964 -3.704697 66.455383
253 0 1 -8.433365 -4.396427 66.002106
254 0 1 -9.330046 -4.149506 66.244293
255 0 1 -9.938135 -3.426476 66.126282
256 0 1 -10.274055 -4.211926 65.683105
257 0 1 -10.870466 -3.502777 65.631409
258 0 1 -10.911335 -2.856827 64.842285
259 0 1 -10.424564 -3.315068 64.009583
260 0 1 -10.966036 -2.636498 63.705597
261 0 1 -11.594805 -2.408827 62.985291
262 0 1 -12.370134 -2.394556 63.448303
263 0 1 -12.839266 -1.998686 62.559204
264 0 1 -12.794764 -1.018597 62.328094
265 0 1 -12.268644 -0.299526 62.706696
266 0 1 -11.949594 -1.204277 62.918396
267 0 1 -11.237123 -0.985317 62.269104
268 0 1 -11.172825 -0.548256 63.131592
269 0 1 -11.014805 -0.031576 63.931305
270 0 1 -11.708784 0.580614 64.290802
271 0 1 -11.072535 1.285578 64.157288
272 0 1 -10.475266 1.506222 63.482605
273 0 1 -10.194016 0.588434 63.420502
274 0 1 -9.480305 1.160160 63.857910
275 0 1 -8.609144 1.565862 64.156799
276 0 1 -8.948435 2.405552 63.864807
277 0 1 -9.209425 3.369253 63.841095
278 0 1 -8.266575 3.137733 63.952087
279 0 1 -7.625525 3.590515 64.526398
280 0 1 -7.209394 2.900793 64.958710
281 0 1 -6.811155 2.714567 64.086487
282 0 1 -6.903025 3.392452 63.450897
283 0 1 -6.355844 2.756029 62.975708
284 0 1 -5.616755 3.189764 62.512512
285 0 1 -5.961105 3.688083 61.745605
286 0 1 -6.239334 4.584732 61.837708
287 0 1 -6.778845 4.722073 62.644714
288 0 1 -7.478535 5.356182 63.116608
289 0 1 -7.862825 5.762112 62.342896
290 0 1 -7.712585 5.201225 61.578400
291 0 1 -8.589155 5.487465 61.334290
292 0 1 -8.129786 6.160934 60.828796
293 0 1 -8.922785 6.399525 60.366302
294 0 1 -9.653444 6.630512 59.731110
295 0 1 -9.328445 6.620255 58.828400
296 0 1 -8.477396 6.902603 58.507202
297 0 1 -7.772116 6.152824 58.205811
298 0 1 -7.145235 5.357925 58.284088
299 0 1 -6.514626 4.921673 58.868011
300 0 1 -7.098274 4.218044 58.558990
301 0 1 -7.504894 3.723701 59.284607
302 0 1 -7.962255 3.034214 59.681793
303 0 1 -8.571514 2.287641 59.347992
304 0 1 -9.021585 1.671678 59.954193
305 0 1 -9.757704 2.264990 60.002808
306 0 1 -9.571894 2.780363 59.149506
307 0 1 -10.439436 2.770498 58.687805
308 0 1 -11.115835 2.081543 58.509888
309 0 1 -11.356375 2.017372 59.467102
310 0 1 -11.949366 1.501531 60.071899
311 0 1 -11.897936 1.003986 60.920715
312 0 1 -11.922266 0.054354 60.749512
313 0 1 -11.296434 -0.689907 61.038513
314 0 1 -11.085365 -1.637387 60.959717
315 0 1 -11.056765 -2.210587 60.187805
316 0 1 -11.014154 -1.417378 59.665100
317 0 1 -11.660574 -1.297167 59.008698
318 0 1 -11.878866 -0.854967 58.187408
319 0 1 -12.591906 -0.588448 57.665802
320 0 1 -12.447285 -0.225207 56.790710
321 0 1 -13.311064 0.129803 56.904297
322 0 1 -14.259066 0.265363 57.134399
323 0 1 -14.087965 -0.629536 57.166107
324 0 1 -14.618065 -0.639637 57.998901
325 0 1 -15.352964 -1.232546 58.004395
326 0 1 -16.237864 -1.517967 57.984589
327 0 1 -15.678766 -1.781838 57.210083
328 0 1 -15.711664 -2.079907 56.327209
329 0 1 -14.762564 -2.446057 56.397400
330 0 1 -13.836164 -2.664976 56.388489
331 0 1 -13.304464 -2.525378 55.565613
332 0 1 -12.426575 -2.289477 55.156891
333 0 1 -13.235165 -1.832707 54.799988
334 0 1 -13.783165 -2.290688 54.078888
335 0 1 -14.692564 -2.148916 54.025909
336 0 1 -15.204763 -1.395676 53.890594
337 0 1 -15.689066 -0.622257 54.264099
338 0 1 -15.066664 0.076954 54.245087
339 0 1 -15.627764 0.766693 54.535309
340 0 1 -16.133265 0.899521 53.711487
341 0 1 -16.126465 0.634533 52.771606
342 0 1 -16.484465 0.111044 52.083099
343 0 1 -15.841465 -0.479017 51.767517
344 0 1 -15.081064 -1.126707 51.477600
345 0 1 -14.529465 -0.720528 52.212006
346 0 1 -14.431864 -1.665978 52.072296
347 0 1 -13.893866 -1.497467 51.218201
348 0 1 -13.156965 -1.467177 51.757385
349 0 1 -12.696066 -0.706167 51.439514
350 0 1 -12.106974 -0.976616 50.760193
351 0 1 -11.427315 -1.447157 51.323395
352 0 1 -11.210524 -2.132326 51.957214
353 0 1 -10.484724 -2.377827 51.261200
354 0 1 -11.216434 -2.638747 50.725006
355 0 1 -11.747175 -2.293886 50.041809
356 0 1 -12.061905 -1.653366 49.417603
357 0 1 -11.847305 -1.230997 48.587097
358 0 1 -11.418943 -2.078938 48.196106
359 0 1 -10.519186 -1.851267 47.906189
360 0 1 -10.550535 -0.971337 47.757111
361 0 1 -10.362274 -1.463387 46.928589
362 0 1 -9.448565 -1.649046 46.571106
363 0 1 -8.586084 -1.649006 46.071808
364 0 1 -8.383745 -0.926047 45.447388
365 0 1 -7.774555 -1.361397 44.818695
366 0 1 -7.035645 -1.132246 44.181091
367 0 1 -6.571554 -1.041268 45.107117
368 0 1 -7.149864 -0.299607 45.411713
369 0 1 -7.596794 -0.285076 44.518494
370 0 1 -7.407564 0.204263 43.743713
371 0 1 -7.272545 0.735063 44.540497
372 0 1 -7.066814 1.611618 45.040283
373 0 1 -7.762344 1.594724 45.732208
374 0 1 -7.433836 2.023424 46.515594
375 0 1 -7.438986 2.746917 47.165497
376 0 1 -7.098116 3.535373 47.587402
377 0 1 -6.615385 4.130295 46.940613
378 0 1 -6.263926 4.916553 47.309814
379 0 1 -6.636755 5.533504 46.649689
380 0 1 -6.480665 6.432823 46.347504
381 0 1 -6.332344 6.322113 47.262207
382 0 1 -5.464266 6.546444 46.990997
383 0 1 -4.559465 6.196625 47.236511
384 0 1 -4.948805 5.411983 47.627808
385 0 1 -5.431055 4.749134 48.117706
386 0 1 -4.858274 4.202133 47.659698
387 0 1 -5.496965 3.443722 47.557709
388 0 1 -4.982885 2.882536 48.225586
389 0 1 -4.922615 3.064853 49.195496
390 0 1 -3.979824 3.108003 49.006104
391 0 1 -3.177868 3.187534 49.498108
392 0 1 -2.226066 3.416263 49.420288
393 0 1 -1.667734 2.840605 48.955688
394 0 1 -2.543329 2.843017 48.626709
395 0 1 -3.199077 3.284294 48.113098
396 0 1 -3.661527 3.362804 47.261902
397 0 1 -3.944425 3.734642 46.470215
398 0 1 -3.566444 2.871961 46.092102
399 0 1 -3.397899 2.770075 45.074890
400 0 1 -4.321674 2.607256 45.300507
401 0 1 -4.706125 2.867738 44.451202
402 0 1 -4.892935 3.760582 44.089417
403 0 1 -4.673195 4.648373 44.428497
404 0 1 -5.486465 4.482101 44.950897
405 0 1 -6.115734 5.294044 44.841888
406 0 1 -6.952696 5.740715 45.070496
407 0 1 -6.232716 6.403465 44.982788
408 0 1 -5.779415 6.974102 44.335815
409 0 1 -5.117535 7.560425 43.932190
410 0 1 -5.727144 7.247242 43.297699
411 0 1 -6.173506 7.708572 42.580383
412 0 1 -5.381065 8.232853 42.651917
413 0 1 -5.289684 9.087952 42.119385
414 0 1 -4.945005 8.844444 41.288910
415 0 1 -4.126444 8.294304 41.328186
416 0 1 -3.283220 8.294113 41.808990
417 0 1 -2.407333 8.268211 42.265808
418 0 1 -1.964073 8.754223 43.007111
419 0 1 -1.590524 8.459805 43.810486
420 0 1 -2.434078 8.733612 44.073303
421 0 1 -2.447302 7.757034 44.300415
422 0 1 -1.750965 7.681103 44.883789
423 0 1 -1.226946 6.902943 44.893494
424 0 1 -0.247255 7.158043 44.929199
425 0 1 0.149817 7.955395 45.273499
426 0 1 0.977915 7.575184 45.676392
427 0 1 1.100737 7.231354 46.553192
428 0 1 1.035937 7.473675 47.489410
429 0 1 2.040495 7.677345 47.476990
430 0 1 2.560686 8.166393 46.819611
431 0 1 2.986826 8.830193 47.351013
432 0 1 3.532515 8.355423 48.018707
433 0 1 3.885935 8.886703 48.730408
434 0 1 4.263777 9.305954 47.986298
435 0 1 4.467436 9.948593 48.649292
436 0 1 3.650107 9.814102 49.180786
437 0 1 3.369784 10.269104 50.048401
438 0 1 2.551436 9.847034 49.708405
439 0 1 1.912226 9.221184 49.227905
440 0 1 1.149386 9.520054 48.627106
441 0 1 0.263777 9.589302 48.307983
442 0 1 -0.418733 10.068901 48.819092
443 0 1 -1.092985 10.664013 49.097809
444 0 1 -0.162275 11.004444 49.334412
445 0 1 0.761084 10.628933 49.028198
446 0 1 0.470526 11.064884 48.176605
447 0 1 1.168444 11.761944 48.476196
448 0 1 0.640517 12.413494 48.896484
449 0 1 0.121954 12.775291 48.110687
450 0 1 0.138384 12.158092 47.406097
451 0 1 -0.737615 11.731853 47.555603
452 0 1 -1.618555 12.104893 47.592712
453 0 1 -2.239008 11.503021 47.190613
454 0 1 -2.197201 11.897694 46.289795
455 0 1 -1.688804 12.089294 45.468597
456 0 1 -2.622440 12.201195 45.173492
457 0 1 -3.381485 12.067593 44.622192
458 0 1 -4.263315 11.987694 45.047485
459 0 1 -4.874165 11.443653 44.536407
460 0 1 -4.887735 10.668076 45.052704
461 0 1 -5.133055 9.971584 45.653809
462 0 1 -5.745794 10.634521 46.023193
463 0 1 -5.721485 10.179512 46.848389
464 0 1 -6.411825 10.698296 47.317291
465 0 1 -6.440756 11.640442 47.617401
466 0 1 -6.524315 12.051895 48.446808
467 0 1 -6.886866 12.945992 48.464203
468 0 1 -7.762705 13.238194 48.916199
469 0 1 -7.911575 13.891891 48.304413
470 0 1 -7.314295 14.618393 48.179413
471 0 1 -7.892546 14.819992 47.434296
472 0 1 -7.991514 15.562992 46.808594
473 0 1 -8.879175 15.773594 47.147308
474 0 1 -9.449625 15.704292 46.351593
475 0 1 -9.457005 14.759895 46.534790
476 0 1 -10.279825 14.935993 46.072205
477 0 1 -10.414915 13.994694 45.966400
478 0 1 -11.386976 13.933395 45.553497
479 0 1 -12.124115 13.494492 45.852997
480 0 1 -11.469076 13.615791 46.519806
481 0 1 -10.604666 13.948494 46.955505
482 0 1 -10.671434 14.067394 47.923584
483 0 1 -11.509445 14.463493 48.090515
484 0 1 -12.413685 14.857094 48.281311
485 0 1 -11.981665 15.226791 47.484589
486 0 1 -12.222013 16.104492 47.223511
487 0 1 -11.647844 16.053795 48.135498
488 0 1 -11.030954 15.877995 48.835205
489 0 1 -10.305195 16.420193 48.602997
490 0 1 -10.393335 17.470695 48.733002
491 0 1 -11.037394 17.948494 49.216309
492 0 1 -10.251345 18.083393 49.828003
493 0 1 -9.524256 18.689793 49.848511
494 0 1 -9.836994 19.555393 49.456207
495 0 1 -10.118114 19.658295 48.526306
496 0 1 -10.865004 20.242691 48.343597
497 0 1 -10.683634 20.463295 47.414612
498 0 1 -11.339884 20.684395 46.694092
499 0 1 -11.064726 21.119293 45.840393
500 0 1 -11.260805 20.194695 45.704285
501 0 1 -10.549175 19.859394 45.140503
502 0 1 -10.349125 19.023491 45.497986
503 0 1 -10.427135 18.486893 44.687683
504 0 1 -9.708475 19.135994 44.548798
505 0 1 -8.767405 19.184296 44.354706
506 0 1 -9.005644 19.666794 43.562408
507 0 1 -9.404356 19.553894 42.681885
508 0 1 -8.970404 19.186394 41.907501
509 0 1 -8.364374 19.546295 41.224396
510 0 1 -8.622375 20.504791 41.479797
511 0 1 -8.048065 20.366791 42.247803
512 0 1 -7.709604 21.060295 41.601990
513 0 1 -7.203806 21.516991 40.974701
514 0 1 -6.494064 21.335594 41.491608
515 0 1 -5.935764 20.901695 42.071716
516 0 1 -5.357805 20.654293 41.247498
517 0 1 -5.613276 21.343594 40.625488
518 0 1 -5.009415 21.773693 40.023499
519 0 1 -4.209616 21.644394 40.564301
520 0 1 -4.305904 20.892193 41.081116
521 0 1 -3.569036 20.288692 41.110413
522 0 1 -3.091184 20.969193 41.614594
523 0 1 -2.282152 20.926292 42.122894
524 0 1 -2.296615 21.873394 42.185394
525 0 1 -2.810114 22.247593 42.943604
526 0 1 -2.856207 22.848293 43.765015
527 0 1 -2.262424 23.562294 43.429413
528 0 1 -2.367037 24.420494 43.581299
529 0 1 -2.769453 25.105492 44.066101
530 0 1 -3.386015 24.418594 44.285492
531 0 1 -3.786575 25.331093 44.521393
532 0 1 -4.693054 24.831593 44.604187
533 0 1 -5.207806 24.146694 45.063599
534 0 1 -5.773235 24.191093 44.239807
535 0 1 -5.655945 23.332493 43.929199
536 0 1 -5.311106 22.536392 44.317017
537 0 1 -4.746035 22.655193 43.526611
538 0 1 -4.347225 22.936592 42.738708
539 0 1 -4.631214 23.749695 42.304108
540 0 1 -5.366526 23.206593 42.567993
541 0 1 -5.576635 23.431694 41.685791
542 0 1 -6.386684 23.528893 41.197388
543 0 1 -7.291645 23.890793 41.113312
544 0 1 -7.499846 24.767891 41.537506
545 0 1 -7.041216 25.010693 42.363403
546 0 1 -6.492346 25.590996 41.854614
547 0 1 -5.769215 26.064293 42.293884
548 0 1 -4.777266 26.058693 42.208099
549 0 1 -4.045015 25.458794 42.388611
550 0 1 -3.306724 25.254494 41.852600
551 0 1 -3.750534 25.061993 41.040710
552 0 1 -3.869415 25.811691 40.451691
553 0 1 -4.713884 25.588196 40.014801
554 0 1 -5.572485 25.585293 39.489288
555 0 1 -5.853395 26.142693 40.181885
556 0 1 -6.457726 26.867691 40.192413
557 0 1 -6.017654 27.461296 40.838104
558 0 1 -5.922884 28.350594 40.883301
559 0 1 -5.766535 28.101395 39.967712
560 0 1 -5.419605 27.241295 39.664001
561 0 1 -5.775715 27.405193 38.750305
562 0 1 -6.390814 26.612194 38.783600
563 0 1 -7.120516 27.142193 38.386292
564 0 1 -7.465075 27.026192 37.472687
565 0 1 -8.330194 26.981995 37.858795
566 0 1 -8.509865 26.129791 37.599304
567 0 1 -9.348265 25.879395 37.987701
568 0 1 -10.068594 25.269592 38.132690
569 0 1 -10.682894 25.279091 38.848999
570 0 1 -11.080095 24.458694 39.218506
571 0 1 -10.603065 23.626793 39.090607
572 0 1 -10.060774 23.164993 38.363312
573 0 1 -10.175055 22.338993 38.824005
574 0 1 -10.870745 22.010494 38.289093
575 0 1 -10.752384 21.962994 37.339600
576 0 1 -10.085125 21.309296 37.299591
577 0 1 -9.540735 20.678394 37.733002
578 0 1 -8.725744 20.576096 37.248596
579 0 1 -8.552015 21.491993 36.870697
580 0 1 -7.779995 21.193893 37.410187
581 0 1 -7.991585 21.006893 38.384613
582 0 1 -7.506475 21.384193 39.155792
583 0 1 -6.767096 21.837994 38.751709
584 0 1 -6.541784 22.200893 37.955505
585 0 1 -6.339325 22.970795 37.406189
586 0 1 -7.283745 23.017494 37.325287
587 0 1 -7.295614 23.478794 36.486816
588 0 1 -7.849155 24.290596 36.484894
589 0 1 -7.188955 24.964794 36.093994
590 0 1 -7.527565 25.714394 36.464417
591 0 1 -7.651525 26.351295 35.687683
592 0 1 -7.341675 26.957493 36.360291
593 0 1 -6.428635 26.791992 36.194489
594 0 1 -6.619715 26.214195 35.491089
595 0 1 -6.467276 27.199394 35.210693
596 0 1 -6.357615 28.156693 35.430603
597 0 1 -5.363005 28.180595 35.319611
598 0 1 -5.502584 28.723595 34.601013
599 0 1 -4.964186 29.513493 34.692108
600 0 1 -4.102915 29.187592 34.845612
601 0 1 -4.126085 28.491394 34.148804
602 0 1 -3.168943 28.321892 33.824799
603 0 1 -3.105413 28.845192 33.036713
604 0 1 -3.660455 28.265495 32.465607
605 0 1 -4.113134 28.267593 31.668396
606 0 1 -4.332565 28.376495 30.716492
607 0 1 -4.274765 28.886593 29.918213
608 0 1 -3.873525 29.238495 29.100891
609 0 1 -3.015856 28.811592 29.233215
610 0 1 -2.202741 28.344093 28.976593
611 0 1 -1.340265 27.845894 29.037109
612 0 1 -1.791113 27.046494 28.752502
613 0 1 -1.658304 26.206093 29.190002
614 0 1 -1.104295 25.922295 28.487610
615 0 1 -1.269945 25.937393 27.527893
616 0 1 -1.445234 26.214096 26.593384
617 0 1 -1.791673 25.952694 25.720490
618 0 1 -1.670744 25.048195 25.777313
619 0 1 -1.567335 24.204292 25.157898
620 0 1 -0.723387 24.713593 25.111511
621 0 1 0.103945 24.292595 25.237488
622 0 1 0.278967 23.588593 24.604187
623 0 1 0.442126 22.831696 25.095490
624 0 1 1.311167 23.181293 25.366211
625 0 1 1.339056 22.669495 24.546387
626 0 1 1.443766 21.850594 24.145813
627 0 1 0.949557 21.383492 24.806396
628 0 1 1.527193 20.659691 24.992310
629 0 1 1.786997 19.769691 24.792297
630 0 1 1.727225 18.798492 24.775208
631 0 1 0.937544 18.929291 25.283112
632 0 1 0.779745 18.233696 25.886902
633 0 1 -0.199014 17.960892 26.127197
634 0 1 -0.696916 18.531296 25.639893
635 0 1 -1.172495 19.050995 26.274109
636 0 1 -1.733404 19.850296 26.032806
637 0 1 -2.285068 20.181293 25.233398
638 0 1 -1.641855 19.644894 24.776794
639 0 1 -0.970293 19.322296 24.171692
640 0 1 -0.293333 18.895195 24.745209
641 0 1 -0.061434 18.142593 24.207703
642 0 1 -0.995313 18.065594 23.922913
643 0 1 -1.329054 17.176193 23.773987
644 0 1 -0.547773 17.383194 23.203003
645 0 1 -1.056226 17.284893 22.372498
646 0 1 -1.077844 16.449795 22.769287
647 0 1 -1.074754 15.534096 23.076416
648 0 1 -0.653394 14.888493 23.669189
649 0 1 -1.014635 14.298592 23.084503
650 0 1 -1.352384 13.425392 23.446106
651 0 1 -0.868276 12.629295 23.776703
652 0 1 -0.331316 12.988792 23.076996
653 0 1 -0.384874 12.434792 22.254501
654 0 1 0.509363 12.787392 22.053192
655 0 1 1.193194 12.326294 21.608002
656 0 1 2.051504 12.704094 21.753998
657 0 1 2.977057 12.358494 21.556305
658 0 1 3.392184 12.035194 20.738708
659 0 1 2.485434 11.601341 20.840393
660 0 1 2.298567 11.895195 19.910095
661 0 1 1.996027 12.821995 20.056107
662 0 1 1.162947 12.453896 19.910202
663 0 1 0.264654 12.841492 19.951706
664 0 1 -0.644495 12.994293 19.629501
665 0 1 -0.247976 13.165794 18.791306
666 0 1 -0.823156 13.839794 18.389694
667 0 1 -1.538904 13.330692 18.701904
668 0 1 -1.653175 12.364292 18.480301
669 0 1 -1.889375 12.552292 19.423599
670 0 1 -1.667625 11.986893 20.196198
671 0 1 -2.593776 11.693714 20.054596
672 0 1 -2.504047 10.725403 20.112198
673 0 1 -2.736538 9.809814 19.685303
674 0 1 -1.881511 10.197243 19.284607
675 0 1 -1.422664 10.887474 19.761597
676 0 1 -0.828043 10.165825 19.884903
677 0 1 -0.195696 9.473484 19.873901
678 0 1 -0.018785 9.748924 20.805206
679 0 1 -0.647184 9.653133 21.620697
680 0 1 -1.252016 9.218414 21.053802
681 0 1 -1.527595 10.121754 21.145004
682 0 1 -2.123876 9.738682 21.801208
683 0 1 -1.546934 9.925903 22.545105
684 0 1 -2.225189 10.086483 23.192810
685 0 1 -2.605312 9.763363 24.050690
686 0 1 -2.797745 9.111813 23.357300
687 0 1 -3.468475 9.590023 22.703491
688 0 1 -4.179615 8.994892 23.026184
689 0 1 -4.712484 8.842903 23.863892
690 0 1 -4.395004 7.907772 24.095093
691 0 1 -4.588305 7.093124 23.495209
692 0 1 -5.490894 7.274982 23.154114
693 0 1 -6.192335 7.493992 22.458099
694 0 1 -5.486694 7.144524 22.027695
695 0 1 -6.131174 6.455444 22.218292
696 0 1 -6.611485 5.874004 22.836090
697 0 1 -6.681364 6.301632 23.668091
698 0 1 -7.576805 6.120392 23.458191
699 0 1 -7.313484 5.374775 24.070007
700 0 1 -7.315954 4.726383 24.763214
701 0 1 -8.096165 4.184654 24.756805
702 0 1 -8.921795 4.204292 25.219513
703 0 1 -9.102585 3.502083 25.759003
704 0 1 -8.977236 4.242672 26.362213
705 0 1 -9.204784 3.789531 27.154785
706 0 1 -8.638084 4.315052 27.704010
707 0 1 -8.661055 3.662384 28.390015
708 0 1 -8.719496 3.110103 29.231995
709 0 1 -8.912605 2.219827 28.840302
710 0 1 -9.023415 1.374891 29.387299
711 0 1 -9.147095 0.497923 28.933716
712 0 1 -9.914526 -0.024567 28.647308
713 0 1 -10.110485 -0.661537 27.982788
714 0 1 -9.281935 -0.352276 27.584290
715 0 1 -9.650576 -1.190546 27.141785
716 0 1 -8.817305 -1.698637 26.831512
717 0 1 -8.530775 -2.205717 25.995514
718 0 1 -8.741474 -1.936777 25.076904
719 0 1 -8.436005 -1.478897 24.328796
720 0 1 -8.406395 -2.180096 23.693207
721 0 1 -7.599655 -2.558157 24.042297
722 0 1 -6.683994 -2.864847 24.024414
723 0 1 -6.162775 -3.356316 24.598297
724 0 1 -6.909805 -3.948717 24.371796
725 0 1 -7.728815 -4.360617 24.051788
726 0 1 -7.970785 -5.173956 23.604706
727 0 1 -7.353655 -5.775787 23.108398
728 0 1 -6.412226 -5.701986 23.421204
729 0 1 -6.367146 -6.330425 24.118713
730 0 1 -5.586084 -6.761677 23.844604
731 0 1 -6.328594 -7.385286 23.811096
732 0 1 -5.715145 -7.914085 23.364807
733 0 1 -5.491446 -8.837208 23.072296
734 0 1 -6.115286 -9.253307 23.803314
735 0 1 -6.584305 -8.931705 23.076508
736 0 1 -7.291254 -8.948006 22.353607
737 0 1 -7.794226 -9.802607 22.160706
738 0 1 -6.995424 -10.078707 22.586304
739 0 1 -7.283735 -10.991007 22.612915
740 0 1 -7.050444 -11.699007 21.952393
741 0 1 -6.669264 -11.205406 21.134705
742 0 1 -5.796934 -11.587406 21.241699
743 0 1 -4.865074 -11.596806 21.101105
744 0 1 -4.391674 -12.342306 21.493301
745 0 1 -3.809105 -11.586906 21.616608
746 0 1 -3.212738 -10.921307 21.268906
747 0 1 -2.861822 -10.591408 22.126007
748 0 1 -2.607162 -10.135307 21.372498
749 0 1 -3.083330 -9.795107 20.583405
750 0 1 -2.903589 -9.829706 19.654602
751 0 1 -2.857988 -10.668007 19.123901
752 0 1 -3.598593 -11.253708 19.043304
753 0 1 -3.695478 -12.132206 18.644104
754 0 1 -3.232530 -12.424307 17.865601
755 0 1 -3.876924 -12.254208 17.196106
756 0 1 -4.623745 -11.706306 17.265305
757 0 1 -4.427244 -10.756805 17.308105
758 0 1 -5.224224 -10.260506 17.281296
759 0 1 -4.710566 -9.570107 16.859695
760 0 1 -5.104145 -9.063807 16.149506
761 0 1 -5.984594 -9.126205 16.558105
762 0 1 -6.071295 -10.009308 16.199295
763 0 1 -6.453264 -9.463306 15.479996
764 0 1 -7.206055 -8.837807 15.282593
765 0 1 -7.713215 -9.678806 14.943100
766 0 1 -8.491495 -9.321106 14.446396
767 0 1 -8.569876 -8.439606 14.050797
768 0 1 -9.232784 -7.749718 14.000198
769 0 1 -9.693165 -6.959026 13.562103
770 0 1 -9.642435 -6.858606 14.475494
771 0 1 -9.207514 -6.520456 15.243500
772 0 1 -8.893105 -5.879667 14.580093
773 0 1 -9.895384 -5.782436 14.793503
774 0 1 -9.274525 -5.091618 15.171295
775 0 1 -9.763374 -4.622047 15.854599
776 0 1 -10.342005 -5.132446 16.470505
777 0 1 -10.530806 -4.561966 17.218903
778 0 1 -10.970554 -3.994097 17.836594
779 0 1 -10.670895 -3.304146 18.455002
780 0 1 -9.845854 -3.407307 17.967300
781 0 1 -8.942484 -3.119946 18.179794