LAMMPS data file via MDAnalysis

        2000  atoms
        1999  bonds
           0  angles
           0  dihedrals
           0  impropers

           1  atom types
           1  bond types
           0  angle types
           0  dihedral types
           0  improper types

-30.5 30.5 xlo xhi
-30.5 30.5 ylo yhi
-233.5 233.5 zlo zhi


Masses

1 1.000000

Atoms

1 0 1 17.077370 6.798674 0.191575
2 0 1 16.335567 6.251776 0.589448
3 0 1 16.979168 6.441924 1.303361
4 0 1 17.394669 6.479964 2.212876
5 0 1 17.207169 7.416876 1.828965
6 0 1 16.341770 7.424075 1.352006
7 0 1 16.331570 6.827273 2.149323
8 0 1 15.670367 7.169775 2.782151
9 0 1 16.171070 7.293974 3.590028
10 0 1 16.849968 7.926474 3.461564
11 0 1 17.515869 8.524672 3.135377
12 0 1 18.321568 8.003572 2.958634
13 0 1 18.212070 7.052775 3.132264
14 0 1 17.912769 7.592673 4.011338
15 0 1 17.913269 8.459272 4.419572
16 0 1 17.081371 8.063673 4.671174
17 0 1 17.271770 7.758475 5.553132
18 0 1 17.012867 7.771174 6.582582
19 0 1 17.330570 6.947775 6.220231
20 0 1 17.265766 6.066653 5.832276
21 0 1 18.021469 5.460505 5.773988
22 0 1 18.154766 5.081122 4.937135
23 0 1 17.474869 4.744734 4.482255
24 0 1 18.101269 5.104002 3.905564
25 0 1 18.105469 4.306746 3.305528
26 0 1 18.994068 4.596274 3.218812
27 0 1 19.219967 4.545424 2.287385
28 0 1 19.759068 3.943014 2.802308
29 0 1 19.383167 3.337923 3.451234
30 0 1 18.531368 3.330534 3.895082
31 0 1 17.632969 3.005083 3.856584
32 0 1 17.662468 2.241404 4.424378
33 0 1 17.097866 1.488554 4.292176
34 0 1 17.167370 0.604124 3.936616
35 0 1 17.104671 0.072325 4.795976
36 0 1 17.728466 -0.047907 5.539536
37 0 1 18.194370 0.263075 4.663423
38 0 1 18.651768 -0.392805 5.222810
39 0 1 18.921768 -1.259145 5.580918
40 0 1 18.049068 -1.631876 5.841706
41 0 1 17.995068 -0.868585 6.399018
42 0 1 18.412369 -1.117628 7.258363
43 0 1 18.458370 -2.041916 7.625504
44 0 1 18.084370 -2.914531 7.287873
45 0 1 17.318169 -2.824693 7.884614
46 0 1 16.641567 -2.624735 7.310945
47 0 1 16.907269 -1.775995 7.721696
48 0 1 16.308170 -1.545175 8.396562
49 0 1 15.840068 -1.944246 7.619843
50 0 1 14.905467 -1.764707 7.629640
51 0 1 14.693168 -2.398981 6.935426
52 0 1 14.548167 -2.629701 6.047807
53 0 1 14.320666 -3.600193 6.125535
54 0 1 14.061168 -4.507696 6.372514
55 0 1 13.829165 -5.120336 7.042405
56 0 1 14.490970 -4.839635 7.746614
57 0 1 14.754466 -5.743837 7.518571
58 0 1 15.348868 -5.879297 8.220506
59 0 1 15.295768 -6.535976 9.024049
60 0 1 14.620067 -7.186737 9.358979
61 0 1 14.950168 -7.207456 10.311601
62 0 1 14.630569 -7.613796 11.104203
63 0 1 13.880267 -7.163335 10.733003
64 0 1 13.431369 -7.679235 11.427995
65 0 1 13.111766 -8.466436 11.841096
66 0 1 12.245166 -8.033937 11.675294
67 0 1 11.406768 -8.329037 11.380494
68 0 1 11.229667 -9.245296 11.441606
69 0 1 11.912868 -9.870565 11.817506
70 0 1 11.680968 -9.166388 12.455995
71 0 1 12.581367 -9.572065 12.597398
72 0 1 13.092868 -9.868246 11.790605
73 0 1 13.191966 -10.485487 11.067597
74 0 1 13.527167 -11.037426 11.828309
75 0 1 14.254169 -11.683485 12.068803
76 0 1 14.336268 -11.986715 11.154099
77 0 1 13.530467 -11.808996 10.721498
78 0 1 13.461268 -12.331587 9.954926
79 0 1 13.024669 -13.127157 9.504457
80 0 1 12.117068 -13.239527 9.303086
81 0 1 11.927470 -13.111076 8.363130
82 0 1 12.380668 -13.944426 8.466325
83 0 1 13.283568 -14.100626 8.336854
84 0 1 14.012469 -14.691225 8.108964
85 0 1 13.588168 -15.238926 8.809525
86 0 1 14.150767 -15.882326 8.452943
87 0 1 13.821567 -16.418226 7.711457
88 0 1 13.311568 -16.560427 8.564698
89 0 1 12.693370 -17.037426 9.124696
90 0 1 13.225966 -17.682926 9.530625
91 0 1 13.565669 -18.580326 9.390336
92 0 1 14.100169 -19.249826 8.880204
93 0 1 14.601268 -19.140226 9.618928
94 0 1 15.300769 -19.686127 10.035401
95 0 1 15.964267 -19.621527 9.322038
96 0 1 15.914866 -18.714025 8.996659
97 0 1 15.320468 -18.050426 9.340669
98 0 1 15.456065 -18.258427 10.262498
99 0 1 15.818667 -18.795826 11.033708
100 0 1 16.499969 -18.374826 11.773103
101 0 1 17.232868 -18.829826 12.221498
102 0 1 18.070869 -18.284725 12.481599
103 0 1 18.877468 -18.708725 12.729402
104 0 1 19.632870 -18.151525 13.078202
105 0 1 19.204769 -17.374626 13.464997
106 0 1 19.366768 -16.940226 14.295106
107 0 1 19.635368 -16.483727 15.171098
108 0 1 19.495068 -15.659826 14.689103
109 0 1 19.108570 -15.445425 15.546098
110 0 1 19.226170 -14.769827 16.210800
111 0 1 18.962269 -14.938326 17.121506
112 0 1 18.197269 -15.009127 17.805206
113 0 1 18.325871 -15.439825 18.612595
114 0 1 18.699768 -14.883627 19.318298
115 0 1 18.848171 -15.761827 19.805695
116 0 1 18.253468 -16.511126 19.996307
117 0 1 17.769970 -16.568228 19.151901
118 0 1 17.360767 -17.526525 19.140305
119 0 1 17.234066 -17.855227 18.235199
120 0 1 16.335567 -17.507925 18.190994
121 0 1 16.577671 -17.257227 17.271301
122 0 1 16.425068 -16.444628 17.776199
123 0 1 16.007568 -15.778826 18.335999
124 0 1 15.835269 -15.148726 18.996094
125 0 1 15.413867 -15.551626 19.782593
126 0 1 15.134269 -14.717627 20.222992
127 0 1 14.166667 -14.432426 20.267502
128 0 1 13.352168 -14.559126 20.790298
129 0 1 12.938167 -14.632326 21.681107
130 0 1 12.316066 -14.443026 20.948105
131 0 1 12.807467 -13.616827 21.217407
132 0 1 12.903068 -12.770117 20.782394
133 0 1 13.649467 -12.208296 20.985703
134 0 1 14.679667 -12.223906 20.845795
135 0 1 14.469768 -11.733217 21.627701
136 0 1 14.065166 -11.766977 22.483902
137 0 1 13.127666 -11.678967 22.641998
138 0 1 13.323970 -10.780346 22.827606
139 0 1 12.857268 -9.979277 23.004211
140 0 1 12.391768 -10.713266 22.457092
141 0 1 11.716468 -10.078686 22.524994
142 0 1 11.927669 -10.249676 21.596893
143 0 1 10.994468 -10.364595 21.384399
144 0 1 11.390170 -9.630285 20.742493
145 0 1 10.521266 -9.940037 20.484695
146 0 1 10.409469 -9.566086 19.613007
147 0 1 10.724269 -10.024906 18.749802
148 0 1 11.138167 -10.682077 19.184601
149 0 1 10.285266 -10.964417 19.451202
150 0 1 9.615569 -11.296297 18.858398
151 0 1 10.089366 -11.416296 17.966904
152 0 1 9.429168 -12.023027 17.626801
153 0 1 8.882468 -12.595156 17.167801
154 0 1 9.050368 -12.930727 16.235306
155 0 1 8.173106 -13.404926 16.358795
156 0 1 8.253489 -13.876427 17.142593
157 0 1 7.798709 -14.600826 17.596695
158 0 1 8.161819 -15.041327 16.803406
159 0 1 7.336769 -15.540026 17.167099
160 0 1 7.785678 -16.371826 17.333206
161 0 1 8.256537 -15.850527 17.902298
162 0 1 8.774127 -16.034826 18.716797
163 0 1 7.868370 -16.327326 18.717407
164 0 1 8.272159 -16.895327 19.463303
165 0 1 8.956470 -17.190327 20.127502
166 0 1 9.455569 -16.390326 20.466904
167 0 1 9.176867 -15.939627 21.287994
168 0 1 8.626346 -16.342127 21.967300
169 0 1 9.471866 -16.410826 22.377594
170 0 1 10.095267 -16.851927 23.053009
171 0 1 9.452369 -17.574625 22.953491
172 0 1 8.487750 -17.463226 22.983002
173 0 1 7.930809 -17.883625 22.258301
174 0 1 6.983978 -17.739225 22.321503
175 0 1 6.490757 -16.872927 22.421692
176 0 1 7.277187 -16.356726 22.588409
177 0 1 7.937641 -15.730427 22.773407
178 0 1 8.872966 -15.893026 23.046814
179 0 1 8.695319 -16.033827 23.997009
180 0 1 7.774398 -16.078028 24.435699
181 0 1 7.934169 -15.942026 25.364288
182 0 1 8.407928 -16.638426 25.707092
183 0 1 9.009166 -16.235025 26.414398
184 0 1 9.002170 -15.589827 27.109009
185 0 1 8.809127 -14.633825 27.020386
186 0 1 8.082606 -14.986925 27.571594
187 0 1 7.740459 -15.484627 28.324890
188 0 1 6.824977 -15.630226 28.620789
189 0 1 6.562698 -16.577526 28.603302
190 0 1 5.678096 -17.004726 28.695190
191 0 1 5.196979 -16.205126 28.452515
192 0 1 5.311496 -16.432426 27.454285
193 0 1 4.822139 -16.909527 26.753296
194 0 1 4.013847 -17.305227 26.325409
195 0 1 3.091716 -17.604628 26.406006
196 0 1 2.427249 -16.941225 26.082397
197 0 1 1.511508 -16.463226 26.277588
198 0 1 1.092788 -17.222326 25.877411
199 0 1 1.025058 -17.580828 26.826996
200 0 1 1.787578 -17.700228 27.352905
201 0 1 1.126338 -17.040127 27.810913
202 0 1 1.658656 -16.401327 28.311005
203 0 1 1.587379 -15.449427 28.228516
204 0 1 1.415866 -15.226326 29.163391
205 0 1 0.866817 -15.647825 29.861298
206 0 1 0.111669 -15.305527 29.383698
207 0 1 -0.829137 -14.972326 29.311890
208 0 1 -1.477965 -15.569126 28.966492
209 0 1 -2.151593 -16.242626 29.170715
210 0 1 -1.695855 -17.077526 29.393616
211 0 1 -2.040587 -17.955626 29.372986
212 0 1 -2.881812 -17.920925 29.770691
213 0 1 -3.688601 -18.207127 29.474487
214 0 1 -4.127301 -17.582127 28.832794
215 0 1 -4.493912 -17.161528 28.050995
216 0 1 -4.066582 -17.494726 27.250916
217 0 1 -3.524552 -16.647226 27.411591
218 0 1 -2.602443 -17.027527 27.418304
219 0 1 -2.661591 -16.117228 27.173004
220 0 1 -2.164262 -15.419426 26.617615
221 0 1 -2.381861 -14.637728 27.186798
222 0 1 -2.677262 -14.134928 26.391693
223 0 1 -2.531453 -13.670427 27.162109
224 0 1 -3.454022 -13.447826 26.956696
225 0 1 -3.807122 -12.734476 26.315491
226 0 1 -3.361802 -11.844486 26.338409
227 0 1 -4.034482 -11.407087 26.806702
228 0 1 -4.682602 -11.070627 26.181610
229 0 1 -4.697361 -11.941347 25.799805
230 0 1 -4.825661 -11.868586 24.817108
231 0 1 -4.444993 -10.982557 24.614899
232 0 1 -4.770892 -10.837736 23.713898
233 0 1 -4.240942 -9.979456 23.498810
234 0 1 -5.162632 -9.656755 23.386597
235 0 1 -5.945252 -9.805767 23.938293
236 0 1 -6.558552 -9.117025 24.193207
237 0 1 -5.769131 -8.747927 24.047913
238 0 1 -5.291022 -8.552557 24.844116
239 0 1 -5.071711 -8.583107 25.801300
240 0 1 -5.022171 -9.386007 26.361694
241 0 1 -4.981032 -9.811367 27.198212
242 0 1 -5.325531 -10.365946 27.847809
243 0 1 -4.400122 -10.645967 27.795013
244 0 1 -3.807572 -9.984537 27.502106
245 0 1 -3.345532 -9.225666 27.898895
246 0 1 -3.670892 -9.268557 28.792908
247 0 1 -3.821412 -8.331976 28.913300
248 0 1 -4.099352 -7.527566 29.354492
249 0 1 -5.002202 -7.919786 29.160095
250 0 1 -5.381051 -7.826375 30.061890
251 0 1 -6.140471 -8.445656 30.253113
252 0 1 -5.965521 -9.321016 30.110413
253 0 1 -6.110142 -10.010666 29.493408
254 0 1 -6.385891 -10.710876 28.905090
255 0 1 -6.516461 -11.116735 28.028503
256 0 1 -7.421933 -11.543707 28.213684
257 0 1 -7.552521 -12.499786 28.486084
258 0 1 -7.556111 -13.337326 28.972687
259 0 1 -7.951081 -12.741167 29.609406
260 0 1 -8.856923 -12.756685 29.545013
261 0 1 -8.539212 -11.870737 29.799103
262 0 1 -8.898263 -11.583307 28.986694
263 0 1 -9.970792 -11.350697 29.055603
264 0 1 -9.887094 -10.450796 29.341187
265 0 1 -9.301263 -9.944447 30.057495
266 0 1 -9.817433 -9.778666 30.920593
267 0 1 -10.028872 -9.091507 30.273010
268 0 1 -9.247231 -8.662645 30.610596
269 0 1 -9.602292 -7.839595 30.180298
270 0 1 -8.813972 -7.317047 30.001709
271 0 1 -8.663062 -7.909475 29.249695
272 0 1 -8.422572 -8.645597 29.836487
273 0 1 -7.474482 -8.577217 29.937408
274 0 1 -7.704722 -9.102646 29.187012
275 0 1 -7.912951 -9.853577 29.704498
276 0 1 -8.397931 -9.757116 30.524994
277 0 1 -8.239472 -9.536316 31.445984
278 0 1 -8.393601 -10.076397 32.240204
279 0 1 -8.933532 -9.288286 32.304810
280 0 1 -9.244603 -8.363186 32.183105
281 0 1 -8.778611 -7.868656 31.506592
282 0 1 -8.530103 -7.325817 32.219116
283 0 1 -7.591321 -7.459636 32.095490
284 0 1 -7.792611 -6.591226 32.343506
285 0 1 -7.817141 -5.910865 31.597107
286 0 1 -8.608493 -5.579027 31.063812
287 0 1 -9.465951 -5.523796 31.509186
288 0 1 -9.639524 -4.629426 31.657013
289 0 1 -10.470452 -4.950096 31.413605
290 0 1 -10.884652 -5.827587 31.280090
291 0 1 -10.261962 -6.401056 30.781494
292 0 1 -10.392402 -6.058567 29.866089
293 0 1 -11.269332 -5.738166 29.643799
294 0 1 -12.248332 -5.915636 29.896912
295 0 1 -13.162831 -5.667226 29.698486
296 0 1 -13.492232 -5.830776 28.819397
297 0 1 -13.912232 -5.888126 27.950592
298 0 1 -13.063531 -5.563436 27.561401
299 0 1 -12.603032 -5.353326 28.360107
300 0 1 -12.717832 -4.434387 28.145111
301 0 1 -12.269332 -3.578863 28.300995
302 0 1 -13.056531 -2.954221 28.489288
303 0 1 -13.905732 -3.366169 28.324402
304 0 1 -14.506131 -4.087156 28.291504
305 0 1 -14.515431 -4.228927 29.188812
306 0 1 -14.251431 -4.801237 29.902802
307 0 1 -14.196233 -4.160820 30.608307
308 0 1 -13.311233 -4.305133 30.782990
309 0 1 -13.241733 -3.821022 29.859009
310 0 1 -14.067033 -3.474207 29.622009
311 0 1 -14.254933 -2.515966 29.853912
312 0 1 -15.108731 -2.644783 29.319702
313 0 1 -15.880432 -2.750469 29.869202
314 0 1 -16.646431 -2.742248 30.414795
315 0 1 -17.305132 -3.176170 30.991913
316 0 1 -17.911831 -3.867338 30.966003
317 0 1 -17.846830 -4.752456 30.519501
318 0 1 -17.230732 -5.230075 30.041199
319 0 1 -16.954832 -6.084756 30.400787
320 0 1 -17.923132 -5.844347 30.615112
321 0 1 -18.108532 -6.745676 30.497406
322 0 1 -17.662331 -7.559476 30.817688
323 0 1 -16.936731 -7.436407 31.467010
324 0 1 -16.043633 -7.772186 31.504303
325 0 1 -16.427732 -8.599146 31.838287
326 0 1 -15.755132 -8.754797 31.186188
327 0 1 -14.810731 -8.807596 30.878204
328 0 1 -14.280532 -8.074196 30.932312
329 0 1 -13.785531 -7.985496 31.791016
330 0 1 -13.080132 -8.600077 31.915314
331 0 1 -12.135533 -8.735746 31.742401
332 0 1 -11.688031 -8.521467 32.613007
333 0 1 -11.963332 -9.464577 32.585297
334 0 1 -11.658732 -10.242216 33.028290
335 0 1 -12.196332 -11.075396 32.943787
336 0 1 -11.438132 -11.535486 32.484985
337 0 1 -10.817792 -12.199806 32.913696
338 0 1 -11.135673 -12.357355 33.778107
339 0 1 -11.272132 -12.424856 34.737701
340 0 1 -11.042031 -11.564817 35.099091
341 0 1 -11.573632 -11.693937 35.893311
342 0 1 -11.953032 -12.521696 36.299805
343 0 1 -12.842633 -12.209396 35.930908
344 0 1 -13.746932 -11.878866 36.098389
345 0 1 -14.399432 -11.856565 35.335999
346 0 1 -14.680833 -12.429197 36.092987
347 0 1 -14.437232 -13.324726 35.743103
348 0 1 -13.444633 -13.347727 35.813904
349 0 1 -13.558433 -14.070826 36.429108
350 0 1 -14.559033 -14.179525 36.306793
351 0 1 -14.716733 -14.481426 37.196899
352 0 1 -14.865731 -14.375628 38.173584
353 0 1 -14.257733 -14.868526 38.722992
354 0 1 -14.087132 -15.315725 37.910706
355 0 1 -13.175033 -15.233727 37.660400
356 0 1 -12.787032 -14.822826 38.456787
357 0 1 -12.658834 -15.183226 39.301605
358 0 1 -11.993333 -14.438726 39.476807
359 0 1 -11.211831 -14.994026 39.706604
360 0 1 -11.535932 -15.684626 40.202393
361 0 1 -11.508233 -15.576227 41.197510
362 0 1 -10.859582 -14.826527 41.711914
363 0 1 -11.624732 -14.209127 41.407715
364 0 1 -12.165933 -13.565626 40.851685
365 0 1 -13.143332 -13.415728 40.645599
366 0 1 -13.174333 -13.733027 41.636414
367 0 1 -13.326333 -12.768686 41.792297
368 0 1 -12.570632 -12.366777 42.262695
369 0 1 -12.254033 -11.621256 42.733795
370 0 1 -11.537932 -11.955965 43.328003
371 0 1 -11.647931 -12.901026 43.379211
372 0 1 -11.703732 -12.757536 44.326691
373 0 1 -11.569633 -13.651728 44.001801
374 0 1 -12.374732 -13.991926 44.451813
375 0 1 -12.598031 -13.812628 45.398590
376 0 1 -12.913632 -13.831327 46.331116
377 0 1 -11.987733 -13.822725 46.486206
378 0 1 -11.597232 -13.263155 47.166595
379 0 1 -11.046033 -13.967028 46.892303
380 0 1 -10.328452 -13.498026 46.444794
381 0 1 -10.051621 -14.353727 46.655396
382 0 1 -9.227101 -14.389326 47.126099
383 0 1 -9.990941 -14.382128 47.691284
384 0 1 -9.930932 -13.625727 48.238708
385 0 1 -9.565663 -13.832426 49.087189
386 0 1 -8.810151 -13.215067 48.761993
387 0 1 -8.379521 -12.625616 48.180206
388 0 1 -7.506302 -12.963205 48.372314
389 0 1 -7.717442 -13.943626 48.526489
390 0 1 -6.946232 -13.686525 48.015594
391 0 1 -7.045321 -14.593327 48.052307
392 0 1 -6.865801 -14.886827 47.134094
393 0 1 -6.744462 -15.825426 47.440491
394 0 1 -5.775881 -15.708126 47.388184
395 0 1 -5.310071 -15.757925 46.594391
396 0 1 -5.101422 -14.835325 46.493896
397 0 1 -5.516922 -15.012728 45.692413
398 0 1 -6.036271 -15.267927 44.975006
399 0 1 -6.686223 -14.609327 44.781891
400 0 1 -7.523201 -14.704626 44.419708
401 0 1 -7.307581 -14.903227 43.460999
402 0 1 -6.648352 -14.668627 42.769012
403 0 1 -6.341813 -15.082127 43.582489
404 0 1 -5.497561 -14.649826 44.053894
405 0 1 -5.976502 -13.985626 43.557587
406 0 1 -5.092242 -13.603127 43.315796
407 0 1 -4.135561 -13.490828 43.207397
408 0 1 -3.841962 -12.984896 44.031494
409 0 1 -3.197171 -13.393026 44.562500
410 0 1 -3.036902 -13.832127 45.353699
411 0 1 -4.032601 -13.793325 45.152802
412 0 1 -4.778082 -14.310427 45.095215
413 0 1 -5.036961 -13.388626 45.150391
414 0 1 -5.505612 -13.248655 45.982300
415 0 1 -4.902892 -12.514647 46.288696
416 0 1 -5.755661 -12.149916 46.029602
417 0 1 -5.897051 -11.669416 46.863190
418 0 1 -5.323271 -11.022627 46.500000
419 0 1 -5.144232 -11.111706 45.489288
420 0 1 -5.485531 -10.659166 44.687500
421 0 1 -5.751051 -9.790007 44.633484
422 0 1 -5.179753 -9.312576 45.228699
423 0 1 -5.004471 -8.322966 45.328094
424 0 1 -5.883502 -7.935686 45.322510
425 0 1 -6.037491 -7.948846 44.333405
426 0 1 -6.655392 -7.810627 43.580902
427 0 1 -7.332161 -7.257476 43.081207
428 0 1 -7.411532 -7.097866 42.123108
429 0 1 -7.396851 -8.058157 42.008606
430 0 1 -7.213551 -8.904406 41.601807
431 0 1 -6.801522 -9.767647 41.524414
432 0 1 -7.032872 -10.191896 40.669006
433 0 1 -7.583592 -10.907526 41.098297
434 0 1 -8.528543 -10.984877 41.145294
435 0 1 -8.686051 -11.955816 41.378998
436 0 1 -8.627381 -12.955008 41.298889
437 0 1 -7.788891 -13.082497 40.880615
438 0 1 -7.439270 -12.950867 41.813904
439 0 1 -7.661421 -13.713926 42.277710
440 0 1 -6.770092 -13.433725 42.490112
441 0 1 -6.431862 -13.447527 41.581787
442 0 1 -6.479622 -12.462936 41.477509
443 0 1 -6.256592 -12.492506 40.548309
444 0 1 -6.171322 -13.323326 40.033295
445 0 1 -5.962941 -12.863497 39.187408
446 0 1 -5.375882 -13.527126 38.713013
447 0 1 -4.736342 -12.796427 38.794983
448 0 1 -5.047303 -11.878805 39.046112
449 0 1 -5.836201 -11.293325 39.028503
450 0 1 -5.273142 -11.132597 39.712311
451 0 1 -4.883322 -10.596786 40.422485
452 0 1 -4.028912 -10.915787 40.660095
453 0 1 -3.608382 -11.283426 39.890503
454 0 1 -3.439261 -10.338017 40.010101
455 0 1 -3.084002 -10.053217 40.824799
456 0 1 -2.994712 -9.298227 41.439606
457 0 1 -3.387181 -8.579817 41.809692
458 0 1 -2.844771 -7.967195 41.292206
459 0 1 -3.332661 -7.125476 41.321991
460 0 1 -3.577092 -7.185226 40.425110
461 0 1 -4.216971 -6.562677 40.764404
462 0 1 -4.412331 -5.756826 40.136597
463 0 1 -5.186392 -5.259166 39.872101
464 0 1 -4.783581 -4.675636 39.158295
465 0 1 -5.416922 -4.452186 38.481201
466 0 1 -6.332722 -4.631626 38.252197
467 0 1 -6.505541 -3.653497 38.394196
468 0 1 -7.290362 -4.025285 38.077087
469 0 1 -7.627282 -3.271576 37.578888
470 0 1 -7.474843 -3.482322 36.635406
471 0 1 -8.353532 -3.123939 36.488892
472 0 1 -8.305013 -2.317316 37.079590
473 0 1 -7.453581 -2.099466 37.523193
474 0 1 -6.663172 -1.940256 36.987305
475 0 1 -5.986573 -2.466530 37.476501
476 0 1 -5.092982 -2.402874 37.917114
477 0 1 -4.144011 -2.513666 38.079010
478 0 1 -4.680712 -2.818285 38.803284
479 0 1 -4.976862 -3.485752 39.406708
480 0 1 -5.057032 -3.043398 40.215912
481 0 1 -4.914362 -2.447082 40.948608
482 0 1 -4.635941 -1.753477 40.342590
483 0 1 -5.072001 -0.992876 39.940796
484 0 1 -4.226912 -0.890146 39.482910
485 0 1 -4.692841 -1.194067 38.733490
486 0 1 -4.622302 -1.288274 37.718994
487 0 1 -4.086762 -0.601167 37.273193
488 0 1 -3.562133 0.187422 37.652191
489 0 1 -2.603013 0.499823 37.605499
490 0 1 -2.400962 0.191225 38.492889
491 0 1 -1.904732 0.984022 38.714417
492 0 1 -1.236241 0.263483 38.627594
493 0 1 -0.884064 -0.617216 38.403015
494 0 1 -0.028043 -0.090906 38.367493
495 0 1 0.805019 -0.535177 38.590393
496 0 1 0.888419 -1.434187 38.176086
497 0 1 0.965839 -2.114156 38.847900
498 0 1 1.417209 -1.555456 39.510803
499 0 1 2.325908 -1.924396 39.564697
500 0 1 2.339118 -2.054146 40.549500
501 0 1 2.293536 -2.902197 40.098907
502 0 1 2.299419 -3.086956 39.202698
503 0 1 2.295650 -3.146374 38.226013
504 0 1 2.943568 -3.737463 37.815796
505 0 1 3.308208 -4.643695 37.722412
506 0 1 3.817958 -5.478515 37.452393
507 0 1 4.430179 -6.141607 37.076416
508 0 1 4.689006 -6.970565 36.613007
509 0 1 3.792438 -7.120965 36.281799
510 0 1 3.784927 -7.872205 35.615997
511 0 1 2.855319 -7.684957 35.322510
512 0 1 1.972568 -7.511566 35.131409
513 0 1 0.985587 -7.514516 35.301392
514 0 1 0.109119 -7.862867 35.168396
515 0 1 -0.293729 -7.185735 35.748993
516 0 1 -0.916066 -6.521177 35.318298
517 0 1 -1.712191 -6.914325 35.037689
518 0 1 -2.467402 -6.369756 34.652710
519 0 1 -3.066003 -5.626386 34.756012
520 0 1 -3.587811 -5.317075 33.994385
521 0 1 -4.614481 -5.285217 33.737488
522 0 1 -4.662592 -4.798446 32.952209
523 0 1 -4.837332 -4.299394 32.178802
524 0 1 -4.706992 -5.109386 31.686584
525 0 1 -4.408791 -5.805866 32.368500
526 0 1 -3.654502 -5.226146 32.449188
527 0 1 -2.653342 -5.224456 32.280212
528 0 1 -2.663811 -4.660896 31.490997
529 0 1 -3.089923 -3.780796 31.546692
530 0 1 -2.456033 -3.987489 32.202087
531 0 1 -3.279032 -4.165496 32.669708
532 0 1 -2.926892 -3.895151 33.524902
533 0 1 -3.254323 -2.979154 33.471497
534 0 1 -4.167582 -2.954084 33.762299
535 0 1 -4.918732 -3.493860 34.131012
536 0 1 -5.674141 -2.974329 34.498413
537 0 1 -5.438422 -2.130935 34.809601
538 0 1 -5.148112 -1.332975 34.479187
539 0 1 -5.152741 -0.577985 35.078613
540 0 1 -5.547562 0.023085 34.279602
541 0 1 -6.458872 0.310576 34.213898
542 0 1 -6.857981 1.068064 34.684204
543 0 1 -6.007252 0.864855 35.051300
544 0 1 -5.869202 1.776904 35.074585
545 0 1 -5.364851 2.055945 34.283386
546 0 1 -4.486542 2.378775 34.348907
547 0 1 -3.835852 2.920855 34.774811
548 0 1 -4.350953 3.437723 35.422485
549 0 1 -5.092791 2.791334 35.673492
550 0 1 -5.906151 3.227274 35.212189
551 0 1 -5.267241 3.855685 34.852783
552 0 1 -5.328711 4.628794 34.381714
553 0 1 -4.510952 4.955824 34.261292
554 0 1 -4.094441 4.275786 33.716888
555 0 1 -3.221242 4.596884 33.230804
556 0 1 -2.461432 4.165114 33.665283
557 0 1 -1.558934 4.180716 33.680695
558 0 1 -1.728980 5.248305 33.581604
559 0 1 -1.076724 5.548316 34.160583
560 0 1 -0.980550 6.047736 33.359985
561 0 1 -0.926286 5.989943 32.410095
562 0 1 -1.886485 5.907622 32.210602
563 0 1 -2.589152 6.496813 31.986206
564 0 1 -3.109452 6.881175 31.255890
565 0 1 -3.094281 7.867674 31.211212
566 0 1 -2.791993 8.764875 31.167694
567 0 1 -1.956675 8.326273 30.809509
568 0 1 -1.647994 8.323973 31.720093
569 0 1 -2.098264 8.372274 32.607605
570 0 1 -3.021382 8.578276 32.431488
571 0 1 -3.640092 9.069273 31.919495
572 0 1 -4.425732 9.247473 31.251312
573 0 1 -4.913252 9.399176 32.074188
574 0 1 -5.487442 8.734571 32.440094
575 0 1 -6.042561 9.647474 32.272797
576 0 1 -6.404122 9.332472 33.097198
577 0 1 -5.925402 8.524275 33.396484
578 0 1 -6.276932 7.633574 33.631409
579 0 1 -7.208203 7.638373 33.788910
580 0 1 -7.444552 6.681174 33.876190
581 0 1 -8.036002 6.409483 33.098602
582 0 1 -8.416993 5.578902 33.317017
583 0 1 -7.885582 5.510523 32.562805
584 0 1 -6.970761 5.601126 32.359009
585 0 1 -6.599411 5.215945 31.548187
586 0 1 -6.065381 4.406165 31.358093
587 0 1 -5.804772 3.727225 30.729401
588 0 1 -6.652211 3.266993 30.618591
589 0 1 -7.372101 3.579554 31.209595
590 0 1 -8.113212 4.202475 31.313995
591 0 1 -7.831082 5.045134 31.232391
592 0 1 -7.384861 4.629622 31.928894
593 0 1 -7.528632 4.136023 32.831909
594 0 1 -8.144282 3.409102 32.740112
595 0 1 -7.733351 2.575476 33.127899
596 0 1 -8.641273 2.429194 32.722687
597 0 1 -8.400762 1.755183 33.412292
598 0 1 -8.308963 0.823763 33.363892
599 0 1 -9.133653 0.413016 33.696411
600 0 1 -9.243012 -0.286665 34.311310
601 0 1 -8.515141 -0.866876 34.372009
602 0 1 -9.082932 -1.592268 33.933502
603 0 1 -9.799111 -2.165476 34.062103
604 0 1 -10.028172 -1.381574 34.569305
605 0 1 -9.998673 -1.387067 35.520294
606 0 1 -10.249103 -1.815225 36.320984
607 0 1 -10.541472 -1.297414 37.035889
608 0 1 -10.809882 -0.789026 37.752808
609 0 1 -10.622071 0.062125 37.380493
610 0 1 -10.369863 0.685603 36.723816
611 0 1 -11.137872 1.114043 37.146912
612 0 1 -11.854232 0.731284 36.625610
613 0 1 -12.393632 0.138132 37.177795
614 0 1 -12.759831 -0.713148 36.848602
615 0 1 -12.705632 -1.684435 37.010101
616 0 1 -12.134633 -2.294056 37.481598
617 0 1 -12.009133 -2.311577 38.417908
618 0 1 -11.699832 -1.538335 38.943512
619 0 1 -11.438931 -0.753168 39.433289
620 0 1 -10.934403 0.068064 39.565491
621 0 1 -11.107183 0.664114 38.871704
622 0 1 -10.484681 1.425974 38.888306
623 0 1 -10.380601 1.088496 39.788910
624 0 1 -9.457002 1.501494 39.950989
625 0 1 -10.191833 2.087443 39.743500
626 0 1 -9.434262 2.395212 40.398193
627 0 1 -9.828343 2.003332 41.160797
628 0 1 -10.372472 1.863085 41.929688
629 0 1 -10.208713 0.949595 41.719604
630 0 1 -9.723413 0.329413 42.350586
631 0 1 -9.994542 -0.511915 42.406189
632 0 1 -9.038173 -0.741865 42.445496
633 0 1 -8.215281 -1.105707 42.803406
634 0 1 -7.522152 -0.870824 42.154297
635 0 1 -7.245343 -1.756616 41.915100
636 0 1 -7.170903 -1.886627 42.841003
637 0 1 -7.730313 -1.967617 43.701202
638 0 1 -7.387391 -1.061445 43.524994
639 0 1 -6.562602 -0.531175 43.470398
640 0 1 -5.819151 -0.695345 42.922394
641 0 1 -5.410262 -0.033548 43.390106
642 0 1 -4.605492 0.255473 43.870789
643 0 1 -4.664032 0.746233 43.046112
644 0 1 -5.379811 1.153426 43.524292
645 0 1 -6.344092 0.956934 43.485687
646 0 1 -6.501261 1.675814 44.130493
647 0 1 -6.889761 0.964434 44.526398
648 0 1 -6.253891 1.085635 45.323914
649 0 1 -5.680741 1.156344 46.095703
650 0 1 -5.716542 0.213786 45.690308
651 0 1 -5.313653 -0.629648 45.634491
652 0 1 -4.731331 0.063204 45.371490
653 0 1 -3.902411 -0.079244 45.890289
654 0 1 -3.146472 -0.202196 45.306488
655 0 1 -3.366791 0.304102 44.542389
656 0 1 -3.402093 0.731444 43.718506
657 0 1 -2.759803 0.706572 43.037689
658 0 1 -2.214791 0.258414 42.365387
659 0 1 -2.819873 -0.408216 42.183594
660 0 1 -2.921511 -1.126585 42.924896
661 0 1 -2.133860 -1.198064 43.508484
662 0 1 -1.929051 -0.404005 44.002411
663 0 1 -1.176663 0.111163 43.766998
664 0 1 -0.719107 -0.025957 42.883301
665 0 1 -0.407853 0.738173 42.336609
666 0 1 -1.279097 0.903914 42.635712
667 0 1 -0.878897 1.355536 43.341187
668 0 1 -1.042279 2.232413 42.899109
669 0 1 -0.393119 2.691542 42.374695
670 0 1 -0.677434 3.364214 42.975006
671 0 1 -0.372306 4.179705 42.536804
672 0 1 0.059459 3.513716 41.976105
673 0 1 0.761527 4.099925 41.895203
674 0 1 1.068847 4.872714 41.513702
675 0 1 0.837539 4.600245 40.649414
676 0 1 0.878829 5.515433 40.484406
677 0 1 0.230397 5.724883 39.727997
678 0 1 -0.507090 5.191466 39.856110
679 0 1 -0.622514 5.793044 39.165802
680 0 1 -1.412606 6.315886 39.374390
681 0 1 -1.821454 6.256693 38.519897
682 0 1 -1.517171 5.400763 38.198486
683 0 1 -1.052691 6.129755 37.669891
684 0 1 -0.830912 7.034373 37.433502
685 0 1 -0.558623 7.770075 36.767700
686 0 1 -1.165622 7.986075 37.635406
687 0 1 -0.838156 8.884874 37.742004
688 0 1 -0.579352 8.711473 38.658905
689 0 1 -0.816951 9.578474 38.940613
690 0 1 0.008218 10.057875 39.044983
691 0 1 0.760436 10.460974 39.503906
692 0 1 0.481548 11.139273 40.019592
693 0 1 0.199237 11.696775 39.246490
694 0 1 -0.028062 12.272074 39.992188
695 0 1 -0.364920 12.511274 40.910889
696 0 1 0.141088 13.098372 41.530701
697 0 1 -0.274550 13.521376 42.343689
698 0 1 0.279228 13.140474 42.985413
699 0 1 0.685230 14.002974 43.159485
700 0 1 -0.061883 14.116575 43.845703
701 0 1 0.720657 14.515074 44.314301
702 0 1 0.749000 14.918974 45.153198
703 0 1 0.095678 14.882971 45.918091
704 0 1 0.368266 15.723574 46.329803
705 0 1 1.120948 15.161074 46.652100
706 0 1 1.955638 15.407675 47.126495
707 0 1 2.521877 15.266474 47.940399
708 0 1 1.918376 15.419676 48.726501
709 0 1 1.202098 14.906973 49.151306
710 0 1 1.807086 15.142473 49.863800
711 0 1 1.371539 15.994574 49.947510
712 0 1 1.361087 16.478376 49.103607
713 0 1 1.411288 16.875273 48.222992
714 0 1 0.869407 17.408575 48.860107
715 0 1 0.611827 17.760572 49.724609
716 0 1 0.616088 18.551573 50.273315
717 0 1 0.767066 19.430574 49.779694
718 0 1 1.189079 18.843771 49.063995
719 0 1 1.918948 19.481974 49.015991
720 0 1 2.137408 19.335974 49.931702
721 0 1 3.052306 19.043875 50.024200
722 0 1 2.821300 19.519972 50.811188
723 0 1 2.523830 18.636175 50.931610
724 0 1 2.458556 18.585875 51.835083
725 0 1 2.910587 18.056074 52.545288
726 0 1 3.043357 18.012373 53.501099
727 0 1 3.995757 17.969473 53.908813
728 0 1 4.320629 18.892374 54.053101
729 0 1 5.113349 18.969275 54.625488
730 0 1 4.493717 18.304773 55.026184
731 0 1 4.535949 17.452276 55.345886
732 0 1 3.657478 17.303473 55.067810
733 0 1 3.748760 16.327074 55.117706
734 0 1 3.822879 15.469671 54.663696
735 0 1 2.895179 15.274176 54.977783
736 0 1 2.329688 14.422174 54.875305
737 0 1 2.664069 14.221075 54.000305
738 0 1 2.717090 13.360373 54.487000
739 0 1 1.899207 13.211973 54.939606
740 0 1 1.246257 12.926073 54.234100
741 0 1 0.790588 13.039671 53.430511
742 0 1 1.113986 13.963072 53.678284
743 0 1 1.427829 14.042574 52.765289
744 0 1 0.481307 14.069975 52.470001
745 0 1 0.815467 13.171873 52.331512
746 0 1 0.311267 12.395674 52.667999
747 0 1 -0.216260 11.883673 53.268707
748 0 1 -1.108155 11.911573 53.661713
749 0 1 -1.399733 11.010374 53.920105
750 0 1 -1.803120 10.577974 54.704407
751 0 1 -2.394782 11.345175 54.831787
752 0 1 -2.817502 10.479475 54.806610
753 0 1 -2.938252 9.940672 54.056305
754 0 1 -3.152951 9.547873 53.162415
755 0 1 -4.030602 9.243574 52.917694
756 0 1 -4.176892 10.172674 53.327515
757 0 1 -3.643971 10.648973 52.675598
758 0 1 -3.529952 10.556673 51.777893
759 0 1 -3.111432 11.140776 50.985291
760 0 1 -2.827302 10.648275 50.193909
761 0 1 -3.267583 9.744474 50.364990
762 0 1 -4.091252 9.801374 50.930115
763 0 1 -3.790171 8.880274 51.061005
764 0 1 -3.242173 8.138273 50.764099
765 0 1 -3.330771 7.725573 49.854095
766 0 1 -2.595671 8.233675 49.453003
767 0 1 -1.878888 7.568774 49.618103
768 0 1 -1.999243 8.283373 50.274109
769 0 1 -1.335627 8.733973 50.801208
770 0 1 -1.163274 8.461973 51.706390
771 0 1 -0.790568 9.271376 52.116913
772 0 1 -1.212241 9.822775 52.846588
773 0 1 -1.616521 9.704672 53.692810
774 0 1 -1.150777 9.124174 54.192688
775 0 1 -0.476039 9.821375 53.991699
776 0 1 0.054158 10.036772 54.770599
777 0 1 -0.487717 10.300673 55.496613
778 0 1 -0.907315 11.097773 55.848816
779 0 1 -0.040202 11.398375 56.064392
780 0 1 0.869960 11.550875 56.357300
781 0 1 1.337299 11.370672 55.539307
782 0 1 1.831279 10.735773 54.950897