LAMMPS data file via MDAnalysis

        2000  atoms
        1999  bonds
           0  angles
           0  dihedrals
           0  impropers

           1  atom types
           1  bond types
           0  angle types
           0  dihedral types
           0  improper types

-30.5 30.5 xlo xhi
-30.5 30.5 ylo yhi
-233.5 233.5 zlo zhi


Masses

1 1.000000

Atoms

1 0 1 18.399361 22.854071 38.679016
2 0 1 18.485359 23.207174 39.549713
3 0 1 19.258659 23.289572 40.162689
4 0 1 18.475559 23.433874 40.710297
5 0 1 18.851860 22.575872 41.017700
6 0 1 18.661057 23.075472 41.743805
7 0 1 17.846161 22.855673 41.364197
8 0 1 17.219757 22.548773 40.684906
9 0 1 16.302559 22.223673 40.836395
10 0 1 16.235458 21.387770 41.321594
11 0 1 16.209557 21.996473 42.060486
12 0 1 15.517059 21.305075 42.360596
13 0 1 14.843960 21.758970 42.760315
14 0 1 13.879959 21.675970 43.172913
15 0 1 14.472160 20.926474 43.398987
16 0 1 14.879860 21.054670 44.209106
17 0 1 15.196758 20.758772 45.050598
18 0 1 16.092957 20.952971 45.207489
19 0 1 16.485558 20.370272 44.525513
20 0 1 16.663757 19.461874 44.875916
21 0 1 16.611759 20.053671 45.673401
22 0 1 16.815361 20.223871 46.575104
23 0 1 16.460060 20.127073 47.473389
24 0 1 17.156860 20.619574 48.018494
25 0 1 17.311661 20.154074 48.855408
26 0 1 17.763962 19.342070 48.927887
27 0 1 17.833858 18.878271 48.071991
28 0 1 17.468559 18.017469 48.233704
29 0 1 17.230160 17.189573 47.855896
30 0 1 16.840057 16.600672 48.569000
31 0 1 16.825157 15.766873 48.983704
32 0 1 16.115257 15.825269 48.371216
33 0 1 15.436058 15.163472 48.612610
34 0 1 14.761860 14.733670 48.123810
35 0 1 14.141659 14.712171 48.843903
36 0 1 13.466160 15.160470 49.355103
37 0 1 12.695961 15.412473 49.928192
38 0 1 11.895561 15.772969 49.462311
39 0 1 11.759758 15.536870 48.524811
40 0 1 12.110260 15.598172 47.636597
41 0 1 12.909859 15.268472 47.317993
42 0 1 13.167458 14.420072 47.619598
43 0 1 13.779457 14.106572 46.982483
44 0 1 13.437458 13.181073 47.026306
45 0 1 12.624660 13.443871 47.365906
46 0 1 11.665958 13.413472 47.507812
47 0 1 11.259857 13.001771 46.662292
48 0 1 11.451561 13.821870 46.125000
49 0 1 10.656158 13.735070 45.522705
50 0 1 10.905560 12.889771 45.267212
51 0 1 10.474960 13.426572 44.592590
52 0 1 10.777458 13.867272 43.760010
53 0 1 11.684258 13.798871 43.525604
54 0 1 12.684059 13.875672 43.437683
55 0 1 12.724461 13.686170 44.401794
56 0 1 13.659458 13.603372 44.197510
57 0 1 14.021259 14.395070 43.822510
58 0 1 13.645859 14.899373 44.534912
59 0 1 13.531361 15.784070 44.739807
60 0 1 12.974258 15.753873 43.976196
61 0 1 12.393959 16.214472 43.390411
62 0 1 11.835258 16.573473 42.669098
63 0 1 11.476257 17.329973 42.347198
64 0 1 10.777660 17.491270 42.977600
65 0 1 10.076958 18.149073 42.960297
66 0 1 9.201839 17.894571 42.398102
67 0 1 8.239559 17.917871 42.153992
68 0 1 8.179901 18.875471 42.147797
69 0 1 7.831200 19.223570 42.965088
70 0 1 7.445450 18.759069 43.683594
71 0 1 7.185559 19.525572 44.203003
72 0 1 7.067631 20.399275 44.722198
73 0 1 6.257798 20.790472 44.440002
74 0 1 6.336499 21.695570 44.766388
75 0 1 7.125519 21.585672 45.266205
76 0 1 7.286030 21.753672 46.214905
77 0 1 8.104038 21.339674 45.952393
78 0 1 8.604229 21.009672 46.731506
79 0 1 9.463360 20.718573 46.469208
80 0 1 8.864880 20.008070 46.714111
81 0 1 8.350128 19.926474 47.500092
82 0 1 8.770519 19.703871 48.334991
83 0 1 8.055828 19.316275 48.808990
84 0 1 8.545738 20.030672 49.283112
85 0 1 8.659721 20.910872 49.661713
86 0 1 9.538769 20.774672 50.147308
87 0 1 9.567169 19.949572 50.597809
88 0 1 10.427059 19.643972 50.445496
89 0 1 10.056061 18.954969 51.054199
90 0 1 9.494461 18.159372 50.914307
91 0 1 9.206528 17.319571 50.629395
92 0 1 9.524590 17.318274 51.563904
93 0 1 8.932350 16.852774 52.200989
94 0 1 9.282410 16.309172 52.936707
95 0 1 9.969360 16.199171 52.269806
96 0 1 9.150520 15.775472 52.035095
97 0 1 9.373199 14.820973 51.877411
98 0 1 9.466358 14.886273 52.865997
99 0 1 9.703117 14.333470 53.701996
100 0 1 9.287590 13.948670 54.471191
101 0 1 9.063259 13.109071 54.063202
102 0 1 8.729012 12.719769 53.302490
103 0 1 8.130409 12.207772 53.816193
104 0 1 7.576519 12.949170 54.056396
105 0 1 6.937100 13.568173 54.436798
106 0 1 6.350060 14.267472 54.830109
107 0 1 6.371651 14.791471 54.020386
108 0 1 6.230191 15.351670 53.271790
109 0 1 5.360230 15.067071 53.532104
110 0 1 4.556679 15.023473 52.919495
111 0 1 4.203278 15.730870 53.516510
112 0 1 4.335518 16.169874 52.737000
113 0 1 5.138989 15.771871 52.447906
114 0 1 4.666428 15.545270 51.672791
115 0 1 4.366879 16.471972 51.628204
116 0 1 4.527459 16.800673 50.758087
117 0 1 4.483178 17.762671 50.572205
118 0 1 5.093220 18.165071 49.939789
119 0 1 4.258248 18.739573 49.863403
120 0 1 3.324372 18.667074 49.964996
121 0 1 2.390561 18.900770 50.195984
122 0 1 1.784378 19.691870 50.174194
123 0 1 1.841431 20.342871 50.902313
124 0 1 1.098980 19.664171 50.932892
125 0 1 0.833718 18.693274 50.868500
126 0 1 0.156653 18.947775 51.491089
127 0 1 -0.473728 19.647173 51.661499
128 0 1 -1.201980 19.370173 51.123505
129 0 1 -0.820369 18.594770 51.528503
130 0 1 -1.363380 18.128172 52.237701
131 0 1 -1.066370 17.870771 53.094391
132 0 1 -0.634287 17.683371 53.959198
133 0 1 -0.168483 18.287970 54.531799
134 0 1 -1.090620 18.813772 54.463409
135 0 1 -1.086130 18.360872 55.294617
136 0 1 -1.274721 17.382772 55.206299
137 0 1 -2.022100 16.826674 55.425812
138 0 1 -2.311750 15.888371 55.678711
139 0 1 -2.947090 15.574773 56.309906
140 0 1 -3.463411 16.190573 55.740692
141 0 1 -4.379930 16.466471 55.675507
142 0 1 -5.201061 16.811773 55.193512
143 0 1 -5.370790 16.562971 54.299408
144 0 1 -5.542530 17.052271 53.528198
145 0 1 -5.721670 16.617571 52.675995
146 0 1 -6.313550 16.018572 52.272888
147 0 1 -6.964370 16.089373 51.578308
148 0 1 -6.928039 15.573472 50.770386
149 0 1 -6.005661 15.781270 50.395813
150 0 1 -5.122150 15.850873 50.733795
151 0 1 -5.251361 16.640471 50.236084
152 0 1 -5.500091 16.652971 49.298889
153 0 1 -5.395750 17.502672 48.908203
154 0 1 -5.357589 18.401972 48.566711
155 0 1 -5.277210 18.199774 47.566589
156 0 1 -4.799650 17.479872 47.910797
157 0 1 -4.687049 16.506273 47.775208
158 0 1 -4.259651 16.626272 48.675995
159 0 1 -4.851909 15.815770 48.735291
160 0 1 -5.800331 15.873170 48.398895
161 0 1 -6.699489 15.522172 48.598511
162 0 1 -7.402881 15.293672 48.048889
163 0 1 -7.308950 14.675473 47.271088
164 0 1 -7.312200 13.745271 47.463501
165 0 1 -6.422760 13.381970 47.278992
166 0 1 -6.671440 13.389672 46.340607
167 0 1 -7.480590 12.978570 45.912506
168 0 1 -8.072392 12.985570 45.140686
169 0 1 -8.385860 12.833371 44.218384
170 0 1 -8.860310 12.087972 44.599487
171 0 1 -9.263870 11.488282 45.267090
172 0 1 -9.950901 10.809331 45.327698
173 0 1 -10.305141 10.197179 45.983795
174 0 1 -9.592651 10.631970 46.464508
175 0 1 -10.335442 11.242112 46.631500
176 0 1 -10.833641 11.956872 46.950684
177 0 1 -11.840340 12.179173 47.080688
178 0 1 -11.628740 12.802072 47.883392
179 0 1 -10.826740 13.222772 48.168610
180 0 1 -11.039341 14.170571 48.451691
181 0 1 -10.937441 14.060269 49.424408
182 0 1 -10.406742 14.224671 50.226013
183 0 1 -10.766640 15.050370 49.913513
184 0 1 -11.786140 15.043870 49.889099
185 0 1 -11.816540 15.939572 50.213989
186 0 1 -11.969242 15.578969 51.101593
187 0 1 -11.122742 15.180173 51.094391
188 0 1 -10.518742 16.006571 51.105896
189 0 1 -10.386641 16.874971 51.453308
190 0 1 -9.662611 16.916471 50.744598
191 0 1 -8.707991 16.879171 50.618195
192 0 1 -8.544960 17.848570 50.578888
193 0 1 -9.294651 18.326071 50.887207
194 0 1 -9.356581 18.459570 51.811310
195 0 1 -9.071899 19.175970 52.459808
196 0 1 -9.418270 18.799971 53.294098
197 0 1 -9.608761 18.122171 53.973602
198 0 1 -9.249821 17.482771 53.412292
199 0 1 -9.802120 16.991171 52.772705
200 0 1 -10.504141 16.293371 52.932983
201 0 1 -10.998741 15.596971 52.474213
202 0 1 -11.302940 14.681672 52.313904
203 0 1 -10.669941 14.353372 52.966705
204 0 1 -10.943840 13.466573 52.705109
205 0 1 -11.552940 12.796872 52.871002
206 0 1 -12.481239 13.096070 52.939697
207 0 1 -12.574541 12.655469 52.045715
208 0 1 -13.053940 11.975472 51.559906
209 0 1 -13.513241 12.667470 51.114502
210 0 1 -14.182541 13.036572 50.585815
211 0 1 -14.486441 12.089971 50.843201
212 0 1 -14.270641 11.635671 51.696899
213 0 1 -14.113640 11.007703 52.352509
214 0 1 -13.231941 11.337922 52.685089
215 0 1 -12.733341 10.578191 53.018616
216 0 1 -11.770540 10.613919 53.104309
217 0 1 -12.261539 10.073812 53.690704
218 0 1 -12.194542 9.534291 54.497192
219 0 1 -12.401642 9.952691 55.320099
220 0 1 -12.830240 10.645711 55.880707
221 0 1 -13.184940 10.039540 56.565613
222 0 1 -13.749941 9.637551 57.195312
223 0 1 -14.202641 10.077432 57.931213
224 0 1 -15.206141 10.008702 57.834717
225 0 1 -15.533940 9.766980 58.736298
226 0 1 -16.102341 9.368291 58.030792
227 0 1 -16.296741 9.918653 57.148315
228 0 1 -17.024740 9.864030 56.526001
229 0 1 -17.047541 8.830243 56.823608
230 0 1 -17.228441 8.482183 57.756897
231 0 1 -16.901741 8.582681 58.706512
232 0 1 -16.163141 7.895792 58.824188
233 0 1 -16.810141 7.566881 58.173309
234 0 1 -17.215841 6.664403 58.308289
235 0 1 -16.924740 6.473371 57.385010
236 0 1 -16.796240 5.713533 56.763184
237 0 1 -15.975841 5.304502 56.675995
238 0 1 -15.733241 6.163980 56.210999
239 0 1 -15.209741 6.759122 55.606689
240 0 1 -15.193440 6.041940 54.929993
241 0 1 -14.976941 5.464490 54.160309
242 0 1 -15.585840 4.695501 54.264404
243 0 1 -16.004240 5.144342 53.449585
244 0 1 -16.755741 4.959753 54.041504
245 0 1 -17.585241 4.963842 54.588013
246 0 1 -17.893641 4.069433 54.612915
247 0 1 -17.069841 3.635591 54.411591
248 0 1 -16.122141 3.701581 54.260712
249 0 1 -15.823441 3.213571 53.566803
250 0 1 -16.346540 2.465383 53.988007
251 0 1 -16.824841 1.621681 53.736603
252 0 1 -17.236240 2.035300 54.511810
253 0 1 -16.916842 1.363609 55.158508
254 0 1 -17.145340 1.813629 55.941895
255 0 1 -16.332741 1.722942 56.458405
256 0 1 -15.885840 1.479967 57.321198
257 0 1 -15.176141 0.878793 57.721497
258 0 1 -15.013241 0.327741 58.497894
259 0 1 -14.547641 0.981042 59.030884
260 0 1 -13.816341 1.195159 58.375793
261 0 1 -13.191441 1.144174 57.661896
262 0 1 -12.872440 0.442651 57.063995
263 0 1 -13.364841 -0.124549 56.363403
264 0 1 -14.149040 -0.409989 56.764404
265 0 1 -14.345242 -0.984328 57.483704
266 0 1 -13.960640 -0.229788 57.903107
267 0 1 -13.390240 -0.676158 58.564789
268 0 1 -12.875441 -1.267569 59.140198
269 0 1 -12.007441 -1.240748 58.765991
270 0 1 -12.353041 -2.190200 58.863708
271 0 1 -12.810940 -2.995709 59.154388
272 0 1 -13.611839 -3.568000 59.062805
273 0 1 -14.524540 -3.316058 59.391602
274 0 1 -13.968040 -2.666718 59.929688
275 0 1 -13.287041 -2.023938 60.121887
276 0 1 -13.503841 -1.929118 61.073212
277 0 1 -12.826141 -1.588420 61.597290
278 0 1 -12.420139 -0.827929 61.151306
279 0 1 -11.483841 -0.805468 61.487091
280 0 1 -10.623642 -0.471209 61.588989
281 0 1 -10.390240 0.468551 61.541687
282 0 1 -9.767000 0.871831 60.977112
283 0 1 -9.736839 -0.093499 60.970001
284 0 1 -9.748791 -0.997178 61.283112
285 0 1 -8.839981 -0.497239 61.302612
286 0 1 -8.670300 0.387391 61.817596
287 0 1 -9.359291 -0.208218 62.238403
288 0 1 -9.661720 0.686740 62.379517
289 0 1 -9.587170 1.034170 63.290192
290 0 1 -10.032619 0.251102 63.250916
291 0 1 -10.566641 -0.126609 62.560303
292 0 1 -11.022840 0.689267 62.917297
293 0 1 -11.729641 0.080201 62.757690
294 0 1 -12.622040 -0.018809 63.201599
295 0 1 -13.018940 0.768853 63.689209
296 0 1 -12.364342 1.543310 63.891907
297 0 1 -12.200941 1.215091 64.785797
298 0 1 -12.375740 1.919944 65.403809
299 0 1 -13.062740 1.897622 64.735992
300 0 1 -13.590240 2.297157 65.518402
301 0 1 -13.151140 3.277143 65.254791
302 0 1 -12.214741 2.999351 65.682800
303 0 1 -12.421841 3.772950 66.150909
304 0 1 -11.739040 3.460023 66.877991
305 0 1 -10.838741 3.710801 67.259491
306 0 1 -10.594440 3.576440 66.287415
307 0 1 -9.722630 4.016992 66.290802
308 0 1 -9.381401 4.769720 65.747101
309 0 1 -8.791210 5.546934 65.624695
310 0 1 -8.933651 6.317972 66.236084
311 0 1 -8.291111 7.006532 66.108704
312 0 1 -7.430980 7.437101 66.009491
313 0 1 -6.949041 7.055913 65.286591
314 0 1 -6.755640 6.443273 64.522003
315 0 1 -7.244791 5.811361 65.102997
316 0 1 -7.786430 5.031843 65.132996
317 0 1 -7.147609 4.341581 65.218506
318 0 1 -6.192371 4.458532 65.312103
319 0 1 -5.432201 4.013662 64.954010
320 0 1 -4.890100 4.444921 64.320709
321 0 1 -4.345850 4.497633 63.487396
322 0 1 -4.211799 5.234231 64.045502
323 0 1 -3.753841 5.954450 63.459595
324 0 1 -3.091840 5.847291 62.757294
325 0 1 -2.803319 5.215292 62.104706
326 0 1 -2.746320 6.051530 61.730896
327 0 1 -2.215080 6.614072 62.292114
328 0 1 -2.063171 7.500253 62.679504
329 0 1 -2.575840 8.423039 62.629089
330 0 1 -2.094230 9.116502 62.161011
331 0 1 -1.490631 9.152711 62.900787
332 0 1 -2.265680 9.346829 63.535095
333 0 1 -2.338310 8.546742 64.061584
334 0 1 -2.055339 8.003522 64.862000
335 0 1 -1.222231 7.796773 65.233215
336 0 1 -0.577819 7.599241 65.862000
337 0 1 -1.128551 8.055333 66.536011
338 0 1 -0.584991 7.470010 67.167694
339 0 1 -0.965860 8.104001 67.765900
340 0 1 -0.864917 8.302663 68.702301
341 0 1 -1.678600 8.040681 69.140198
342 0 1 -1.567791 7.779371 70.032806
343 0 1 -2.140769 7.004774 70.392303
344 0 1 -1.924341 6.970041 71.364594
345 0 1 -1.257341 6.272573 71.172089
346 0 1 -0.579385 5.598802 71.505402
347 0 1 -0.672441 5.371812 70.582886
348 0 1 0.210486 5.128141 70.956482
349 0 1 0.617140 4.381643 70.561005
350 0 1 0.248251 3.519170 70.983215
351 0 1 -0.566642 3.518583 70.428009
352 0 1 -0.361282 3.604291 69.483490
353 0 1 -0.773279 3.030181 68.844788
354 0 1 -1.333730 2.735111 68.075317
355 0 1 -0.558429 3.012752 67.587494
356 0 1 0.243538 2.938581 67.143311
357 0 1 -0.191902 2.136001 66.778809
358 0 1 -0.589681 1.562295 66.163605
359 0 1 -1.407011 1.410491 65.659302
360 0 1 -0.681036 0.763347 65.505707
361 0 1 0.216467 0.403602 65.362488
362 0 1 0.679093 0.151780 66.107697
363 0 1 0.181750 -0.602549 65.702301
364 0 1 0.707577 -0.965878 64.952393
365 0 1 1.593361 -1.280259 65.237305
366 0 1 1.696000 -2.028458 64.519287
367 0 1 1.267559 -2.334809 63.786316
368 0 1 0.840533 -2.252629 62.893616
369 0 1 0.007481 -2.433818 63.396088
370 0 1 -0.155027 -3.281478 63.044006
371 0 1 -0.665151 -3.438399 62.123901
372 0 1 -0.311386 -4.333119 62.120605
373 0 1 -1.092691 -4.848969 62.423187
374 0 1 -1.714450 -5.535159 62.487610
375 0 1 -2.487621 -5.011708 62.311005
376 0 1 -2.946611 -5.097479 63.185913
377 0 1 -3.528120 -4.665888 63.717804
378 0 1 -4.278221 -4.080048 63.722504
379 0 1 -5.192400 -4.008059 63.797791
380 0 1 -5.894540 -4.108019 64.391510
381 0 1 -6.670370 -4.136137 63.842407
382 0 1 -6.663021 -3.176419 63.960907
383 0 1 -5.807970 -3.022460 64.294891
384 0 1 -5.729330 -3.055459 63.343109
385 0 1 -6.086059 -2.341149 62.775391
386 0 1 -6.289060 -2.903888 62.068695
387 0 1 -6.072481 -3.827979 61.958191
388 0 1 -6.251920 -4.002490 61.054199
389 0 1 -6.235590 -3.960910 60.086609
390 0 1 -6.422851 -3.826329 59.134491
391 0 1 -6.059240 -4.190588 58.261993
392 0 1 -6.699741 -4.466139 57.656891
393 0 1 -6.149980 -3.864918 57.216187
394 0 1 -6.065790 -3.023829 56.864990
395 0 1 -6.426851 -3.476649 56.131714
396 0 1 -6.656330 -3.111949 55.283997
397 0 1 -5.958320 -3.258569 54.634796
398 0 1 -5.396890 -3.205848 53.864899
399 0 1 -4.634830 -3.734179 53.712402
400 0 1 -5.309379 -4.483057 53.683899
401 0 1 -5.860330 -5.030459 54.260712
402 0 1 -5.381839 -5.217858 55.034607
403 0 1 -5.390810 -5.455649 55.998505
404 0 1 -4.902730 -5.027619 56.741302
405 0 1 -3.960781 -4.793337 57.053101
406 0 1 -3.324100 -5.437739 56.749603
407 0 1 -2.836010 -5.598258 57.573303
408 0 1 -3.514801 -6.215559 57.980408
409 0 1 -3.260120 -5.372138 58.560211
410 0 1 -2.573370 -4.579817 58.519012
411 0 1 -2.039979 -3.858029 58.212891
412 0 1 -1.873220 -3.080970 57.660583
413 0 1 -2.073890 -2.758960 56.771606
414 0 1 -1.093090 -2.484288 56.739410
415 0 1 -0.191526 -2.901719 56.811005
416 0 1 0.510136 -3.190158 56.236603
417 0 1 0.629700 -2.347499 56.681091
418 0 1 1.590569 -2.547988 56.616516
419 0 1 1.570828 -1.906119 55.857117
420 0 1 2.121731 -1.198588 56.259216
421 0 1 2.495068 -0.397158 55.936798
422 0 1 3.409970 -0.588139 55.566193
423 0 1 4.179341 -0.583598 55.020996
424 0 1 4.681160 0.228422 55.013611
425 0 1 4.529309 0.844751 54.303894
426 0 1 3.636860 1.301437 54.507202
427 0 1 2.965630 1.849204 54.926910
428 0 1 2.589821 1.123893 54.371613
429 0 1 2.873959 1.397497 53.504089
430 0 1 3.579369 1.030691 52.997406
431 0 1 3.269822 0.713289 52.102295
432 0 1 2.821309 0.997741 51.280884
433 0 1 2.881390 0.219112 50.673004
434 0 1 2.471180 -0.023768 49.770996
435 0 1 2.230599 0.846143 50.144897
436 0 1 2.498742 1.050210 49.282990
437 0 1 1.812550 0.792272 48.692291
438 0 1 1.322369 1.302137 49.410095
439 0 1 0.586964 1.014217 48.927490
440 0 1 0.000502 0.417621 49.491516
441 0 1 -0.639288 0.561408 50.171509
442 0 1 -0.888347 0.088601 50.973694
443 0 1 -1.043148 0.225961 51.903992
444 0 1 -0.088331 0.491741 52.013794
445 0 1 0.390782 -0.048859 51.388184
446 0 1 0.578659 -0.998049 51.331512
447 0 1 0.199465 -1.612019 50.654694
448 0 1 -0.485582 -1.217419 50.016907
449 0 1 -0.949175 -0.485449 49.437103
450 0 1 -1.726280 -0.738089 48.961395
451 0 1 -1.456581 -1.581038 48.645386
452 0 1 -1.962171 -1.541089 47.837189
453 0 1 -1.634740 -2.370349 47.768402
454 0 1 -2.114580 -3.073979 48.113586
455 0 1 -1.511421 -3.693648 48.525787
456 0 1 -0.556930 -3.690749 48.488098
457 0 1 -0.299209 -2.977919 49.147491
458 0 1 -0.524494 -3.562669 49.913605
459 0 1 -1.213161 -3.099299 50.486298
460 0 1 -1.709701 -2.842299 51.228302
461 0 1 -2.423049 -2.871129 50.542114
462 0 1 -2.728420 -3.073769 51.481995
463 0 1 -2.138380 -3.794308 51.685486
464 0 1 -2.924890 -4.192759 52.053497
465 0 1 -3.291591 -4.463297 52.838989
466 0 1 -4.228170 -4.427529 52.863708
467 0 1 -5.033901 -4.882958 52.707611
468 0 1 -4.487079 -5.693959 52.842499
469 0 1 -3.552221 -5.876479 52.438507
470 0 1 -3.922630 -6.537859 51.811798
471 0 1 -3.531520 -7.279599 52.242096
472 0 1 -2.790950 -7.672610 52.585815
473 0 1 -3.501810 -7.735568 53.263794
474 0 1 -3.655611 -7.919199 54.195190
475 0 1 -2.725841 -7.864810 54.514587
476 0 1 -2.805749 -8.808228 54.327515
477 0 1 -2.124759 -9.452929 54.275787
478 0 1 -1.339031 -9.649829 54.743103
479 0 1 -1.208110 -10.628428 54.768097
480 0 1 -0.960437 -11.257728 54.083008
481 0 1 -1.494239 -11.974429 53.585297
482 0 1 -1.777280 -12.816028 53.973907
483 0 1 -1.678810 -13.629828 53.481110
484 0 1 -1.087141 -13.307629 52.762299
485 0 1 -0.327446 -12.937930 52.306396
486 0 1 -0.248998 -13.801029 52.024811
487 0 1 -1.113510 -13.770229 51.623291
488 0 1 -1.584690 -14.623130 51.484802
489 0 1 -1.336330 -14.306828 50.597107
490 0 1 -0.595373 -14.555629 50.041412
491 0 1 0.109320 -15.057128 49.618805
492 0 1 -0.504778 -15.859828 49.542206
493 0 1 0.325426 -16.303228 49.647583
494 0 1 1.227179 -16.180227 50.056488
495 0 1 1.693188 -16.815428 49.488495
496 0 1 2.282288 -17.209728 48.911407
497 0 1 3.200020 -16.960129 48.915100
498 0 1 2.861001 -17.348728 48.076904
499 0 1 3.787518 -17.266228 47.853790
500 0 1 3.550709 -16.455029 47.466003
501 0 1 3.792851 -16.592228 46.549194
502 0 1 3.077221 -17.210629 46.372803
503 0 1 3.383671 -17.481527 45.528503
504 0 1 2.793149 -18.191628 45.621704
505 0 1 2.428399 -18.476627 44.776917
506 0 1 2.992630 -17.777027 44.317810
507 0 1 2.212189 -17.279028 43.880890
508 0 1 1.885201 -16.527727 43.494110
509 0 1 2.209309 -15.678529 43.599487
510 0 1 2.146080 -14.756028 43.503998
511 0 1 2.762379 -15.183728 42.863403
512 0 1 2.692261 -15.830529 42.126495
513 0 1 2.646191 -16.248028 41.224609
514 0 1 3.516648 -16.577528 41.173096
515 0 1 3.685158 -15.864429 41.761292
516 0 1 3.812291 -15.096728 42.365906
517 0 1 4.066460 -14.250929 42.046600
518 0 1 4.605900 -14.254128 41.248413
519 0 1 4.110920 -13.742529 40.463196
520 0 1 3.724198 -13.566429 39.597900
521 0 1 2.995129 -14.002529 39.217285
522 0 1 2.349251 -14.603229 38.788605
523 0 1 2.771512 -15.288730 39.407715
524 0 1 2.866448 -14.609929 40.145691
525 0 1 3.737908 -14.763330 40.585907
526 0 1 4.503609 -15.109729 40.030609
527 0 1 4.034741 -15.738830 39.416504
528 0 1 4.559090 -15.751029 38.568298
529 0 1 5.390328 -16.133228 38.815186
530 0 1 5.995381 -16.835629 39.145508
531 0 1 5.408829 -17.174929 38.489594
532 0 1 5.762059 -18.036728 38.479401
533 0 1 6.557229 -17.583529 38.165405
534 0 1 7.168328 -17.006329 38.496216
535 0 1 7.942528 -16.608427 39.054199
536 0 1 8.028370 -16.037928 38.293304
537 0 1 7.949311 -16.481728 37.409698
538 0 1 8.157238 -15.816529 36.671112
539 0 1 7.473771 -15.338828 37.213287
540 0 1 6.931160 -16.107027 36.956116
541 0 1 6.544571 -15.534329 37.649597
542 0 1 6.918831 -15.520028 38.496490
543 0 1 6.446270 -15.837428 39.348511
544 0 1 6.130990 -15.553029 40.185791
545 0 1 5.469819 -15.366029 39.543793
546 0 1 5.305401 -14.484328 39.217804
547 0 1 5.031350 -13.721529 38.652313
548 0 1 5.590161 -13.479129 37.866608
549 0 1 4.794911 -13.075629 37.495605
550 0 1 3.953431 -12.980529 37.099792
551 0 1 3.424679 -12.925330 36.296112
552 0 1 3.027909 -13.605529 36.790894
553 0 1 2.512349 -13.867529 36.014008
554 0 1 1.630879 -14.295629 36.003204
555 0 1 1.024130 -14.590829 35.278107
556 0 1 1.466641 -14.246428 34.415283
557 0 1 2.271809 -13.784129 34.595093
558 0 1 2.548531 -13.172529 33.879303
559 0 1 3.515801 -13.039928 33.928101
560 0 1 3.906128 -12.452929 34.574188
561 0 1 3.056069 -12.640529 34.936096
562 0 1 2.462491 -11.905829 34.956390
563 0 1 1.595280 -12.312530 35.049011
564 0 1 0.848202 -12.940429 35.008484
565 0 1 0.051772 -13.298129 34.583405
566 0 1 -0.414634 -12.596030 34.140991
567 0 1 -0.662494 -13.442829 33.580811
568 0 1 -1.144130 -14.144629 34.097687
569 0 1 -1.808160 -13.908829 33.481506
570 0 1 -1.729261 -13.049329 33.913605
571 0 1 -1.230110 -12.388930 33.394592
572 0 1 -1.605301 -11.510829 33.189392
573 0 1 -2.205270 -12.203929 32.859802
574 0 1 -2.698211 -11.513129 33.278198
575 0 1 -2.823450 -11.415828 32.357483
576 0 1 -2.705141 -11.978229 31.511292
577 0 1 -3.662860 -11.813529 31.416199
578 0 1 -4.593700 -11.928130 31.599304
579 0 1 -5.153711 -11.113330 31.770508
580 0 1 -5.108390 -10.150130 31.795502
581 0 1 -5.922641 -9.777629 31.466309
582 0 1 -6.722660 -9.506429 31.872711
583 0 1 -6.732200 -9.148028 30.915192
584 0 1 -6.794740 -8.480729 31.563416
585 0 1 -6.142801 -7.812598 31.375488
586 0 1 -6.122440 -6.875067 31.735107
587 0 1 -6.934421 -7.379729 32.098206
588 0 1 -7.856349 -7.008708 32.235107
589 0 1 -7.630250 -6.074679 32.004211
590 0 1 -7.102491 -5.564108 32.696808
591 0 1 -7.519990 -4.743538 32.765686
592 0 1 -7.915670 -3.968089 33.105988
593 0 1 -8.493891 -4.150229 33.860291
594 0 1 -8.021690 -4.595349 34.594513
595 0 1 -8.610802 -4.986779 35.329193
596 0 1 -7.808090 -5.669808 35.446411
597 0 1 -7.438819 -6.514769 35.206390
598 0 1 -6.713781 -5.996348 35.388397
599 0 1 -6.312940 -6.731909 34.970612
600 0 1 -6.772529 -6.746329 34.099304
601 0 1 -7.039390 -7.186038 33.371613
602 0 1 -6.079921 -7.234198 33.264191
603 0 1 -5.448989 -6.809378 33.879913
604 0 1 -5.762229 -5.835158 33.969208
605 0 1 -6.610071 -5.371378 34.004303
606 0 1 -6.876770 -4.494278 34.199005
607 0 1 -6.642000 -3.554450 34.279999
608 0 1 -6.170850 -2.851928 33.837708
609 0 1 -5.457469 -2.694648 33.239502
610 0 1 -5.742780 -2.638589 32.302704
611 0 1 -6.139261 -3.484599 32.670105
612 0 1 -6.321680 -3.966008 31.795197
613 0 1 -5.905481 -3.587847 31.030487
614 0 1 -6.712760 -3.103919 31.045410
615 0 1 -7.511100 -3.496909 30.690796
616 0 1 -8.407301 -3.616349 30.311310
617 0 1 -8.948311 -2.917418 30.808411
618 0 1 -9.265430 -3.116408 29.893494
619 0 1 -9.464161 -3.015849 28.917999
620 0 1 -9.803211 -2.137589 29.157593
621 0 1 -8.966141 -2.006989 29.613403
622 0 1 -8.493891 -2.318768 28.883392
623 0 1 -7.675491 -2.634999 28.541809
624 0 1 -6.986551 -2.225499 27.891907
625 0 1 -7.518119 -1.955418 27.086090
626 0 1 -7.859130 -2.832238 26.653687
627 0 1 -8.076591 -3.429118 25.914185
628 0 1 -8.258781 -4.221728 25.409210
629 0 1 -9.169472 -4.428309 25.452393
630 0 1 -9.648762 -5.238968 25.431000
631 0 1 -9.920799 -6.141629 25.276306
632 0 1 -9.939331 -7.142579 25.279114
633 0 1 -10.086639 -8.099040 25.124603
634 0 1 -9.904610 -8.874728 25.661499
635 0 1 -10.534142 -9.093928 24.999786
636 0 1 -9.886612 -9.091529 24.236694
637 0 1 -9.040520 -8.610530 24.282288
638 0 1 -8.847580 -9.556628 24.417603
639 0 1 -8.130119 -9.953830 23.956909
640 0 1 -7.385410 -10.518529 23.936584
641 0 1 -8.035761 -11.018828 23.471710
642 0 1 -8.795792 -10.642329 22.963409
643 0 1 -9.629280 -11.108129 23.131592
644 0 1 -8.809212 -11.660930 23.037598
645 0 1 -9.143780 -12.584329 23.091095
646 0 1 -9.978861 -12.110929 23.183899
647 0 1 -10.725140 -12.128928 23.828400
648 0 1 -11.657341 -11.885629 23.917694
649 0 1 -12.560539 -12.049729 24.256409
650 0 1 -13.104940 -11.225928 24.345398
651 0 1 -14.093241 -11.500728 24.551910
652 0 1 -14.751341 -11.685229 23.860901
653 0 1 -14.523340 -11.663730 22.912994
654 0 1 -14.646340 -12.605128 23.043701
655 0 1 -14.226940 -13.148429 22.303894
656 0 1 -14.343140 -13.876129 22.877991
657 0 1 -14.545541 -14.823428 22.812195
658 0 1 -14.822241 -14.917628 23.763611
659 0 1 -13.921841 -15.074729 24.065308
660 0 1 -13.724442 -15.881028 23.616302
661 0 1 -13.198240 -16.550327 23.207489
662 0 1 -13.581940 -17.168629 23.888214
663 0 1 -13.269440 -18.081127 23.615601
664 0 1 -13.116440 -18.945728 24.032593
665 0 1 -12.502842 -19.600828 24.277588
666 0 1 -12.058842 -18.849129 23.704102
667 0 1 -12.394541 -18.304428 22.958588
668 0 1 -12.278740 -19.173328 22.414597
669 0 1 -13.193340 -19.136229 22.368607
670 0 1 -13.710640 -18.473928 21.901794
671 0 1 -14.259741 -18.736528 22.720886
672 0 1 -14.232342 -18.488327 23.591400
673 0 1 -14.462742 -18.601328 24.502106
674 0 1 -14.625841 -17.687628 24.902496
675 0 1 -14.500940 -16.745028 24.902191
676 0 1 -14.640740 -15.908629 25.377899
677 0 1 -15.157441 -15.978129 24.514404
678 0 1 -15.992640 -15.486030 24.636108
679 0 1 -16.016041 -15.574328 23.673401
680 0 1 -16.692041 -16.255928 24.027100
681 0 1 -16.927641 -16.623728 23.164795
682 0 1 -16.953941 -16.384129 22.213104
683 0 1 -17.534842 -15.712729 21.887405
684 0 1 -17.105640 -15.060929 22.512390
685 0 1 -16.466541 -14.378629 22.711487
686 0 1 -15.576241 -14.915429 22.472504
687 0 1 -15.195741 -14.323229 21.794205
688 0 1 -14.861341 -13.511429 21.422699
689 0 1 -14.005341 -13.382029 20.984695
690 0 1 -13.137440 -12.999629 20.827606
691 0 1 -13.409740 -12.551730 20.027603
692 0 1 -13.944241 -11.696229 19.959106
693 0 1 -13.932640 -12.267428 19.193298
694 0 1 -13.186840 -12.461129 18.587494
695 0 1 -13.286739 -13.475129 18.680405
696 0 1 -12.338242 -13.605129 18.601303
697 0 1 -12.584341 -14.314729 18.070099
698 0 1 -12.058441 -13.846729 17.432495
699 0 1 -11.283741 -13.756329 16.860504
700 0 1 -11.131142 -14.176029 16.038895
701 0 1 -10.247641 -13.867729 16.259308
702 0 1 -9.471561 -14.363029 16.068100
703 0 1 -10.124340 -14.856729 15.619903
704 0 1 -10.473740 -14.315329 14.898192
705 0 1 -10.245441 -13.359429 15.002593
706 0 1 -10.701941 -12.860829 14.304900
707 0 1 -11.098442 -12.057429 14.620406
708 0 1 -11.368042 -11.309329 14.008193
709 0 1 -11.023041 -10.998729 14.868194
710 0 1 -10.776840 -10.109229 14.865493
711 0 1 -10.503040 -10.162330 13.928100
712 0 1 -10.055740 -10.985728 14.156600
713 0 1 -9.840420 -11.883029 14.306502
714 0 1 -9.246212 -12.599429 14.130797
715 0 1 -8.854650 -13.504429 14.142394
716 0 1 -8.038010 -13.331829 14.453399
717 0 1 -7.452400 -12.956130 15.093993
718 0 1 -7.966621 -12.220529 15.490996
719 0 1 -8.115101 -11.626830 14.796996
720 0 1 -8.587330 -10.845130 15.067595
721 0 1 -8.146782 -10.363929 14.395095
722 0 1 -8.146351 -9.952128 13.570800
723 0 1 -9.094980 -9.938329 13.544402
724 0 1 -9.157970 -9.999629 12.517806
725 0 1 -9.250622 -9.319428 11.877700
726 0 1 -9.529951 -8.436809 11.495803
727 0 1 -9.931391 -7.813178 10.884307
728 0 1 -10.549541 -8.443669 10.498000
729 0 1 -10.617439 -7.690749 9.906661
730 0 1 -10.539040 -8.344760 9.197448
731 0 1 -11.042841 -8.453380 8.398360
732 0 1 -11.071041 -9.179429 7.796646
733 0 1 -11.852440 -9.647729 7.548889
734 0 1 -11.676342 -10.433730 8.079406
735 0 1 -11.514940 -10.996129 8.811461
736 0 1 -10.732040 -11.172029 8.238814
737 0 1 -9.785231 -11.057729 8.486007
738 0 1 -9.401741 -10.360328 7.938415
739 0 1 -9.284271 -9.702628 8.600432
740 0 1 -8.311611 -9.937030 8.541213
741 0 1 -8.125870 -10.143029 7.661560
742 0 1 -7.344841 -9.685828 7.644027
743 0 1 -6.544700 -9.304828 8.127120
744 0 1 -5.961450 -9.993930 7.753326
745 0 1 -5.018020 -10.156129 7.660354
746 0 1 -4.990230 -9.892428 8.602355
747 0 1 -5.505250 -10.738229 8.541183
748 0 1 -5.653490 -11.651828 8.634673
749 0 1 -5.662811 -12.288829 7.897766
750 0 1 -4.851421 -12.895530 7.797088
751 0 1 -4.129320 -13.584829 7.986984
752 0 1 -3.323659 -13.573628 8.659835
753 0 1 -2.545900 -13.341829 8.068465
754 0 1 -1.859571 -12.795230 7.716171
755 0 1 -1.379751 -12.418929 6.944290
756 0 1 -0.526964 -12.817630 7.075973
757 0 1 0.020010 -13.133328 7.754638
758 0 1 0.368439 -13.893629 8.203124
759 0 1 1.215779 -14.091529 8.581985
760 0 1 2.093239 -13.700429 8.389617
761 0 1 2.924969 -13.711729 8.882415
762 0 1 3.415902 -13.330729 9.605971
763 0 1 4.388951 -13.376929 9.315490
764 0 1 4.519719 -13.501829 10.284698
765 0 1 4.534279 -14.334829 9.724135
766 0 1 5.252110 -14.270229 10.399505
767 0 1 6.064530 -14.027229 10.787398
768 0 1 6.163441 -14.000529 11.737594
769 0 1 7.164761 -14.249928 11.732192
770 0 1 7.581589 -14.649629 12.544692
771 0 1 6.784180 -14.899228 13.033294
772 0 1 7.126500 -15.813230 13.042998
773 0 1 6.786599 -16.689928 13.367095
774 0 1 6.038121 -17.272827 13.265502
775 0 1 5.183442 -17.054129 12.898101
776 0 1 5.046849 -17.931528 13.339705
777 0 1 5.116730 -18.763927 13.817901
778 0 1 5.521508 -18.335228 14.580306
779 0 1 5.216359 -19.081028 15.087493
780 0 1 4.981179 -19.971329 14.832793
781 0 1 4.799088 -20.531328 15.647002