LAMMPS data file via MDAnalysis

        2000  atoms
        1999  bonds
           0  angles
           0  dihedrals
           0  impropers

           1  atom types
           1  bond types
           0  angle types
           0  dihedral types
           0  improper types

-30.5 30.5 xlo xhi
-30.5 30.5 ylo yhi
-233.5 233.5 zlo zhi


Masses

1 1.000000

Atoms

1 0 1 16.273781 12.896769 72.580200
2 0 1 15.393784 12.875467 72.227203
3 0 1 15.814781 12.296968 71.564514
4 0 1 15.169540 12.731363 71.036896
5 0 1 14.287804 13.154665 70.781006
6 0 1 13.847813 13.517168 70.011108
7 0 1 12.900681 13.869066 70.088409
8 0 1 12.779850 13.242666 69.338196
9 0 1 12.177811 12.492567 69.146606
10 0 1 11.233353 12.196466 69.075684
11 0 1 10.783623 11.753069 69.854004
12 0 1 10.290703 12.577066 69.908203
13 0 1 10.208942 12.617868 68.876892
14 0 1 10.148552 13.292368 68.191498
15 0 1 10.177441 13.984266 67.479492
16 0 1 9.598869 14.476767 66.928711
17 0 1 9.167721 15.225866 67.338593
18 0 1 9.599751 16.029566 67.614990
19 0 1 8.949272 15.942766 68.238586
20 0 1 7.965104 15.861567 68.054901
21 0 1 7.317421 15.930368 67.378784
22 0 1 6.597203 15.638964 66.799011
23 0 1 5.901030 15.707666 67.473297
24 0 1 5.427931 15.066965 66.787201
25 0 1 4.638012 15.093367 66.302704
26 0 1 3.932341 15.439264 65.771698
27 0 1 3.752012 16.013266 66.425690
28 0 1 2.972222 15.460466 66.517700
29 0 1 3.066082 14.472567 66.687103
30 0 1 3.847862 14.385065 67.180603
31 0 1 4.221951 13.483065 67.142303
32 0 1 4.623684 12.583067 66.983582
33 0 1 3.936022 11.965868 66.899689
34 0 1 3.173872 11.386065 66.657898
35 0 1 2.793782 12.044565 66.133484
36 0 1 1.920481 12.218668 65.741211
37 0 1 1.199621 12.226767 64.911194
38 0 1 1.127692 11.242968 64.962097
39 0 1 1.534333 10.896868 64.174896
40 0 1 0.633881 11.203264 63.911591
41 0 1 0.284592 10.493464 63.289917
42 0 1 -0.493728 10.660666 63.830200
43 0 1 -1.100298 10.700766 63.056885
44 0 1 -1.961698 10.370066 62.778290
45 0 1 -2.506038 11.087168 62.576294
46 0 1 -1.896818 11.307665 61.874084
47 0 1 -1.512489 11.818964 61.201202
48 0 1 -0.682779 11.375269 61.421600
49 0 1 -0.846279 10.931269 60.585602
50 0 1 -1.085489 10.080366 60.950897
51 0 1 -0.908579 9.150667 60.950012
52 0 1 -0.497389 9.129267 60.060913
53 0 1 -0.891588 9.132467 59.068115
54 0 1 -1.833608 9.369665 59.378296
55 0 1 -2.713308 9.002367 59.313904
56 0 1 -2.759529 8.055368 59.453308
57 0 1 -2.680069 7.485067 60.169006
58 0 1 -3.318359 6.783068 59.925201
59 0 1 -3.634029 6.243364 60.679504
60 0 1 -3.922048 6.212465 61.597504
61 0 1 -3.634048 6.601667 62.474213
62 0 1 -4.077407 5.766066 62.976288
63 0 1 -3.971477 4.908567 62.453796
64 0 1 -3.913658 4.592367 63.362396
65 0 1 -3.074348 4.203226 63.178009
66 0 1 -2.345558 4.171057 63.796600
67 0 1 -1.682428 4.783068 63.921600
68 0 1 -1.148079 4.704268 63.098083
69 0 1 -0.929027 3.956987 62.521698
70 0 1 -1.691299 3.458567 62.607208
71 0 1 -2.531679 2.994596 62.746307
72 0 1 -2.056778 2.239534 62.387207
73 0 1 -1.498489 1.429277 62.526703
74 0 1 -1.099808 1.053957 61.704285
75 0 1 -0.682289 1.161905 60.797699
76 0 1 -0.207159 0.855837 60.033691
77 0 1 0.472031 1.437838 59.651306
78 0 1 -0.237209 2.091295 59.696503
79 0 1 0.008322 1.684458 58.791504
80 0 1 0.645231 1.513735 58.099487
81 0 1 0.196221 1.413137 57.268005
82 0 1 -0.191599 1.554476 56.417786
83 0 1 0.256993 0.855146 56.029205
84 0 1 0.261521 0.109964 55.384216
85 0 1 -0.534418 -0.356794 55.106995
86 0 1 -1.047687 -1.203573 54.981506
87 0 1 -1.868179 -0.698233 54.783691
88 0 1 -2.741199 -0.227865 54.860596
89 0 1 -3.270729 -0.970674 54.501709
90 0 1 -3.922249 -1.599115 54.387512
91 0 1 -4.642059 -1.099165 54.009705
92 0 1 -4.997619 -0.215315 54.010803
93 0 1 -5.873317 -0.182405 53.601807
94 0 1 -5.674617 -1.057222 53.289093
95 0 1 -5.650119 -1.747873 52.628204
96 0 1 -5.766819 -2.284395 53.404297
97 0 1 -6.061519 -3.210592 53.448395
98 0 1 -6.447517 -2.615084 54.133698
99 0 1 -7.388717 -3.020494 54.064606
100 0 1 -7.482719 -3.589155 53.254089
101 0 1 -8.246918 -3.046663 53.088806
102 0 1 -8.932018 -2.679976 53.660797
103 0 1 -9.801619 -2.331045 53.920105
104 0 1 -9.212719 -1.868353 54.566498
105 0 1 -9.305018 -2.764914 54.959503
106 0 1 -10.134019 -2.392584 55.380188
107 0 1 -10.226619 -1.473562 55.835388
108 0 1 -10.603619 -0.641474 55.564087
109 0 1 -11.570620 -0.542044 55.334503
110 0 1 -12.434519 -0.920233 55.313416
111 0 1 -12.314718 -1.898535 55.268097
112 0 1 -12.038019 -2.078463 56.176605
113 0 1 -11.858618 -2.387754 57.035187
114 0 1 -11.483519 -2.061922 57.898102
115 0 1 -10.936619 -2.458685 58.529907
116 0 1 -10.892719 -2.235323 59.443512
117 0 1 -10.645418 -2.194674 60.390594
118 0 1 -10.240219 -1.336973 60.660706
119 0 1 -10.555519 -0.570494 60.168396
120 0 1 -9.590118 -0.552553 60.126190
121 0 1 -8.624119 -0.456865 60.276917
122 0 1 -8.444118 0.260996 59.673096
123 0 1 -8.227919 0.732805 60.474304
124 0 1 -7.515218 0.110956 60.485809
125 0 1 -6.532817 0.253595 60.437592
126 0 1 -7.049819 1.052546 60.144501
127 0 1 -7.598617 1.828726 60.284302
128 0 1 -8.233418 2.322046 59.814606
129 0 1 -8.049519 2.852407 58.971100
130 0 1 -7.137619 2.938135 58.805298
131 0 1 -7.674018 2.924387 57.934113
132 0 1 -7.923818 2.144098 57.503784
133 0 1 -7.586818 1.699724 56.694489
134 0 1 -7.904319 2.083456 55.840790
135 0 1 -8.242920 2.960257 55.634399
136 0 1 -7.875719 3.127954 54.758484
137 0 1 -7.726219 3.093027 53.775909
138 0 1 -7.317718 2.962198 52.953796
139 0 1 -8.134218 2.474054 52.772400
140 0 1 -8.295017 2.003675 53.604095
141 0 1 -8.985920 1.692686 54.203308
142 0 1 -9.738619 2.237326 53.889313
143 0 1 -9.542819 2.287115 52.990387
144 0 1 -9.923718 2.923624 52.325806
145 0 1 -9.859718 3.628286 52.979095
146 0 1 -9.930618 3.437437 53.898712
147 0 1 -10.800119 3.383665 53.440186
148 0 1 -11.625418 3.887438 53.225098
149 0 1 -11.454519 4.810667 53.116516
150 0 1 -12.000618 5.187765 52.437500
151 0 1 -11.951719 4.631765 51.635101
152 0 1 -12.979319 4.748266 51.587006
153 0 1 -13.778519 4.817568 51.076996
154 0 1 -14.405018 4.301367 50.493408
155 0 1 -15.148319 4.154634 51.054993
156 0 1 -15.627119 4.981867 50.948395
157 0 1 -15.350918 5.287767 50.113708
158 0 1 -15.053019 6.151964 49.705597
159 0 1 -15.799019 6.232965 49.092285
160 0 1 -16.273218 5.678366 48.534607
161 0 1 -16.853218 6.435766 48.603607
162 0 1 -16.417118 7.094164 49.159302
163 0 1 -16.151619 7.925264 49.701202
164 0 1 -16.994619 8.115965 49.274902
165 0 1 -17.484718 8.690065 48.740997
166 0 1 -18.385418 8.751368 48.989502
167 0 1 -19.113819 9.309168 48.795502
168 0 1 -20.010519 8.955366 48.750916
169 0 1 -20.042519 8.391665 49.555908
170 0 1 -20.346319 8.418066 50.456116
171 0 1 -20.695118 7.545866 50.416595
172 0 1 -20.337618 6.732466 50.010712
173 0 1 -19.758120 6.218367 50.547089
174 0 1 -20.360819 6.435667 51.280212
175 0 1 -20.910219 5.721666 51.559692
176 0 1 -20.217619 5.472265 52.162415
177 0 1 -19.594419 4.805567 51.708099
178 0 1 -19.918119 4.068945 51.143311
179 0 1 -19.936918 3.525545 50.378784
180 0 1 -19.848719 3.299627 49.485291
181 0 1 -18.965118 3.106047 49.364990
182 0 1 -18.344019 2.320936 49.188995
183 0 1 -18.135220 2.644968 48.352905
184 0 1 -18.915518 2.111036 48.172485
185 0 1 -19.096018 1.238005 47.848602
186 0 1 -19.092218 0.358656 47.538391
187 0 1 -19.769819 -0.270933 47.224396
188 0 1 -20.545319 -0.105642 47.826111
189 0 1 -19.940418 -0.705732 48.270599
190 0 1 -20.244419 -0.125635 49.029297
191 0 1 -21.171919 -0.291033 48.792603
192 0 1 -21.386419 -0.847113 48.064697
193 0 1 -20.818218 -1.637735 48.106995
194 0 1 -20.671619 -2.118563 47.295105
195 0 1 -20.481218 -1.934652 46.385895
196 0 1 -19.575418 -1.653383 46.195099
197 0 1 -19.543419 -1.100164 45.473511
198 0 1 -18.836418 -1.260023 44.842590
199 0 1 -18.933218 -1.147543 43.873901
200 0 1 -18.461819 -0.369184 44.101990
201 0 1 -17.849319 -0.419775 43.362915
202 0 1 -16.990618 -0.399023 43.900787
203 0 1 -16.234219 -0.473753 44.636292
204 0 1 -16.881720 -0.726355 45.398712
205 0 1 -17.439419 -1.037683 44.608002
206 0 1 -17.614218 -2.021185 44.660095
207 0 1 -18.066818 -2.041815 43.834198
208 0 1 -18.040518 -2.965014 44.152893
209 0 1 -17.806519 -3.823614 43.911713
210 0 1 -16.895418 -3.730303 44.169403
211 0 1 -16.715118 -4.408394 43.466888
212 0 1 -16.359018 -5.043560 42.763794
213 0 1 -15.478519 -5.021353 43.130310
214 0 1 -15.612219 -5.634872 42.438202
215 0 1 -16.319818 -6.286768 42.522400
216 0 1 -15.653818 -6.835974 42.057983
217 0 1 -15.552519 -6.409845 41.175201
218 0 1 -16.120218 -5.698240 40.944305
219 0 1 -17.038719 -5.386948 40.782501
220 0 1 -17.773819 -5.886013 40.435699
221 0 1 -18.176018 -6.673368 40.054688
222 0 1 -18.361418 -7.594584 40.164185
223 0 1 -18.670118 -8.121735 39.425415
224 0 1 -18.437819 -8.556124 38.640106
225 0 1 -18.547918 -8.445753 37.699707
226 0 1 -17.711819 -8.844414 37.361206
227 0 1 -17.630119 -9.063324 36.439087
228 0 1 -16.759218 -8.657154 36.519104
229 0 1 -16.418819 -7.953545 35.958801
230 0 1 -15.874119 -7.541454 35.260498
231 0 1 -15.874619 -6.903645 35.910706
232 0 1 -16.014420 -5.964214 36.307892
233 0 1 -15.852219 -5.469954 37.093292
234 0 1 -16.402319 -4.803122 37.494110
235 0 1 -17.384018 -4.598814 37.440491
236 0 1 -16.986019 -5.197966 36.768707
237 0 1 -17.069418 -4.400194 36.243896
238 0 1 -16.692118 -3.629305 36.673401
239 0 1 -16.880619 -3.623503 37.612305
240 0 1 -16.041719 -3.971132 38.003204
241 0 1 -15.678719 -4.663984 38.504517
242 0 1 -15.169018 -5.257120 38.994598
243 0 1 -14.703320 -6.042717 38.652802
244 0 1 -14.150620 -5.163576 38.583405
245 0 1 -13.375118 -5.037151 39.113892
246 0 1 -12.879919 -5.770533 38.688202
247 0 1 -12.445118 -4.905626 38.799316
248 0 1 -11.539419 -4.900984 38.365509
249 0 1 -12.198519 -5.164236 37.747986
250 0 1 -13.061518 -4.765230 37.582794
251 0 1 -13.393219 -5.192204 36.775787
252 0 1 -12.494719 -4.842890 36.551605
253 0 1 -12.803619 -4.214952 35.872406
254 0 1 -12.273218 -3.504114 36.305908
255 0 1 -11.886919 -2.717543 36.710815
256 0 1 -11.655319 -1.772116 36.522491
257 0 1 -12.314518 -1.064024 36.334412
258 0 1 -12.921019 -0.337275 36.127899
259 0 1 -12.948019 0.598185 36.019012
260 0 1 -12.610519 1.405695 36.418610
261 0 1 -13.016619 2.014925 37.015900
262 0 1 -13.971418 1.807795 37.328613
263 0 1 -13.602018 2.204668 38.111206
264 0 1 -13.504219 3.144346 38.099396
265 0 1 -12.807018 3.582056 37.556091
266 0 1 -12.441818 3.510237 36.686005
267 0 1 -13.404018 3.496355 36.368805
268 0 1 -13.241819 2.627207 35.829285
269 0 1 -12.269619 2.585428 35.707001
270 0 1 -11.566418 3.200125 35.716888
271 0 1 -11.140318 3.149427 34.841095
272 0 1 -10.421418 2.638468 35.177185
273 0 1 -9.629919 2.679598 35.770813
274 0 1 -8.911617 2.233248 36.380005
275 0 1 -7.984218 2.316927 36.330811
276 0 1 -6.980918 2.605795 36.349915
277 0 1 -6.556118 3.399988 36.641296
278 0 1 -6.357818 4.378065 36.440887
279 0 1 -6.138717 5.257967 36.659088
280 0 1 -5.469318 5.577467 37.308411
281 0 1 -4.694458 6.107668 37.322296
282 0 1 -4.202638 6.033865 38.174805
283 0 1 -3.513019 6.756765 38.176300
284 0 1 -2.854448 6.482965 38.850586
285 0 1 -1.914789 6.713766 38.771088
286 0 1 -1.321209 5.899767 38.746216
287 0 1 -1.539568 5.058466 38.506012
288 0 1 -0.697649 4.624166 38.670288
289 0 1 -0.110729 4.171167 39.226501
290 0 1 -0.771488 4.425867 39.867798
291 0 1 -1.328068 5.073965 40.384094
292 0 1 -2.240169 5.368067 40.619385
293 0 1 -2.854549 4.582365 40.686188
294 0 1 -2.965158 5.034765 41.587494
295 0 1 -3.857488 4.661768 41.539398
296 0 1 -4.405298 4.981768 42.239014
297 0 1 -4.249818 5.937265 42.156708
298 0 1 -4.846019 6.553865 42.699890
299 0 1 -5.674318 6.929667 43.083984
300 0 1 -5.520217 6.097666 43.532104
301 0 1 -6.288518 5.510965 43.853210
302 0 1 -6.785118 5.723665 44.665405
303 0 1 -6.628118 6.699667 44.677094
304 0 1 -7.408119 6.619867 45.261597
305 0 1 -6.813318 7.111467 45.873413
306 0 1 -6.963317 7.682764 46.615204
307 0 1 -7.961017 7.554865 46.560303
308 0 1 -8.119719 7.102167 47.404510
309 0 1 -7.543218 7.676966 47.842896
310 0 1 -6.662017 7.957468 47.538910
311 0 1 -6.664119 7.138166 48.010986
312 0 1 -6.512918 6.924566 48.944702
313 0 1 -6.925018 7.361864 49.640900
314 0 1 -7.515718 7.424768 50.347198
315 0 1 -7.616519 7.354067 51.343811
316 0 1 -6.917617 6.707964 51.357117
317 0 1 -6.242717 6.192266 50.941406
318 0 1 -6.005718 7.040167 51.230194
319 0 1 -5.955019 8.024466 51.330109
320 0 1 -5.488018 8.654268 51.974091
321 0 1 -5.010618 9.342867 52.495605
322 0 1 -4.152608 9.375067 52.974609
323 0 1 -4.131528 8.489168 53.389893
324 0 1 -4.372867 8.119768 52.541107
325 0 1 -4.485599 7.495367 53.240997
326 0 1 -3.791908 6.979666 52.736603
327 0 1 -3.594398 6.091364 52.803284
328 0 1 -2.786098 6.507967 53.052795
329 0 1 -2.500538 5.562468 52.942902
330 0 1 -2.362839 4.615168 52.827301
331 0 1 -2.494959 3.993147 53.504791
332 0 1 -2.445478 3.208757 54.062988
333 0 1 -3.365539 3.006605 53.579590
334 0 1 -3.073068 3.078856 52.636597
335 0 1 -3.217088 3.206224 51.703003
336 0 1 -3.245479 4.143255 51.438202
337 0 1 -3.634548 5.085867 51.134613
338 0 1 -3.633529 5.621565 50.342102
339 0 1 -3.447119 4.737066 50.028015
340 0 1 -4.192287 4.058138 49.781616
341 0 1 -4.692317 4.732866 49.281708
342 0 1 -5.250419 5.540964 49.392212
343 0 1 -4.984817 5.804567 48.519104
344 0 1 -4.263267 6.372465 48.707703
345 0 1 -4.221920 6.656866 47.804016
346 0 1 -4.418428 7.092264 46.912201
347 0 1 -4.339159 6.446867 46.218903
348 0 1 -5.084117 6.905664 45.943207
349 0 1 -4.689048 7.170267 45.162994
350 0 1 -5.037918 7.956167 44.643707
351 0 1 -4.628059 7.940367 43.759491
352 0 1 -4.318058 8.724764 43.309998
353 0 1 -4.172309 9.484667 42.686096
354 0 1 -3.740337 10.040766 41.956116
355 0 1 -3.358528 10.800867 41.453094
356 0 1 -2.927177 10.204367 40.835815
357 0 1 -2.144348 9.637167 40.760803
358 0 1 -1.817068 10.363066 41.242096
359 0 1 -2.039869 11.268465 41.175415
360 0 1 -2.488699 11.656069 41.979187
361 0 1 -2.850439 12.523466 42.238586
362 0 1 -3.533249 12.006166 42.700012
363 0 1 -3.477918 12.904863 43.052399
364 0 1 -3.744159 12.920069 44.000610
365 0 1 -4.007907 13.640368 44.743805
366 0 1 -3.825548 12.960566 45.420105
367 0 1 -2.927038 12.577265 45.617004
368 0 1 -2.221449 13.146067 45.931213
369 0 1 -1.948469 12.413263 45.409210
370 0 1 -2.252449 12.264666 44.488403
371 0 1 -2.487558 11.756464 43.709900
372 0 1 -1.837898 12.470568 43.312500
373 0 1 -1.368789 11.806166 43.866089
374 0 1 -1.572008 10.900366 44.220306
375 0 1 -1.239959 10.131765 43.630493
376 0 1 -1.665498 9.977266 42.709290
377 0 1 -1.663978 9.152864 43.221893
378 0 1 -1.195999 8.510965 43.848297
379 0 1 -0.345678 8.835165 43.707306
380 0 1 -0.374519 9.161665 42.800201
381 0 1 -0.203689 10.106165 42.662811
382 0 1 0.555512 9.710665 42.147003
383 0 1 0.811630 8.851068 41.665497
384 0 1 1.715452 8.863268 41.172791
385 0 1 1.504992 9.750265 41.039795
386 0 1 1.514073 10.536467 40.434296
387 0 1 2.165812 10.229567 39.792786
388 0 1 1.659092 9.563166 39.280396
389 0 1 2.141873 8.986166 39.915283
390 0 1 2.642071 8.355566 39.337189
391 0 1 3.054621 9.165064 39.095490
392 0 1 3.758332 9.633566 38.675415
393 0 1 4.314497 10.144464 38.078888
394 0 1 4.432158 9.411768 37.503601
395 0 1 5.216301 8.931967 37.866211
396 0 1 5.406792 8.497568 37.006714
397 0 1 6.156918 8.287165 37.486511
398 0 1 7.017552 8.144068 37.058289
399 0 1 7.686623 7.386667 37.183716
400 0 1 7.773621 7.246668 36.220093
401 0 1 7.783551 8.227465 35.927490
402 0 1 7.832032 8.421167 35.013397
403 0 1 7.869271 9.270067 35.496216
404 0 1 7.390481 9.534067 34.701599
405 0 1 6.428662 9.496866 34.863800
406 0 1 5.594056 9.809267 35.273193
407 0 1 5.573710 10.441568 34.524994
408 0 1 5.602866 11.292665 34.939606
409 0 1 5.636931 11.512167 34.025085
410 0 1 6.414422 12.006365 33.874207
411 0 1 6.592432 12.008768 32.941101
412 0 1 7.334271 12.593065 33.231903
413 0 1 7.957283 12.270067 33.836212
414 0 1 8.644882 11.837465 33.377594
415 0 1 8.031212 12.025766 32.598602
416 0 1 8.640041 12.209066 31.827515
417 0 1 9.432671 11.775766 31.585815
418 0 1 10.267921 12.169065 31.636505
419 0 1 10.858070 11.893866 30.970215
420 0 1 11.113991 12.348967 30.218811
421 0 1 11.285381 13.165766 30.779114
422 0 1 11.969063 13.030268 30.109711
423 0 1 12.346203 12.618265 29.344208
424 0 1 13.059711 12.127764 29.687500
425 0 1 13.650009 12.206366 28.937714
426 0 1 14.326103 11.549566 29.122406
427 0 1 14.958839 12.209665 28.787811
428 0 1 15.788681 12.431166 29.133392
429 0 1 16.604782 12.898767 29.157501
430 0 1 17.352680 12.297068 28.912903
431 0 1 18.034382 12.205767 28.119690
432 0 1 18.714783 11.650766 28.474213
433 0 1 18.776779 12.384165 29.068115
434 0 1 18.917480 12.134264 30.049194
435 0 1 18.197380 11.796968 30.568695
436 0 1 17.694679 11.306566 29.756500
437 0 1 17.442680 10.846266 30.555908
438 0 1 16.632782 11.035265 31.030396
439 0 1 16.211380 11.167067 31.906189
440 0 1 16.259281 12.030966 32.331787
441 0 1 15.511883 11.517366 32.638794
442 0 1 14.684792 11.231165 32.183289
443 0 1 15.087891 10.505068 32.661102
444 0 1 15.234039 10.746866 33.590210
445 0 1 15.751984 10.185266 34.149811
446 0 1 14.832802 10.160566 34.402191
447 0 1 14.724392 10.895067 35.001099
448 0 1 14.725750 11.800768 35.199005
449 0 1 15.073261 12.536467 34.748413
450 0 1 16.035881 12.647669 34.963806
451 0 1 16.604382 11.890467 35.078094
452 0 1 16.424179 11.336367 35.911591
453 0 1 15.928383 12.116869 35.908112
454 0 1 15.558083 11.773867 36.740295
455 0 1 16.008480 11.522669 37.475494
456 0 1 15.084290 11.269869 37.740295
457 0 1 14.356342 11.080366 37.107697
458 0 1 14.620079 10.352266 36.573914
459 0 1 13.641159 10.243967 36.741211
460 0 1 13.102180 10.741266 37.351685
461 0 1 12.184761 10.867868 37.545502
462 0 1 11.549290 10.242464 37.807709
463 0 1 10.779942 10.859266 37.543701
464 0 1 10.638031 10.651468 36.575104
465 0 1 9.630070 10.607668 36.578186
466 0 1 9.646862 10.944265 35.660004
467 0 1 9.433140 10.750166 34.670593
468 0 1 10.047680 10.100168 34.432892
469 0 1 9.882141 9.241766 34.099396
470 0 1 10.782063 9.539366 33.812988
471 0 1 10.155430 9.426264 33.043488
472 0 1 10.975330 8.950968 32.734589
473 0 1 11.019321 8.614168 31.833405
474 0 1 10.270622 8.518965 31.157990
475 0 1 9.476330 9.076765 31.041504
476 0 1 9.692001 8.614565 30.185913
477 0 1 9.623821 7.920366 29.479706
478 0 1 8.781010 7.997366 29.942688
479 0 1 8.388760 8.763166 29.505005
480 0 1 8.648911 9.243467 28.779785
481 0 1 8.105591 9.779066 28.137085
482 0 1 7.179574 9.983065 28.278198
483 0 1 6.445101 9.371866 28.157410
484 0 1 5.587573 9.422365 28.613403
485 0 1 5.502366 9.616465 27.624298
486 0 1 4.878428 10.332064 27.796692
487 0 1 4.366044 11.149767 27.698792
488 0 1 3.897452 11.955965 27.841614
489 0 1 3.901692 12.937567 27.955902
490 0 1 4.790900 12.782766 27.612000
491 0 1 5.055869 12.593065 26.652313
492 0 1 5.490117 12.009466 25.971313
493 0 1 4.732106 11.523367 25.603912
494 0 1 3.806502 11.685667 25.435608
495 0 1 3.051081 11.118364 25.707703
496 0 1 2.733282 10.241865 25.685608
497 0 1 2.620602 9.897467 26.594391
498 0 1 3.441551 10.340567 26.842285
499 0 1 3.579062 9.899767 27.748993
500 0 1 2.766991 9.622065 28.240387
501 0 1 2.009062 9.794767 28.789185
502 0 1 1.050862 10.085466 28.816284
503 0 1 1.678282 10.787264 29.002594
504 0 1 1.059323 11.519167 29.089600
505 0 1 1.317881 11.650965 30.001404
506 0 1 0.906861 11.310068 30.901398
507 0 1 0.597122 11.914766 31.597900
508 0 1 -0.157228 12.435465 31.709198
509 0 1 -0.142818 12.102968 32.629517
510 0 1 -0.059170 11.639967 33.405701
511 0 1 0.122731 10.744566 33.141113
512 0 1 1.040051 10.898767 33.371399
513 0 1 1.535712 10.863665 32.452515
514 0 1 2.311972 10.635366 32.955811
515 0 1 2.924042 10.169664 32.312408
516 0 1 3.267111 10.267069 31.450500
517 0 1 2.875471 10.405867 30.607086
518 0 1 2.316382 9.621164 30.691284
519 0 1 2.246071 8.737368 30.894897
520 0 1 1.431252 8.466364 31.330688
521 0 1 1.447762 7.630068 30.766388
522 0 1 1.185911 7.456865 29.881500
523 0 1 0.231112 7.401766 29.642914
524 0 1 -0.244749 6.661867 29.325287
525 0 1 -0.462269 5.823366 28.866608
526 0 1 -0.943899 5.104666 28.412994
527 0 1 -0.938038 5.487566 27.501099
528 0 1 -0.954088 6.353365 27.958405
529 0 1 -1.767149 6.324167 27.454803
530 0 1 -1.839439 7.372568 27.459900
531 0 1 -1.227268 8.030767 27.019104
532 0 1 -2.056309 8.576567 26.972412
533 0 1 -2.858707 8.947367 26.638000
534 0 1 -2.757580 8.210165 26.058594
535 0 1 -3.634548 7.764666 26.312012
536 0 1 -3.126848 7.412867 27.071899
537 0 1 -2.787140 6.620867 27.581299
538 0 1 -2.341388 6.160467 28.342712
539 0 1 -1.904398 6.793665 28.920197
540 0 1 -1.666809 5.909868 29.122894
541 0 1 -2.418487 5.636965 29.568512
542 0 1 -2.720888 5.849066 30.404694
543 0 1 -2.335289 6.217367 31.236694
544 0 1 -2.242548 7.233965 31.360901
545 0 1 -2.990648 7.513567 31.828491
546 0 1 -3.402658 7.956568 32.551788
547 0 1 -2.459688 7.819666 32.861084
548 0 1 -1.716928 7.313665 33.200592
549 0 1 -1.863058 7.044867 34.048401
550 0 1 -2.429699 6.585764 34.652710
551 0 1 -2.719629 6.943068 35.504608
552 0 1 -1.951957 7.213366 35.934998
553 0 1 -1.563078 8.035566 36.160797
554 0 1 -0.800928 8.353167 35.630493
555 0 1 -0.300937 8.419367 36.428284
556 0 1 0.338982 9.088167 36.543701
557 0 1 -0.073839 9.221964 35.651398
558 0 1 0.616232 8.583265 35.411102
559 0 1 0.783013 7.646765 35.627594
560 0 1 1.661312 7.709867 35.389008
561 0 1 2.505282 7.278864 35.301514
562 0 1 2.177302 6.669867 34.633209
563 0 1 1.530121 6.003965 34.490295
564 0 1 2.178782 5.425264 34.071594
565 0 1 1.929762 6.079367 33.415588
566 0 1 2.794731 5.989866 32.929596
567 0 1 2.860731 6.394865 32.126892
568 0 1 3.072052 6.491564 31.179901
569 0 1 3.147831 5.564466 31.603394
570 0 1 2.865742 4.764368 32.080200
571 0 1 3.223862 3.895868 32.389496
572 0 1 3.681881 4.601465 32.934692
573 0 1 2.992371 4.111166 33.385590
574 0 1 3.397671 4.523367 34.175995
575 0 1 4.288071 4.138556 34.236206
576 0 1 4.643872 3.202608 34.422485
577 0 1 5.063624 2.601896 33.891388
578 0 1 5.903489 2.213884 33.687408
579 0 1 6.631712 1.743155 34.233215
580 0 1 7.441853 1.664644 33.759216
581 0 1 7.910561 1.054918 33.137909
582 0 1 6.956360 1.020006 33.133789
583 0 1 6.388972 1.456537 32.566498
584 0 1 5.522944 1.465044 33.007690
585 0 1 5.551157 0.844614 33.742401
586 0 1 4.768601 0.713545 33.342010
587 0 1 4.164773 1.128836 32.723602
588 0 1 3.654482 0.514406 32.224915
589 0 1 3.733511 -0.115354 31.496490
590 0 1 3.107031 -0.814913 31.275696
591 0 1 3.957911 -1.202505 31.491302
592 0 1 4.754916 -1.641722 31.987213
593 0 1 4.046202 -2.338923 32.173309
594 0 1 4.420947 -3.212572 32.172699
595 0 1 3.671671 -3.523634 32.746307
596 0 1 3.109402 -3.987635 33.324890
597 0 1 2.209772 -3.567095 33.178589
598 0 1 2.212731 -3.057722 33.965912
599 0 1 2.947851 -3.524923 34.470093
600 0 1 3.152472 -3.376513 35.413696
601 0 1 2.720642 -4.148245 35.947296
602 0 1 2.081661 -4.840734 36.078491
603 0 1 2.463202 -5.600374 35.697113
604 0 1 2.639122 -5.720224 34.742310
605 0 1 2.487061 -6.483648 34.185699
606 0 1 3.335041 -7.117134 34.320312
607 0 1 2.954462 -7.119583 35.256897
608 0 1 2.805752 -7.975674 34.878784
609 0 1 3.111521 -8.852783 34.780090
610 0 1 2.259512 -8.784433 34.481110
611 0 1 1.368061 -8.411533 34.424194
612 0 1 1.160391 -7.617363 35.046600
613 0 1 0.535792 -6.896063 35.040283
614 0 1 0.671711 -6.236187 35.730011
615 0 1 0.475910 -5.536240 36.370300
616 0 1 -0.060978 -6.005039 37.021790
617 0 1 -0.897478 -5.838125 37.462311
618 0 1 -1.823349 -5.771818 37.717896
619 0 1 -1.809219 -5.025991 38.325195
620 0 1 -1.263569 -4.603813 39.058594
621 0 1 -1.916488 -4.278414 39.790283
622 0 1 -2.575609 -3.645014 39.367096
623 0 1 -3.038778 -3.067854 39.941010
624 0 1 -3.885948 -3.105043 39.573395
625 0 1 -4.075969 -2.251284 39.919800
626 0 1 -4.968818 -1.937895 40.267517
627 0 1 -5.791019 -2.124533 40.742798
628 0 1 -5.261417 -2.477404 41.479492
629 0 1 -5.185817 -2.401854 42.469696
630 0 1 -4.297138 -2.052412 42.688293
631 0 1 -3.914787 -1.371504 43.338196
632 0 1 -3.901378 -0.988733 42.489807
633 0 1 -3.733429 -0.399942 41.682190
634 0 1 -3.350698 -0.728502 40.824310
635 0 1 -2.837257 -0.945974 39.975708
636 0 1 -2.272968 -1.510653 39.408691
637 0 1 -1.979919 -1.780214 38.497009
638 0 1 -2.877598 -1.981054 38.293884
639 0 1 -2.879278 -2.625574 37.507294
640 0 1 -1.932539 -2.511293 37.713806
641 0 1 -1.058988 -2.384134 37.354095
642 0 1 -0.310158 -2.131205 36.808105
643 0 1 0.414072 -1.891024 37.418396
644 0 1 0.914011 -1.792063 36.580109
645 0 1 0.935541 -2.765924 36.656891
646 0 1 1.675011 -3.295794 36.521606
647 0 1 1.092942 -3.429285 35.750183
648 0 1 0.925682 -2.418524 35.549896
649 0 1 0.683182 -2.563883 34.647217
650 0 1 -0.005859 -3.126802 35.040710
651 0 1 0.220921 -4.079695 35.181213
652 0 1 -0.658199 -4.444103 35.032990
653 0 1 -1.365238 -4.175604 34.392090
654 0 1 -2.051748 -3.925074 33.674896
655 0 1 -1.970838 -2.982115 33.730988
656 0 1 -1.221079 -3.521692 33.305695
657 0 1 -1.815788 -3.590403 32.438293
658 0 1 -1.361639 -4.364973 32.090302
659 0 1 -0.521219 -4.443893 31.598297
660 0 1 -1.156559 -4.854017 30.963684
661 0 1 -1.205988 -3.959402 30.613892
662 0 1 -0.222519 -4.024504 30.489014
663 0 1 -0.585369 -4.441484 29.709106
664 0 1 -0.253608 -4.631403 28.827515
665 0 1 -0.236978 -5.103565 27.964996
666 0 1 -1.132078 -4.756662 27.880493
667 0 1 -2.007358 -4.725594 28.212708
668 0 1 -1.615448 -5.609303 28.291687
669 0 1 -2.351999 -6.224623 28.520813
670 0 1 -2.588339 -7.116264 28.978607
671 0 1 -2.966949 -7.926643 29.296387
672 0 1 -3.634128 -7.767645 29.951202
673 0 1 -3.119108 -7.638824 30.715698
674 0 1 -3.427418 -6.719706 30.876495
675 0 1 -3.728288 -5.991711 31.434601
676 0 1 -3.264950 -6.692093 31.951691
677 0 1 -2.803848 -7.535814 31.823212
678 0 1 -1.951189 -7.818274 32.203308
679 0 1 -1.508438 -7.201544 31.566101
680 0 1 -0.843639 -6.561562 31.527893
681 0 1 -1.739048 -6.082159 31.362396
682 0 1 -1.363828 -6.540005 30.636993
683 0 1 -0.954818 -7.229513 30.009613
684 0 1 -1.525928 -7.981434 29.656311
685 0 1 -1.416198 -8.459484 28.797485
686 0 1 -0.486818 -8.455694 28.324585
687 0 1 0.242913 -9.073074 28.422211
688 0 1 1.147291 -8.877594 28.375793
689 0 1 1.269161 -9.649893 27.772797
690 0 1 1.036572 -9.933115 28.722595
691 0 1 1.045761 -9.849354 29.655487
692 0 1 0.478871 -9.087164 29.470612
693 0 1 0.382212 -8.118814 29.581909
694 0 1 0.876652 -8.068024 30.415314
695 0 1 1.731041 -7.776644 30.852509
696 0 1 1.935181 -7.723764 31.795807
697 0 1 2.826761 -7.500114 31.653809
698 0 1 3.543522 -7.124134 31.172791
699 0 1 3.858002 -7.739923 30.505188
700 0 1 3.287981 -7.118383 30.024292
701 0 1 2.995861 -6.192041 29.872101
702 0 1 3.469921 -5.514259 29.321808
703 0 1 2.757431 -5.049931 28.858398
704 0 1 1.840292 -4.822971 29.149597
705 0 1 0.949982 -4.529984 29.580109
706 0 1 1.178261 -3.743654 29.095795
707 0 1 0.397631 -3.243902 28.749512
708 0 1 0.710852 -2.853872 27.873291
709 0 1 0.968281 -3.364862 27.157104
710 0 1 1.045351 -2.913225 26.289307
711 0 1 2.008402 -2.861055 26.064392
712 0 1 2.721281 -2.886755 26.636902
713 0 1 3.312912 -2.319384 27.291504
714 0 1 3.433592 -3.030954 27.952301
715 0 1 3.986832 -3.816713 28.020813
716 0 1 4.623131 -3.429564 27.415009
717 0 1 5.068408 -3.447966 28.289612
718 0 1 4.682179 -3.920202 29.137207
719 0 1 4.667323 -3.041662 29.483398
720 0 1 4.576663 -2.480085 28.736908
721 0 1 4.424710 -1.569853 28.511688
722 0 1 4.907832 -1.517485 27.614014
723 0 1 4.948025 -0.557604 27.912109
724 0 1 4.854348 0.252237 27.440613
725 0 1 3.948832 0.045244 27.168396
726 0 1 3.308611 0.157656 27.894287
727 0 1 2.755442 0.015257 27.091309
728 0 1 2.246731 -0.139173 27.913696
729 0 1 1.439881 -0.033915 27.437408
730 0 1 1.098471 0.434984 26.716614
731 0 1 0.194542 0.668627 26.669189
732 0 1 -0.512859 1.192396 26.362915
733 0 1 -0.211029 2.058725 26.100189
734 0 1 -1.155018 1.885057 25.806702
735 0 1 -2.099329 1.923716 25.501007
736 0 1 -2.233867 2.927145 25.488190
737 0 1 -1.573328 3.560137 25.738495
738 0 1 -2.210529 3.997236 25.210297
739 0 1 -1.940719 4.403765 24.342987
740 0 1 -2.926140 4.406366 24.250000
741 0 1 -3.379940 3.532366 24.161713
742 0 1 -4.055839 3.760477 24.756592
743 0 1 -3.861618 2.804758 24.663788
744 0 1 -3.356067 2.077826 24.221497
745 0 1 -3.243309 2.734797 23.568207
746 0 1 -2.843788 3.181086 22.807312
747 0 1 -3.453699 3.927385 22.664612
748 0 1 -3.823128 3.391325 21.985703
749 0 1 -3.130749 3.374517 21.298203
750 0 1 -2.617489 3.506647 20.491699
751 0 1 -3.007377 3.589247 19.663498
752 0 1 -2.369558 3.239626 18.991394
753 0 1 -2.855308 4.044077 18.770508
754 0 1 -2.715269 4.759066 19.364807
755 0 1 -2.396719 5.520567 18.847702
756 0 1 -1.500259 5.825567 18.513397
757 0 1 -1.152588 6.633066 18.185898
758 0 1 -0.762489 7.313868 17.561401
759 0 1 -0.393718 7.431265 16.712799
760 0 1 -0.462839 6.758066 16.007599
761 0 1 -0.876188 7.319967 15.368302
762 0 1 0.126261 7.420965 15.229798
763 0 1 1.027451 7.138567 15.155793
764 0 1 1.844702 7.281965 15.668397
765 0 1 1.956932 8.195765 15.397401
766 0 1 1.348141 8.173265 14.616395
767 0 1 1.517052 8.006266 13.706605
768 0 1 1.700842 7.240267 13.129594
769 0 1 0.800932 7.144365 12.875199
770 0 1 0.621832 6.696764 12.050004
771 0 1 0.893261 5.840666 11.679200
772 0 1 0.004252 6.040865 11.452500
773 0 1 -0.398428 6.306368 10.652207
774 0 1 -1.324367 6.121065 10.838807
775 0 1 -1.197889 7.030767 10.546098
776 0 1 -1.984218 7.308268 10.009706
777 0 1 -2.821319 7.448965 9.548493
778 0 1 -3.753479 7.599665 9.393571
779 0 1 -3.602077 6.874468 10.103196
780 0 1 -2.856888 6.228067 10.237397
781 0 1 -3.410869 5.611567 9.801484
782 0 1 -2.747719 6.043467 9.175675
783 0 1 -2.540239 5.473764 8.442521
784 0 1 -1.842369 6.098166 8.407563
785 0 1 -2.113209 6.328665 7.435822
786 0 1 -3.104038 6.284067 7.415925
787 0 1 -3.451339 7.147367 7.570832
788 0 1 -2.796169 7.826967 7.485948
789 0 1 -2.297048 7.776567 6.689363
790 0 1 -1.520818 7.592867 6.141145
791 0 1 -1.889158 7.548967 5.255677
792 0 1 -2.056278 7.553965 4.302506
793 0 1 -2.593258 8.387266 4.473115
794 0 1 -2.535269 9.046267 3.699555
795 0 1 -3.216999 8.822367 3.022156