LAMMPS data file via MDAnalysis

        2000  atoms
        1999  bonds
           0  angles
           0  dihedrals
           0  impropers

           1  atom types
           1  bond types
           0  angle types
           0  dihedral types
           0  improper types

-30.5 30.5 xlo xhi
-30.5 30.5 ylo yhi
-233.5 233.5 zlo zhi


Masses

1 1.000000

Atoms

1 0 1 -24.272081 -4.198753 56.390106
2 0 1 -23.359081 -4.359833 56.105804
3 0 1 -22.461281 -4.396313 56.559601
4 0 1 -21.661482 -4.866302 56.209900
5 0 1 -21.087381 -5.179058 55.500488
6 0 1 -20.516581 -4.509792 55.048187
7 0 1 -19.775881 -4.253654 54.479797
8 0 1 -19.150482 -3.815674 53.885498
9 0 1 -18.923582 -2.941994 54.280487
10 0 1 -18.586781 -2.250542 53.683197
11 0 1 -17.796581 -2.171444 54.194092
12 0 1 -17.693882 -1.471714 53.502594
13 0 1 -16.749481 -1.189754 53.517883
14 0 1 -16.298382 -0.983593 52.598694
15 0 1 -15.613981 -0.349625 52.943115
16 0 1 -15.685181 -0.284184 53.852509
17 0 1 -15.149481 -0.902554 54.404694
18 0 1 -14.924481 -1.207405 53.466309
19 0 1 -15.538280 -1.963364 53.379303
20 0 1 -15.834982 -2.527405 54.155304
21 0 1 -15.126680 -2.740093 54.717712
22 0 1 -15.162882 -3.033703 55.691010
23 0 1 -14.262281 -3.337814 55.533813
24 0 1 -14.349381 -4.080902 55.024597
25 0 1 -13.671381 -4.704123 55.252014
26 0 1 -14.475581 -4.832794 55.809692
27 0 1 -14.104081 -5.153524 56.602997
28 0 1 -13.312382 -5.663870 56.826813
29 0 1 -13.440681 -4.965343 57.545105
30 0 1 -12.668381 -5.418465 57.963409
31 0 1 -12.681480 -6.307867 57.716095
32 0 1 -11.768280 -6.536396 57.484802
33 0 1 -12.280380 -7.250303 57.079590
34 0 1 -12.334282 -7.877342 56.311188
35 0 1 -11.947481 -7.534042 55.444092
36 0 1 -11.233280 -7.422523 54.727997
37 0 1 -10.280182 -7.378323 54.686584
38 0 1 -10.566780 -7.455072 55.646698
39 0 1 -10.172382 -7.017094 56.386902
40 0 1 -9.531082 -7.240583 57.094513
41 0 1 -9.073721 -6.402260 56.664795
42 0 1 -8.659441 -5.781157 57.205902
43 0 1 -8.634771 -4.862164 56.901306
44 0 1 -8.837532 -4.410751 56.059998
45 0 1 -8.296432 -4.409294 55.270905
46 0 1 -8.521862 -3.696434 54.704590
47 0 1 -8.220802 -2.981293 54.161896
48 0 1 -7.914912 -2.089462 54.054016
49 0 1 -8.866121 -2.222992 53.974609
50 0 1 -9.801981 -2.190231 53.812988
51 0 1 -9.861481 -2.295803 52.865906
52 0 1 -9.810280 -3.182861 52.423584
53 0 1 -10.208080 -3.879093 51.851990
54 0 1 -10.512281 -4.619843 51.340302
55 0 1 -9.639282 -4.531673 51.055908
56 0 1 -8.763382 -4.484123 50.634094
57 0 1 -8.172180 -4.619434 49.911102
58 0 1 -7.584671 -4.196133 49.160706
59 0 1 -7.477070 -3.809883 48.192200
60 0 1 -7.687062 -3.591202 47.209991
61 0 1 -8.253841 -2.897972 46.804108
62 0 1 -8.167480 -2.118725 47.376709
63 0 1 -7.475922 -1.464054 47.497192
64 0 1 -6.957642 -1.300362 46.686890
65 0 1 -8.026861 -1.393154 46.542694
66 0 1 -8.625450 -0.642353 46.726288
67 0 1 -8.739441 0.340298 46.596588
68 0 1 -8.091171 0.703976 45.985596
69 0 1 -8.296301 1.603355 45.699005
70 0 1 -8.164650 2.383286 45.166412
71 0 1 -7.418581 2.972507 45.182800
72 0 1 -8.159561 3.458138 45.560486
73 0 1 -7.770012 4.284187 45.176514
74 0 1 -8.039051 4.206589 46.185303
75 0 1 -7.747693 3.359318 46.760895
76 0 1 -7.644501 3.669975 47.682190
77 0 1 -6.949761 4.237785 47.802704
78 0 1 -6.985892 4.423187 48.764893
79 0 1 -6.091641 4.242386 48.667786
80 0 1 -5.329991 4.641888 48.985291
81 0 1 -5.450491 3.749187 49.342804
82 0 1 -6.363661 3.944386 49.525391
83 0 1 -6.188221 4.243385 50.491791
84 0 1 -6.652941 4.520287 51.343201
85 0 1 -7.552613 4.621689 51.011292
86 0 1 -7.420262 3.700539 50.981384
87 0 1 -7.956381 3.781097 50.205811
88 0 1 -8.846802 4.159485 50.154297
89 0 1 -8.502651 5.162987 50.233307
90 0 1 -7.944581 5.898586 50.617615
91 0 1 -7.760411 5.932388 49.621887
92 0 1 -7.236443 6.711487 49.671692
93 0 1 -7.044201 7.471687 49.138000
94 0 1 -7.513531 7.859085 48.432800
95 0 1 -6.688443 8.405586 48.670593
96 0 1 -6.864151 9.276588 49.239014
97 0 1 -6.421471 9.465485 48.438812
98 0 1 -5.521752 9.162388 48.635010
99 0 1 -4.554701 9.323986 48.486908
100 0 1 -4.767561 10.246185 48.383087
101 0 1 -4.261902 11.005585 48.475891
102 0 1 -4.218031 10.776184 49.380310
103 0 1 -4.212811 11.083187 50.332886
104 0 1 -5.086743 11.195087 50.655396
105 0 1 -5.356652 11.907684 50.043304
106 0 1 -5.146203 12.864784 49.782501
107 0 1 -4.377751 13.322189 49.471985
108 0 1 -4.018782 13.290287 48.567200
109 0 1 -3.889181 13.766987 47.717285
110 0 1 -4.022341 14.574684 48.271606
111 0 1 -3.080181 14.560188 48.135010
112 0 1 -2.974922 14.494888 47.151794
113 0 1 -2.701182 15.149284 46.490601
114 0 1 -2.541891 15.766685 47.239288
115 0 1 -1.874361 16.426285 47.301392
116 0 1 -2.178171 16.069187 48.179413
117 0 1 -1.306742 16.240288 48.540100
118 0 1 -0.467741 16.506485 48.774414
119 0 1 0.092945 16.874886 49.539185
120 0 1 0.173885 16.499786 50.497406
121 0 1 1.048641 16.383987 49.949402
122 0 1 1.437271 16.199989 50.859100
123 0 1 2.159229 15.694885 51.280396
124 0 1 1.746582 14.825584 51.315094
125 0 1 0.823431 14.625084 51.275299
126 0 1 -0.149912 14.613884 51.143402
127 0 1 -0.888832 13.996586 51.140991
128 0 1 -1.861462 14.119385 51.028412
129 0 1 -1.767861 13.283386 51.574005
130 0 1 -1.655541 13.392189 52.559296
131 0 1 -0.954781 13.017189 53.092285
132 0 1 -0.710772 12.088886 53.195892
133 0 1 -0.467291 11.189087 53.209503
134 0 1 -1.249632 11.164085 53.774994
135 0 1 -1.697281 11.735786 54.350708
136 0 1 -2.189732 12.406086 53.921112
137 0 1 -2.498501 12.155888 54.863495
138 0 1 -2.846682 11.342487 54.491608
139 0 1 -2.861111 10.424088 54.364807
140 0 1 -2.622832 10.575485 55.292511
141 0 1 -1.829382 10.735188 54.806488
142 0 1 -1.283001 10.963089 55.507202
143 0 1 -0.651411 10.553387 56.144989
144 0 1 -0.162991 10.677086 55.345306
145 0 1 0.639116 10.134487 55.184998
146 0 1 1.325006 9.390987 55.239685
147 0 1 1.848476 8.719387 54.669617
148 0 1 2.425358 9.320286 54.155884
149 0 1 2.979999 8.586185 54.082092
150 0 1 3.194320 7.675186 54.009613
151 0 1 3.139679 7.663086 53.039001
152 0 1 3.445648 6.703285 53.154510
153 0 1 3.719146 6.535587 52.253204
154 0 1 3.163887 6.384186 51.462494
155 0 1 3.492580 7.205486 51.060211
156 0 1 3.749840 6.621586 50.316406
157 0 1 3.538940 6.904587 49.417511
158 0 1 3.022068 7.663887 49.072693
159 0 1 2.803680 7.844788 48.157898
160 0 1 2.408920 8.206886 47.356995
161 0 1 1.504966 7.965385 47.381897
162 0 1 1.318655 8.859486 47.732788
163 0 1 1.690096 9.108387 46.849396
164 0 1 2.000087 9.967690 46.666901
165 0 1 2.012838 10.599987 46.007599
166 0 1 1.763536 10.382385 45.017883
167 0 1 2.660709 9.889088 44.878693
168 0 1 2.818130 10.435188 44.078796
169 0 1 3.306408 11.059685 44.593994
170 0 1 3.969738 10.373287 44.485596
171 0 1 4.547039 10.016487 45.153687
172 0 1 4.893207 9.177185 44.966309
173 0 1 5.620697 9.483788 44.464508
174 0 1 5.822670 9.241989 43.564789
175 0 1 5.241409 8.706787 42.880493
176 0 1 4.824687 8.044186 42.350403
177 0 1 5.186779 7.195885 42.495697
178 0 1 6.148479 7.070187 42.428589
179 0 1 6.351657 6.397987 43.125488
180 0 1 7.120140 6.223186 42.629395
181 0 1 6.977859 5.357887 42.299500
182 0 1 6.979419 5.034286 43.210815
183 0 1 7.657699 4.391685 43.286896
184 0 1 8.473267 4.767189 42.998810
185 0 1 8.895210 4.437786 42.229492
186 0 1 9.798428 4.082085 42.214600
187 0 1 10.565720 4.499886 41.757812
188 0 1 11.033318 4.626785 42.524811
189 0 1 11.044518 4.707886 43.509216
190 0 1 10.724876 4.841686 44.435394
191 0 1 10.647087 3.940285 44.684814
192 0 1 10.432129 3.616188 45.582611
193 0 1 11.127918 4.294987 45.759613
194 0 1 12.066521 4.135185 46.008392
195 0 1 12.482620 3.336266 46.149109
196 0 1 11.537621 3.207275 46.293884
197 0 1 10.781109 3.236908 46.807404
198 0 1 10.912418 2.956676 47.677399
199 0 1 10.323219 3.588306 48.193298
200 0 1 9.994339 4.187088 48.923706
201 0 1 10.374557 4.521988 49.759613
202 0 1 10.114048 3.783447 50.425812
203 0 1 9.685059 3.970387 51.300995
204 0 1 8.975048 3.687798 50.756500
205 0 1 8.225449 3.094559 51.067017
206 0 1 8.340359 3.094765 52.036316
207 0 1 7.732738 3.788876 51.652191
208 0 1 6.961170 3.139416 51.498291
209 0 1 6.280647 2.813446 50.870605
210 0 1 5.599597 3.195377 50.224091
211 0 1 5.203010 3.492176 49.452606
212 0 1 5.218627 2.607109 49.095001
213 0 1 4.300388 2.834747 48.951691
214 0 1 4.371387 2.114887 48.327789
215 0 1 5.080638 2.535194 47.762512
216 0 1 4.996788 2.891247 46.874695
217 0 1 4.142719 3.253098 46.700195
218 0 1 3.944340 4.122589 46.358795
219 0 1 4.159198 4.789787 47.073608
220 0 1 3.992630 3.961887 47.558807
221 0 1 3.218200 4.459187 47.853607
222 0 1 3.168060 5.057289 48.658600
223 0 1 2.360348 5.159386 49.154114
224 0 1 2.308859 4.657688 50.006714
225 0 1 3.177719 4.281586 49.816101
226 0 1 2.874058 3.295948 49.511597
227 0 1 2.661209 2.682926 48.854492
228 0 1 2.468460 2.583885 47.850708
229 0 1 1.727251 1.979027 47.723511
230 0 1 1.717212 1.630047 46.845398
231 0 1 2.264759 2.221256 46.212311
232 0 1 2.649040 3.137028 46.398407
233 0 1 2.263979 3.139389 45.449188
234 0 1 2.404308 2.821098 44.560211
235 0 1 1.555622 2.198387 44.425690
236 0 1 1.567182 2.149097 43.391693
237 0 1 1.205633 2.282627 42.501801
238 0 1 1.616806 2.627037 41.666412
239 0 1 1.796308 3.491539 41.887787
240 0 1 1.295055 3.826599 42.662903
241 0 1 2.162618 4.269886 42.587311
242 0 1 1.588478 5.065689 42.523712
243 0 1 0.840816 4.703186 42.118896
244 0 1 0.105058 5.264988 42.433990
245 0 1 -0.274052 5.949886 41.933899
246 0 1 -0.959153 5.368286 42.206299
247 0 1 -1.940792 5.249886 42.138611
248 0 1 -1.454121 5.200089 41.307587
249 0 1 -2.131031 4.807087 40.700684
250 0 1 -3.018841 4.462288 40.878693
251 0 1 -3.551111 4.866486 40.219391
252 0 1 -4.028502 4.990189 41.082611
253 0 1 -4.363041 5.896088 40.864899
254 0 1 -4.701682 6.339687 40.096985
255 0 1 -5.544901 6.520187 39.573792
256 0 1 -5.062651 6.637188 38.659790
257 0 1 -4.566111 5.916985 38.165009
258 0 1 -5.257021 5.296585 38.466797
259 0 1 -5.378752 4.473988 37.950989
260 0 1 -6.016053 5.108986 37.501587
261 0 1 -6.207982 4.304188 37.009888
262 0 1 -6.188162 3.783035 36.160706
263 0 1 -6.671711 2.890797 35.949310
264 0 1 -6.724053 1.862556 36.068695
265 0 1 -5.978013 1.225159 36.220703
266 0 1 -5.648922 0.366787 36.550690
267 0 1 -4.839242 0.290009 37.111908
268 0 1 -5.045752 -0.174751 37.915192
269 0 1 -5.044671 -1.104214 38.182709
270 0 1 -5.556443 -1.294823 38.992096
271 0 1 -5.399382 -1.988625 39.627014
272 0 1 -4.438542 -2.046444 39.341705
273 0 1 -3.705631 -2.707253 39.554199
274 0 1 -3.317242 -3.074673 40.348999
275 0 1 -2.935662 -2.236805 40.209900
276 0 1 -3.414440 -2.161823 40.979309
277 0 1 -2.778002 -1.508503 41.411194
278 0 1 -3.110161 -2.146873 42.039917
279 0 1 -2.454792 -2.595642 42.597992
280 0 1 -2.418532 -2.150543 43.399109
281 0 1 -2.575093 -1.332474 42.861908
282 0 1 -2.649952 -0.322712 42.665100
283 0 1 -3.657082 -0.280064 42.519409
284 0 1 -3.747912 -0.719574 41.682800
285 0 1 -4.660252 -0.405384 41.637604
286 0 1 -5.158593 0.317905 42.165192
287 0 1 -5.443131 1.276009 42.135010
288 0 1 -4.827252 1.251846 41.397400
289 0 1 -4.091242 0.600227 41.377899
290 0 1 -4.040303 -0.041462 40.657410
291 0 1 -4.258473 0.714478 40.136505
292 0 1 -4.775311 0.738388 39.247498
293 0 1 -4.338883 1.315266 38.628510
294 0 1 -3.647251 1.768856 38.117310
295 0 1 -2.806172 1.432297 38.293488
296 0 1 -2.931031 1.246967 37.333008
297 0 1 -2.377011 0.837769 36.666412
298 0 1 -1.724692 0.445957 37.312195
299 0 1 -1.560642 -0.272293 38.048889
300 0 1 -0.922962 -0.957504 37.634003
301 0 1 -0.226902 -0.388943 37.995697
302 0 1 0.742422 -0.300983 37.862305
303 0 1 0.942968 0.129108 37.023499
304 0 1 1.191803 -0.771614 36.846802
305 0 1 1.200369 -1.210503 35.984406
306 0 1 1.853687 -1.298054 35.223206
307 0 1 1.045410 -1.803303 35.120087
308 0 1 0.601038 -1.371674 34.398804
309 0 1 0.412084 -1.611645 33.497711
310 0 1 -0.168831 -2.280735 33.899292
311 0 1 -0.480952 -3.123524 34.302307
312 0 1 -0.434981 -3.778355 35.033203
313 0 1 -0.829832 -4.614914 35.143616
314 0 1 -0.729203 -5.511044 35.448700
315 0 1 -0.261942 -5.004404 36.213501
316 0 1 -0.523211 -4.733223 37.200287
317 0 1 -1.373722 -4.460823 36.733398
318 0 1 -1.425162 -5.379934 36.360992
319 0 1 -2.101681 -5.879322 35.875488
320 0 1 -2.730772 -6.092113 36.584900
321 0 1 -3.031771 -6.977646 36.796387
322 0 1 -3.036711 -7.940233 36.888702
323 0 1 -2.984062 -8.862154 37.133087
324 0 1 -2.599022 -8.368563 37.837402
325 0 1 -2.647072 -9.136852 38.416901
326 0 1 -2.614271 -9.911514 39.019196
327 0 1 -3.042761 -9.708134 39.909485
328 0 1 -2.468201 -9.167204 40.433807
329 0 1 -1.906502 -9.957283 40.586792
330 0 1 -1.301932 -9.683094 41.303284
331 0 1 -1.356652 -8.833143 41.687988
332 0 1 -1.996361 -9.380804 42.077301
333 0 1 -1.223631 -9.865543 42.465088
334 0 1 -1.136051 -9.800974 43.438995
335 0 1 -2.010641 -10.060053 43.778900
336 0 1 -1.958901 -9.104683 43.918610
337 0 1 -1.407322 -8.430042 44.333588
338 0 1 -1.715271 -7.541843 44.080017
339 0 1 -1.707512 -6.641115 43.996216
340 0 1 -2.658673 -6.826668 44.020813
341 0 1 -3.016670 -6.407652 43.161011
342 0 1 -3.479031 -7.045895 42.455292
343 0 1 -3.981621 -6.805273 41.656403
344 0 1 -3.533001 -5.925867 41.633606
345 0 1 -2.819901 -5.225521 41.926910
346 0 1 -2.804001 -4.333553 42.352997
347 0 1 -3.458721 -4.410831 43.093384
348 0 1 -3.170151 -3.516453 43.552307
349 0 1 -2.386091 -3.763222 43.938293
350 0 1 -1.707632 -3.243862 43.487396
351 0 1 -0.800631 -3.372265 43.218994
352 0 1 -0.848181 -3.979412 43.990906
353 0 1 -0.062279 -3.440445 44.203613
354 0 1 0.853079 -3.146492 44.435394
355 0 1 1.120399 -2.428932 43.874908
356 0 1 1.123304 -2.188282 42.952911
357 0 1 1.039724 -2.585232 42.090302
358 0 1 0.628229 -2.051144 41.408295
359 0 1 0.527404 -2.954655 41.117798
360 0 1 0.377840 -3.872414 41.248505
361 0 1 0.954521 -4.677362 41.283813
362 0 1 1.677549 -4.125664 41.037109
363 0 1 2.051388 -4.988764 40.670990
364 0 1 2.473488 -5.322985 39.772797
365 0 1 2.490818 -4.364075 39.973999
366 0 1 3.414867 -3.858753 40.232391
367 0 1 4.145759 -3.266933 40.368103
368 0 1 4.437747 -3.560822 39.468811
369 0 1 4.674388 -2.677193 39.771484
370 0 1 5.336147 -1.863144 39.841492
371 0 1 5.450248 -0.952442 39.712708
372 0 1 4.623928 -0.407055 39.431488
373 0 1 4.534370 -0.307282 38.429016
374 0 1 4.872818 -1.186073 38.647797
375 0 1 5.605018 -0.550762 38.585907
376 0 1 5.728797 -1.155724 37.826111
377 0 1 5.410808 -0.405682 37.290283
378 0 1 5.166370 -0.899502 36.531189
379 0 1 5.332668 -1.742584 36.121704
380 0 1 6.247547 -2.138134 36.084290
381 0 1 6.524726 -2.105015 35.233704
382 0 1 7.270198 -2.660892 35.112213
383 0 1 7.992908 -2.039742 35.039001
384 0 1 7.588428 -1.235764 35.293091
385 0 1 7.690158 -0.222885 35.223206
386 0 1 8.200211 -0.472103 34.411591
387 0 1 8.404018 0.490307 34.669617
388 0 1 7.612060 1.005089 34.411316
389 0 1 7.470977 1.935097 34.393402
390 0 1 7.479888 2.057266 33.424805
391 0 1 6.854408 2.601715 33.891693
392 0 1 6.660728 3.481178 34.411987
393 0 1 7.104160 2.786518 34.938202
394 0 1 7.338367 3.564384 35.565704
395 0 1 8.023998 2.833057 35.631287
396 0 1 8.989349 2.554798 35.636414
397 0 1 9.318890 2.784847 34.666290
398 0 1 10.071938 2.317535 34.995087
399 0 1 10.579849 1.774506 34.335999
400 0 1 11.220619 2.498955 34.561188
401 0 1 12.016617 2.896225 34.189392
402 0 1 12.290916 2.824638 35.123108
403 0 1 12.022118 3.743206 35.048706
404 0 1 12.042618 4.239086 34.140015
405 0 1 11.983818 4.628788 33.315491
406 0 1 12.062920 5.032887 32.466888
407 0 1 12.998219 5.175987 32.240387
408 0 1 13.398518 4.638187 31.597900
409 0 1 13.303619 3.875988 32.201691
410 0 1 14.058720 4.388588 32.707489
411 0 1 14.907417 4.907887 32.428711
412 0 1 15.269920 4.066288 32.465607
413 0 1 14.799419 3.643158 33.233490
414 0 1 14.891617 3.701889 34.207886
415 0 1 15.779221 3.845665 33.844513
416 0 1 16.075020 3.007076 33.622986
417 0 1 16.895920 2.510357 33.700287
418 0 1 16.624420 1.606377 33.748810
419 0 1 17.136818 1.561687 32.934906
420 0 1 17.195919 2.417007 32.551788
421 0 1 16.226719 2.469677 32.437195
422 0 1 16.539120 3.354546 32.143890
423 0 1 16.440117 3.772377 31.281708
424 0 1 16.823318 4.274788 30.509308
425 0 1 17.432716 4.897186 30.269409
426 0 1 17.069321 4.323086 29.550110
427 0 1 16.944321 3.632908 28.815186
428 0 1 17.252918 2.737915 28.678101
429 0 1 17.057819 1.873806 29.079193
430 0 1 16.792519 0.917618 29.084290
431 0 1 16.920921 0.544037 28.198090
432 0 1 16.079418 0.153828 28.581207
433 0 1 16.401917 -0.716942 28.922913
434 0 1 16.100517 -1.167194 28.109314
435 0 1 15.850121 -1.702953 28.894196
436 0 1 16.130817 -1.970375 29.736603
437 0 1 16.388020 -2.904922 29.842712
438 0 1 15.745216 -3.603111 29.719116
439 0 1 15.841217 -4.427734 30.226105
440 0 1 15.464020 -4.527431 29.366211
441 0 1 14.559021 -4.753273 29.346985
442 0 1 14.358219 -5.556858 29.939789
443 0 1 13.514217 -5.876884 29.834900
444 0 1 13.278118 -6.286901 28.956604
445 0 1 12.927917 -7.185654 29.092407
446 0 1 12.893921 -6.917166 28.076813
447 0 1 12.490719 -5.988401 28.116699
448 0 1 11.661018 -6.382885 27.748413
449 0 1 11.410118 -5.420038 27.876404
450 0 1 11.449818 -4.419334 27.923187
451 0 1 11.188217 -3.924675 27.032501
452 0 1 11.247219 -3.014374 27.352203
453 0 1 10.576691 -2.355194 27.187592
454 0 1 10.064919 -2.053303 26.457886
455 0 1 9.220009 -1.606941 26.469604
456 0 1 8.717659 -2.265953 25.979187
457 0 1 7.848690 -2.641384 25.813599
458 0 1 7.539188 -1.956944 26.488312
459 0 1 7.776847 -2.347073 27.354492
460 0 1 7.856788 -2.086922 28.308899
461 0 1 7.877929 -2.543804 29.149994
462 0 1 7.011909 -2.268951 28.941010
463 0 1 6.484359 -1.562443 29.005798
464 0 1 6.009140 -2.298775 28.707489
465 0 1 5.077587 -2.179424 28.421204
466 0 1 5.160160 -1.588634 29.172699
467 0 1 4.409870 -1.018402 28.670502
468 0 1 3.710228 -1.385303 29.231995
469 0 1 3.262508 -1.953682 28.587097
470 0 1 2.913418 -1.749962 27.742889
471 0 1 1.947908 -1.958473 27.446899
472 0 1 1.901708 -1.264664 28.109711
473 0 1 2.429619 -0.548542 27.763000
474 0 1 2.566627 -0.872543 26.883789
475 0 1 2.438839 -0.863564 25.962097
476 0 1 1.882686 -0.066483 25.837891
477 0 1 1.430441 0.757267 26.096405
478 0 1 0.986038 1.629929 26.114288
479 0 1 0.335766 1.115566 25.543304
480 0 1 -0.494091 1.475056 25.324707
481 0 1 -1.022291 2.231339 25.244690
482 0 1 -1.227143 2.432945 26.197205
483 0 1 -1.067232 2.614105 27.130890
484 0 1 -1.503691 2.853298 27.982086
485 0 1 -1.911652 3.657177 27.544312
486 0 1 -2.546982 4.283386 27.122803
487 0 1 -2.975212 5.065689 27.313690
488 0 1 -3.505491 4.713585 26.525696
489 0 1 -4.022162 5.309586 27.112396
490 0 1 -3.837521 6.113987 26.612701
491 0 1 -3.933882 6.951187 26.961609
492 0 1 -4.407731 7.305984 27.720490
493 0 1 -4.508393 7.020187 28.585907
494 0 1 -5.037873 6.423088 28.063416
495 0 1 -5.740782 7.071388 28.185486
496 0 1 -6.261832 7.900787 28.289490
497 0 1 -6.854001 8.590786 28.599792
498 0 1 -6.883622 8.775887 29.546814
499 0 1 -6.733351 9.381187 30.240906
500 0 1 -5.966551 9.918785 29.985504
501 0 1 -5.988562 10.855988 30.003998
502 0 1 -6.528681 11.494087 30.494995
503 0 1 -5.797562 12.066788 30.673309
504 0 1 -5.207121 11.407684 31.045898
505 0 1 -4.732832 12.069588 31.612091
506 0 1 -5.186551 12.785686 32.045502
507 0 1 -4.780892 12.784485 32.837799
508 0 1 -5.424851 13.049088 33.453308
509 0 1 -4.682322 13.648384 33.411407
510 0 1 -4.617491 14.370487 32.816284
511 0 1 -5.267312 15.082886 32.339203
512 0 1 -5.215271 15.901985 31.908508
513 0 1 -5.260851 16.175686 30.905304
514 0 1 -5.708882 17.123787 31.117401
515 0 1 -5.334212 17.975487 31.209686
516 0 1 -5.047112 18.359184 30.369385
517 0 1 -5.291401 17.400486 29.973816
518 0 1 -4.780512 17.334087 29.229889
519 0 1 -4.522952 16.432587 29.481995
520 0 1 -3.805371 16.605587 28.794403
521 0 1 -4.418421 16.690887 28.110199
522 0 1 -3.955511 17.438286 27.661804
523 0 1 -3.930191 17.412487 26.704803
524 0 1 -3.475151 17.479286 25.860199
525 0 1 -2.994822 17.240189 26.597504
526 0 1 -2.121392 17.262589 26.111206
527 0 1 -1.650942 18.091187 25.842102
528 0 1 -1.219851 17.623386 25.077911
529 0 1 -0.803061 17.590687 24.220490
530 0 1 0.004373 17.781784 24.774506
531 0 1 0.094379 18.746788 24.835114
532 0 1 -0.345602 18.901287 23.977386
533 0 1 -0.989432 19.413185 23.455505
534 0 1 -1.060442 18.908585 22.687897
535 0 1 -1.547241 19.399487 21.979797
536 0 1 -0.744612 19.805286 21.691696
537 0 1 -0.761942 20.737785 22.003403
538 0 1 -0.097019 21.399887 21.953995
539 0 1 0.550819 21.601887 21.220901
540 0 1 1.253864 20.963486 21.131805
541 0 1 1.870855 20.684288 20.373993
542 0 1 2.795849 20.505188 20.311401
543 0 1 2.672218 20.126289 21.233994
544 0 1 2.777370 19.291786 20.678696
545 0 1 2.748668 18.600189 21.308701
546 0 1 1.795578 18.609985 21.108093
547 0 1 1.372919 17.680984 21.196304
548 0 1 1.052620 17.168186 21.926804
549 0 1 1.487766 16.413086 21.623596
550 0 1 1.330738 16.197987 20.688400
551 0 1 1.745535 15.586487 20.060806
552 0 1 1.078062 15.778984 19.467804
553 0 1 0.538196 14.993484 19.267197
554 0 1 -0.041563 14.453087 19.708298
555 0 1 0.018627 13.905685 18.901001
556 0 1 -0.438931 13.553787 18.160095
557 0 1 -0.662052 13.906487 17.295197
558 0 1 -0.408352 14.885887 17.085800
559 0 1 0.087200 14.528687 17.845200
560 0 1 0.802274 14.126289 18.320099
561 0 1 1.267513 13.697189 17.596497
562 0 1 1.373127 14.631187 17.402100
563 0 1 2.140308 14.816086 18.081406
564 0 1 2.972740 14.662586 17.763596
565 0 1 3.886337 14.956085 17.626297
566 0 1 3.475017 15.600784 17.067398
567 0 1 4.018280 15.565788 16.237503
568 0 1 3.847820 14.628387 16.518906
569 0 1 4.241279 13.808586 16.507599
570 0 1 4.865459 14.498085 16.874100
571 0 1 5.229316 14.384487 17.807098
572 0 1 5.672660 13.592888 17.556396
573 0 1 5.192649 13.365288 18.378799
574 0 1 5.815406 12.731487 18.878601
575 0 1 5.419769 11.855286 18.754807
576 0 1 6.117717 11.303085 18.218903
577 0 1 6.402988 11.091888 17.281296
578 0 1 5.880607 11.360886 16.503998
579 0 1 5.621566 10.555084 16.100403
580 0 1 5.365528 10.373886 15.179198
581 0 1 5.068786 9.463585 15.516799
582 0 1 4.683628 8.495888 15.488799
583 0 1 4.972717 7.723988 16.002808
584 0 1 4.925487 8.468887 16.606903
585 0 1 5.716457 8.435287 17.198700
586 0 1 5.822147 7.687386 17.802704
587 0 1 6.156448 7.127087 18.488205
588 0 1 6.031238 6.856388 19.426498
589 0 1 5.921138 6.115387 20.001205
590 0 1 6.485919 5.522587 19.545395
591 0 1 5.653778 5.063286 19.307404
592 0 1 5.588169 4.194386 18.993698
593 0 1 5.448669 3.340096 18.531403
594 0 1 6.252670 2.820724 18.730408
595 0 1 6.818378 2.184814 19.137802
596 0 1 7.808010 2.179077 18.959198
597 0 1 7.796749 2.751316 18.194092
598 0 1 8.264439 2.417679 17.415009
599 0 1 8.993198 3.064487 17.344299
600 0 1 9.585381 3.315468 16.647003
601 0 1 9.144417 3.802498 15.861403
602 0 1 9.394909 4.020988 15.008391
603 0 1 9.359737 3.501358 14.238402
604 0 1 9.347260 3.697166 13.254500
605 0 1 8.989178 2.749756 13.115493
606 0 1 8.226738 3.061958 13.528792
607 0 1 7.615860 3.449017 12.934203
608 0 1 8.464088 3.552326 12.537002
609 0 1 7.958328 4.213985 12.174499
610 0 1 7.247940 4.440887 12.719604
611 0 1 7.439800 5.222187 12.151702
612 0 1 7.778846 6.028885 11.745498
613 0 1 8.247608 5.240486 11.341292
614 0 1 8.911667 4.574688 11.510604
615 0 1 8.285698 4.454788 10.775496
616 0 1 7.976699 3.651527 11.083098
617 0 1 7.013229 3.671906 10.817794
618 0 1 6.696720 4.502289 10.469802
619 0 1 6.817337 5.106789 9.599380
620 0 1 7.179657 5.032787 8.711211
621 0 1 8.107838 4.724487 8.748839
622 0 1 8.084179 3.857487 8.221816
623 0 1 8.620258 4.381187 7.517272
624 0 1 9.405590 4.909485 7.495025
625 0 1 9.111950 5.671886 8.024383
626 0 1 8.231838 5.769585 7.652893
627 0 1 7.809829 5.102886 7.017700
628 0 1 7.357929 4.298885 6.967346
629 0 1 6.808410 4.545788 6.301513
630 0 1 6.903247 5.535488 6.600204
631 0 1 7.459648 5.260284 5.905197
632 0 1 7.110816 6.135387 5.694503
633 0 1 6.832496 6.097885 4.684585
634 0 1 7.495708 6.096588 3.989333
635 0 1 8.361439 5.747688 3.733871
636 0 1 9.377289 5.609188 3.603729
637 0 1 9.231018 6.457886 4.078079
638 0 1 9.534050 6.550385 4.959152
639 0 1 9.959148 7.092789 4.287658
640 0 1 10.756477 7.378788 3.873534
641 0 1 11.508419 7.725288 4.338256
642 0 1 12.423820 7.503586 4.011032
643 0 1 13.015617 7.367687 4.826873
644 0 1 12.932320 6.429085 4.699615
645 0 1 12.339119 6.317986 3.937072
646 0 1 12.843719 6.422287 3.138137
647 0 1 13.397118 6.098286 3.851592
648 0 1 13.637718 5.155487 3.757339
649 0 1 13.342117 4.283188 3.492126
650 0 1 13.195717 3.935387 2.611022
651 0 1 13.004620 4.444386 1.835525
652 0 1 13.808121 4.705185 1.313583
653 0 1 14.644318 4.809288 0.859054
654 0 1 14.482319 5.723186 0.609130
655 0 1 13.539219 5.691486 0.578933
656 0 1 13.505219 6.665985 0.707794
657 0 1 14.187618 7.140686 1.287475
658 0 1 13.998318 7.841888 1.914886
659 0 1 13.228920 8.234787 2.401107
660 0 1 12.814819 8.983688 2.104873
661 0 1 12.973919 9.748486 1.549026
662 0 1 13.411419 10.625488 1.682800
663 0 1 13.647919 10.134087 0.829070
664 0 1 14.368317 10.854088 0.749679
665 0 1 15.155617 10.895088 0.156600
666 0 1 16.061020 11.111084 -0.005387
667 0 1 16.067619 10.340187 -0.482545
668 0 1 16.971519 10.217987 -0.076951
669 0 1 17.700317 9.504585 0.001449
670 0 1 17.947021 9.279186 -0.895096
671 0 1 18.579018 8.812286 -0.225373
672 0 1 18.463219 7.833187 -0.394532
673 0 1 18.403519 7.318687 -1.170655
674 0 1 18.282619 7.603188 -2.125153
675 0 1 17.597118 8.245586 -2.261826
676 0 1 16.688618 8.499985 -1.992905
677 0 1 16.008217 8.369488 -1.319764
678 0 1 15.495819 8.015285 -1.991273
679 0 1 15.636417 7.143486 -2.349259
680 0 1 15.452217 6.504086 -3.032838
681 0 1 14.785721 5.838387 -3.013261
682 0 1 14.717518 4.928986 -2.730561
683 0 1 15.290119 5.107689 -1.996079
684 0 1 14.620018 5.216488 -1.196198
685 0 1 14.849518 4.646088 -0.441132
686 0 1 15.761520 4.746887 -0.316483
687 0 1 16.043018 4.022686 0.234329
688 0 1 16.461918 3.180157 0.282440
689 0 1 16.956619 2.612228 -0.291703
690 0 1 17.346420 3.421535 -0.693757
691 0 1 17.296318 3.382256 -1.663941
692 0 1 17.308220 4.366585 -1.871735
693 0 1 17.938217 4.708286 -1.250703
694 0 1 18.798820 4.329185 -1.368928
695 0 1 19.263817 3.962288 -2.142930
696 0 1 18.574921 3.931389 -2.758744
697 0 1 19.389919 3.419716 -3.233308
698 0 1 20.268219 3.703297 -2.862107
699 0 1 20.611420 2.784477 -2.840058
700 0 1 21.439919 3.143456 -2.557511
701 0 1 22.279716 3.577717 -2.821427
702 0 1 22.511116 3.524445 -3.736085
703 0 1 21.713417 2.944199 -4.172028
704 0 1 20.814419 3.025608 -4.586747
705 0 1 20.095421 3.577888 -4.240174
706 0 1 19.225719 3.905186 -4.400681
707 0 1 18.852821 3.055107 -4.710953
708 0 1 19.333221 3.190807 -5.588624
709 0 1 20.206421 3.332287 -5.967713
710 0 1 20.475616 2.530609 -6.467194
711 0 1 20.130119 2.808918 -7.357255
712 0 1 20.211418 2.029446 -7.998093
713 0 1 19.887119 1.333237 -7.437027
714 0 1 19.415321 0.491356 -7.204773
715 0 1 19.153717 -0.307453 -6.709427
716 0 1 18.329418 -0.502892 -7.308396
717 0 1 18.575920 -1.236824 -6.679474
718 0 1 17.695019 -1.515224 -6.225785
719 0 1 18.199718 -2.298405 -6.224823
720 0 1 19.095619 -2.490314 -6.117707
721 0 1 19.750019 -2.960613 -5.568192
722 0 1 20.404919 -3.034565 -6.369629
723 0 1 20.690819 -3.504063 -5.542420
724 0 1 20.983318 -4.091003 -6.235489
725 0 1 20.678619 -5.011793 -6.130616
726 0 1 21.518517 -5.356348 -5.952836
727 0 1 21.837318 -4.996563 -6.844895
728 0 1 22.103821 -4.792562 -7.747910
729 0 1 21.344620 -5.045454 -8.316941
730 0 1 21.403816 -5.819279 -7.771424
731 0 1 21.227417 -6.775780 -7.779984
732 0 1 20.826519 -6.784811 -8.662156
733 0 1 20.515717 -7.182713 -9.481263
734 0 1 20.840919 -7.859592 -8.951524
735 0 1 20.432716 -8.192244 -9.732911
736 0 1 20.151520 -9.050303 -10.266007
737 0 1 20.267517 -8.442423 -10.972001
738 0 1 19.736717 -8.118393 -11.785401
739 0 1 20.316116 -8.417633 -12.488801
740 0 1 20.285019 -8.756372 -13.390809
741 0 1 20.551018 -8.801723 -14.308198
742 0 1 21.476818 -8.954624 -14.479798
743 0 1 21.855019 -8.231993 -13.964799
744 0 1 21.124218 -8.008034 -13.448396
745 0 1 21.559517 -8.644693 -12.912004
746 0 1 22.059418 -8.581854 -12.173997
747 0 1 22.802620 -8.032713 -12.517106
748 0 1 23.684120 -7.821484 -12.103898
749 0 1 23.598518 -8.558533 -12.732408
750 0 1 23.966518 -8.256504 -13.609696
751 0 1 24.395920 -8.239742 -14.472901
752 0 1 24.896519 -7.817783 -13.736695
753 0 1 24.430817 -7.206182 -13.108003
754 0 1 24.724918 -6.292023 -12.934205
755 0 1 25.657818 -6.177353 -12.990800
756 0 1 25.327217 -5.533028 -12.354707
757 0 1 25.124420 -5.543877 -11.419801
758 0 1 25.456619 -4.731394 -11.640504
759 0 1 25.647018 -4.048553 -12.250504
760 0 1 25.019619 -3.331345 -11.920396
761 0 1 25.204620 -3.321972 -10.950105
762 0 1 24.276321 -3.256542 -10.736695
763 0 1 23.623718 -2.567554 -10.493501
764 0 1 23.557018 -2.606102 -9.577317
765 0 1 24.064919 -1.757122 -9.622499
766 0 1 23.872520 -0.832863 -9.730546
767 0 1 23.056618 -1.165634 -10.198503
768 0 1 22.416916 -1.531883 -10.820802
769 0 1 21.695221 -0.946003 -10.868806
770 0 1 20.777218 -0.879593 -11.284898
771 0 1 20.248817 -0.546883 -10.574800
772 0 1 19.582520 -0.977821 -9.977693
773 0 1 19.079216 -0.772312 -10.835008
774 0 1 18.399521 -1.410233 -10.514497
775 0 1 17.600220 -1.055172 -10.306001
776 0 1 16.910217 -0.990284 -9.676545
777 0 1 16.890518 -0.823513 -8.740876
778 0 1 16.597118 -0.034523 -8.265855
779 0 1 16.534317 0.417175 -7.420105
780 0 1 16.491219 1.399437 -7.390030
781 0 1 16.772320 2.269745 -7.107346
782 0 1 17.192421 2.494255 -7.956299
783 0 1 16.868820 3.289417 -8.311875
784 0 1 16.151421 3.800556 -8.595063
785 0 1 15.480919 3.190735 -8.908235
786 0 1 14.632420 2.787766 -9.301927
787 0 1 14.382618 3.535206 -9.798142
788 0 1 14.337818 4.071785 -10.601899
789 0 1 14.999020 3.655315 -11.112504
790 0 1 15.704418 3.799118 -11.753205
791 0 1 16.356117 3.084087 -11.739106
792 0 1 16.870621 2.982037 -12.565507
793 0 1 17.029716 2.121136 -12.366807
794 0 1 17.589520 2.355106 -13.089005
795 0 1 18.383720 2.917168 -13.484895
796 0 1 18.351616 2.637794 -14.370606
797 0 1 18.038319 3.174488 -15.075807
798 0 1 18.307819 2.336887 -15.432405