LAMMPS data file via MDAnalysis

        2000  atoms
        1999  bonds
           0  angles
           0  dihedrals
           0  impropers

           1  atom types
           1  bond types
           0  angle types
           0  dihedral types
           0  improper types

-30.5 30.5 xlo xhi
-30.5 30.5 ylo yhi
-233.5 233.5 zlo zhi


Masses

1 1.000000

Atoms

1 0 1 12.399033 1.473499 89.489594
2 0 1 11.772770 1.942058 90.101105
3 0 1 10.794540 1.959903 89.696594
4 0 1 10.149193 2.536618 89.156799
5 0 1 10.296371 1.836892 88.452698
6 0 1 10.071129 1.324708 87.580200
7 0 1 10.114330 1.003429 86.688416
8 0 1 11.175522 1.063388 86.852600
9 0 1 11.377701 1.490146 85.973389
10 0 1 12.330582 1.344690 85.648895
11 0 1 11.848690 1.538432 84.886597
12 0 1 12.599960 1.258039 84.299683
13 0 1 12.094921 1.462106 83.509216
14 0 1 12.159081 2.264989 82.941010
15 0 1 11.386791 2.843253 82.979706
16 0 1 11.280243 3.242513 82.106110
17 0 1 10.542072 3.706828 81.760193
18 0 1 10.400692 3.459949 82.678589
19 0 1 9.975960 4.254649 82.949097
20 0 1 10.574291 4.081828 83.707611
21 0 1 10.118729 4.056350 84.626190
22 0 1 9.430592 3.330581 84.793701
23 0 1 8.768211 3.943229 84.389709
24 0 1 9.165672 4.628650 84.864594
25 0 1 9.360752 5.403647 84.305389
26 0 1 8.847759 5.737460 85.004211
27 0 1 8.105732 6.351260 85.153503
28 0 1 7.251251 6.346599 84.694305
29 0 1 6.864101 5.731570 85.284912
30 0 1 6.833351 6.281867 86.123993
31 0 1 5.976410 6.648620 85.812592
32 0 1 5.415222 6.774879 85.016113
33 0 1 4.856472 6.990920 84.273010
34 0 1 4.061522 7.326770 83.813782
35 0 1 3.467274 7.152419 84.598206
36 0 1 3.835037 6.814418 85.442017
37 0 1 3.204920 6.191077 85.906982
38 0 1 2.998621 5.294520 85.751587
39 0 1 2.236597 5.787040 85.404510
40 0 1 2.206940 4.979487 84.820984
41 0 1 1.717140 4.170749 85.068298
42 0 1 1.791410 3.479099 85.705811
43 0 1 2.594515 3.281327 86.154205
44 0 1 2.465595 2.360870 86.411591
45 0 1 3.346342 2.527055 86.791382
46 0 1 4.187580 2.190130 86.797485
47 0 1 5.120640 1.953212 86.631714
48 0 1 5.577259 1.313539 86.151703
49 0 1 5.557110 0.445810 85.671814
50 0 1 6.195271 -0.314431 85.617188
51 0 1 5.415272 -0.903491 85.507904
52 0 1 5.982971 -1.567912 86.004303
53 0 1 6.898849 -1.405522 85.748505
54 0 1 7.142681 -0.539551 86.257202
55 0 1 7.270950 -1.124451 87.017303
56 0 1 6.682762 -0.763491 87.698090
57 0 1 6.326839 -1.568381 87.952606
58 0 1 7.270981 -1.798152 87.917603
59 0 1 7.903500 -2.458281 88.212189
60 0 1 8.633591 -3.094481 88.015289
61 0 1 9.528130 -2.806222 88.177094
62 0 1 10.070461 -2.844861 88.937988
63 0 1 10.463531 -3.061171 89.840790
64 0 1 11.221352 -2.726821 89.269409
65 0 1 11.478230 -2.227271 88.426300
66 0 1 12.003632 -2.997952 88.352783
67 0 1 12.837769 -2.603331 88.671692
68 0 1 12.794090 -3.381982 89.256592
69 0 1 13.020622 -4.196721 89.741394
70 0 1 12.703560 -5.074861 89.831482
71 0 1 12.322861 -5.987842 89.988190
72 0 1 12.011322 -6.289823 89.160492
73 0 1 12.272060 -5.745931 88.420197
74 0 1 13.005070 -6.047011 87.845215
75 0 1 13.855511 -6.417121 87.423096
76 0 1 14.185711 -6.717801 86.615692
77 0 1 13.547810 -7.433480 86.671082
78 0 1 13.066410 -6.625550 86.576202
79 0 1 12.271942 -6.522771 87.117310
80 0 1 11.342979 -6.107362 87.244995
81 0 1 11.107632 -7.040502 87.380798
82 0 1 10.707111 -7.270951 88.254089
83 0 1 10.016869 -7.013642 87.634583
84 0 1 9.030731 -6.683412 87.634796
85 0 1 8.397381 -6.217931 87.037506
86 0 1 8.247192 -5.540280 86.290100
87 0 1 8.097549 -5.391412 85.326416
88 0 1 8.682560 -6.148400 85.409393
89 0 1 8.348839 -6.672193 86.089294
90 0 1 8.928860 -7.142821 85.418701
91 0 1 8.560169 -7.296163 84.558899
92 0 1 9.257122 -7.876512 84.132385
93 0 1 8.868259 -8.754611 84.296082
94 0 1 7.952560 -8.372411 84.045410
95 0 1 7.063641 -8.282411 83.952606
96 0 1 6.069721 -8.391212 84.125610
97 0 1 5.175659 -7.934812 84.101410
98 0 1 5.138802 -7.040971 83.816284
99 0 1 5.629723 -6.830632 84.597504
100 0 1 6.244400 -7.047172 85.416901
101 0 1 6.604549 -6.322202 85.877594
102 0 1 6.555462 -5.553191 85.327393
103 0 1 6.620472 -4.665332 85.050507
104 0 1 5.788212 -4.954291 84.587585
105 0 1 6.022442 -4.830171 83.632385
106 0 1 5.308060 -4.370202 83.103088
107 0 1 5.055920 -3.561520 82.634308
108 0 1 4.419451 -2.876261 82.307190
109 0 1 3.846241 -2.381951 81.717712
110 0 1 3.564857 -1.532361 81.496002
111 0 1 3.452192 -1.553780 80.529510
112 0 1 2.552462 -1.631081 80.753418
113 0 1 2.829969 -2.534192 80.936005
114 0 1 3.163473 -3.382222 80.667908
115 0 1 3.206026 -4.241641 80.308807
116 0 1 3.990061 -4.747821 80.477692
117 0 1 4.265781 -5.540521 81.076416
118 0 1 5.049122 -6.047612 81.363800
119 0 1 5.242199 -5.284970 80.910583
120 0 1 5.617229 -4.374652 81.094604
121 0 1 5.410622 -3.499432 80.803894
122 0 1 6.178082 -2.910561 80.842896
123 0 1 6.664280 -3.741801 80.759216
124 0 1 7.400661 -4.309892 80.989685
125 0 1 8.083851 -4.871472 81.445801
126 0 1 8.732292 -5.408280 80.976990
127 0 1 9.502731 -5.955541 80.749817
128 0 1 10.323990 -6.451371 80.614014
129 0 1 10.922020 -6.852212 79.937195
130 0 1 10.146641 -7.114682 79.348389
131 0 1 10.413151 -6.894471 78.474396
132 0 1 11.189919 -7.216552 77.874084
133 0 1 12.124950 -7.073750 77.729492
134 0 1 12.018360 -7.158280 78.696991
135 0 1 11.741211 -6.322522 78.889008
136 0 1 12.021561 -5.538911 79.443787
137 0 1 11.699409 -5.316960 78.544983
138 0 1 11.169609 -5.829202 77.975708
139 0 1 10.413582 -5.276101 78.207703
140 0 1 10.271233 -4.737493 77.406494
141 0 1 11.022919 -4.221791 77.126892
142 0 1 11.146370 -3.300912 76.901001
143 0 1 11.963348 -2.735921 77.084106
144 0 1 12.110809 -1.744611 77.084198
145 0 1 12.818481 -1.108161 77.146790
146 0 1 12.797951 -0.187531 77.342590
147 0 1 13.584312 0.323789 77.719116
148 0 1 13.929413 0.539838 76.837402
149 0 1 13.868511 1.278968 76.179108
150 0 1 13.882412 1.183629 75.151794
151 0 1 13.946213 0.619218 74.323486
152 0 1 14.395611 1.462386 74.015900
153 0 1 15.294712 1.695958 73.639587
154 0 1 16.061211 1.282619 73.294098
155 0 1 16.750313 1.899625 72.949005
156 0 1 17.345512 1.275869 72.577209
157 0 1 18.266510 1.133689 72.820801
158 0 1 19.066208 0.844360 73.267090
159 0 1 18.832413 -0.126502 73.366608
160 0 1 18.834808 -0.014561 72.364807
161 0 1 18.910412 -0.390771 71.463501
162 0 1 17.995411 -0.632731 70.945190
163 0 1 17.033710 -0.579421 71.089294
164 0 1 16.574810 -1.007460 71.818787
165 0 1 16.672913 -1.048411 72.789795
166 0 1 15.715012 -0.977061 72.874908
167 0 1 15.409611 -1.371531 72.127014
168 0 1 14.552311 -1.146531 71.760101
169 0 1 14.018013 -1.496081 70.942383
170 0 1 13.846111 -1.887431 70.062012
171 0 1 13.916210 -2.622561 70.710602
172 0 1 14.553009 -2.707761 71.447815
173 0 1 15.076210 -3.412791 70.971100
174 0 1 15.443008 -4.048741 71.628693
175 0 1 14.879211 -3.714701 72.298309
176 0 1 15.574409 -2.962031 72.519806
177 0 1 16.106911 -2.670901 73.334106
178 0 1 15.736511 -3.560281 73.513184
179 0 1 15.236912 -4.337071 73.106812
180 0 1 15.530712 -4.563302 74.028900
181 0 1 15.553410 -5.225942 74.722198
182 0 1 14.636009 -4.904752 74.870789
183 0 1 14.754509 -5.653451 75.458008
184 0 1 14.874512 -4.835002 76.012207
185 0 1 14.217510 -4.137542 75.977509
186 0 1 14.130508 -3.151242 76.000092
187 0 1 13.206711 -3.033671 76.117889
188 0 1 13.209110 -2.909711 75.177917
189 0 1 13.344212 -2.042821 75.597412
190 0 1 12.892830 -1.174842 75.570984
191 0 1 12.989609 -0.256140 75.864319
192 0 1 12.747932 0.572139 76.242004
193 0 1 12.016750 0.042438 76.571594
194 0 1 11.567192 -0.682662 76.089691
195 0 1 11.088341 0.021188 75.676514
196 0 1 11.118370 0.688308 76.426392
197 0 1 10.515900 1.022449 77.039612
198 0 1 10.420101 1.330928 76.055481
199 0 1 9.521080 1.778348 75.911804
200 0 1 8.861431 2.272905 76.445984
201 0 1 8.216412 2.224889 75.737000
202 0 1 7.519371 1.880853 76.330017
203 0 1 8.174740 1.280189 76.712494
204 0 1 7.880592 1.454381 77.665100
205 0 1 8.714142 1.120090 78.173889
206 0 1 9.527771 0.720769 77.797089
207 0 1 9.957310 1.135089 78.504303
208 0 1 9.986580 1.798158 79.172089
209 0 1 9.935379 2.264030 78.329010
210 0 1 10.596680 2.336742 77.643494
211 0 1 10.571930 3.292753 77.750183
212 0 1 9.938049 3.367038 78.484589
213 0 1 9.581360 3.708949 79.305206
214 0 1 8.718769 3.288165 79.125793
215 0 1 8.436161 3.514789 79.990509
216 0 1 7.653870 3.725648 79.505005
217 0 1 7.178562 3.692579 78.686707
218 0 1 7.056202 4.502368 78.153381
219 0 1 7.656139 4.728709 77.435089
220 0 1 8.530952 4.855559 76.999084
221 0 1 9.336590 4.889617 76.424591
222 0 1 9.414310 5.822207 76.660217
223 0 1 10.262779 5.760028 77.224609
224 0 1 11.058510 6.067630 76.763092
225 0 1 11.040543 5.722278 75.883209
226 0 1 11.603951 5.709487 75.084900
227 0 1 11.542229 5.879649 74.127899
228 0 1 12.060211 5.056090 74.001587
229 0 1 11.145741 4.691119 73.883118
230 0 1 11.266922 3.748180 73.979492
231 0 1 11.636299 2.903150 74.477600
232 0 1 12.413052 3.423509 74.127502
233 0 1 11.853291 3.279479 73.310791
234 0 1 11.292080 2.966689 72.622803
235 0 1 10.413059 2.740621 72.915100
236 0 1 10.519489 2.613073 71.931305
237 0 1 10.324982 2.345634 71.011902
238 0 1 10.343040 1.836726 70.148987
239 0 1 11.338711 1.844339 69.992889
240 0 1 12.232311 1.911723 69.606598
241 0 1 12.815182 1.522798 68.957489
242 0 1 13.372810 1.591380 69.768799
243 0 1 14.178909 1.551755 69.202301
244 0 1 14.824612 1.492543 68.500397
245 0 1 14.776112 2.306400 67.984802
246 0 1 14.163311 2.786519 67.464203
247 0 1 13.442410 3.380759 67.386597
248 0 1 12.788818 3.725059 66.758911
249 0 1 12.445782 3.779020 65.859802
250 0 1 11.778511 3.129037 66.156799
251 0 1 11.249840 3.466428 65.477783
252 0 1 10.418690 3.608348 66.044983
253 0 1 10.455021 2.655437 65.731812
254 0 1 9.778442 2.180780 66.290894
255 0 1 8.973839 1.968471 66.818787
256 0 1 8.980350 2.393014 67.694611
257 0 1 8.888771 3.398399 67.652802
258 0 1 8.525890 4.250178 68.129517
259 0 1 8.169250 4.798987 68.794891
260 0 1 7.854992 4.347438 69.548218
261 0 1 7.101292 4.188170 70.148987
262 0 1 7.741669 4.825538 70.501099
263 0 1 7.318439 5.584548 70.959106
264 0 1 7.327381 6.615668 71.160004
265 0 1 7.907772 7.382758 71.320190
266 0 1 8.331722 8.280097 71.119202
267 0 1 8.400162 8.321158 72.047394
268 0 1 7.733292 7.668170 72.307404
269 0 1 6.854900 7.700049 72.423889
270 0 1 6.615391 7.941398 71.455109
271 0 1 6.934200 8.868030 71.122711
272 0 1 6.364731 9.316398 70.478516
273 0 1 6.082870 8.732547 69.831299
274 0 1 5.775852 8.309409 68.962402
275 0 1 5.483532 8.986629 68.444794
276 0 1 4.952320 8.525489 67.774414
277 0 1 4.282961 9.145530 67.543701
278 0 1 4.709530 10.019538 67.588013
279 0 1 3.929029 10.617297 67.982910
280 0 1 3.610756 11.231238 67.353607
281 0 1 2.720285 11.617408 67.157104
282 0 1 2.070250 10.999949 66.985199
283 0 1 2.227472 11.035388 65.973511
284 0 1 1.676371 10.512889 65.410583
285 0 1 1.366901 10.089190 64.576294
286 0 1 1.382881 10.999610 64.157806
287 0 1 0.522070 10.551990 64.203613
288 0 1 -0.395489 10.281909 64.380798
289 0 1 -0.857630 9.393168 64.644989
290 0 1 -0.983559 8.603400 63.944794
291 0 1 -1.599659 8.424067 63.281189
292 0 1 -1.197849 7.542598 63.109589
293 0 1 -0.884060 7.078837 62.353210
294 0 1 -0.586620 7.201659 61.428192
295 0 1 -1.392799 6.816218 60.978790
296 0 1 -1.799090 6.590720 61.813416
297 0 1 -2.122028 6.227057 62.607697
298 0 1 -2.387249 5.491698 63.139099
299 0 1 -2.445290 4.934127 62.314789
300 0 1 -2.792559 4.154147 61.814087
301 0 1 -2.916010 3.985797 60.879700
302 0 1 -3.015968 4.262740 59.940186
303 0 1 -2.896530 4.805888 59.094788
304 0 1 -2.774010 5.256019 58.281799
305 0 1 -3.632599 5.108668 57.959595
306 0 1 -3.637680 4.099429 58.115601
307 0 1 -4.581549 3.702930 58.136597
308 0 1 -5.121159 3.631408 57.274902
309 0 1 -4.616680 3.142246 56.587097
310 0 1 -5.212158 3.357188 55.891693
311 0 1 -4.893499 3.408269 54.977509
312 0 1 -4.613659 4.425807 55.074310
313 0 1 -3.785479 4.768329 55.551605
314 0 1 -3.572849 4.562530 54.670898
315 0 1 -2.836550 5.013019 55.094788
316 0 1 -2.441540 5.877837 55.268799
317 0 1 -3.168999 6.560050 55.494690
318 0 1 -3.177299 6.580230 56.470703
319 0 1 -2.265148 6.503768 56.793884
320 0 1 -1.339760 6.298747 57.129395
321 0 1 -0.593250 5.768729 57.225800
322 0 1 0.321791 5.843787 56.878906
323 0 1 0.991861 5.280280 56.454102
324 0 1 1.050541 4.732928 55.603088
325 0 1 0.963730 5.298530 54.789001
326 0 1 1.147091 5.717528 53.943115
327 0 1 1.003651 6.197608 53.015594
328 0 1 0.078470 6.521640 53.055695
329 0 1 0.537880 7.026240 52.385895
330 0 1 0.866230 7.712649 51.720795
331 0 1 0.207062 8.120990 52.260101
332 0 1 0.160240 9.072280 51.972290
333 0 1 -0.077889 8.452449 51.289490
334 0 1 -0.999640 8.359797 51.804108
335 0 1 -0.957390 9.159518 52.321503
336 0 1 -0.844759 9.840220 53.006897
337 0 1 -0.566599 10.102099 53.891907
338 0 1 0.177950 9.994647 54.394714
339 0 1 -0.127199 10.531348 55.240601
340 0 1 0.631010 9.960467 55.653900
341 0 1 1.118240 9.485770 55.026184
342 0 1 1.520061 8.632060 54.782593
343 0 1 1.376890 8.332477 53.878113
344 0 1 1.111641 7.613990 54.588013
345 0 1 1.806410 7.272326 55.212006
346 0 1 1.562321 6.398620 54.907013
347 0 1 2.153893 6.412829 54.193115
348 0 1 2.944265 6.739730 54.682007
349 0 1 3.283470 7.455630 55.244507
350 0 1 3.692335 8.101817 54.625092
351 0 1 4.583122 8.386889 54.889587
352 0 1 5.071712 7.585837 55.022705
353 0 1 5.593830 8.088058 55.685394
354 0 1 5.835819 9.030177 55.815094
355 0 1 5.785290 9.986979 55.552612
356 0 1 5.293640 10.593459 56.131805
357 0 1 6.032642 11.229648 56.047211
358 0 1 6.904789 11.504199 55.734192
359 0 1 6.643509 10.861968 55.119812
360 0 1 6.944942 10.202670 54.425812
361 0 1 6.293350 10.671229 53.948395
362 0 1 6.116753 11.512248 53.473999
363 0 1 6.726082 12.283519 53.400391
364 0 1 6.307079 12.511588 52.583191
365 0 1 5.702362 12.938991 51.898712
366 0 1 5.245422 12.173697 52.216797
367 0 1 4.693531 11.435580 52.334717
368 0 1 4.302181 10.862868 52.915405
369 0 1 3.903574 10.176490 52.345703
370 0 1 4.310411 9.414119 51.880890
371 0 1 4.792740 8.723247 51.414185
372 0 1 5.454571 7.973330 51.483215
373 0 1 5.949821 8.428660 52.266388
374 0 1 6.204662 7.539039 52.580505
375 0 1 6.182552 7.141280 51.717102
376 0 1 7.176460 6.625808 51.732605
377 0 1 7.691681 6.928100 50.985901
378 0 1 8.255680 7.629630 50.764099
379 0 1 8.184471 8.585567 50.990997
380 0 1 8.860760 8.735457 50.292603
381 0 1 8.634750 8.152957 49.529999
382 0 1 9.258553 7.612979 49.993195
383 0 1 9.687740 7.540370 49.144196
384 0 1 9.586620 8.365939 48.585815
385 0 1 10.001621 7.692298 48.038910
386 0 1 9.614403 7.473010 47.256805
387 0 1 9.729702 7.776988 46.348206
388 0 1 10.630829 7.487529 46.138306
389 0 1 11.328571 6.741458 45.922913
390 0 1 11.509590 6.049357 46.570099
391 0 1 11.776241 5.433658 45.880798
392 0 1 12.347839 4.769637 46.193695
393 0 1 12.154869 4.169650 45.464111
394 0 1 11.910061 3.270177 45.737701
395 0 1 11.055153 3.202720 45.981506
396 0 1 10.516651 3.953819 46.173798
397 0 1 9.816570 3.238403 46.145905
398 0 1 9.635452 2.462770 45.600494
399 0 1 10.058392 2.614866 44.656006
400 0 1 10.016880 1.675647 44.764893
401 0 1 9.737549 0.906358 44.336609
402 0 1 9.296001 0.582830 43.558594
403 0 1 9.658371 0.133849 42.809601
404 0 1 8.743961 -0.158231 42.810913
405 0 1 7.989681 -0.019070 42.215912
406 0 1 8.315022 -0.306870 41.345215
407 0 1 7.687180 0.269578 40.766510
408 0 1 8.145042 0.416700 39.936188
409 0 1 8.463593 -0.169680 39.276184
410 0 1 7.772400 -0.610751 38.596191
411 0 1 7.032883 -0.408292 38.005005
412 0 1 7.498142 -1.176701 37.418610
413 0 1 7.456520 -0.481442 36.832306
414 0 1 6.885700 0.246700 36.433807
415 0 1 7.288033 0.059989 35.559814
416 0 1 7.529160 -0.236691 34.647797
417 0 1 7.781750 -1.127452 34.648010
418 0 1 6.789879 -1.153481 34.393311
419 0 1 6.750019 -1.108632 33.460510
420 0 1 6.128250 -0.527510 32.955383
421 0 1 5.194321 -0.821761 32.758392
422 0 1 4.989429 -1.747111 32.602905
423 0 1 4.203032 -1.403142 33.082214
424 0 1 4.294401 -1.009270 34.015411
425 0 1 4.315300 -0.817771 34.931488
426 0 1 4.473141 -0.183001 35.580811
427 0 1 3.689409 -0.531062 35.870300
428 0 1 2.794550 -0.175332 36.105804
429 0 1 1.845890 -0.022792 36.248291
430 0 1 1.016231 -0.155261 36.816193
431 0 1 0.124041 0.158868 37.122101
432 0 1 -0.504070 -0.385031 36.744507
433 0 1 -0.133999 -1.198811 36.387909
434 0 1 -0.819399 -1.911752 36.495483
435 0 1 -1.455259 -2.345092 35.896393
436 0 1 -1.360790 -2.424752 34.966797
437 0 1 -2.265598 -2.235112 34.669495
438 0 1 -2.724569 -2.651221 33.983093
439 0 1 -3.651869 -2.863812 33.694000
440 0 1 -4.138680 -3.630742 34.064789
441 0 1 -4.322449 -4.495561 33.662994
442 0 1 -4.693480 -5.407241 33.777405
443 0 1 -4.763660 -5.458512 32.804993
444 0 1 -5.608189 -5.868192 33.248993
445 0 1 -6.342579 -6.323852 33.647308
446 0 1 -7.167889 -6.811212 33.624908
447 0 1 -7.287189 -7.742112 33.639099
448 0 1 -7.155991 -8.032613 34.581207
449 0 1 -8.062689 -8.422410 34.706207
450 0 1 -8.875189 -8.903413 34.949097
451 0 1 -9.664989 -8.500512 34.539490
452 0 1 -10.018089 -9.258611 34.254303
453 0 1 -10.595188 -9.058612 34.986511
454 0 1 -11.403191 -9.129212 35.569397
455 0 1 -12.364889 -8.971112 35.715607
456 0 1 -12.952990 -8.231610 35.837189
457 0 1 -13.105289 -7.752212 34.930115
458 0 1 -13.463089 -6.763862 34.835388
459 0 1 -14.181189 -7.257333 35.135986
460 0 1 -14.360989 -8.118112 34.901489
461 0 1 -15.289188 -8.102811 34.791412
462 0 1 -15.858889 -7.354611 34.681702
463 0 1 -15.887489 -6.364640 34.587494
464 0 1 -16.362089 -5.719960 33.973511
465 0 1 -16.723989 -5.451621 33.118591
466 0 1 -16.882790 -4.496951 32.944000
467 0 1 -16.054489 -4.149192 33.110687
468 0 1 -15.611189 -4.488381 32.367798
469 0 1 -15.070789 -3.638081 32.352509
470 0 1 -14.586090 -3.428002 33.145905
471 0 1 -14.195789 -3.631932 33.950012
472 0 1 -13.646290 -2.957652 34.397797
473 0 1 -14.537889 -2.864112 34.639099
474 0 1 -15.501989 -3.035701 34.633789
475 0 1 -15.783789 -3.597062 35.393188
476 0 1 -15.061689 -4.222013 35.119293
477 0 1 -15.840389 -4.613461 34.671997
478 0 1 -16.495390 -3.922292 34.691193
479 0 1 -17.200190 -3.825162 34.090790
480 0 1 -18.006889 -4.145680 34.458710
481 0 1 -18.809389 -3.577182 34.750702
482 0 1 -19.026690 -4.320071 35.304413
483 0 1 -18.288889 -4.620320 35.832397
484 0 1 -17.471889 -5.123361 35.604797
485 0 1 -17.251289 -4.874202 36.502106
486 0 1 -16.754789 -5.745160 36.617096
487 0 1 -16.458290 -6.296380 37.342499
488 0 1 -16.509489 -5.401612 37.604187
489 0 1 -16.527889 -5.064801 38.455017
490 0 1 -16.002089 -4.442822 38.900787
491 0 1 -14.995089 -4.166852 38.660400
492 0 1 -14.060989 -4.284680 39.043213
493 0 1 -14.053989 -4.759582 38.231506
494 0 1 -13.521290 -5.464782 37.900208
495 0 1 -13.003189 -6.156072 37.492798
496 0 1 -13.110088 -5.423942 36.887512
497 0 1 -13.141190 -4.495311 36.654510
498 0 1 -13.575289 -3.765240 36.217590
499 0 1 -14.432489 -3.907771 36.654297
500 0 1 -13.797390 -3.840232 37.358795
501 0 1 -12.904089 -3.581021 37.571808
502 0 1 -13.405289 -2.728411 37.759216
503 0 1 -13.302490 -2.628402 38.701904
504 0 1 -13.613588 -1.698031 38.694305
505 0 1 -14.009890 -0.809972 38.970703
506 0 1 -13.947289 0.085408 38.506287
507 0 1 -14.170589 -0.116332 37.590698
508 0 1 -14.120789 0.590348 36.911102
509 0 1 -14.499889 1.369531 37.504089
510 0 1 -14.203089 1.828162 38.349213
511 0 1 -14.571190 2.403106 37.651917
512 0 1 -14.183489 3.296432 37.821899
513 0 1 -13.348188 2.868942 38.006989
514 0 1 -12.965889 2.871246 37.048492
515 0 1 -12.607789 2.905023 36.155701
516 0 1 -13.047789 2.414653 35.486816
517 0 1 -13.893589 2.877286 35.742706
518 0 1 -14.642389 2.192165 35.734406
519 0 1 -14.924589 1.489949 35.070587
520 0 1 -15.081490 1.825639 34.144806
521 0 1 -14.892590 1.091338 33.519989
522 0 1 -15.471590 0.551990 34.052002
523 0 1 -15.115089 -0.150410 33.465210
524 0 1 -14.857689 -1.078362 33.393005
525 0 1 -15.003090 -0.758021 32.499084
526 0 1 -14.769190 -1.648131 32.086700
527 0 1 -14.007689 -2.186852 31.935791
528 0 1 -13.313990 -1.557542 31.605896
529 0 1 -14.063690 -1.309821 31.038086
530 0 1 -14.988089 -1.388310 30.788605
531 0 1 -15.718889 -0.787141 30.750305
532 0 1 -15.273289 -0.898822 29.868805
533 0 1 -14.924589 -0.214082 29.323090
534 0 1 -15.568890 0.315919 28.853912
535 0 1 -15.757889 0.335988 29.786591
536 0 1 -16.594990 0.809968 29.469910
537 0 1 -17.086489 1.203748 28.739288
538 0 1 -16.728289 1.554647 27.908691
539 0 1 -16.801390 1.941600 27.038605
540 0 1 -16.383289 2.485448 26.387207
541 0 1 -16.580790 2.958406 25.533295
542 0 1 -17.062790 3.497709 26.127686
543 0 1 -17.548489 2.706514 26.228912
544 0 1 -17.975489 1.880460 26.371490
545 0 1 -17.826990 1.062858 25.952301
546 0 1 -17.568190 1.332408 25.056305
547 0 1 -18.580490 1.552554 25.031097
548 0 1 -19.175789 2.252088 24.835907
549 0 1 -19.213989 2.304189 23.899109
550 0 1 -18.581989 2.974794 23.833984
551 0 1 -18.940590 3.882777 23.859711
552 0 1 -19.279289 4.819449 23.754303
553 0 1 -18.661690 5.370078 23.345612
554 0 1 -17.757290 5.696097 23.326202
555 0 1 -17.949890 6.468669 22.790009
556 0 1 -18.433689 6.238227 22.046204
557 0 1 -18.353590 5.235869 21.893494
558 0 1 -18.650089 4.395709 21.437592
559 0 1 -18.607689 3.526609 20.984604
560 0 1 -18.687990 2.513053 20.981003
561 0 1 -18.330990 1.649987 21.255493
562 0 1 -18.844389 1.245710 20.565903
563 0 1 -19.775389 1.131089 20.721100
564 0 1 -20.420589 0.594629 21.134705
565 0 1 -19.597990 -0.011681 21.118805
566 0 1 -18.956490 0.086499 20.453506
567 0 1 -18.565790 0.495849 19.749207
568 0 1 -17.677589 0.896718 19.522003
569 0 1 -16.913290 0.645389 19.992599
570 0 1 -15.929390 0.392129 20.013000
571 0 1 -15.271189 -0.332471 20.098602
572 0 1 -15.831388 -0.905581 20.533096
573 0 1 -16.399488 -1.016751 19.766205
574 0 1 -16.071690 -1.185031 18.841492
575 0 1 -16.507689 -0.917681 18.028397
576 0 1 -16.234388 -0.781892 17.155594
577 0 1 -15.405590 -0.330342 17.261795
578 0 1 -14.643188 -0.915810 17.386703
579 0 1 -14.917089 -1.133832 16.442398
580 0 1 -14.236689 -0.946730 15.778595
581 0 1 -13.346590 -1.287892 15.477203
582 0 1 -12.610390 -0.803351 15.942993
583 0 1 -11.681589 -0.646142 16.016006
584 0 1 -11.293591 -1.205941 16.665100
585 0 1 -10.822689 -1.751342 16.097000
586 0 1 -9.993690 -1.488230 15.523697
587 0 1 -9.293388 -0.789361 15.517899
588 0 1 -8.529490 -1.065852 15.018402
589 0 1 -7.541290 -1.110341 15.079895
590 0 1 -7.126490 -1.577611 15.778305
591 0 1 -7.525789 -1.326081 16.612305
592 0 1 -7.701988 -1.362681 17.556503
593 0 1 -7.128590 -0.526231 17.811005
594 0 1 -7.211990 0.058469 17.050293
595 0 1 -7.462389 0.900668 16.568207
596 0 1 -6.537489 1.045398 16.398407
597 0 1 -5.794559 1.669681 16.120392
598 0 1 -5.075710 1.269328 16.708099
599 0 1 -5.254730 0.484369 16.281799
600 0 1 -5.803919 0.193908 17.047302
601 0 1 -5.768379 -0.515191 17.703400
602 0 1 -5.342968 -1.030532 18.434998
603 0 1 -4.926640 -0.617390 19.207092
604 0 1 -5.485420 0.110759 19.666901
605 0 1 -4.757679 0.708780 19.977905
606 0 1 -4.977699 -0.025040 20.463196
607 0 1 -5.079739 -0.991141 20.538208
608 0 1 -5.690369 -1.501631 19.979797
609 0 1 -5.541080 -1.926491 19.158600
610 0 1 -4.807459 -2.004121 18.580994
611 0 1 -4.142380 -2.666072 18.788803
612 0 1 -3.852188 -1.928052 19.313095
613 0 1 -3.733820 -2.630742 19.977203
614 0 1 -3.307089 -1.946732 20.478500
615 0 1 -3.476089 -1.803141 21.399506
616 0 1 -2.630520 -2.192452 21.427002
617 0 1 -2.242659 -1.397332 21.678299
618 0 1 -1.717409 -1.527020 20.883194
619 0 1 -1.177790 -2.193730 21.319595
620 0 1 -1.685829 -2.926301 21.046906
621 0 1 -1.740860 -3.816712 21.436203
622 0 1 -2.479050 -3.713242 21.968994
623 0 1 -3.328230 -3.422431 22.356094
624 0 1 -4.187029 -3.376881 21.934204
625 0 1 -3.751270 -3.213731 21.010696
626 0 1 -3.905750 -4.213613 20.914505
627 0 1 -4.501329 -3.714301 20.239197
628 0 1 -4.562038 -4.392051 19.496704
629 0 1 -5.260498 -4.215482 18.866608
630 0 1 -5.354929 -4.762601 18.100296
631 0 1 -5.075369 -5.577012 17.511108
632 0 1 -4.541149 -4.767451 17.433395
633 0 1 -4.376438 -4.586862 16.503296
634 0 1 -5.043579 -5.048100 15.948303
635 0 1 -5.141979 -5.931392 15.743393
636 0 1 -4.521040 -6.290381 16.379608
637 0 1 -4.914650 -7.106002 16.689606
638 0 1 -3.945278 -7.155381 16.756195
639 0 1 -4.180759 -8.070210 16.477295
640 0 1 -5.116478 -8.157411 16.689102
641 0 1 -4.655609 -9.014812 16.466705
642 0 1 -5.510149 -9.276011 16.317200
643 0 1 -5.883598 -10.098912 16.215698
644 0 1 -5.382248 -10.687512 15.659500
645 0 1 -4.557880 -11.243411 15.802902
646 0 1 -5.115660 -12.016912 15.742599
647 0 1 -4.705860 -12.767012 16.210098
648 0 1 -4.989170 -13.671611 16.325394
649 0 1 -5.656368 -14.256310 15.839508
650 0 1 -6.043148 -15.125512 15.957199
651 0 1 -6.237820 -14.507512 16.714996
652 0 1 -7.187489 -14.320111 16.527603
653 0 1 -6.615681 -13.565311 16.316193
654 0 1 -6.579750 -13.368112 15.331299
655 0 1 -7.348089 -12.927011 15.174408
656 0 1 -8.199390 -13.403611 15.092697
657 0 1 -8.588089 -14.248712 14.842102
658 0 1 -9.183390 -13.835811 15.506302
659 0 1 -9.621288 -13.995212 16.419495
660 0 1 -9.628189 -13.080011 16.212402
661 0 1 -9.676189 -12.269411 15.724304
662 0 1 -9.038490 -11.547711 15.700592
663 0 1 -9.413689 -11.167211 16.514801
664 0 1 -8.850889 -10.469712 16.925507
665 0 1 -8.366789 -10.544211 17.764603
666 0 1 -7.860790 -11.033212 18.477005
667 0 1 -7.016090 -10.594911 18.985794
668 0 1 -6.470709 -9.960711 19.678894
669 0 1 -5.894869 -10.405511 20.426605
670 0 1 -6.902470 -10.479512 20.525696
671 0 1 -7.398590 -10.658011 21.377106
672 0 1 -7.990490 -10.378911 22.076904
673 0 1 -8.210289 -9.499211 21.877304
674 0 1 -8.468590 -9.759313 20.962906
675 0 1 -8.697990 -10.674312 21.130096
676 0 1 -8.047890 -10.992513 20.447601
677 0 1 -7.278589 -11.517812 20.252701
678 0 1 -7.139090 -11.988212 19.421692
679 0 1 -6.385340 -12.561811 19.465103
680 0 1 -6.298590 -12.645411 20.444901
681 0 1 -6.793190 -13.512112 20.638702
682 0 1 -6.557909 -13.427812 21.550705
683 0 1 -6.381210 -13.600012 22.543793
684 0 1 -6.774809 -14.386312 22.946411
685 0 1 -6.317688 -14.766612 23.710114
686 0 1 -5.958908 -15.639812 23.734100
687 0 1 -6.828730 -16.016411 23.969391
688 0 1 -7.736090 -15.836312 24.135895
689 0 1 -7.600491 -15.780511 25.086395
690 0 1 -7.608589 -16.594410 25.500305
691 0 1 -7.279289 -16.113310 26.319794
692 0 1 -7.345890 -16.113010 27.287689
693 0 1 -7.491289 -16.031410 28.296814
694 0 1 -7.654888 -15.173312 27.973999
695 0 1 -8.219891 -14.960811 27.178406
696 0 1 -8.883490 -14.310410 27.453613
697 0 1 -8.879089 -13.381011 27.131805
698 0 1 -8.982889 -13.275611 26.170013
699 0 1 -9.036789 -12.584611 25.468384
700 0 1 -9.483891 -11.977212 26.055786
701 0 1 -10.125690 -11.311412 25.703705
702 0 1 -10.788589 -11.392211 25.004913
703 0 1 -11.673789 -11.228810 25.252808
704 0 1 -11.973089 -10.970811 24.399994
705 0 1 -12.407189 -10.125411 24.118591
706 0 1 -12.134190 -9.386111 24.588196
707 0 1 -11.871389 -8.519711 24.931885
708 0 1 -12.247489 -7.704211 24.834503
709 0 1 -12.358290 -6.802350 24.559387
710 0 1 -13.064089 -6.699372 23.847412
711 0 1 -12.899789 -6.010522 23.250092
712 0 1 -12.050690 -6.062593 22.832703
713 0 1 -11.419189 -5.612432 23.353088
714 0 1 -10.596291 -5.103732 23.002502
715 0 1 -10.232689 -4.386981 22.473297
716 0 1 -10.005890 -4.856601 21.583893
717 0 1 -10.955490 -4.826802 21.647705
718 0 1 -11.284290 -4.649152 20.725601
719 0 1 -11.989989 -4.928502 21.322403
720 0 1 -12.953289 -4.830321 21.397400
721 0 1 -13.511290 -5.111831 20.619705
722 0 1 -14.332088 -4.591392 20.602402
723 0 1 -13.879490 -3.631272 20.667099
724 0 1 -14.603689 -3.489192 20.027100
725 0 1 -15.042990 -4.184272 19.503204
726 0 1 -15.436689 -4.097232 18.623398
727 0 1 -14.439390 -3.982960 18.247299
728 0 1 -14.777988 -4.490602 17.481995
729 0 1 -15.040588 -4.543891 16.615906
730 0 1 -14.972889 -3.796490 15.991699
731 0 1 -15.067289 -2.871741 16.266998
732 0 1 -15.956490 -2.784600 16.588104
733 0 1 -16.185890 -3.603902 16.939606
734 0 1 -15.985289 -4.605123 17.111496
735 0 1 -15.419189 -5.463552 17.151901
736 0 1 -15.494289 -6.408952 17.018799
737 0 1 -15.603189 -7.303212 16.579803
738 0 1 -14.771990 -6.926671 16.201508
739 0 1 -13.947090 -6.728063 16.648407
740 0 1 -13.895090 -6.991441 15.729294
741 0 1 -14.096889 -6.020520 15.581406
742 0 1 -14.841490 -5.382932 15.464401
743 0 1 -14.319889 -4.648271 14.999298
744 0 1 -13.398590 -4.362493 14.797501
745 0 1 -12.616989 -4.808072 15.008102
746 0 1 -12.639389 -4.938041 14.029205
747 0 1 -13.230888 -5.584741 14.505493
748 0 1 -13.725790 -4.883132 13.979202
749 0 1 -13.577589 -3.907861 13.687302
750 0 1 -14.324589 -3.391452 13.303604
751 0 1 -15.141590 -2.916001 12.987701
752 0 1 -15.127089 -1.985671 13.295197
753 0 1 -15.541288 -1.897231 14.233505
754 0 1 -14.613190 -1.862181 14.399094
755 0 1 -14.941189 -2.759822 14.380203
756 0 1 -15.705389 -2.659432 14.976196
757 0 1 -15.736189 -1.993672 15.654800
758 0 1 -16.153589 -1.262971 15.180496
759 0 1 -15.776989 -0.449382 14.728500
760 0 1 -16.730490 -0.546201 14.500107
761 0 1 -17.300589 0.215690 14.212799
762 0 1 -18.050388 -0.321341 13.889297
763 0 1 -17.451488 -1.155101 13.884995
764 0 1 -17.821489 -1.881970 14.537003
765 0 1 -18.679489 -1.603381 14.445099
766 0 1 -19.548288 -1.717292 14.796692
767 0 1 -20.423988 -2.006551 15.062302
768 0 1 -21.144890 -2.648652 15.015900
769 0 1 -21.494289 -1.821282 14.652603
770 0 1 -22.134789 -1.831410 14.018707
771 0 1 -21.634390 -1.042182 13.819702
772 0 1 -20.693390 -0.925912 14.048996
773 0 1 -20.578989 -0.167012 13.439392
774 0 1 -20.391890 -0.922421 12.907501
775 0 1 -19.733688 -0.761641 13.556702
776 0 1 -19.435190 -0.591872 14.451508
777 0 1 -19.172489 0.334989 14.490204
778 0 1 -18.622690 1.080489 14.164703
779 0 1 -18.997089 1.651708 13.455795
780 0 1 -18.933289 2.262391 12.670700
781 0 1 -18.223690 1.623517 12.509903
782 0 1 -18.615990 0.872098 11.977203
783 0 1 -19.420790 1.327598 11.617493
784 0 1 -19.796589 2.111684 11.181000
785 0 1 -19.184589 2.558202 10.451508
786 0 1 -19.246790 2.796504 9.547714
787 0 1 -19.950289 2.716924 8.911652
788 0 1 -20.182089 2.316039 8.088058
789 0 1 -20.229990 1.580114 7.495178
790 0 1 -20.579988 1.201068 6.660797