LAMMPS data file via MDAnalysis

        2000  atoms
        1999  bonds
           0  angles
           0  dihedrals
           0  impropers

           1  atom types
           1  bond types
           0  angle types
           0  dihedral types
           0  improper types

-30.5 30.5 xlo xhi
-30.5 30.5 ylo yhi
-233.5 233.5 zlo zhi


Masses

1 1.000000

Atoms

1 0 1 -3.033235 -19.058628 88.807709
2 0 1 -2.838375 -19.121927 89.730591
3 0 1 -2.935245 -19.583227 90.617493
4 0 1 -3.590505 -19.195726 91.251709
5 0 1 -2.976555 -19.493628 91.960205
6 0 1 -2.541614 -18.703228 91.993805
7 0 1 -2.817135 -17.856728 91.605713
8 0 1 -3.326086 -17.435827 90.874298
9 0 1 -4.242775 -17.432028 91.214996
10 0 1 -5.083666 -17.631527 90.810699
11 0 1 -4.577946 -17.201927 90.091919
12 0 1 -5.023935 -17.450928 89.313416
13 0 1 -4.326395 -17.339626 88.677002
14 0 1 -3.416086 -17.163727 88.507996
15 0 1 -2.623846 -17.086628 89.043701
16 0 1 -1.731516 -16.619728 88.974396
17 0 1 -1.536455 -17.408426 89.424805
18 0 1 -1.171276 -18.250227 89.793701
19 0 1 -0.351986 -18.751627 90.032806
20 0 1 0.556204 -19.000328 89.879303
21 0 1 1.274508 -19.709927 90.160004
22 0 1 1.685261 -19.137426 89.485901
23 0 1 1.223452 -18.328627 89.385681
24 0 1 2.151974 -18.283728 89.191711
25 0 1 2.297613 -18.085426 88.259308
26 0 1 2.882395 -17.300627 88.085510
27 0 1 3.597416 -16.821827 87.609802
28 0 1 2.741053 -16.598328 87.179291
29 0 1 3.569035 -16.277527 86.690399
30 0 1 3.222235 -15.399026 86.785400
31 0 1 2.999645 -14.440427 86.744690
32 0 1 2.600514 -13.594726 86.598602
33 0 1 2.090349 -13.459426 87.451691
34 0 1 2.745297 -12.900826 87.848816
35 0 1 3.642723 -13.272326 87.744690
36 0 1 3.813305 -13.760427 88.519104
37 0 1 4.618504 -13.765027 88.892303
38 0 1 5.543854 -13.571326 89.158600
39 0 1 6.127483 -12.979726 89.706482
40 0 1 6.435524 -12.363227 89.022400
41 0 1 6.402786 -12.187627 88.003510
42 0 1 7.086975 -12.679326 87.413086
43 0 1 6.613754 -12.482127 86.548096
44 0 1 5.682533 -12.323926 86.536804
45 0 1 6.014503 -13.298526 86.470703
46 0 1 6.202366 -14.231326 86.166016
47 0 1 6.784565 -14.222226 85.454407
48 0 1 7.391724 -14.719626 84.881104
49 0 1 7.823284 -14.480327 85.654999
50 0 1 8.121956 -13.684726 85.169983
51 0 1 8.486794 -12.802026 85.338806
52 0 1 8.340916 -11.907327 85.440613
53 0 1 7.844395 -11.388826 86.121582
54 0 1 7.526485 -11.041926 87.001190
55 0 1 8.075054 -10.271728 86.618103
56 0 1 8.666153 -10.286227 85.894714
57 0 1 9.095703 -9.548625 85.444092
58 0 1 8.422096 -9.033927 85.830902
59 0 1 8.644344 -8.438228 85.094696
60 0 1 8.872475 -7.787426 84.321899
61 0 1 9.339333 -8.612727 84.224091
62 0 1 9.253174 -9.511027 84.028503
63 0 1 9.812145 -9.527026 83.218109
64 0 1 9.773224 -9.003627 82.381714
65 0 1 9.934475 -8.030927 82.258789
66 0 1 10.297234 -7.089828 82.505188
67 0 1 10.355186 -6.135326 82.330109
68 0 1 10.548843 -6.002128 81.384491
69 0 1 10.290844 -6.978427 81.384308
70 0 1 10.774593 -7.787027 81.243500
71 0 1 10.484135 -7.811126 80.350494
72 0 1 10.411095 -8.010325 79.401306
73 0 1 10.687885 -7.676027 78.590088
74 0 1 9.909534 -8.075027 78.245392
75 0 1 9.640182 -8.592925 77.364502
76 0 1 8.778854 -8.933526 77.675293
77 0 1 8.691895 -8.161025 77.037903
78 0 1 8.381245 -7.542127 76.349182
79 0 1 8.994984 -8.104926 75.837097
80 0 1 8.190643 -7.916727 75.316284
81 0 1 8.215473 -8.849727 75.564606
82 0 1 7.384365 -9.024226 75.115509
83 0 1 6.631763 -9.549026 75.098206
84 0 1 5.916153 -9.624026 74.475006
85 0 1 6.259815 -9.294227 73.610596
86 0 1 6.731186 -9.736726 72.887909
87 0 1 7.260075 -9.091126 73.317688
88 0 1 8.212574 -9.200828 73.247711
89 0 1 8.959106 -8.526626 73.066589
90 0 1 9.117264 -7.594427 73.097809
91 0 1 9.987816 -7.749328 73.452789
92 0 1 10.571163 -8.335025 73.975006
93 0 1 11.260105 -8.866626 73.581482
94 0 1 11.441277 -8.231326 72.862396
95 0 1 10.671024 -8.291926 72.274597
96 0 1 10.160984 -8.102626 71.447510
97 0 1 9.892784 -7.411727 72.026001
98 0 1 9.460754 -6.494426 71.718292
99 0 1 9.761826 -6.063228 70.927795
100 0 1 10.156445 -5.324855 70.457306
101 0 1 9.812935 -4.813987 69.687012
102 0 1 10.724724 -4.886856 69.686310
103 0 1 10.924896 -4.012336 69.290802
104 0 1 10.740536 -4.685457 68.608704
105 0 1 10.519226 -5.487686 67.941193
106 0 1 10.554726 -5.926027 67.128510
107 0 1 10.175484 -5.120887 66.785400
108 0 1 9.551205 -4.473426 66.515411
109 0 1 8.604465 -4.114477 66.493805
110 0 1 8.220474 -3.543916 67.203918
111 0 1 7.315605 -3.288106 66.915588
112 0 1 7.522865 -4.240818 66.992096
113 0 1 7.191456 -4.832157 66.321808
114 0 1 7.663433 -5.645626 65.944092
115 0 1 8.024715 -5.374538 65.105713
116 0 1 7.799896 -6.096427 64.416382
117 0 1 8.550274 -5.563337 64.074219
118 0 1 8.767525 -5.913826 63.232391
119 0 1 9.511482 -6.359226 63.673706
120 0 1 9.131386 -6.885927 64.391296
121 0 1 8.783695 -7.796627 64.011597
122 0 1 7.880302 -8.026427 63.735596
123 0 1 7.077873 -7.649627 64.035004
124 0 1 6.213432 -7.331127 63.768494
125 0 1 6.168823 -8.300126 63.734802
126 0 1 5.314793 -7.830028 63.814911
127 0 1 5.128323 -7.184227 64.471008
128 0 1 4.582565 -6.634227 63.778290
129 0 1 3.627815 -6.657827 63.625702
130 0 1 2.724280 -6.917728 63.623413
131 0 1 3.082274 -6.773727 64.492188
132 0 1 3.633534 -6.927227 65.201691
133 0 1 2.694069 -6.934726 65.359009
134 0 1 2.566122 -7.833625 65.423889
135 0 1 1.994766 -8.594426 65.238098
136 0 1 1.391575 -8.912227 65.953613
137 0 1 0.884833 -9.063228 65.177002
138 0 1 0.842093 -8.441325 64.510406
139 0 1 0.582325 -8.102527 63.682587
140 0 1 0.289314 -7.265827 63.289703
141 0 1 -0.550125 -6.971227 62.994293
142 0 1 -0.796295 -7.414726 62.176392
143 0 1 -1.629696 -7.625728 62.550293
144 0 1 -1.216646 -8.407027 62.101807
145 0 1 -0.562095 -8.813926 62.637390
146 0 1 -0.417585 -9.578326 62.029205
147 0 1 -0.660465 -10.147227 61.309387
148 0 1 -1.335377 -10.055226 60.597809
149 0 1 -1.568556 -10.855026 61.082306
150 0 1 -1.759395 -10.269526 61.823395
151 0 1 -1.343645 -9.672126 62.466614
152 0 1 -1.719456 -10.426326 62.889008
153 0 1 -2.595045 -9.931026 62.846802
154 0 1 -3.537895 -9.613027 62.992889
155 0 1 -3.873605 -9.687625 62.084595
156 0 1 -4.040276 -10.553327 62.452911
157 0 1 -4.908195 -10.452927 63.022003
158 0 1 -5.748226 -9.917926 63.023193
159 0 1 -6.389206 -9.340226 63.393402
160 0 1 -6.614096 -8.596828 63.973694
161 0 1 -7.058624 -9.018928 64.665100
162 0 1 -6.812565 -9.855426 64.165009
163 0 1 -6.017656 -10.396126 64.310699
164 0 1 -5.962425 -10.356627 65.220795
165 0 1 -6.073206 -11.397626 65.180298
166 0 1 -6.012686 -11.076527 66.103607
167 0 1 -5.774126 -10.852626 67.002594
168 0 1 -6.230896 -10.632526 67.830505
169 0 1 -6.652586 -11.451126 67.524292
170 0 1 -7.417576 -10.955126 67.064087
171 0 1 -7.935635 -11.720626 66.985413
172 0 1 -8.106697 -11.256726 66.097809
173 0 1 -8.961395 -11.059826 65.526703
174 0 1 -8.434996 -11.668726 64.904419
175 0 1 -8.223396 -10.707626 64.749298
176 0 1 -8.488697 -10.059926 65.359589
177 0 1 -9.239096 -9.614326 64.977600
178 0 1 -10.161495 -10.000327 65.160583
179 0 1 -9.923796 -10.956926 65.256500
180 0 1 -10.112196 -11.713926 64.705200
181 0 1 -10.717796 -10.970326 64.421997
182 0 1 -11.247295 -11.601626 63.924805
183 0 1 -12.201397 -11.799326 64.105896
184 0 1 -13.067996 -11.637026 63.788910
185 0 1 -13.884195 -12.058526 63.548096
186 0 1 -14.618395 -11.524626 63.855988
187 0 1 -14.802896 -10.679826 63.421814
188 0 1 -14.311695 -10.534526 64.202393
189 0 1 -14.525196 -9.733027 64.710083
190 0 1 -14.944296 -10.436827 65.225708
191 0 1 -15.533297 -10.679526 66.002197
192 0 1 -15.627096 -11.507027 65.489990
193 0 1 -15.112896 -12.212426 65.246887
194 0 1 -14.211796 -12.183326 64.700806
195 0 1 -13.424796 -12.555627 65.197388
196 0 1 -14.035995 -13.274627 65.425598
197 0 1 -14.707895 -12.873126 66.011292
198 0 1 -15.601696 -13.165227 66.103088
199 0 1 -16.212996 -12.336427 66.280090
200 0 1 -15.996996 -12.268327 67.178894
201 0 1 -16.549496 -13.135526 67.093384
202 0 1 -16.281696 -13.971526 67.337189
203 0 1 -15.567995 -14.637727 67.650391
204 0 1 -15.893696 -14.507127 68.514282
205 0 1 -15.051596 -13.990626 68.247101
206 0 1 -14.512995 -14.361827 67.508484
207 0 1 -14.793695 -15.413426 67.457214
208 0 1 -15.008896 -14.877927 66.772095
209 0 1 -14.993795 -15.231626 65.898102
210 0 1 -14.613695 -16.054827 65.635895
211 0 1 -15.499195 -16.568428 65.830597
212 0 1 -15.411396 -16.371927 64.820404
213 0 1 -15.677395 -15.466426 64.471619
214 0 1 -15.837095 -15.085826 63.548096
215 0 1 -16.184595 -14.567327 62.830597
216 0 1 -16.529495 -13.789826 62.429108
217 0 1 -16.231096 -13.206426 63.130005
218 0 1 -17.129496 -13.388227 63.242096
219 0 1 -17.424795 -12.662026 63.768707
220 0 1 -18.332695 -12.902526 63.908600
221 0 1 -18.324995 -13.689027 64.506714
222 0 1 -19.176895 -14.077926 64.755402
223 0 1 -19.903996 -13.552127 64.433807
224 0 1 -20.794895 -13.853826 64.618195
225 0 1 -20.693695 -12.953425 64.289490
226 0 1 -19.882696 -12.376327 64.643982
227 0 1 -19.664196 -11.886527 65.420502
228 0 1 -18.957895 -11.293226 65.250793
229 0 1 -18.781897 -11.075326 66.146301
230 0 1 -18.693495 -10.650426 67.034912
231 0 1 -19.547396 -10.370326 66.677704
232 0 1 -19.759895 -10.867126 67.471893
233 0 1 -19.250795 -11.565426 66.973389
234 0 1 -19.972795 -11.965426 67.551605
235 0 1 -20.776096 -12.339726 67.932190
236 0 1 -20.483595 -11.921327 68.803101
237 0 1 -20.562996 -11.332626 68.082703
238 0 1 -20.907597 -10.465226 68.125488
239 0 1 -21.469196 -9.746026 68.518799
240 0 1 -21.069496 -8.971927 69.015015
241 0 1 -21.365696 -8.290326 69.671509
242 0 1 -21.330996 -7.818727 68.879517
243 0 1 -22.056995 -8.449527 68.720398
244 0 1 -22.001295 -8.571727 67.799103
245 0 1 -22.357096 -7.736827 68.060791
246 0 1 -22.291296 -6.772525 68.199219
247 0 1 -22.953096 -6.217826 68.583405
248 0 1 -23.300295 -5.363716 68.449799
249 0 1 -23.939396 -5.226448 69.188995
250 0 1 -23.940496 -4.531208 68.486084
251 0 1 -23.652596 -4.089386 67.718201
252 0 1 -23.413696 -4.216228 66.764282
253 0 1 -23.878395 -3.347156 66.887909
254 0 1 -23.631596 -2.433427 67.166687
255 0 1 -22.791895 -2.210887 67.696289
256 0 1 -21.891495 -1.852746 67.371796
257 0 1 -21.175695 -1.535648 67.964600
258 0 1 -20.751596 -1.831277 68.802307
259 0 1 -21.324696 -0.959556 69.017090
260 0 1 -22.020296 -0.345607 69.235901
261 0 1 -21.505396 0.540303 69.323914
262 0 1 -20.654097 0.224164 69.391418
263 0 1 -20.770596 0.155102 70.317596
264 0 1 -20.609196 0.981574 70.719391
265 0 1 -20.984995 0.502074 71.517792
266 0 1 -21.043695 0.868193 72.382690
267 0 1 -20.213995 1.191094 72.075806
268 0 1 -19.563896 1.705372 71.632507
269 0 1 -18.940796 1.111483 72.156799
270 0 1 -18.265095 1.685103 71.680908
271 0 1 -17.501196 1.121773 71.650299
272 0 1 -17.203695 2.045563 71.516998
273 0 1 -16.479897 2.541434 71.072083
274 0 1 -16.117796 2.869963 70.262909
275 0 1 -15.513195 3.368979 69.660889
276 0 1 -15.910196 2.954264 68.882599
277 0 1 -15.909595 2.939232 67.908600
278 0 1 -16.832495 3.087834 67.966187
279 0 1 -16.613495 2.944203 67.048004
280 0 1 -16.100697 2.051293 67.044708
281 0 1 -16.296795 1.873664 68.010986
282 0 1 -16.785397 2.222563 68.852509
283 0 1 -16.601595 1.319974 69.087006
284 0 1 -15.856195 0.963383 68.539703
285 0 1 -15.387396 0.438613 67.859985
286 0 1 -15.894896 -0.084257 67.266205
287 0 1 -16.787395 0.384783 67.356995
288 0 1 -16.497295 0.205704 66.471893
289 0 1 -15.781496 0.524603 65.949005
290 0 1 -16.297895 1.160493 65.356689
291 0 1 -16.506395 1.519133 64.436310
292 0 1 -16.290297 2.315524 63.925812
293 0 1 -15.771095 2.574744 63.165192
294 0 1 -15.282295 3.392502 63.249084
295 0 1 -15.479595 3.748559 62.425812
296 0 1 -14.743395 3.669899 61.782990
297 0 1 -14.234396 4.442814 62.026917
298 0 1 -14.568796 5.161747 61.519806
299 0 1 -14.085795 5.267344 60.724304
300 0 1 -13.354496 5.963162 60.874603
301 0 1 -13.051096 5.859513 59.962097
302 0 1 -12.581196 6.270241 59.220215
303 0 1 -11.910397 6.840764 59.579285
304 0 1 -11.767296 6.910443 60.492706
305 0 1 -11.247395 7.041123 61.284790
306 0 1 -10.479595 7.120114 61.885406
307 0 1 -11.057297 6.400403 62.279510
308 0 1 -11.915497 6.551373 62.624298
309 0 1 -12.770996 6.161843 62.759796
310 0 1 -13.461196 6.213994 63.524994
311 0 1 -13.259995 5.300972 63.435394
312 0 1 -13.427296 4.615752 64.137207
313 0 1 -14.079796 3.836979 64.274414
314 0 1 -14.618395 3.975031 65.058411
315 0 1 -14.776596 3.479895 65.902100
316 0 1 -14.099095 2.979844 66.340881
317 0 1 -13.937796 2.150303 66.771606
318 0 1 -13.025696 1.719433 66.832886
319 0 1 -13.189896 2.631133 67.205811
320 0 1 -12.366596 2.866534 67.623596
321 0 1 -11.587395 2.371893 67.505005
322 0 1 -11.184395 1.486622 67.345001
323 0 1 -11.065994 1.459183 66.352417
324 0 1 -11.077295 2.426753 66.489197
325 0 1 -10.834396 3.146794 67.103699
326 0 1 -11.344496 3.708189 66.475708
327 0 1 -10.647095 3.930014 65.833191
328 0 1 -11.217094 3.479626 65.209808
329 0 1 -11.578396 3.281075 64.324402
330 0 1 -12.048695 2.538674 64.098511
331 0 1 -12.027496 2.972252 63.224091
332 0 1 -11.146397 2.771033 62.899597
333 0 1 -11.089096 2.235882 62.031494
334 0 1 -11.319695 2.784474 61.275513
335 0 1 -11.916996 3.241763 60.696991
336 0 1 -12.432695 4.064692 60.690094
337 0 1 -12.455496 4.342696 59.749207
338 0 1 -11.702095 4.046738 59.200989
339 0 1 -10.890696 4.289971 58.742096
340 0 1 -10.192295 4.248513 59.449097
341 0 1 -9.441597 4.857840 59.788300
342 0 1 -10.192097 5.405154 59.463013
343 0 1 -10.172895 5.901604 58.623413
344 0 1 -10.975895 5.389193 58.354095
345 0 1 -11.516495 6.131554 58.032288
346 0 1 -10.577196 6.246735 57.806091
347 0 1 -9.862297 6.335133 57.119690
348 0 1 -9.780495 5.382782 57.071716
349 0 1 -8.990395 4.870583 56.955811
350 0 1 -9.574896 4.922446 56.163605
351 0 1 -10.183895 4.171475 56.226593
352 0 1 -10.230297 3.504145 55.475586
353 0 1 -9.526997 3.392367 56.119202
354 0 1 -10.061996 2.695534 56.363495
355 0 1 -10.347095 2.313374 55.536499
356 0 1 -9.871895 1.727883 54.948792
357 0 1 -10.345196 1.485963 54.128387
358 0 1 -11.172695 1.612164 53.614899
359 0 1 -11.310295 0.721314 53.942596
360 0 1 -11.363596 -0.217496 53.713104
361 0 1 -11.922794 -0.955747 54.023590
362 0 1 -12.385796 -1.078086 54.906097
363 0 1 -13.159495 -0.789386 55.535797
364 0 1 -13.067395 0.116374 55.675201
365 0 1 -12.922895 0.612143 54.865112
366 0 1 -13.743695 0.689614 54.295898
367 0 1 -13.725296 1.274293 53.575409
368 0 1 -14.339396 1.432114 52.893494
369 0 1 -15.215197 1.224703 53.062408
370 0 1 -15.527096 1.719863 53.906799
371 0 1 -16.217796 1.085843 54.182312
372 0 1 -16.947996 1.548304 53.756805
373 0 1 -17.008396 0.977343 52.976685
374 0 1 -17.926497 0.769223 52.658203
375 0 1 -18.627195 1.269894 53.046295
376 0 1 -18.710796 2.138793 52.684509
377 0 1 -19.165396 2.959692 52.404510
378 0 1 -18.489996 3.565812 52.856598
379 0 1 -17.709995 3.895104 53.372314
380 0 1 -17.064695 4.526757 53.057312
381 0 1 -16.181496 4.511860 52.717499
382 0 1 -16.271496 3.886094 53.495605
383 0 1 -15.541895 3.817750 54.158813
384 0 1 -14.815195 4.331740 53.829712
385 0 1 -15.114395 4.012269 53.003296
386 0 1 -15.065996 3.396279 52.311707
387 0 1 -14.769396 2.945544 51.535095
388 0 1 -14.304996 2.372242 52.148407
389 0 1 -13.678696 1.955884 51.531799
390 0 1 -13.789395 0.992083 51.490509
391 0 1 -12.997995 0.540244 51.037598
392 0 1 -12.690596 -0.219577 51.620209
393 0 1 -11.987495 0.486224 51.687988
394 0 1 -12.684795 0.891003 52.208801
395 0 1 -12.330395 1.045983 53.157593
396 0 1 -12.334696 2.024964 52.976990
397 0 1 -12.542095 1.898203 51.975006
398 0 1 -12.434196 1.874314 51.043701
399 0 1 -11.544697 1.868653 50.687408
400 0 1 -11.048695 1.112153 50.238403
401 0 1 -10.240696 1.101174 49.691498
402 0 1 -9.485096 1.446433 49.214417
403 0 1 -8.984396 1.998513 48.609100
404 0 1 -8.095146 1.891644 48.374084
405 0 1 -7.706825 2.780154 48.844391
406 0 1 -7.883255 3.103764 49.797791
407 0 1 -7.384956 3.783364 50.259888
408 0 1 -8.298296 3.954836 50.363403
409 0 1 -8.270596 4.075203 49.406616
410 0 1 -9.042696 3.509415 49.468109
411 0 1 -9.641195 3.265063 48.759094
412 0 1 -10.128595 2.493483 48.529297
413 0 1 -10.511896 3.322625 48.294495
414 0 1 -9.872995 3.489525 47.581909
415 0 1 -10.518696 2.877263 47.226807
416 0 1 -10.952995 3.655846 46.783508
417 0 1 -11.649096 4.140906 47.382507
418 0 1 -11.265297 4.975886 47.316101
419 0 1 -12.011896 4.915450 46.761200
420 0 1 -12.477196 5.678452 46.447296
421 0 1 -11.731697 5.920495 45.817902
422 0 1 -12.417995 6.266572 45.247314
423 0 1 -11.638596 6.019475 44.683594
424 0 1 -11.896696 5.829503 43.692505
425 0 1 -12.792496 5.672823 43.513611
426 0 1 -13.047895 5.413884 42.573212
427 0 1 -13.571496 4.656405 42.983307
428 0 1 -13.488396 3.819554 43.396210
429 0 1 -14.397196 3.520825 43.789307
430 0 1 -13.819996 3.207562 44.523987
431 0 1 -13.497995 2.271863 44.677002
432 0 1 -13.542496 1.536124 45.246613
433 0 1 -12.594095 1.245743 45.297699
434 0 1 -12.943095 1.238774 44.380493
435 0 1 -11.967796 1.328154 44.145996
436 0 1 -11.076694 0.938353 44.043396
437 0 1 -10.760696 0.174273 44.483215
438 0 1 -11.295996 -0.497486 44.896698
439 0 1 -12.072495 0.068024 45.131897
440 0 1 -11.583996 0.208504 45.980804
441 0 1 -12.462196 0.533463 46.131500
442 0 1 -13.290596 0.380593 45.700500
443 0 1 -13.423196 -0.292596 45.006989
444 0 1 -13.484595 -0.715907 44.157898
445 0 1 -14.376295 -1.069415 44.091614
446 0 1 -14.937996 -0.791067 44.813110
447 0 1 -14.994095 0.165654 44.757599
448 0 1 -15.624496 -0.131307 44.130707
449 0 1 -16.153696 -0.509366 43.431213
450 0 1 -16.691996 0.151562 42.963898
451 0 1 -16.516396 0.960204 42.542389
452 0 1 -16.569195 1.852454 43.010315
453 0 1 -15.694395 2.128293 43.367401
454 0 1 -15.846395 2.636483 42.558716
455 0 1 -16.156595 3.078564 41.729492
456 0 1 -16.829296 3.714577 41.332703
457 0 1 -16.975996 4.264512 42.134216
458 0 1 -17.792696 4.826348 42.242889
459 0 1 -18.073996 5.760254 42.317413
460 0 1 -18.398497 5.447964 43.158508
461 0 1 -17.583895 5.057322 43.405792
462 0 1 -17.181696 5.380873 44.210388
463 0 1 -16.368496 5.960503 44.044708
464 0 1 -16.305195 6.887253 44.183990
465 0 1 -15.562195 7.262173 44.687103
466 0 1 -15.088196 6.837632 43.970795
467 0 1 -14.338495 6.594052 43.375397
468 0 1 -14.042096 7.281483 43.865204
469 0 1 -13.846895 7.546814 42.922089
470 0 1 -13.932296 8.406182 42.544403
471 0 1 -14.421896 8.299203 41.736511
472 0 1 -15.296795 8.674012 41.595093
473 0 1 -15.813896 8.270173 40.888092
474 0 1 -15.079296 7.692673 41.084808
475 0 1 -15.066496 7.232583 40.255890
476 0 1 -14.933796 7.347363 39.363892
477 0 1 -14.942396 8.271623 39.289398
478 0 1 -14.879795 8.609956 38.340302
479 0 1 -13.951595 8.233483 38.334808
480 0 1 -14.049096 9.163373 37.921387
481 0 1 -13.782096 9.190503 37.007507
482 0 1 -14.177196 9.319623 36.162109
483 0 1 -14.892195 9.723775 35.709991
484 0 1 -15.304796 8.887403 35.843384
485 0 1 -16.350195 8.657342 35.949493
486 0 1 -16.400095 9.604833 35.895386
487 0 1 -16.802795 10.474164 36.092804
488 0 1 -17.717297 10.645875 36.206909
489 0 1 -18.681696 10.746793 36.020905
490 0 1 -19.577396 10.634183 35.734100
491 0 1 -20.512495 10.393155 35.529297
492 0 1 -21.266296 10.027123 35.899689
493 0 1 -21.751596 9.928796 36.766113
494 0 1 -20.895996 10.375493 36.945007
495 0 1 -20.126696 9.769593 37.055908
496 0 1 -20.274996 8.781594 36.784088
497 0 1 -19.430996 9.066705 36.468109
498 0 1 -18.473295 8.836514 36.233307
499 0 1 -18.079695 9.010472 37.085083
500 0 1 -17.961796 9.501435 37.898499
501 0 1 -17.960695 10.455373 38.093903
502 0 1 -18.805296 10.298924 38.438416
503 0 1 -18.287796 9.709653 38.986084
504 0 1 -17.958195 9.934152 39.845398
505 0 1 -18.645096 10.545133 40.202209
506 0 1 -19.274996 10.258805 40.933502
507 0 1 -19.667095 9.754815 40.230804
508 0 1 -20.399496 10.348653 40.228210
509 0 1 -20.053795 11.200353 39.946716
510 0 1 -19.596695 11.595395 40.633606
511 0 1 -20.181095 12.146054 41.110992
512 0 1 -19.646196 12.601003 41.860107
513 0 1 -19.380596 13.267602 42.498688
514 0 1 -18.426195 12.982373 42.609192
515 0 1 -18.669195 13.033814 43.505005
516 0 1 -17.863495 13.437264 43.650909
517 0 1 -17.553596 13.481812 44.561005
518 0 1 -16.611395 13.352532 44.637085
519 0 1 -16.669695 12.530103 44.215698
520 0 1 -17.051596 11.701673 44.444611
521 0 1 -16.210596 11.528794 44.085907
522 0 1 -16.821396 11.908765 43.445984
523 0 1 -17.299095 12.599862 42.874207
524 0 1 -16.928795 13.495015 43.109100
525 0 1 -16.155296 13.103234 42.594116
526 0 1 -15.296597 13.102395 42.122986
527 0 1 -15.541895 12.936803 41.169983
528 0 1 -16.482996 13.209664 41.193115
529 0 1 -16.300295 13.894143 40.509003
530 0 1 -15.914696 13.932382 39.547302
531 0 1 -15.697796 13.455865 38.764893
532 0 1 -15.799696 12.569604 38.675598
533 0 1 -16.084595 11.952985 38.042114
534 0 1 -15.110096 11.923093 38.367188
535 0 1 -14.333696 11.354936 38.538391
536 0 1 -13.731396 11.569352 39.251801
537 0 1 -13.078996 11.734834 40.042603
538 0 1 -12.433096 11.939305 40.702515
539 0 1 -11.978195 12.696153 41.071716
540 0 1 -12.517296 13.437253 40.815613
541 0 1 -12.338396 13.919015 41.622803
542 0 1 -13.153296 14.150823 42.045288
543 0 1 -13.557296 15.129373 41.918701
544 0 1 -12.938295 15.863973 42.092590
545 0 1 -13.312595 15.709973 43.023987
546 0 1 -12.656996 15.100076 43.134003
547 0 1 -12.142296 14.606874 42.540283
548 0 1 -11.360294 14.394273 43.067596
549 0 1 -10.958694 14.888974 43.746307
550 0 1 -10.138695 15.502072 43.703613
551 0 1 -10.411095 15.903771 44.496887
552 0 1 -10.365196 15.893472 45.460693
553 0 1 -9.622097 15.220773 45.641785
554 0 1 -9.039896 15.014573 46.453094
555 0 1 -8.313896 15.658772 46.347290
556 0 1 -7.826145 15.832871 45.469513
557 0 1 -8.461596 15.623376 44.779694
558 0 1 -8.464195 14.973374 44.033295
559 0 1 -7.822056 14.456773 44.604492
560 0 1 -7.146086 13.861482 45.001587
561 0 1 -7.642075 13.097844 44.723816
562 0 1 -8.044254 12.987824 45.511414
563 0 1 -8.675995 12.886205 44.823792
564 0 1 -9.446297 12.292184 45.050293
565 0 1 -9.893295 12.040555 44.182312
566 0 1 -10.215296 11.157983 44.178711
567 0 1 -11.084295 10.941133 44.411987
568 0 1 -10.359396 10.622415 45.006287
569 0 1 -10.016296 9.776216 45.249603
570 0 1 -9.290195 10.039712 44.701508
571 0 1 -9.714294 10.016084 43.853394
572 0 1 -9.801296 10.112016 42.922211
573 0 1 -9.247995 9.679292 42.221802
574 0 1 -8.584696 10.320596 41.872894
575 0 1 -7.743484 9.862443 41.704407
576 0 1 -7.633224 9.134583 42.347992
577 0 1 -7.671236 8.214974 42.419403
578 0 1 -8.236496 7.696274 41.848511
579 0 1 -8.134396 7.105042 41.086090
580 0 1 -8.108086 6.150864 40.945709
581 0 1 -8.254995 6.394223 40.056702
582 0 1 -7.711626 7.236023 39.934692
583 0 1 -7.564957 8.099122 40.299805
584 0 1 -8.044466 8.517392 41.038788
585 0 1 -9.002296 8.637433 41.343384
586 0 1 -9.287596 8.841523 40.518494
587 0 1 -9.996395 9.392804 40.727295
588 0 1 -10.740196 8.712785 40.883209
589 0 1 -11.331696 8.750203 41.635193
590 0 1 -12.166796 8.353143 41.243408
591 0 1 -12.377094 8.991735 40.543091
592 0 1 -12.482796 9.500405 39.743591
593 0 1 -12.655096 9.116555 38.851105
594 0 1 -11.822495 9.202134 38.541595
595 0 1 -12.027796 9.279283 37.626495
596 0 1 -11.516596 10.122735 37.468201
597 0 1 -10.571095 9.862184 37.551208
598 0 1 -9.674095 9.927693 37.893494
599 0 1 -8.814095 10.194844 38.294891
600 0 1 -7.971596 10.621812 38.082489
601 0 1 -7.368275 11.322064 37.838593
602 0 1 -7.402346 12.205613 37.578613
603 0 1 -6.988537 12.520802 38.361389
604 0 1 -6.818756 12.358842 39.242493
605 0 1 -6.694925 11.474095 38.874695
606 0 1 -5.887945 11.535634 38.333893
607 0 1 -5.045197 11.404603 38.721802
608 0 1 -4.455357 11.618684 37.960907
609 0 1 -4.222095 12.010003 37.094513
610 0 1 -4.922775 12.638741 37.130005
611 0 1 -4.521076 13.353662 36.661804
612 0 1 -4.987955 13.663785 35.912109
613 0 1 -4.362005 13.812455 35.155304
614 0 1 -4.357944 12.898435 35.369690
615 0 1 -4.886005 12.977563 34.575287
616 0 1 -5.657446 12.712525 34.042908
617 0 1 -5.587776 12.030354 34.688293
618 0 1 -5.274975 11.136853 34.895508
619 0 1 -4.620975 10.410855 34.759491
620 0 1 -4.645115 9.520253 34.561707
621 0 1 -3.965065 9.249413 33.976196
622 0 1 -3.810276 8.313542 33.700195
623 0 1 -4.470106 7.713643 33.363495
624 0 1 -4.860435 8.524072 32.957489
625 0 1 -5.164936 7.738102 32.488800
626 0 1 -5.156086 8.301915 31.733400
627 0 1 -5.020535 8.057973 30.835299
628 0 1 -5.685307 8.223084 30.161898
629 0 1 -6.510357 8.198373 30.616304
630 0 1 -5.945107 8.906663 31.013491
631 0 1 -6.783525 9.398332 31.053896
632 0 1 -7.747786 9.575322 31.120089
633 0 1 -7.220257 10.369824 30.962008
634 0 1 -6.586765 11.123956 30.921206
635 0 1 -7.030525 11.588624 30.216097
636 0 1 -7.448677 12.213025 30.830812
637 0 1 -8.121906 11.923554 30.253389
638 0 1 -8.786495 11.893674 29.587404
639 0 1 -9.385096 11.146363 29.515200
640 0 1 -9.744095 10.339204 29.955904
641 0 1 -10.467596 10.022862 30.627687
642 0 1 -10.265095 9.018643 30.691286
643 0 1 -9.360497 9.331944 30.364107
644 0 1 -9.623295 9.570935 29.388918
645 0 1 -8.705597 9.859235 29.328310
646 0 1 -8.219095 9.054154 29.543703
647 0 1 -7.788385 8.188935 29.440187
648 0 1 -6.995216 7.629502 29.455202
649 0 1 -6.371204 8.025662 28.739290
650 0 1 -5.580975 8.478234 28.417391
651 0 1 -4.870756 7.856705 28.802614
652 0 1 -4.554476 7.258374 28.082003
653 0 1 -4.366196 6.442994 28.569613
654 0 1 -3.490406 6.392815 28.920900
655 0 1 -3.695575 5.609244 28.471010
656 0 1 -3.471336 4.757941 28.091707
657 0 1 -2.467827 4.775765 28.325411
658 0 1 -2.987215 4.754536 29.148592
659 0 1 -2.247486 4.741309 29.785006
660 0 1 -2.547836 5.209113 30.600405
661 0 1 -3.160795 5.976895 30.703005
662 0 1 -3.143875 6.513173 31.551302
663 0 1 -2.445255 6.719964 30.985506
664 0 1 -1.590286 7.308484 31.048311
665 0 1 -1.151005 7.039704 30.266603
666 0 1 -0.519285 7.413674 30.914492
667 0 1 0.244755 7.815594 30.472109
668 0 1 0.749314 7.837082 31.350588
669 0 1 0.816975 8.720025 31.737490
670 0 1 1.737370 8.630155 32.163086
671 0 1 1.089348 8.151265 32.846313
672 0 1 1.559752 8.598485 33.508606
673 0 1 2.107094 8.948483 34.273804
674 0 1 2.326834 9.163552 35.164307
675 0 1 2.359270 10.015004 35.592590
676 0 1 2.388750 10.958283 35.834412
677 0 1 3.428585 11.018525 35.908905
678 0 1 3.620846 10.126145 35.889191
679 0 1 4.493664 9.862283 35.986389
680 0 1 4.627064 10.396745 36.779388
681 0 1 5.593876 10.593785 36.886108
682 0 1 6.327682 10.563432 36.255493
683 0 1 7.204346 10.596402 35.787811
684 0 1 6.550034 10.634835 35.065704
685 0 1 6.764023 11.286454 34.441803
686 0 1 6.566204 12.045545 35.015198
687 0 1 7.113453 12.775155 34.761414
688 0 1 7.655952 12.329793 34.068512
689 0 1 7.580723 11.632604 33.379089
690 0 1 7.061375 12.297273 32.970215
691 0 1 6.244343 12.567433 32.502991
692 0 1 7.022083 12.854573 32.110687
693 0 1 6.769024 13.512124 32.846985
694 0 1 6.487415 14.382073 33.159088
695 0 1 6.373962 15.142274 33.754303
696 0 1 6.953175 15.366273 32.967896
697 0 1 7.626366 15.844174 33.379303
698 0 1 8.172012 15.007676 33.254913
699 0 1 8.301926 14.953073 32.330109
700 0 1 8.064625 15.773072 31.807497
701 0 1 7.396915 15.218274 31.557405
702 0 1 6.540184 15.227876 32.017883
703 0 1 6.005344 14.482175 32.112091
704 0 1 6.510574 13.809415 31.522493
705 0 1 6.914204 13.930703 30.670992
706 0 1 7.290684 14.260575 29.835817
707 0 1 7.817436 14.566972 29.125795
708 0 1 7.555115 14.169873 28.302187
709 0 1 8.024094 13.424695 28.730898
710 0 1 8.683933 13.569566 28.099611
711 0 1 9.424385 14.103425 27.722689
712 0 1 10.356014 14.218072 27.432589
713 0 1 10.130566 13.394895 27.032015
714 0 1 9.288162 13.028504 26.846712
715 0 1 9.733494 12.922044 26.016512
716 0 1 10.483505 13.197545 25.416201
717 0 1 10.438755 14.022882 25.895601
718 0 1 10.800884 14.790872 25.444887
719 0 1 11.561394 14.496675 25.940187
720 0 1 12.161507 13.715955 25.818605
721 0 1 13.025105 13.751565 25.397310
722 0 1 13.058403 13.010392 24.756899
723 0 1 13.276905 12.604173 25.610903
724 0 1 12.514404 12.074876 25.555788
725 0 1 11.635117 12.487756 25.474001
726 0 1 11.070984 12.007646 24.837801
727 0 1 12.001205 12.004075 24.545900
728 0 1 11.718555 11.040242 24.299593
729 0 1 11.374615 10.641053 23.450594
730 0 1 11.313904 9.666173 23.780092
731 0 1 10.372425 9.445245 23.434298
732 0 1 10.163315 9.232762 24.278292
733 0 1 9.475983 8.859056 24.890688
734 0 1 9.356422 8.959863 25.865511
735 0 1 10.243896 9.165883 26.137514
736 0 1 10.953766 9.796983 26.030397
737 0 1 11.552773 10.506944 26.342287
738 0 1 12.485104 10.349252 26.697908
739 0 1 12.184204 9.580865 27.164492
740 0 1 12.857002 8.910935 27.439302
741 0 1 12.914204 7.916115 27.163301
742 0 1 12.902405 6.988232 26.780886
743 0 1 13.148506 6.251313 26.228609
744 0 1 13.950603 6.247414 26.735689
745 0 1 14.070904 5.954632 27.592897
746 0 1 13.449406 5.274933 27.909212
747 0 1 12.609104 5.643902 27.567904
748 0 1 13.029305 6.444603 27.851686
749 0 1 12.474903 6.637162 28.677095
750 0 1 11.972404 5.793782 28.881014
751 0 1 11.123615 5.702694 28.498690
752 0 1 11.307453 6.663971 28.492189
753 0 1 11.350494 6.924065 29.476809
754 0 1 11.084614 7.832795 29.840609
755 0 1 11.706036 7.612332 30.541903
756 0 1 10.866535 7.784932 31.055208
757 0 1 10.436123 7.008034 31.490114
758 0 1 10.667263 6.173893 31.171511
759 0 1 9.908806 6.281525 30.675692
760 0 1 9.321705 6.720433 29.895815
761 0 1 8.824295 6.309391 29.210512
762 0 1 8.111473 6.439072 29.738497
763 0 1 7.270184 6.000042 29.648989
764 0 1 7.750515 5.204333 29.482607
765 0 1 6.796505 5.032004 29.551790
766 0 1 7.054615 4.336329 30.296907
767 0 1 7.612785 3.921689 29.667116
768 0 1 7.393673 2.959103 29.398806
769 0 1 7.131893 2.261652 28.768190
770 0 1 6.822243 1.767623 27.973909
771 0 1 5.910313 1.564814 28.015902
772 0 1 6.426704 1.010724 28.645510
773 0 1 6.715584 0.544343 27.820192
774 0 1 7.239044 0.245673 28.550417
775 0 1 7.807583 0.818074 27.972902
776 0 1 8.740086 0.715083 28.140810
777 0 1 9.136524 -0.095506 28.400789
778 0 1 9.357853 -0.340417 27.529909
779 0 1 10.032784 -0.735147 26.935701
780 0 1 9.177284 -0.810676 26.435488
781 0 1 9.023575 -1.487096 27.066591
782 0 1 9.302654 -2.295467 26.677797