LAMMPS data file via MDAnalysis

        2000  atoms
        1999  bonds
           0  angles
           0  dihedrals
           0  impropers

           1  atom types
           1  bond types
           0  angle types
           0  dihedral types
           0  improper types

-30.5 30.5 xlo xhi
-30.5 30.5 ylo yhi
-233.5 233.5 zlo zhi


Masses

1 1.000000

Atoms

1 0 1 9.476949 13.691322 16.344101
2 0 1 9.602258 14.403023 17.036102
3 0 1 10.525929 14.618523 17.077606
4 0 1 10.731168 15.015923 16.216995
5 0 1 10.701898 14.007221 16.218399
6 0 1 11.676259 13.746120 16.281601
7 0 1 11.414979 13.145321 15.542207
8 0 1 12.079400 13.777424 15.160905
9 0 1 11.450177 14.210621 14.550202
10 0 1 10.691598 13.760422 14.184999
11 0 1 11.000447 13.771523 13.338197
12 0 1 11.000207 13.550022 12.340898
13 0 1 11.703740 13.075420 12.700105
14 0 1 11.990369 12.233921 12.923905
15 0 1 12.234769 12.069622 11.969499
16 0 1 12.277139 11.816124 11.037202
17 0 1 11.333379 11.614422 11.283097
18 0 1 10.715619 10.866524 11.457704
19 0 1 10.640698 10.244221 10.637895
20 0 1 10.294797 10.224823 9.774323
21 0 1 9.811528 10.968624 9.290208
22 0 1 8.995889 10.858624 9.796159
23 0 1 8.663327 11.704723 9.330705
24 0 1 8.028548 11.120323 8.960145
25 0 1 7.898358 10.577324 9.727647
26 0 1 6.995223 10.882725 9.554902
27 0 1 7.267695 11.565521 10.142503
28 0 1 7.126414 12.185223 10.851594
29 0 1 6.268128 12.527924 10.547608
30 0 1 5.449309 12.154324 10.798905
31 0 1 4.708859 12.713623 10.569306
32 0 1 4.362877 13.665524 10.442307
33 0 1 4.417788 14.556023 10.127503
34 0 1 5.285069 14.200420 10.456300
35 0 1 5.859040 14.907421 10.830995
36 0 1 5.783221 15.538525 10.152802
37 0 1 6.395596 15.672024 9.488786
38 0 1 5.978177 16.505520 9.340287
39 0 1 6.596741 17.285725 9.401444
40 0 1 5.863179 17.318722 8.731904
41 0 1 6.005108 18.132923 9.300019
42 0 1 6.488770 18.306622 10.093293
43 0 1 5.851117 18.688522 10.823594
44 0 1 5.932988 18.715321 11.912095
45 0 1 6.278891 18.549625 12.836595
46 0 1 5.758624 19.051624 13.446305
47 0 1 4.847798 19.206524 13.232697
48 0 1 4.203368 18.649624 13.734300
49 0 1 3.583878 18.792522 13.001100
50 0 1 2.730359 18.800121 13.343797
51 0 1 1.937388 19.039425 13.739305
52 0 1 1.170058 19.531223 13.399293
53 0 1 1.802258 20.251225 13.184007
54 0 1 2.411498 20.502522 12.491899
55 0 1 3.057879 21.084923 12.912507
56 0 1 3.876849 21.236721 12.415803
57 0 1 4.783749 21.123020 12.061601
58 0 1 5.729514 21.296722 11.856904
59 0 1 6.178303 21.403820 10.970597
60 0 1 5.456809 21.600822 10.293397
61 0 1 5.023938 22.087925 11.018800
62 0 1 4.845969 22.740322 11.817903
63 0 1 4.059208 22.819721 11.199601
64 0 1 3.641018 23.661724 11.237306
65 0 1 4.363448 23.864124 11.839601
66 0 1 4.365597 24.776123 12.055604
67 0 1 4.529198 24.984123 11.145295
68 0 1 5.285838 24.272022 11.136308
69 0 1 5.569607 24.364723 12.052400
70 0 1 6.293099 24.954823 11.763505
71 0 1 7.092627 24.948521 12.380494
72 0 1 7.209578 25.445522 13.209702
73 0 1 7.503129 24.718723 13.783097
74 0 1 7.371020 23.797924 13.460801
75 0 1 7.105875 23.781521 14.401399
76 0 1 6.639079 23.447723 15.173600
77 0 1 6.477787 24.020420 15.963593
78 0 1 5.761950 24.095821 15.317796
79 0 1 5.219439 23.561523 15.932694
80 0 1 4.347388 23.322521 16.059204
81 0 1 4.121249 22.468723 16.490601
82 0 1 3.447079 22.194622 15.918305
83 0 1 3.882529 21.403522 15.808900
84 0 1 3.342368 20.557720 15.846894
85 0 1 3.971068 19.860622 16.077896
86 0 1 4.856738 19.529224 16.063202
87 0 1 5.071417 19.899323 15.204804
88 0 1 4.799958 20.720623 14.844300
89 0 1 5.325898 21.383423 14.398499
90 0 1 6.248518 21.528122 14.541001
91 0 1 6.671811 21.490322 13.709504
92 0 1 7.069132 21.402721 12.864198
93 0 1 7.707509 21.120724 12.125794
94 0 1 8.678838 20.921623 12.189500
95 0 1 9.502030 20.578423 11.664201
96 0 1 10.231378 20.214924 12.208100
97 0 1 11.063859 20.539322 11.950898
98 0 1 11.774228 20.740124 12.551103
99 0 1 12.117761 20.036922 13.116395
100 0 1 11.891267 19.681820 12.227403
101 0 1 11.646058 18.834423 12.561997
102 0 1 11.757829 19.082325 13.478898
103 0 1 12.270238 18.777920 14.289201
104 0 1 13.041207 18.329220 13.871995
105 0 1 13.443097 18.742825 13.117799
106 0 1 14.320779 19.169125 13.097199
107 0 1 14.956651 19.628925 13.663407
108 0 1 14.977967 20.029922 14.649095
109 0 1 14.514787 20.667023 15.191697
110 0 1 14.395028 21.625023 15.391206
111 0 1 14.810861 22.031322 16.133804
112 0 1 15.187600 21.110622 16.142197
113 0 1 15.647649 21.637123 15.457902
114 0 1 16.097588 20.832123 15.284806
115 0 1 16.382187 20.018822 14.837098
116 0 1 16.127609 19.667923 13.952195
117 0 1 16.080067 18.904224 14.514802
118 0 1 15.481561 18.206921 14.505799
119 0 1 16.366459 17.820122 14.534501
120 0 1 16.383049 17.977222 15.522904
121 0 1 16.441498 17.911724 16.460999
122 0 1 16.573166 17.101025 15.875794
123 0 1 16.303448 16.292423 16.364899
124 0 1 16.391666 15.847324 17.226593
125 0 1 17.272575 15.955723 17.516602
126 0 1 16.954678 16.896523 17.358902
127 0 1 16.835178 17.820122 17.548798
128 0 1 16.037647 18.243320 17.925400
129 0 1 15.485078 17.990925 18.761505
130 0 1 14.668630 17.720222 19.146698
131 0 1 14.912328 18.157024 19.936005
132 0 1 14.685048 18.886322 20.536499
133 0 1 13.797067 18.535122 20.493805
134 0 1 13.703858 17.707325 19.935196
135 0 1 13.619550 17.233624 20.806702
136 0 1 14.372529 16.734623 20.682800
137 0 1 15.273007 16.869923 20.409805
138 0 1 16.161968 17.048923 20.008102
139 0 1 16.704086 17.476025 19.250305
140 0 1 17.600677 17.442425 19.536606
141 0 1 17.984978 17.607624 20.381897
142 0 1 18.955578 17.472622 20.583298
143 0 1 18.912979 16.554424 20.747406
144 0 1 18.033577 16.679920 21.173599
145 0 1 17.046677 16.821720 21.163498
146 0 1 16.676727 17.735023 21.215195
147 0 1 16.676357 18.680023 21.244904
148 0 1 16.039490 19.377422 21.350204
149 0 1 15.169770 19.736923 21.531998
150 0 1 14.260228 19.590221 21.177597
151 0 1 14.371099 20.564522 21.181900
152 0 1 14.107388 20.195225 20.407196
153 0 1 13.676599 20.753925 19.718796
154 0 1 12.994229 20.323521 19.173904
155 0 1 12.945729 21.238922 19.090897
156 0 1 12.858598 22.073322 18.546097
157 0 1 12.754140 22.875622 19.132507
158 0 1 13.658441 23.120823 19.065598
159 0 1 13.836427 24.030224 18.978195
160 0 1 14.637448 23.572723 18.762802
161 0 1 14.968141 22.889923 19.301895
162 0 1 14.856290 23.084621 20.282303
163 0 1 15.584519 22.421024 20.247192
164 0 1 16.261620 23.129723 20.204803
165 0 1 16.873577 22.442223 20.187698
166 0 1 16.616138 21.538223 20.169998
167 0 1 17.243576 20.847122 20.427307
168 0 1 17.925079 21.444721 20.131500
169 0 1 17.738480 22.228924 19.616302
170 0 1 18.664078 22.439522 19.431702
171 0 1 19.119877 21.729824 19.931396
172 0 1 19.969578 21.359921 19.739197
173 0 1 20.608677 20.573620 19.709000
174 0 1 21.443478 20.142422 20.070007
175 0 1 22.300777 20.323223 20.698502
176 0 1 23.221176 20.107021 20.440201
177 0 1 22.917278 19.828022 19.522400
178 0 1 23.113380 19.081821 20.189896
179 0 1 23.922977 18.532322 19.711899
180 0 1 24.251480 17.578323 19.962601
181 0 1 23.365078 17.715824 20.358704
182 0 1 22.752178 16.993923 20.643097
183 0 1 22.594978 16.283222 19.957901
184 0 1 21.618778 16.430023 19.902496
185 0 1 21.729679 15.777023 19.226395
186 0 1 21.136879 15.287624 19.833206
187 0 1 20.465679 15.324924 20.500595
188 0 1 20.664177 14.447323 20.910995
189 0 1 20.346878 14.699223 21.800003
190 0 1 20.346680 14.795223 22.754303
191 0 1 21.160080 14.283321 22.595612
192 0 1 21.906578 14.853622 22.921814
193 0 1 22.218376 15.651623 23.350311
194 0 1 22.456676 16.470623 23.794098
195 0 1 23.172577 15.992023 24.265289
196 0 1 22.392677 15.560123 24.587097
197 0 1 22.890377 15.677425 25.362915
198 0 1 23.808678 15.709621 25.700104
199 0 1 24.516380 15.518223 26.346313
200 0 1 24.907875 14.613224 26.254700
201 0 1 25.202778 15.231022 25.592285
202 0 1 25.835976 14.539524 25.874786
203 0 1 26.858578 14.580120 25.819214
204 0 1 27.685478 14.011124 25.760803
205 0 1 28.365177 13.329323 25.553314
206 0 1 28.667480 12.430523 25.624603
207 0 1 28.390778 11.507725 25.450989
208 0 1 28.396179 10.856625 24.736694
209 0 1 29.242577 10.944324 24.355194
210 0 1 29.844078 10.236324 24.054016
211 0 1 29.157478 9.781223 23.710907
212 0 1 28.649277 8.990623 23.900513
213 0 1 28.024277 8.840424 23.170990
214 0 1 27.727180 8.454243 22.345505
215 0 1 26.921280 8.723225 21.859604
216 0 1 26.241577 8.170143 22.321396
217 0 1 25.582779 7.743443 21.795593
218 0 1 24.785675 7.228642 21.878204
219 0 1 24.604080 6.348824 22.167908
220 0 1 24.873680 5.621693 22.783813
221 0 1 25.756077 5.839085 22.440598
222 0 1 25.890076 6.190571 23.325897
223 0 1 26.319477 5.834362 24.080505
224 0 1 26.892979 5.275471 24.771698
225 0 1 27.656479 4.889534 25.214294
226 0 1 27.129078 4.782742 26.055908
227 0 1 26.861877 3.908554 26.423004
228 0 1 26.226677 3.495964 27.057190
229 0 1 25.354576 4.034004 27.032593
230 0 1 25.388275 3.862213 26.115814
231 0 1 25.712379 4.779202 26.204102
232 0 1 24.910980 4.739902 25.578888
233 0 1 25.535778 5.396103 25.271210
234 0 1 25.948978 6.299812 25.023590
235 0 1 26.936180 6.450581 25.114014
236 0 1 26.492180 6.978703 25.806305
237 0 1 25.788677 6.896214 26.469116
238 0 1 25.013477 7.087864 27.021210
239 0 1 25.417076 6.582481 27.786194
240 0 1 25.879177 6.892490 28.657806
241 0 1 26.218781 7.774525 28.302704
242 0 1 25.975677 8.339493 27.549286
243 0 1 26.678879 7.877213 27.115692
244 0 1 27.361477 8.330322 27.686188
245 0 1 27.167278 8.882122 28.469910
246 0 1 27.414276 9.572823 27.816101
247 0 1 27.363380 9.395123 26.902893
248 0 1 26.642677 9.072521 26.408905
249 0 1 25.846478 9.458221 26.561707
250 0 1 25.081879 9.334423 27.049103
251 0 1 24.386177 9.809521 27.609314
252 0 1 24.492977 10.822922 27.502686
253 0 1 23.725079 11.075024 28.006989
254 0 1 23.228279 10.402821 27.497101
255 0 1 22.592979 9.887821 27.114197
256 0 1 22.005878 10.595020 27.639404
257 0 1 21.720779 11.189323 28.322693
258 0 1 21.081978 10.812523 29.037506
259 0 1 21.282978 10.140121 28.355194
260 0 1 21.120678 9.416622 27.757690
261 0 1 20.886978 9.052124 26.902405
262 0 1 20.191780 9.044323 27.530304
263 0 1 19.702877 8.783825 26.718811
264 0 1 18.858376 9.088524 26.926514
265 0 1 18.965679 8.488003 27.672607
266 0 1 18.277176 7.833012 28.062592
267 0 1 19.021179 7.461182 28.537292
268 0 1 18.536278 6.781094 28.879486
269 0 1 18.353279 6.152374 28.150696
270 0 1 17.385376 6.269722 28.400909
271 0 1 16.471809 6.397831 28.244690
272 0 1 16.521446 5.497543 28.583893
273 0 1 16.643570 4.968494 29.400787
274 0 1 16.034939 4.264454 29.159912
275 0 1 15.199410 4.402493 29.557007
276 0 1 14.572339 3.751713 29.344208
277 0 1 13.680890 4.000832 29.256012
278 0 1 12.905919 3.522755 29.434692
279 0 1 12.654958 3.585331 28.460114
280 0 1 11.934659 2.918534 28.288788
281 0 1 11.888127 1.938423 28.383087
282 0 1 11.518411 1.435162 29.101990
283 0 1 10.588548 1.219754 28.931000
284 0 1 9.642720 1.198231 28.937286
285 0 1 9.208318 1.966492 28.597900
286 0 1 8.309308 1.513493 28.743500
287 0 1 8.740819 1.674843 29.551392
288 0 1 7.947148 2.211983 29.735992
289 0 1 7.042412 2.186451 29.345398
290 0 1 6.688473 1.333012 29.128601
291 0 1 6.791310 1.021843 28.214294
292 0 1 7.146492 0.118973 28.472992
293 0 1 7.813109 -0.456051 28.744904
294 0 1 8.199828 -1.375385 28.944885
295 0 1 8.950360 -1.879381 29.203888
296 0 1 8.874558 -2.810417 28.862213
297 0 1 8.044068 -2.350738 28.483002
298 0 1 7.247485 -2.397936 29.039185
299 0 1 6.463959 -2.174364 28.538605
300 0 1 6.309567 -2.606037 27.653412
301 0 1 6.384547 -2.891308 26.753113
302 0 1 6.158169 -3.365278 25.939789
303 0 1 5.332089 -2.942417 25.558899
304 0 1 5.079628 -2.203737 26.126495
305 0 1 4.153039 -2.495397 26.183594
306 0 1 3.471509 -3.093868 26.426697
307 0 1 2.882428 -3.799766 26.517090
308 0 1 2.693459 -3.886028 27.495514
309 0 1 1.873028 -3.488207 27.595215
310 0 1 1.514178 -2.923286 28.266907
311 0 1 2.303708 -3.155428 28.843384
312 0 1 1.583378 -3.027187 29.614899
313 0 1 0.796837 -2.525038 29.555389
314 0 1 1.099059 -2.478737 30.487000
315 0 1 1.553708 -1.629883 30.317902
316 0 1 1.715768 -1.060352 29.543213
317 0 1 2.610539 -1.053879 29.144104
318 0 1 2.458289 -1.610441 28.411407
319 0 1 1.695378 -1.761871 27.830902
320 0 1 1.047909 -2.364818 27.526001
321 0 1 0.651658 -3.241647 27.676514
322 0 1 -0.197902 -2.876306 27.286499
323 0 1 -0.449972 -2.918808 28.248505
324 0 1 -1.134551 -2.980947 28.903992
325 0 1 -1.828163 -2.537687 29.465607
326 0 1 -1.278491 -2.138458 30.091400
327 0 1 -1.604930 -1.545856 30.789795
328 0 1 -2.004762 -0.726618 31.033295
329 0 1 -2.956703 -0.730144 31.381714
330 0 1 -3.652122 -0.403026 30.741913
331 0 1 -2.947011 -0.361097 30.044495
332 0 1 -2.852802 -1.319353 29.919006
333 0 1 -2.712492 -2.191210 30.246094
334 0 1 -3.543922 -2.582927 30.363007
335 0 1 -3.525222 -3.398548 29.802887
336 0 1 -4.403621 -3.818357 29.644714
337 0 1 -3.956022 -4.685877 29.567291
338 0 1 -3.543722 -4.431288 28.751190
339 0 1 -2.943973 -5.173128 28.482513
340 0 1 -2.067811 -5.202988 28.724304
341 0 1 -2.098352 -5.448158 29.653900
342 0 1 -1.230602 -5.076967 29.559204
343 0 1 -0.291252 -5.192657 29.632599
344 0 1 -0.020622 -4.736816 30.368408
345 0 1 0.454478 -3.995287 29.857697
346 0 1 -0.001502 -3.563198 30.590302
347 0 1 -0.085662 -3.129137 31.456512
348 0 1 -0.490602 -2.968616 32.337006
349 0 1 -1.344201 -3.360388 32.583588
350 0 1 -2.302532 -3.690307 32.572998
351 0 1 -2.860103 -2.982218 33.024689
352 0 1 -2.610052 -2.414827 33.784607
353 0 1 -3.537122 -2.591778 33.895294
354 0 1 -3.738222 -2.478027 32.972107
355 0 1 -3.861122 -3.412187 32.894592
356 0 1 -4.454921 -3.004987 32.235199
357 0 1 -4.596422 -2.334629 31.520813
358 0 1 -5.511222 -2.587667 31.553192
359 0 1 -5.905622 -2.580686 30.647797
360 0 1 -6.256622 -3.231388 31.158905
361 0 1 -6.830722 -3.918728 31.558197
362 0 1 -6.176622 -4.560226 31.596497
363 0 1 -5.450422 -4.494257 31.025299
364 0 1 -5.385822 -5.471539 31.153412
365 0 1 -4.751922 -5.350986 31.887207
366 0 1 -4.656621 -4.539497 32.382507
367 0 1 -5.061523 -3.883938 32.939911
368 0 1 -4.840221 -4.487797 33.670410
369 0 1 -4.532920 -3.779068 34.134613
370 0 1 -4.505222 -2.874897 34.531006
371 0 1 -4.497322 -3.150448 35.486298
372 0 1 -5.362422 -3.516758 35.381104
373 0 1 -5.766822 -2.729347 35.070496
374 0 1 -5.711021 -2.190925 34.256104
375 0 1 -6.374221 -1.723440 33.663696
376 0 1 -7.181821 -1.468233 34.039795
377 0 1 -7.733421 -1.216205 33.313507
378 0 1 -7.614521 -0.269447 33.504517
379 0 1 -7.758823 -0.591894 34.398499
380 0 1 -7.958622 -0.638176 35.376312
381 0 1 -8.375321 -1.444050 35.709503
382 0 1 -8.465921 -0.660583 36.245789
383 0 1 -8.784521 -0.373688 37.169006
384 0 1 -9.321021 -1.063432 36.728699
385 0 1 -8.599522 -1.732307 36.924500
386 0 1 -8.930922 -2.360933 36.288910
387 0 1 -8.341822 -3.097788 35.953796
388 0 1 -7.391323 -2.822357 36.197906
389 0 1 -7.305023 -3.637567 35.711700
390 0 1 -7.958521 -4.396957 35.855804
391 0 1 -8.562121 -4.324287 35.045105
392 0 1 -9.327321 -4.620607 35.519989
393 0 1 -10.001422 -4.810488 34.680695
394 0 1 -9.453221 -5.510616 34.928284
395 0 1 -8.932221 -5.062088 34.340607
396 0 1 -9.007921 -4.183268 34.009216
397 0 1 -9.467422 -4.415318 33.156891
398 0 1 -10.262822 -4.644978 33.588196
399 0 1 -10.854022 -5.291687 33.457611
400 0 1 -10.473521 -5.982018 32.856598
401 0 1 -10.097121 -6.348127 32.058594
402 0 1 -9.370021 -6.597569 32.610413
403 0 1 -9.147922 -7.050398 31.745209
404 0 1 -9.228521 -6.223547 31.176514
405 0 1 -8.591822 -6.464277 30.469391
406 0 1 -9.339721 -6.597038 29.926697
407 0 1 -8.677422 -7.298058 29.760193
408 0 1 -8.386221 -7.187557 28.809601
409 0 1 -7.453121 -6.984028 28.675293
410 0 1 -7.766222 -6.497797 29.479004
411 0 1 -7.431022 -5.902178 28.787292
412 0 1 -7.844322 -5.526768 28.024902
413 0 1 -8.655921 -5.653038 27.503387
414 0 1 -9.469821 -5.446228 27.019196
415 0 1 -9.490821 -4.705528 27.589905
416 0 1 -9.520122 -3.795776 27.125214
417 0 1 -9.384021 -4.287666 26.347595
418 0 1 -8.696921 -3.641268 26.520691
419 0 1 -9.378722 -3.151336 25.984406
420 0 1 -9.178321 -3.080177 25.004700
421 0 1 -9.243721 -3.709648 24.240814
422 0 1 -10.093221 -3.534117 23.854492
423 0 1 -11.016221 -3.428327 23.786896
424 0 1 -11.859221 -3.285177 23.342407
425 0 1 -11.715722 -3.545936 22.470001
426 0 1 -10.939521 -4.087597 22.213394
427 0 1 -11.516521 -4.807487 21.727295
428 0 1 -11.246821 -5.281807 20.892395
429 0 1 -10.597322 -4.576168 20.564697
430 0 1 -10.005221 -5.350527 20.361206
431 0 1 -10.014522 -5.112228 21.308197
432 0 1 -9.384122 -5.668127 21.840897
433 0 1 -8.963322 -4.836388 21.924103
434 0 1 -8.145621 -5.254908 22.019806
435 0 1 -7.259723 -5.420128 21.671204
436 0 1 -7.584220 -4.579317 21.225403
437 0 1 -8.095021 -4.306427 20.411102
438 0 1 -7.470321 -3.592127 20.748001
439 0 1 -7.131221 -3.963337 19.918701
440 0 1 -6.241622 -4.356167 20.214706
441 0 1 -6.259723 -3.425176 20.260605
442 0 1 -5.842222 -3.530987 21.076401
443 0 1 -5.388422 -3.050197 21.743103
444 0 1 -4.992523 -3.018497 22.605103
445 0 1 -4.603422 -2.272859 22.071198
446 0 1 -3.894523 -2.307087 21.350998
447 0 1 -3.824321 -2.761978 20.557297
448 0 1 -4.771923 -2.397112 20.387894
449 0 1 -4.994422 -3.328796 20.005295
450 0 1 -4.938423 -3.338398 19.031494
451 0 1 -5.595222 -2.600027 18.977905
452 0 1 -5.456123 -2.867616 18.061005
453 0 1 -5.479221 -2.447008 17.210297
454 0 1 -5.931522 -1.691625 16.817398
455 0 1 -6.360523 -1.487327 15.915406
456 0 1 -5.643222 -2.140243 15.796800
457 0 1 -6.210121 -2.962147 15.754197
458 0 1 -6.821323 -2.467857 15.218400
459 0 1 -7.351921 -3.226187 14.909501
460 0 1 -6.916822 -3.786167 14.271394
461 0 1 -6.226322 -3.137956 14.447206
462 0 1 -5.445022 -3.351457 13.887101
463 0 1 -5.388422 -4.338158 13.757707
464 0 1 -4.654422 -4.819128 13.351701
465 0 1 -5.470821 -5.265507 13.061494
466 0 1 -5.379821 -5.758808 12.258302
467 0 1 -4.711322 -6.296858 11.735200
468 0 1 -5.220022 -6.700617 11.026704
469 0 1 -5.479522 -7.560226 10.645204
470 0 1 -5.809722 -7.272207 9.768235
471 0 1 -4.980621 -6.946238 9.503037
472 0 1 -4.524921 -7.540697 8.919038
473 0 1 -5.435421 -7.599068 8.379762
474 0 1 -5.016723 -7.831867 7.558747
475 0 1 -5.046421 -8.462988 6.817170
476 0 1 -4.657421 -9.098766 6.199433
477 0 1 -4.550621 -9.575928 6.988556
478 0 1 -5.144821 -9.911278 7.622925
479 0 1 -4.576721 -9.981358 8.392884
480 0 1 -3.777923 -10.397907 8.790086
481 0 1 -2.997051 -9.810337 8.837556
482 0 1 -3.633722 -9.120697 9.156144
483 0 1 -3.390722 -8.219578 9.307694
484 0 1 -2.859531 -7.876377 9.966371
485 0 1 -2.672962 -6.978828 10.046098
486 0 1 -1.859592 -7.330788 10.232194
487 0 1 -1.920642 -6.402067 10.496903
488 0 1 -1.154561 -6.793337 11.000398
489 0 1 -0.448631 -6.372028 10.478806
490 0 1 0.336808 -5.777838 10.727998
491 0 1 0.038619 -5.195087 11.449494
492 0 1 -0.193962 -5.218227 12.429795
493 0 1 0.060559 -4.436537 12.903199
494 0 1 -0.697551 -4.058868 13.330308
495 0 1 -1.330593 -3.994627 12.621995
496 0 1 -1.788921 -4.846786 12.539903
497 0 1 -1.592330 -4.995567 11.574601
498 0 1 -2.503391 -4.597258 11.673203
499 0 1 -2.812032 -4.474577 12.612107
500 0 1 -3.233312 -3.672268 12.316407
501 0 1 -2.835931 -3.347297 13.156495
502 0 1 -2.675983 -2.422729 13.123399
503 0 1 -1.830142 -2.241844 13.586701
504 0 1 -1.170261 -1.539100 13.915605
505 0 1 -1.059072 -0.570907 14.259797
506 0 1 -0.507961 -0.457151 15.107896
507 0 1 0.243729 -0.188387 15.644807
508 0 1 -0.149391 -0.970428 16.046005
509 0 1 -0.089561 -1.971645 16.212601
510 0 1 -0.617641 -2.357879 15.537293
511 0 1 -1.457610 -2.714617 15.639100
512 0 1 -1.055511 -3.317568 16.187698
513 0 1 -1.455291 -3.782648 16.952301
514 0 1 -0.602872 -4.082808 17.085907
515 0 1 -0.460292 -4.651297 17.942200
516 0 1 -1.220950 -5.239307 17.793503
517 0 1 -0.722072 -6.019287 17.933899
518 0 1 -0.404651 -5.495678 18.777405
519 0 1 0.497239 -5.763687 18.930206
520 0 1 0.494748 -6.447567 19.626602
521 0 1 0.219359 -6.765627 20.511703
522 0 1 -0.331272 -6.516129 21.246597
523 0 1 -0.101222 -5.640078 21.028397
524 0 1 0.856038 -5.410257 21.015198
525 0 1 1.447398 -4.691797 21.257599
526 0 1 1.972209 -3.867958 21.549301
527 0 1 1.587418 -4.146448 22.411407
528 0 1 0.791428 -3.896278 22.860199
529 0 1 0.513157 -3.231678 22.232407
530 0 1 0.059668 -2.401932 22.537415
531 0 1 -0.161802 -1.577669 23.047699
532 0 1 0.617968 -1.060777 23.128510
533 0 1 0.843159 -1.935901 22.879608
534 0 1 1.715449 -1.599481 22.840912
535 0 1 1.440789 -0.917330 22.182098
536 0 1 2.125308 -0.386907 22.559387
537 0 1 1.694199 0.080074 21.831207
538 0 1 1.870827 0.292343 20.904404
539 0 1 2.630908 -0.298498 20.755096
540 0 1 3.131857 -1.065775 21.009598
541 0 1 2.396889 -1.657116 21.259399
542 0 1 3.023839 -2.156080 20.808502
543 0 1 3.973708 -2.161777 20.927902
544 0 1 4.322728 -1.320961 20.700302
545 0 1 5.274498 -1.269567 20.798401
546 0 1 6.185402 -1.285213 21.078201
547 0 1 6.894417 -1.502180 20.507996
548 0 1 7.528336 -0.933780 19.966797
549 0 1 8.445657 -0.536989 19.844894
550 0 1 8.965898 -1.399570 20.022202
551 0 1 8.789460 -2.063146 20.677307
552 0 1 9.722280 -2.109751 20.951797
553 0 1 9.894608 -2.986156 21.282394
554 0 1 10.421830 -2.805647 22.089706
555 0 1 10.578450 -1.866384 22.096802
556 0 1 11.204450 -1.130504 21.949295
557 0 1 11.932050 -1.207977 21.309006
558 0 1 11.313279 -1.198190 20.568604
559 0 1 10.995378 -0.275757 20.834000
560 0 1 10.579350 0.397183 21.270508
561 0 1 10.990541 1.168225 20.851105
562 0 1 11.549077 1.876461 21.244904
563 0 1 10.908750 2.199032 21.867706
564 0 1 11.269177 1.634354 22.522003
565 0 1 10.466168 1.197594 22.940186
566 0 1 10.650609 1.631733 23.742188
567 0 1 9.742909 1.927552 23.579193
568 0 1 9.446309 2.814663 23.768707
569 0 1 9.148419 3.387203 24.473511
570 0 1 8.262658 3.231571 24.820709
571 0 1 8.374898 2.267124 25.045288
572 0 1 7.986079 2.311642 25.912689
573 0 1 7.189393 2.695233 26.307098
574 0 1 7.794209 3.335842 26.663696
575 0 1 8.213840 3.645893 25.829407
576 0 1 7.752968 4.497501 25.811707
577 0 1 8.211148 5.102852 26.329193
578 0 1 8.312699 5.829113 25.670807
579 0 1 8.497720 6.588093 25.114685
580 0 1 8.335050 7.287045 25.698303
581 0 1 7.818219 8.072735 25.565002
582 0 1 7.658135 7.694294 26.429504
583 0 1 7.794238 7.637394 27.422485
584 0 1 6.933741 7.261753 27.087097
585 0 1 6.222945 7.405163 26.535400
586 0 1 5.404929 6.911991 26.490692
587 0 1 5.313468 7.099964 27.418488
588 0 1 4.832398 6.623192 28.065308
589 0 1 4.118439 6.078373 28.209991
590 0 1 4.092219 5.175831 27.849396
591 0 1 4.358378 4.290573 27.585297
592 0 1 3.620398 3.901371 28.150909
593 0 1 2.909739 3.754582 28.835907
594 0 1 3.066329 2.801182 29.163696
595 0 1 2.648678 2.076432 29.717010
596 0 1 2.427758 1.943974 30.661316
597 0 1 1.799069 2.471661 31.252502
598 0 1 1.180598 3.186863 31.381409
599 0 1 0.330569 3.618214 31.478210
600 0 1 -0.189962 4.201984 30.814911
601 0 1 0.368119 4.351612 30.013702
602 0 1 0.457787 5.266712 30.131897
603 0 1 -0.282522 5.277241 30.770386
604 0 1 -1.233762 5.109982 30.801605
605 0 1 -1.670051 4.455013 30.240997
606 0 1 -2.016113 4.394173 29.333313
607 0 1 -2.262252 5.243122 28.940796
608 0 1 -1.510572 5.798813 29.065002
609 0 1 -1.539222 6.779152 28.907196
610 0 1 -1.132902 7.423855 29.403992
611 0 1 -1.415832 7.944164 30.210510
612 0 1 -2.043823 8.260303 29.596588
613 0 1 -2.128332 8.559643 28.666595
614 0 1 -2.430763 7.751923 28.287994
615 0 1 -2.919382 7.566193 27.520386
616 0 1 -3.325820 7.186523 26.723114
617 0 1 -2.572841 7.227722 26.108887
618 0 1 -3.289123 7.543011 25.563599
619 0 1 -4.153322 7.779114 25.793701
620 0 1 -4.711622 6.966953 25.489288
621 0 1 -5.194923 6.561714 24.716003
622 0 1 -4.418323 5.969143 24.884094
623 0 1 -3.572322 5.584541 25.157288
624 0 1 -3.207561 5.665764 26.048492
625 0 1 -3.792423 5.423683 26.767914
626 0 1 -4.246223 5.922813 27.437012
627 0 1 -4.963321 5.300861 27.218994
628 0 1 -5.053321 5.419491 28.261414
629 0 1 -5.885021 5.804653 28.064911
630 0 1 -5.794322 6.156921 28.922699
631 0 1 -6.092422 5.726921 29.667908
632 0 1 -6.927921 6.233150 29.685486
633 0 1 -7.772022 6.422802 29.298401
634 0 1 -8.579721 6.821362 29.155212
635 0 1 -8.827822 7.288994 28.379211
636 0 1 -9.617822 7.078243 27.768402
637 0 1 -9.645522 7.948444 27.273407
638 0 1 -10.402122 8.495571 27.489410
639 0 1 -11.166621 8.003445 27.069885
640 0 1 -11.817321 8.101810 26.339691
641 0 1 -12.215121 7.257294 25.970398
642 0 1 -11.852422 6.789013 25.235809
643 0 1 -11.940322 6.601093 24.264313
644 0 1 -11.457322 7.407532 24.134888
645 0 1 -10.483321 7.259373 24.124084
646 0 1 -9.995421 7.587402 23.345398
647 0 1 -10.142022 8.054893 22.459305
648 0 1 -10.074521 8.988422 22.457794
649 0 1 -10.205821 9.837025 22.028000
650 0 1 -10.443221 10.661324 22.530701
651 0 1 -11.352721 10.873322 22.631805
652 0 1 -11.536120 10.292122 21.777206
653 0 1 -11.753322 9.339722 21.748795
654 0 1 -12.447122 9.838924 21.157196
655 0 1 -12.779721 9.754925 20.267105
656 0 1 -12.988921 9.006721 19.655792
657 0 1 -12.000321 8.971523 19.267395
658 0 1 -12.736321 8.690521 18.723404
659 0 1 -12.052922 8.070713 18.135803
660 0 1 -13.081222 7.789822 17.968506
661 0 1 -13.929122 8.296291 17.956406
662 0 1 -14.562022 7.696442 17.534302
663 0 1 -14.141021 7.349724 18.307007
664 0 1 -14.880721 6.725353 18.437592
665 0 1 -14.810422 5.832043 18.891403
666 0 1 -14.455022 5.207191 19.532501
667 0 1 -14.771222 4.405014 20.011200
668 0 1 -15.207421 3.805043 20.600403
669 0 1 -14.927621 3.351204 19.805206
670 0 1 -14.206021 2.701332 19.656998
671 0 1 -13.640321 2.112183 19.110504
672 0 1 -12.862821 1.642472 18.579605
673 0 1 -13.071822 0.715862 18.312698
674 0 1 -14.033921 0.623623 18.447006
675 0 1 -14.724622 0.346214 19.044006
676 0 1 -15.687522 -0.009058 18.859497
677 0 1 -16.053623 0.672291 19.454498
678 0 1 -15.371221 0.366833 20.079895
679 0 1 -14.905822 0.549263 20.899902
680 0 1 -14.728122 -0.114687 21.558197
681 0 1 -14.097920 -0.803810 21.305695
682 0 1 -13.454921 -1.446661 21.078903
683 0 1 -14.297421 -1.743990 20.722107
684 0 1 -15.155622 -1.871532 20.155502
685 0 1 -15.447621 -2.724018 19.702194
686 0 1 -15.281421 -2.657238 18.799194
687 0 1 -15.830121 -3.101408 18.153900
688 0 1 -15.920220 -3.758228 17.401794
689 0 1 -15.908622 -4.347588 18.212799
690 0 1 -15.660420 -4.965647 18.857697
691 0 1 -16.034922 -5.872547 18.722397
692 0 1 -15.659020 -6.616596 18.221405
693 0 1 -15.230222 -7.386038 17.792297
694 0 1 -14.852422 -6.615196 17.373108
695 0 1 -13.928222 -6.485188 17.350998
696 0 1 -13.711921 -7.005238 16.604401
697 0 1 -12.739322 -7.317957 16.950302
698 0 1 -12.196521 -7.622137 16.054504
699 0 1 -12.158622 -8.139557 15.224305
700 0 1 -12.261022 -8.083958 14.260606
701 0 1 -12.644221 -8.964687 14.540498
702 0 1 -12.221122 -9.583178 13.918595
703 0 1 -11.929221 -8.827827 13.284501
704 0 1 -11.324422 -8.214148 12.777604
705 0 1 -11.649121 -7.227278 12.603806
706 0 1 -10.797822 -6.902298 12.275697
707 0 1 -10.380721 -6.223658 11.781098
708 0 1 -10.803321 -6.859907 11.193101
709 0 1 -11.108621 -7.387218 10.473603
710 0 1 -10.263621 -7.802797 10.300004
711 0 1 -9.581521 -8.152378 9.672288
712 0 1 -9.640422 -7.912048 8.757005
713 0 1 -9.733121 -7.041847 8.381120
714 0 1 -9.269821 -6.310547 8.768403
715 0 1 -9.412921 -5.632748 8.082902
716 0 1 -9.456422 -4.647917 7.993882
717 0 1 -9.947921 -3.994697 7.364197
718 0 1 -10.161922 -4.792557 6.938965
719 0 1 -10.614121 -4.624308 6.093934
720 0 1 -11.291821 -4.856258 5.430192
721 0 1 -11.852721 -5.099678 4.691468
722 0 1 -12.220120 -4.249247 4.376969
723 0 1 -12.241921 -3.272917 4.175904
724 0 1 -12.593322 -3.848987 3.484879
725 0 1 -13.566621 -3.645687 3.608124
726 0 1 -13.914821 -2.912758 3.096909
727 0 1 -14.397021 -3.718708 2.735123
728 0 1 -15.294221 -3.886177 3.118805
729 0 1 -16.090921 -4.292328 3.474503
730 0 1 -15.585521 -5.065947 3.774125
731 0 1 -15.126121 -5.227438 4.584733
732 0 1 -14.572221 -5.701859 3.973526
733 0 1 -14.363021 -6.034267 4.865494
734 0 1 -14.919421 -6.667648 4.346985
735 0 1 -14.532922 -7.484457 4.840485
736 0 1 -14.044221 -7.875237 4.230118
737 0 1 -13.570821 -8.709717 4.509583
738 0 1 -12.844222 -8.148907 4.936524
739 0 1 -12.067721 -7.890587 5.449433
740 0 1 -12.675221 -7.978127 6.138810
741 0 1 -12.777522 -7.127028 6.602341
742 0 1 -13.674420 -7.068588 6.691727
743 0 1 -13.758821 -6.622837 7.569153
744 0 1 -13.226121 -5.860737 7.638962
745 0 1 -12.984422 -5.061848 7.134888
746 0 1 -13.519320 -4.217587 7.157120
747 0 1 -13.079322 -3.766937 7.909226
748 0 1 -12.653022 -3.229248 7.245514
749 0 1 -12.749122 -2.266292 7.071305
750 0 1 -11.881721 -2.278478 6.639664
751 0 1 -12.188022 -1.389642 6.861664
752 0 1 -11.988822 -0.489578 7.097855
753 0 1 -11.241221 0.052344 6.907746
754 0 1 -11.091321 -0.461122 7.706086
755 0 1 -10.233022 -0.816002 7.842469
756 0 1 -10.362721 -0.167467 8.605622
757 0 1 -10.930322 0.130112 9.355226
758 0 1 -10.457622 0.532993 10.011399
759 0 1 -10.252021 0.832424 10.911607
760 0 1 -9.557422 0.243393 11.102494
761 0 1 -10.306821 -0.273006 11.009400
762 0 1 -10.837621 -0.964432 10.447007
763 0 1 -10.938621 -1.535480 9.705796
764 0 1 -11.813821 -1.305343 10.024796
765 0 1 -11.906621 -1.993229 9.326707
766 0 1 -11.883622 -2.928318 8.972459
767 0 1 -11.446422 -2.838487 9.853944
768 0 1 -10.638721 -2.460838 10.130006
769 0 1 -10.721921 -2.127571 11.063294
770 0 1 -10.720021 -2.540188 11.958207
771 0 1 -10.534720 -3.364477 12.511399
772 0 1 -10.533721 -4.264248 13.010499
773 0 1 -11.262521 -4.450218 12.325105
774 0 1 -12.135421 -4.855307 12.321198
775 0 1 -12.325921 -4.461628 13.198106
776 0 1 -12.578622 -3.425897 13.055100
777 0 1 -13.034421 -4.025557 12.459794
778 0 1 -13.899022 -3.747087 12.796494
779 0 1 -14.112922 -2.869747 13.146806
780 0 1 -15.050622 -2.850567 13.229402
781 0 1 -15.598321 -3.673918 13.290803
782 0 1 -16.138323 -4.398268 13.417497
783 0 1 -16.843323 -4.894308 13.808198
784 0 1 -17.099823 -4.196228 14.349793
785 0 1 -16.652021 -4.053347 15.192399
786 0 1 -16.827322 -4.868027 15.716401
787 0 1 -16.876522 -5.768877 15.259095
788 0 1 -17.195423 -5.955097 16.103500
789 0 1 -17.506721 -6.544718 16.763702
790 0 1 -18.210222 -7.217857 16.787704