LAMMPS data file via MDAnalysis

        2000  atoms
        1999  bonds
           0  angles
           0  dihedrals
           0  impropers

           1  atom types
           1  bond types
           0  angle types
           0  dihedral types
           0  improper types

-30.5 30.5 xlo xhi
-30.5 30.5 ylo yhi
-233.5 233.5 zlo zhi


Masses

1 1.000000

Atoms

1 0 1 19.019957 -4.901598 45.826202
2 0 1 18.408255 -5.597067 46.129395
3 0 1 18.402258 -6.549746 46.407410
4 0 1 18.199755 -6.475967 47.340393
5 0 1 18.699453 -7.240076 47.647217
6 0 1 18.158957 -7.730276 48.329498
7 0 1 17.934156 -8.505177 47.757385
8 0 1 18.445856 -8.993776 48.390503
9 0 1 19.395555 -8.760777 48.606110
10 0 1 19.565054 -7.974977 49.110199
11 0 1 19.540358 -7.087778 48.753693
12 0 1 19.869253 -7.058176 49.685913
13 0 1 19.130354 -6.659367 50.121002
14 0 1 18.753855 -7.143976 50.832092
15 0 1 19.357054 -7.744978 51.273590
16 0 1 18.474955 -7.717777 51.817291
17 0 1 18.268156 -7.505678 52.703491
18 0 1 17.816458 -6.577036 52.982605
19 0 1 17.262556 -7.280577 52.677185
20 0 1 16.706854 -6.691187 53.067596
21 0 1 16.552855 -5.909437 52.613403
22 0 1 16.652956 -5.585356 53.521088
23 0 1 15.880255 -5.012987 53.728607
24 0 1 14.996656 -4.483677 53.516205
25 0 1 14.080053 -4.571697 53.510010
26 0 1 14.108053 -4.253828 52.602112
27 0 1 13.750956 -5.009756 52.051208
28 0 1 13.077253 -5.385857 52.621613
29 0 1 13.548353 -5.602957 53.471497
30 0 1 12.969053 -5.508036 54.174194
31 0 1 13.535254 -6.313677 54.306091
32 0 1 14.317156 -6.918377 54.794983
33 0 1 14.369856 -7.299078 55.630493
34 0 1 14.152056 -7.984177 54.985901
35 0 1 13.309755 -8.449278 54.767517
36 0 1 12.748655 -8.297577 54.022308
37 0 1 13.382254 -7.571577 53.750916
38 0 1 12.814356 -6.784678 53.601685
39 0 1 12.280756 -7.420778 53.086304
40 0 1 11.814554 -7.440676 52.263489
41 0 1 10.943357 -7.529078 51.903412
42 0 1 10.909758 -6.543386 51.971802
43 0 1 10.747557 -6.324636 52.869202
44 0 1 10.085356 -5.736107 53.327087
45 0 1 10.208155 -4.769756 53.328705
46 0 1 9.970854 -4.354006 52.515411
47 0 1 10.271254 -3.811377 51.783203
48 0 1 9.496656 -3.301916 51.546204
49 0 1 9.538557 -3.891327 50.803192
50 0 1 10.144453 -4.020086 50.058197
51 0 1 9.676558 -4.396957 49.252899
52 0 1 9.028257 -4.023006 48.538391
53 0 1 8.198854 -3.537157 48.411987
54 0 1 8.665255 -3.376846 49.253601
55 0 1 8.416956 -2.857857 49.977112
56 0 1 8.586554 -1.941437 49.614105
57 0 1 8.173956 -2.573687 49.044098
58 0 1 7.452856 -2.571096 49.718903
59 0 1 6.713003 -2.964678 49.198700
60 0 1 6.411954 -3.849327 48.951202
61 0 1 6.594995 -4.804686 48.743011
62 0 1 5.966325 -5.479057 48.366791
63 0 1 6.775266 -5.693758 47.915894
64 0 1 7.021833 -6.379446 48.551208
65 0 1 7.235055 -5.615198 49.137787
66 0 1 6.661775 -5.767366 49.910797
67 0 1 5.996866 -6.176407 50.523407
68 0 1 5.762617 -5.990938 51.450500
69 0 1 4.952363 -5.515306 51.889893
70 0 1 4.416376 -4.723608 52.184906
71 0 1 3.503324 -4.535498 52.109589
72 0 1 3.246164 -4.834887 51.256500
73 0 1 2.408594 -5.096367 50.980408
74 0 1 2.863355 -5.369108 50.201111
75 0 1 2.882574 -4.996668 49.349213
76 0 1 2.359533 -4.134398 49.039398
77 0 1 1.473867 -3.673206 48.927795
78 0 1 1.421884 -3.114428 49.739014
79 0 1 1.357324 -2.187006 49.725708
80 0 1 1.110666 -1.829027 48.872498
81 0 1 0.183305 -2.012426 49.230896
82 0 1 -0.693564 -1.694536 49.403290
83 0 1 -0.790614 -1.978817 50.340393
84 0 1 -0.147124 -1.296236 50.546814
85 0 1 -0.841864 -0.637068 50.700104
86 0 1 -1.332377 -0.349398 51.421997
87 0 1 -1.914176 0.458513 51.155701
88 0 1 -2.041272 0.393593 50.188416
89 0 1 -2.816111 0.125242 49.757812
90 0 1 -3.015009 1.065872 49.888397
91 0 1 -3.197295 1.846724 49.294708
92 0 1 -3.109278 1.706743 48.373993
93 0 1 -4.020085 1.502872 48.074097
94 0 1 -4.680665 1.049723 47.585815
95 0 1 -4.919356 1.302692 46.657410
96 0 1 -5.286046 2.172422 46.388489
97 0 1 -6.216574 2.179453 46.786499
98 0 1 -5.712876 2.650274 47.397308
99 0 1 -5.613656 3.710058 47.348297
100 0 1 -6.276585 4.301723 46.902588
101 0 1 -5.964665 4.859465 47.753113
102 0 1 -5.077435 4.502583 47.937012
103 0 1 -4.652504 3.654785 47.593384
104 0 1 -4.335755 4.440844 47.023407
105 0 1 -4.887265 5.022333 46.427795
106 0 1 -5.520686 4.741953 45.720490
107 0 1 -6.428845 4.484913 45.560394
108 0 1 -7.115454 3.821455 45.445404
109 0 1 -6.635775 2.992060 45.335602
110 0 1 -6.317605 3.112583 44.432983
111 0 1 -6.364405 3.193821 43.530090
112 0 1 -6.953536 2.444141 43.681702
113 0 1 -7.811955 1.983522 43.644196
114 0 1 -7.796475 2.078934 44.594513
115 0 1 -8.473484 1.993254 45.287598
116 0 1 -8.396864 1.193953 44.777008
117 0 1 -8.183744 0.532133 44.094299
118 0 1 -8.371355 0.840563 43.241791
119 0 1 -7.412024 0.747383 43.222290
120 0 1 -7.036795 -0.082777 43.209991
121 0 1 -6.373166 0.581663 42.828186
122 0 1 -6.132395 1.383484 42.376404
123 0 1 -6.029576 1.448704 41.437317
124 0 1 -6.128886 0.496033 41.591705
125 0 1 -5.367945 0.023983 41.883698
126 0 1 -4.546154 -0.311956 41.390015
127 0 1 -4.247546 -1.241127 41.581299
128 0 1 -4.947545 -1.591497 42.075195
129 0 1 -4.494175 -0.870096 42.580017
130 0 1 -3.568179 -0.950018 42.392395
131 0 1 -2.892636 -1.581158 42.723297
132 0 1 -2.885485 -0.622547 43.017090
133 0 1 -2.201230 -0.932596 43.647217
134 0 1 -2.372525 -1.507008 44.438904
135 0 1 -2.072714 -1.539207 45.322601
136 0 1 -2.415688 -1.928217 46.131195
137 0 1 -1.950917 -2.228678 46.978302
138 0 1 -1.027274 -2.395567 47.168396
139 0 1 -1.007494 -2.023567 46.280487
140 0 1 -0.584475 -1.911636 45.458191
141 0 1 -0.101935 -1.070818 45.473297
142 0 1 0.452703 -0.835947 46.295593
143 0 1 0.860635 -1.658667 46.621216
144 0 1 0.981233 -1.158648 47.497711
145 0 1 1.697114 -1.831947 47.587585
146 0 1 2.511514 -1.735666 47.157104
147 0 1 2.335226 -1.843626 46.246094
148 0 1 2.725164 -1.857298 45.401489
149 0 1 2.237997 -0.989147 45.179993
150 0 1 3.167226 -0.589497 45.282593
151 0 1 3.461736 -1.210978 45.954590
152 0 1 3.968847 -0.459486 46.353088
153 0 1 4.363855 -0.109858 47.177795
154 0 1 4.735563 -1.024347 47.273987
155 0 1 3.809934 -1.069946 47.570190
156 0 1 3.760694 -0.498137 48.286591
157 0 1 4.190935 -0.847746 49.018890
158 0 1 3.594434 -1.207548 49.754700
159 0 1 2.898256 -1.418346 50.394501
160 0 1 3.276174 -2.247286 50.091095
161 0 1 3.466497 -2.089737 51.034485
162 0 1 3.682813 -1.137938 51.237915
163 0 1 3.435686 -0.516647 51.936005
164 0 1 4.490285 -0.518787 52.148590
165 0 1 5.277013 -0.055798 51.855011
166 0 1 6.184946 0.252903 51.890198
167 0 1 6.400346 -0.352818 51.203491
168 0 1 5.920103 0.297443 50.604401
169 0 1 5.785215 0.930073 49.922302
170 0 1 5.270223 0.359472 49.372498
171 0 1 5.100786 0.158434 48.420807
172 0 1 5.497953 -0.347107 47.777588
173 0 1 6.372503 -0.359497 48.245911
174 0 1 7.146154 -0.421698 47.710815
175 0 1 7.789556 -0.983957 48.117096
176 0 1 7.777753 -1.423927 47.274689
177 0 1 8.272554 -1.966766 46.567413
178 0 1 9.025953 -1.948017 45.968597
179 0 1 9.445856 -1.528147 45.194794
180 0 1 9.571856 -1.740656 44.208893
181 0 1 9.972857 -1.914198 43.349396
182 0 1 10.049654 -1.576746 42.386810
183 0 1 10.982855 -1.877117 42.164612
184 0 1 10.770456 -2.867968 42.257904
185 0 1 11.001757 -2.892776 41.320892
186 0 1 10.394255 -2.499056 40.670990
187 0 1 11.375753 -2.545357 40.361389
188 0 1 10.940454 -3.330748 39.904205
189 0 1 10.767553 -4.209167 39.813293
190 0 1 10.511354 -4.936228 40.448303
191 0 1 10.095354 -5.721006 39.915192
192 0 1 9.726355 -5.652296 39.000092
193 0 1 9.379156 -5.550547 38.121887
194 0 1 9.332357 -6.038877 37.351410
195 0 1 8.702955 -6.531988 38.040710
196 0 1 9.646654 -6.605957 38.208313
197 0 1 10.249556 -7.042078 38.860413
198 0 1 9.882055 -7.858576 38.302307
199 0 1 9.107454 -8.379076 38.134399
200 0 1 8.660154 -9.161776 37.719788
201 0 1 7.739057 -8.996977 37.858887
202 0 1 7.261457 -8.411676 37.219391
203 0 1 6.871095 -8.671576 36.344391
204 0 1 6.211446 -9.075876 35.768402
205 0 1 6.631116 -8.869776 34.917297
206 0 1 7.320356 -9.111177 34.335602
207 0 1 8.276957 -9.450876 34.181610
208 0 1 9.030157 -9.392977 33.511292
209 0 1 8.845755 -8.542776 33.917114
210 0 1 7.988157 -8.104177 33.818909
211 0 1 7.932355 -7.151377 33.652313
212 0 1 7.964857 -6.169458 33.561707
213 0 1 7.042257 -6.421627 33.328491
214 0 1 7.227655 -6.804077 32.343811
215 0 1 7.569154 -5.844526 32.565308
216 0 1 7.878156 -4.950687 32.759399
217 0 1 8.255156 -4.172527 32.392700
218 0 1 8.662355 -4.953978 32.116608
219 0 1 9.297155 -4.675827 31.426210
220 0 1 9.658655 -4.019346 30.870790
221 0 1 9.591253 -3.155117 31.287905
222 0 1 9.315557 -2.534647 31.976686
223 0 1 9.668356 -2.776438 32.814209
224 0 1 9.284956 -2.039087 33.314911
225 0 1 9.320753 -1.375467 34.037506
226 0 1 8.995455 -0.454577 34.055603
227 0 1 9.513056 0.280764 33.640106
228 0 1 8.710054 0.780474 33.614899
229 0 1 8.056257 0.096523 33.487793
230 0 1 7.222856 0.645643 33.574310
231 0 1 7.183755 0.638853 34.536987
232 0 1 7.447454 0.680742 35.445892
233 0 1 7.530954 0.476232 36.432312
234 0 1 7.369153 1.467274 36.619995
235 0 1 6.520254 1.431852 37.082092
236 0 1 5.908395 1.736513 37.742798
237 0 1 5.090906 1.893703 38.254211
238 0 1 4.140726 1.872362 38.318604
239 0 1 3.481035 2.080214 37.663513
240 0 1 4.104745 2.902870 37.478088
241 0 1 3.495924 3.279346 38.128296
242 0 1 3.214075 4.162912 38.263702
243 0 1 4.104517 4.548332 38.119598
244 0 1 3.447916 5.199362 38.000488
245 0 1 2.649126 5.282183 37.385010
246 0 1 2.600645 6.119143 37.859985
247 0 1 1.730924 6.436693 37.925690
248 0 1 0.803556 6.776072 38.034790
249 0 1 -0.046225 6.473173 38.272888
250 0 1 -0.669123 6.006815 37.761688
251 0 1 -0.145243 6.590853 37.219788
252 0 1 -0.759345 6.873354 36.454803
253 0 1 -1.643944 7.300234 36.468384
254 0 1 -1.549345 6.788382 35.608887
255 0 1 -1.920815 5.943884 35.999603
256 0 1 -1.836146 6.256952 36.887512
257 0 1 -1.833355 5.430582 37.335999
258 0 1 -2.068638 4.626722 37.766693
259 0 1 -2.413779 4.683983 36.799194
260 0 1 -3.328742 4.925333 37.152588
261 0 1 -3.705828 4.051100 37.150299
262 0 1 -2.988841 4.032452 37.727600
263 0 1 -3.145451 4.656902 38.404785
264 0 1 -2.662606 4.409563 39.209717
265 0 1 -3.303620 4.339123 39.909210
266 0 1 -2.775382 3.526304 39.984894
267 0 1 -2.205525 2.769783 40.000793
268 0 1 -2.515099 1.941143 39.510101
269 0 1 -2.904423 1.626444 40.351807
270 0 1 -3.202656 1.424553 41.255096
271 0 1 -3.397509 0.479383 41.308105
272 0 1 -3.279124 0.299753 42.238800
273 0 1 -2.369952 0.116243 42.206116
274 0 1 -1.891285 0.901962 42.001892
275 0 1 -1.186835 1.244753 42.589417
276 0 1 -1.956624 1.354193 43.303589
277 0 1 -2.888319 1.353003 43.097992
278 0 1 -3.029433 2.293493 42.794891
279 0 1 -2.497305 3.101582 42.586304
280 0 1 -1.622164 3.283192 42.979492
281 0 1 -1.548165 3.607058 43.888306
282 0 1 -2.471900 3.680613 44.226410
283 0 1 -2.962361 3.641314 43.422699
284 0 1 -3.354649 4.690462 43.648804
285 0 1 -3.766215 5.550474 43.669098
286 0 1 -3.522538 6.064482 42.937592
287 0 1 -3.094058 6.407774 43.683105
288 0 1 -3.361323 7.254343 44.109009
289 0 1 -4.100976 7.876612 43.854492
290 0 1 -4.169844 7.372602 43.086700
291 0 1 -4.372365 8.199442 42.465698
292 0 1 -5.158465 8.784502 42.266907
293 0 1 -4.514445 9.489584 42.033813
294 0 1 -3.692914 9.931822 41.782898
295 0 1 -3.701474 9.075003 41.207489
296 0 1 -3.971344 8.859083 40.295502
297 0 1 -4.248934 9.629171 39.722198
298 0 1 -5.181746 9.985704 39.877686
299 0 1 -4.711356 10.460882 39.195801
300 0 1 -4.675925 9.693602 38.711304
301 0 1 -4.701815 10.263483 37.915192
302 0 1 -3.938569 10.593813 38.360596
303 0 1 -3.830956 11.472193 37.932495
304 0 1 -3.613158 12.253542 38.450500
305 0 1 -3.068608 12.976072 38.128296
306 0 1 -2.310149 12.540903 38.615204
307 0 1 -2.732430 12.881903 39.390686
308 0 1 -2.289841 13.717024 39.119385
309 0 1 -1.916346 13.916422 38.231293
310 0 1 -1.203413 13.553423 37.660889
311 0 1 -1.964144 12.876734 37.358307
312 0 1 -2.206137 12.036821 37.658691
313 0 1 -1.476935 11.384363 37.649902
314 0 1 -2.084185 10.638083 37.823700
315 0 1 -1.860344 9.699091 37.717896
316 0 1 -1.101676 10.075483 37.284912
317 0 1 -1.186564 10.009863 36.322906
318 0 1 -0.451735 10.542532 36.073700
319 0 1 -0.685084 10.431574 35.077911
320 0 1 -0.396685 9.563353 35.346405
321 0 1 -0.023127 9.076654 34.576691
322 0 1 -1.001845 8.945322 34.479706
323 0 1 -1.879885 8.562792 34.698792
324 0 1 -2.408328 7.965311 35.253998
325 0 1 -2.889449 8.307375 35.975800
326 0 1 -3.217616 9.220232 35.868591
327 0 1 -4.102025 9.027391 35.722107
328 0 1 -4.353755 8.771753 34.843109
329 0 1 -3.881449 8.182901 34.313293
330 0 1 -3.862959 7.446192 33.660400
331 0 1 -4.758265 7.405764 34.126404
332 0 1 -5.075285 6.753695 33.510010
333 0 1 -5.361914 5.943792 33.957092
334 0 1 -5.432665 4.963003 33.863312
335 0 1 -5.513485 5.368341 32.988190
336 0 1 -6.427176 5.323614 33.409912
337 0 1 -7.028666 4.634172 33.046692
338 0 1 -6.295676 4.531263 32.358215
339 0 1 -5.681296 4.727682 31.696413
340 0 1 -5.680405 4.712023 30.773317
341 0 1 -6.578965 4.570864 31.097200
342 0 1 -7.482356 4.865564 30.858492
343 0 1 -7.680075 4.247072 31.517000
344 0 1 -8.450134 3.767492 31.605806
345 0 1 -8.579285 2.907907 31.290102
346 0 1 -8.227024 2.035513 31.544100
347 0 1 -7.813805 1.471634 32.180511
348 0 1 -7.534495 1.872414 33.041504
349 0 1 -6.848916 1.236393 32.844116
350 0 1 -7.201985 0.345062 32.763184
351 0 1 -7.987916 -0.193228 32.454803
352 0 1 -8.192274 0.113253 33.324890
353 0 1 -8.869354 0.705193 33.016693
354 0 1 -9.144316 0.564524 33.932098
355 0 1 -9.775576 0.648302 34.617310
356 0 1 -10.403925 0.736263 33.941010
357 0 1 -10.843534 0.783962 33.046600
358 0 1 -11.838434 0.768694 32.927399
359 0 1 -12.310736 0.131443 33.435089
360 0 1 -12.929815 0.794733 33.170288
361 0 1 -13.631643 1.307423 32.729492
362 0 1 -13.967045 0.430223 32.738403
363 0 1 -14.444445 0.709352 31.931795
364 0 1 -14.718245 1.432974 32.473297
365 0 1 -15.394644 2.033913 32.813293
366 0 1 -16.028145 2.810148 32.772888
367 0 1 -15.856146 2.439091 31.906801
368 0 1 -16.133144 1.578253 32.251007
369 0 1 -17.148445 1.402264 32.197388
370 0 1 -17.351744 0.740713 33.008606
371 0 1 -16.798445 1.491552 33.369812
372 0 1 -16.572044 1.852524 34.235809
373 0 1 -17.450544 2.236429 34.008209
374 0 1 -17.166945 2.517117 33.109406
375 0 1 -17.384945 2.855450 32.210693
376 0 1 -16.657244 3.403362 31.966707
377 0 1 -16.011644 3.783304 31.306002
378 0 1 -16.894545 3.823050 31.023195
379 0 1 -17.318445 3.714230 30.126314
380 0 1 -16.713844 3.713516 29.323915
381 0 1 -17.504545 3.643991 28.797609
382 0 1 -17.697645 3.452375 27.894991
383 0 1 -18.172646 2.615803 28.013918
384 0 1 -17.371645 2.018324 28.184114
385 0 1 -16.598246 1.526363 28.520693
386 0 1 -16.629345 0.592003 28.609316
387 0 1 -16.915144 -0.018646 27.825502
388 0 1 -17.806046 -0.002127 28.129488
389 0 1 -17.973946 0.181032 29.091188
390 0 1 -18.730345 -0.048657 29.796816
391 0 1 -19.024345 -0.890596 30.137209
392 0 1 -18.721346 -1.797127 30.324800
393 0 1 -18.948345 -1.901608 31.288698
394 0 1 -19.587645 -1.166307 31.091311
395 0 1 -19.935844 -1.844828 31.643404
396 0 1 -20.499645 -1.536407 32.427490
397 0 1 -21.449945 -1.251747 32.604095
398 0 1 -21.838545 -1.523457 33.426788
399 0 1 -22.752445 -1.744328 33.806793
400 0 1 -23.653145 -1.644087 34.220093
401 0 1 -23.906044 -2.131767 33.413696
402 0 1 -23.179245 -2.824686 33.289307
403 0 1 -23.438145 -2.755447 32.301605
404 0 1 -23.512445 -3.274937 31.470217
405 0 1 -23.355946 -4.051826 32.027100
406 0 1 -22.713844 -4.726347 31.973909
407 0 1 -22.583744 -5.588438 31.533113
408 0 1 -22.297844 -6.116968 32.377991
409 0 1 -21.711645 -5.568747 32.979187
410 0 1 -22.511745 -5.605497 33.453796
411 0 1 -22.727545 -6.519827 33.691193
412 0 1 -22.415844 -7.313177 34.118896
413 0 1 -23.175644 -7.905777 33.884216
414 0 1 -22.427145 -8.275377 33.427704
415 0 1 -21.640545 -8.704576 33.759705
416 0 1 -21.210644 -8.459776 32.951813
417 0 1 -21.573244 -8.283476 32.085693
418 0 1 -21.785746 -9.201977 32.358398
419 0 1 -22.417444 -9.960276 32.128113
420 0 1 -22.760645 -10.596876 31.551210
421 0 1 -22.703144 -11.514177 31.248110
422 0 1 -22.313046 -12.375077 31.064608
423 0 1 -21.448545 -12.120277 31.447115
424 0 1 -21.383745 -13.002777 31.743013
425 0 1 -20.823744 -13.520376 32.293091
426 0 1 -20.607645 -13.841877 33.210388
427 0 1 -19.898445 -14.076077 33.801300
428 0 1 -19.718945 -13.357977 34.363708
429 0 1 -20.191145 -12.738077 34.917603
430 0 1 -19.806444 -12.345777 35.719513
431 0 1 -19.073345 -12.228377 36.335999
432 0 1 -18.449345 -12.452777 35.654388
433 0 1 -17.708944 -11.848077 35.882690
434 0 1 -17.164946 -11.106377 35.504303
435 0 1 -17.270044 -10.610876 36.396790
436 0 1 -16.445444 -11.060877 36.738312
437 0 1 -16.322145 -11.680777 35.992493
438 0 1 -16.331345 -12.092977 35.071503
439 0 1 -17.049145 -12.065977 34.442108
440 0 1 -17.750345 -11.468877 34.022797
441 0 1 -18.689146 -11.552277 33.887787
442 0 1 -19.462444 -10.951277 33.879303
443 0 1 -19.430244 -10.101976 34.341614
444 0 1 -19.162645 -9.956678 33.464905
445 0 1 -19.111645 -9.024477 33.493805
446 0 1 -18.236345 -9.033377 33.986206
447 0 1 -17.859344 -8.772577 34.874298
448 0 1 -18.088844 -7.868677 35.101593
449 0 1 -17.897545 -7.606478 34.173492
450 0 1 -17.379644 -8.333977 33.989594
451 0 1 -16.512045 -7.960978 33.648193
452 0 1 -15.845045 -8.614777 33.541901
453 0 1 -15.331945 -7.852976 33.346497
454 0 1 -15.894344 -7.124477 33.261597
455 0 1 -15.462645 -6.371887 33.530701
456 0 1 -14.641146 -6.745487 33.882690
457 0 1 -14.819044 -5.993406 34.447388
458 0 1 -14.997446 -5.152548 34.791412
459 0 1 -14.924543 -4.705088 35.623688
460 0 1 -14.134544 -5.280626 35.581299
461 0 1 -13.768045 -5.077276 34.723999
462 0 1 -12.969345 -4.540167 34.724091
463 0 1 -12.873484 -4.677206 35.629303
464 0 1 -13.137945 -4.273138 36.403992
465 0 1 -12.443403 -4.270117 37.062500
466 0 1 -12.183874 -3.513018 37.472687
467 0 1 -11.429165 -3.307386 36.961700
468 0 1 -11.001554 -2.742928 37.614288
469 0 1 -10.018644 -2.750708 37.377899
470 0 1 -10.616545 -2.391718 36.699585
471 0 1 -11.260786 -1.965508 36.109100
472 0 1 -11.259214 -2.717237 35.594604
473 0 1 -11.349215 -3.576666 35.253784
474 0 1 -11.244123 -4.312128 34.629211
475 0 1 -10.821995 -5.157997 34.307983
476 0 1 -11.492165 -5.718817 33.838593
477 0 1 -11.213055 -6.135397 33.045197
478 0 1 -10.638266 -5.424397 32.787994
479 0 1 -10.931925 -5.845728 32.011108
480 0 1 -11.195986 -6.429987 31.382814
481 0 1 -11.625334 -5.645107 31.132204
482 0 1 -10.793234 -5.582737 30.483400
483 0 1 -10.010944 -5.692026 29.902193
484 0 1 -9.386555 -5.642017 30.645906
485 0 1 -8.959404 -6.473047 30.876192
486 0 1 -8.863276 -6.639456 29.932405
487 0 1 -8.334265 -6.533098 29.161318
488 0 1 -7.636405 -6.469908 29.852510
489 0 1 -7.860594 -5.611116 29.419710
490 0 1 -7.872916 -5.474398 30.329714
491 0 1 -6.981646 -5.318796 30.487307
492 0 1 -6.402735 -5.181406 29.622499
493 0 1 -6.047396 -5.272947 28.769899
494 0 1 -6.795975 -5.841087 28.833590
495 0 1 -7.417815 -5.364668 28.349489
496 0 1 -6.950144 -4.541086 28.280214
497 0 1 -7.225615 -4.720438 27.335512
498 0 1 -8.061686 -4.961987 26.955690
499 0 1 -8.977024 -4.700148 27.155489
500 0 1 -9.610266 -4.787096 27.916506
501 0 1 -9.925915 -4.905317 27.046206
502 0 1 -10.076426 -5.851278 27.319216
503 0 1 -10.018614 -5.737978 26.386293
504 0 1 -10.105354 -6.321028 25.615297
505 0 1 -10.260855 -6.106827 24.670198
506 0 1 -10.895765 -6.880777 24.609499
507 0 1 -11.722895 -7.250578 24.323610
508 0 1 -11.879185 -6.510197 24.894899
509 0 1 -12.775965 -6.850977 25.144716
510 0 1 -13.590845 -6.532497 24.761812
511 0 1 -13.990744 -6.061777 24.063814
512 0 1 -14.067144 -5.124687 23.903811
513 0 1 -14.548143 -4.920588 23.144899
514 0 1 -14.271444 -4.061186 22.818605
515 0 1 -14.196146 -4.339317 21.906801
516 0 1 -13.598644 -4.436817 21.158297
517 0 1 -12.778975 -4.454308 21.609697
518 0 1 -12.847296 -5.260527 22.135805
519 0 1 -12.453436 -5.781878 22.863314
520 0 1 -12.137085 -6.540897 22.278200
521 0 1 -12.182625 -7.518778 22.271105
522 0 1 -12.017645 -8.446478 22.366610
523 0 1 -12.719366 -9.091677 22.131807
524 0 1 -12.229195 -9.809076 21.641207
525 0 1 -11.518446 -9.500578 21.083498
526 0 1 -11.000753 -10.177576 21.398500
527 0 1 -10.190075 -9.864176 20.975801
528 0 1 -10.299154 -9.700577 20.082796
529 0 1 -9.717196 -9.687677 19.305910
530 0 1 -8.860004 -9.709276 19.795305
531 0 1 -9.489855 -9.104977 20.123110
532 0 1 -8.746475 -8.467577 20.058504
533 0 1 -8.266895 -8.330076 20.838900
534 0 1 -7.985514 -7.542078 20.347002
535 0 1 -8.547245 -6.670416 20.282396
536 0 1 -8.647776 -6.215277 19.341295
537 0 1 -8.853064 -5.281908 19.459398
538 0 1 -8.822275 -5.427896 18.527803
539 0 1 -8.312265 -5.919958 17.847795
540 0 1 -9.028124 -6.302647 17.222704
541 0 1 -8.579306 -6.559488 16.377504
542 0 1 -9.178644 -7.184677 15.934907
543 0 1 -9.040794 -6.660957 15.167298
544 0 1 -9.443235 -6.282677 14.389405
545 0 1 -9.465164 -5.452528 14.807099
546 0 1 -9.886045 -5.388947 15.681596
547 0 1 -10.483974 -5.886427 14.989503
548 0 1 -10.772205 -6.609156 15.670304
549 0 1 -10.879555 -7.459978 16.122606
550 0 1 -10.343725 -7.863277 15.472901
551 0 1 -9.831575 -8.631277 15.324998
552 0 1 -10.238695 -9.191477 15.997895
553 0 1 -9.491144 -9.567778 16.492403
554 0 1 -8.721035 -9.764277 15.897096
555 0 1 -8.037115 -10.435278 16.024996
556 0 1 -7.241295 -10.213278 16.572695
557 0 1 -7.066426 -11.129377 16.790010
558 0 1 -6.791705 -11.437777 15.960008
559 0 1 -7.711184 -11.693877 15.759904
560 0 1 -7.421824 -12.396877 15.202897
561 0 1 -6.584574 -12.717577 15.705094
562 0 1 -7.142045 -13.008377 16.391497
563 0 1 -7.772385 -13.549177 16.948503
564 0 1 -8.064144 -12.981277 17.611605
565 0 1 -8.064175 -12.982277 18.585207
566 0 1 -8.196945 -12.067277 18.526705
567 0 1 -8.856874 -12.188777 17.833406
568 0 1 -9.378633 -11.967077 18.579500
569 0 1 -10.341925 -12.018277 18.748796
570 0 1 -10.529545 -11.567177 17.930803
571 0 1 -11.362814 -11.075377 17.814394
572 0 1 -12.321814 -11.143877 17.902697
573 0 1 -13.007044 -10.508877 18.329103
574 0 1 -13.793646 -10.064577 18.183397
575 0 1 -14.513245 -10.568476 17.820604
576 0 1 -15.216545 -10.286978 18.390200
577 0 1 -16.122744 -10.067177 18.137896
578 0 1 -16.156744 -11.003176 18.026003
579 0 1 -16.665545 -11.685377 17.565203
580 0 1 -16.507044 -12.426377 16.941408
581 0 1 -16.855444 -11.646677 16.424501
582 0 1 -16.941845 -10.739477 16.730700
583 0 1 -16.959644 -10.353678 17.593508
584 0 1 -17.579346 -10.369478 18.350298
585 0 1 -16.928946 -10.501978 19.081896
586 0 1 -16.643946 -9.954576 19.845308
587 0 1 -17.443346 -10.332876 20.307207
588 0 1 -18.230246 -10.598276 19.845903
589 0 1 -18.497446 -9.763376 19.532503
590 0 1 -19.276344 -9.523977 19.022997
591 0 1 -18.700846 -9.884277 18.394808
592 0 1 -19.044146 -9.603977 17.537996
593 0 1 -18.835344 -8.690977 17.251894
594 0 1 -19.644545 -8.079378 17.342501
595 0 1 -19.391445 -8.086176 16.375307
596 0 1 -19.710545 -9.011877 16.384996
597 0 1 -19.777645 -9.425177 15.570497
598 0 1 -19.242945 -9.234577 14.809800
599 0 1 -19.722845 -8.519976 14.425797
600 0 1 -20.075645 -7.508978 14.426301
601 0 1 -20.713345 -6.875877 14.747300
602 0 1 -20.171345 -6.068707 14.641801
603 0 1 -20.017345 -5.190237 14.385499
604 0 1 -20.718445 -4.632807 13.996797
605 0 1 -20.885445 -4.811476 14.947495
606 0 1 -21.184744 -4.713676 15.887101
607 0 1 -21.497644 -4.225218 16.679796
608 0 1 -21.768944 -3.569498 17.330202
609 0 1 -20.803745 -3.659897 17.566896
610 0 1 -20.229244 -2.889078 17.447100
611 0 1 -19.281345 -3.080057 17.685198
612 0 1 -19.093245 -2.789427 18.595400
613 0 1 -18.684145 -3.274628 19.313997
614 0 1 -17.789644 -3.093777 19.658297
615 0 1 -18.075544 -2.996428 20.614595
616 0 1 -18.145945 -3.821247 21.099398
617 0 1 -18.661646 -3.734488 21.878496
618 0 1 -19.499744 -3.184177 21.892504
619 0 1 -19.300144 -2.249577 21.689898
620 0 1 -19.328344 -1.471706 22.293108
621 0 1 -19.919645 -0.659956 22.485109
622 0 1 -20.279644 -0.687496 21.593798
623 0 1 -19.764145 0.067663 21.287294
624 0 1 -19.972744 0.595592 22.033602
625 0 1 -19.817844 1.275562 21.308397
626 0 1 -19.657944 2.140074 21.815996
627 0 1 -19.765345 1.690723 22.685793
628 0 1 -18.914845 1.780783 23.203310
629 0 1 -18.011745 1.783003 22.779299
630 0 1 -17.839745 2.780758 22.844790
631 0 1 -18.790146 2.915068 23.045290
632 0 1 -18.331745 3.747053 23.281801
633 0 1 -18.835545 3.461533 24.062807
634 0 1 -18.148045 3.514315 24.714602
635 0 1 -17.977446 4.358883 25.063417
636 0 1 -17.287344 5.004595 24.867403
637 0 1 -17.724245 5.655214 24.251192
638 0 1 -18.032745 5.244913 23.400515
639 0 1 -17.351545 5.407862 22.732302
640 0 1 -16.974646 6.083494 22.188799
641 0 1 -17.425045 6.743963 22.650515
642 0 1 -16.665144 6.791365 23.292910
643 0 1 -16.986444 7.084265 24.136110
644 0 1 -17.543245 7.581942 24.757387
645 0 1 -16.564844 7.718401 24.864809
646 0 1 -16.740644 6.985392 25.472597
647 0 1 -16.723345 6.039274 25.725100
648 0 1 -16.036045 6.450335 26.279787
649 0 1 -16.249144 5.636461 26.710115
650 0 1 -15.393345 5.460764 27.072206
651 0 1 -15.617643 4.603893 26.677614
652 0 1 -15.481344 3.817179 26.128298
653 0 1 -16.002945 3.222788 25.642397
654 0 1 -16.029545 2.506418 24.953615
655 0 1 -15.286444 2.273695 24.386995
656 0 1 -14.441645 2.313860 23.983492
657 0 1 -14.210443 2.017424 24.875093
658 0 1 -13.875444 2.158663 25.795992
659 0 1 -13.799246 3.076735 25.545412
660 0 1 -14.048044 3.315844 24.703707
661 0 1 -13.210146 3.803722 24.347689
662 0 1 -13.648245 3.841360 23.463289
663 0 1 -12.987944 4.540314 23.544313
664 0 1 -12.381254 3.726746 23.670504
665 0 1 -11.615416 4.296734 23.759096
666 0 1 -11.203276 5.152552 23.898806
667 0 1 -10.370184 4.958132 23.554110
668 0 1 -9.940435 5.758894 23.783510
669 0 1 -8.940344 5.892172 24.136110
670 0 1 -8.806734 5.031034 24.554293
671 0 1 -7.907555 4.891943 24.630007
672 0 1 -7.639426 4.191757 24.016207
673 0 1 -6.725556 4.234373 23.897402
674 0 1 -6.345295 3.565586 23.323092
675 0 1 -5.747466 3.193054 22.723696
676 0 1 -5.968245 4.075989 22.490206
677 0 1 -5.882136 4.956861 22.093599
678 0 1 -4.987034 5.388632 21.891603
679 0 1 -5.143775 6.128702 21.295595
680 0 1 -5.822794 5.579523 20.794298
681 0 1 -6.188324 4.657682 20.483095
682 0 1 -6.825406 4.777124 19.771700
683 0 1 -6.447205 4.122818 19.180208
684 0 1 -7.329585 3.882265 19.336504
685 0 1 -8.246725 3.572180 19.208208
686 0 1 -8.383135 3.228998 18.311800
687 0 1 -9.251474 3.530008 18.522402
688 0 1 -9.510015 3.302267 19.422304
689 0 1 -10.474455 3.456409 19.477999
690 0 1 -10.147785 4.362053 19.796999
691 0 1 -9.629435 4.050526 20.560610
692 0 1 -9.523235 3.158718 20.862307
693 0 1 -10.136335 2.340727 20.865801
694 0 1 -9.250334 2.063824 20.612001
695 0 1 -9.338095 1.459053 21.326799
696 0 1 -8.913185 0.797092 20.750902
697 0 1 -8.158585 1.062674 20.282198
698 0 1 -7.501915 0.700193 19.669710
699 0 1 -7.904095 -0.100607 20.166796
700 0 1 -8.897364 -0.281946 20.160097
701 0 1 -9.128225 0.101623 19.307894
702 0 1 -9.886484 0.480682 18.858599
703 0 1 -9.330025 0.906454 18.280504
704 0 1 -9.253584 0.099113 17.800508
705 0 1 -9.549015 -0.852068 17.727999
706 0 1 -8.660585 -1.038786 17.465899
707 0 1 -8.617744 -1.976147 17.246706
708 0 1 -9.192816 -2.759256 17.298601
709 0 1 -9.558886 -2.237957 16.605700
710 0 1 -9.547594 -3.022287 15.998506
711 0 1 -10.532515 -2.866488 16.182695
712 0 1 -10.510725 -2.820967 15.162705
713 0 1 -10.996574 -2.293596 14.516603
714 0 1 -10.416004 -2.178106 13.764802
715 0 1 -10.201216 -2.543056 12.912904
716 0 1 -10.218784 -2.001017 12.135804
717 0 1 -10.932695 -2.210238 11.518403
718 0 1 -11.725815 -2.739147 11.208405
719 0 1 -11.194654 -3.316767 10.648896
720 0 1 -10.322226 -3.064238 10.970902
721 0 1 -10.154905 -3.176697 10.020600
722 0 1 -9.539736 -2.479338 10.339906
723 0 1 -8.631124 -2.665426 10.568604
724 0 1 -8.433874 -3.054808 11.381104
725 0 1 -7.426384 -3.106768 11.458100
726 0 1 -6.525115 -3.506718 11.562898
727 0 1 -5.702864 -3.717596 12.034104
728 0 1 -6.157946 -4.562998 12.057099
729 0 1 -6.749165 -5.283617 11.858598
730 0 1 -6.082846 -5.890007 11.608796
731 0 1 -6.587416 -6.098646 10.775605
732 0 1 -5.696215 -6.310236 10.263398
733 0 1 -4.852086 -6.743887 10.297502
734 0 1 -4.575385 -5.819727 10.176194
735 0 1 -4.135125 -6.148127 9.396989
736 0 1 -3.247065 -6.450068 9.353974
737 0 1 -2.500227 -7.024477 9.369935
738 0 1 -1.922286 -7.628677 9.807908
739 0 1 -2.035721 -7.718977 10.767594
740 0 1 -2.346409 -8.666376 10.574998
741 0 1 -2.898669 -9.246477 11.131196
742 0 1 -3.146414 -8.630777 11.832398
743 0 1 -2.760525 -7.727577 11.840898
744 0 1 -2.034792 -8.244377 12.202699
745 0 1 -1.971892 -8.778677 13.016007
746 0 1 -2.558516 -9.065277 13.699708
747 0 1 -2.303473 -9.799978 13.115602
748 0 1 -2.837710 -10.536978 12.646501
749 0 1 -3.659491 -10.841078 13.009706
750 0 1 -3.966765 -11.583677 12.535493
751 0 1 -3.267935 -11.960477 12.988694
752 0 1 -3.282954 -12.697077 13.677903
753 0 1 -2.356274 -12.927776 13.739106
754 0 1 -2.262139 -13.038477 14.738801
755 0 1 -2.321257 -14.001677 14.510301
756 0 1 -2.204216 -14.949577 14.506608
757 0 1 -1.648955 -15.613876 15.057008
758 0 1 -1.573935 -15.873177 14.117997
759 0 1 -0.710467 -16.088877 14.533601
760 0 1 -0.259234 -16.904278 14.822602
761 0 1 -0.130644 -17.721777 15.326600
762 0 1 0.534826 -17.264677 15.837602
763 0 1 1.325635 -16.751677 15.961106
764 0 1 2.130826 -16.244778 15.820405
765 0 1 1.502904 -15.685476 15.342805
766 0 1 1.338537 -15.533676 16.327501
767 0 1 2.162614 -15.192677 16.634310
768 0 1 1.784814 -14.996977 17.548006
769 0 1 2.069204 -14.100878 17.883898
770 0 1 2.259794 -13.160976 17.638308
771 0 1 2.733095 -13.042578 16.767199
772 0 1 3.112764 -13.122976 15.897096
773 0 1 3.518465 -12.423777 15.301606
774 0 1 3.497476 -11.866977 16.160204
775 0 1 2.601594 -11.604577 15.952195
776 0 1 1.784376 -11.816177 15.535905
777 0 1 0.804735 -11.677877 15.345994
778 0 1 1.281145 -10.917177 15.351701
779 0 1 2.240076 -10.834677 15.258393
780 0 1 2.136976 -9.886677 15.479295
781 0 1 1.490434 -9.982477 14.665605
782 0 1 2.015695 -9.923777 13.787904
783 0 1 2.445695 -9.412477 14.464295
784 0 1 3.190645 -8.745176 14.286698