LAMMPS data file via MDAnalysis

        2000  atoms
        1999  bonds
           0  angles
           0  dihedrals
           0  impropers

           1  atom types
           1  bond types
           0  angle types
           0  dihedral types
           0  improper types

-30.5 30.5 xlo xhi
-30.5 30.5 ylo yhi
-233.5 233.5 zlo zhi


Masses

1 1.000000

Atoms

1 0 1 5.939864 -9.653676 49.932709
2 0 1 5.783664 -9.290166 49.067413
3 0 1 5.381564 -8.955106 48.264587
4 0 1 4.796962 -8.232017 47.903992
5 0 1 5.640361 -7.818376 48.185791
6 0 1 6.582164 -7.436416 48.289490
7 0 1 6.687465 -8.076806 47.580811
8 0 1 7.577064 -8.187156 47.628113
9 0 1 7.413764 -7.247895 47.377502
10 0 1 7.577464 -6.290055 47.067291
11 0 1 7.745364 -5.460814 47.573608
12 0 1 7.968463 -4.545705 47.866699
13 0 1 7.567863 -3.773376 47.437988
14 0 1 7.346065 -2.817210 47.449585
15 0 1 7.141963 -2.040381 47.013611
16 0 1 7.257762 -2.711696 46.323914
17 0 1 7.481662 -2.834207 45.380096
18 0 1 6.531363 -3.099454 45.111603
19 0 1 6.018664 -2.629111 45.792206
20 0 1 5.132163 -2.606248 46.164490
21 0 1 5.467963 -2.272576 47.037689
22 0 1 5.316764 -1.638045 47.771698
23 0 1 4.829265 -1.010207 47.194092
24 0 1 5.353362 -0.306026 46.872406
25 0 1 5.041461 0.581464 46.618988
26 0 1 4.233962 1.084146 46.976685
27 0 1 4.320361 1.560697 47.755890
28 0 1 3.785564 1.950295 48.403809
29 0 1 3.050601 1.790803 48.992401
30 0 1 2.952144 1.169045 48.192413
31 0 1 3.184623 1.115613 47.281097
32 0 1 3.582362 1.965245 47.180389
33 0 1 2.800864 2.318852 46.771790
34 0 1 1.908633 2.152246 46.525391
35 0 1 1.510875 1.431016 46.976410
36 0 1 1.019134 2.214505 46.999298
37 0 1 1.430114 2.813306 47.644806
38 0 1 0.510875 2.499894 47.853302
39 0 1 0.410342 3.397843 47.437500
40 0 1 0.143272 3.573834 46.529602
41 0 1 -0.250657 4.409623 46.287994
42 0 1 -1.058617 4.874093 46.670715
43 0 1 -1.337518 4.826306 45.785583
44 0 1 -1.634507 5.693753 46.079285
45 0 1 -1.327695 6.659245 45.947906
46 0 1 -2.211438 6.583295 45.709717
47 0 1 -3.010648 6.084306 45.916687
48 0 1 -2.941247 6.274396 46.888916
49 0 1 -3.594815 5.574365 47.082886
50 0 1 -3.510136 4.719926 46.669708
51 0 1 -4.352239 5.002053 46.403290
52 0 1 -4.597917 4.224435 46.932800
53 0 1 -5.157487 3.426484 47.057007
54 0 1 -6.083804 3.545846 46.756195
55 0 1 -6.603705 4.350205 47.040405
56 0 1 -6.034331 5.045186 47.422211
57 0 1 -5.896663 4.962846 48.350494
58 0 1 -6.585128 5.650605 48.233490
59 0 1 -6.705426 6.054585 49.133484
60 0 1 -6.204795 6.773164 48.748993
61 0 1 -5.295337 7.131135 48.717896
62 0 1 -4.563008 6.971784 48.201111
63 0 1 -3.713555 7.311727 47.973907
64 0 1 -3.379975 6.994065 48.833984
65 0 1 -3.551705 7.605824 49.559204
66 0 1 -3.170506 8.506326 49.610687
67 0 1 -3.088528 8.294625 50.554199
68 0 1 -2.459706 8.280625 51.322388
69 0 1 -2.990525 7.490724 51.604797
70 0 1 -2.139447 7.331223 51.252686
71 0 1 -1.758988 7.090413 50.347504
72 0 1 -2.170125 6.276242 50.688904
73 0 1 -3.046845 6.666913 50.795990
74 0 1 -3.056306 5.720716 50.945312
75 0 1 -3.590947 5.687673 51.770599
76 0 1 -3.470467 5.069325 52.525085
77 0 1 -3.642598 4.137174 52.470398
78 0 1 -3.033715 3.841023 53.161896
79 0 1 -3.727837 3.197633 53.035889
80 0 1 -3.898156 2.510175 52.359009
81 0 1 -3.535065 1.598004 52.581696
82 0 1 -2.630467 1.685674 52.804199
83 0 1 -1.845437 1.145894 52.657104
84 0 1 -1.103639 1.076356 52.021210
85 0 1 -0.799916 1.857724 51.451111
86 0 1 -0.022817 1.817174 52.024506
87 0 1 -0.708646 2.198373 52.535309
88 0 1 -0.040608 1.694264 53.073486
89 0 1 0.807933 1.914296 53.274994
90 0 1 1.576862 1.647035 53.711609
91 0 1 2.191383 1.125516 52.995300
92 0 1 3.147235 1.127053 52.827698
93 0 1 3.663364 0.910485 53.746399
94 0 1 4.236362 1.437264 53.178589
95 0 1 4.869761 1.777253 53.819885
96 0 1 4.070163 2.289094 54.080597
97 0 1 4.156764 3.211156 54.048584
98 0 1 3.523063 3.242505 54.769897
99 0 1 3.213931 3.980214 54.268188
100 0 1 3.364162 4.864842 53.916199
101 0 1 4.347362 4.890035 54.144897
102 0 1 5.062465 5.311044 53.507507
103 0 1 6.109363 5.406156 53.640900
104 0 1 6.827464 5.672135 52.956207
105 0 1 7.324862 6.220975 53.593506
106 0 1 7.292563 5.369756 54.057495
107 0 1 6.588164 4.741315 54.343597
108 0 1 6.665164 4.450566 53.406799
109 0 1 7.097362 3.671063 53.040283
110 0 1 7.773761 4.012124 53.627808
111 0 1 8.695163 4.174066 53.751495
112 0 1 9.509864 4.644506 53.948303
113 0 1 10.470363 4.567445 53.908112
114 0 1 10.390662 5.528264 53.746704
115 0 1 9.562762 5.633206 53.359192
116 0 1 9.631263 6.520783 53.684814
117 0 1 10.127360 6.600705 54.509613
118 0 1 10.597564 7.301526 54.014893
119 0 1 10.720363 7.715726 53.075104
120 0 1 10.858462 8.659925 52.746307
121 0 1 11.008265 8.593724 53.704407
122 0 1 11.662761 9.252725 53.334198
123 0 1 11.209563 10.033025 53.745300
124 0 1 10.606860 10.803926 53.916992
125 0 1 9.776263 11.253224 53.693604
126 0 1 9.344764 10.542325 53.340790
127 0 1 9.597262 11.112622 52.617004
128 0 1 10.123862 10.414926 52.083008
129 0 1 10.671863 9.774526 51.653015
130 0 1 11.140765 9.077924 51.076904
131 0 1 11.809566 8.981923 51.798004
132 0 1 12.368960 8.309724 51.493195
133 0 1 12.614463 7.939626 50.658691
134 0 1 12.570662 7.020955 50.955902
135 0 1 11.990462 6.249475 50.960388
136 0 1 11.435664 6.107503 50.187805
137 0 1 12.018062 6.703275 49.792908
138 0 1 11.952464 5.830945 49.259399
139 0 1 11.647761 5.625443 48.382385
140 0 1 11.802062 6.504434 47.911987
141 0 1 12.450263 7.265466 47.723206
142 0 1 12.655261 8.170026 47.601807
143 0 1 12.861564 8.073525 46.648407
144 0 1 12.023063 8.462323 46.438110
145 0 1 12.046763 7.904424 45.682190
146 0 1 11.075961 7.915223 45.637207
147 0 1 11.423060 8.866925 45.391296
148 0 1 10.501563 9.090325 45.256714
149 0 1 9.677760 9.615224 45.460083
150 0 1 9.071765 9.942822 46.201294
151 0 1 9.003261 10.904023 46.232483
152 0 1 9.787963 11.310723 45.995392
153 0 1 9.350963 12.003423 46.447906
154 0 1 9.882663 11.837422 47.259308
155 0 1 9.845561 12.485227 47.967499
156 0 1 10.314662 11.733426 48.235107
157 0 1 10.807765 11.880025 49.040100
158 0 1 11.797061 11.795423 49.238708
159 0 1 12.109065 11.407926 50.198914
160 0 1 12.051963 10.499524 50.473602
161 0 1 12.700061 10.343125 49.756989
162 0 1 13.141360 10.629724 50.556793
163 0 1 13.706965 11.101525 49.890594
164 0 1 14.650966 10.970525 50.082001
165 0 1 15.195865 10.873425 49.243011
166 0 1 14.690864 11.075925 48.410492
167 0 1 13.834765 11.433324 48.680786
168 0 1 12.920764 11.533223 48.751190
169 0 1 12.636065 10.862424 47.992401
170 0 1 12.607364 9.910325 48.218903
171 0 1 12.950061 10.047322 47.316010
172 0 1 13.415065 10.470426 46.661804
173 0 1 14.291461 11.029126 46.829712
174 0 1 15.134562 10.681523 46.618591
175 0 1 15.304362 11.634225 46.627686
176 0 1 16.055763 12.263227 46.493591
177 0 1 16.201164 11.281323 46.144592
178 0 1 16.172264 10.717423 45.370789
179 0 1 16.594765 10.171723 44.683105
180 0 1 16.509167 9.313024 45.134705
181 0 1 15.562465 9.328023 45.122894
182 0 1 15.181964 8.538426 44.862915
183 0 1 15.601665 7.616525 44.745789
184 0 1 14.885364 7.638825 44.142883
185 0 1 14.074264 8.111024 44.422211
186 0 1 13.252563 7.628526 44.528809
187 0 1 13.526065 6.732846 44.725708
188 0 1 14.417563 6.370465 44.956696
189 0 1 14.039264 6.868646 45.665497
190 0 1 13.301265 6.676705 46.332794
191 0 1 13.394664 5.733373 46.581787
192 0 1 13.760760 5.077233 47.184601
193 0 1 13.030463 4.585855 47.559692
194 0 1 13.668063 4.077893 47.069611
195 0 1 14.317966 3.562886 46.501892
196 0 1 14.754863 3.453393 47.368500
197 0 1 14.962863 2.576875 46.965790
198 0 1 15.755961 2.555326 47.533386
199 0 1 16.263065 3.351796 47.828613
200 0 1 15.925761 3.936624 48.477112
201 0 1 16.091465 4.440366 47.715698
202 0 1 16.333363 4.431165 46.783508
203 0 1 17.229961 4.154065 46.922211
204 0 1 17.813965 4.743264 46.342194
205 0 1 17.789265 3.852075 46.010101
206 0 1 18.164463 2.982255 46.065399
207 0 1 18.015362 2.021123 46.358398
208 0 1 17.446064 1.224763 46.507812
209 0 1 17.347065 0.271436 46.160095
210 0 1 16.488064 0.680474 45.942200
211 0 1 15.770366 1.228295 46.442413
212 0 1 15.560264 1.000295 47.413391
213 0 1 14.806460 1.168843 47.979004
214 0 1 14.345763 0.295495 47.559998
215 0 1 14.614062 -0.159877 46.752014
216 0 1 14.969066 -0.930236 47.251099
217 0 1 15.378863 -1.812629 47.491791
218 0 1 14.945361 -2.659583 47.259491
219 0 1 14.799163 -2.548978 48.204895
220 0 1 15.375865 -2.140105 48.884491
221 0 1 15.965961 -1.383405 49.139709
222 0 1 16.607964 -1.853246 49.654510
223 0 1 17.414463 -1.229426 49.451599
224 0 1 17.758965 -1.376756 48.563507
225 0 1 17.879162 -0.402316 48.119812
226 0 1 18.405666 0.285264 48.493713
227 0 1 19.062763 -0.255786 48.089203
228 0 1 19.652763 0.166474 47.458893
229 0 1 19.692364 -0.699634 47.061096
230 0 1 20.605465 -0.812514 46.778015
231 0 1 20.886765 -1.605626 46.271088
232 0 1 21.125164 -2.012557 45.300415
233 0 1 21.757366 -1.553956 44.637390
234 0 1 21.226063 -0.840446 45.000183
235 0 1 20.686565 -1.502906 44.511505
236 0 1 20.791561 -1.734601 43.646393
237 0 1 21.023167 -2.582095 44.133087
238 0 1 21.605366 -3.141519 43.705811
239 0 1 21.399166 -3.767415 44.348999
240 0 1 20.857464 -4.431275 44.879791
241 0 1 20.247066 -5.254546 44.762695
242 0 1 19.914364 -4.543765 45.345490
243 0 1 19.708363 -5.177855 46.035889
244 0 1 19.633564 -5.162486 46.986389
245 0 1 20.128765 -5.756366 47.541199
246 0 1 20.583462 -6.382056 48.055206
247 0 1 21.053864 -6.362086 47.200500
248 0 1 20.699467 -7.277835 47.484589
249 0 1 20.234264 -7.853835 46.851898
250 0 1 20.770061 -7.545705 46.138611
251 0 1 20.609463 -6.635196 45.887512
252 0 1 20.184261 -7.038016 45.141785
253 0 1 19.174065 -6.926906 45.136108
254 0 1 18.263561 -7.204345 45.003784
255 0 1 17.833965 -8.064567 45.390594
256 0 1 18.153065 -7.688405 46.313293
257 0 1 17.862064 -8.497535 46.770203
258 0 1 17.044563 -8.607766 46.208801
259 0 1 16.069065 -8.401076 46.469910
260 0 1 16.538662 -7.744546 47.013000
261 0 1 16.498463 -8.254096 47.880188
262 0 1 16.759365 -7.926616 48.756409
263 0 1 16.530262 -8.436515 49.557007
264 0 1 15.585261 -8.557305 49.823608
265 0 1 15.861762 -8.422776 50.781799
266 0 1 16.577564 -8.047585 51.354492
267 0 1 16.885864 -7.309716 50.855713
268 0 1 16.124664 -7.039966 51.424713
269 0 1 15.330562 -7.194137 51.960297
270 0 1 14.564063 -7.842135 51.908386
271 0 1 13.859660 -7.181827 52.018890
272 0 1 13.637664 -6.516736 51.369995
273 0 1 14.377063 -6.114175 51.805298
274 0 1 14.624560 -5.520286 52.465790
275 0 1 14.600963 -4.841926 51.721497
276 0 1 15.222262 -4.170346 51.579712
277 0 1 16.070965 -4.363696 51.151489
278 0 1 16.458965 -5.138486 51.572815
279 0 1 15.997165 -5.540435 50.841309
280 0 1 15.507064 -5.426196 50.043793
281 0 1 14.613063 -5.662236 49.836487
282 0 1 14.657863 -5.271316 48.936493
283 0 1 14.137664 -4.592366 48.396606
284 0 1 13.619761 -3.827146 48.386505
285 0 1 13.282363 -2.934775 48.565186
286 0 1 13.475062 -1.961835 48.323700
287 0 1 13.771861 -2.130618 47.443115
288 0 1 12.863162 -2.430251 47.512909
289 0 1 12.300563 -2.164819 46.741211
290 0 1 12.201262 -2.941627 46.036499
291 0 1 13.086162 -2.521428 45.885315
292 0 1 12.731860 -2.342494 45.011597
293 0 1 13.084964 -3.267478 45.142517
294 0 1 13.759761 -3.685496 45.768188
295 0 1 13.532062 -4.623855 45.987915
296 0 1 12.986762 -4.424376 45.270386
297 0 1 12.445662 -4.680636 46.029114
298 0 1 11.694564 -4.961745 45.397583
299 0 1 10.953563 -4.833966 44.792694
300 0 1 10.490260 -5.656276 44.779785
301 0 1 9.742763 -6.189006 44.832397
302 0 1 8.882163 -6.000915 44.516113
303 0 1 8.343265 -5.272456 44.085907
304 0 1 8.375964 -5.914756 43.456787
305 0 1 9.058665 -5.817706 42.760590
306 0 1 9.273364 -6.622336 42.179016
307 0 1 9.372863 -6.025285 41.370789
308 0 1 9.630061 -5.192996 40.966309
309 0 1 8.809264 -4.792586 41.053894
310 0 1 8.099364 -4.430095 40.525696
311 0 1 8.065761 -5.064916 39.843903
312 0 1 8.510062 -4.453425 39.260010
313 0 1 8.330562 -5.280326 38.823303
314 0 1 8.952861 -5.831685 39.339600
315 0 1 9.787166 -5.916995 39.880096
316 0 1 10.432063 -6.607236 39.987213
317 0 1 10.167663 -6.531825 39.032410
318 0 1 10.814761 -5.808896 38.799713
319 0 1 11.685466 -6.127135 39.022583
320 0 1 12.095263 -5.489856 39.600586
321 0 1 12.815166 -5.211616 39.037689
322 0 1 12.686164 -4.853866 38.193909
323 0 1 13.601462 -4.740726 38.107391
324 0 1 13.617862 -3.755395 37.817993
325 0 1 13.774562 -2.774941 37.919098
326 0 1 13.250064 -1.983653 38.201904
327 0 1 12.950961 -1.627435 37.330811
328 0 1 13.258265 -1.711999 36.420715
329 0 1 12.623263 -2.056846 35.844299
330 0 1 12.113063 -2.644267 36.367798
331 0 1 11.531566 -1.946418 36.007202
332 0 1 11.412265 -1.069175 36.456207
333 0 1 11.379363 -0.613685 37.339111
334 0 1 11.030765 0.316113 37.216888
335 0 1 10.670363 1.189534 36.817413
336 0 1 10.701861 2.137624 36.976685
337 0 1 11.682361 1.895844 37.014404
338 0 1 11.460963 2.718225 36.588806
339 0 1 11.189063 3.613454 36.833099
340 0 1 10.473361 4.257375 36.700500
341 0 1 10.775363 4.176904 37.587311
342 0 1 11.393264 4.023465 38.346893
343 0 1 11.011863 3.114175 38.325592
344 0 1 10.557963 3.694142 38.980103
345 0 1 9.604060 3.737264 38.854095
346 0 1 9.518565 4.257695 39.660706
347 0 1 9.902560 4.759526 38.964600
348 0 1 9.536265 5.187325 38.138397
349 0 1 9.905162 6.010285 38.027893
350 0 1 9.201262 6.489755 38.581909
351 0 1 9.902263 7.082723 38.290192
352 0 1 9.334563 7.629724 38.848206
353 0 1 9.616763 8.108026 39.704712
354 0 1 9.910262 8.799024 40.286407
355 0 1 8.962764 9.022923 40.494385
356 0 1 8.183463 8.703225 40.026093
357 0 1 8.697062 8.964025 39.266907
358 0 1 8.479964 8.275926 38.677887
359 0 1 7.749763 8.068326 38.020691
360 0 1 7.085563 8.830125 38.297394
361 0 1 6.512664 8.894223 39.068604
362 0 1 5.800162 8.321626 39.020599
363 0 1 5.150962 8.838323 38.545410
364 0 1 4.751063 8.589223 37.656799
365 0 1 5.578864 8.276025 37.316589
366 0 1 5.955165 8.913724 36.716705
367 0 1 6.544063 9.595624 36.357483
368 0 1 6.163463 10.458226 36.313110
369 0 1 5.903361 10.640622 37.166504
370 0 1 5.716662 11.123124 37.952209
371 0 1 5.720664 12.118424 38.049805
372 0 1 5.577365 12.835523 38.673584
373 0 1 5.389361 12.317723 39.535889
374 0 1 5.503963 13.168626 40.045990
375 0 1 6.419364 13.339925 39.648193
376 0 1 6.034762 13.749425 38.905396
377 0 1 6.776065 14.113725 38.499084
378 0 1 7.621463 13.682725 38.578308
379 0 1 8.218265 13.973622 37.879395
380 0 1 7.505763 14.500722 37.523712
381 0 1 6.750865 14.100026 37.094910
382 0 1 5.772964 14.314527 37.289490
383 0 1 5.079562 13.627324 37.138489
384 0 1 5.039664 13.571523 36.145203
385 0 1 5.897464 13.742024 35.729187
386 0 1 6.057563 13.130525 36.453796
387 0 1 6.902263 13.374925 36.006592
388 0 1 7.420665 13.404622 35.192017
389 0 1 6.839961 13.710423 34.470093
390 0 1 6.131465 14.253423 33.954193
391 0 1 6.135463 13.875623 33.069092
392 0 1 6.761062 14.607923 33.145813
393 0 1 5.977763 15.122724 33.153900
394 0 1 5.438563 15.692723 33.800110
395 0 1 4.555362 15.299325 33.528290
396 0 1 3.692264 15.488027 33.191010
397 0 1 3.854465 14.522122 33.011200
398 0 1 3.422664 13.924123 33.577209
399 0 1 3.574863 13.255925 34.318298
400 0 1 3.646163 13.236924 35.301300
401 0 1 3.658664 12.353124 35.701813
402 0 1 3.753463 12.196126 36.612701
403 0 1 2.931663 12.625024 36.867310
404 0 1 2.068942 13.144525 37.016785
405 0 1 1.368144 12.455323 37.267792
406 0 1 0.845672 12.862523 37.955688
407 0 1 0.739543 12.974824 38.899109
408 0 1 0.039024 13.454823 39.300903
409 0 1 0.221954 14.055226 40.118896
410 0 1 0.941032 14.626325 39.783600
411 0 1 1.304893 15.011022 38.980499
412 0 1 0.667453 14.453824 38.549500
413 0 1 0.939822 14.383527 37.592102
414 0 1 0.850333 15.263326 37.098511
415 0 1 -0.062207 15.212525 36.992798
416 0 1 -0.015885 15.911527 36.377502
417 0 1 -0.910947 15.777722 36.128204
418 0 1 -1.888848 15.838422 36.320709
419 0 1 -2.500699 15.285424 36.729401
420 0 1 -2.922368 14.997426 37.566589
421 0 1 -3.133378 14.660626 38.480286
422 0 1 -3.497048 13.967626 38.993011
423 0 1 -3.780125 13.402024 38.317993
424 0 1 -3.671727 12.723825 38.914795
425 0 1 -3.280488 11.877324 39.134308
426 0 1 -3.514848 10.962525 39.217102
427 0 1 -4.447995 11.068524 39.242706
428 0 1 -4.124356 10.571626 39.977600
429 0 1 -4.750695 10.286122 40.688416
430 0 1 -4.806066 9.352025 41.096710
431 0 1 -4.197587 9.229424 40.351990
432 0 1 -3.958646 8.885022 39.512787
433 0 1 -3.647988 8.873025 38.543396
434 0 1 -3.665898 9.679925 37.942291
435 0 1 -2.725178 9.711724 37.723999
436 0 1 -1.818375 9.771726 37.968201
437 0 1 -0.903748 10.023023 37.653198
438 0 1 -0.038007 10.297524 37.715210
439 0 1 -0.122846 9.759625 36.910004
440 0 1 0.495372 10.212827 36.354187
441 0 1 0.271785 11.010823 35.885803
442 0 1 0.951614 11.594323 35.469391
443 0 1 1.519313 11.991525 34.816803
444 0 1 2.130634 12.185925 35.529205
445 0 1 2.427371 13.034223 35.822205
446 0 1 2.103824 13.638822 35.187012
447 0 1 2.777416 14.357324 34.948395
448 0 1 3.374164 14.931623 35.376709
449 0 1 3.662063 15.100522 36.289703
450 0 1 3.122295 14.654126 37.017792
451 0 1 4.086665 14.644124 37.177795
452 0 1 4.679965 14.799123 36.464294
453 0 1 4.663863 15.764623 36.355988
454 0 1 5.513362 16.291325 36.174408
455 0 1 5.160064 16.440426 37.071106
456 0 1 4.421863 17.000622 36.730896
457 0 1 3.984264 17.812122 36.391113
458 0 1 3.427661 17.748524 37.229492
459 0 1 2.952754 18.147724 37.982117
460 0 1 3.150665 18.860622 37.382904
461 0 1 2.554893 19.205524 38.035095
462 0 1 2.124233 20.012821 38.380615
463 0 1 2.448493 20.661423 37.726990
464 0 1 3.328784 20.353825 37.978394
465 0 1 3.742061 20.009022 37.139313
466 0 1 4.277064 19.759922 37.901398
467 0 1 4.520263 19.265724 37.162292
468 0 1 4.383563 18.578426 37.861816
469 0 1 4.740363 18.334026 38.737915
470 0 1 5.411063 19.004826 38.841797
471 0 1 5.745761 19.875923 38.655792
472 0 1 5.358462 20.631023 38.219208
473 0 1 5.005862 21.588421 38.299805
474 0 1 4.525165 21.548424 37.477295
475 0 1 4.127864 22.414822 37.190491
476 0 1 4.817763 22.964024 36.838196
477 0 1 4.840762 22.153923 36.364594
478 0 1 5.271861 22.528721 35.637512
479 0 1 5.941863 21.850925 35.599701
480 0 1 5.898864 21.035923 36.079010
481 0 1 5.269462 20.441822 35.659210
482 0 1 4.846965 19.543026 35.664490
483 0 1 5.190364 19.469326 34.728210
484 0 1 4.894961 20.379124 34.694794
485 0 1 5.968463 20.478523 34.803894
486 0 1 6.512362 19.671825 35.118286
487 0 1 6.876063 20.242825 34.425995
488 0 1 7.093562 19.309422 34.098083
489 0 1 7.623164 19.973125 33.564606
490 0 1 7.139762 19.890522 32.742004
491 0 1 7.910563 19.542423 32.252411
492 0 1 8.500361 19.493725 31.468506
493 0 1 8.004962 18.937923 30.742310
494 0 1 8.719562 18.607426 30.111389
495 0 1 9.646564 18.668724 30.187500
496 0 1 10.247264 18.077324 30.740906
497 0 1 10.015361 17.718323 29.841705
498 0 1 9.885062 18.064724 28.932495
499 0 1 10.031962 17.348522 28.306396
500 0 1 10.176364 17.070522 27.398315
501 0 1 9.498664 16.882423 26.714813
502 0 1 9.348563 16.443325 25.926514
503 0 1 8.577163 15.810525 25.540802
504 0 1 7.881362 16.384323 25.203400
505 0 1 8.175265 16.707226 24.342285
506 0 1 7.532462 16.233223 23.827087
507 0 1 6.796462 16.061024 23.178101
508 0 1 7.442462 16.520023 22.660614
509 0 1 7.281665 16.706024 21.679001
510 0 1 7.667262 16.036823 21.149902
511 0 1 6.796863 15.754624 21.502594
512 0 1 5.960464 15.261525 21.500595
513 0 1 5.018264 15.385724 21.259995
514 0 1 4.154864 15.669625 21.602402
515 0 1 3.613063 16.362724 21.106094
516 0 1 3.376361 16.557926 20.241806
517 0 1 2.951205 17.161423 19.628998
518 0 1 3.297813 16.983124 18.623398
519 0 1 3.021613 16.201725 18.180496
520 0 1 2.789123 16.219021 17.219406
521 0 1 1.849044 15.850926 17.158905
522 0 1 1.904784 16.408222 16.396103
523 0 1 1.025024 16.104824 16.221695
524 0 1 0.227943 16.503521 15.951508
525 0 1 -0.443028 16.009022 15.450394
526 0 1 0.200904 16.183422 14.714600
527 0 1 -0.198846 15.309026 14.657501
528 0 1 -0.963517 15.201222 14.182098
529 0 1 -1.675847 15.272626 14.843597
530 0 1 -2.585667 15.431825 14.642899
531 0 1 -3.201268 14.702123 14.964905
532 0 1 -3.159428 14.412724 14.086899
533 0 1 -3.317586 13.434323 14.153198
534 0 1 -4.100087 13.773625 13.828705
535 0 1 -4.190957 13.069623 13.168503
536 0 1 -3.755807 12.233926 13.063797
537 0 1 -3.193745 11.598725 12.494904
538 0 1 -3.174195 11.424325 13.421906
539 0 1 -4.089616 11.271424 13.500107
540 0 1 -4.888455 11.307225 12.968994
541 0 1 -5.460588 11.618222 12.243195
542 0 1 -4.718808 12.299424 12.461502
543 0 1 -4.916398 12.926225 11.831406
544 0 1 -5.261968 13.846723 11.829498
545 0 1 -6.026547 13.537122 12.300705
546 0 1 -6.640637 14.258725 12.322006
547 0 1 -6.508502 15.141126 12.656006
548 0 1 -6.998809 15.348523 11.835205
549 0 1 -7.506516 15.945722 12.369400
550 0 1 -7.581462 16.503624 13.120407
551 0 1 -8.563638 16.135822 13.371506
552 0 1 -8.360587 17.075424 13.630096
553 0 1 -8.486007 17.840424 13.090897
554 0 1 -8.823747 18.275223 12.294098
555 0 1 -9.783317 18.190624 11.974503
556 0 1 -9.312938 17.552021 11.406006
557 0 1 -9.605866 17.524723 10.489197
558 0 1 -10.253026 17.836624 9.725296
559 0 1 -10.974418 17.808521 10.286804
560 0 1 -10.991157 18.102825 11.178894
561 0 1 -11.609647 18.456024 11.800201
562 0 1 -12.115527 18.123425 12.557907
563 0 1 -11.867368 17.236923 12.920303
564 0 1 -11.417016 17.481323 13.735596
565 0 1 -12.368487 17.595524 13.813095
566 0 1 -12.388417 16.684124 14.139496
567 0 1 -13.021417 17.068024 14.756897
568 0 1 -13.949527 16.924122 14.855606
569 0 1 -13.716287 17.771923 15.155304
570 0 1 -13.156857 17.560322 15.903793
571 0 1 -14.097497 17.323925 16.131104
572 0 1 -13.610566 16.458824 16.311005
573 0 1 -13.696597 15.621922 15.834000
574 0 1 -13.999087 14.625722 15.887695
575 0 1 -14.295228 14.040723 15.158295
576 0 1 -14.712346 13.295823 14.701706
577 0 1 -15.664607 13.024922 14.832397
578 0 1 -15.701806 13.906026 14.569397
579 0 1 -16.310715 14.410123 15.136795
580 0 1 -15.641517 15.124623 14.955597
581 0 1 -15.418866 15.998025 14.732697
582 0 1 -15.917756 16.703823 14.299103
583 0 1 -16.721336 16.591423 13.734100
584 0 1 -16.549616 15.767323 13.234802
585 0 1 -17.020737 16.185223 12.517899
586 0 1 -17.904137 16.241924 12.299301
587 0 1 -18.740337 16.630924 11.821701
588 0 1 -19.000736 16.477924 10.859802
589 0 1 -18.723537 15.540124 10.646194
590 0 1 -18.448036 14.832822 11.189194
591 0 1 -18.031937 14.045522 10.850800
592 0 1 -17.547237 13.193326 11.068802
593 0 1 -17.133436 13.941125 11.481293
594 0 1 -17.132936 13.565923 12.445007
595 0 1 -16.207397 13.302823 12.730698
596 0 1 -15.507348 13.647626 12.144806
597 0 1 -16.049366 14.087926 11.451202
598 0 1 -15.985227 14.869023 11.985596
599 0 1 -15.156137 15.238225 11.920502
600 0 1 -14.264937 15.254224 11.615005
601 0 1 -14.270427 15.281522 10.597504
602 0 1 -13.923327 15.163922 9.638123
603 0 1 -13.719916 14.242322 9.706894
604 0 1 -14.686238 13.889825 9.686737
605 0 1 -14.523976 13.027326 9.318512
606 0 1 -14.530347 12.730325 10.227005
607 0 1 -13.910567 11.998624 10.366104
608 0 1 -14.036157 11.464425 11.215500
609 0 1 -14.747567 10.860623 11.579697
610 0 1 -14.388797 11.093324 12.409897
611 0 1 -14.787976 11.775823 13.039993
612 0 1 -15.415986 11.258023 13.571899
613 0 1 -16.253956 11.420423 13.103302
614 0 1 -16.722836 10.932923 12.343201
615 0 1 -17.580236 10.756425 12.642303
616 0 1 -18.056335 10.053224 13.121307
617 0 1 -17.510736 9.415223 12.660599
618 0 1 -16.827536 9.163224 12.000198
619 0 1 -15.975968 8.675725 12.178406
620 0 1 -15.881616 7.740827 12.104202
621 0 1 -16.181726 7.170896 11.397003
622 0 1 -16.902737 6.431565 11.351700
623 0 1 -17.639536 7.007993 11.218094
624 0 1 -18.076736 6.455735 10.604797
625 0 1 -18.540535 5.844155 10.079605
626 0 1 -19.376436 5.963063 9.685791
627 0 1 -19.861036 5.961293 10.445099
628 0 1 -19.564636 5.001725 10.513794
629 0 1 -20.036037 4.634706 11.253296
630 0 1 -20.703735 4.499295 11.968903
631 0 1 -20.365635 3.655076 12.020905
632 0 1 -19.530336 4.136434 12.207397
633 0 1 -18.738636 3.624543 12.292404
634 0 1 -18.713636 2.667974 12.465897
635 0 1 -17.945436 2.786294 11.882599
636 0 1 -17.312435 3.240163 12.412903
637 0 1 -16.661987 3.896543 12.326904
638 0 1 -17.212635 4.156293 13.041702
639 0 1 -16.561876 3.576413 13.420700
640 0 1 -16.158476 2.861974 13.931793
641 0 1 -15.302278 3.019925 13.587494
642 0 1 -15.058637 2.805615 12.677795
643 0 1 -14.610217 2.553876 11.779800
644 0 1 -14.524278 2.098023 10.961395
645 0 1 -13.558007 1.765405 10.955795
646 0 1 -12.745757 1.346753 10.664093
647 0 1 -11.928876 1.620435 10.279099
648 0 1 -11.285916 1.356423 10.989807
649 0 1 -11.797717 1.739366 11.748306
650 0 1 -11.657416 0.851026 11.725098
651 0 1 -11.025767 0.291944 12.150894
652 0 1 -11.250226 -0.530974 12.607300
653 0 1 -10.703828 -0.899554 11.954803
654 0 1 -10.322797 -0.316745 11.234497
655 0 1 -9.816487 0.312165 11.773697
656 0 1 -9.468797 1.098165 12.131500
657 0 1 -8.905387 1.191525 12.891495
658 0 1 -9.422606 0.415494 13.048904
659 0 1 -10.027448 1.113404 13.371704
660 0 1 -10.829997 0.698834 13.608704
661 0 1 -10.803597 1.385705 14.265198
662 0 1 -10.516236 1.807294 15.140106
663 0 1 -9.888556 2.444905 15.643997
664 0 1 -9.791226 1.588586 16.187897
665 0 1 -8.881597 1.829335 15.762695
666 0 1 -8.983346 1.814675 14.794907
667 0 1 -8.268798 2.540235 14.735703
668 0 1 -8.218627 2.757924 13.799194
669 0 1 -7.814418 1.866166 13.704605
670 0 1 -7.268228 1.083623 13.711502
671 0 1 -7.655938 0.209535 13.948807
672 0 1 -8.107417 0.027474 14.725708
673 0 1 -8.023486 -0.927714 14.942596
674 0 1 -8.251576 -0.692695 15.866806
675 0 1 -7.314050 -0.418834 15.921799
676 0 1 -6.835496 -0.886214 16.688797
677 0 1 -5.960919 -1.444985 16.822601
678 0 1 -5.476867 -2.276412 17.182404
679 0 1 -4.961247 -1.493155 17.531494
680 0 1 -4.304696 -1.543525 18.272202
681 0 1 -4.435086 -0.669066 18.639694
682 0 1 -4.097306 -0.391677 17.797302
683 0 1 -3.278928 0.038114 18.076904
684 0 1 -2.837918 0.812833 17.742996
685 0 1 -1.992207 1.240403 18.063599
686 0 1 -1.363538 0.581853 17.630493
687 0 1 -0.755078 0.727136 16.959503
688 0 1 -0.769467 0.232324 16.096603
689 0 1 -0.216527 -0.131946 15.409500
690 0 1 0.115703 -0.418345 16.310501
691 0 1 1.035842 -0.405936 16.223602
692 0 1 1.847472 0.040894 16.521393
693 0 1 1.987254 -0.787185 15.972702
694 0 1 2.610194 -1.538896 15.902298
695 0 1 3.084335 -0.967204 16.547897
696 0 1 3.215053 -1.121985 17.530304
697 0 1 3.913562 -0.611484 17.066101
698 0 1 4.116763 -0.290317 18.026703
699 0 1 3.535663 0.400525 18.345200
700 0 1 4.270663 0.940713 18.530899
701 0 1 4.071963 1.668614 17.909500
702 0 1 3.208823 1.973065 18.133499
703 0 1 2.805942 2.753816 18.516098
704 0 1 2.073924 3.140763 18.856094
705 0 1 1.945953 4.013993 19.202393
706 0 1 1.316165 3.832173 18.580597
707 0 1 1.514854 4.609113 18.121902
708 0 1 2.424262 4.402154 17.875504
709 0 1 3.088763 4.173253 17.142899
710 0 1 3.109702 4.839063 16.477600
711 0 1 2.252445 4.779565 16.798401
712 0 1 2.137782 3.824414 16.972504
713 0 1 1.278014 4.182015 16.609497
714 0 1 0.808623 4.454156 15.860901
715 0 1 0.262115 3.903634 15.287903
716 0 1 -0.309327 4.679894 15.264206
717 0 1 -0.783776 4.810845 14.403198
718 0 1 -0.468007 5.687814 14.242798
719 0 1 -1.077886 6.450322 14.197006
720 0 1 -1.645665 5.776864 14.623703
721 0 1 -1.831857 4.881753 14.186005
722 0 1 -1.598885 4.086114 13.698807
723 0 1 -1.578187 3.638535 12.861206
724 0 1 -0.743516 3.449826 12.431595
725 0 1 -1.058278 3.701715 11.565704
726 0 1 -0.536858 4.289975 10.961304
727 0 1 -0.625268 4.545693 10.037201
728 0 1 -1.206159 5.286763 9.923752
729 0 1 -1.008359 5.811906 9.134888
730 0 1 -1.755048 5.907216 8.526123
731 0 1 -2.271336 6.610974 8.104294
732 0 1 -2.013386 7.452725 7.579986
733 0 1 -2.725426 7.639524 6.827865
734 0 1 -3.356015 6.983914 6.414917
735 0 1 -3.126477 7.571523 5.651428
736 0 1 -2.225308 7.388326 5.510284
737 0 1 -1.824239 7.568326 4.680374
738 0 1 -2.366849 6.787526 4.503982
739 0 1 -3.171185 6.324994 4.200775
740 0 1 -3.354256 7.183637 4.058593
741 0 1 -3.604928 8.075524 4.261688
742 0 1 -3.648877 8.943925 3.849456
743 0 1 -3.997266 9.732022 3.589370
744 0 1 -4.517488 9.777623 4.394866
745 0 1 -4.803876 10.280225 5.164138
746 0 1 -4.951905 11.280824 5.336212
747 0 1 -4.054116 11.619523 5.351486
748 0 1 -3.773495 10.814923 4.945205
749 0 1 -2.848508 10.971826 5.167633
750 0 1 -2.013165 11.411023 5.314361
751 0 1 -1.799138 11.978726 4.588180
752 0 1 -0.905995 12.041924 5.160232
753 0 1 -1.239858 12.934125 4.889053
754 0 1 -1.593987 13.219525 4.075088
755 0 1 -1.268105 13.568025 3.218917
756 0 1 -1.676347 12.688523 3.027343
757 0 1 -1.852948 12.302625 2.062637
758 0 1 -1.615357 11.966325 1.194580
759 0 1 -2.146928 12.660626 0.606521
760 0 1 -2.726498 12.597825 1.358825
761 0 1 -3.479577 12.622323 0.723068
762 0 1 -2.925317 12.839925 -0.054215
763 0 1 -2.496747 12.997624 -0.906403
764 0 1 -1.784905 13.669423 -0.871308
765 0 1 -1.849606 14.391026 -1.468277
766 0 1 -2.146565 15.071622 -0.815201
767 0 1 -2.673856 15.414124 -1.506470
768 0 1 -3.582246 15.297727 -1.679230
769 0 1 -3.691647 15.965123 -2.390656
770 0 1 -4.002156 15.430623 -3.117554
771 0 1 -3.257416 15.634324 -3.768128
772 0 1 -3.087716 16.191223 -4.575547
773 0 1 -3.000218 16.687523 -3.688645
774 0 1 -2.423276 17.173222 -4.286591
775 0 1 -2.818269 17.751423 -4.974457
776 0 1 -3.259057 16.954525 -5.225556
777 0 1 -2.684468 16.247425 -5.632798
778 0 1 -3.416398 16.043224 -6.251008
779 0 1 -3.427308 16.147224 -7.274415
780 0 1 -3.108357 15.277722 -7.614686
781 0 1 -2.904858 14.969823 -8.466599
782 0 1 -3.450646 14.791524 -9.221283
783 0 1 -3.381356 15.762227 -9.317505
784 0 1 -2.487748 16.183823 -9.280518
785 0 1 -2.097726 15.729222 -10.044800
786 0 1 -2.159085 14.774125 -10.210297
787 0 1 -2.417016 15.245023 -11.018494
788 0 1 -2.272275 14.731626 -11.805298
789 0 1 -2.966466 14.516026 -12.381897
790 0 1 -2.746827 13.550923 -12.435196
791 0 1 -2.049218 13.670423 -11.778900
792 0 1 -1.613538 13.696824 -10.897003
793 0 1 -1.697518 13.506425 -9.928802
794 0 1 -2.328706 12.853925 -10.374695
795 0 1 -3.231045 13.143826 -10.279999