LAMMPS data file via MDAnalysis

        2000  atoms
        1999  bonds
           0  angles
           0  dihedrals
           0  impropers

           1  atom types
           1  bond types
           0  angle types
           0  dihedral types
           0  improper types

-30.5 30.5 xlo xhi
-30.5 30.5 ylo yhi
-233.5 233.5 zlo zhi


Masses

1 1.000000

Atoms

1 0 1 17.200590 6.260380 30.307495
2 0 1 16.396330 6.568482 29.772095
3 0 1 15.685010 5.944951 29.825897
4 0 1 15.114980 5.992243 29.083008
5 0 1 15.209939 6.417340 28.225189
6 0 1 14.357198 6.586976 28.579102
7 0 1 14.185349 7.283316 29.124695
8 0 1 13.227948 6.983288 29.007904
9 0 1 12.939477 6.162459 29.312714
10 0 1 12.022099 6.386878 28.989899
11 0 1 11.403749 6.041178 28.346802
12 0 1 11.386159 5.105067 28.053711
13 0 1 10.921548 4.773697 28.812286
14 0 1 11.249528 5.575392 29.348816
15 0 1 10.411618 5.356637 29.757111
16 0 1 10.369458 6.091458 30.356995
17 0 1 10.092908 6.969923 30.292786
18 0 1 9.288617 6.919083 29.687103
19 0 1 9.867040 7.099959 28.883392
20 0 1 10.797048 7.382662 28.765991
21 0 1 10.893659 7.649958 27.819214
22 0 1 10.686170 7.203095 27.017212
23 0 1 11.480229 7.050168 26.576996
24 0 1 11.329530 6.422720 27.306702
25 0 1 10.594007 5.970110 26.924713
26 0 1 10.100957 6.567051 27.513489
27 0 1 9.564290 6.205328 26.861298
28 0 1 9.482888 5.448496 27.458405
29 0 1 9.084508 4.654177 27.824005
30 0 1 9.232739 5.216477 28.530304
31 0 1 9.054879 5.240527 29.457489
32 0 1 8.732318 4.301907 29.543213
33 0 1 7.705976 4.306748 29.207397
34 0 1 7.375590 3.661627 28.626892
35 0 1 7.208501 2.896536 29.174286
36 0 1 7.070895 2.130417 29.788391
37 0 1 6.551759 2.168257 30.649902
38 0 1 6.614329 3.030447 30.202393
39 0 1 6.572598 3.782048 30.872803
40 0 1 5.839749 4.314457 31.186493
41 0 1 6.576278 4.095477 31.829590
42 0 1 6.776433 4.940627 32.244690
43 0 1 7.564500 4.441887 32.238800
44 0 1 7.656806 4.724457 33.121490
45 0 1 8.250478 5.212157 33.722809
46 0 1 7.639140 5.280667 34.518402
47 0 1 6.841300 4.852377 34.616608
48 0 1 6.203338 4.638327 35.326111
49 0 1 6.101199 4.235747 36.258301
50 0 1 6.559388 3.508236 36.602203
51 0 1 7.192342 2.809227 36.467804
52 0 1 7.061833 2.571517 35.524902
53 0 1 6.288058 2.394137 34.967712
54 0 1 6.932361 2.043557 34.200012
55 0 1 6.023959 1.691027 34.137512
56 0 1 5.210608 1.607598 33.664398
57 0 1 5.070979 2.590127 33.713593
58 0 1 4.123698 2.470187 33.616516
59 0 1 3.766698 1.506857 33.813293
60 0 1 2.824519 1.658917 33.745911
61 0 1 3.059770 0.656487 33.855103
62 0 1 2.109738 0.588908 33.971405
63 0 1 1.276118 0.857768 34.388489
64 0 1 1.463128 1.703427 34.819702
65 0 1 0.946479 1.408686 35.570312
66 0 1 0.329938 0.761277 35.834808
67 0 1 -0.605952 0.948758 35.524597
68 0 1 -0.357612 1.817217 35.060913
69 0 1 -1.177022 2.137118 35.415894
70 0 1 -1.677421 1.387667 35.737488
71 0 1 -1.606483 0.460947 35.302887
72 0 1 -1.583381 -0.433004 35.006012
73 0 1 -1.098243 -1.047632 34.360596
74 0 1 -1.804671 -0.766752 33.597290
75 0 1 -2.257972 0.091258 33.658295
76 0 1 -2.662932 0.886227 33.960388
77 0 1 -2.253041 1.555237 34.500916
78 0 1 -2.217801 2.415068 34.914795
79 0 1 -2.500331 2.680348 34.095215
80 0 1 -3.115531 3.567076 34.308594
81 0 1 -3.895331 3.961928 34.619598
82 0 1 -4.185632 4.771388 35.047607
83 0 1 -4.644931 4.235157 35.670898
84 0 1 -4.315032 3.350937 35.910400
85 0 1 -4.116733 2.454417 36.170105
86 0 1 -4.477233 1.557467 36.399109
87 0 1 -4.799632 1.161417 37.179810
88 0 1 -5.276431 1.649086 37.817413
89 0 1 -6.039332 1.263888 38.190704
90 0 1 -6.335731 2.092227 38.474792
91 0 1 -6.534133 2.607167 39.213196
92 0 1 -7.079632 2.546917 39.975800
93 0 1 -6.624131 1.790888 40.347992
94 0 1 -7.575432 1.767218 40.442596
95 0 1 -7.579632 0.815886 40.694305
96 0 1 -8.413932 0.708308 41.193390
97 0 1 -9.190732 0.653246 40.608002
98 0 1 -9.669232 0.555706 41.423187
99 0 1 -9.107831 0.023188 41.963684
100 0 1 -8.999932 0.728907 42.750793
101 0 1 -8.557132 0.019587 43.328400
102 0 1 -9.015031 -0.766613 43.765503
103 0 1 -9.534631 -1.133394 44.434601
104 0 1 -10.259931 -1.174423 45.020203
105 0 1 -10.926232 -1.486392 44.354095
106 0 1 -11.705731 -1.881473 44.796814
107 0 1 -12.094932 -1.426054 44.102203
108 0 1 -12.613431 -1.118873 44.856598
109 0 1 -12.930432 -2.000432 44.754089
110 0 1 -13.665832 -1.357852 44.522797
111 0 1 -13.727332 -2.178092 44.018188
112 0 1 -13.058032 -2.702133 43.525909
113 0 1 -13.210032 -3.387653 42.854095
114 0 1 -13.253331 -4.148513 42.281494
115 0 1 -13.314931 -4.390111 41.374603
116 0 1 -14.031432 -3.789312 41.555389
117 0 1 -14.148732 -2.886892 41.889313
118 0 1 -15.104432 -2.981082 41.957092
119 0 1 -15.693231 -2.192724 41.935303
120 0 1 -15.763431 -2.170324 42.850494
121 0 1 -15.358632 -2.403024 43.694611
122 0 1 -15.692731 -2.238962 44.615387
123 0 1 -15.043031 -3.007074 44.486603
124 0 1 -14.224332 -3.320283 43.996307
125 0 1 -13.713431 -3.031343 44.786316
126 0 1 -13.813731 -2.537454 45.655212
127 0 1 -14.327231 -1.832994 46.098999
128 0 1 -14.064931 -1.215883 46.710602
129 0 1 -14.144832 -0.292703 46.449799
130 0 1 -14.521132 0.448916 46.907593
131 0 1 -14.069831 0.588118 47.718811
132 0 1 -14.519132 -0.116792 48.265686
133 0 1 -15.181031 0.533068 48.509705
134 0 1 -16.100231 0.296698 48.087494
135 0 1 -16.981930 0.486487 48.438202
136 0 1 -17.488031 -0.309072 48.545593
137 0 1 -16.845531 -0.880502 49.052399
138 0 1 -16.506830 -1.202383 49.879608
139 0 1 -16.644230 -2.080274 50.184814
140 0 1 -16.210430 -2.902263 50.433197
141 0 1 -15.493632 -2.730293 51.079895
142 0 1 -14.851331 -2.303833 50.477203
143 0 1 -14.495131 -2.954813 49.798309
144 0 1 -13.863231 -3.596813 49.406616
145 0 1 -13.308532 -3.143064 50.067902
146 0 1 -12.661132 -2.848453 50.898193
147 0 1 -12.180232 -2.136323 51.381104
148 0 1 -12.823331 -1.432264 51.179504
149 0 1 -11.960132 -1.234832 51.447815
150 0 1 -12.466132 -1.401292 52.233612
151 0 1 -13.297132 -0.991884 52.264496
152 0 1 -13.839831 -1.461694 52.935303
153 0 1 -13.109931 -1.890333 53.360596
154 0 1 -13.325431 -2.619062 52.750183
155 0 1 -14.233132 -2.451353 52.899414
156 0 1 -13.706332 -2.747892 53.691711
157 0 1 -13.181531 -2.942964 54.478394
158 0 1 -13.345832 -2.283372 55.147705
159 0 1 -13.201131 -3.091833 55.583405
160 0 1 -12.821031 -3.951211 55.851501
161 0 1 -12.184932 -4.292713 56.513184
162 0 1 -11.354831 -4.778512 56.621307
163 0 1 -11.709432 -5.563413 56.245087
164 0 1 -11.684731 -6.391412 55.797302
165 0 1 -12.476531 -6.800313 56.105896
166 0 1 -13.328732 -7.174913 56.364594
167 0 1 -13.641032 -6.644113 55.505310
168 0 1 -14.458331 -7.053213 55.223999
169 0 1 -14.934432 -7.847312 55.460999
170 0 1 -15.195531 -8.756113 55.053894
171 0 1 -15.318532 -9.702614 54.776703
172 0 1 -15.439031 -10.576313 54.648193
173 0 1 -15.301631 -10.895714 55.497711
174 0 1 -14.413732 -10.987314 55.878113
175 0 1 -13.532132 -10.890814 55.609100
176 0 1 -12.818631 -10.274113 55.330597
177 0 1 -13.039432 -9.460613 55.832794
178 0 1 -13.462232 -8.600813 55.658691
179 0 1 -13.006331 -8.965014 54.919403
180 0 1 -12.318332 -8.258413 54.958405
181 0 1 -12.587331 -8.599013 54.046997
182 0 1 -12.801131 -9.131614 53.299591
183 0 1 -12.221131 -9.949213 53.169708
184 0 1 -11.656632 -10.401514 52.579498
185 0 1 -11.785832 -11.175013 52.060394
186 0 1 -11.958131 -10.441214 51.446991
187 0 1 -12.545232 -9.925514 50.817596
188 0 1 -11.916631 -9.550713 50.183105
189 0 1 -11.654731 -8.917713 49.431396
190 0 1 -12.318532 -8.464414 48.852417
191 0 1 -11.985131 -8.183813 47.996613
192 0 1 -12.122231 -7.281213 48.201294
193 0 1 -12.051831 -7.147714 49.148804
194 0 1 -12.770532 -6.986213 49.682983
195 0 1 -12.263831 -6.108114 49.703400
196 0 1 -12.852931 -6.261114 50.426392
197 0 1 -12.746732 -6.574014 51.306610
198 0 1 -13.520432 -7.030513 51.636993
199 0 1 -12.799832 -6.999612 52.336700
200 0 1 -12.495631 -7.913312 52.480011
201 0 1 -11.644631 -7.538013 52.351685
202 0 1 -10.765931 -7.195814 52.378998
203 0 1 -10.835732 -7.539712 53.232391
204 0 1 -10.172631 -7.080312 53.746094
205 0 1 -9.552732 -7.729312 53.530609
206 0 1 -9.072331 -8.529513 53.120300
207 0 1 -8.695931 -8.687213 52.303802
208 0 1 -9.111831 -7.859312 51.963898
209 0 1 -9.506232 -7.832414 51.104797
210 0 1 -10.174932 -8.256813 50.550201
211 0 1 -10.199731 -8.296213 49.594604
212 0 1 -9.295232 -8.633614 49.626312
213 0 1 -8.792632 -8.879213 50.406799
214 0 1 -8.004131 -8.376213 50.008911
215 0 1 -8.053331 -7.559513 49.559601
216 0 1 -7.259831 -7.207813 49.199707
217 0 1 -6.778432 -7.493013 49.990906
218 0 1 -6.504031 -6.651613 49.671814
219 0 1 -5.963132 -6.072214 50.229889
220 0 1 -5.199832 -6.029613 50.740997
221 0 1 -5.146531 -5.236413 50.163513
222 0 1 -5.466432 -4.600912 49.525787
223 0 1 -5.395930 -4.096313 50.435211
224 0 1 -5.663232 -4.256414 51.416687
225 0 1 -5.995831 -4.874813 52.093903
226 0 1 -6.781333 -4.400514 52.118896
227 0 1 -6.789130 -3.430334 52.017883
228 0 1 -7.615031 -3.202363 52.450195
229 0 1 -7.848131 -4.162313 52.177307
230 0 1 -7.602732 -4.053014 51.239410
231 0 1 -8.121531 -3.289434 50.941193
232 0 1 -7.471632 -2.600072 50.744598
233 0 1 -7.704532 -1.980342 50.036194
234 0 1 -8.388532 -1.939504 50.688202
235 0 1 -8.920531 -1.218723 50.400208
236 0 1 -9.522632 -0.518442 50.449493
237 0 1 -8.780332 -0.262823 51.136292
238 0 1 -8.297431 0.313906 50.554901
239 0 1 -7.862732 1.176198 50.667511
240 0 1 -6.836131 1.049006 50.565704
241 0 1 -5.867131 1.134427 50.411591
242 0 1 -6.262931 1.062047 49.457886
243 0 1 -6.441932 0.220967 48.902405
244 0 1 -6.151031 -0.732412 49.053009
245 0 1 -5.217231 -0.490163 49.221802
246 0 1 -4.357331 -0.772853 49.585907
247 0 1 -3.981032 -0.729482 50.442596
248 0 1 -4.488231 -0.508642 51.262512
249 0 1 -4.438533 -0.169912 52.158905
250 0 1 -3.785232 -0.581163 52.691895
251 0 1 -3.222331 -0.840784 53.446289
252 0 1 -4.007531 -0.497253 53.978210
253 0 1 -4.228831 0.047337 54.723602
254 0 1 -4.978431 0.723986 54.733795
255 0 1 -5.447532 -0.016363 55.068787
256 0 1 -6.104732 -0.645994 54.698090
257 0 1 -6.405532 0.207507 54.556610
258 0 1 -6.909931 0.211676 55.356903
259 0 1 -7.527831 -0.609172 55.275513
260 0 1 -8.160932 0.171946 55.387390
261 0 1 -8.049932 1.102787 55.189606
262 0 1 -9.002831 1.086977 55.386200
263 0 1 -9.075431 1.694607 56.126587
264 0 1 -8.979932 2.317338 56.887207
265 0 1 -9.428432 1.814276 57.608307
266 0 1 -9.596131 2.305367 58.438599
267 0 1 -10.306331 1.670798 58.284912
268 0 1 -10.861232 1.193467 58.831909
269 0 1 -10.664632 1.916586 59.492798
270 0 1 -10.894832 1.921366 60.356903
271 0 1 -10.468932 1.016596 60.452515
272 0 1 -9.650731 1.079878 60.839996
273 0 1 -9.412831 1.177407 59.856598
274 0 1 -9.041831 1.636937 59.040009
275 0 1 -8.660132 2.560668 59.057800
276 0 1 -8.075131 2.698107 58.274506
277 0 1 -7.350132 2.074156 58.154785
278 0 1 -6.667830 1.480237 58.528015
279 0 1 -6.104831 2.299906 58.581604
280 0 1 -5.955531 3.045207 59.198608
281 0 1 -6.777232 3.414038 59.430389
282 0 1 -6.517032 4.352778 59.313416
283 0 1 -6.244431 5.019757 59.960602
284 0 1 -6.198531 5.646639 60.723602
285 0 1 -6.717532 5.236107 61.393005
286 0 1 -7.638231 5.182707 61.146912
287 0 1 -7.623332 4.871626 62.119904
288 0 1 -7.675032 4.632218 63.062195
289 0 1 -8.625432 4.479107 62.936310
290 0 1 -9.063731 5.155207 62.436493
291 0 1 -9.028531 5.966076 61.969696
292 0 1 -8.576432 6.648554 62.494110
293 0 1 -8.472932 6.591248 63.453888
294 0 1 -8.947831 6.513859 64.285797
295 0 1 -9.377931 5.729043 64.526794
296 0 1 -8.798532 5.611866 63.670898
297 0 1 -8.029732 5.761687 63.092590
298 0 1 -7.339432 6.182391 62.705505
299 0 1 -6.619431 6.385228 63.382294
300 0 1 -7.371331 6.078608 63.942017
301 0 1 -6.768931 5.360917 63.970703
302 0 1 -5.884831 5.667851 63.655304
303 0 1 -5.280932 5.074788 63.160400
304 0 1 -4.604932 4.870318 63.839691
305 0 1 -3.750232 4.940657 64.264008
306 0 1 -3.293033 4.174107 64.724396
307 0 1 -2.367030 4.183808 64.954895
308 0 1 -1.702882 3.783738 65.565094
309 0 1 -2.165622 2.966267 65.135010
310 0 1 -2.654532 2.209738 65.236084
311 0 1 -3.349032 2.794947 65.263489
312 0 1 -3.818931 2.090838 65.790283
313 0 1 -4.099532 1.566098 65.017395
314 0 1 -4.639132 1.559737 64.245789
315 0 1 -4.064631 0.841347 63.936707
316 0 1 -4.592933 0.959378 63.158112
317 0 1 -4.186030 1.617398 62.648987
318 0 1 -4.023032 1.716156 61.667694
319 0 1 -3.754333 2.661498 61.459900
320 0 1 -3.618632 3.535958 61.038086
321 0 1 -3.652930 4.490597 60.995209
322 0 1 -3.144031 4.828646 61.685608
323 0 1 -2.860633 5.644665 61.221802
324 0 1 -2.855033 5.522988 60.165405
325 0 1 -3.316932 5.079148 59.487396
326 0 1 -3.333133 5.955546 59.078308
327 0 1 -2.814332 6.707886 59.285583
328 0 1 -2.333932 5.946791 58.892303
329 0 1 -2.259933 5.725377 57.893188
330 0 1 -2.430331 6.704583 58.013611
331 0 1 -2.193183 7.055600 57.172791
332 0 1 -3.136130 6.801589 56.984802
333 0 1 -3.902831 7.208888 57.371094
334 0 1 -4.785132 7.590147 57.517303
335 0 1 -4.059131 8.159166 57.678406
336 0 1 -4.158332 9.040598 57.388794
337 0 1 -3.930232 8.584448 56.545502
338 0 1 -4.462832 9.363008 56.195984
339 0 1 -5.130132 9.959116 56.493408
340 0 1 -5.170531 9.390898 57.229889
341 0 1 -5.781131 9.404497 58.021606
342 0 1 -6.166633 8.535646 58.094788
343 0 1 -7.094831 8.764116 57.964905
344 0 1 -7.711032 8.108896 57.914093
345 0 1 -8.193932 7.579297 57.300995
346 0 1 -8.826032 7.934998 57.898102
347 0 1 -8.872931 8.910997 58.133209
348 0 1 -8.850432 9.308897 57.287903
349 0 1 -9.227332 10.190065 57.379700
350 0 1 -9.625932 10.015516 56.507507
351 0 1 -10.264232 9.555937 55.857117
352 0 1 -11.085732 9.165266 55.404510
353 0 1 -10.932132 10.087698 55.127106
354 0 1 -9.985131 10.207087 55.059113
355 0 1 -9.188432 10.720495 55.306793
356 0 1 -8.609632 10.490747 54.579285
357 0 1 -7.888032 10.671465 53.876709
358 0 1 -8.621131 11.028849 53.434387
359 0 1 -8.489831 10.089617 53.115906
360 0 1 -8.365331 9.520605 52.307800
361 0 1 -7.765431 10.190847 52.118500
362 0 1 -7.932132 10.316057 51.222198
363 0 1 -8.233731 11.016375 50.617096
364 0 1 -8.478532 11.102488 49.622498
365 0 1 -7.576032 11.461538 49.738190
366 0 1 -6.917932 11.060335 49.125610
367 0 1 -6.572631 10.370306 48.466187
368 0 1 -6.446132 9.366186 48.526001
369 0 1 -6.402131 8.814077 49.312317
370 0 1 -6.760932 7.907717 49.109497
371 0 1 -7.628531 7.749478 48.722107
372 0 1 -8.017732 7.575797 49.612915
373 0 1 -8.629531 8.273245 49.484802
374 0 1 -9.254432 8.365217 48.784210
375 0 1 -9.673432 8.387217 49.633911
376 0 1 -9.913932 9.132406 50.264008
377 0 1 -10.310832 9.548487 49.445312
378 0 1 -11.104531 10.063238 49.526611
379 0 1 -10.236432 10.695398 49.545807
380 0 1 -10.074931 10.738565 48.611389
381 0 1 -9.890132 11.291468 47.807312
382 0 1 -9.202632 11.843447 47.490295
383 0 1 -8.638131 11.681135 48.303589
384 0 1 -8.360532 12.390795 47.724304
385 0 1 -7.758832 12.937597 47.310303
386 0 1 -6.867432 13.389116 47.313416
387 0 1 -6.314832 14.180956 47.325897
388 0 1 -5.629031 13.616465 46.886292
389 0 1 -5.043632 13.121836 46.368591
390 0 1 -5.404330 12.533396 45.680786
391 0 1 -5.498332 12.089628 46.555786
392 0 1 -4.899232 11.514475 46.970398
393 0 1 -4.491332 11.657457 46.161896
394 0 1 -4.966132 11.574617 45.286804
395 0 1 -4.472932 11.210638 44.513916
396 0 1 -3.827031 10.522196 44.378387
397 0 1 -3.611331 9.940397 43.608490
398 0 1 -4.539632 9.682028 43.715698
399 0 1 -4.528831 8.748735 43.976410
400 0 1 -4.825732 7.974926 44.535400
401 0 1 -4.575233 7.019852 44.471710
402 0 1 -3.682731 6.616766 44.572296
403 0 1 -3.824931 5.666743 44.348206
404 0 1 -4.336131 5.026778 44.869812
405 0 1 -4.867232 5.005198 45.658295
406 0 1 -5.465531 4.981907 44.929688
407 0 1 -5.507632 5.570931 44.106812
408 0 1 -4.924232 5.025757 43.624298
409 0 1 -4.620032 4.496417 42.860992
410 0 1 -5.453332 5.049647 42.767090
411 0 1 -5.224832 5.393057 41.890991
412 0 1 -4.542232 5.731003 41.237701
413 0 1 -4.829831 6.089682 40.355591
414 0 1 -3.923430 6.269936 40.579193
415 0 1 -3.022731 6.777869 40.339508
416 0 1 -2.151711 7.314507 40.068787
417 0 1 -2.373132 7.157372 39.162201
418 0 1 -2.165261 7.880847 38.508789
419 0 1 -2.265462 7.655917 37.544495
420 0 1 -2.581332 8.510668 37.369293
421 0 1 -3.445632 8.255487 37.617004
422 0 1 -4.024833 8.914427 37.276489
423 0 1 -3.320533 8.998346 36.606598
424 0 1 -3.409032 8.889868 35.642792
425 0 1 -2.488730 8.583628 35.895508
426 0 1 -1.616792 8.260305 35.527191
427 0 1 -1.273782 9.015287 36.013489
428 0 1 -1.672931 9.730665 36.419098
429 0 1 -2.435130 9.678946 35.831787
430 0 1 -2.311030 9.211477 35.001709
431 0 1 -2.426730 10.137575 34.736908
432 0 1 -1.890071 10.774847 35.163513
433 0 1 -1.849591 11.725317 34.854492
434 0 1 -1.640311 12.630598 34.834900
435 0 1 -1.013801 12.298525 35.425507
436 0 1 -0.563321 12.363115 36.280396
437 0 1 0.444287 12.503305 36.188293
438 0 1 1.368798 12.751837 36.083496
439 0 1 1.078298 12.512835 35.213013
440 0 1 0.961719 12.429777 34.202301
441 0 1 1.563949 12.851107 33.649994
442 0 1 1.612208 13.737608 33.888611
443 0 1 1.072709 14.337305 34.461395
444 0 1 0.471038 13.910456 33.864502
445 0 1 -0.423112 14.223837 33.668396
446 0 1 -1.020751 13.962656 32.995392
447 0 1 -1.790082 14.292925 32.560699
448 0 1 -2.131103 13.408686 32.293213
449 0 1 -2.638032 13.841646 31.545410
450 0 1 -3.534331 14.112455 31.791809
451 0 1 -3.262631 14.705637 32.516693
452 0 1 -3.696332 14.269037 33.219513
453 0 1 -4.598533 14.294077 33.462402
454 0 1 -5.497333 14.108545 33.309601
455 0 1 -5.682933 14.942137 33.785583
456 0 1 -4.821532 15.386515 34.137909
457 0 1 -4.182033 15.005915 34.706207
458 0 1 -4.496631 14.374197 35.324005
459 0 1 -5.210631 14.734537 35.916199
460 0 1 -4.793731 15.629866 35.852997
461 0 1 -4.046031 15.274817 36.252014
462 0 1 -3.504531 15.324747 35.462891
463 0 1 -3.124732 16.211767 35.505310
464 0 1 -3.532931 16.165297 34.593994
465 0 1 -2.993632 16.244528 33.782196
466 0 1 -3.370933 17.112486 33.713013
467 0 1 -3.150130 17.815088 33.104614
468 0 1 -3.416133 18.466085 33.772797
469 0 1 -4.109733 19.085386 33.561798
470 0 1 -3.976333 19.926088 34.094208
471 0 1 -3.822032 20.438684 33.283691
472 0 1 -4.618632 20.874388 33.373291
473 0 1 -3.996032 21.601885 33.656097
474 0 1 -4.303832 22.246088 32.984802
475 0 1 -4.468732 22.774584 32.239899
476 0 1 -4.518031 23.679285 32.054810
477 0 1 -5.403632 23.354387 32.065704
478 0 1 -5.737033 22.597086 31.524200
479 0 1 -5.528932 22.022585 32.368988
480 0 1 -6.452231 21.823587 32.577087
481 0 1 -6.938931 21.815485 33.470490
482 0 1 -7.736832 21.658587 33.959106
483 0 1 -7.323531 20.843386 34.242004
484 0 1 -8.139132 20.818789 34.755005
485 0 1 -7.494831 20.219385 35.195709
486 0 1 -7.917532 19.636988 35.816010
487 0 1 -7.180632 19.167585 36.177002
488 0 1 -6.595233 19.009386 36.929596
489 0 1 -5.692431 18.828287 36.701416
490 0 1 -5.062430 19.510889 36.401703
491 0 1 -4.811532 20.329885 36.876587
492 0 1 -5.622832 20.878984 37.144409
493 0 1 -6.568030 21.111788 36.975311
494 0 1 -6.757133 20.306185 37.585083
495 0 1 -7.400931 19.910788 38.149811
496 0 1 -7.455631 19.506186 37.260406
497 0 1 -8.046131 20.393988 37.314087
498 0 1 -8.833531 20.984186 37.133698
499 0 1 -9.446132 20.917288 36.325012
500 0 1 -10.371732 20.927385 36.243500
501 0 1 -10.096732 20.250185 36.923401
502 0 1 -10.663632 19.988085 37.634003
503 0 1 -11.455331 20.386087 38.096802
504 0 1 -11.999431 19.687387 37.675598
505 0 1 -12.119632 19.080988 38.402008
506 0 1 -11.155032 18.990988 38.567688
507 0 1 -10.583331 18.243189 38.944214
508 0 1 -9.954432 17.849886 39.526093
509 0 1 -10.246232 18.140387 40.412598
510 0 1 -9.777532 18.543787 41.158813
511 0 1 -9.994632 19.423288 40.904114
512 0 1 -9.998832 20.358187 40.964508
513 0 1 -10.695531 20.948286 41.047791
514 0 1 -11.264932 20.300486 40.650604
515 0 1 -11.850432 20.731089 39.942413
516 0 1 -11.208432 20.739687 39.207886
517 0 1 -10.453231 20.267786 39.546387
518 0 1 -9.993232 20.567385 38.782715
519 0 1 -9.296132 19.898287 38.653290
520 0 1 -8.671031 19.238985 39.085602
521 0 1 -8.005431 18.544188 39.066711
522 0 1 -7.769732 17.649187 39.219910
523 0 1 -6.867532 17.869986 38.954010
524 0 1 -6.784032 16.938387 39.378998
525 0 1 -6.186631 16.157877 39.165100
526 0 1 -6.190631 15.577887 39.896606
527 0 1 -6.450831 14.634676 40.216187
528 0 1 -6.121833 14.021585 39.598083
529 0 1 -6.971432 13.760675 39.879395
530 0 1 -7.927531 13.730577 39.791504
531 0 1 -7.947032 12.762148 39.872986
532 0 1 -8.235731 11.972776 39.400391
533 0 1 -8.953032 12.095026 38.710693
534 0 1 -9.457631 11.329966 38.556702
535 0 1 -9.241832 11.263857 37.582489
536 0 1 -8.918532 11.340208 36.637207
537 0 1 -9.208232 11.204676 35.720215
538 0 1 -9.225532 10.834036 34.825684
539 0 1 -9.468232 10.014109 34.302185
540 0 1 -9.593831 9.386568 33.580994
541 0 1 -10.519032 9.067236 33.506897
542 0 1 -10.383731 8.173178 33.728699
543 0 1 -10.642932 7.834076 32.928711
544 0 1 -11.502732 7.571356 33.132812
545 0 1 -12.251531 7.991938 33.577911
546 0 1 -12.904031 7.437277 33.205017
547 0 1 -13.171432 6.641703 32.668701
548 0 1 -13.800632 6.414372 32.023804
549 0 1 -13.622432 5.862860 31.288513
550 0 1 -12.924832 5.396687 30.970490
551 0 1 -13.448131 4.773457 31.489502
552 0 1 -13.238931 4.695517 32.406891
553 0 1 -13.857131 4.014727 32.123993
554 0 1 -13.171031 3.641558 31.597900
555 0 1 -13.076331 2.731658 31.780792
556 0 1 -12.348432 2.338778 32.308502
557 0 1 -12.420432 2.142706 31.258301
558 0 1 -12.983832 1.597418 30.611786
559 0 1 -13.155332 0.722517 30.911987
560 0 1 -12.932731 -0.143413 30.710907
561 0 1 -12.414731 -0.883194 31.002899
562 0 1 -11.954432 -1.233833 31.777191
563 0 1 -11.444531 -2.029953 31.432495
564 0 1 -11.840432 -2.065832 32.332092
565 0 1 -11.619231 -2.961223 32.480499
566 0 1 -11.751132 -3.382762 33.307312
567 0 1 -11.104932 -3.582212 33.991699
568 0 1 -10.580932 -3.825014 34.742401
569 0 1 -10.554032 -4.268613 35.635101
570 0 1 -10.304931 -3.665113 36.419403
571 0 1 -9.428432 -4.131813 36.563599
572 0 1 -9.288732 -3.244123 36.380005
573 0 1 -9.007432 -2.363061 36.540894
574 0 1 -9.934432 -2.099983 36.643402
575 0 1 -9.859431 -1.174863 36.882904
576 0 1 -9.209731 -0.572122 37.207092
577 0 1 -9.021531 -0.005203 36.388794
578 0 1 -9.367032 0.123827 35.442993
579 0 1 -10.158431 0.110617 34.903015
580 0 1 -10.048532 -0.190023 33.975891
581 0 1 -10.429832 -1.005674 33.534210
582 0 1 -9.995732 -1.246624 32.701813
583 0 1 -9.289531 -0.622274 32.732788
584 0 1 -8.567132 -0.373552 32.171814
585 0 1 -8.906632 -0.525093 31.261902
586 0 1 -9.277331 -0.740614 30.380402
587 0 1 -9.234431 0.221518 30.453186
588 0 1 -8.757331 0.588408 29.731995
589 0 1 -8.229332 1.338797 29.346497
590 0 1 -7.891831 2.130177 28.970306
591 0 1 -7.244632 2.473897 28.385101
592 0 1 -6.972832 2.729447 27.478790
593 0 1 -6.201430 2.741726 28.057587
594 0 1 -5.649531 2.139666 27.579285
595 0 1 -5.684731 1.172026 27.416687
596 0 1 -4.872333 1.013228 27.877014
597 0 1 -4.872731 0.259247 27.207886
598 0 1 -4.267232 -0.409574 26.963684
599 0 1 -3.362132 -0.824182 26.653992
600 0 1 -2.362231 -0.957544 26.571594
601 0 1 -1.681342 -1.581653 26.653687
602 0 1 -1.985152 -1.865373 25.753296
603 0 1 -1.240811 -2.349763 25.352814
604 0 1 -0.331942 -2.062742 25.683197
605 0 1 0.090039 -1.993524 26.511902
606 0 1 0.112529 -2.947692 26.343506
607 0 1 -0.533341 -3.030883 27.006012
608 0 1 -1.043351 -2.745773 27.765686
609 0 1 -1.429893 -3.608013 27.722198
610 0 1 -0.492312 -3.763914 27.976105
611 0 1 -0.979192 -4.544612 27.804413
612 0 1 -0.124762 -4.896513 28.044006
613 0 1 0.176747 -5.284112 27.228088
614 0 1 -0.777270 -5.434013 27.153198
615 0 1 -1.698062 -5.554212 27.102997
616 0 1 -1.304530 -5.864412 27.924500
617 0 1 -1.695792 -6.605512 27.524200
618 0 1 -2.314731 -6.522512 28.369598
619 0 1 -1.543281 -7.019212 28.422699
620 0 1 -1.395011 -7.225912 29.430786
621 0 1 -0.566192 -6.915313 29.702789
622 0 1 -0.095900 -6.942213 28.885101
623 0 1 0.848680 -6.998113 29.034485
624 0 1 1.520228 -7.470912 29.585602
625 0 1 1.028378 -8.139314 30.087891
626 0 1 1.556378 -8.364213 30.853394
627 0 1 2.299279 -7.769311 30.564514
628 0 1 2.175618 -8.416413 29.804291
629 0 1 2.796649 -9.028813 30.207397
630 0 1 2.747048 -9.214314 31.156097
631 0 1 3.636708 -9.308913 30.750488
632 0 1 3.954659 -9.649612 29.911407
633 0 1 3.409638 -9.699713 29.049011
634 0 1 3.943078 -10.548613 28.992889
635 0 1 3.865508 -10.293514 28.103088
636 0 1 4.835149 -10.536413 27.967590
637 0 1 5.222869 -10.455812 27.017792
638 0 1 5.822438 -9.779913 27.370789
639 0 1 5.283917 -9.059114 27.191101
640 0 1 5.765449 -8.434713 26.644196
641 0 1 6.084029 -7.896513 27.408997
642 0 1 7.045991 -7.978913 27.317810
643 0 1 7.736400 -7.957313 27.923004
644 0 1 8.692292 -7.931814 27.596497
645 0 1 8.402513 -8.156513 26.736389
646 0 1 8.387990 -9.080214 26.920715
647 0 1 7.764903 -9.072614 26.134491
648 0 1 7.768046 -8.844513 25.173584
649 0 1 6.813277 -8.699014 25.062195
650 0 1 6.356648 -9.484013 24.665894
651 0 1 5.948619 -9.689114 23.770386
652 0 1 5.668057 -10.581713 23.808197
653 0 1 5.112229 -10.651712 24.569305
654 0 1 5.577319 -10.985514 25.393494
655 0 1 4.770938 -11.435213 25.153290
656 0 1 3.791099 -11.404013 24.917297
657 0 1 3.203507 -11.624113 25.605804
658 0 1 3.193608 -11.854614 26.521210
659 0 1 3.103768 -12.664513 26.013214
660 0 1 3.784198 -13.347214 25.896484
661 0 1 4.047849 -14.254513 25.766510
662 0 1 3.705228 -14.323713 26.652588
663 0 1 3.532588 -15.286314 26.732697
664 0 1 3.772439 -16.065014 27.182404
665 0 1 3.698148 -16.999014 27.307190
666 0 1 4.246037 -16.961813 28.086090
667 0 1 3.831838 -17.811413 28.106903
668 0 1 3.427938 -18.103514 28.962585
669 0 1 3.919339 -18.896214 28.578705
670 0 1 3.822349 -19.701214 29.242798
671 0 1 4.060719 -19.264614 30.050598
672 0 1 3.196019 -19.034014 30.482910
673 0 1 2.966369 -18.793413 31.406891
674 0 1 3.875369 -18.599613 31.789886
675 0 1 3.698857 -17.694414 31.592102
676 0 1 4.490079 -17.701612 32.099487
677 0 1 4.601878 -17.052513 32.816803
678 0 1 5.232749 -16.951414 33.559387
679 0 1 5.068498 -17.570713 34.314392
680 0 1 5.383929 -17.881714 35.168884
681 0 1 5.848878 -18.444014 34.530792
682 0 1 6.556338 -17.763514 34.087799
683 0 1 7.136884 -17.305513 33.429596
684 0 1 7.500646 -18.219313 33.295105
685 0 1 8.011777 -17.641912 32.660309
686 0 1 7.493602 -17.092314 32.046692
687 0 1 8.345813 -16.556513 32.020294
688 0 1 8.903939 -15.970613 31.402191
689 0 1 8.258525 -15.572514 30.850891
690 0 1 8.492553 -15.458513 29.945404
691 0 1 8.362069 -14.764112 29.331512
692 0 1 8.536244 -14.334713 30.249512
693 0 1 7.691628 -14.290714 30.759308
694 0 1 8.109721 -13.627113 31.317993
695 0 1 7.142903 -13.495413 31.214386
696 0 1 7.255052 -12.709312 30.598602
697 0 1 7.202241 -13.033113 29.693695
698 0 1 7.476722 -13.733013 29.010895
699 0 1 7.871015 -12.761312 28.873505
700 0 1 8.524350 -12.037813 28.899994
701 0 1 8.801358 -12.127913 27.923004
702 0 1 8.485581 -11.820713 27.054504
703 0 1 8.337205 -12.728014 27.116211
704 0 1 8.035787 -12.760914 26.193787
705 0 1 8.451089 -13.576014 25.969696
706 0 1 8.355987 -13.979614 25.086212
707 0 1 8.253488 -14.909513 24.759399
708 0 1 7.902209 -14.724714 23.877686
709 0 1 7.199489 -14.729313 23.279205
710 0 1 7.167958 -15.660013 23.129700
711 0 1 6.894235 -15.992714 23.945404
712 0 1 7.176547 -16.873213 24.110413
713 0 1 7.836719 -17.361813 24.655304
714 0 1 8.737838 -17.374413 24.180206
715 0 1 8.973739 -16.994614 25.066101
716 0 1 9.571889 -17.599012 25.515015
717 0 1 10.400800 -17.293314 25.279999
718 0 1 10.871617 -18.162313 24.958313
719 0 1 11.457097 -18.816914 24.388092
720 0 1 11.997140 -18.051413 24.173309
721 0 1 11.818917 -17.198713 23.812592
722 0 1 12.642388 -17.330812 23.325012
723 0 1 12.531358 -17.067213 22.362000
724 0 1 12.273248 -16.304813 21.822800
725 0 1 13.056108 -16.886312 21.523407
726 0 1 13.449708 -17.038013 20.645798
727 0 1 13.286027 -16.660513 19.739395
728 0 1 13.337338 -15.680513 20.173798
729 0 1 12.281770 -15.669813 20.246506
730 0 1 11.393727 -15.587513 19.777298
731 0 1 11.065339 -16.475714 19.564102
732 0 1 11.696717 -16.677813 18.828308
733 0 1 12.005708 -17.612614 18.971695
734 0 1 12.943017 -17.543213 18.918701
735 0 1 13.289250 -16.787413 18.505707
736 0 1 14.144307 -16.414114 18.706299
737 0 1 15.042249 -16.616314 18.593994
738 0 1 14.972730 -15.710314 18.802002
739 0 1 14.789189 -14.856913 18.324707
740 0 1 14.058949 -14.869413 19.051102
741 0 1 14.428388 -14.185814 19.598999
742 0 1 14.411698 -13.458014 20.269592
743 0 1 13.962319 -12.576914 20.483307
744 0 1 13.625569 -13.043314 19.715195
745 0 1 12.931748 -12.478113 19.571899
746 0 1 12.105699 -12.000713 19.649597
747 0 1 11.300370 -11.625113 19.321503
748 0 1 10.524957 -11.080112 19.208099
749 0 1 9.889668 -11.579613 18.714401
750 0 1 8.942359 -11.366713 18.940506
751 0 1 8.252341 -11.430613 18.173492
752 0 1 7.982207 -11.185814 17.285095
753 0 1 7.730924 -10.259413 17.158005
754 0 1 7.930907 -9.352014 17.214508
755 0 1 8.585700 -8.741513 16.893295
756 0 1 8.069251 -7.982013 16.593903
757 0 1 7.743249 -7.336912 15.984695
758 0 1 6.960410 -7.821512 15.993195
759 0 1 6.080678 -7.506113 15.899704
760 0 1 6.660668 -7.144613 15.061203
761 0 1 5.814368 -7.247213 14.638199
762 0 1 6.172849 -8.091213 14.415802
763 0 1 5.525270 -8.385114 15.117996
764 0 1 5.720149 -9.015313 15.843704
765 0 1 4.867059 -9.033113 16.311905
766 0 1 3.987138 -9.426414 16.535095
767 0 1 4.197328 -9.248513 15.572098
768 0 1 4.760619 -9.968613 15.516403
769 0 1 4.553578 -10.564814 16.175705
770 0 1 4.900239 -11.176813 16.802307
771 0 1 5.648248 -11.258814 16.273407
772 0 1 5.312469 -12.116514 16.496307
773 0 1 4.834678 -12.749313 15.898300
774 0 1 5.802548 -12.500313 15.607895
775 0 1 6.352979 -12.692114 14.883606
776 0 1 6.401649 -12.114414 14.083298
777 0 1 5.513669 -12.371914 13.844406
778 0 1 5.441178 -13.358913 14.011200
779 0 1 4.672679 -13.711412 13.447403
780 0 1 3.902068 -13.291613 13.087296
781 0 1 3.665238 -13.869614 12.314392
782 0 1 3.027829 -13.994513 12.983505
783 0 1 2.430999 -14.004414 13.784195
784 0 1 2.586869 -14.423414 14.612793
785 0 1 2.499448 -15.385513 14.850601
786 0 1 1.768098 -15.729013 14.405396
787 0 1 1.053758 -16.129913 14.914307