LAMMPS data file via MDAnalysis

        2000  atoms
        1999  bonds
           0  angles
           0  dihedrals
           0  impropers

           1  atom types
           1  bond types
           0  angle types
           0  dihedral types
           0  improper types

-30.5 30.5 xlo xhi
-30.5 30.5 ylo yhi
-233.5 233.5 zlo zhi


Masses

1 1.000000

Atoms

1 0 1 -18.642094 -9.950356 36.368591
2 0 1 -18.661194 -10.393915 35.483002
3 0 1 -17.723394 -10.311966 35.166504
4 0 1 -16.821394 -10.093355 35.366211
5 0 1 -16.921595 -11.007036 35.721893
6 0 1 -17.108795 -10.855185 36.613403
7 0 1 -16.185894 -10.577105 36.723602
8 0 1 -15.460193 -10.111036 36.182312
9 0 1 -14.584493 -9.715836 36.117706
10 0 1 -14.641593 -8.747665 36.029694
11 0 1 -14.172294 -8.992725 35.265900
12 0 1 -13.144794 -8.959255 35.065399
13 0 1 -12.917493 -8.271786 35.735992
14 0 1 -12.084294 -7.996114 35.327789
15 0 1 -11.385594 -7.843975 36.009308
16 0 1 -11.460994 -8.760176 36.255615
17 0 1 -12.196694 -8.635845 36.899109
18 0 1 -11.410794 -8.764885 37.438690
19 0 1 -11.910693 -9.471586 37.765503
20 0 1 -11.011094 -9.536726 38.016998
21 0 1 -10.961493 -8.784176 38.629608
22 0 1 -10.786593 -8.751017 39.544189
23 0 1 -11.653993 -8.944166 39.867706
24 0 1 -12.281095 -8.218885 39.924194
25 0 1 -13.223893 -8.242537 39.965088
26 0 1 -13.532893 -7.860265 39.074310
27 0 1 -13.408593 -7.077035 39.703308
28 0 1 -12.710393 -6.356245 39.565704
29 0 1 -11.984693 -6.012355 40.027008
30 0 1 -12.178393 -5.048906 39.842896
31 0 1 -13.157293 -4.999135 39.846100
32 0 1 -13.162093 -5.163345 38.900696
33 0 1 -12.548493 -4.969865 38.173187
34 0 1 -12.942993 -4.489435 37.382111
35 0 1 -13.791794 -4.977485 37.250092
36 0 1 -14.194294 -4.782865 38.105896
37 0 1 -15.033494 -4.993425 38.556885
38 0 1 -14.850694 -4.259386 39.113007
39 0 1 -15.360993 -3.447130 39.418091
40 0 1 -16.025295 -2.911924 39.017792
41 0 1 -16.704895 -2.233690 38.941406
42 0 1 -17.215794 -1.917055 39.680298
43 0 1 -17.408094 -1.902996 40.619202
44 0 1 -16.522295 -1.674594 40.747192
45 0 1 -16.504995 -1.129694 41.557404
46 0 1 -15.847693 -0.460214 41.250092
47 0 1 -14.902293 -0.303186 41.259705
48 0 1 -14.413394 -0.317834 42.049408
49 0 1 -14.530194 0.341986 42.744904
50 0 1 -14.875394 1.126173 42.207214
51 0 1 -14.809894 1.320223 43.151184
52 0 1 -15.266393 1.274085 43.966309
53 0 1 -16.177494 1.187563 43.913086
54 0 1 -16.434694 0.246806 43.992310
55 0 1 -15.649493 0.166045 44.602692
56 0 1 -15.970893 -0.605085 45.051910
57 0 1 -16.720194 -1.214464 45.110504
58 0 1 -16.535694 -2.101337 45.341705
59 0 1 -15.600394 -2.419124 45.404388
60 0 1 -15.543393 -3.297260 45.015503
61 0 1 -15.541595 -3.580741 45.962494
62 0 1 -16.493694 -3.504787 45.858215
63 0 1 -17.278095 -3.020298 45.694489
64 0 1 -17.083595 -3.540082 44.934509
65 0 1 -17.684595 -4.380895 44.898712
66 0 1 -18.412695 -4.765405 45.501587
67 0 1 -18.694494 -5.742506 45.653900
68 0 1 -19.419695 -5.178566 45.327087
69 0 1 -19.874994 -5.364305 46.196411
70 0 1 -20.554495 -5.953035 46.570496
71 0 1 -21.301094 -6.489475 46.137909
72 0 1 -21.935894 -7.117246 45.910095
73 0 1 -22.461895 -6.505485 46.453186
74 0 1 -22.745594 -7.260774 46.959717
75 0 1 -22.399595 -8.005957 47.507507
76 0 1 -22.145294 -8.961496 47.513306
77 0 1 -22.279194 -9.701845 48.113495
78 0 1 -22.048094 -10.239725 48.849091
79 0 1 -21.359194 -10.605925 49.336487
80 0 1 -20.768595 -11.273155 49.709991
81 0 1 -20.523994 -11.389996 48.810211
82 0 1 -21.013695 -10.733557 48.300415
83 0 1 -21.225395 -9.873976 47.881592
84 0 1 -20.557495 -9.498526 48.458099
85 0 1 -19.871895 -9.087416 47.979492
86 0 1 -19.658195 -9.757145 47.329102
87 0 1 -19.411695 -10.002575 46.416504
88 0 1 -19.078594 -10.213625 45.511414
89 0 1 -18.323895 -9.704716 45.265106
90 0 1 -17.658495 -10.379326 45.577606
91 0 1 -18.092695 -11.194246 45.255402
92 0 1 -17.666195 -12.005556 45.541290
93 0 1 -17.546595 -12.682735 46.166107
94 0 1 -18.032495 -13.232817 46.776093
95 0 1 -17.262794 -13.437117 47.329407
96 0 1 -16.551495 -14.086515 47.259399
97 0 1 -15.863494 -14.621317 47.671112
98 0 1 -16.086794 -13.868517 48.203308
99 0 1 -16.362894 -13.004515 47.788086
100 0 1 -16.179195 -12.957075 48.696503
101 0 1 -15.867093 -12.801186 49.591797
102 0 1 -15.907294 -13.392317 50.336609
103 0 1 -15.717294 -12.573145 50.759888
104 0 1 -14.798694 -12.760965 50.932587
105 0 1 -14.167193 -12.851786 50.215607
106 0 1 -13.790693 -12.822165 49.363586
107 0 1 -13.062393 -13.283716 49.041107
108 0 1 -13.232094 -13.647917 49.949402
109 0 1 -13.270694 -13.250616 50.814087
110 0 1 -13.300394 -12.398405 51.197388
111 0 1 -12.628894 -11.773766 51.046692
112 0 1 -12.957793 -11.240465 51.819885
113 0 1 -12.986994 -10.302595 51.685089
114 0 1 -13.040994 -9.336666 51.787292
115 0 1 -12.499593 -8.587795 52.186707
116 0 1 -13.328094 -8.212755 51.871613
117 0 1 -12.574693 -8.011965 51.359985
118 0 1 -11.767793 -7.925975 50.832489
119 0 1 -11.028092 -8.452995 50.582489
120 0 1 -10.355094 -8.971756 50.104004
121 0 1 -10.056394 -8.476585 50.867188
122 0 1 -9.210393 -8.509226 51.322388
123 0 1 -9.036195 -7.739505 51.909393
124 0 1 -8.443093 -7.949905 52.656616
125 0 1 -8.838294 -8.754255 53.212189
126 0 1 -9.680894 -8.156965 53.139496
127 0 1 -9.871594 -8.593845 54.038788
128 0 1 -8.933095 -8.673046 54.442108
129 0 1 -8.479194 -9.162336 55.183197
130 0 1 -8.183654 -9.895435 55.873596
131 0 1 -7.817554 -10.258886 55.057892
132 0 1 -7.152074 -10.925425 55.278503
133 0 1 -6.800115 -10.308706 54.578888
134 0 1 -6.941944 -10.339645 53.619385
135 0 1 -6.104135 -10.403265 53.163910
136 0 1 -6.659555 -11.142607 52.723816
137 0 1 -6.599943 -12.127016 52.748108
138 0 1 -5.770534 -12.244066 52.233795
139 0 1 -5.551975 -11.285856 52.025604
140 0 1 -5.090425 -10.829775 51.395599
141 0 1 -4.576753 -10.004396 51.362793
142 0 1 -5.076974 -9.220245 51.310089
143 0 1 -5.135475 -8.479795 50.681091
144 0 1 -4.161094 -8.448055 50.818787
145 0 1 -3.924344 -7.530235 51.058105
146 0 1 -3.188323 -6.970056 50.854309
147 0 1 -3.237695 -6.418806 50.040802
148 0 1 -2.405704 -6.394716 49.487000
149 0 1 -2.441434 -5.951215 48.712799
150 0 1 -2.358003 -6.700725 48.114594
151 0 1 -3.244863 -6.703466 48.393188
152 0 1 -3.983844 -6.910326 47.756104
153 0 1 -3.829833 -7.665855 47.173096
154 0 1 -3.919673 -7.324094 46.270508
155 0 1 -3.391053 -6.593135 46.510010
156 0 1 -2.615323 -6.544805 45.864685
157 0 1 -2.931264 -6.864885 44.978394
158 0 1 -2.226354 -7.457296 45.379303
159 0 1 -1.467924 -7.631734 44.843903
160 0 1 -0.770624 -6.942806 45.090912
161 0 1 -1.004674 -5.979515 45.142303
162 0 1 -1.107423 -5.960935 46.117310
163 0 1 -1.349393 -5.096765 46.476685
164 0 1 -0.858045 -5.557695 47.152191
165 0 1 0.029647 -5.499086 46.713806
166 0 1 0.463626 -5.593105 45.884216
167 0 1 1.079985 -6.159246 45.393097
168 0 1 1.515410 -6.633665 46.133087
169 0 1 2.230447 -6.037376 45.838806
170 0 1 2.060822 -6.500175 45.000305
171 0 1 1.882187 -7.415136 45.301788
172 0 1 1.432070 -8.043856 44.735199
173 0 1 0.572451 -7.822074 44.371490
174 0 1 0.191586 -7.823925 45.260315
175 0 1 -0.027034 -8.668135 45.686188
176 0 1 -0.404575 -8.669216 44.836914
177 0 1 -0.582685 -7.952575 44.172913
178 0 1 -0.909833 -7.863466 43.287689
179 0 1 -0.841193 -6.860746 43.385712
180 0 1 -0.964883 -6.665525 42.434998
181 0 1 -1.591054 -6.071605 42.075897
182 0 1 -1.719524 -6.416395 41.156616
183 0 1 -0.752263 -6.295114 41.281799
184 0 1 -0.116874 -7.019125 41.263794
185 0 1 -0.456594 -7.594184 40.570496
186 0 1 -0.651723 -7.324005 39.717499
187 0 1 -0.695134 -6.423225 39.940613
188 0 1 0.200156 -6.159854 40.104889
189 0 1 0.802598 -6.599996 40.738098
190 0 1 1.413117 -6.947946 40.006012
191 0 1 2.324092 -7.227834 39.876099
192 0 1 2.906916 -6.690694 39.375305
193 0 1 3.091765 -7.627466 39.178589
194 0 1 3.450488 -8.496275 38.920990
195 0 1 3.033717 -8.695395 38.042206
196 0 1 3.765036 -8.416275 37.509888
197 0 1 4.418974 -9.120245 37.645996
198 0 1 4.418166 -9.302114 36.703186
199 0 1 4.965006 -9.179667 35.881195
200 0 1 4.895857 -8.328325 36.398804
201 0 1 5.419898 -7.905136 35.760803
202 0 1 6.254958 -8.039215 36.273010
203 0 1 6.965895 -8.237295 35.562012
204 0 1 7.815756 -7.906015 35.986694
205 0 1 7.870295 -7.057214 35.479614
206 0 1 7.871775 -7.582056 34.639191
207 0 1 7.535414 -7.239805 33.801392
208 0 1 7.188944 -6.596405 33.173798
209 0 1 6.730124 -7.284505 32.559998
210 0 1 6.748816 -7.033235 31.596008
211 0 1 7.229235 -7.102645 30.706512
212 0 1 6.994906 -7.618835 29.909698
213 0 1 6.501894 -7.960676 29.170197
214 0 1 6.782694 -8.106516 28.242889
215 0 1 6.667136 -8.081594 27.276703
216 0 1 5.877306 -7.589015 27.508087
217 0 1 6.348887 -6.706066 27.665710
218 0 1 5.746245 -6.130374 27.151489
219 0 1 5.621268 -6.561006 26.326416
220 0 1 6.024794 -6.575325 25.352692
221 0 1 5.619227 -5.948575 24.760803
222 0 1 4.946497 -5.293615 24.671997
223 0 1 5.280028 -5.173715 25.580505
224 0 1 5.838477 -4.737945 26.258911
225 0 1 6.746916 -4.757785 26.563812
226 0 1 7.465727 -4.871965 25.921387
227 0 1 8.037696 -4.202125 26.202209
228 0 1 8.105926 -3.866155 27.126007
229 0 1 7.849947 -4.044965 28.121216
230 0 1 8.567096 -4.402565 28.595215
231 0 1 8.638766 -4.928766 29.366211
232 0 1 9.442286 -4.527814 29.615692
233 0 1 9.209857 -3.713882 30.097504
234 0 1 8.243075 -3.470767 30.041687
235 0 1 8.579238 -2.501308 30.178406
236 0 1 8.638007 -1.881835 30.902313
237 0 1 8.658816 -1.625215 31.854889
238 0 1 9.518268 -1.434324 31.393890
239 0 1 10.091758 -1.236825 32.238312
240 0 1 10.510806 -0.988237 31.439301
241 0 1 11.175689 -1.692674 31.466614
242 0 1 12.045306 -2.009168 31.241516
243 0 1 11.710505 -2.320991 32.141113
244 0 1 12.321105 -2.799812 32.795197
245 0 1 11.691108 -3.520166 32.736298
246 0 1 12.565806 -3.841087 32.424591
247 0 1 13.027907 -3.864961 31.517609
248 0 1 13.878509 -4.223634 31.297607
249 0 1 14.798705 -3.868694 31.399292
250 0 1 15.094108 -4.305086 30.631195
251 0 1 15.613708 -5.048965 30.272308
252 0 1 15.515006 -4.379385 29.555389
253 0 1 16.235304 -4.155525 28.924011
254 0 1 15.795707 -3.630228 28.244904
255 0 1 15.385806 -3.146629 27.504089
256 0 1 15.771106 -3.028160 26.621216
257 0 1 16.005106 -2.129800 26.314606
258 0 1 16.857306 -1.970676 26.695007
259 0 1 17.319704 -1.158765 27.007294
260 0 1 17.248404 -0.479105 27.595215
261 0 1 18.013006 -0.467725 28.121307
262 0 1 17.815504 0.417105 28.040405
263 0 1 17.157305 1.121436 27.707306
264 0 1 16.330305 0.943385 28.144897
265 0 1 15.767509 1.686587 28.488892
266 0 1 15.865405 2.376994 29.067902
267 0 1 16.819506 2.417845 29.493408
268 0 1 17.229906 3.115687 29.007904
269 0 1 18.064604 3.215365 28.518311
270 0 1 18.478506 3.363486 27.679993
271 0 1 18.212004 2.629195 27.122192
272 0 1 17.491407 2.428187 26.521301
273 0 1 17.373404 1.578043 26.135498
274 0 1 17.266806 1.827364 25.202301
275 0 1 16.296408 2.030486 25.153687
276 0 1 15.365207 2.239256 25.028198
277 0 1 15.626204 1.697394 24.290710
278 0 1 16.351507 1.238875 23.910309
279 0 1 15.999705 0.881144 23.065887
280 0 1 15.913207 1.370135 22.201202
281 0 1 16.202604 1.451956 21.299500
282 0 1 15.430408 0.778265 21.491699
283 0 1 14.916408 0.395373 20.794708
284 0 1 14.020408 0.484976 21.116196
285 0 1 14.470206 1.298224 20.661102
286 0 1 14.838706 1.753516 19.893799
287 0 1 14.030807 1.781905 19.339005
288 0 1 13.610305 1.908606 18.464905
289 0 1 13.129508 2.680266 18.219101
290 0 1 12.598006 3.512145 18.225494
291 0 1 12.685607 4.288943 18.850494
292 0 1 11.792407 4.252635 19.198395
293 0 1 11.849105 4.249785 18.222992
294 0 1 12.408206 4.704806 17.501404
295 0 1 12.873008 5.461207 17.113297
296 0 1 12.795508 6.475657 17.299805
297 0 1 13.374305 6.226656 16.448608
298 0 1 13.743007 5.672274 15.800293
299 0 1 13.807609 5.811945 14.783295
300 0 1 13.706908 5.000655 14.250595
301 0 1 14.560805 4.631964 13.815796
302 0 1 15.133006 4.010935 13.353104
303 0 1 15.356307 4.111426 12.480194
304 0 1 14.683906 3.505995 12.270294
305 0 1 14.723006 3.735114 11.411697
306 0 1 14.568404 3.308615 10.559402
307 0 1 14.280406 2.430724 10.436798
308 0 1 13.560805 2.578944 9.816788
309 0 1 12.968905 1.947226 9.399567
310 0 1 12.804107 1.616724 10.289093
311 0 1 11.888408 1.634596 9.884491
312 0 1 11.605807 1.757926 10.768097
313 0 1 11.957206 2.691496 10.832901
314 0 1 12.842307 2.926764 10.644897
315 0 1 12.379508 3.669203 10.302399
316 0 1 12.902305 3.597296 9.549515
317 0 1 12.084105 3.275343 9.301865
318 0 1 11.172278 3.555235 9.244736
319 0 1 10.417556 3.956053 8.856735
320 0 1 9.558467 4.286654 9.205093
321 0 1 8.807685 3.619315 9.254745
322 0 1 8.034835 3.187483 8.835190
323 0 1 7.088934 3.053236 8.732819
324 0 1 6.227767 2.561724 8.940628
325 0 1 5.666617 2.787734 9.767181
326 0 1 5.450545 3.268576 10.591797
327 0 1 4.513655 3.533034 10.910095
328 0 1 4.446345 2.657385 10.573196
329 0 1 3.603816 2.686545 11.045197
330 0 1 3.176856 1.885066 10.870605
331 0 1 2.264153 1.790946 11.271103
332 0 1 2.503989 0.873736 11.406494
333 0 1 1.755871 0.232764 11.386398
334 0 1 2.518525 -0.094556 11.888306
335 0 1 1.755923 -0.459104 12.371201
336 0 1 1.945284 -1.152956 13.057205
337 0 1 2.285186 -2.101369 13.135101
338 0 1 2.517491 -3.009828 13.258698
339 0 1 1.647650 -3.127050 12.920502
340 0 1 1.216357 -3.690252 12.172394
341 0 1 1.115309 -3.289747 11.270706
342 0 1 1.580493 -2.466552 11.199905
343 0 1 2.312857 -2.729312 10.517395
344 0 1 3.134158 -2.545166 10.124695
345 0 1 3.587817 -2.798212 11.005798
346 0 1 4.583518 -2.770332 11.095001
347 0 1 4.607546 -3.085239 12.011902
348 0 1 4.120856 -3.806158 12.468597
349 0 1 3.657336 -4.008544 13.325195
350 0 1 3.022937 -4.686904 12.984894
351 0 1 2.788077 -5.344766 12.163101
352 0 1 2.794326 -4.431806 11.955902
353 0 1 2.369269 -3.618684 11.618698
354 0 1 2.453112 -4.120445 10.782104
355 0 1 2.738295 -4.641996 10.000000
356 0 1 2.997296 -5.506105 10.092300
357 0 1 3.818217 -5.198865 9.749374
358 0 1 4.272215 -5.084405 8.913437
359 0 1 3.752616 -4.419416 8.472610
360 0 1 3.053756 -5.046726 8.621353
361 0 1 2.447465 -5.746625 8.923157
362 0 1 1.633635 -6.018594 9.363480
363 0 1 1.765984 -7.024324 9.313660
364 0 1 1.226857 -6.840135 10.023895
365 0 1 1.693123 -7.225194 10.753098
366 0 1 2.013520 -8.099466 10.568298
367 0 1 1.221816 -8.523876 10.959702
368 0 1 1.348359 -9.064425 10.050293
369 0 1 1.649443 -9.727106 9.513077
370 0 1 0.835520 -10.188236 9.210144
371 0 1 0.164046 -10.832645 9.039825
372 0 1 -0.231473 -11.651594 8.768295
373 0 1 0.674502 -11.617125 8.331314
374 0 1 1.224208 -11.747736 7.560959
375 0 1 2.183091 -11.931726 7.862762
376 0 1 1.624713 -12.792475 7.845474
377 0 1 1.352824 -13.555515 8.335968
378 0 1 0.682622 -12.951727 8.615036
379 0 1 1.311448 -12.249685 8.863770
380 0 1 1.811232 -12.595995 9.561707
381 0 1 1.394562 -13.085016 10.310104
382 0 1 1.268849 -12.035734 10.346695
383 0 1 1.000462 -11.135275 10.466705
384 0 1 0.493167 -11.835985 10.937500
385 0 1 0.889123 -12.696966 11.070999
386 0 1 1.431763 -12.149076 11.653900
387 0 1 2.343457 -12.515436 11.626999
388 0 1 3.135226 -12.353886 12.177002
389 0 1 2.462250 -11.736685 12.397507
390 0 1 2.822337 -11.070986 11.807495
391 0 1 3.468558 -10.855646 11.154205
392 0 1 3.797724 -10.500425 11.973495
393 0 1 4.697485 -10.941006 12.174698
394 0 1 5.198985 -11.115446 11.315994
395 0 1 5.514857 -10.599236 10.421494
396 0 1 6.207255 -10.966816 9.871811
397 0 1 5.910414 -10.393236 9.185135
398 0 1 6.428275 -9.669716 8.922607
399 0 1 7.299777 -9.796986 9.283615
400 0 1 7.722605 -9.552475 8.442047
401 0 1 8.327567 -9.149675 7.864349
402 0 1 9.241897 -9.490095 7.661682
403 0 1 9.083407 -8.672016 7.206146
404 0 1 8.152957 -8.693956 6.854095
405 0 1 8.147006 -8.424055 5.916687
406 0 1 7.349196 -8.524616 5.367004
407 0 1 7.459277 -9.473286 5.464294
408 0 1 7.757365 -10.027355 6.208115
409 0 1 7.571345 -10.908775 5.847137
410 0 1 7.214015 -11.677767 5.577515
411 0 1 7.732295 -12.431116 5.909637
412 0 1 7.999106 -12.864946 5.081436
413 0 1 7.487906 -13.582016 4.705185
414 0 1 6.573576 -13.566715 4.471375
415 0 1 6.068816 -14.356417 4.608826
416 0 1 6.191027 -15.277216 4.898056
417 0 1 6.460375 -16.127115 4.534805
418 0 1 7.280005 -15.586817 4.358368
419 0 1 7.687415 -15.393215 3.445893
420 0 1 7.690127 -14.719816 2.732727
421 0 1 8.410487 -14.576715 3.310272
422 0 1 8.825355 -14.174616 2.548218
423 0 1 9.080398 -13.756016 1.782272
424 0 1 8.873057 -13.542915 0.887299
425 0 1 9.329616 -13.491014 0.058380
426 0 1 8.569148 -13.108717 -0.585296
427 0 1 7.935336 -12.997616 -1.319672
428 0 1 7.605315 -12.104866 -1.325775
429 0 1 8.052497 -11.964386 -2.204483
430 0 1 8.495456 -11.124235 -2.177505
431 0 1 9.007575 -11.050236 -2.973861
432 0 1 9.908526 -10.871996 -3.037414
433 0 1 10.574836 -10.694635 -2.353683
434 0 1 10.386737 -11.661615 -2.402115
435 0 1 11.017127 -12.175825 -1.959366
436 0 1 10.230765 -12.106714 -1.269546
437 0 1 10.423476 -12.989016 -0.966400
438 0 1 10.589015 -13.935514 -1.176391
439 0 1 11.340426 -14.324514 -1.712234
440 0 1 11.981109 -14.599316 -1.028656
441 0 1 12.652408 -15.205114 -0.668609
442 0 1 12.895606 -15.242815 -1.670944
443 0 1 13.037505 -16.152515 -1.574814
444 0 1 13.703406 -16.715515 -1.898834
445 0 1 14.401008 -17.370214 -1.679108
446 0 1 14.877906 -18.209616 -1.431106
447 0 1 15.737605 -18.506216 -1.819855
448 0 1 16.595106 -18.773815 -2.018173
449 0 1 16.655806 -19.385815 -1.308227
450 0 1 17.546606 -19.186216 -1.549805
451 0 1 17.675108 -19.867216 -2.202713
452 0 1 17.984404 -20.208817 -3.045135
453 0 1 17.422106 -20.868916 -3.437637
454 0 1 17.564207 -20.089315 -4.008606
455 0 1 17.493704 -19.777416 -4.928436
456 0 1 17.230406 -20.587416 -5.325867
457 0 1 16.444605 -20.501116 -4.683823
458 0 1 16.179403 -20.032215 -5.452438
459 0 1 15.653304 -19.504015 -4.799576
460 0 1 14.865005 -20.137915 -4.640594
461 0 1 14.250304 -19.845716 -5.283813
462 0 1 14.992007 -20.055916 -5.769333
463 0 1 15.343307 -20.896915 -5.390503
464 0 1 15.789207 -21.334816 -4.606094
465 0 1 15.090205 -21.435616 -4.033035
466 0 1 15.660907 -21.557615 -3.212051
467 0 1 15.804008 -20.913416 -2.545196
468 0 1 15.159804 -20.219915 -2.841156
469 0 1 14.591807 -20.761415 -3.379257
470 0 1 13.632808 -20.703016 -3.395263
471 0 1 12.780406 -20.950216 -3.820862
472 0 1 12.821906 -20.049616 -3.574783
473 0 1 13.033706 -19.818615 -2.640625
474 0 1 13.051806 -20.380116 -1.873184
475 0 1 13.434608 -19.994015 -1.065796
476 0 1 13.377807 -20.708216 -0.407867
477 0 1 13.248305 -21.587816 0.082794
478 0 1 13.758807 -22.094616 -0.578201
479 0 1 13.503905 -22.935616 -0.158005
480 0 1 12.563106 -23.066816 0.095795
481 0 1 11.992007 -22.188116 -0.100952
482 0 1 11.358996 -22.710815 -0.608490
483 0 1 10.907485 -22.811516 -1.439712
484 0 1 10.024756 -22.915615 -1.472000
485 0 1 9.122558 -22.543215 -1.298691
486 0 1 8.943225 -22.101015 -0.501449
487 0 1 9.844466 -21.778816 -0.405044
488 0 1 9.786857 -21.178215 -1.154770
489 0 1 9.889075 -20.917616 -2.106216
490 0 1 9.513968 -20.386715 -2.760895
491 0 1 9.172976 -20.002716 -1.972076
492 0 1 8.376796 -19.941616 -2.471725
493 0 1 7.654246 -19.523916 -1.958389
494 0 1 7.092177 -19.564816 -2.757797
495 0 1 6.856265 -19.874315 -3.593750
496 0 1 7.268046 -20.036615 -4.419296
497 0 1 6.511225 -19.479715 -4.577225
498 0 1 5.696524 -19.234816 -4.147293
499 0 1 4.985445 -18.928616 -4.688400
500 0 1 5.004916 -18.392315 -5.450897
501 0 1 4.632906 -17.669214 -6.015747
502 0 1 5.247157 -17.009417 -6.219803
503 0 1 5.411917 -16.141716 -5.811295
504 0 1 5.861617 -15.308115 -5.542328
505 0 1 5.261115 -14.872114 -4.945648
506 0 1 5.539065 -14.023716 -4.515228
507 0 1 5.309027 -14.173916 -3.586776
508 0 1 5.336344 -13.977316 -2.650146
509 0 1 5.551177 -13.055716 -2.895797
510 0 1 5.654604 -12.961245 -3.821045
511 0 1 6.174227 -13.615015 -3.410003
512 0 1 6.623435 -14.328815 -3.038955
513 0 1 6.272234 -15.207115 -2.817398
514 0 1 5.296298 -15.402016 -3.061310
515 0 1 4.592257 -16.091616 -3.444214
516 0 1 4.800356 -16.798916 -2.810531
517 0 1 4.250487 -17.628815 -2.493606
518 0 1 4.888255 -17.859415 -3.186874
519 0 1 5.475047 -18.264814 -2.582702
520 0 1 5.500464 -17.935015 -1.665893
521 0 1 5.271876 -17.345316 -0.933533
522 0 1 5.207957 -17.071516 -0.051788
523 0 1 4.953425 -17.359217 0.873932
524 0 1 4.148745 -17.706215 1.234818
525 0 1 3.960868 -17.090216 0.549881
526 0 1 3.795996 -16.584915 -0.274872
527 0 1 3.993327 -17.217815 -0.999801
528 0 1 3.143965 -17.369917 -0.531051
529 0 1 2.281207 -17.162916 -0.810745
530 0 1 2.371327 -17.825315 -1.472961
531 0 1 1.976340 -18.247814 -0.701797
532 0 1 1.637566 -18.550714 -1.600616
533 0 1 2.278264 -18.835915 -2.260284
534 0 1 2.443661 -19.507915 -1.571075
535 0 1 1.897154 -20.356415 -1.511185
536 0 1 2.432843 -20.677816 -0.726364
537 0 1 2.237815 -21.099115 0.108032
538 0 1 2.416983 -21.971716 -0.324936
539 0 1 3.102797 -22.492716 -0.827392
540 0 1 2.550576 -23.183815 -0.647796
541 0 1 1.985062 -23.460217 -1.321091
542 0 1 2.659976 -23.251715 -1.973984
543 0 1 2.544223 -24.166315 -2.162613
544 0 1 2.503180 -24.499315 -1.226196
545 0 1 2.252375 -25.394516 -0.968658
546 0 1 1.533177 -25.736616 -0.417908
547 0 1 1.480981 -24.791716 -0.314255
548 0 1 0.705445 -25.036816 -0.891647
549 0 1 0.349915 -24.543716 -0.150604
550 0 1 -0.419093 -24.450516 -0.708038
551 0 1 -0.535684 -23.547316 -0.521026
552 0 1 0.225596 -23.231316 -0.863083
553 0 1 0.173426 -22.386015 -1.206436
554 0 1 0.467126 -22.570816 -2.119903
555 0 1 0.833117 -21.745916 -2.339523
556 0 1 0.176476 -21.392015 -2.979202
557 0 1 0.003676 -22.374016 -3.102203
558 0 1 -0.772544 -22.890915 -2.879745
559 0 1 -0.675514 -23.749615 -3.266357
560 0 1 -0.729913 -23.918316 -2.332779
561 0 1 -1.582723 -23.524715 -2.209457
562 0 1 -1.838285 -22.782316 -2.754486
563 0 1 -1.613544 -22.006416 -3.300506
564 0 1 -2.491973 -22.370615 -3.436996
565 0 1 -2.630235 -21.567316 -3.956253
566 0 1 -2.801414 -21.564215 -4.916992
567 0 1 -3.736684 -21.722816 -4.766403
568 0 1 -3.662654 -21.141516 -3.909485
569 0 1 -3.436134 -20.380316 -3.312530
570 0 1 -2.797143 -20.398016 -2.587982
571 0 1 -2.435415 -20.120716 -3.454803
572 0 1 -1.600574 -19.845415 -3.064560
573 0 1 -1.456474 -18.965416 -3.265228
574 0 1 -1.527503 -18.147514 -3.903717
575 0 1 -1.987094 -17.929415 -3.055206
576 0 1 -1.196803 -18.083115 -2.529754
577 0 1 -1.422204 -17.332415 -1.932693
578 0 1 -1.031644 -16.592115 -2.453995
579 0 1 -0.687034 -15.732716 -2.363006
580 0 1 -0.031564 -15.262516 -2.871612
581 0 1 0.280825 -15.192415 -1.986114
582 0 1 0.012206 -15.887217 -1.454376
583 0 1 -0.259673 -16.417017 -0.698517
584 0 1 -1.127843 -16.426516 -0.211227
585 0 1 -1.736394 -16.996416 -0.638779
586 0 1 -1.735044 -16.082216 -0.993545
587 0 1 -1.814184 -15.402414 -1.697922
588 0 1 -2.769473 -15.028915 -1.577118
589 0 1 -3.285064 -14.683615 -2.362091
590 0 1 -3.153653 -15.662615 -2.370712
591 0 1 -3.927783 -15.429216 -1.827957
592 0 1 -4.190994 -14.598116 -1.498733
593 0 1 -4.056884 -13.845816 -2.109894
594 0 1 -3.852044 -13.037416 -1.642227
595 0 1 -3.924484 -13.567316 -0.829300
596 0 1 -3.686074 -12.677755 -0.565735
597 0 1 -3.757684 -11.742565 -0.795959
598 0 1 -2.871654 -11.745337 -1.128555
599 0 1 -2.592843 -10.827246 -1.327957
600 0 1 -2.271955 -10.519806 -2.168823
601 0 1 -1.578325 -9.841017 -2.233963
602 0 1 -0.875123 -10.064627 -2.819595
603 0 1 -0.605455 -10.857145 -3.376709
604 0 1 0.097445 -11.091785 -4.011765
605 0 1 0.306746 -10.185455 -4.053253
606 0 1 0.356326 -10.102755 -3.022217
607 0 1 0.117186 -10.215456 -2.074417
608 0 1 -0.321353 -11.026876 -1.828674
609 0 1 0.047026 -11.586355 -1.182068
610 0 1 0.231745 -12.358187 -1.751922
611 0 1 0.252865 -13.010115 -1.033264
612 0 1 -0.469943 -12.452517 -0.812118
613 0 1 -1.004573 -11.987925 -0.112213
614 0 1 -0.676793 -12.143064 0.855744
615 0 1 -0.453344 -11.343195 1.355621
616 0 1 -0.806024 -10.786926 2.074707
617 0 1 -0.694824 -9.923885 1.680206
618 0 1 -0.809373 -9.537586 2.542816
619 0 1 -1.718164 -9.869486 2.676316
620 0 1 -1.701434 -9.359436 1.854736
621 0 1 -1.739284 -8.847815 1.049271
622 0 1 -1.208953 -8.681665 0.239716
623 0 1 -1.496694 -9.531527 -0.090881
624 0 1 -2.264993 -8.940275 -0.082931
625 0 1 -2.250903 -8.531956 -1.018265
626 0 1 -1.997585 -7.606805 -1.255005
627 0 1 -0.999423 -7.719545 -1.186447
628 0 1 -0.136545 -8.305866 -1.418503
629 0 1 0.245307 -8.136005 -0.624374
630 0 1 0.035496 -7.526655 0.109238
631 0 1 -0.446784 -7.488145 0.926529
632 0 1 -0.398445 -6.981136 1.769653
633 0 1 -0.734643 -6.130455 2.042359
634 0 1 -1.347555 -6.392915 2.646424
635 0 1 -1.629785 -6.554185 1.726532
636 0 1 -1.698385 -6.180564 0.877716
637 0 1 -2.333463 -5.830736 1.535019
638 0 1 -3.057273 -5.945066 2.053635
639 0 1 -3.256124 -6.434425 2.786057
640 0 1 -4.119474 -6.464756 2.289627
641 0 1 -4.985134 -6.346284 1.999573
642 0 1 -4.905435 -6.073884 2.910370
643 0 1 -3.995694 -5.885555 3.282746
644 0 1 -3.764215 -5.243005 2.584076
645 0 1 -3.549863 -4.695375 3.332657
646 0 1 -4.425415 -4.368125 3.386154
647 0 1 -5.251295 -4.113565 2.902573
648 0 1 -5.144634 -3.127393 2.965012
649 0 1 -5.469385 -2.832202 2.172074
650 0 1 -5.339204 -2.474409 1.339508
651 0 1 -4.693744 -1.988601 1.893509
652 0 1 -4.925594 -1.162855 2.211487
653 0 1 -4.395994 -0.648096 1.598618
654 0 1 -4.039354 -0.353696 2.502747
655 0 1 -3.146755 -0.656637 2.700333
656 0 1 -2.417163 -0.161336 2.296875
657 0 1 -1.471464 -0.176607 2.296829
658 0 1 -1.119943 0.444144 3.037003
659 0 1 -2.149474 0.539683 3.105606
660 0 1 -2.551034 0.883166 3.971878
661 0 1 -3.510623 1.213015 3.887589
662 0 1 -3.324184 2.033743 4.408798
663 0 1 -2.910283 1.279486 4.939865
664 0 1 -3.200423 0.765315 5.685883
665 0 1 -3.372934 0.052935 6.402985
666 0 1 -2.960803 -0.346807 5.667404
667 0 1 -3.524083 -0.250516 4.895828
668 0 1 -3.358033 -1.124326 4.504272
669 0 1 -3.658944 -1.283105 3.639176
670 0 1 -4.552814 -0.879426 3.528031
671 0 1 -5.501134 -0.926366 3.565476
672 0 1 -6.294485 -0.403017 3.427307
673 0 1 -6.427423 -0.015344 4.280167
674 0 1 -5.776834 0.225546 4.936050
675 0 1 -5.816965 1.103995 4.522141
676 0 1 -5.625015 1.965205 4.911743
677 0 1 -5.959854 2.793475 5.345551
678 0 1 -5.366245 3.253657 4.683426
679 0 1 -4.442125 3.535616 4.422607
680 0 1 -4.208564 2.845767 3.732682
681 0 1 -3.527234 3.316287 3.294113
682 0 1 -2.545413 3.203085 3.422943
683 0 1 -2.441573 3.792975 2.670731
684 0 1 -2.446634 4.668776 2.237458
685 0 1 -2.337054 5.633326 2.237213
686 0 1 -2.318534 5.998465 3.149185
687 0 1 -2.900523 6.317576 3.912216
688 0 1 -3.645753 5.792826 3.694779
689 0 1 -4.333734 6.363764 3.347046
690 0 1 -4.520534 7.033286 2.626145
691 0 1 -4.011104 7.582385 3.246720
692 0 1 -3.896653 8.526686 3.389649
693 0 1 -3.073793 8.913782 3.143616
694 0 1 -2.636024 9.479784 3.838394
695 0 1 -1.807584 9.925585 3.437668
696 0 1 -1.896894 9.990885 2.489868
697 0 1 -1.507404 9.097185 2.459152
698 0 1 -0.568445 9.026083 2.607849
699 0 1 -0.147724 9.485582 3.276596
700 0 1 -0.536304 10.180685 2.803177
701 0 1 0.167657 10.857183 2.936661
702 0 1 -0.174924 11.777987 2.922669
703 0 1 -0.839605 11.349382 3.495957
704 0 1 -1.812444 11.523184 3.406449
705 0 1 -1.359804 12.093985 3.994644
706 0 1 -2.053874 12.183283 4.659363
707 0 1 -1.658393 11.811983 5.409576
708 0 1 -1.000244 12.028685 6.188843
709 0 1 -0.814803 11.934282 7.067978
710 0 1 -0.751464 11.072485 6.644745
711 0 1 -0.695144 10.342585 7.187500
712 0 1 0.156666 10.943583 7.173920
713 0 1 1.078766 10.731485 7.226944
714 0 1 1.500861 11.682283 7.329575
715 0 1 0.839211 12.077486 7.828247
716 0 1 0.106017 11.779085 8.401306
717 0 1 0.873862 12.039682 8.876633
718 0 1 1.384221 12.760782 8.478104
719 0 1 1.905900 13.502485 8.852036
720 0 1 1.948105 12.961283 9.637894
721 0 1 2.554599 13.386187 10.297394
722 0 1 3.607806 13.351183 10.354401
723 0 1 3.191455 12.860884 11.170303
724 0 1 2.660367 13.024485 11.934998
725 0 1 2.126490 12.222883 11.690094
726 0 1 2.965216 11.656984 11.910095
727 0 1 2.215472 10.980585 11.839706
728 0 1 2.906266 10.550386 11.267700
729 0 1 2.500571 9.908884 10.840195
730 0 1 1.997161 9.351385 11.474197
731 0 1 2.328252 9.035784 12.366196
732 0 1 1.904647 9.065584 13.188095
733 0 1 1.298659 8.507586 12.665894
734 0 1 0.772732 7.790484 12.201294
735 0 1 0.941270 8.183584 11.357498
736 0 1 1.598364 7.551783 11.440308
737 0 1 2.299153 7.234385 10.872192
738 0 1 1.730187 6.534056 11.162994
739 0 1 1.404841 6.451094 12.123505
740 0 1 0.696044 5.980845 11.770905
741 0 1 -0.197444 5.714545 11.615494
742 0 1 -0.259275 4.836405 11.222794
743 0 1 -0.804193 4.348856 10.662796
744 0 1 -0.865363 4.357443 9.718445
745 0 1 -1.521333 4.728674 9.098694
746 0 1 -1.622295 3.881094 8.697693
747 0 1 -1.253194 2.940127 8.439194
748 0 1 -1.992935 2.523665 8.874069
749 0 1 -2.428495 3.079653 8.205215
750 0 1 -3.235364 2.549815 8.302612
751 0 1 -4.043294 2.890803 8.714890
752 0 1 -3.416883 3.564986 8.370255
753 0 1 -3.991513 4.285666 8.165451
754 0 1 -4.299203 5.150176 8.119354
755 0 1 -4.638204 5.891245 7.565033
756 0 1 -4.474195 6.760756 7.822922
757 0 1 -4.899034 7.528784 8.055237
758 0 1 -5.343174 7.118586 7.301437
759 0 1 -4.555013 7.523386 6.950836
760 0 1 -4.583515 7.642184 6.040604
761 0 1 -4.140825 8.373686 5.658264
762 0 1 -3.284744 8.755484 5.600021
763 0 1 -2.365314 8.433184 5.768631
764 0 1 -1.820335 7.936083 5.178207
765 0 1 -1.090814 7.774386 5.823120
766 0 1 -0.215425 7.467783 5.934830
767 0 1 -0.928434 6.886565 6.315247
768 0 1 -0.721464 6.555003 7.231781
769 0 1 0.171357 6.209055 7.446823
770 0 1 0.234826 6.105765 8.369293
771 0 1 -0.406404 6.827364 8.526154
772 0 1 -0.969104 7.561484 8.142761
773 0 1 -1.833534 7.090884 8.278687
774 0 1 -1.965795 6.151125 8.064713
775 0 1 -2.576684 5.780985 8.717911
776 0 1 -3.220094 6.156966 9.401398
777 0 1 -3.531213 7.036387 9.248352
778 0 1 -3.937974 7.833384 9.004059
779 0 1 -4.339954 8.056887 9.794876
780 0 1 -5.303424 7.942484 9.939606
781 0 1 -6.062194 7.450285 9.741806
782 0 1 -6.582304 7.863184 10.458405
783 0 1 -7.372264 7.299086 10.299408
784 0 1 -8.090264 6.932005 10.746704
785 0 1 -8.390424 7.795886 10.617203
786 0 1 -9.226594 7.860087 11.097504
787 0 1 -9.891994 8.056086 11.788696
788 0 1 -9.512294 8.820887 11.400894
789 0 1 -9.599393 9.814283 11.000397