LAMMPS data file via MDAnalysis

        2000  atoms
        1999  bonds
           0  angles
           0  dihedrals
           0  impropers

           1  atom types
           1  bond types
           0  angle types
           0  dihedral types
           0  improper types

-30.5 30.5 xlo xhi
-30.5 30.5 ylo yhi
-233.5 233.5 zlo zhi


Masses

1 1.000000

Atoms

1 0 1 -2.641442 -8.056095 65.284210
2 0 1 -2.043292 -7.381843 65.574219
3 0 1 -1.298092 -6.970035 65.154694
4 0 1 -1.832312 -6.244764 65.519104
5 0 1 -2.719933 -6.525854 65.766418
6 0 1 -3.521292 -6.071723 65.605286
7 0 1 -2.810112 -5.497943 65.331207
8 0 1 -3.047762 -4.807434 66.043091
9 0 1 -3.093892 -4.007476 66.513092
10 0 1 -2.590502 -4.404054 67.182495
11 0 1 -3.344452 -4.660234 67.744507
12 0 1 -3.601132 -4.906305 68.646790
13 0 1 -3.408972 -3.971185 68.571289
14 0 1 -4.374432 -3.897697 68.586700
15 0 1 -5.148451 -4.161144 68.001282
16 0 1 -5.584282 -4.670324 68.715393
17 0 1 -5.611891 -5.617704 69.001282
18 0 1 -4.900523 -6.143104 68.602905
19 0 1 -4.087912 -6.607435 69.050110
20 0 1 -4.401513 -7.224815 68.342499
21 0 1 -3.364672 -7.060415 68.299316
22 0 1 -3.560011 -7.934543 68.558594
23 0 1 -3.431681 -8.547104 67.830902
24 0 1 -2.801932 -8.952475 67.236084
25 0 1 -2.949852 -9.859255 67.394806
26 0 1 -2.149983 -10.207985 66.927002
27 0 1 -1.822321 -11.113773 66.989502
28 0 1 -1.613682 -10.807884 66.102509
29 0 1 -1.089182 -11.000145 65.325104
30 0 1 -0.283633 -11.538574 65.433990
31 0 1 0.091047 -11.985645 64.660217
32 0 1 -0.561491 -11.292974 64.483398
33 0 1 -0.525982 -10.925724 63.631195
34 0 1 -0.471192 -10.394064 62.839691
35 0 1 -0.627522 -10.884335 61.972290
36 0 1 -0.495423 -11.055025 61.065704
37 0 1 -1.000142 -10.374874 60.599609
38 0 1 -1.881262 -10.115065 60.677002
39 0 1 -1.397742 -9.269825 60.809906
40 0 1 -0.549403 -9.534895 61.071198
41 0 1 -0.183873 -8.839146 61.590698
42 0 1 -0.364722 -7.920373 61.907410
43 0 1 -0.759873 -7.041564 61.633789
44 0 1 -1.669642 -7.443523 61.425415
45 0 1 -2.363272 -6.922914 61.820984
46 0 1 -2.526843 -7.139465 60.900391
47 0 1 -3.411952 -7.358984 61.051697
48 0 1 -3.527953 -8.343584 60.809692
49 0 1 -3.744162 -8.729404 59.953186
50 0 1 -4.160063 -8.406225 59.105194
51 0 1 -3.565432 -7.713394 58.886810
52 0 1 -2.814581 -7.633693 59.467499
53 0 1 -2.491103 -8.390453 58.943390
54 0 1 -2.596293 -9.329855 59.310791
55 0 1 -3.099513 -10.073364 58.885315
56 0 1 -3.580763 -9.345364 59.039490
57 0 1 -4.407633 -9.808115 59.208801
58 0 1 -4.893113 -9.432156 58.470795
59 0 1 -5.538722 -9.724976 57.855591
60 0 1 -6.070464 -9.140625 58.341492
61 0 1 -6.291682 -8.943485 57.381592
62 0 1 -5.820452 -8.096474 57.242096
63 0 1 -5.766001 -7.955823 56.250000
64 0 1 -6.272782 -7.308134 56.729797
65 0 1 -6.684382 -7.146333 55.881500
66 0 1 -7.496481 -6.581125 56.023712
67 0 1 -8.063282 -7.015344 56.605011
68 0 1 -8.862282 -7.139953 57.110901
69 0 1 -8.511982 -6.767604 58.021912
70 0 1 -8.623882 -5.834705 58.368195
71 0 1 -7.907782 -5.778873 59.079285
72 0 1 -7.349682 -5.995014 59.843903
73 0 1 -7.781882 -5.739223 60.660706
74 0 1 -8.016481 -4.926294 61.355286
75 0 1 -7.351882 -4.679023 62.055908
76 0 1 -7.539782 -3.950077 62.605408
77 0 1 -7.583783 -3.037346 62.208588
78 0 1 -7.705082 -2.304849 62.770813
79 0 1 -8.152882 -1.502334 62.460205
80 0 1 -7.437083 -1.433353 61.870300
81 0 1 -6.951983 -0.613643 61.888397
82 0 1 -6.414282 -0.820224 61.140198
83 0 1 -6.238482 -0.220436 60.433197
84 0 1 -5.862143 0.263707 59.750397
85 0 1 -5.490553 1.028015 59.320801
86 0 1 -5.133372 1.854466 59.056000
87 0 1 -4.221682 1.601116 58.866913
88 0 1 -4.086703 0.953945 59.548004
89 0 1 -4.509312 1.610836 60.088501
90 0 1 -4.764792 1.384396 60.971497
91 0 1 -4.916823 1.197365 61.898712
92 0 1 -5.552771 1.282444 62.737091
93 0 1 -5.246863 1.237347 63.667297
94 0 1 -4.483832 1.446617 63.027100
95 0 1 -3.564572 1.660935 63.372009
96 0 1 -3.504141 0.889946 64.029907
97 0 1 -2.711583 1.066426 64.559998
98 0 1 -1.719992 0.914807 64.435699
99 0 1 -1.701151 1.260407 65.383301
100 0 1 -1.299101 1.615074 66.195190
101 0 1 -0.420432 1.500435 66.639404
102 0 1 -0.144902 0.803257 67.258301
103 0 1 0.822578 0.653366 67.452698
104 0 1 1.013488 -0.090522 68.122009
105 0 1 1.952848 -0.010425 68.001892
106 0 1 2.127738 -0.904766 68.205200
107 0 1 1.943168 -0.456146 69.059601
108 0 1 2.010637 0.383564 69.565491
109 0 1 1.173568 -0.042595 69.613586
110 0 1 0.304048 -0.021755 70.040283
111 0 1 -0.171942 -0.789344 70.473083
112 0 1 -0.885733 -0.186226 70.123718
113 0 1 -0.943251 -0.737766 69.414703
114 0 1 -0.261502 -1.250995 69.040802
115 0 1 0.259267 -2.126533 68.929688
116 0 1 -0.411732 -2.491976 69.542297
117 0 1 -0.275402 -3.272297 68.929688
118 0 1 0.583547 -3.875509 68.945007
119 0 1 -0.039092 -4.357694 69.436218
120 0 1 -0.995873 -4.551475 69.202789
121 0 1 -1.976992 -4.627664 69.058990
122 0 1 -2.249232 -3.795885 69.385193
123 0 1 -2.420052 -3.310285 70.220703
124 0 1 -2.506062 -2.470510 69.757812
125 0 1 -2.760314 -2.423921 68.845001
126 0 1 -3.319092 -1.615906 68.716309
127 0 1 -3.705533 -1.634136 67.833801
128 0 1 -2.835862 -1.957554 67.690186
129 0 1 -2.175822 -2.640880 68.037201
130 0 1 -1.963213 -2.564106 67.061096
131 0 1 -1.036131 -2.853594 67.327515
132 0 1 -0.899792 -2.281614 66.589294
133 0 1 -0.142363 -2.193634 66.035583
134 0 1 0.171808 -1.247955 66.024292
135 0 1 0.918619 -1.503746 66.586090
136 0 1 1.572698 -0.829944 66.286102
137 0 1 2.563077 -0.927326 66.282806
138 0 1 2.989891 -0.084316 66.370605
139 0 1 3.663398 -0.806835 66.195984
140 0 1 4.292360 -0.955845 65.498291
141 0 1 4.818578 -1.766926 65.759583
142 0 1 4.829488 -1.551346 66.703400
143 0 1 4.901968 -0.645694 67.001099
144 0 1 5.551359 -0.832443 67.734314
145 0 1 6.237546 -1.449405 68.033813
146 0 1 6.896188 -2.112243 68.216095
147 0 1 7.655698 -1.873834 68.821411
148 0 1 7.999719 -1.908565 69.649200
149 0 1 8.282290 -2.811445 69.729492
150 0 1 9.067678 -2.291260 69.609802
151 0 1 9.375837 -3.067066 70.214783
152 0 1 9.251726 -3.565271 71.002014
153 0 1 9.336779 -4.399993 71.433411
154 0 1 9.371077 -5.377063 71.267609
155 0 1 8.534307 -5.067224 70.954193
156 0 1 7.587068 -4.762285 70.938110
157 0 1 6.650819 -4.654384 70.639008
158 0 1 6.097879 -3.929458 70.787292
159 0 1 5.933599 -4.107837 71.716187
160 0 1 5.906648 -4.927555 72.235992
161 0 1 6.776399 -4.982374 72.699799
162 0 1 7.482587 -4.292135 72.595215
163 0 1 6.710489 -4.024429 73.085693
164 0 1 6.321908 -3.197716 73.432617
165 0 1 5.363859 -2.885399 73.305603
166 0 1 5.039377 -2.218303 73.963318
167 0 1 5.237009 -1.881935 74.797485
168 0 1 6.101919 -1.733524 75.170807
169 0 1 6.409116 -1.906494 76.078094
170 0 1 6.678087 -0.985805 76.494202
171 0 1 6.383268 -1.304596 77.365112
172 0 1 5.639627 -0.917354 77.801819
173 0 1 6.274309 -0.227066 77.951782
174 0 1 6.582647 0.144707 78.787994
175 0 1 5.616109 0.126396 79.003204
176 0 1 5.115087 0.945446 78.785095
177 0 1 4.881618 1.868874 79.050507
178 0 1 4.384124 1.445626 79.737000
179 0 1 4.423221 2.045246 80.493103
180 0 1 4.620531 2.973416 80.277496
181 0 1 4.046300 3.809284 80.397797
182 0 1 3.167470 4.111035 80.217712
183 0 1 3.367612 4.979416 80.414001
184 0 1 2.634677 5.210038 80.923309
185 0 1 1.891468 5.073727 80.385101
186 0 1 1.792087 4.923607 79.403687
187 0 1 1.259788 4.681225 78.729492
188 0 1 1.501037 5.571225 78.424408
189 0 1 1.282568 6.438996 78.216797
190 0 1 0.606977 6.307385 77.519989
191 0 1 1.252489 5.647248 77.357483
192 0 1 0.951467 5.716958 76.465210
193 0 1 0.362117 5.375805 75.834991
194 0 1 0.315107 6.028687 75.121796
195 0 1 -0.127213 5.283417 74.742188
196 0 1 -0.097422 5.704224 73.852295
197 0 1 -0.918711 5.756505 74.284302
198 0 1 -1.876692 5.915528 74.418304
199 0 1 -1.875443 5.564465 75.328613
200 0 1 -2.013253 4.699364 75.042999
201 0 1 -2.091341 4.909775 74.046600
202 0 1 -2.905922 5.093785 73.601685
203 0 1 -3.916663 5.014824 73.701599
204 0 1 -4.843531 4.945405 73.937500
205 0 1 -5.177561 4.266106 73.398102
206 0 1 -4.500573 3.633274 73.671814
207 0 1 -5.349442 3.279644 73.989502
208 0 1 -5.717341 2.406967 73.946198
209 0 1 -4.986521 1.841194 74.153900
210 0 1 -5.227011 0.905957 74.354797
211 0 1 -5.797812 0.070397 74.184082
212 0 1 -6.416882 0.147217 73.433105
213 0 1 -7.290381 -0.318474 73.411011
214 0 1 -7.308182 0.336747 72.716797
215 0 1 -7.936282 0.896965 73.192291
216 0 1 -8.003683 0.875855 74.152100
217 0 1 -8.475382 1.534374 74.631409
218 0 1 -8.000483 1.138916 75.364197
219 0 1 -7.897181 0.596474 76.133484
220 0 1 -7.010481 0.798744 75.728394
221 0 1 -6.927283 -0.076713 75.364899
222 0 1 -6.950682 -1.004024 75.309692
223 0 1 -6.321581 -0.933544 75.985199
224 0 1 -5.373374 -1.046715 75.767883
225 0 1 -5.070662 -1.138965 76.705688
226 0 1 -5.211722 -2.010053 76.582001
227 0 1 -4.485114 -2.499315 76.199890
228 0 1 -3.674082 -1.862283 76.033295
229 0 1 -3.577073 -1.977384 75.088104
230 0 1 -4.083382 -1.121864 74.934906
231 0 1 -4.945471 -1.176155 74.499512
232 0 1 -4.774493 -1.937834 73.850494
233 0 1 -5.567572 -1.981535 73.265411
234 0 1 -5.103673 -2.239374 72.459503
235 0 1 -4.308573 -2.769569 72.396912
236 0 1 -3.382252 -2.591964 72.103088
237 0 1 -3.503272 -1.594753 72.185791
238 0 1 -3.833802 -0.986454 72.872711
239 0 1 -3.732203 -0.607696 72.044006
240 0 1 -3.769093 0.147057 71.447388
241 0 1 -3.735623 0.783955 72.267212
242 0 1 -4.437323 0.710354 72.894104
243 0 1 -5.126982 1.225704 72.489319
244 0 1 -5.671591 1.867825 72.003510
245 0 1 -6.534682 2.233086 71.849915
246 0 1 -6.384383 2.781735 71.065704
247 0 1 -6.680483 2.549916 70.175995
248 0 1 -6.476382 3.358856 69.735504
249 0 1 -7.441382 3.591034 69.703491
250 0 1 -8.144083 2.897396 69.699005
251 0 1 -8.292482 2.498635 70.568298
252 0 1 -8.168581 1.610115 70.363190
253 0 1 -8.927582 1.492695 69.788086
254 0 1 -9.290682 2.252415 69.278015
255 0 1 -9.331583 2.237427 68.273193
256 0 1 -9.714281 2.936318 67.764404
257 0 1 -10.000181 2.359925 67.033386
258 0 1 -9.066381 2.381016 66.722290
259 0 1 -9.288382 1.417824 66.530792
260 0 1 -9.870581 0.693737 66.741608
261 0 1 -9.892282 -0.227264 66.793701
262 0 1 -9.184282 -0.716922 66.255615
263 0 1 -8.293081 -0.403526 66.590515
264 0 1 -8.330282 -1.270523 67.032715
265 0 1 -7.825383 -1.643444 67.785400
266 0 1 -8.411982 -2.353359 67.696289
267 0 1 -8.851982 -2.869186 68.347290
268 0 1 -9.665583 -2.301294 68.343201
269 0 1 -9.811682 -2.048494 67.424805
270 0 1 -10.468182 -1.401024 67.412689
271 0 1 -11.089282 -0.742546 67.234009
272 0 1 -11.508182 0.033867 66.956482
273 0 1 -11.226582 0.508766 67.741791
274 0 1 -11.689182 0.949635 68.470001
275 0 1 -12.302282 0.624947 67.807709
276 0 1 -12.937582 1.002835 67.238800
277 0 1 -12.717081 1.724377 67.820099
278 0 1 -13.276882 1.478436 68.629883
279 0 1 -13.210583 2.305096 69.214508
280 0 1 -13.528482 1.781784 69.963806
281 0 1 -13.575281 1.417576 70.829590
282 0 1 -13.894281 2.321476 70.805206
283 0 1 -14.212683 3.183525 71.241791
284 0 1 -13.749882 3.738854 71.866882
285 0 1 -13.203882 3.490986 71.123291
286 0 1 -12.356781 3.884728 71.287689
287 0 1 -11.431982 3.951386 70.915497
288 0 1 -10.735282 3.943264 70.196198
289 0 1 -10.703081 4.857117 69.927399
290 0 1 -10.553881 4.683655 68.999695
291 0 1 -10.595282 5.478455 68.495789
292 0 1 -11.113882 6.250226 68.690002
293 0 1 -11.995782 6.066124 68.974792
294 0 1 -12.122782 5.524647 69.733307
295 0 1 -12.464682 5.884224 70.559814
296 0 1 -12.965982 5.129197 70.695892
297 0 1 -13.305582 5.356354 69.781006
298 0 1 -14.031082 5.813176 69.292511
299 0 1 -14.501183 6.586968 68.979095
300 0 1 -15.398281 6.149048 68.827515
301 0 1 -16.165882 6.485577 69.315704
302 0 1 -16.919382 5.864987 69.427917
303 0 1 -17.867582 5.516594 69.624084
304 0 1 -18.563082 5.242745 68.983704
305 0 1 -18.541283 5.079545 68.041504
306 0 1 -18.505482 5.945458 67.582397
307 0 1 -17.737982 6.397526 67.304504
308 0 1 -17.866282 7.286126 66.918884
309 0 1 -17.623383 8.109024 67.380890
310 0 1 -17.461283 8.835224 66.768799
311 0 1 -17.439383 9.458225 67.485992
312 0 1 -18.362082 9.411224 67.719788
313 0 1 -19.248981 8.968224 67.709412
314 0 1 -18.569283 8.423527 68.007019
315 0 1 -19.321981 7.816327 68.032104
316 0 1 -19.972881 7.741925 67.224701
317 0 1 -19.583282 7.647725 66.396912
318 0 1 -19.742281 6.601696 66.482300
319 0 1 -19.843382 5.978516 67.188599
320 0 1 -20.396381 6.437916 67.930695
321 0 1 -19.717382 6.393906 68.644897
322 0 1 -20.142881 6.031407 69.410217
323 0 1 -19.634382 6.799626 69.707306
324 0 1 -19.150183 7.581925 69.899902
325 0 1 -18.196182 7.516228 69.797913
326 0 1 -17.282782 7.268128 70.049805
327 0 1 -16.955282 7.573128 70.882690
328 0 1 -16.287481 7.854928 71.466797
329 0 1 -15.618483 8.251125 70.779114
330 0 1 -15.262682 9.015625 71.268188
331 0 1 -15.861681 8.900826 72.070190
332 0 1 -15.529282 9.510826 72.708984
333 0 1 -15.086382 8.809525 73.164185
334 0 1 -15.117083 8.621426 74.192993
335 0 1 -14.311583 8.148624 74.071411
336 0 1 -13.634281 7.925828 73.418396
337 0 1 -12.700083 7.962227 73.600098
338 0 1 -12.311281 7.467927 72.881287
339 0 1 -12.801281 6.595395 72.778900
340 0 1 -13.735981 6.673417 72.722900
341 0 1 -14.442781 6.591698 72.055115
342 0 1 -13.641582 6.948826 71.682404
343 0 1 -13.045582 7.657525 71.773895
344 0 1 -13.665081 7.834527 71.143311
345 0 1 -13.822481 8.735725 70.925598
346 0 1 -13.371983 9.418625 70.384216
347 0 1 -13.400682 10.076626 69.645813
348 0 1 -12.727982 10.310024 69.029602
349 0 1 -12.003682 9.848125 68.369110
350 0 1 -12.128181 10.246727 67.471191
351 0 1 -12.044182 10.202427 66.504883
352 0 1 -12.878382 10.612427 66.906006
353 0 1 -13.361181 10.887424 66.114807
354 0 1 -12.693182 10.278324 65.734192
355 0 1 -12.018282 10.098824 65.028809
356 0 1 -12.277283 9.808025 64.155701
357 0 1 -12.466581 10.656826 63.703796
358 0 1 -11.888282 11.298325 64.157196
359 0 1 -12.329082 11.869724 63.476105
360 0 1 -11.400782 11.595825 63.244690
361 0 1 -10.496981 11.204025 63.261597
362 0 1 -10.502581 10.247826 63.148590
363 0 1 -9.713881 9.794426 63.175507
364 0 1 -8.825281 9.880924 62.874084
365 0 1 -8.176283 10.332726 63.443207
366 0 1 -7.819882 9.614525 63.887085
367 0 1 -7.300482 10.405624 64.048401
368 0 1 -6.778182 11.117626 63.634888
369 0 1 -6.007172 11.112625 62.997894
370 0 1 -5.899333 10.402824 63.619904
371 0 1 -5.008173 10.595627 63.977783
372 0 1 -4.093611 10.195625 63.885193
373 0 1 -4.195391 9.580425 64.547607
374 0 1 -4.182742 9.259624 65.444305
375 0 1 -3.698191 10.105927 65.518402
376 0 1 -3.472573 10.979225 65.825684
377 0 1 -2.814402 10.953426 65.055389
378 0 1 -1.820933 10.881523 65.111908
379 0 1 -1.536232 9.989925 65.183807
380 0 1 -1.095883 9.163925 65.155792
381 0 1 -0.340552 8.437824 65.462097
382 0 1 -1.207173 8.060226 65.620392
383 0 1 -1.688422 7.614228 66.324799
384 0 1 -1.026251 6.965325 66.664093
385 0 1 -0.224223 6.859528 66.150513
386 0 1 0.121769 5.902375 66.346405
387 0 1 -0.338133 5.381798 65.628601
388 0 1 0.420648 5.897305 65.320007
389 0 1 0.658638 4.940064 65.060303
390 0 1 0.720277 3.957836 65.230408
391 0 1 0.551548 3.541527 64.431396
392 0 1 -0.110382 2.907757 64.239105
393 0 1 0.821117 2.539097 63.954895
394 0 1 0.488248 2.050835 64.731201
395 0 1 1.361177 1.751995 64.580200
396 0 1 1.962309 2.435936 65.101898
397 0 1 2.388807 3.222355 64.847717
398 0 1 2.338548 3.840195 64.163300
399 0 1 2.701217 4.462098 63.524689
400 0 1 2.754228 4.839478 64.401794
401 0 1 3.378870 4.963635 65.176514
402 0 1 4.023778 4.391434 65.643005
403 0 1 4.972997 4.580395 65.437195
404 0 1 5.712896 4.104187 65.031799
405 0 1 5.671690 3.715767 65.998108
406 0 1 5.282888 2.931267 65.640991
407 0 1 4.992828 2.111687 65.119293
408 0 1 4.163587 1.676544 65.380402
409 0 1 4.354618 1.583527 64.407288
410 0 1 4.327951 1.501995 63.376709
411 0 1 4.710531 2.419487 63.518799
412 0 1 3.842330 2.841137 63.498199
413 0 1 3.320041 2.583706 62.764008
414 0 1 3.702398 1.727505 62.400604
415 0 1 4.462944 1.658684 61.733215
416 0 1 4.822668 2.509236 61.351501
417 0 1 4.070171 3.011387 61.518890
418 0 1 4.526784 3.192337 62.366791
419 0 1 5.286386 3.632206 62.754517
420 0 1 4.977287 4.482426 62.509491
421 0 1 4.958438 5.388916 62.227112
422 0 1 5.734827 5.540455 62.736908
423 0 1 5.334779 6.435448 62.498108
424 0 1 5.503679 7.360127 62.422394
425 0 1 5.968587 7.814427 63.183807
426 0 1 6.772607 7.786625 62.630402
427 0 1 6.045686 8.287025 62.116211
428 0 1 5.439348 8.809826 61.536011
429 0 1 4.564878 8.472324 61.196198
430 0 1 4.195295 8.469025 60.344299
431 0 1 4.212888 8.220325 59.408813
432 0 1 3.432436 8.112328 58.822510
433 0 1 3.739490 8.947826 58.502991
434 0 1 2.865129 9.250824 58.763092
435 0 1 2.355567 8.462727 58.892090
436 0 1 2.566858 7.448925 58.929413
437 0 1 1.898687 7.026227 59.360596
438 0 1 0.947729 7.167027 59.583191
439 0 1 0.838567 7.545426 58.727783
440 0 1 0.517969 6.986527 57.987793
441 0 1 1.391538 6.760327 58.115204
442 0 1 1.217317 5.848488 57.746399
443 0 1 2.052068 5.496438 57.273193
444 0 1 1.874847 5.060166 56.450592
445 0 1 2.278018 5.236615 55.629913
446 0 1 2.527618 6.144288 55.271484
447 0 1 3.322965 6.413094 54.812683
448 0 1 3.980579 5.667637 54.621307
449 0 1 4.197906 4.933526 55.228394
450 0 1 5.059228 4.912495 55.600494
451 0 1 5.722417 4.969544 54.874390
452 0 1 6.537759 5.302018 55.234192
453 0 1 6.444387 4.593995 55.842102
454 0 1 6.586336 5.376717 56.399292
455 0 1 6.007177 4.643235 56.776306
456 0 1 5.352048 4.827527 57.391602
457 0 1 5.931650 5.305127 57.984589
458 0 1 5.342527 5.210755 58.716492
459 0 1 5.534349 6.197564 58.707886
460 0 1 6.164049 6.573777 59.281891
461 0 1 6.501977 6.350155 60.277313
462 0 1 6.180807 6.357937 61.154510
463 0 1 6.968706 6.841126 61.427612
464 0 1 7.779619 7.038926 61.937012
465 0 1 8.496267 7.226128 61.378906
466 0 1 9.156420 6.726525 60.922302
467 0 1 9.056398 5.846417 60.496704
468 0 1 9.132597 4.905358 60.481689
469 0 1 9.992929 5.264367 60.362701
470 0 1 10.468760 5.550717 61.134491
471 0 1 11.095369 6.149746 61.589691
472 0 1 11.359167 6.896725 61.078491
473 0 1 12.013319 7.431824 61.606110
474 0 1 12.401819 7.158627 60.710510
475 0 1 11.827257 7.857926 60.396698
476 0 1 11.266199 7.985726 59.510712
477 0 1 12.132689 8.134026 59.225311
478 0 1 12.073187 8.808624 58.567200
479 0 1 11.858896 9.468124 57.912506
480 0 1 10.988867 9.156025 58.148193
481 0 1 10.359537 9.856926 58.339905
482 0 1 9.950087 10.325226 59.065308
483 0 1 9.638216 10.889324 59.729614
484 0 1 8.721640 10.977024 60.016998
485 0 1 8.491079 10.099724 59.585297
486 0 1 7.592638 9.816925 59.606110
487 0 1 6.735109 9.649025 59.903015
488 0 1 6.529047 10.190025 59.116608
489 0 1 7.003389 9.963024 58.355988
490 0 1 6.113138 9.787727 58.005798
491 0 1 6.392347 10.201126 57.160583
492 0 1 7.015558 9.500923 56.946411
493 0 1 7.241266 9.770626 56.039490
494 0 1 6.426549 9.934925 55.513916
495 0 1 5.568277 9.516827 55.316589
496 0 1 4.741775 9.733925 54.929596
497 0 1 4.152635 9.294926 54.359314
498 0 1 4.587869 9.216427 53.482391
499 0 1 4.502296 8.310524 53.102509
500 0 1 4.890977 7.398625 52.988007
501 0 1 5.435567 6.894627 53.595093
502 0 1 5.365987 7.733326 54.066406
503 0 1 6.115098 8.151024 53.547699
504 0 1 6.251829 9.068325 53.271484
505 0 1 7.025690 8.636627 52.846588
506 0 1 6.645929 8.640125 52.021301
507 0 1 7.033800 9.398926 51.491089
508 0 1 7.959669 9.686523 51.184692
509 0 1 7.620817 10.590824 51.346191
510 0 1 6.719869 10.738926 51.463806
511 0 1 7.166708 10.546825 52.311096
512 0 1 7.664659 10.797825 53.114502
513 0 1 8.672449 10.695427 52.978607
514 0 1 8.454039 10.709724 52.054504
515 0 1 8.746607 9.826027 51.968384
516 0 1 9.485537 9.151127 52.061584
517 0 1 9.304087 8.487823 51.377991
518 0 1 9.527468 7.576928 51.270386
519 0 1 9.103689 6.710267 51.152008
520 0 1 8.795877 6.226525 50.370789
521 0 1 8.073229 6.257744 50.999817
522 0 1 8.039518 5.436997 50.390808
523 0 1 7.345438 5.204415 49.804504
524 0 1 8.133379 5.328335 49.208099
525 0 1 7.853090 4.823494 48.436401
526 0 1 8.084269 3.943344 48.415802
527 0 1 8.619207 3.195976 48.646484
528 0 1 9.324659 3.343384 49.315186
529 0 1 8.698717 3.278206 50.032410
530 0 1 8.826387 3.573956 50.939697
531 0 1 8.207247 2.826638 50.944489
532 0 1 7.938077 3.006844 51.784302
533 0 1 7.239580 3.344017 52.319611
534 0 1 7.792188 3.778977 52.990906
535 0 1 8.598719 3.522354 52.556610
536 0 1 9.065359 4.144886 52.015900
537 0 1 8.628298 4.897126 51.717010
538 0 1 8.393068 5.096375 52.618011
539 0 1 9.311079 4.884858 52.845795
540 0 1 9.495878 4.502335 53.693695
541 0 1 9.084398 5.136994 54.244293
542 0 1 8.740679 5.883317 53.824707
543 0 1 9.117296 6.548905 54.351288
544 0 1 9.809038 6.402977 53.656097
545 0 1 10.629107 6.837025 53.306610
546 0 1 10.606138 7.616227 53.914185
547 0 1 9.768778 8.128326 54.013794
548 0 1 9.403818 7.592728 53.304291
549 0 1 8.592348 7.514927 52.891205
550 0 1 8.177156 7.315125 52.051697
551 0 1 7.523336 6.790528 51.613892
552 0 1 6.863679 6.439126 52.218292
553 0 1 6.991457 5.576207 51.833313
554 0 1 6.000356 5.806595 51.877686
555 0 1 5.681188 5.028344 51.397003
556 0 1 4.948947 4.759774 50.822113
557 0 1 4.334112 5.413716 50.561401
558 0 1 5.074348 5.904007 50.170990
559 0 1 4.820028 5.157135 49.606506
560 0 1 4.816518 5.971707 49.105286
561 0 1 5.709478 6.493027 48.970001
562 0 1 5.968217 6.757626 48.089203
563 0 1 5.351419 6.519955 47.418091
564 0 1 4.555074 7.011326 47.226013
565 0 1 4.042264 6.304196 46.794708
566 0 1 4.320289 6.439705 45.910797
567 0 1 5.196918 5.912697 45.931488
568 0 1 5.606279 6.556565 45.316895
569 0 1 6.275747 6.504715 44.651489
570 0 1 6.259618 6.773827 43.704285
571 0 1 5.964529 6.137417 43.006012
572 0 1 5.469709 5.869336 42.273193
573 0 1 5.008338 5.179905 41.703003
574 0 1 5.661890 5.512757 41.093689
575 0 1 5.844846 5.853146 40.272003
576 0 1 6.746286 5.598736 40.286407
577 0 1 6.839918 6.602974 40.196716
578 0 1 7.064508 7.352826 39.547485
579 0 1 6.381849 7.423028 38.783386
580 0 1 6.913389 6.660538 38.490387
581 0 1 7.774068 6.153775 38.500702
582 0 1 8.396849 5.462265 38.560699
583 0 1 8.114538 5.291737 37.694489
584 0 1 8.663759 5.605797 36.968292
585 0 1 7.956548 5.295537 36.330902
586 0 1 7.873209 5.093667 35.360992
587 0 1 7.109029 4.498147 35.121307
588 0 1 7.489709 4.346955 34.219513
589 0 1 7.723459 3.593285 34.830505
590 0 1 8.262659 3.597817 34.014893
591 0 1 7.728776 2.756714 33.813110
592 0 1 7.674757 2.365265 32.953491
593 0 1 7.023748 3.142006 32.905609
594 0 1 7.231637 3.645394 32.119110
595 0 1 6.483228 4.086567 31.719114
596 0 1 6.043657 4.970547 31.666990
597 0 1 5.400297 4.440606 31.181303
598 0 1 4.782398 4.472504 30.391905
599 0 1 4.373418 5.007847 29.763090
600 0 1 4.030494 5.780537 29.363310
601 0 1 3.553319 5.574227 28.597990
602 0 1 2.916831 5.257897 27.899992
603 0 1 1.989069 5.006836 27.930784
604 0 1 1.826498 5.860077 28.175688
605 0 1 2.513797 6.266968 27.710691
606 0 1 3.017301 6.197587 26.887693
607 0 1 3.862453 6.474328 26.535307
608 0 1 3.826791 7.367424 26.429014
609 0 1 3.073665 7.979825 26.565001
610 0 1 3.086076 8.891327 26.985807
611 0 1 2.341098 9.135925 26.452513
612 0 1 3.082063 8.916924 25.894102
613 0 1 2.820814 9.151325 24.991606
614 0 1 1.785318 9.087727 25.004911
615 0 1 0.920599 9.570526 24.882292
616 0 1 0.133287 9.342926 25.383482
617 0 1 -0.376711 10.042625 25.641508
618 0 1 -0.174502 9.892124 26.553495
619 0 1 -0.051283 9.465725 27.394285
620 0 1 0.216537 10.350025 27.410002
621 0 1 0.041097 11.086926 28.011503
622 0 1 0.422107 11.350327 28.922483
623 0 1 1.158727 11.084126 29.393095
624 0 1 2.024448 11.386024 28.958403
625 0 1 2.964693 11.484024 29.096006
626 0 1 3.219333 10.589725 29.337584
627 0 1 3.632173 9.721024 29.080687
628 0 1 3.880931 10.136627 29.918608
629 0 1 4.559999 9.507027 30.142088
630 0 1 5.213558 9.778027 29.487303
631 0 1 5.844358 9.123627 29.554594
632 0 1 6.284578 9.783226 29.016386
633 0 1 5.574426 9.743027 28.334593
634 0 1 5.906290 10.534824 27.801908
635 0 1 6.607606 11.256126 27.930113
636 0 1 7.087160 12.014725 27.386412
637 0 1 6.987096 12.244324 28.298796
638 0 1 7.300966 13.045723 27.739897
639 0 1 7.140829 14.018028 27.775908
640 0 1 7.822687 13.831627 27.084196
641 0 1 7.328676 14.216526 26.275511
642 0 1 7.803426 13.877525 25.481688
643 0 1 8.197279 13.011425 25.611998
644 0 1 8.438688 12.866825 24.721312
645 0 1 9.319319 12.619225 24.464109
646 0 1 9.766367 11.925224 24.986906
647 0 1 10.634058 11.946724 25.238310
648 0 1 11.505728 12.276325 25.063902
649 0 1 12.350317 12.830925 25.109800
650 0 1 12.819590 12.098824 25.483793
651 0 1 13.519949 12.590626 25.933805
652 0 1 13.721918 11.580826 25.915312
653 0 1 14.491518 11.221226 26.444395
654 0 1 14.580217 11.723225 27.244993
655 0 1 14.226919 12.653126 27.406309
656 0 1 14.708017 12.662727 28.201200
657 0 1 15.005819 13.157227 29.024687
658 0 1 14.064516 13.191628 28.874693
659 0 1 13.388300 12.686127 29.220091
660 0 1 13.351000 11.687725 29.052885
661 0 1 12.531668 11.320625 29.408689
662 0 1 12.041338 10.504128 29.180296
663 0 1 11.773199 11.116325 28.529203
664 0 1 12.500597 10.623425 28.111509
665 0 1 13.124460 10.162426 27.625792
666 0 1 12.578478 9.594727 27.031096
667 0 1 13.237680 9.466526 26.282804
668 0 1 13.639360 9.163925 27.162809
669 0 1 13.884619 8.425125 26.548887
670 0 1 13.283888 8.039425 25.877684
671 0 1 13.360197 7.110726 26.225309
672 0 1 12.921099 6.386055 25.669401
673 0 1 12.261648 5.827885 25.173491
674 0 1 12.683916 5.092797 25.619993
675 0 1 12.586100 4.228596 25.383482
676 0 1 13.046770 3.535156 25.983488
677 0 1 13.924318 3.787796 25.956297
678 0 1 13.516897 3.676655 24.973692
679 0 1 13.766508 3.867394 23.977598
680 0 1 12.792986 4.215565 24.077604
681 0 1 11.867029 4.331307 24.088591
682 0 1 11.989969 3.466297 23.701414
683 0 1 11.036360 3.191757 23.996702
684 0 1 10.226686 2.818238 24.407804
685 0 1 9.345610 3.239144 24.416807
686 0 1 9.066648 2.295597 24.267302
687 0 1 8.314829 2.878735 24.022703
688 0 1 8.219519 3.191307 23.066404
689 0 1 8.090048 3.470017 22.128904
690 0 1 8.509367 3.015026 21.389997
691 0 1 9.505507 2.928086 21.653395
692 0 1 10.279490 2.992947 21.068205
693 0 1 10.932108 2.783417 21.866301
694 0 1 11.349428 2.696957 22.734587
695 0 1 10.937868 1.980915 23.332090
696 0 1 11.367929 1.516285 24.010313
697 0 1 10.704069 1.142185 24.638212
698 0 1 10.541658 0.681927 23.719389
699 0 1 9.598330 0.706726 23.476683
700 0 1 9.944399 0.169007 22.706907
701 0 1 9.387228 -0.252926 23.368711
702 0 1 9.712847 -1.160793 23.423002
703 0 1 10.582247 -1.300365 23.795897
704 0 1 10.819387 -2.246534 24.051908
705 0 1 10.249437 -2.567068 24.837797
706 0 1 9.712729 -3.045471 24.196592
707 0 1 8.952028 -2.753576 23.728300
708 0 1 8.487978 -2.137514 23.142912
709 0 1 7.602556 -2.565141 23.381987
710 0 1 7.436548 -3.370529 24.015684
711 0 1 6.799428 -3.869121 24.452909
712 0 1 6.134126 -3.906170 25.161314
713 0 1 5.943758 -4.131277 26.130796
714 0 1 6.615888 -4.137889 26.839598
715 0 1 6.202009 -4.684024 27.596495
716 0 1 5.982698 -4.250621 28.424192
717 0 1 6.421728 -3.372539 28.340391
718 0 1 6.252496 -2.970239 27.493101
719 0 1 5.480146 -2.365305 27.670500
720 0 1 5.534036 -1.881405 28.546995
721 0 1 5.771486 -1.509994 29.377501
722 0 1 5.659788 -0.529106 29.288908
723 0 1 6.294828 0.048256 29.041990
724 0 1 6.249048 0.112255 28.115904
725 0 1 5.847497 -0.246654 27.345091
726 0 1 5.996316 0.639756 27.006712
727 0 1 5.720697 1.234024 26.343992
728 0 1 5.596227 2.118115 26.166014
729 0 1 4.983827 1.965855 25.414701
730 0 1 4.463531 2.862564 25.477507
731 0 1 3.601333 2.369385 25.326994
732 0 1 2.951408 2.683525 24.650908
733 0 1 3.035497 3.395664 23.985502
734 0 1 3.513862 2.500504 23.837492
735 0 1 2.772598 2.138764 23.400694
736 0 1 1.786008 2.117085 23.624998
737 0 1 2.244648 1.264237 23.628202
738 0 1 1.757208 0.570156 24.054106
739 0 1 1.696657 -0.287666 24.579008
740 0 1 0.934639 -0.817974 24.803190
741 0 1 0.613897 -0.871685 23.867613
742 0 1 0.200857 -1.547115 24.411711
743 0 1 -0.699992 -1.464695 24.080107
744 0 1 -1.437422 -1.570434 23.527494
745 0 1 -1.678942 -2.319879 22.965513
746 0 1 -2.515353 -2.652023 22.589903
747 0 1 -3.055092 -1.854793 22.728697
748 0 1 -3.406733 -1.767425 23.645384
749 0 1 -4.368762 -1.393635 23.597593
750 0 1 -4.451962 -0.534336 23.259184
751 0 1 -4.582182 0.375878 23.149290
752 0 1 -5.101962 1.158184 22.770597
753 0 1 -4.621024 1.890015 23.089506
754 0 1 -4.594243 2.471787 22.374098
755 0 1 -5.007304 2.682328 21.588301
756 0 1 -4.952094 1.880047 21.017698
757 0 1 -5.756732 1.313935 21.099195
758 0 1 -5.785014 1.413574 20.102201
759 0 1 -6.336583 2.235256 20.092604
760 0 1 -6.918581 1.574288 19.659803
761 0 1 -7.863482 1.701725 19.339399
762 0 1 -8.706682 1.782395 18.879301
763 0 1 -8.632483 1.865025 17.934996
764 0 1 -8.591581 0.927426 17.803297
765 0 1 -8.330683 0.150826 17.298292
766 0 1 -8.428982 -0.365326 16.419004
767 0 1 -7.660983 -0.615455 16.909697
768 0 1 -7.243382 -1.055282 17.692900
769 0 1 -7.870284 -1.763046 17.469206
770 0 1 -7.148081 -2.215635 17.952604
771 0 1 -7.048983 -2.149194 18.873899
772 0 1 -6.182703 -2.621700 19.055906
773 0 1 -6.352982 -2.469270 20.024504
774 0 1 -6.504082 -3.396808 19.828199
775 0 1 -7.201582 -3.380481 20.451506
776 0 1 -8.115782 -3.212635 20.528700
777 0 1 -8.847483 -3.738861 20.107298
778 0 1 -9.767282 -3.713367 20.302198
779 0 1 -10.233881 -4.097557 21.065901
780 0 1 -9.688082 -4.832794 21.386595
781 0 1 -9.991583 -4.255737 22.143293
782 0 1 -9.482283 -4.911424 22.576200
783 0 1 -9.128582 -5.461883 23.266905
784 0 1 -9.034182 -6.257595 23.829710
785 0 1 -9.372082 -5.743354 24.559599
786 0 1 -10.297882 -5.352865 24.653105
787 0 1 -10.878482 -4.792724 24.038511
788 0 1 -11.011482 -5.801275 23.863585
789 0 1 -11.448682 -6.556774 23.625608
790 0 1 -11.686982 -7.261255 22.936399
791 0 1 -12.646582 -7.286033 22.915403
792 0 1 -12.353981 -7.067064 22.041105
793 0 1 -11.555682 -7.330444 21.541899
794 0 1 -10.761782 -7.489524 22.118101
795 0 1 -11.502582 -8.161825 22.076902
796 0 1 -10.884182 -8.656605 21.352400
797 0 1 -11.766082 -9.093824 21.412901
798 0 1 -12.131082 -8.145596 21.143003
799 0 1 -13.134382 -8.119734 21.170393
800 0 1 -13.107182 -7.922124 22.134306
801 0 1 -13.786482 -7.215484 21.922499