LAMMPS data file via MDAnalysis

        2000  atoms
        1999  bonds
           0  angles
           0  dihedrals
           0  impropers

           1  atom types
           1  bond types
           0  angle types
           0  dihedral types
           0  improper types

-30.5 30.5 xlo xhi
-30.5 30.5 ylo yhi
-233.5 233.5 zlo zhi


Masses

1 1.000000

Atoms

1 0 1 -4.245929 3.004723 60.906708
2 0 1 -4.859199 2.246541 60.957703
3 0 1 -5.461460 1.858804 61.562408
4 0 1 -5.769248 0.997090 61.151703
5 0 1 -6.010330 1.236783 60.266785
6 0 1 -6.425670 0.825303 59.504089
7 0 1 -6.429569 -0.192310 59.681610
8 0 1 -6.928749 -0.465858 60.455597
9 0 1 -6.964199 0.118562 61.231689
10 0 1 -7.874250 -0.206279 61.090698
11 0 1 -8.168519 0.468652 61.790100
12 0 1 -8.227519 0.972981 62.734314
13 0 1 -9.119998 1.004662 62.868103
14 0 1 -9.095590 1.605511 62.104187
15 0 1 -8.418689 1.609212 61.361084
16 0 1 -8.555648 2.316201 60.751801
17 0 1 -8.151439 3.149552 60.238007
18 0 1 -7.478199 3.207780 60.946899
19 0 1 -7.633249 4.269113 60.784210
20 0 1 -7.245319 4.102452 59.904694
21 0 1 -7.999321 4.494351 59.428009
22 0 1 -8.770909 4.993253 59.529510
23 0 1 -8.176978 5.382451 58.844208
24 0 1 -7.264389 5.663651 59.079590
25 0 1 -6.476240 6.056153 58.679596
26 0 1 -5.873619 6.148152 59.428009
27 0 1 -5.783329 7.092050 59.283295
28 0 1 -5.501480 6.727651 58.433502
29 0 1 -5.645109 7.680154 58.104004
30 0 1 -6.236539 8.297753 57.719116
31 0 1 -7.132450 8.630452 58.054108
32 0 1 -7.503780 8.101151 57.260986
33 0 1 -8.131358 8.214551 58.006104
34 0 1 -8.879970 7.743752 57.466003
35 0 1 -8.161208 7.224851 57.022003
36 0 1 -8.878980 6.516053 56.856598
37 0 1 -9.280849 6.352052 56.002106
38 0 1 -10.142520 6.777852 56.265289
39 0 1 -10.664329 6.098752 56.747192
40 0 1 -11.072619 6.205152 55.887512
41 0 1 -10.675170 6.059152 55.054596
42 0 1 -11.128509 6.830850 54.771088
43 0 1 -11.407769 7.758153 54.680603
44 0 1 -12.322200 7.733651 54.360809
45 0 1 -12.420398 7.019853 53.735596
46 0 1 -11.681338 6.932752 53.119507
47 0 1 -10.757220 7.116551 52.897400
48 0 1 -10.134360 6.399354 53.077209
49 0 1 -10.756488 5.731153 52.717194
50 0 1 -9.971690 5.539353 52.119507
51 0 1 -10.350028 4.686952 52.251099
52 0 1 -9.853118 4.406060 51.492004
53 0 1 -8.951259 4.711251 51.384003
54 0 1 -9.524039 5.476151 51.106689
55 0 1 -8.678908 5.673951 50.608215
56 0 1 -8.646070 5.099351 49.882599
57 0 1 -8.003139 5.749753 49.480988
58 0 1 -7.104990 5.228150 49.480408
59 0 1 -6.656410 4.443650 49.243011
60 0 1 -6.851169 3.819112 49.976288
61 0 1 -6.773019 2.963971 50.465302
62 0 1 -6.611820 2.797944 51.394287
63 0 1 -7.423009 2.681504 51.830200
64 0 1 -7.592319 1.998742 52.515900
65 0 1 -6.808050 1.529763 52.286804
66 0 1 -7.619249 0.865273 52.326996
67 0 1 -8.167430 0.611752 51.570709
68 0 1 -8.431800 -0.240096 51.102417
69 0 1 -8.544389 0.414632 50.437988
70 0 1 -8.105189 0.877103 49.713684
71 0 1 -7.296009 0.429650 49.382111
72 0 1 -7.929430 0.538781 48.667908
73 0 1 -8.654569 0.681683 47.996887
74 0 1 -9.438018 0.300271 48.252991
75 0 1 -10.147019 -0.050140 47.738403
76 0 1 -10.870189 0.278401 47.226013
77 0 1 -11.132140 -0.209758 46.459991
78 0 1 -11.501079 0.636571 46.323914
79 0 1 -11.778499 1.420880 46.834412
80 0 1 -12.496699 1.960923 47.269104
81 0 1 -12.984899 1.756242 46.451996
82 0 1 -13.777598 1.901181 46.946594
83 0 1 -14.624400 1.934701 47.440186
84 0 1 -15.191199 2.702882 47.292511
85 0 1 -16.114799 2.996972 47.527313
86 0 1 -16.317200 2.074181 47.530304
87 0 1 -16.929699 1.404473 47.256805
88 0 1 -16.757299 0.431561 47.129700
89 0 1 -16.286900 -0.405227 47.212402
90 0 1 -15.521800 0.182881 47.465210
91 0 1 -14.673699 -0.210269 47.623993
92 0 1 -14.033000 -0.542407 47.075195
93 0 1 -14.197398 -1.461540 47.113708
94 0 1 -14.708499 -1.982528 46.551514
95 0 1 -14.021899 -2.631858 46.399597
96 0 1 -14.080699 -3.196857 45.642090
97 0 1 -13.965899 -4.184869 45.468903
98 0 1 -14.247699 -4.005507 44.616302
99 0 1 -14.968398 -4.490228 44.979095
100 0 1 -15.555499 -3.701610 45.017700
101 0 1 -15.507098 -2.730140 45.249298
102 0 1 -15.879899 -3.050487 46.036407
103 0 1 -16.519199 -3.585498 45.577606
104 0 1 -17.438599 -3.803237 45.846008
105 0 1 -17.802299 -4.178458 46.637909
106 0 1 -17.932600 -5.071494 46.714813
107 0 1 -18.640499 -5.308679 47.356903
108 0 1 -18.000299 -4.958190 48.059509
109 0 1 -17.403099 -5.605823 47.696289
110 0 1 -17.133699 -6.124108 48.419098
111 0 1 -16.993000 -7.028487 48.606812
112 0 1 -17.264500 -7.392798 47.694214
113 0 1 -16.308500 -7.412318 47.526093
114 0 1 -15.588798 -7.428828 46.903503
115 0 1 -14.779399 -7.920339 47.002106
116 0 1 -15.139199 -7.951919 46.113403
117 0 1 -14.461898 -8.022408 45.426605
118 0 1 -14.513099 -7.483148 44.571594
119 0 1 -15.102599 -7.499248 43.857391
120 0 1 -15.205699 -8.336679 44.152100
121 0 1 -15.197200 -8.799117 43.278412
122 0 1 -15.735599 -9.378987 42.791687
123 0 1 -16.248600 -9.001958 42.057800
124 0 1 -16.712399 -8.289237 42.421906
125 0 1 -16.320200 -7.524028 42.037811
126 0 1 -16.044201 -6.646857 42.401489
127 0 1 -16.782799 -6.266812 41.952301
128 0 1 -17.309999 -5.510924 41.765106
129 0 1 -18.071100 -5.750119 41.240692
130 0 1 -18.338301 -5.263436 42.004517
131 0 1 -19.121401 -5.025235 41.623596
132 0 1 -20.104799 -5.084186 41.513611
133 0 1 -20.425600 -4.555469 42.221985
134 0 1 -19.762600 -3.801448 42.067017
135 0 1 -19.259399 -3.855647 41.282898
136 0 1 -19.632900 -3.487308 40.432587
137 0 1 -19.480801 -2.611850 40.815796
138 0 1 -19.573400 -1.641486 41.081696
139 0 1 -18.588499 -1.628787 40.914093
140 0 1 -18.697100 -1.321800 41.805206
141 0 1 -18.508499 -1.357837 42.859100
142 0 1 -19.129101 -1.312797 43.583984
143 0 1 -19.080200 -2.138370 43.230011
144 0 1 -18.473000 -2.412917 43.983704
145 0 1 -18.127701 -2.328628 44.878296
146 0 1 -18.033899 -1.448997 45.340607
147 0 1 -18.997601 -1.437438 45.504913
148 0 1 -18.421700 -1.673820 46.220612
149 0 1 -17.515499 -1.612678 46.526093
150 0 1 -16.879000 -2.353408 46.478302
151 0 1 -17.529200 -2.499748 47.184509
152 0 1 -17.858999 -3.233699 47.787415
153 0 1 -17.800200 -3.723430 48.638794
154 0 1 -16.860399 -3.782768 48.657501
155 0 1 -16.304501 -4.551518 48.763916
156 0 1 -16.958300 -4.667615 49.472107
157 0 1 -16.973900 -4.310147 50.324188
158 0 1 -17.877100 -4.131337 50.667786
159 0 1 -17.781799 -3.885280 51.557098
160 0 1 -17.259300 -3.998698 52.428284
161 0 1 -16.482100 -3.553447 52.727112
162 0 1 -16.236700 -3.574397 51.831299
163 0 1 -15.312198 -3.532268 51.867401
164 0 1 -15.266599 -2.645217 52.200409
165 0 1 -14.688998 -1.892440 51.834503
166 0 1 -13.860799 -2.273040 51.407715
167 0 1 -13.735198 -1.800719 52.315399
168 0 1 -13.015899 -2.395278 52.420807
169 0 1 -13.102599 -3.356899 52.356506
170 0 1 -13.169898 -4.011027 51.680908
171 0 1 -13.201098 -4.092479 50.742615
172 0 1 -13.144698 -5.084338 50.484406
173 0 1 -12.324899 -4.517688 50.356903
174 0 1 -12.272599 -4.505858 49.403290
175 0 1 -12.069699 -5.480248 49.302399
176 0 1 -11.354930 -5.735759 49.817902
177 0 1 -12.002498 -6.315543 50.262299
178 0 1 -11.804618 -7.107068 49.742615
179 0 1 -12.043799 -7.360429 50.631012
180 0 1 -11.120959 -7.617599 50.383301
181 0 1 -10.805438 -6.861058 50.846985
182 0 1 -11.052819 -7.574689 51.427185
183 0 1 -11.258430 -8.021888 52.193909
184 0 1 -11.357839 -8.236049 53.153107
185 0 1 -11.097579 -8.024148 54.045502
186 0 1 -11.321059 -8.910178 54.153290
187 0 1 -11.560779 -9.773448 53.788513
188 0 1 -11.350999 -10.658927 53.693909
189 0 1 -11.314048 -11.642348 53.601898
190 0 1 -10.660918 -11.337638 54.347809
191 0 1 -10.125419 -10.927789 54.999084
192 0 1 -9.450978 -11.487378 55.292511
193 0 1 -9.095710 -10.968818 54.567200
194 0 1 -9.222138 -10.018909 54.304810
195 0 1 -8.745889 -10.385648 53.546387
196 0 1 -8.059459 -10.528508 52.821899
197 0 1 -7.654230 -11.155208 52.191010
198 0 1 -7.906330 -12.035228 52.559814
199 0 1 -7.057300 -12.119388 52.922699
200 0 1 -7.501258 -12.415778 53.673004
201 0 1 -8.363809 -12.579669 53.863495
202 0 1 -8.117709 -11.746509 54.200287
203 0 1 -8.046248 -11.097268 54.916992
204 0 1 -7.585630 -10.409688 55.448486
205 0 1 -7.738279 -10.299499 56.372009
206 0 1 -8.289420 -10.652019 57.050995
207 0 1 -8.957019 -10.125628 57.434692
208 0 1 -8.452300 -9.497268 57.966614
209 0 1 -8.430638 -8.785008 58.535187
210 0 1 -7.498060 -8.464318 58.684387
211 0 1 -6.538179 -8.435988 59.007294
212 0 1 -6.359800 -8.537457 60.003693
213 0 1 -6.625610 -7.566428 59.863586
214 0 1 -7.421039 -6.982608 60.035706
215 0 1 -8.010310 -6.681918 59.346100
216 0 1 -7.399080 -6.102035 58.868011
217 0 1 -8.268920 -6.227031 58.412415
218 0 1 -8.275109 -5.302009 58.729797
219 0 1 -8.679809 -4.539958 58.379089
220 0 1 -9.576499 -4.443418 58.506104
221 0 1 -10.037860 -4.596255 59.390808
222 0 1 -10.209859 -4.831222 60.340393
223 0 1 -9.610848 -3.997039 60.221893
224 0 1 -9.587918 -3.316459 59.492706
225 0 1 -10.101508 -2.615928 59.038513
226 0 1 -10.816279 -2.506458 58.305389
227 0 1 -10.182170 -2.883037 57.612213
228 0 1 -9.463939 -2.277759 57.364990
229 0 1 -9.666900 -1.493987 57.938202
230 0 1 -9.183309 -2.184489 58.368103
231 0 1 -8.455119 -2.766937 58.697510
232 0 1 -8.246610 -2.151878 59.437317
233 0 1 -7.373230 -2.025047 59.199799
234 0 1 -7.189788 -2.299087 60.131287
235 0 1 -6.540859 -2.937019 59.970612
236 0 1 -5.907920 -2.885658 59.226196
237 0 1 -5.477249 -3.696918 59.479187
238 0 1 -5.300180 -3.827537 60.401703
239 0 1 -5.584770 -4.723821 60.133484
240 0 1 -4.705600 -5.183469 60.134308
241 0 1 -3.742660 -5.432557 60.300903
242 0 1 -3.299299 -5.533830 61.164185
243 0 1 -4.045330 -5.370135 61.694489
244 0 1 -3.940540 -6.319398 61.807495
245 0 1 -4.135530 -6.986579 62.508209
246 0 1 -3.852510 -6.766667 63.370697
247 0 1 -4.469560 -6.107457 63.553101
248 0 1 -4.975080 -6.307895 62.731506
249 0 1 -5.332239 -5.488292 63.038788
250 0 1 -6.075408 -6.022725 62.971497
251 0 1 -6.430068 -5.795737 63.836090
252 0 1 -7.065750 -5.063945 63.737610
253 0 1 -6.260950 -4.860192 63.322388
254 0 1 -6.471250 -4.255187 62.652588
255 0 1 -6.544330 -3.360938 62.250488
256 0 1 -6.612480 -2.720908 63.046906
257 0 1 -5.915479 -2.475288 62.354889
258 0 1 -5.745979 -2.029880 63.178192
259 0 1 -5.387619 -1.398128 62.449097
260 0 1 -5.506530 -1.333347 61.508484
261 0 1 -4.979650 -1.184299 60.734589
262 0 1 -4.509990 -0.471397 60.317413
263 0 1 -4.173330 -1.317249 59.944702
264 0 1 -4.519939 -1.080756 59.137695
265 0 1 -3.907030 -0.407237 59.223511
266 0 1 -3.351959 -0.683120 58.492798
267 0 1 -2.788703 -0.355720 57.774109
268 0 1 -2.229015 -1.206329 57.955383
269 0 1 -1.715751 -1.873039 58.297211
270 0 1 -2.641168 -2.191150 58.240204
271 0 1 -2.011251 -2.653198 57.628784
272 0 1 -1.122755 -3.025310 57.622406
273 0 1 -0.354780 -2.543220 57.888794
274 0 1 0.331681 -1.994117 57.380096
275 0 1 1.037232 -2.198329 56.829712
276 0 1 1.947529 -2.240089 56.643494
277 0 1 1.938382 -1.390197 56.110107
278 0 1 2.040352 -0.644229 55.582794
279 0 1 2.962822 -0.502349 55.188507
280 0 1 2.884491 0.475781 55.294312
281 0 1 2.490670 0.972623 54.620605
282 0 1 2.326752 1.881921 54.724396
283 0 1 1.824929 2.103692 53.919983
284 0 1 2.560189 2.094910 53.214600
285 0 1 2.484040 2.798524 52.502594
286 0 1 1.605450 2.880830 51.938812
287 0 1 1.330021 2.027463 51.623108
288 0 1 0.465790 1.779641 51.890900
289 0 1 0.903920 1.005643 51.591492
290 0 1 0.351391 0.219483 51.533386
291 0 1 0.559700 -0.040290 50.599609
292 0 1 0.170762 -0.813308 50.198486
293 0 1 0.382809 -0.822177 49.242310
294 0 1 0.341961 -1.796039 49.171814
295 0 1 1.241631 -1.459480 48.890289
296 0 1 1.302971 -1.585548 47.976685
297 0 1 0.448781 -1.616958 47.553497
298 0 1 0.073880 -2.465999 47.360107
299 0 1 -0.325489 -2.867637 46.532715
300 0 1 -0.381490 -1.871227 46.363098
301 0 1 -0.115150 -1.699126 45.471313
302 0 1 -0.113159 -1.877319 44.560089
303 0 1 -1.067955 -1.843017 44.492004
304 0 1 -1.566158 -2.310249 43.769806
305 0 1 -1.804996 -2.064220 42.856598
306 0 1 -1.001504 -1.742687 42.455597
307 0 1 -0.450199 -1.907588 41.633484
308 0 1 -1.119075 -2.147220 41.018616
309 0 1 -1.883083 -1.655387 40.759308
310 0 1 -2.385667 -0.941100 40.342194
311 0 1 -3.014209 -0.447669 39.881592
312 0 1 -3.568620 0.336163 39.570312
313 0 1 -3.805519 0.927411 40.304199
314 0 1 -3.862030 1.860360 40.227509
315 0 1 -4.594480 1.595391 39.607300
316 0 1 -5.494100 1.854302 39.657501
317 0 1 -5.872139 2.212201 38.882202
318 0 1 -6.802770 2.465543 38.664398
319 0 1 -7.624080 1.948884 38.486816
320 0 1 -8.631450 1.850243 38.670410
321 0 1 -8.416888 1.427651 39.533691
322 0 1 -9.356250 1.485890 39.713684
323 0 1 -10.099469 1.632371 40.293610
324 0 1 -10.897090 1.868470 39.643402
325 0 1 -11.219100 1.086793 39.243286
326 0 1 -11.376609 1.337884 38.288208
327 0 1 -12.007699 1.981522 38.032715
328 0 1 -12.205899 2.501862 38.841309
329 0 1 -12.726199 3.078480 39.431305
330 0 1 -13.523999 3.475243 39.865906
331 0 1 -13.847598 2.616990 39.511902
332 0 1 -13.653499 1.938470 40.078308
333 0 1 -13.872298 1.583840 40.919800
334 0 1 -13.783099 2.212483 41.717499
335 0 1 -14.282798 2.387002 42.536011
336 0 1 -13.499900 1.973611 42.975800
337 0 1 -13.207099 1.298112 43.565308
338 0 1 -13.903598 1.001782 42.900391
339 0 1 -13.744998 0.100053 42.848297
340 0 1 -14.541198 0.375073 43.343109
341 0 1 -14.815799 0.855660 44.120087
342 0 1 -15.834899 0.908730 44.312195
343 0 1 -15.725099 0.967030 45.244598
344 0 1 -16.562099 1.519044 45.528107
345 0 1 -17.219299 1.022061 45.938507
346 0 1 -17.764099 1.287743 46.702606
347 0 1 -18.602301 1.275391 46.306305
348 0 1 -19.356199 0.865491 46.703613
349 0 1 -19.818600 1.629670 47.085297
350 0 1 -20.192801 2.233922 47.710083
351 0 1 -20.421101 3.031930 47.234802
352 0 1 -20.973801 3.478791 47.904602
353 0 1 -21.714899 2.861832 47.748596
354 0 1 -22.666000 2.644784 47.830292
355 0 1 -22.353899 2.410580 46.958588
356 0 1 -23.194300 2.149121 46.606598
357 0 1 -23.660400 2.548871 45.844788
358 0 1 -24.227800 3.219502 46.274506
359 0 1 -24.935801 3.429063 46.860992
360 0 1 -25.553699 2.880700 46.438995
361 0 1 -26.107800 2.222142 46.892303
362 0 1 -26.381300 2.452012 46.016388
363 0 1 -26.688601 3.237172 46.406616
364 0 1 -27.405100 2.800912 45.864807
365 0 1 -27.523899 3.103341 44.933197
366 0 1 -27.392799 3.950463 44.558899
367 0 1 -26.693199 4.544953 44.354187
368 0 1 -26.939100 5.471753 44.301697
369 0 1 -27.500601 5.846253 43.596893
370 0 1 -27.141600 5.148454 43.066895
371 0 1 -26.912800 5.708451 42.354309
372 0 1 -26.239401 5.925653 41.652313
373 0 1 -25.758600 5.244653 42.179596
374 0 1 -26.090599 4.343133 42.198395
375 0 1 -26.525400 3.646073 41.703003
376 0 1 -25.660200 3.262643 41.713593
377 0 1 -25.614000 3.595299 42.637604
378 0 1 -24.876801 3.188702 43.060303
379 0 1 -24.133200 2.625069 43.180206
380 0 1 -23.161301 2.461430 42.828613
381 0 1 -23.116501 1.888470 43.577789
382 0 1 -22.705299 2.761681 43.895111
383 0 1 -22.052900 2.642220 43.206299
384 0 1 -21.624001 3.373391 42.725403
385 0 1 -21.631300 3.675732 41.778992
386 0 1 -21.912300 3.855050 40.831696
387 0 1 -21.185900 4.518651 40.923187
388 0 1 -20.811501 4.788354 41.728790
389 0 1 -20.503000 5.255853 42.604797
390 0 1 -20.133699 6.135053 42.793610
391 0 1 -20.306999 6.840554 43.458496
392 0 1 -20.555599 7.269052 44.291595
393 0 1 -20.204000 6.986852 45.128998
394 0 1 -19.667000 6.154450 44.987701
395 0 1 -19.322599 5.257951 45.021210
396 0 1 -18.441401 5.441453 44.610504
397 0 1 -18.339300 5.639352 43.710083
398 0 1 -17.987600 6.356153 44.284698
399 0 1 -17.435299 6.228551 43.528992
400 0 1 -17.939400 6.681352 42.823914
401 0 1 -17.797400 5.912251 42.181213
402 0 1 -18.064501 4.980252 42.043304
403 0 1 -18.670799 4.422753 42.471100
404 0 1 -18.905399 3.559052 42.908203
405 0 1 -19.374500 3.626954 42.116913
406 0 1 -18.605999 3.854661 41.627502
407 0 1 -17.735300 4.098313 41.478394
408 0 1 -17.734600 4.661351 40.692902
409 0 1 -17.217100 3.885941 40.490692
410 0 1 -16.822699 3.124532 40.077301
411 0 1 -17.216799 2.658562 40.766602
412 0 1 -17.601599 1.821671 40.390015
413 0 1 -18.120899 1.115662 39.933899
414 0 1 -18.737700 0.772843 40.510712
415 0 1 -19.245899 0.706692 39.658813
416 0 1 -19.859301 0.137002 40.235107
417 0 1 -20.773199 0.226571 39.910583
418 0 1 -20.730900 1.015980 39.442291
419 0 1 -20.369200 1.401101 38.613586
420 0 1 -20.510401 2.309792 38.727692
421 0 1 -20.261299 2.968343 38.158813
422 0 1 -20.656900 3.247193 37.214813
423 0 1 -19.988899 2.828351 36.705200
424 0 1 -19.153099 2.816460 37.216095
425 0 1 -18.501301 2.662381 36.474609
426 0 1 -18.386900 1.764043 36.282806
427 0 1 -19.075199 2.035180 35.619202
428 0 1 -18.859100 2.433533 34.774994
429 0 1 -18.057199 2.354302 35.277710
430 0 1 -17.998800 3.250531 34.941010
431 0 1 -17.491699 4.048612 35.049316
432 0 1 -16.837700 4.354501 34.332489
433 0 1 -16.983200 4.576352 33.436493
434 0 1 -16.109001 4.358903 33.745087
435 0 1 -16.054100 3.392403 33.998810
436 0 1 -15.270198 2.997472 33.709198
437 0 1 -14.590899 2.741101 34.342102
438 0 1 -13.946799 3.250611 33.848083
439 0 1 -13.489398 4.072534 33.447205
440 0 1 -12.779300 4.723550 33.482697
441 0 1 -11.838500 4.775353 33.350006
442 0 1 -11.812469 5.773553 33.156708
443 0 1 -11.770480 6.500253 33.738800
444 0 1 -11.324580 7.253751 33.377686
445 0 1 -10.393329 7.322152 33.166107
446 0 1 -10.189309 6.630353 33.859985
447 0 1 -9.569419 5.940053 33.474213
448 0 1 -9.866839 5.054353 33.729004
449 0 1 -9.343379 4.321782 33.412994
450 0 1 -8.496520 4.005570 33.726807
451 0 1 -8.882640 3.976041 34.648010
452 0 1 -8.494269 4.085893 35.548004
453 0 1 -7.847438 4.640153 35.926697
454 0 1 -8.323489 5.545953 36.075409
455 0 1 -7.857349 6.181550 35.551514
456 0 1 -7.117740 6.099553 34.942810
457 0 1 -7.022819 6.818051 35.550812
458 0 1 -6.309249 7.474553 35.483093
459 0 1 -5.935379 7.851151 34.642700
460 0 1 -5.628540 8.674253 34.346588
461 0 1 -5.196060 8.725854 33.478088
462 0 1 -6.127229 9.050153 33.259796
463 0 1 -5.803760 9.888154 33.550201
464 0 1 -6.153459 10.768052 33.517609
465 0 1 -6.067619 10.769052 32.606506
466 0 1 -6.292940 10.543450 31.626802
467 0 1 -6.184490 10.243752 30.736788
468 0 1 -5.877429 10.774751 29.992800
469 0 1 -5.704259 11.427552 29.272310
470 0 1 -4.792640 11.550454 29.463015
471 0 1 -4.154979 11.898454 28.802614
472 0 1 -4.657249 11.703950 27.981600
473 0 1 -5.317239 12.135552 28.521090
474 0 1 -5.640569 12.689851 29.291292
475 0 1 -6.273839 13.086953 29.907015
476 0 1 -6.135160 12.716851 30.730410
477 0 1 -6.425640 12.117951 31.472292
478 0 1 -7.251909 12.586053 31.366518
479 0 1 -8.185840 12.870355 31.118502
480 0 1 -8.882998 12.438554 31.560091
481 0 1 -8.318740 11.879251 32.105804
482 0 1 -9.116019 11.860852 32.830017
483 0 1 -9.524409 11.003552 32.975891
484 0 1 -8.592330 10.948052 33.082001
485 0 1 -8.975398 10.259351 32.554504
486 0 1 -9.422549 9.771653 33.268799
487 0 1 -9.475228 8.925050 33.610596
488 0 1 -8.825849 8.451150 33.017792
489 0 1 -9.009139 8.181252 32.048798
490 0 1 -8.257140 8.734254 31.821901
491 0 1 -7.530860 8.127351 31.557497
492 0 1 -7.089849 8.647752 30.807589
493 0 1 -6.174440 8.921052 31.029787
494 0 1 -5.886180 7.938451 31.049898
495 0 1 -5.470680 7.696153 30.229891
496 0 1 -4.576990 7.287953 30.419313
497 0 1 -3.833450 7.980050 30.622011
498 0 1 -4.248449 8.636353 30.046694
499 0 1 -3.980400 8.057450 29.366396
500 0 1 -3.779609 8.491651 28.588411
501 0 1 -2.952720 8.990952 28.307589
502 0 1 -2.582048 9.205552 27.430208
503 0 1 -2.142931 8.408952 27.140993
504 0 1 -2.223136 8.784753 26.224215
505 0 1 -2.129802 8.552052 25.323305
506 0 1 -2.623458 7.749253 25.559694
507 0 1 -3.205719 7.193051 26.062197
508 0 1 -2.684457 7.462754 26.805605
509 0 1 -1.742763 7.205052 26.964205
510 0 1 -0.842102 7.086350 26.869295
511 0 1 -0.078918 7.494153 27.320803
512 0 1 -0.283069 8.133554 28.007601
513 0 1 -0.250858 7.395352 28.551394
514 0 1 0.010541 8.170053 29.092592
515 0 1 0.930989 8.640954 29.121798
516 0 1 1.244381 9.484452 28.833803
517 0 1 1.010472 8.849252 28.044191
518 0 1 0.232220 9.089852 27.445009
519 0 1 -0.409709 9.170350 28.176088
520 0 1 -1.021522 9.795453 27.749910
521 0 1 -0.509449 9.878251 26.936892
522 0 1 -1.305086 9.986852 26.551302
523 0 1 -2.073728 10.286553 26.012697
524 0 1 -2.765613 9.740453 25.481997
525 0 1 -3.259569 10.058450 24.679995
526 0 1 -2.352590 9.702451 24.638613
527 0 1 -2.297061 8.835752 24.242189
528 0 1 -1.391273 9.155553 24.246218
529 0 1 -1.069765 8.354150 23.906099
530 0 1 -0.223178 8.502152 24.376497
531 0 1 0.021912 9.415853 24.410402
532 0 1 -0.549699 9.193452 25.178591
533 0 1 -0.329099 9.313554 26.053102
534 0 1 0.460412 8.727052 26.256502
535 0 1 0.955330 9.195153 25.637300
536 0 1 1.300690 8.639352 24.899813
537 0 1 1.496880 7.818154 24.479006
538 0 1 1.498169 6.855851 24.480593
539 0 1 1.590962 6.262750 25.249086
540 0 1 1.749859 6.780053 26.057497
541 0 1 2.651989 7.201653 25.976992
542 0 1 2.290310 7.798051 26.686800
543 0 1 2.749150 7.808751 27.565401
544 0 1 3.242501 8.240453 28.270388
545 0 1 2.603352 8.496053 28.896700
546 0 1 3.193131 8.919450 29.547091
547 0 1 3.528573 9.491052 30.310915
548 0 1 4.032170 9.316552 31.098513
549 0 1 4.828942 9.166951 30.596407
550 0 1 4.547051 8.530053 29.917788
551 0 1 4.784409 8.117352 29.053713
552 0 1 5.541951 7.543653 29.152895
553 0 1 5.241730 7.532151 28.209505
554 0 1 6.009900 6.935651 28.346804
555 0 1 6.887299 6.674153 28.058290
556 0 1 6.880402 7.414750 28.770906
557 0 1 7.718731 7.004151 28.988405
558 0 1 7.729481 7.978852 29.201113
559 0 1 7.364449 8.519753 28.426607
560 0 1 6.413880 8.409150 28.085817
561 0 1 6.988141 9.046651 27.589907
562 0 1 6.382042 9.834851 27.598909
563 0 1 5.957901 10.386052 26.963289
564 0 1 6.235459 11.309052 26.825411
565 0 1 5.265942 11.507852 26.839510
566 0 1 4.827252 11.167649 27.617495
567 0 1 4.909691 11.419953 28.522890
568 0 1 4.731869 11.762650 29.408113
569 0 1 5.426892 12.377854 29.250795
570 0 1 5.736142 11.547353 29.600893
571 0 1 6.606720 11.797452 29.420290
572 0 1 7.109269 12.629052 29.437899
573 0 1 7.427971 12.980653 28.438692
574 0 1 7.449021 13.835752 27.965792
575 0 1 6.629799 14.432153 27.875216
576 0 1 6.109139 14.304154 27.138796
577 0 1 6.557679 14.446652 26.319490
578 0 1 5.735032 14.044053 26.179506
579 0 1 6.175492 13.403451 26.738100
580 0 1 6.414139 12.787850 27.429201
581 0 1 6.935910 11.970452 27.623812
582 0 1 7.803772 12.345551 27.298494
583 0 1 8.152062 13.241754 27.257601
584 0 1 7.429211 13.278451 26.611696
585 0 1 7.939591 13.392953 25.765902
586 0 1 8.710301 13.886552 25.574587
587 0 1 9.522500 13.681451 26.097200
588 0 1 9.464101 13.127854 26.864992
589 0 1 10.237199 12.707852 26.514894
590 0 1 10.778199 12.498551 25.681002
591 0 1 11.486402 12.155351 25.121096
592 0 1 11.067300 11.845452 24.350710
593 0 1 10.557500 11.543252 25.079500
594 0 1 11.185002 10.828252 25.192110
595 0 1 10.443700 10.637750 25.790407
596 0 1 10.766801 10.655652 26.724916
597 0 1 11.463502 11.139153 27.217409
598 0 1 10.690801 11.140450 27.892000
599 0 1 11.445401 11.660554 28.217196
600 0 1 11.968900 12.406350 28.442598
601 0 1 11.188001 12.724053 28.878389
602 0 1 11.435700 12.370950 29.703493
603 0 1 11.084603 13.006654 30.308504
604 0 1 10.310700 13.501252 30.414705
605 0 1 9.430200 13.744752 30.864901
606 0 1 9.044099 14.171250 30.103914
607 0 1 9.826600 14.759751 30.241213
608 0 1 10.284001 15.384454 29.717806
609 0 1 9.805600 16.259949 29.885500
610 0 1 9.840302 17.274151 29.901003
611 0 1 9.458802 17.269852 30.893190
612 0 1 8.599603 17.486549 30.560793
613 0 1 7.939572 17.443851 29.808413
614 0 1 7.950219 16.591454 30.215212
615 0 1 8.719903 16.428352 29.639589
616 0 1 9.443601 16.623650 28.976290
617 0 1 8.882501 16.531952 28.194887
618 0 1 7.982602 16.462452 27.878603
619 0 1 8.116311 16.975754 27.118990
620 0 1 8.023553 17.477051 26.338106
621 0 1 7.700039 17.580952 25.445192
622 0 1 6.933560 18.174850 25.555300
623 0 1 6.258202 17.750851 26.248293
624 0 1 5.826012 17.523251 25.408113
625 0 1 6.478501 17.167751 24.751711
626 0 1 6.578701 16.843452 23.786409
627 0 1 5.574162 16.760250 23.836916
628 0 1 5.259911 16.602249 22.940004
629 0 1 4.698941 15.813149 22.722414
630 0 1 5.580781 15.437654 22.994112
631 0 1 4.988720 14.726853 23.287813
632 0 1 4.347779 13.951653 23.017214
633 0 1 5.277142 13.752652 22.899202
634 0 1 5.344872 13.188752 22.138903
635 0 1 5.173031 12.315553 21.784197
636 0 1 5.969849 12.261651 21.288607
637 0 1 5.726662 11.582749 20.668596
638 0 1 5.759339 11.494653 19.673204
639 0 1 4.999310 10.947751 19.681398
640 0 1 4.809720 10.366250 19.010500
641 0 1 5.639340 10.801251 18.795397
642 0 1 6.493920 10.687150 19.213305
643 0 1 7.345879 11.005349 19.449907
644 0 1 7.741940 11.227654 20.254198
645 0 1 8.267503 11.994950 19.931597
646 0 1 8.009713 12.853852 20.233995
647 0 1 8.765401 13.309052 19.790606
648 0 1 8.770402 14.297551 19.482698
649 0 1 8.187402 15.084252 19.350405
650 0 1 8.225900 15.425950 18.450808
651 0 1 7.532242 16.134354 18.610201
652 0 1 7.264328 15.795953 17.763201
653 0 1 6.721520 15.078454 17.845903
654 0 1 7.080922 14.928151 16.903994
655 0 1 7.647789 14.368653 16.374208
656 0 1 7.626462 14.011052 15.474703
657 0 1 6.873600 13.393350 15.682802
658 0 1 7.535660 12.659249 15.764498
659 0 1 7.603131 12.158654 14.963396
660 0 1 6.846268 11.549554 14.736696
661 0 1 6.721291 10.729451 14.166903
662 0 1 6.827691 9.868653 13.727007
663 0 1 7.628533 9.617753 14.147905
664 0 1 8.263803 8.897351 14.353609
665 0 1 8.898900 8.881654 15.094805
666 0 1 9.711701 9.315652 14.684404
667 0 1 10.184602 8.491452 14.510103
668 0 1 10.100102 7.804151 15.075304
669 0 1 9.699502 7.112054 14.398806
670 0 1 9.992501 6.208753 14.244005
671 0 1 10.542199 5.350553 14.299700
672 0 1 9.888703 5.125653 14.878695
673 0 1 9.393502 4.721452 15.596102
674 0 1 10.092202 4.072591 15.633104
675 0 1 10.895799 3.583802 15.629396
676 0 1 10.917600 3.401810 14.658602
677 0 1 11.000703 4.302533 14.727907
678 0 1 11.860803 4.229852 14.504595
679 0 1 12.185201 3.526711 13.995607
680 0 1 11.713502 3.457402 13.152010
681 0 1 11.509500 3.127602 12.214800
682 0 1 11.228902 4.042260 12.472704
683 0 1 11.085301 4.826451 13.047503
684 0 1 10.304402 4.663552 13.513506
685 0 1 10.197999 3.808293 12.931795
686 0 1 10.716401 3.018594 12.992708
687 0 1 9.926301 2.617333 13.113802
688 0 1 9.003800 3.060033 12.977495
689 0 1 8.199800 2.596341 12.843904
690 0 1 7.871918 2.005990 13.487505
691 0 1 7.371628 1.322114 13.032106
692 0 1 6.467850 1.438370 13.326906
693 0 1 5.598572 1.855843 13.325808
694 0 1 4.977330 1.508153 13.949495
695 0 1 4.313302 1.759370 14.512499
696 0 1 3.888119 1.976853 15.308001
697 0 1 3.656922 2.944112 15.157900
698 0 1 3.950593 3.364671 14.334002
699 0 1 3.665009 4.273194 14.186998
700 0 1 2.815239 3.844022 14.118105
701 0 1 2.465279 4.428353 13.396502
702 0 1 2.997452 3.681123 13.110704
703 0 1 3.754750 4.254441 12.931505
704 0 1 3.385251 5.118852 12.745501
705 0 1 3.609860 5.019952 11.833803
706 0 1 3.686772 5.862752 11.310808
707 0 1 2.854271 5.976350 10.857409
708 0 1 2.417519 6.038850 11.700396
709 0 1 1.801060 6.009652 10.977098
710 0 1 1.336590 6.898053 10.910601
711 0 1 0.713921 7.420053 11.494509
712 0 1 0.287850 8.057954 10.851000
713 0 1 1.231320 8.314752 10.993608
714 0 1 1.001309 8.408853 11.896105
715 0 1 0.126061 8.786351 11.748003
716 0 1 -0.797039 9.054551 11.617006
717 0 1 -0.615160 8.673150 10.699495
718 0 1 -0.142959 9.486154 10.704699
719 0 1 -0.660758 10.354451 10.589800
720 0 1 0.070370 10.544251 11.184694
721 0 1 0.644612 9.921853 11.624804
722 0 1 0.988652 10.729150 12.019503
723 0 1 0.327672 11.407853 11.966707
724 0 1 -0.169471 11.509950 11.180803
725 0 1 -0.200248 12.251451 11.782396
726 0 1 0.153542 13.121053 11.698397
727 0 1 0.751759 13.830453 11.545000
728 0 1 0.093621 13.894654 10.831896
729 0 1 -0.757720 13.940152 10.265108
730 0 1 -1.097879 14.000649 9.348558
731 0 1 -1.399290 14.919553 9.372606
732 0 1 -2.076198 14.598054 9.975679
733 0 1 -2.722064 15.302152 10.296007
734 0 1 -2.586122 16.157249 10.663301
735 0 1 -2.475835 17.083851 10.452806
736 0 1 -3.062160 17.082550 11.173800
737 0 1 -3.662609 17.065948 11.975801
738 0 1 -4.587009 17.154053 11.642900
739 0 1 -5.294139 16.501053 11.505800
740 0 1 -5.320499 15.559449 11.414705
741 0 1 -5.788759 14.894853 10.980104
742 0 1 -6.044540 14.680451 10.042208
743 0 1 -6.180530 14.631753 9.088167
744 0 1 -6.685329 13.927552 8.660265
745 0 1 -6.517900 13.758653 9.632509
746 0 1 -6.653530 12.941453 10.230196
747 0 1 -7.563301 13.163354 10.442598
748 0 1 -8.264089 13.131555 11.033907
749 0 1 -8.402009 12.321652 10.489305
750 0 1 -7.575479 11.926850 10.686495
751 0 1 -6.684589 11.766351 10.383501
752 0 1 -6.267311 11.419053 11.222506
753 0 1 -6.528409 10.664453 11.743700
754 0 1 -6.464290 9.909150 11.089998
755 0 1 -7.097068 9.703553 11.804201
756 0 1 -7.244770 8.934152 11.195498
757 0 1 -7.092819 9.102551 10.242495
758 0 1 -7.708410 8.609151 9.779558
759 0 1 -8.391759 8.188153 9.221300
760 0 1 -8.569369 7.330552 9.603151
761 0 1 -9.206248 6.672353 9.601610
762 0 1 -8.720399 6.193051 8.934877
763 0 1 -7.749879 6.377053 8.833559
764 0 1 -7.297019 5.978051 9.561480
765 0 1 -7.719329 5.096154 9.207323
766 0 1 -8.084229 4.799851 8.389696
767 0 1 -7.073749 4.815652 8.326296
768 0 1 -6.676290 4.759553 7.436586
769 0 1 -5.777200 4.380101 7.452730
770 0 1 -5.263879 5.117452 7.338014
771 0 1 -4.648880 4.688153 6.676317
772 0 1 -3.949329 4.074281 6.510530
773 0 1 -3.406330 3.636971 5.827363
774 0 1 -3.256040 3.829800 4.875764
775 0 1 -2.892629 3.159383 4.301988
776 0 1 -3.354990 2.548043 4.988252
777 0 1 -3.876249 1.789860 5.039949
778 0 1 -3.607440 1.562241 4.121919
779 0 1 -3.138589 1.044610 3.480318
780 0 1 -2.604488 1.620763 2.972627
781 0 1 -1.787197 1.554612 2.439638
782 0 1 -0.984508 1.136433 2.032945
783 0 1 -1.085121 1.039231 3.056627
784 0 1 -1.288522 1.708791 3.697145
785 0 1 -1.782318 0.888982 3.988939
786 0 1 -2.351032 0.884251 4.777223
787 0 1 -2.493074 0.876160 5.709184
788 0 1 -2.578138 0.033952 5.296525
789 0 1 -2.390150 -0.286758 6.204240
790 0 1 -1.792863 0.224702 6.727129
791 0 1 -1.934265 0.445252 7.642869
792 0 1 -1.181570 0.345662 8.226534