LAMMPS data file via MDAnalysis

        2000  atoms
        1999  bonds
           0  angles
           0  dihedrals
           0  impropers

           1  atom types
           1  bond types
           0  angle types
           0  dihedral types
           0  improper types

-30.5 30.5 xlo xhi
-30.5 30.5 ylo yhi
-233.5 233.5 zlo zhi


Masses

1 1.000000

Atoms

1 0 1 13.500541 -8.400227 51.468597
2 0 1 14.114440 -9.162497 51.577911
3 0 1 14.570239 -10.010715 51.474701
4 0 1 14.588241 -10.336475 52.369812
5 0 1 15.447539 -10.437426 51.968201
6 0 1 16.127039 -10.306227 51.273193
7 0 1 15.979739 -9.471577 50.860199
8 0 1 15.995742 -8.647816 51.446503
9 0 1 15.204139 -8.615187 51.019592
10 0 1 15.537238 -7.726216 50.753906
11 0 1 15.038539 -6.868687 50.649689
12 0 1 15.762938 -6.410637 51.064301
13 0 1 15.222640 -6.696137 51.779694
14 0 1 15.679038 -6.144907 52.422485
15 0 1 16.390940 -6.639496 51.995392
16 0 1 17.060141 -7.190587 52.252808
17 0 1 17.939440 -7.593466 52.657410
18 0 1 18.741640 -7.092537 52.468597
19 0 1 19.385839 -7.190516 51.773804
20 0 1 19.620741 -6.512677 52.434113
21 0 1 19.293039 -6.073979 53.176086
22 0 1 18.687140 -5.337609 53.229706
23 0 1 18.153639 -5.781363 52.600189
24 0 1 17.725737 -5.076781 52.071808
25 0 1 17.931540 -4.420674 51.433990
26 0 1 18.134336 -5.270483 51.163605
27 0 1 19.002039 -5.406636 50.784607
28 0 1 19.117239 -6.317477 50.589996
29 0 1 19.283239 -6.372017 49.595093
30 0 1 19.660040 -7.236506 49.669098
31 0 1 19.738039 -6.836867 48.770111
32 0 1 18.871542 -7.121768 48.558197
33 0 1 18.134138 -6.849257 49.110504
34 0 1 18.307539 -5.949429 49.338196
35 0 1 17.669439 -5.909054 48.581696
36 0 1 17.524939 -5.022446 48.375305
37 0 1 17.952238 -5.391741 47.582611
38 0 1 17.557539 -4.567236 47.436890
39 0 1 17.818838 -5.001662 46.644989
40 0 1 17.337038 -4.303256 46.277313
41 0 1 17.775839 -4.073777 45.433105
42 0 1 18.650541 -4.244614 45.145294
43 0 1 19.307039 -4.957011 45.129700
44 0 1 19.315939 -5.798884 44.653198
45 0 1 18.410841 -5.627797 44.489502
46 0 1 18.335142 -6.153267 45.263916
47 0 1 17.803240 -6.874577 44.892212
48 0 1 18.535040 -7.131327 45.606384
49 0 1 18.405241 -7.712296 44.803406
50 0 1 18.389441 -7.283207 43.986206
51 0 1 18.124640 -8.015297 43.390015
52 0 1 17.556341 -8.555176 42.826813
53 0 1 16.788641 -8.155537 42.485107
54 0 1 16.114637 -7.858227 41.909210
55 0 1 16.213438 -8.400536 41.065613
56 0 1 16.987139 -8.801226 40.658997
57 0 1 17.267439 -7.892577 40.697113
58 0 1 17.904440 -7.349097 40.196594
59 0 1 18.868040 -7.237227 40.079102
60 0 1 19.656141 -7.526356 40.629517
61 0 1 20.407942 -8.024015 40.934387
62 0 1 21.257841 -8.427536 41.209198
63 0 1 21.613737 -8.363087 40.281708
64 0 1 22.417242 -8.937727 40.230408
65 0 1 23.365538 -8.614185 40.318695
66 0 1 23.580641 -7.705077 40.040283
67 0 1 23.433737 -7.391938 39.102509
68 0 1 23.051237 -6.692517 38.594299
69 0 1 23.341742 -6.593398 37.671997
70 0 1 22.865141 -7.477208 37.471985
71 0 1 23.278639 -8.246876 37.038086
72 0 1 22.570837 -8.696177 37.506012
73 0 1 22.965040 -9.246147 38.219116
74 0 1 23.893240 -8.875797 38.067596
75 0 1 24.386839 -8.031597 38.154388
76 0 1 24.353041 -7.528138 37.259003
77 0 1 24.448740 -8.011366 36.456116
78 0 1 23.785238 -8.657085 36.117310
79 0 1 23.480238 -9.467686 35.731995
80 0 1 22.858438 -9.797506 35.049713
81 0 1 22.416239 -8.872526 35.104401
82 0 1 22.416639 -8.032576 34.555786
83 0 1 22.666342 -7.357077 33.996002
84 0 1 22.391241 -6.891867 33.170715
85 0 1 22.842039 -6.222348 32.544098
86 0 1 22.631941 -6.855517 31.807188
87 0 1 22.134939 -7.676466 31.925413
88 0 1 22.340540 -8.455177 31.401091
89 0 1 22.272238 -9.402487 31.150694
90 0 1 22.979040 -8.910086 30.753202
91 0 1 22.774542 -9.267677 29.886412
92 0 1 22.874342 -8.372156 29.671385
93 0 1 22.067137 -8.327477 29.144590
94 0 1 22.454939 -7.439047 29.148405
95 0 1 22.145739 -6.986256 29.987211
96 0 1 21.356237 -7.006777 29.356596
97 0 1 20.461840 -7.048466 29.020597
98 0 1 20.365240 -6.272418 28.377897
99 0 1 19.751539 -6.243037 29.171904
100 0 1 19.501738 -7.136496 29.395506
101 0 1 19.594137 -7.732728 30.168303
102 0 1 18.703039 -7.375037 29.898588
103 0 1 18.307837 -7.047217 30.712584
104 0 1 17.815237 -6.294106 31.028593
105 0 1 18.168940 -6.093947 30.104307
106 0 1 18.796839 -5.385394 30.381804
107 0 1 18.966040 -4.748682 31.081785
108 0 1 18.513739 -4.307162 31.798094
109 0 1 18.864840 -3.978766 32.637604
110 0 1 19.236639 -3.099438 32.531311
111 0 1 20.016340 -3.078125 33.142792
112 0 1 20.951841 -3.158768 33.002991
113 0 1 20.948240 -2.375088 32.494995
114 0 1 20.405737 -1.618798 32.537598
115 0 1 19.631140 -1.614888 33.070007
116 0 1 19.352537 -0.868847 32.538391
117 0 1 19.455740 -1.013176 31.604490
118 0 1 18.772238 -1.742806 31.834196
119 0 1 18.355238 -1.428727 31.041990
120 0 1 18.355940 -0.708767 30.383482
121 0 1 18.402540 -0.406216 29.469786
122 0 1 17.940237 0.253624 28.881498
123 0 1 18.236639 1.237705 28.885588
124 0 1 17.890039 2.086414 28.586912
125 0 1 18.711241 2.388183 29.084410
126 0 1 18.959738 3.325912 29.083891
127 0 1 18.643042 4.149364 28.656797
128 0 1 19.288542 4.785755 28.913786
129 0 1 18.805441 5.255714 29.573912
130 0 1 18.177439 5.903915 29.401884
131 0 1 18.892839 6.394912 29.911314
132 0 1 19.920637 6.177814 29.936705
133 0 1 19.658537 7.081214 29.919401
134 0 1 19.947737 7.964813 30.211912
135 0 1 18.980040 8.073814 30.369505
136 0 1 18.689337 8.741413 29.688688
137 0 1 19.320040 9.353313 29.442686
138 0 1 19.887239 10.118416 29.533995
139 0 1 20.324141 9.298412 29.341703
140 0 1 20.873037 9.377014 30.124601
141 0 1 21.073141 8.693714 30.775908
142 0 1 21.013037 8.957214 31.652891
143 0 1 21.615042 8.637814 32.280792
144 0 1 21.582239 8.031612 32.995789
145 0 1 20.803839 8.389614 33.591614
146 0 1 21.510839 8.739914 34.116089
147 0 1 21.736238 9.592014 34.476013
148 0 1 22.364439 10.300514 34.371307
149 0 1 23.197939 10.233315 33.894897
150 0 1 23.441339 10.737213 33.037811
151 0 1 23.424040 11.538815 32.542206
152 0 1 22.737539 11.974915 33.229187
153 0 1 23.237440 12.750916 32.774689
154 0 1 24.005640 13.359215 32.839203
155 0 1 24.187040 12.922813 33.670715
156 0 1 23.447638 13.518211 33.911102
157 0 1 23.618139 13.070713 34.746796
158 0 1 22.881941 12.776413 35.300201
159 0 1 22.354338 11.989815 35.058105
160 0 1 21.757639 12.300713 34.454895
161 0 1 20.970938 12.119415 35.152496
162 0 1 20.671740 12.976913 35.443390
163 0 1 20.443640 12.662613 36.251190
164 0 1 19.931738 13.048111 37.022308
165 0 1 19.054441 12.877613 36.622986
166 0 1 18.304239 12.377716 36.204590
167 0 1 18.477339 12.774414 35.366608
168 0 1 18.921537 13.178612 34.559204
169 0 1 18.703440 12.418312 33.975494
170 0 1 18.464338 13.208115 33.397888
171 0 1 17.757040 13.615513 32.939789
172 0 1 17.478842 13.960613 32.070892
173 0 1 16.662939 14.192116 32.484406
174 0 1 16.373339 13.370811 32.105408
175 0 1 15.391139 13.200111 32.039185
176 0 1 15.603839 12.259712 32.153107
177 0 1 15.690841 11.401814 31.700590
178 0 1 16.297438 11.617214 30.970701
179 0 1 16.892340 10.799713 30.772886
180 0 1 16.734838 10.076813 31.449492
181 0 1 15.875838 9.862713 31.064390
182 0 1 15.655639 9.077713 31.605803
183 0 1 14.744140 8.778713 31.644407
184 0 1 14.671939 9.446114 30.911802
185 0 1 14.908538 10.385113 31.186888
186 0 1 14.310538 10.425014 30.430601
187 0 1 13.444041 10.085312 30.369902
188 0 1 13.679141 9.226913 30.583189
189 0 1 14.289241 8.683914 30.053404
190 0 1 14.988441 9.205513 29.713194
191 0 1 15.453441 8.920315 28.906096
192 0 1 16.035337 8.474613 28.294706
193 0 1 15.361541 8.403015 27.634092
194 0 1 15.309840 9.216015 27.100004
195 0 1 15.186439 9.559715 28.012205
196 0 1 14.437942 10.171814 27.962187
197 0 1 14.763442 10.609215 27.107298
198 0 1 13.884139 10.960213 27.257902
199 0 1 13.272941 11.586716 27.604399
200 0 1 13.402339 12.101616 28.443785
201 0 1 12.678840 12.120613 29.083311
202 0 1 11.825042 11.824913 28.720488
203 0 1 12.230239 10.955513 28.497404
204 0 1 12.495040 10.337112 29.290312
205 0 1 12.111140 10.204113 30.180601
206 0 1 11.814342 9.844715 31.065489
207 0 1 11.629142 9.719913 32.020691
208 0 1 10.953792 10.272316 32.374908
209 0 1 10.782310 11.119415 32.898895
210 0 1 10.277041 11.695713 33.433411
211 0 1 10.367370 11.014214 34.059387
212 0 1 9.904330 10.541714 34.737091
213 0 1 9.329131 11.140816 35.187988
214 0 1 8.695540 10.825813 34.607788
215 0 1 8.677371 11.657616 34.154510
216 0 1 8.493781 12.217915 33.415405
217 0 1 8.154479 13.112411 33.449707
218 0 1 7.261000 12.782516 33.500000
219 0 1 6.905402 12.604313 34.391693
220 0 1 7.759081 13.099815 34.502106
221 0 1 8.236461 13.640514 35.212585
222 0 1 8.713222 13.353813 36.020905
223 0 1 8.761031 14.215614 36.551697
224 0 1 8.148398 13.552814 36.954010
225 0 1 7.699660 12.927315 36.377197
226 0 1 7.537100 11.921211 36.276398
227 0 1 6.764571 11.324013 36.317200
228 0 1 6.529860 10.801216 35.531403
229 0 1 5.640868 10.844913 35.262604
230 0 1 6.015940 9.873116 35.284790
231 0 1 5.377341 9.910213 35.942413
232 0 1 6.088091 10.267212 36.559296
233 0 1 5.826979 10.707912 37.367706
234 0 1 6.727511 10.744713 37.373413
235 0 1 7.355639 10.498714 36.658203
236 0 1 7.887961 10.498215 37.519592
237 0 1 8.799010 10.282013 37.540710
238 0 1 8.298091 9.430412 37.749084
239 0 1 9.239799 9.333214 38.056610
240 0 1 9.916961 8.725113 38.194885
241 0 1 10.244140 8.253212 37.422699
242 0 1 9.527530 7.836612 36.802399
243 0 1 9.652110 7.130313 37.457306
244 0 1 10.383620 6.817611 38.069092
245 0 1 11.216430 6.956413 38.428497
246 0 1 10.688190 7.391414 39.107697
247 0 1 11.035361 8.009415 39.753906
248 0 1 10.892341 8.625713 39.041595
249 0 1 11.109721 9.563114 38.960297
250 0 1 10.610061 10.234314 39.357605
251 0 1 11.394839 10.794014 39.599915
252 0 1 11.243339 11.181511 40.471588
253 0 1 11.815139 10.692314 41.123901
254 0 1 12.266341 10.637314 41.966309
255 0 1 12.390941 10.488815 42.933289
256 0 1 11.651038 10.226814 43.646484
257 0 1 10.701728 10.113914 43.676086
258 0 1 9.922889 9.928612 44.281006
259 0 1 9.855411 10.453316 45.149414
260 0 1 9.220920 9.679413 45.178589
261 0 1 8.549930 9.699512 44.535889
262 0 1 8.483329 8.766312 44.197510
263 0 1 8.308532 7.868812 44.565491
264 0 1 8.791282 8.031715 43.687012
265 0 1 8.360011 8.459213 42.928894
266 0 1 9.219989 8.521313 42.494293
267 0 1 10.011130 8.053116 42.424103
268 0 1 9.621551 7.181015 42.351196
269 0 1 8.814979 7.063514 41.827698
270 0 1 8.768962 6.104415 41.672211
271 0 1 8.514251 5.215213 41.278595
272 0 1 8.613200 5.076614 40.333496
273 0 1 8.398211 4.476444 39.649994
274 0 1 7.836531 4.117324 38.997803
275 0 1 6.987860 4.448326 39.062317
276 0 1 6.833529 3.482124 39.018402
277 0 1 7.175501 3.004463 39.811493
278 0 1 7.772509 3.268615 40.499084
279 0 1 7.734038 3.394805 41.441010
280 0 1 7.333811 2.514873 41.348907
281 0 1 7.751029 2.554855 42.258698
282 0 1 8.471702 2.561393 42.931213
283 0 1 8.792411 3.034355 43.666412
284 0 1 8.249782 2.428333 44.122498
285 0 1 7.946021 2.130695 44.968201
286 0 1 7.140349 1.727703 45.202301
287 0 1 6.255610 1.751545 44.744110
288 0 1 5.918799 0.853935 44.895111
289 0 1 5.103831 0.422271 44.745300
290 0 1 4.141341 0.460342 44.970001
291 0 1 3.450869 0.854114 45.470795
292 0 1 3.558360 1.629394 44.949585
293 0 1 3.307501 1.708645 43.994507
294 0 1 2.984641 0.805595 43.888184
295 0 1 3.125330 -0.104298 43.978607
296 0 1 4.092181 0.039272 44.002197
297 0 1 3.972270 -0.756318 43.434387
298 0 1 4.906809 -1.011208 43.245209
299 0 1 4.229769 -1.212036 42.503204
300 0 1 5.129740 -1.515728 42.248688
301 0 1 5.128340 -2.406136 41.785889
302 0 1 4.852820 -2.925007 42.547302
303 0 1 4.304121 -2.896927 43.275299
304 0 1 4.538191 -2.456887 44.151917
305 0 1 5.200579 -3.089097 44.368988
306 0 1 5.877158 -3.348595 43.726807
307 0 1 5.044730 -3.913167 43.557495
308 0 1 5.459490 -4.367398 44.290802
309 0 1 5.789198 -5.172303 43.934692
310 0 1 6.199111 -5.921696 44.356201
311 0 1 6.482779 -6.643576 43.726013
312 0 1 6.788821 -7.274636 44.389404
313 0 1 7.197550 -8.067007 44.181000
314 0 1 6.675150 -8.515676 43.539490
315 0 1 5.921271 -8.076536 43.988403
316 0 1 5.625632 -7.638297 44.790588
317 0 1 5.101431 -6.852047 44.792206
318 0 1 4.494608 -7.541487 44.464600
319 0 1 4.967150 -7.215876 43.660095
320 0 1 4.179591 -7.546317 43.359100
321 0 1 4.737238 -7.938656 42.683990
322 0 1 3.846400 -8.217127 42.402710
323 0 1 3.197340 -8.033546 41.686798
324 0 1 2.579400 -8.410946 41.036102
325 0 1 2.647330 -7.802866 40.251190
326 0 1 3.037428 -8.738445 40.115112
327 0 1 3.944651 -9.076817 40.351807
328 0 1 4.831439 -8.813486 39.940094
329 0 1 4.801230 -9.271736 39.103302
330 0 1 4.842459 -10.242626 38.661987
331 0 1 4.329211 -11.045496 38.489014
332 0 1 3.647028 -11.715916 38.647491
333 0 1 2.799679 -11.672426 38.222290
334 0 1 2.465189 -10.749346 38.188416
335 0 1 2.574400 -10.166206 37.490784
336 0 1 3.246169 -10.659697 36.923798
337 0 1 2.738030 -10.921516 36.124908
338 0 1 1.919009 -10.599766 35.774994
339 0 1 1.391591 -9.957287 36.301208
340 0 1 0.475468 -10.280756 36.266388
341 0 1 0.620471 -10.206745 37.249695
342 0 1 0.244309 -10.957157 37.750305
343 0 1 0.392026 -11.317566 38.656006
344 0 1 0.453110 -10.481617 38.966095
345 0 1 0.563191 -10.165367 39.863312
346 0 1 0.116910 -9.236595 39.824310
347 0 1 -0.138080 -8.739426 38.994110
348 0 1 0.721247 -8.588285 38.549713
349 0 1 0.742070 -8.974037 37.736694
350 0 1 1.276082 -9.015245 36.900513
351 0 1 1.269301 -8.061796 36.675903
352 0 1 1.844813 -7.192927 36.562683
353 0 1 1.806944 -7.214507 35.579010
354 0 1 1.783000 -6.327397 35.850189
355 0 1 2.112551 -5.643818 36.483490
356 0 1 1.158755 -5.692315 36.677612
357 0 1 0.451550 -5.272936 36.104706
358 0 1 0.418265 -4.697752 35.370789
359 0 1 1.218760 -4.574435 34.820404
360 0 1 1.817525 -3.848736 35.156403
361 0 1 1.532382 -3.068238 34.664093
362 0 1 0.926451 -3.597447 34.197601
363 0 1 0.188510 -3.958907 33.640198
364 0 1 -0.017280 -3.062386 33.509003
365 0 1 -0.163289 -3.511097 32.695190
366 0 1 -0.718641 -4.356543 32.614014
367 0 1 -0.923841 -4.897646 31.797300
368 0 1 -1.030971 -5.281731 30.903807
369 0 1 -1.315061 -5.054024 29.998808
370 0 1 -2.249259 -5.365033 30.359007
371 0 1 -2.538640 -5.401646 31.254393
372 0 1 -3.412920 -5.478081 31.694792
373 0 1 -3.358831 -4.732710 31.103910
374 0 1 -4.229909 -5.096097 30.867308
375 0 1 -4.211271 -5.894642 30.306700
376 0 1 -4.318799 -6.437197 31.122404
377 0 1 -4.045360 -6.319558 32.048584
378 0 1 -4.826290 -6.374356 32.562500
379 0 1 -5.184709 -5.824027 31.894804
380 0 1 -5.465700 -4.894965 31.796690
381 0 1 -6.331050 -4.744526 31.953489
382 0 1 -7.023941 -4.208575 31.552794
383 0 1 -6.509401 -4.366139 30.752897
384 0 1 -6.199220 -4.455800 29.849699
385 0 1 -6.949190 -5.014058 29.784483
386 0 1 -6.989650 -6.051623 29.578611
387 0 1 -7.773061 -5.504529 29.392912
388 0 1 -7.773580 -6.457707 29.194792
389 0 1 -7.404911 -6.571196 28.333891
390 0 1 -7.053892 -7.511326 28.226103
391 0 1 -6.685020 -7.913367 27.431395
392 0 1 -5.937431 -8.420046 27.776487
393 0 1 -5.510141 -8.191277 26.911192
394 0 1 -5.888660 -8.354376 26.046904
395 0 1 -5.886711 -7.836697 25.219694
396 0 1 -6.728370 -8.279236 25.031096
397 0 1 -6.606470 -9.184277 25.265684
398 0 1 -7.197561 -9.881166 25.351896
399 0 1 -7.112920 -10.821007 25.664701
400 0 1 -7.880670 -11.363386 25.579405
401 0 1 -8.566770 -11.868336 26.072996
402 0 1 -9.079360 -11.602856 26.855589
403 0 1 -9.969560 -11.969397 26.537504
404 0 1 -9.892159 -11.775146 27.451994
405 0 1 -10.448359 -12.605776 27.644712
406 0 1 -10.709960 -13.445465 28.025694
407 0 1 -11.177159 -14.286476 28.376188
408 0 1 -11.285760 -14.352057 27.433012
409 0 1 -10.783761 -15.158186 27.125090
410 0 1 -10.172660 -15.142487 26.387999
411 0 1 -9.260560 -14.875225 26.385588
412 0 1 -9.457360 -15.615585 25.779783
413 0 1 -8.600190 -15.996685 25.926603
414 0 1 -8.086999 -16.566986 26.424589
415 0 1 -7.336969 -17.082687 26.765409
416 0 1 -6.683120 -16.704887 27.312498
417 0 1 -6.569240 -17.581585 27.693510
418 0 1 -7.383939 -18.088886 28.030485
419 0 1 -7.163740 -18.914585 27.609495
420 0 1 -8.159680 -18.888885 27.702391
421 0 1 -7.854379 -18.403786 26.851500
422 0 1 -7.022401 -18.820686 26.472898
423 0 1 -6.074590 -18.554386 26.511290
424 0 1 -5.263940 -18.199886 26.210600
425 0 1 -5.934881 -17.461987 26.146788
426 0 1 -5.115680 -17.355486 25.684202
427 0 1 -4.798561 -16.390387 25.545103
428 0 1 -4.226270 -16.155586 26.278593
429 0 1 -5.015401 -15.633987 26.270597
430 0 1 -4.930070 -15.041687 25.495604
431 0 1 -4.599679 -14.510786 24.790098
432 0 1 -4.357070 -14.965487 23.931608
433 0 1 -5.141700 -14.392817 23.725706
434 0 1 -5.647520 -13.940536 24.402006
435 0 1 -6.046571 -13.024055 24.452085
436 0 1 -5.677831 -12.153807 24.594389
437 0 1 -5.223030 -12.265247 25.433195
438 0 1 -5.225061 -12.910517 26.170103
439 0 1 -4.815460 -13.866035 26.225584
440 0 1 -4.544611 -14.236116 27.020994
441 0 1 -5.111551 -13.520006 27.251310
442 0 1 -5.168960 -14.082855 28.091703
443 0 1 -4.998680 -14.869747 28.624693
444 0 1 -4.389749 -15.542885 28.337309
445 0 1 -4.112821 -15.820686 29.261106
446 0 1 -4.149841 -15.826786 30.224211
447 0 1 -5.076980 -15.695486 30.515501
448 0 1 -5.706920 -16.348385 30.027403
449 0 1 -6.629730 -16.149586 29.891691
450 0 1 -7.030141 -16.997387 30.146208
451 0 1 -7.403379 -16.646486 31.030088
452 0 1 -7.589050 -17.552887 31.158903
453 0 1 -8.370519 -17.515987 31.662291
454 0 1 -9.030961 -17.621986 30.913084
455 0 1 -9.637361 -17.087585 30.428190
456 0 1 -10.049459 -16.650387 29.675413
457 0 1 -10.740960 -16.866886 29.066008
458 0 1 -11.089860 -17.532085 29.683287
459 0 1 -11.680959 -17.540688 30.401182
460 0 1 -11.941960 -16.816486 29.746000
461 0 1 -12.044560 -15.856087 29.761992
462 0 1 -11.315061 -15.871887 30.349913
463 0 1 -11.268361 -16.429985 31.129210
464 0 1 -12.149961 -16.305586 30.825407
465 0 1 -12.870759 -16.796585 30.473814
466 0 1 -13.006761 -16.820087 29.506590
467 0 1 -13.556760 -16.018585 29.250700
468 0 1 -13.369260 -15.842087 28.299498
469 0 1 -13.392360 -14.926857 28.677794
470 0 1 -14.074860 -15.053738 29.315489
471 0 1 -13.178860 -15.043938 29.671598
472 0 1 -12.624360 -14.664316 30.458006
473 0 1 -12.206460 -13.806396 30.371000
474 0 1 -11.825459 -13.416737 29.549192
475 0 1 -11.108159 -12.991497 29.955198
476 0 1 -10.449460 -13.461636 29.430998
477 0 1 -9.781159 -13.812786 30.026182
478 0 1 -10.491158 -14.440678 29.945005
479 0 1 -10.183061 -14.966606 30.677305
480 0 1 -10.270959 -15.110586 31.637205
481 0 1 -11.047559 -14.560776 31.681211
482 0 1 -10.882459 -13.709776 31.176908
483 0 1 -10.195960 -13.182877 30.691404
484 0 1 -9.490460 -13.802177 31.090788
485 0 1 -9.033460 -13.124907 30.456297
486 0 1 -8.673360 -12.212715 30.552794
487 0 1 -9.118661 -12.354856 29.733702
488 0 1 -9.639060 -11.719467 29.284605
489 0 1 -10.227059 -10.966125 29.131010
490 0 1 -10.694661 -10.914576 28.312010
491 0 1 -11.149461 -10.642206 27.488188
492 0 1 -11.701959 -10.281576 26.807310
493 0 1 -12.542661 -10.639915 26.639097
494 0 1 -12.956861 -10.342997 25.791594
495 0 1 -13.066258 -9.443007 25.534391
496 0 1 -13.354259 -8.892847 24.849607
497 0 1 -14.129060 -8.226357 24.643095
498 0 1 -14.895560 -8.310116 25.226194
499 0 1 -15.798760 -8.682405 25.364103
500 0 1 -15.436160 -8.413336 26.227995
501 0 1 -15.226359 -7.493348 26.429899
502 0 1 -14.842360 -7.985608 27.147703
503 0 1 -14.349860 -8.230627 27.933805
504 0 1 -13.967060 -7.812956 28.823698
505 0 1 -14.698760 -8.001026 29.406004
506 0 1 -15.520360 -8.242527 28.890684
507 0 1 -16.156460 -7.794907 29.432096
508 0 1 -16.348461 -6.881827 29.263395
509 0 1 -15.764159 -7.099476 28.481688
510 0 1 -16.439260 -7.291836 27.887999
511 0 1 -17.074560 -6.979897 27.324308
512 0 1 -17.823261 -7.615126 27.524199
513 0 1 -18.498661 -6.975617 27.326689
514 0 1 -18.767561 -6.698018 26.464384
515 0 1 -19.197161 -6.890347 25.633696
516 0 1 -19.684660 -6.518206 24.908506
517 0 1 -20.392460 -5.973673 25.203306
518 0 1 -21.111160 -6.580437 25.361784
519 0 1 -20.887060 -7.514597 25.329496
520 0 1 -21.652460 -8.011227 25.397398
521 0 1 -21.808762 -7.770337 26.380186
522 0 1 -20.952761 -8.171776 26.575407
523 0 1 -20.199360 -7.676528 26.781187
524 0 1 -20.830360 -7.498217 27.406492
525 0 1 -21.006762 -6.594227 27.531706
526 0 1 -21.230961 -5.771267 27.068693
527 0 1 -20.505461 -5.088305 26.774900
528 0 1 -21.024660 -5.010514 25.932402
529 0 1 -21.587160 -4.282322 26.222807
530 0 1 -20.824862 -3.690728 26.432188
531 0 1 -21.348360 -2.947926 26.166105
532 0 1 -20.978060 -2.844246 25.318113
533 0 1 -20.301161 -2.265156 25.684507
534 0 1 -20.018360 -2.489785 26.592985
535 0 1 -19.206560 -1.890118 26.849791
536 0 1 -18.793261 -1.210137 27.295103
537 0 1 -19.322460 -0.454167 27.598692
538 0 1 -19.615061 0.309112 28.170805
539 0 1 -18.829660 0.969925 28.102385
540 0 1 -18.646660 0.925212 27.209806
541 0 1 -18.514961 0.993225 26.260099
542 0 1 -17.733561 1.386013 25.834196
543 0 1 -17.182961 1.311134 25.082701
544 0 1 -17.633961 1.926464 24.469603
545 0 1 -18.254160 2.623004 24.509611
546 0 1 -19.049061 3.172966 24.325193
547 0 1 -18.566261 3.004684 23.499083
548 0 1 -18.265760 2.434932 22.817411
549 0 1 -18.912861 2.741432 22.239897
550 0 1 -18.869061 1.853923 21.946898
551 0 1 -18.035961 1.218612 21.938002
552 0 1 -17.935261 2.254684 21.725599
553 0 1 -17.996262 2.744625 20.909391
554 0 1 -17.313261 2.418392 20.237196
555 0 1 -16.406460 2.782833 20.327604
556 0 1 -16.002960 2.292083 19.556700
557 0 1 -15.357360 1.856632 20.192701
558 0 1 -14.577360 2.415523 20.338591
559 0 1 -13.868159 2.765972 20.924604
560 0 1 -13.070260 2.443275 21.347197
561 0 1 -12.424459 2.873695 21.887495
562 0 1 -12.461759 2.200775 22.560698
563 0 1 -11.945560 1.399421 22.791807
564 0 1 -11.233960 1.519313 22.137403
565 0 1 -10.653161 1.782993 22.856810
566 0 1 -10.889661 0.878944 23.048704
567 0 1 -11.008561 1.104862 23.996397
568 0 1 -10.555959 1.941833 23.818693
569 0 1 -10.513959 2.783222 24.253386
570 0 1 -10.162660 3.545223 24.696104
571 0 1 -10.342460 3.701355 23.774900
572 0 1 -10.739560 4.508884 23.981901
573 0 1 -10.561460 4.911415 23.107512
574 0 1 -10.165360 5.639614 22.767698
575 0 1 -9.269860 5.929214 23.046598
576 0 1 -8.551770 5.902412 22.421690
577 0 1 -8.531129 5.033515 22.005293
578 0 1 -9.484260 5.327213 21.990400
579 0 1 -9.915160 5.241111 21.119703
580 0 1 -9.821359 5.830013 20.401899
581 0 1 -9.653859 6.424812 19.678694
582 0 1 -10.370358 6.807014 19.111204
583 0 1 -10.620259 7.064914 20.018705
584 0 1 -11.457860 7.545112 20.180998
585 0 1 -11.813060 6.702911 19.900999
586 0 1 -12.526559 6.346214 19.418104
587 0 1 -11.801459 5.787513 19.225492
588 0 1 -11.567960 5.246513 19.980299
589 0 1 -12.225659 4.505065 20.237196
590 0 1 -11.788560 4.797534 21.057890
591 0 1 -10.899859 4.866935 21.459990
592 0 1 -10.736959 4.692913 20.522306
593 0 1 -11.047460 4.052265 19.938093
594 0 1 -10.445359 3.352634 20.357801
595 0 1 -9.911660 4.113304 19.946104
596 0 1 -9.154460 4.825084 20.127394
597 0 1 -8.195060 4.793235 19.905897
598 0 1 -7.461071 4.179843 19.845503
599 0 1 -7.292961 5.157012 19.585493
600 0 1 -7.597890 5.984313 19.056898
601 0 1 -7.625850 6.945213 19.306395
602 0 1 -6.748762 7.053115 18.909300
603 0 1 -6.721130 6.551712 19.712294
604 0 1 -7.054842 7.030311 20.470396
605 0 1 -7.777551 7.155414 21.165007
606 0 1 -8.547589 7.568115 21.003599
607 0 1 -9.027860 8.356316 21.490797
608 0 1 -8.330258 9.043816 21.262602
609 0 1 -8.033319 9.619316 21.920500
610 0 1 -7.357759 10.317612 22.208494
611 0 1 -7.931821 10.615814 22.950499
612 0 1 -8.736560 11.243214 22.957609
613 0 1 -8.139239 11.450111 23.619291
614 0 1 -7.863750 10.690315 24.179014
615 0 1 -8.233600 10.754913 25.094694
616 0 1 -7.752271 11.555714 24.821409
617 0 1 -7.521921 12.491211 24.922789
618 0 1 -8.398068 12.666615 25.257505
619 0 1 -9.097760 12.022812 24.969114
620 0 1 -9.508859 12.818115 24.566008
621 0 1 -10.346360 12.744114 24.176786
622 0 1 -10.727860 12.101315 24.781889
623 0 1 -11.619359 12.218712 25.090300
624 0 1 -11.577060 11.572815 24.359892
625 0 1 -12.287961 11.307411 24.993986
626 0 1 -12.855260 10.507812 24.940489
627 0 1 -13.628560 10.588215 24.334990
628 0 1 -13.863359 11.466515 24.120512
629 0 1 -14.259459 12.171413 24.637785
630 0 1 -15.190459 12.206017 24.937193
631 0 1 -14.705461 11.991714 25.709501
632 0 1 -15.016759 12.315014 26.580687
633 0 1 -14.422060 12.191216 27.341703
634 0 1 -14.369260 13.096115 27.536009
635 0 1 -13.828360 13.083115 26.776091
636 0 1 -13.133859 13.680714 27.107603
637 0 1 -13.313260 14.396614 27.753904
638 0 1 -12.613160 15.052513 28.040403
639 0 1 -12.266358 15.285316 27.146788
640 0 1 -11.639958 15.488914 26.482512
641 0 1 -11.900060 15.664013 25.538511
642 0 1 -10.950860 15.725815 25.754484
643 0 1 -10.027261 15.871712 25.703184
644 0 1 -9.966060 16.846512 25.293394
645 0 1 -9.752860 17.799614 25.320494
646 0 1 -8.972260 18.377113 25.028990
647 0 1 -8.215051 17.863815 25.131193
648 0 1 -7.625200 18.678215 25.098906
649 0 1 -7.180959 18.596413 24.220793
650 0 1 -7.392690 18.361015 23.263914
651 0 1 -7.113599 18.346916 22.275206
652 0 1 -7.948061 18.833214 22.281599
653 0 1 -8.459088 18.951912 21.445890
654 0 1 -8.247930 18.985313 20.508604
655 0 1 -8.211850 19.331314 19.576002
656 0 1 -8.084050 20.253414 19.654600
657 0 1 -7.707181 21.012016 20.052000
658 0 1 -7.313989 20.590416 20.845304
659 0 1 -7.126831 20.037914 21.665297
660 0 1 -6.855230 19.124016 21.322798
661 0 1 -6.131191 19.703613 21.607206
662 0 1 -6.119161 20.531815 21.175596
663 0 1 -5.579191 20.958614 21.752195
664 0 1 -4.952680 21.638615 21.794096
665 0 1 -4.819730 22.344711 21.199598
666 0 1 -4.114049 21.842915 20.799803
667 0 1 -3.407871 21.309616 21.199400
668 0 1 -2.946970 21.207115 22.067198
669 0 1 -3.023019 20.365513 21.635801
670 0 1 -3.484760 19.940113 20.867491
671 0 1 -3.017311 20.032112 20.064497
672 0 1 -3.139560 19.574516 19.212599
673 0 1 -3.024440 19.487915 18.250395
674 0 1 -2.554170 18.639915 18.145704
675 0 1 -2.396640 18.849613 17.158506
676 0 1 -2.527620 19.784515 17.328505
677 0 1 -3.390350 19.956413 16.754301
678 0 1 -3.072690 19.354614 16.094694
679 0 1 -2.163249 19.375015 15.878997
680 0 1 -1.870071 20.189812 15.467895
681 0 1 -0.896650 20.397713 15.561904
682 0 1 -0.194961 19.695713 15.607497
683 0 1 -0.150291 19.654514 14.621703
684 0 1 -0.907430 19.071613 14.583800
685 0 1 -1.595970 19.014015 13.888091
686 0 1 -1.029809 18.338413 13.468795
687 0 1 -1.163820 18.882713 12.680495
688 0 1 -1.604501 18.383911 12.004500
689 0 1 -2.209650 18.082714 11.355605
690 0 1 -1.801530 18.080914 10.531997
691 0 1 -2.719129 17.782715 10.452392
692 0 1 -3.354770 18.427914 10.608596
693 0 1 -3.708551 18.896214 11.345901
694 0 1 -4.336881 18.130413 11.517303
695 0 1 -5.172960 18.279015 11.100493
696 0 1 -6.039131 18.108814 10.818603
697 0 1 -6.811611 18.465214 11.317199
698 0 1 -7.219461 17.655415 11.306396
699 0 1 -6.687879 16.843216 11.562301
700 0 1 -5.965631 17.362411 11.953704
701 0 1 -5.110500 17.042114 11.659499
702 0 1 -5.158380 16.079315 12.048491
703 0 1 -5.199790 15.103111 11.698195
704 0 1 -4.277561 15.304214 11.954604
705 0 1 -3.671800 15.450111 12.684600
706 0 1 -3.132810 14.798214 12.252700
707 0 1 -2.939861 13.822212 12.204803
708 0 1 -2.165740 13.708614 12.865691
709 0 1 -2.358181 14.347816 13.552001
710 0 1 -2.513669 15.289711 13.507094
711 0 1 -2.994051 15.324013 14.327498
712 0 1 -3.154981 14.471512 14.816405
713 0 1 -3.430341 14.077713 15.640395
714 0 1 -2.560890 13.516613 15.608306
715 0 1 -1.765781 14.036613 15.481795
716 0 1 -1.850259 14.632912 16.246794
717 0 1 -0.903989 14.869011 16.178297
718 0 1 -0.193521 15.473614 16.075590
719 0 1 -0.446241 16.452011 16.263090
720 0 1 -1.280610 16.221611 16.627195
721 0 1 -0.678090 16.332413 17.445890
722 0 1 -0.098541 16.635414 18.198393
723 0 1 0.158610 15.743713 18.437101
724 0 1 -0.058959 15.010216 17.768293
725 0 1 0.495368 14.233612 18.128004
726 0 1 -0.173490 13.831413 18.680494
727 0 1 -0.837119 14.483814 18.467100
728 0 1 -1.550170 13.935913 18.204496
729 0 1 -1.833949 13.307514 17.492201
730 0 1 -0.856710 13.461815 17.564695
731 0 1 -0.148811 12.960716 18.065992
732 0 1 -0.353370 12.393517 17.288694
733 0 1 0.112059 11.499413 17.296095
734 0 1 -0.652370 11.239014 16.719297
735 0 1 -1.596891 11.107113 16.463591
736 0 1 -2.292819 11.074112 15.886397
737 0 1 -2.523210 10.185513 16.214705
738 0 1 -3.219820 10.621315 16.712599
739 0 1 -4.025480 10.237015 16.519194
740 0 1 -3.643831 9.442513 16.992201
741 0 1 -3.552740 9.088112 17.913298
742 0 1 -2.846740 9.424015 18.587202
743 0 1 -2.372751 9.447716 19.414793
744 0 1 -1.727439 10.126213 19.042097
745 0 1 -1.464370 9.613514 19.874098
746 0 1 -1.390500 9.991615 20.752806
747 0 1 -0.515359 9.522415 20.783094
748 0 1 -0.116741 9.188015 19.981398
749 0 1 0.828890 8.950714 19.911100
750 0 1 0.910199 8.683514 18.984404
751 0 1 1.137961 9.535313 18.691099
752 0 1 0.613694 10.018913 19.295805
753 0 1 0.479359 10.515411 18.422606
754 0 1 0.828303 10.702312 17.559690
755 0 1 1.395253 11.434013 17.521299
756 0 1 2.254469 10.979912 17.757994
757 0 1 2.553900 11.155815 16.900602
758 0 1 3.323561 10.826515 17.362593
759 0 1 2.693249 10.012714 17.290892
760 0 1 2.958189 9.164314 16.975904
761 0 1 2.289900 8.449413 17.186003
762 0 1 1.975571 8.561314 16.217604
763 0 1 2.337447 8.567116 15.318404
764 0 1 3.095770 8.476013 14.754394
765 0 1 2.795239 9.360714 14.459792
766 0 1 2.434489 9.154415 13.651305
767 0 1 1.509606 9.169312 13.488906
768 0 1 0.912135 8.685413 14.118606
769 0 1 1.279282 8.994812 15.013091
770 0 1 1.172930 9.959312 15.251693
771 0 1 1.656119 10.756313 15.176604
772 0 1 1.622058 11.138313 16.094603
773 0 1 1.910205 11.979912 15.829497
774 0 1 0.950677 11.929314 15.879806
775 0 1 0.361649 11.259613 15.591399
776 0 1 -0.580100 11.353012 15.651595
777 0 1 -0.940601 10.502815 15.594802
778 0 1 -0.901630 10.204216 14.667098
779 0 1 -1.902480 9.947311 14.523894
780 0 1 -2.231920 10.838013 14.294692
781 0 1 -1.959430 10.654213 13.363799
782 0 1 -1.333511 10.111313 12.884093
783 0 1 -1.279760 10.448914 11.996398
784 0 1 -0.583591 9.859413 12.266006