LAMMPS data file via MDAnalysis

        2000  atoms
        1999  bonds
           0  angles
           0  dihedrals
           0  impropers

           1  atom types
           1  bond types
           0  angle types
           0  dihedral types
           0  improper types

-30.5 30.5 xlo xhi
-30.5 30.5 ylo yhi
-233.5 233.5 zlo zhi


Masses

1 1.000000

Atoms

1 0 1 6.473926 18.472792 48.868896
2 0 1 5.821677 17.765890 48.552002
3 0 1 6.086356 17.703489 47.593994
4 0 1 5.168975 17.875792 47.301300
5 0 1 4.434867 17.691893 47.903198
6 0 1 3.950045 16.869291 47.699890
7 0 1 3.758277 15.967292 47.300812
8 0 1 2.953376 16.154791 46.868713
9 0 1 2.053397 16.390188 46.741211
10 0 1 1.507464 17.226789 46.724915
11 0 1 0.865287 17.747290 46.200012
12 0 1 1.741546 17.907091 45.857300
13 0 1 2.620517 18.003691 46.297699
14 0 1 2.626376 17.623892 45.452209
15 0 1 2.367427 18.524290 45.108704
16 0 1 3.275077 18.832491 44.954590
17 0 1 3.927954 18.477392 45.506500
18 0 1 4.106036 19.314093 45.993896
19 0 1 4.865546 19.694189 45.457886
20 0 1 4.782348 20.627691 45.896088
21 0 1 3.810046 20.760191 45.930908
22 0 1 4.132766 21.364492 45.306488
23 0 1 4.286025 22.002691 46.016205
24 0 1 4.246837 22.536291 46.894592
25 0 1 4.562316 23.048193 47.654510
26 0 1 3.785266 23.054388 48.167786
27 0 1 2.802497 22.725191 48.265808
28 0 1 2.036875 23.234591 47.977203
29 0 1 1.128226 22.996290 48.017517
30 0 1 1.343966 23.220190 48.973083
31 0 1 1.053138 23.636488 49.781494
32 0 1 0.180386 23.476191 49.358612
33 0 1 -0.511466 23.868193 48.746399
34 0 1 -0.793651 24.073393 49.652893
35 0 1 -1.426614 24.793489 49.384094
36 0 1 -1.920055 24.078489 48.854797
37 0 1 -2.045320 24.720091 48.114990
38 0 1 -1.970416 25.665792 48.402588
39 0 1 -1.434415 25.979490 49.142212
40 0 1 -2.331874 26.411890 49.038910
41 0 1 -2.957105 26.506590 48.319214
42 0 1 -3.973495 26.312590 48.295197
43 0 1 -4.926015 26.208391 48.141388
44 0 1 -5.157285 27.094191 48.439301
45 0 1 -4.366565 27.338591 47.957703
46 0 1 -3.911124 28.255491 47.996399
47 0 1 -3.047805 27.912992 48.053802
48 0 1 -2.819545 28.031691 47.160889
49 0 1 -3.633014 27.651091 46.705109
50 0 1 -3.012954 26.943590 46.341003
51 0 1 -2.827214 26.170492 45.807709
52 0 1 -2.918924 25.197088 45.781891
53 0 1 -3.676715 24.626890 46.044189
54 0 1 -4.580853 24.987791 46.066589
55 0 1 -3.966455 25.505491 45.462006
56 0 1 -4.803924 25.833090 45.011200
57 0 1 -5.580194 25.369993 45.382812
58 0 1 -6.361035 25.931089 45.376801
59 0 1 -6.109284 26.864790 45.168884
60 0 1 -5.984555 26.759390 46.128998
61 0 1 -5.875825 26.055891 46.739899
62 0 1 -6.838895 25.937689 46.747101
63 0 1 -7.452443 26.625891 46.623810
64 0 1 -8.261624 26.652388 47.113708
65 0 1 -8.848775 26.241491 47.746399
66 0 1 -8.695174 25.947191 48.616211
67 0 1 -8.653724 25.832590 49.549103
68 0 1 -8.592385 24.948088 49.134491
69 0 1 -8.752185 24.805792 50.060486
70 0 1 -8.936484 24.002691 50.615906
71 0 1 -8.857755 23.212393 50.055908
72 0 1 -8.374904 22.480490 49.579102
73 0 1 -7.816295 22.735891 50.310486
74 0 1 -7.981704 22.498590 51.275299
75 0 1 -8.699784 22.326689 52.059998
76 0 1 -8.928205 21.624388 51.403107
77 0 1 -9.618493 21.339888 52.028809
78 0 1 -9.689755 20.642088 51.308807
79 0 1 -10.060954 19.702291 51.337097
80 0 1 -9.839093 18.769690 51.469116
81 0 1 -8.970374 18.929590 51.276184
82 0 1 -8.639705 19.312788 52.115906
83 0 1 -7.941745 19.277792 52.858704
84 0 1 -7.722684 18.383291 52.690704
85 0 1 -7.102475 18.118193 52.015991
86 0 1 -6.132203 18.040190 52.243805
87 0 1 -5.261714 18.303488 51.953491
88 0 1 -4.636724 19.067488 52.088593
89 0 1 -3.980724 18.799990 51.432892
90 0 1 -3.687745 18.075590 50.882996
91 0 1 -3.382844 17.199091 51.268097
92 0 1 -2.473954 16.934092 51.226013
93 0 1 -1.876763 16.192289 51.165192
94 0 1 -2.561784 15.662490 50.872009
95 0 1 -2.080091 14.817691 50.998596
96 0 1 -2.609155 14.141292 51.461212
97 0 1 -1.888141 14.073993 52.097198
98 0 1 -2.061694 14.876491 52.637695
99 0 1 -2.234155 15.617690 53.265198
100 0 1 -2.186263 15.032889 54.032410
101 0 1 -1.585874 14.483592 54.568787
102 0 1 -2.309045 13.874793 54.660889
103 0 1 -2.547944 13.003390 55.089203
104 0 1 -3.476564 12.922091 54.973511
105 0 1 -3.539554 13.581290 55.604492
106 0 1 -3.521484 13.139491 56.434509
107 0 1 -4.252934 12.851394 57.010406
108 0 1 -3.920594 12.140903 56.405884
109 0 1 -4.818534 11.877471 56.811310
110 0 1 -4.579595 11.096824 56.365601
111 0 1 -4.965693 11.536162 55.608795
112 0 1 -4.819274 12.008250 54.791992
113 0 1 -5.447785 11.773704 54.069214
114 0 1 -5.746364 10.957313 54.442505
115 0 1 -4.783364 10.629912 54.186188
116 0 1 -4.184184 10.980193 53.530304
117 0 1 -3.744624 10.830321 54.328400
118 0 1 -3.750495 11.550643 55.022003
119 0 1 -3.090204 11.888793 55.661896
120 0 1 -2.592864 11.104239 55.323700
121 0 1 -2.175260 10.294341 55.705383
122 0 1 -2.988414 9.829650 56.249298
123 0 1 -2.790765 9.329040 55.446594
124 0 1 -2.254535 9.178790 54.692413
125 0 1 -1.776311 8.952292 53.857208
126 0 1 -1.166658 8.819243 53.172211
127 0 1 -0.245490 8.637431 53.318512
128 0 1 0.564124 8.366523 52.790894
129 0 1 1.382064 8.858970 52.378296
130 0 1 2.265456 8.670260 52.105103
131 0 1 2.775885 7.991103 52.738190
132 0 1 2.234706 7.280882 52.280396
133 0 1 2.280265 6.469470 52.866699
134 0 1 2.678584 5.730990 53.352509
135 0 1 2.006045 5.700961 53.960602
136 0 1 1.491004 6.477572 54.319397
137 0 1 1.847545 6.968432 55.005890
138 0 1 1.834044 7.460070 55.841797
139 0 1 1.522857 8.229770 55.471893
140 0 1 0.820617 7.595191 55.258209
141 0 1 -0.067735 7.834090 55.063812
142 0 1 -0.964729 7.604239 54.938416
143 0 1 -1.035312 8.131949 54.103912
144 0 1 -1.906547 7.901072 54.385712
145 0 1 -1.978742 6.936423 54.071411
146 0 1 -1.897121 6.098662 54.645111
147 0 1 -2.466024 6.751582 55.057983
148 0 1 -2.605655 6.414073 55.943512
149 0 1 -2.821094 6.721079 56.866791
150 0 1 -2.227155 7.340472 57.199310
151 0 1 -2.640704 7.269049 58.115784
152 0 1 -3.421495 7.281561 58.700684
153 0 1 -3.140365 6.434229 58.225494
154 0 1 -3.544074 6.071620 59.053497
155 0 1 -3.323594 5.347601 58.504913
156 0 1 -4.161355 4.965079 57.973907
157 0 1 -3.879995 4.121970 57.448700
158 0 1 -4.181544 3.458451 56.793396
159 0 1 -3.523494 2.715138 56.967804
160 0 1 -3.082195 3.229170 56.277802
161 0 1 -3.463495 3.241662 55.402191
162 0 1 -3.509574 3.783000 54.692413
163 0 1 -4.200753 4.471949 54.737091
164 0 1 -4.247294 5.345973 54.293304
165 0 1 -4.503024 6.246809 54.085205
166 0 1 -3.776654 6.512431 54.576691
167 0 1 -3.950834 7.012812 53.775696
168 0 1 -4.004024 6.784850 52.783600
169 0 1 -3.775035 6.227602 51.968292
170 0 1 -4.384315 6.830679 51.523712
171 0 1 -4.757304 6.280051 50.831116
172 0 1 -4.328753 5.385100 50.994202
173 0 1 -3.425714 5.157839 50.646912
174 0 1 -2.757215 4.839789 51.273315
175 0 1 -2.207454 4.094012 51.545715
176 0 1 -2.571954 3.152972 51.522400
177 0 1 -1.762004 2.703669 51.199402
178 0 1 -2.462285 2.134808 50.944092
179 0 1 -1.871650 1.461136 51.287689
180 0 1 -2.015880 1.286196 52.227997
181 0 1 -1.587539 1.380849 53.112701
182 0 1 -0.807679 1.563429 53.579712
183 0 1 0.010955 1.289885 53.239014
184 0 1 0.360274 0.416291 52.899506
185 0 1 1.257735 0.167740 52.819702
186 0 1 2.145907 -0.080789 53.030792
187 0 1 2.006156 -0.269859 51.962891
188 0 1 1.863807 -1.098939 52.394196
189 0 1 2.729396 -1.355579 52.644104
190 0 1 2.788676 -1.257768 51.733795
191 0 1 3.135005 -1.305089 50.850098
192 0 1 3.470694 -1.980508 50.255890
193 0 1 2.813536 -2.553430 50.600708
194 0 1 2.819674 -3.508049 50.451691
195 0 1 3.585387 -3.611749 51.029785
196 0 1 3.945815 -3.922069 51.888092
197 0 1 4.571555 -4.482419 52.403412
198 0 1 4.167525 -5.348400 52.174408
199 0 1 3.415404 -5.572549 51.649200
200 0 1 2.577506 -5.619588 51.968597
201 0 1 1.617186 -5.943880 52.026794
202 0 1 1.329936 -6.401430 52.782593
203 0 1 1.490077 -6.498579 53.724792
204 0 1 1.495036 -7.383920 53.286987
205 0 1 2.090167 -8.087308 52.899902
206 0 1 2.533366 -8.591809 52.171509
207 0 1 1.723994 -9.102208 52.019989
208 0 1 1.176906 -9.322309 52.791412
209 0 1 0.955916 -8.457009 53.050293
210 0 1 0.268065 -8.603608 53.644104
211 0 1 0.752024 -9.382709 53.976196
212 0 1 1.637366 -9.375310 53.687897
213 0 1 2.439814 -9.218907 54.145691
214 0 1 2.853034 -9.909009 54.649414
215 0 1 3.000434 -9.267709 55.379791
216 0 1 3.363845 -8.385909 55.174316
217 0 1 4.254287 -7.994909 55.363892
218 0 1 4.221606 -7.657838 56.288086
219 0 1 4.295276 -8.631108 56.420105
220 0 1 4.767516 -8.272008 57.190308
221 0 1 4.839095 -8.091710 58.139191
222 0 1 5.657454 -8.622510 57.977600
223 0 1 5.581935 -8.627709 58.945984
224 0 1 6.063346 -8.057809 59.590210
225 0 1 5.534225 -8.472009 60.243103
226 0 1 4.757155 -8.265710 60.849091
227 0 1 3.961627 -7.849109 60.548492
228 0 1 3.049796 -7.801698 60.230804
229 0 1 2.101317 -7.522508 60.565399
230 0 1 2.079184 -7.041368 59.704193
231 0 1 2.615866 -6.468429 60.304688
232 0 1 2.546874 -5.900169 59.518707
233 0 1 1.966586 -5.164110 59.681610
234 0 1 1.835204 -4.840829 60.627686
235 0 1 1.659076 -4.183580 61.339996
236 0 1 1.408404 -4.261968 62.254395
237 0 1 0.632266 -4.301809 61.746887
238 0 1 0.194466 -3.496549 61.991516
239 0 1 -0.060294 -3.411050 62.934113
240 0 1 0.353114 -2.713140 63.478912
241 0 1 -0.343166 -2.635250 64.096802
242 0 1 -0.859855 -2.828989 64.900085
243 0 1 -1.137065 -3.620309 64.522308
244 0 1 -2.032291 -3.430158 64.726807
245 0 1 -1.993823 -3.325128 63.714813
246 0 1 -2.804614 -3.754879 64.172089
247 0 1 -3.564824 -3.678060 64.739410
248 0 1 -3.063045 -3.844820 65.616394
249 0 1 -2.946985 -3.109659 66.289795
250 0 1 -3.294484 -3.574548 67.043884
251 0 1 -3.742574 -4.150678 66.286804
252 0 1 -4.341914 -4.850929 66.577698
253 0 1 -4.490714 -5.493429 65.773804
254 0 1 -5.048635 -6.314529 65.843201
255 0 1 -5.525495 -5.700010 66.479401
256 0 1 -6.243005 -5.340650 66.016693
257 0 1 -7.147115 -5.323190 66.393188
258 0 1 -6.660724 -6.121379 66.738403
259 0 1 -6.016845 -6.515239 66.120789
260 0 1 -6.564935 -6.151659 65.371399
261 0 1 -5.653415 -5.972330 65.067017
262 0 1 -5.509654 -5.871299 64.119995
263 0 1 -4.556264 -5.725299 64.181885
264 0 1 -3.976064 -4.999479 63.791809
265 0 1 -4.510324 -4.298259 64.138306
266 0 1 -4.194705 -3.592420 63.537598
267 0 1 -4.142144 -3.274160 62.680206
268 0 1 -4.294484 -4.025110 62.105286
269 0 1 -3.431464 -3.906530 61.729797
270 0 1 -3.830194 -3.345390 61.110809
271 0 1 -3.435184 -2.614858 61.595306
272 0 1 -2.975744 -1.869949 61.206390
273 0 1 -2.730645 -2.207380 60.317993
274 0 1 -2.000499 -2.822900 60.602509
275 0 1 -2.063808 -3.863969 60.678192
276 0 1 -2.747285 -4.623140 60.798401
277 0 1 -2.184386 -5.399599 60.776093
278 0 1 -2.347863 -6.311239 61.014191
279 0 1 -3.016664 -6.890939 61.351288
280 0 1 -3.496095 -6.633859 60.573212
281 0 1 -3.175985 -6.861478 59.653198
282 0 1 -2.225635 -6.640348 59.786804
283 0 1 -2.234285 -7.092660 58.949890
284 0 1 -2.949815 -7.723409 58.704010
285 0 1 -3.042724 -8.524009 58.127502
286 0 1 -3.303584 -9.183908 58.749817
287 0 1 -3.870654 -9.941209 58.443207
288 0 1 -4.336555 -10.655210 58.070312
289 0 1 -5.203115 -10.493810 58.515808
290 0 1 -5.974494 -10.170508 57.920410
291 0 1 -6.947915 -10.024808 58.123413
292 0 1 -7.454503 -9.296409 58.410309
293 0 1 -6.511474 -8.987710 58.355011
294 0 1 -5.531915 -8.735808 58.248596
295 0 1 -5.614663 -8.058209 58.890808
296 0 1 -5.764554 -7.138149 58.557709
297 0 1 -5.547135 -6.654739 59.316803
298 0 1 -4.863555 -6.569219 60.076508
299 0 1 -4.083774 -5.938789 59.991302
300 0 1 -4.321565 -5.609289 59.116699
301 0 1 -5.199685 -5.716850 58.764587
302 0 1 -5.709664 -5.464868 58.029205
303 0 1 -6.382224 -5.786829 57.442017
304 0 1 -6.504514 -5.976320 56.557800
305 0 1 -6.421563 -5.650800 55.636108
306 0 1 -5.891953 -5.360429 54.932495
307 0 1 -5.282245 -5.571479 54.218384
308 0 1 -4.669484 -4.961010 54.572815
309 0 1 -3.851655 -4.980600 54.136505
310 0 1 -3.059104 -5.494998 53.835297
311 0 1 -3.072175 -6.069870 54.657196
312 0 1 -2.422094 -5.773569 55.276489
313 0 1 -1.553844 -6.132659 55.023987
314 0 1 -0.779418 -5.556659 55.131805
315 0 1 -0.715228 -5.953760 54.260986
316 0 1 -1.228290 -6.625429 53.711395
317 0 1 -0.640798 -7.412168 53.744385
318 0 1 -1.404899 -7.725219 53.220490
319 0 1 -2.196855 -7.162879 53.395905
320 0 1 -2.429794 -7.202379 52.481903
321 0 1 -1.901273 -7.808889 52.002197
322 0 1 -2.225324 -7.503038 51.155609
323 0 1 -1.994399 -6.853590 50.485504
324 0 1 -1.402110 -7.616251 50.490692
325 0 1 -0.461288 -7.530839 50.837189
326 0 1 -0.058345 -7.686609 49.935089
327 0 1 0.852786 -7.758100 49.812012
328 0 1 0.903617 -8.464410 49.244995
329 0 1 0.301385 -9.259007 49.349792
330 0 1 -0.261903 -8.467809 49.187103
331 0 1 -0.860305 -9.215810 49.242096
332 0 1 -1.710199 -9.342109 49.787903
333 0 1 -2.240125 -8.841809 50.384308
334 0 1 -2.645404 -9.231908 49.611298
335 0 1 -3.175714 -10.008409 49.887299
336 0 1 -4.011834 -10.263509 50.286407
337 0 1 -3.995004 -9.340909 50.192688
338 0 1 -4.410304 -8.774808 50.823212
339 0 1 -4.292785 -7.799608 50.491699
340 0 1 -4.453774 -7.980711 49.575897
341 0 1 -4.936225 -7.262708 49.164917
342 0 1 -4.540793 -7.127849 48.273010
343 0 1 -3.666784 -6.844598 47.987000
344 0 1 -2.736705 -6.532300 48.093109
345 0 1 -2.844075 -5.692230 47.730988
346 0 1 -3.428144 -5.576028 46.998810
347 0 1 -4.249534 -5.127168 46.839294
348 0 1 -3.934804 -5.297079 45.970703
349 0 1 -3.829084 -6.255039 46.333099
350 0 1 -3.505143 -6.237239 45.456512
351 0 1 -3.172954 -7.150039 45.182800
352 0 1 -2.856965 -7.645658 45.926514
353 0 1 -3.660234 -7.845159 46.486206
354 0 1 -4.339454 -7.401838 46.927795
355 0 1 -5.018094 -7.258949 46.319794
356 0 1 -5.791295 -7.824670 46.078705
357 0 1 -5.167684 -8.546708 45.982910
358 0 1 -5.092404 -9.180207 45.173004
359 0 1 -5.314134 -9.907609 44.529999
360 0 1 -5.626523 -9.814109 43.525085
361 0 1 -5.513015 -9.242707 42.744507
362 0 1 -5.096084 -8.585210 43.299103
363 0 1 -5.395345 -8.701608 44.259003
364 0 1 -6.371205 -8.747909 44.292389
365 0 1 -6.600444 -9.377908 43.647095
366 0 1 -6.770734 -8.772008 42.858398
367 0 1 -7.528335 -9.006709 42.315399
368 0 1 -7.180974 -8.297009 41.758606
369 0 1 -7.242505 -8.232110 40.790405
370 0 1 -7.704555 -8.928109 40.370087
371 0 1 -8.401324 -9.458508 40.781311
372 0 1 -7.732074 -10.019910 40.662109
373 0 1 -7.517964 -10.893909 40.351807
374 0 1 -7.470555 -11.345408 39.485291
375 0 1 -8.388463 -11.466609 39.190308
376 0 1 -8.871114 -10.744609 39.578400
377 0 1 -9.787744 -10.563909 39.830200
378 0 1 -9.926314 -11.295609 40.489410
379 0 1 -10.709516 -11.948909 40.584900
380 0 1 -11.387303 -11.573609 41.219788
381 0 1 -12.139905 -11.877709 40.740906
382 0 1 -12.216004 -11.487409 39.812500
383 0 1 -11.902804 -10.960309 39.045593
384 0 1 -12.708203 -11.510709 38.898895
385 0 1 -12.269704 -11.749608 38.002502
386 0 1 -13.026404 -12.338408 38.064392
387 0 1 -13.976705 -12.301108 38.211304
388 0 1 -14.397305 -12.544909 37.364594
389 0 1 -15.187104 -12.024909 37.040009
390 0 1 -15.030004 -11.584107 36.127411
391 0 1 -14.588504 -11.545308 35.187408
392 0 1 -13.972703 -12.084708 34.679199
393 0 1 -14.735303 -12.453009 34.270813
394 0 1 -15.644105 -12.838809 34.289917
395 0 1 -15.433305 -13.860009 34.448608
396 0 1 -14.720204 -13.922309 35.119904
397 0 1 -13.790204 -14.228709 35.338104
398 0 1 -13.135804 -14.832309 34.853088
399 0 1 -13.798505 -15.369508 35.341614
400 0 1 -13.511304 -16.001709 34.731201
401 0 1 -13.194505 -16.911310 34.934998
402 0 1 -12.248605 -16.684710 35.116089
403 0 1 -11.572003 -17.164310 34.680206
404 0 1 -10.593614 -17.109909 34.663208
405 0 1 -9.862184 -17.488909 35.082306
406 0 1 -9.407674 -16.636009 35.388184
407 0 1 -8.667603 -17.311909 35.550690
408 0 1 -9.101005 -17.278009 36.394501
409 0 1 -8.827004 -17.258009 37.277893
410 0 1 -9.749833 -17.569309 37.416595
411 0 1 -10.634404 -17.472309 37.819702
412 0 1 -11.485703 -17.362110 38.343384
413 0 1 -11.485703 -16.582409 37.761810
414 0 1 -11.296004 -15.680009 37.906006
415 0 1 -12.030705 -15.031808 38.192017
416 0 1 -11.813806 -15.293109 39.091888
417 0 1 -12.061204 -14.932509 39.996399
418 0 1 -12.182004 -14.650609 40.923889
419 0 1 -12.689404 -14.587110 41.710297
420 0 1 -13.037503 -13.830009 42.293396
421 0 1 -13.944804 -13.726109 41.888489
422 0 1 -14.470504 -14.185809 42.495300
423 0 1 -15.447604 -14.036609 42.464294
424 0 1 -15.576304 -13.572808 43.324799
425 0 1 -15.885304 -13.263609 44.159393
426 0 1 -15.395303 -14.075809 44.218292
427 0 1 -15.925405 -14.808408 44.163208
428 0 1 -15.719504 -15.709508 44.423706
429 0 1 -15.044503 -15.019010 44.656494
430 0 1 -14.587705 -15.844008 44.837006
431 0 1 -13.633704 -15.658408 44.805603
432 0 1 -13.298604 -15.836608 43.910004
433 0 1 -12.551604 -15.285209 44.346497
434 0 1 -11.672004 -14.971709 44.502991
435 0 1 -11.324403 -15.048709 45.427704
436 0 1 -11.102063 -14.660909 46.290710
437 0 1 -11.538505 -13.938209 45.959503
438 0 1 -11.952603 -14.058309 45.085693
439 0 1 -11.709805 -13.195008 44.852905
440 0 1 -11.719403 -12.744908 44.074890
441 0 1 -11.224004 -13.476608 43.752106
442 0 1 -10.507573 -13.126208 43.228607
443 0 1 -9.728456 -13.651109 43.281708
444 0 1 -8.799424 -13.743209 43.068115
445 0 1 -8.640065 -13.861108 43.984802
446 0 1 -7.721595 -13.954108 43.633698
447 0 1 -7.216615 -14.539908 43.039398
448 0 1 -7.171334 -15.402509 43.374390
449 0 1 -6.354894 -14.952409 43.716400
450 0 1 -5.760444 -14.391408 44.235291
451 0 1 -4.648755 -14.370208 44.091797
452 0 1 -4.519053 -15.295308 44.111389
453 0 1 -5.018325 -15.848809 43.542511
454 0 1 -4.179315 -15.575408 43.122498
455 0 1 -3.811895 -16.443010 43.260986
456 0 1 -3.782415 -16.036009 44.113495
457 0 1 -3.502324 -15.099010 44.243713
458 0 1 -2.676044 -14.534509 44.152008
459 0 1 -1.912423 -13.957709 44.274689
460 0 1 -1.945674 -13.004309 44.025085
461 0 1 -1.281558 -12.738409 44.707703
462 0 1 -1.715364 -11.799607 44.762695
463 0 1 -1.807687 -12.221808 45.588287
464 0 1 -0.907712 -11.959107 45.820709
465 0 1 -1.257146 -11.125607 45.356293
466 0 1 -0.784398 -10.383809 44.803589
467 0 1 0.147305 -10.613109 44.674500
468 0 1 0.872294 -10.652909 44.035004
469 0 1 0.830764 -10.686410 43.073792
470 0 1 0.110755 -10.521310 42.403290
471 0 1 -0.076114 -10.247708 41.529602
472 0 1 0.352015 -9.458709 41.291290
473 0 1 -0.382941 -8.843110 41.331116
474 0 1 0.142136 -8.288709 41.888702
475 0 1 0.977446 -8.709508 42.240692
476 0 1 0.916297 -7.889709 42.783508
477 0 1 1.551127 -7.584100 42.170715
478 0 1 1.359115 -6.964448 41.454193
479 0 1 0.832145 -7.105150 40.627899
480 0 1 0.179696 -7.537199 40.071808
481 0 1 -0.501153 -7.140138 39.537811
482 0 1 -1.294444 -6.912799 39.026001
483 0 1 -1.395337 -5.909658 38.929810
484 0 1 -0.903968 -5.421810 39.566284
485 0 1 -1.421802 -4.753250 40.001587
486 0 1 -1.834176 -4.207139 39.310303
487 0 1 -2.694434 -3.762208 39.292603
488 0 1 -2.704904 -3.017320 38.725403
489 0 1 -3.164434 -2.522069 38.089417
490 0 1 -3.333715 -3.358629 37.503601
491 0 1 -3.776515 -4.217248 37.285797
492 0 1 -3.660354 -5.168100 37.296295
493 0 1 -4.429025 -5.380800 37.831390
494 0 1 -5.075164 -4.710630 37.536591
495 0 1 -4.717414 -4.771188 36.614807
496 0 1 -5.180875 -4.290559 35.904602
497 0 1 -5.705464 -3.481519 35.657593
498 0 1 -5.875215 -3.502809 34.712402
499 0 1 -6.062493 -3.727109 33.838989
500 0 1 -6.999154 -3.893419 33.692993
501 0 1 -7.067634 -3.002079 33.366608
502 0 1 -6.278563 -3.219308 32.852600
503 0 1 -6.181724 -4.149229 32.683411
504 0 1 -6.121865 -5.071008 32.805786
505 0 1 -6.487214 -5.745899 33.416290
506 0 1 -6.696103 -6.136320 34.246490
507 0 1 -7.225184 -6.876680 33.945709
508 0 1 -6.323205 -7.190229 33.757385
509 0 1 -5.391255 -7.190219 33.317291
510 0 1 -4.638743 -7.481109 32.949707
511 0 1 -3.789274 -7.797128 32.964600
512 0 1 -3.478135 -7.259588 32.241089
513 0 1 -3.384494 -6.640630 32.993805
514 0 1 -3.041204 -6.300180 32.154510
515 0 1 -2.204614 -5.916280 31.896484
516 0 1 -1.775560 -5.307840 32.477905
517 0 1 -1.892251 -5.568479 33.378784
518 0 1 -1.470815 -6.445709 33.149200
519 0 1 -0.570058 -6.521848 33.395203
520 0 1 0.154235 -5.934080 33.355408
521 0 1 0.378085 -5.397289 34.136505
522 0 1 0.722167 -4.440170 34.071411
523 0 1 1.284285 -5.072370 33.648804
524 0 1 1.987136 -4.897119 32.993195
525 0 1 1.327727 -4.939218 32.317596
526 0 1 0.368586 -4.882219 32.280396
527 0 1 0.832724 -4.354969 31.640503
528 0 1 0.603385 -3.903009 30.808990
529 0 1 -0.171674 -4.512279 30.491913
530 0 1 -0.272357 -4.945310 29.636292
531 0 1 -0.907798 -5.158350 28.888702
532 0 1 -0.000444 -5.480009 28.733887
533 0 1 -0.190944 -6.420330 28.462799
534 0 1 0.356685 -7.038290 27.910492
535 0 1 0.227626 -7.003191 26.952301
536 0 1 -0.515664 -7.599870 27.363800
537 0 1 -1.304513 -8.033910 27.804016
538 0 1 -2.238925 -7.904409 27.457794
539 0 1 -2.856454 -7.594308 26.838409
540 0 1 -3.739644 -7.177330 27.148193
541 0 1 -3.115735 -6.406869 27.389008
542 0 1 -3.202655 -5.694950 26.737091
543 0 1 -3.212844 -4.800859 26.792694
544 0 1 -3.372545 -4.015920 27.328308
545 0 1 -2.484355 -3.999710 27.854004
546 0 1 -1.882053 -3.249170 27.947388
547 0 1 -1.011260 -3.614210 28.183899
548 0 1 -0.481801 -3.029329 27.608887
549 0 1 -0.123815 -2.132919 27.675812
550 0 1 0.111316 -1.283189 27.267914
551 0 1 1.025027 -1.082509 26.897797
552 0 1 1.032786 -1.415649 27.799591
553 0 1 1.964446 -1.224719 27.467499
554 0 1 2.635344 -1.102119 26.795502
555 0 1 2.545226 -2.061180 26.633484
556 0 1 1.720466 -2.555650 26.489197
557 0 1 2.072726 -2.417070 25.536499
558 0 1 1.685565 -2.533578 24.639587
559 0 1 2.156234 -2.491659 23.697998
560 0 1 2.196967 -3.149080 23.036316
561 0 1 1.617896 -2.354450 22.784912
562 0 1 0.936774 -2.037639 22.240097
563 0 1 0.350047 -2.683698 21.856094
564 0 1 0.945494 -3.057579 21.120697
565 0 1 0.800944 -3.747968 21.926208
566 0 1 0.620967 -4.592630 21.567505
567 0 1 1.609324 -4.640169 21.394699
568 0 1 1.362826 -5.052019 20.572693
569 0 1 1.323356 -4.801559 19.617706
570 0 1 0.457984 -5.128990 19.464600
571 0 1 -0.346109 -5.650880 19.318405
572 0 1 -0.475911 -5.186759 18.514008
573 0 1 0.201766 -4.432279 18.784698
574 0 1 -0.202613 -3.587789 18.932297
575 0 1 -1.118592 -3.872299 18.760300
576 0 1 -1.478040 -3.375150 19.501297
577 0 1 -2.412715 -3.349840 19.832199
578 0 1 -2.203185 -2.615640 20.384506
579 0 1 -1.271882 -2.362560 20.299606
580 0 1 -0.631782 -2.970098 20.516495
581 0 1 -0.021194 -2.935548 19.794907
582 0 1 -0.159654 -1.944688 19.833801
583 0 1 -0.036685 -2.216020 18.873795
584 0 1 0.416415 -2.396360 18.083496
585 0 1 0.596015 -2.792718 17.220703
586 0 1 -0.052064 -2.472959 16.624298
587 0 1 -0.311475 -2.144969 15.777496
588 0 1 -1.167295 -1.746040 16.091400
589 0 1 -2.080524 -1.457260 16.414307
590 0 1 -2.643235 -1.575229 17.191696
591 0 1 -2.646665 -0.563739 16.993195
592 0 1 -2.805515 -0.078029 16.048096
593 0 1 -2.774234 0.841891 16.147202
594 0 1 -3.218904 1.030091 16.953201
595 0 1 -3.911084 1.012992 17.577301
596 0 1 -4.316875 0.684741 16.757202
597 0 1 -4.131783 1.637601 16.471298
598 0 1 -3.427844 2.298155 16.224106
599 0 1 -3.069385 2.575411 17.145905
600 0 1 -4.031005 2.647311 17.289200
601 0 1 -4.087064 3.496312 17.750702
602 0 1 -4.539063 3.266831 18.498001
603 0 1 -3.908704 3.707713 19.085403
604 0 1 -3.395185 4.211871 18.409103
605 0 1 -3.031095 3.615222 17.765305
606 0 1 -2.809774 4.235461 17.008301
607 0 1 -2.179134 4.664141 16.378098
608 0 1 -2.512374 3.952971 15.785995
609 0 1 -1.709113 3.818652 15.363205
610 0 1 -2.305774 3.011269 15.234604
611 0 1 -2.828744 2.228911 15.180695
612 0 1 -2.203805 1.484595 15.212799
613 0 1 -1.256656 1.455926 15.384598
614 0 1 -0.779609 0.756442 14.961594
615 0 1 -0.005525 0.736910 15.571198
616 0 1 0.718676 1.203164 15.249603
617 0 1 1.217875 0.418622 15.436996
618 0 1 1.190657 0.150040 14.554993
619 0 1 1.554774 -0.612958 14.186096
620 0 1 2.490004 -0.666089 14.358093
621 0 1 3.349425 -0.770139 14.777206
622 0 1 3.989394 -0.012430 14.648499
623 0 1 3.981566 0.271451 15.530792
624 0 1 4.446708 0.910342 14.960007
625 0 1 4.027274 1.657994 15.305405
626 0 1 4.849166 1.914197 15.728699
627 0 1 5.662017 2.410513 15.410904
628 0 1 6.603087 2.680916 15.254303
629 0 1 7.459186 2.951313 14.797607
630 0 1 7.073146 3.686949 15.297302
631 0 1 6.552108 3.766100 14.417297
632 0 1 7.080466 4.407599 13.836792
633 0 1 7.530856 4.587271 14.655106
634 0 1 6.615104 5.032992 14.628403
635 0 1 6.176936 5.407671 15.376892
636 0 1 6.448264 5.681269 16.303604
637 0 1 6.565745 6.577933 16.094208
638 0 1 5.819285 6.796141 15.586792
639 0 1 5.115737 7.437819 15.813004
640 0 1 5.320357 6.987139 16.666504
641 0 1 4.635825 6.491660 17.067596
642 0 1 4.050025 5.950339 17.606995
643 0 1 4.307956 6.439841 18.445801
644 0 1 4.048507 5.669051 19.061203
645 0 1 3.953875 5.766661 20.047699
646 0 1 4.226405 6.644991 20.367798
647 0 1 4.209586 7.416480 19.715103
648 0 1 3.857665 8.028041 20.352402
649 0 1 3.268126 7.294722 20.100296
650 0 1 2.403945 7.621123 19.845093
651 0 1 2.450316 7.234709 20.729004
652 0 1 2.030314 6.440093 20.421005
653 0 1 1.528285 5.655840 20.689697
654 0 1 0.709216 5.096610 20.903305
655 0 1 -0.110795 5.597960 20.980606
656 0 1 -0.978879 5.253890 20.895706
657 0 1 -1.041381 4.490271 21.523605
658 0 1 -1.575029 5.196082 21.898895
659 0 1 -1.912589 5.769751 22.658691
660 0 1 -2.258214 5.000811 23.232086
661 0 1 -2.627864 4.650881 24.054291
662 0 1 -3.313264 4.261710 24.615814
663 0 1 -3.255235 5.016222 25.116791
664 0 1 -2.826204 5.837363 24.861206
665 0 1 -2.821674 5.681910 25.879913
666 0 1 -2.944555 6.595721 25.938995
667 0 1 -3.231015 7.029871 26.834900
668 0 1 -3.878164 7.697489 27.012604
669 0 1 -4.335334 8.080161 27.791901
670 0 1 -5.053704 8.034751 28.572113
671 0 1 -5.610154 8.384063 29.329010
672 0 1 -6.305623 8.532950 28.700012
673 0 1 -6.739594 9.399341 28.542786
674 0 1 -6.674035 10.300673 28.893616
675 0 1 -6.202664 9.658290 29.518188
676 0 1 -6.189775 8.923102 30.117310
677 0 1 -6.747334 8.212291 29.903809
678 0 1 -7.381124 8.734790 30.301605
679 0 1 -7.483245 9.424243 30.927185
680 0 1 -8.006425 8.952830 31.501709
681 0 1 -7.890553 9.813163 31.846405
682 0 1 -7.720634 10.650130 31.429108
683 0 1 -8.406915 11.298163 31.545502
684 0 1 -9.324113 11.133803 31.333588
685 0 1 -9.036103 10.747764 30.484894
686 0 1 -8.449405 10.948493 29.736206
687 0 1 -9.276454 11.283191 29.297607
688 0 1 -9.724713 10.478141 29.169006
689 0 1 -9.722123 10.149154 28.310486
690 0 1 -10.557044 9.601951 28.515686
691 0 1 -11.376405 9.482551 28.978516
692 0 1 -11.578904 8.623313 28.566589
693 0 1 -12.162705 9.377261 28.268402
694 0 1 -12.543805 9.896483 27.589111
695 0 1 -12.080403 10.549541 27.042114
696 0 1 -12.020303 9.723311 26.522888
697 0 1 -11.035275 9.740611 26.247192
698 0 1 -10.348405 9.503203 25.700195
699 0 1 -9.707564 9.316970 25.052094
700 0 1 -10.342214 8.989940 24.342010
701 0 1 -9.737334 8.345382 23.847412
702 0 1 -9.675515 7.455042 23.555908
703 0 1 -9.313844 6.518683 23.468994
704 0 1 -8.701514 6.351912 22.752411
705 0 1 -8.828343 7.093241 22.123993
706 0 1 -8.016395 7.683760 22.211594
707 0 1 -7.127194 7.854231 22.023102
708 0 1 -7.279683 8.310443 21.175507
709 0 1 -7.689404 7.576891 20.718002
710 0 1 -8.502664 7.398421 20.141998
711 0 1 -7.926564 7.527503 19.410095
712 0 1 -7.852014 8.390681 18.901596
713 0 1 -7.028304 8.429080 18.275406
714 0 1 -7.481374 8.587710 17.485397
715 0 1 -7.219054 7.626151 17.353195
716 0 1 -6.855964 8.025783 16.544601
717 0 1 -7.443614 7.574530 15.890808
718 0 1 -7.447185 8.533763 15.462601
719 0 1 -6.617534 8.072360 15.378494
720 0 1 -6.778375 7.595183 14.578705
721 0 1 -7.412293 7.088870 14.036499
722 0 1 -7.704724 6.695712 13.190094
723 0 1 -7.876184 7.668311 13.255005
724 0 1 -8.556195 7.940470 13.811295
725 0 1 -9.513455 7.662692 13.791702
726 0 1 -10.389314 7.630881 14.232407
727 0 1 -11.129945 8.236159 14.190201
728 0 1 -11.884604 8.498912 14.690094
729 0 1 -12.850003 8.391829 14.684097
730 0 1 -13.629004 8.956679 14.906601
731 0 1 -14.082204 9.838782 14.738800
732 0 1 -14.579404 9.684031 13.899796
733 0 1 -13.686704 9.443881 13.585403
734 0 1 -13.146804 9.114890 12.911804
735 0 1 -13.952405 8.943881 12.297104
736 0 1 -13.310803 8.252482 12.201096
737 0 1 -12.584004 8.789912 11.838806
738 0 1 -11.869205 8.260421 11.381195
739 0 1 -11.226403 8.723342 10.776596
740 0 1 -11.023664 9.367091 11.474197
741 0 1 -11.079003 10.085143 10.794693
742 0 1 -11.208604 10.687392 11.559006
743 0 1 -11.778405 11.432120 11.231598
744 0 1 -12.532704 11.281260 11.888306
745 0 1 -13.023805 11.973121 12.324005
746 0 1 -13.954604 12.171493 12.431702
747 0 1 -13.978204 12.110480 11.463501
748 0 1 -14.632905 11.755622 10.848801
749 0 1 -14.872005 12.678592 10.726807
750 0 1 -13.988704 12.923789 10.265503
751 0 1 -13.076505 12.863891 10.530396
752 0 1 -12.663304 13.351192 11.236694
753 0 1 -12.575204 14.295291 11.093094
754 0 1 -12.277204 14.837790 10.365295
755 0 1 -12.023305 15.710891 10.158600
756 0 1 -11.198205 15.602992 9.687851
757 0 1 -10.690034 14.769591 9.576202
758 0 1 -10.525186 14.604091 8.654816
759 0 1 -9.773574 14.835292 8.196533
760 0 1 -9.626704 14.549590 7.270554
761 0 1 -9.126704 13.733893 7.331147
762 0 1 -8.286284 13.891692 6.796830
763 0 1 -8.407014 14.881190 7.056992
764 0 1 -7.496345 15.324992 7.112046
765 0 1 -6.579534 15.543990 7.371583
766 0 1 -5.750875 15.930694 7.038147
767 0 1 -5.017064 15.600890 6.586426
768 0 1 -4.677655 15.040290 7.320588
769 0 1 -4.760444 14.183089 6.910767
770 0 1 -4.097514 13.583091 7.194809
771 0 1 -4.467904 13.923892 8.021118
772 0 1 -5.150184 14.198592 8.675888
773 0 1 -4.504704 13.888091 9.321854
774 0 1 -3.794755 14.359092 9.748962
775 0 1 -3.359405 14.429992 8.858917
776 0 1 -2.737455 13.780890 8.567123
777 0 1 -2.272245 13.500491 7.768143
778 0 1 -1.905891 14.375491 7.598542
779 0 1 -1.000125 14.653590 7.654541
780 0 1 -1.047300 14.799491 8.539734
781 0 1 -0.090385 15.086390 8.216675
782 0 1 0.296775 15.609092 7.514374
783 0 1 0.957244 15.540793 8.175644
784 0 1 1.162604 14.990592 8.909637
785 0 1 2.182875 14.853190 8.833801
786 0 1 2.332835 15.790290 8.923935
787 0 1 2.075297 15.709189 8.017029
788 0 1 2.990855 15.379394 8.267105