LAMMPS data file via MDAnalysis

        2000  atoms
        1999  bonds
           0  angles
           0  dihedrals
           0  impropers

           1  atom types
           1  bond types
           0  angle types
           0  dihedral types
           0  improper types

-30.5 30.5 xlo xhi
-30.5 30.5 ylo yhi
-233.5 233.5 zlo zhi


Masses

1 1.000000

Atoms

1 0 1 -3.637134 -10.634606 67.394409
2 0 1 -3.602532 -10.350806 68.331390
3 0 1 -4.057883 -9.538106 67.925903
4 0 1 -3.279992 -9.043105 67.715515
5 0 1 -2.425344 -9.170346 67.304596
6 0 1 -2.826104 -9.987407 67.459503
7 0 1 -1.890384 -10.110206 67.711792
8 0 1 -1.368854 -10.449206 68.438904
9 0 1 -1.257203 -9.971007 69.255402
10 0 1 -1.774693 -9.144256 69.300781
11 0 1 -2.687003 -8.960467 69.571899
12 0 1 -3.490233 -8.630486 69.757294
13 0 1 -4.442523 -9.096786 69.787994
14 0 1 -4.504783 -8.795226 70.670410
15 0 1 -4.756373 -9.722106 70.717712
16 0 1 -5.408254 -9.846206 71.431885
17 0 1 -6.232913 -9.711207 71.826202
18 0 1 -7.056533 -9.591207 72.427002
19 0 1 -6.889352 -9.492106 73.316711
20 0 1 -6.463864 -9.362006 74.164185
21 0 1 -5.884652 -8.674815 74.411682
22 0 1 -5.894273 -8.071837 75.240906
23 0 1 -6.156953 -7.601506 76.048309
24 0 1 -6.688193 -8.326106 76.372711
25 0 1 -7.447333 -8.417487 76.992096
26 0 1 -7.994832 -9.042285 77.528015
27 0 1 -8.382934 -8.575107 78.243805
28 0 1 -9.198733 -8.432906 77.756500
29 0 1 -9.863833 -8.608426 77.132202
30 0 1 -10.336434 -8.491836 76.349915
31 0 1 -9.465234 -8.571017 75.925507
32 0 1 -8.716134 -9.108645 75.813110
33 0 1 -8.162534 -9.888507 75.718384
34 0 1 -8.674832 -10.149606 76.474701
35 0 1 -8.967433 -10.952106 76.060089
36 0 1 -9.613034 -11.721507 76.211700
37 0 1 -8.822633 -12.266206 76.376007
38 0 1 -7.890332 -12.048507 76.527100
39 0 1 -7.163434 -11.641307 77.007294
40 0 1 -6.626554 -12.238906 76.480499
41 0 1 -5.799354 -11.715507 76.397003
42 0 1 -5.779122 -12.413507 77.105499
43 0 1 -5.553323 -13.293506 77.352600
44 0 1 -5.856423 -14.203106 77.287415
45 0 1 -6.747083 -14.017706 77.750092
46 0 1 -7.691834 -13.742206 77.986298
47 0 1 -7.215833 -13.715806 78.838898
48 0 1 -6.759694 -12.929008 79.093018
49 0 1 -6.249623 -12.566007 78.438507
50 0 1 -5.759143 -12.772506 79.234100
51 0 1 -4.844943 -12.682706 79.379883
52 0 1 -4.297334 -13.365306 79.759308
53 0 1 -3.960263 -13.427207 80.641296
54 0 1 -3.825994 -13.655707 81.530090
55 0 1 -3.596023 -13.776006 82.486694
56 0 1 -3.340554 -13.192407 83.175507
57 0 1 -3.148204 -13.386405 84.085297
58 0 1 -3.540494 -14.220906 84.169006
59 0 1 -4.458583 -14.514906 84.021118
60 0 1 -4.568824 -14.675806 84.987305
61 0 1 -4.182214 -15.380706 85.507507
62 0 1 -4.528333 -15.890807 86.233215
63 0 1 -4.373704 -15.585006 87.146393
64 0 1 -3.466832 -15.483907 87.040100
65 0 1 -2.581193 -15.839107 86.817017
66 0 1 -2.479213 -16.639206 87.396393
67 0 1 -2.458993 -16.291306 88.288696
68 0 1 -2.518292 -15.379907 88.558990
69 0 1 -3.336694 -15.093506 88.956116
70 0 1 -3.103303 -15.946305 89.193481
71 0 1 -2.753594 -16.863905 89.190704
72 0 1 -2.569503 -16.725405 90.144592
73 0 1 -1.755603 -16.692305 90.737701
74 0 1 -2.586923 -16.427605 91.213684
75 0 1 -3.358943 -15.853705 91.091400
76 0 1 -3.840533 -15.133307 90.780792
77 0 1 -4.503123 -15.838107 90.725708
78 0 1 -4.946362 -16.316404 91.441711
79 0 1 -5.537503 -16.075205 92.140411
80 0 1 -5.718953 -15.295707 92.630890
81 0 1 -6.518563 -15.892306 92.531311
82 0 1 -6.427073 -16.529305 91.806091
83 0 1 -6.406713 -17.441605 92.007904
84 0 1 -6.610553 -18.117805 91.311798
85 0 1 -7.346532 -17.968805 92.047699
86 0 1 -7.431134 -17.351006 91.308716
87 0 1 -8.180333 -17.557705 90.846802
88 0 1 -8.733434 -17.184605 91.525696
89 0 1 -9.040235 -16.533606 92.156189
90 0 1 -9.790833 -16.704405 91.522003
91 0 1 -10.641534 -16.327505 91.767212
92 0 1 -11.595034 -16.334005 92.010895
93 0 1 -12.053033 -17.210106 91.764099
94 0 1 -11.368733 -17.148806 91.098907
95 0 1 -11.911533 -16.743505 90.432007
96 0 1 -12.137933 -16.995806 89.502991
97 0 1 -12.337133 -16.230104 89.023499
98 0 1 -11.471233 -16.586805 88.713501
99 0 1 -10.502034 -16.713505 88.413605
100 0 1 -9.580934 -16.647305 88.408813
101 0 1 -9.166032 -16.624004 87.548706
102 0 1 -9.663733 -16.990906 86.832886
103 0 1 -9.667134 -16.443806 85.990204
104 0 1 -9.193133 -15.636907 85.672394
105 0 1 -8.616134 -16.301405 85.990295
106 0 1 -8.880033 -16.926004 85.296600
107 0 1 -8.451734 -16.366005 84.627502
108 0 1 -9.184834 -16.277006 83.985718
109 0 1 -9.303733 -15.297307 84.139099
110 0 1 -9.782933 -14.457006 84.417206
111 0 1 -10.534932 -14.134906 84.848297
112 0 1 -11.319333 -14.468906 85.280304
113 0 1 -12.133933 -14.813606 85.473602
114 0 1 -12.751433 -14.092806 85.219208
115 0 1 -13.300633 -13.693206 85.866089
116 0 1 -13.693433 -13.036206 86.418701
117 0 1 -13.038234 -12.383407 86.469391
118 0 1 -13.592534 -12.190106 87.285706
119 0 1 -12.810433 -12.662906 87.586395
120 0 1 -11.902933 -12.318107 87.522491
121 0 1 -11.339032 -12.264506 88.362701
122 0 1 -10.714433 -11.831306 89.034607
123 0 1 -10.887033 -11.231206 88.257690
124 0 1 -10.581433 -10.674506 88.936401
125 0 1 -9.955533 -10.120708 89.346497
126 0 1 -10.195832 -9.355308 89.931396
127 0 1 -10.783334 -9.513606 90.672699
128 0 1 -11.336833 -9.139506 89.961609
129 0 1 -11.752334 -8.435466 89.403107
130 0 1 -12.034534 -7.714236 90.022705
131 0 1 -12.882833 -7.386136 90.278595
132 0 1 -12.489833 -6.912716 89.524994
133 0 1 -11.927533 -6.208355 90.001282
134 0 1 -12.652333 -5.650805 90.400208
135 0 1 -13.543532 -5.225405 90.491089
136 0 1 -13.415833 -4.658267 89.764404
137 0 1 -13.222533 -4.669405 88.825012
138 0 1 -12.784433 -3.798335 88.539307
139 0 1 -12.889633 -3.218396 87.821106
140 0 1 -12.208233 -3.512316 87.062195
141 0 1 -12.854333 -3.958445 86.530090
142 0 1 -13.483434 -3.838927 85.787598
143 0 1 -14.288234 -3.389466 85.604187
144 0 1 -14.720532 -2.851225 84.973297
145 0 1 -15.628734 -2.504025 84.936890
146 0 1 -15.592134 -2.609225 83.972107
147 0 1 -16.011835 -2.255955 83.245209
148 0 1 -16.559633 -3.004736 83.102692
149 0 1 -17.211735 -3.212885 83.744202
150 0 1 -17.592535 -2.773905 84.468994
151 0 1 -17.486633 -2.186196 83.698792
152 0 1 -17.690235 -2.366835 82.743591
153 0 1 -18.335733 -2.631007 82.093689
154 0 1 -18.301933 -2.322306 81.139099
155 0 1 -18.361435 -2.588995 80.229706
156 0 1 -18.702835 -3.403256 80.652588
157 0 1 -18.218035 -4.210495 80.859192
158 0 1 -17.540535 -4.910037 80.833313
159 0 1 -17.697535 -4.414856 79.946808
160 0 1 -17.034534 -3.815945 79.684387
161 0 1 -16.759134 -3.097216 79.070190
162 0 1 -17.515835 -2.508845 78.945801
163 0 1 -16.676634 -2.020226 78.913513
164 0 1 -16.808535 -2.407095 78.083496
165 0 1 -16.573435 -3.322926 77.948608
166 0 1 -16.300034 -4.037756 78.567017
167 0 1 -16.837435 -4.769595 78.083801
168 0 1 -17.025434 -5.730046 77.984009
169 0 1 -17.709635 -5.958945 77.307892
170 0 1 -18.388634 -5.904356 76.620911
171 0 1 -19.388235 -5.970557 76.617310
172 0 1 -19.621334 -5.420586 77.377502
173 0 1 -18.788734 -5.079085 77.201202
174 0 1 -18.986734 -4.660475 76.388184
175 0 1 -18.301035 -4.035815 76.734100
176 0 1 -18.347235 -3.307005 76.008911
177 0 1 -17.853434 -3.831425 75.402283
178 0 1 -17.307335 -4.509676 75.043793
179 0 1 -17.402634 -5.319186 75.625916
180 0 1 -16.583834 -5.819405 75.410797
181 0 1 -16.555433 -5.613936 74.523010
182 0 1 -16.059235 -5.699055 73.694092
183 0 1 -15.476533 -4.941266 73.547394
184 0 1 -15.346534 -4.282176 72.799408
185 0 1 -15.006934 -5.140126 72.425293
186 0 1 -14.962533 -6.078196 72.715881
187 0 1 -14.241933 -6.202256 73.304504
188 0 1 -13.283433 -6.094685 73.208008
189 0 1 -13.509734 -6.225935 72.253510
190 0 1 -13.103534 -6.508116 71.456299
191 0 1 -12.546133 -6.644166 70.688904
192 0 1 -11.974533 -6.178515 70.107697
193 0 1 -11.137134 -6.467286 70.542389
194 0 1 -10.830335 -5.689166 69.955505
195 0 1 -11.195533 -4.842125 69.941498
196 0 1 -11.125234 -4.359156 70.845886
197 0 1 -11.009233 -4.019736 71.727905
198 0 1 -11.018434 -4.829655 72.282288
199 0 1 -10.088532 -4.703326 72.517883
200 0 1 -10.377233 -4.864375 73.390900
201 0 1 -10.337434 -4.058556 73.838409
202 0 1 -9.555333 -3.911465 73.239197
203 0 1 -9.228133 -3.670836 72.329285
204 0 1 -10.019532 -3.104226 72.125488
205 0 1 -9.849732 -3.804566 71.500397
206 0 1 -9.688832 -4.603966 71.053894
207 0 1 -8.829833 -4.842516 70.548309
208 0 1 -8.058934 -5.242835 70.246887
209 0 1 -8.419534 -5.751116 69.462891
210 0 1 -8.651334 -5.608935 68.558716
211 0 1 -9.627633 -5.610516 68.426819
212 0 1 -10.373532 -5.585696 67.874512
213 0 1 -10.860532 -4.907635 68.289093
214 0 1 -11.442933 -4.377825 68.874817
215 0 1 -12.376233 -4.272425 68.719604
216 0 1 -12.538733 -4.611886 69.620392
217 0 1 -12.565033 -3.637946 69.696808
218 0 1 -13.260633 -3.183926 69.115417
219 0 1 -13.994933 -3.223675 69.759796
220 0 1 -14.714734 -3.068926 69.093689
221 0 1 -15.487533 -3.415946 68.695099
222 0 1 -15.142734 -4.288275 68.580505
223 0 1 -14.869233 -5.178216 68.391602
224 0 1 -14.241933 -5.179816 67.699585
225 0 1 -13.937734 -4.671046 68.486694
226 0 1 -13.683833 -3.876166 67.902191
227 0 1 -13.836534 -3.349656 67.157288
228 0 1 -13.644334 -4.164847 66.771484
229 0 1 -12.999133 -4.307105 66.042297
230 0 1 -12.131033 -4.043486 65.758606
231 0 1 -12.662633 -3.247475 65.918091
232 0 1 -11.940534 -2.624917 65.778198
233 0 1 -11.240033 -3.141495 65.247498
234 0 1 -11.775933 -2.719185 64.600189
235 0 1 -11.183133 -2.587555 63.848999
236 0 1 -11.314433 -2.574986 62.922791
237 0 1 -10.784932 -1.763575 62.827087
238 0 1 -10.161035 -2.258446 62.346802
239 0 1 -9.651334 -1.988995 61.560699
240 0 1 -10.419732 -1.407065 61.356812
241 0 1 -10.353734 -1.772727 60.491394
242 0 1 -10.568032 -2.574986 60.093384
243 0 1 -9.662333 -2.377186 59.701294
244 0 1 -8.931134 -1.985036 60.223694
245 0 1 -8.860932 -1.964587 59.279388
246 0 1 -9.541333 -1.216817 59.058289
247 0 1 -9.440133 -0.277573 59.398499
248 0 1 -10.231332 0.278469 59.355408
249 0 1 -9.936833 0.674760 58.489197
250 0 1 -9.047734 0.589494 58.189911
251 0 1 -8.834933 0.590724 57.211487
252 0 1 -7.975934 0.349168 57.111389
253 0 1 -8.013133 0.344114 58.034607
254 0 1 -7.147332 0.020929 57.957092
255 0 1 -6.987733 -0.753026 58.504791
256 0 1 -6.311063 -1.271506 59.102600
257 0 1 -6.131663 -1.838305 59.918396
258 0 1 -5.353423 -1.305716 60.177795
259 0 1 -5.330762 -1.236996 59.215302
260 0 1 -5.534513 -0.297326 58.965088
261 0 1 -4.723533 -0.388335 58.522003
262 0 1 -5.296474 -0.263991 57.725891
263 0 1 -5.523572 0.217628 56.917114
264 0 1 -6.494905 0.382184 56.840790
265 0 1 -6.961732 -0.468035 56.548889
266 0 1 -6.770604 -0.689635 55.627289
267 0 1 -6.569352 -0.558716 54.721985
268 0 1 -6.995334 -1.163996 54.140900
269 0 1 -7.036534 -0.570435 53.354492
270 0 1 -6.624974 -1.352896 53.045807
271 0 1 -5.768552 -1.172755 52.666016
272 0 1 -5.504653 -0.714175 51.823303
273 0 1 -6.102464 -0.914036 51.027588
274 0 1 -6.587073 -1.468356 50.354492
275 0 1 -6.056214 -0.766757 49.877594
276 0 1 -5.141374 -0.396056 49.922485
277 0 1 -5.267694 -1.230206 50.381104
278 0 1 -4.990193 -1.375826 49.470612
279 0 1 -4.475074 -1.380076 48.671295
280 0 1 -3.986344 -0.497355 48.579407
281 0 1 -4.664054 0.001113 48.161102
282 0 1 -5.106935 -0.142109 47.375183
283 0 1 -5.228633 0.756715 47.083588
284 0 1 -6.131534 0.962259 47.031403
285 0 1 -6.191493 1.860673 46.713806
286 0 1 -6.134084 1.629745 45.748505
287 0 1 -6.428754 1.236575 44.885590
288 0 1 -6.792745 1.523889 44.042786
289 0 1 -7.319833 2.372404 44.248901
290 0 1 -6.547923 2.915433 44.287506
291 0 1 -6.646323 3.454523 45.086304
292 0 1 -6.587625 4.408506 45.146484
293 0 1 -6.177545 4.855634 44.384003
294 0 1 -6.713902 4.183195 44.046509
295 0 1 -7.162232 3.636243 43.384308
296 0 1 -7.693133 4.413866 43.148804
297 0 1 -8.306233 4.614473 43.942108
298 0 1 -9.208034 4.440626 44.143799
299 0 1 -9.936833 5.003404 44.441010
300 0 1 -10.279634 5.817663 44.771606
301 0 1 -10.369233 6.597173 45.324799
302 0 1 -10.866033 6.117685 45.970215
303 0 1 -11.380834 6.362955 46.670410
304 0 1 -11.835433 6.357103 47.495087
305 0 1 -12.090734 5.464284 47.209198
306 0 1 -12.355433 5.580083 46.280884
307 0 1 -12.679633 4.684034 46.166901
308 0 1 -13.196633 4.944326 46.948486
309 0 1 -14.080434 4.491083 46.896210
310 0 1 -13.935033 4.642984 45.936798
311 0 1 -14.437432 5.374746 45.500702
312 0 1 -15.422833 5.500795 45.403809
313 0 1 -15.126933 6.064462 46.093292
314 0 1 -14.306933 6.186845 46.662506
315 0 1 -14.480834 7.003866 47.162415
316 0 1 -13.678634 7.425973 46.879608
317 0 1 -12.977733 7.132516 46.400299
318 0 1 -12.538533 7.992086 46.303406
319 0 1 -12.597733 8.750115 45.680298
320 0 1 -12.525933 9.479463 46.233398
321 0 1 -12.327833 10.205644 45.630096
322 0 1 -11.636533 10.881795 45.589600
323 0 1 -12.461233 11.203595 45.216003
324 0 1 -13.320134 11.635095 45.136902
325 0 1 -13.850633 12.155892 44.459900
326 0 1 -14.751834 11.896394 44.411011
327 0 1 -15.434033 12.407994 43.960083
328 0 1 -16.221035 12.325395 43.488007
329 0 1 -17.129435 12.414594 43.933807
330 0 1 -17.697334 12.390092 43.121887
331 0 1 -18.549334 12.108392 43.397583
332 0 1 -18.773735 12.365891 42.513397
333 0 1 -19.742834 12.606294 42.342010
334 0 1 -19.931435 13.254094 41.724915
335 0 1 -19.769733 13.698792 40.890411
336 0 1 -19.401033 12.814794 40.804291
337 0 1 -19.417833 13.079095 39.825989
338 0 1 -20.244835 12.592595 39.578613
339 0 1 -19.818233 12.083695 38.872803
340 0 1 -19.149633 11.632894 38.219208
341 0 1 -18.260633 11.818395 38.353394
342 0 1 -18.352234 10.867394 38.498505
343 0 1 -17.930134 11.181993 39.285400
344 0 1 -17.286734 11.674893 39.743195
345 0 1 -17.511135 12.205792 38.972412
346 0 1 -16.591734 11.942796 38.934509
347 0 1 -16.952534 11.309793 38.306396
348 0 1 -16.413235 10.494683 38.223907
349 0 1 -16.783033 9.681855 37.859406
350 0 1 -17.122435 8.891885 37.486298
351 0 1 -17.530535 8.598912 36.607910
352 0 1 -18.091934 8.490354 37.398804
353 0 1 -18.177134 7.556455 36.930511
354 0 1 -18.981335 7.717355 37.444489
355 0 1 -19.405035 7.673982 36.638092
356 0 1 -18.897934 7.264036 35.968109
357 0 1 -18.001934 7.134134 35.581696
358 0 1 -18.572134 7.230264 34.780792
359 0 1 -18.630335 6.277814 34.998688
360 0 1 -18.355234 5.594503 35.572815
361 0 1 -17.586634 6.197324 35.330597
362 0 1 -17.167934 5.331823 35.240204
363 0 1 -17.053135 5.242963 34.287292
364 0 1 -16.245834 4.825834 33.890289
365 0 1 -16.277334 3.881235 33.571289
366 0 1 -15.563434 3.197256 33.686096
367 0 1 -14.982734 2.496126 34.070099
368 0 1 -14.098134 2.087614 34.046600
369 0 1 -13.865832 2.125135 34.993011
370 0 1 -13.485633 2.888406 35.543213
371 0 1 -12.783834 2.443494 36.110809
372 0 1 -12.866333 1.449365 36.253998
373 0 1 -12.714533 0.489604 36.257690
374 0 1 -11.958933 0.975019 36.015289
375 0 1 -11.535033 1.397285 35.259796
376 0 1 -11.221833 2.172473 35.776917
377 0 1 -10.930333 3.164285 35.753510
378 0 1 -10.412034 3.497316 35.014801
379 0 1 -10.722034 4.238325 34.491791
380 0 1 -11.723333 4.130643 34.125305
381 0 1 -12.551133 3.884202 34.534698
382 0 1 -12.681434 4.221982 35.455017
383 0 1 -12.877033 5.110666 35.127991
384 0 1 -11.973333 4.930723 35.363007
385 0 1 -11.796534 5.835836 35.622406
386 0 1 -12.586634 6.357584 35.863800
387 0 1 -12.292733 6.508073 36.737396
388 0 1 -13.045533 7.006795 36.635803
389 0 1 -13.491033 6.134256 36.806610
390 0 1 -13.899533 5.909734 36.032715
391 0 1 -14.191333 6.857915 35.927094
392 0 1 -14.868934 7.360956 36.419617
393 0 1 -15.747634 7.248655 35.928589
394 0 1 -15.877233 7.974535 35.302002
395 0 1 -15.870433 7.230714 34.757111
396 0 1 -15.045234 6.897752 34.296387
397 0 1 -15.223134 7.822713 34.136902
398 0 1 -15.403634 7.396963 33.307404
399 0 1 -14.442134 7.246995 33.057587
400 0 1 -13.497634 7.496263 33.139191
401 0 1 -12.565534 7.479173 32.923584
402 0 1 -12.212234 7.589315 31.966614
403 0 1 -12.056833 7.856813 31.085815
404 0 1 -12.430034 8.426553 30.356293
405 0 1 -11.519533 8.111672 30.198608
406 0 1 -11.506133 9.056485 29.849213
407 0 1 -10.656934 8.645532 30.154388
408 0 1 -10.392734 7.839933 29.745605
409 0 1 -10.265634 8.361062 28.871307
410 0 1 -10.044333 9.067983 29.421387
411 0 1 -9.653333 9.889596 28.995605
412 0 1 -10.047532 9.711835 27.991302
413 0 1 -10.766833 9.407594 28.566803
414 0 1 -11.286534 10.209622 28.717010
415 0 1 -12.083633 10.263314 28.057312
416 0 1 -13.069333 10.215955 27.924500
417 0 1 -13.820533 9.697595 28.271210
418 0 1 -13.467233 9.248113 29.045197
419 0 1 -14.231433 9.774373 29.164795
420 0 1 -14.835633 9.287385 28.575806
421 0 1 -15.481433 9.994935 28.894012
422 0 1 -15.679732 9.333104 29.562195
423 0 1 -16.123135 10.172364 29.850494
424 0 1 -16.573935 11.101396 29.982513
425 0 1 -16.476635 11.296693 29.004913
426 0 1 -16.484934 12.125493 28.517700
427 0 1 -17.032534 12.962193 28.322815
428 0 1 -16.515734 13.794892 28.234802
429 0 1 -15.820634 13.823293 27.550598
430 0 1 -15.260234 14.042493 26.761414
431 0 1 -14.720834 13.816194 27.550995
432 0 1 -14.073634 14.211793 26.968994
433 0 1 -14.283134 15.127892 26.658203
434 0 1 -13.427934 14.968995 26.355103
435 0 1 -13.338134 15.273194 25.460602
436 0 1 -13.157033 15.895692 24.791809
437 0 1 -13.601533 16.474596 24.190002
438 0 1 -12.894934 16.054293 23.685699
439 0 1 -13.554233 15.317994 23.230103
440 0 1 -14.420533 15.014394 22.729401
441 0 1 -14.472833 15.841294 23.192200
442 0 1 -14.347833 15.558793 24.079895
443 0 1 -14.640433 14.733994 24.624603
444 0 1 -14.894933 14.929395 23.675995
445 0 1 -14.088233 14.404794 23.746613
446 0 1 -14.051034 13.629994 23.148315
447 0 1 -14.741233 13.041894 22.703186
448 0 1 -15.103734 13.581594 21.889206
449 0 1 -15.143134 13.294595 20.962906
450 0 1 -15.360534 12.505692 20.415298
451 0 1 -14.698533 12.717294 19.800095
452 0 1 -13.953233 13.221696 19.506302
453 0 1 -13.163934 13.637994 19.096497
454 0 1 -13.191634 14.534295 18.761108
455 0 1 -13.199634 15.183991 19.502808
456 0 1 -12.365533 14.642793 19.457596
457 0 1 -12.322033 15.275495 20.202301
458 0 1 -11.534733 14.714295 20.271500
459 0 1 -10.920733 14.568292 20.994293
460 0 1 -10.553233 14.314095 20.149597
461 0 1 -10.116933 13.908494 19.357605
462 0 1 -9.680833 14.149995 18.451508
463 0 1 -8.698033 14.341794 18.651398
464 0 1 -8.213132 13.564095 18.471695
465 0 1 -9.016633 13.171792 18.281906
466 0 1 -8.725034 12.499696 18.903992
467 0 1 -8.372334 12.873395 19.767700
468 0 1 -7.886434 12.043496 19.796600
469 0 1 -6.955632 12.428391 19.987305
470 0 1 -6.075894 11.984094 20.220306
471 0 1 -5.775283 11.212594 19.753998
472 0 1 -5.309573 10.863893 18.926895
473 0 1 -4.458364 11.109593 19.272598
474 0 1 -4.466733 10.245622 19.651398
475 0 1 -3.943994 9.665444 20.267197
476 0 1 -3.468223 9.244473 20.920502
477 0 1 -3.821614 9.278005 21.876892
478 0 1 -4.372914 8.505925 21.483704
479 0 1 -3.455132 8.272523 21.423904
480 0 1 -3.699103 7.456445 21.854599
481 0 1 -4.098413 7.622194 22.725494
482 0 1 -4.183663 7.718584 23.709290
483 0 1 -4.066434 6.776376 23.898193
484 0 1 -3.402604 6.215883 23.442902
485 0 1 -2.583793 6.436456 23.899994
486 0 1 -2.194882 7.270643 23.867615
487 0 1 -2.168263 6.888772 23.008698
488 0 1 -2.421384 5.980024 23.023407
489 0 1 -1.492723 5.974805 22.653503
490 0 1 -0.734754 6.254373 23.120209
491 0 1 -0.070844 6.315706 22.339996
492 0 1 -0.266854 5.477106 21.944901
493 0 1 0.225356 5.774984 21.162903
494 0 1 0.162196 6.761285 21.009201
495 0 1 -0.100223 7.281324 20.253998
496 0 1 0.575526 7.695505 19.696899
497 0 1 1.087537 8.462483 19.311295
498 0 1 1.200526 8.168466 18.365997
499 0 1 0.335967 7.782484 18.417206
500 0 1 -0.510114 8.175275 18.692200
501 0 1 -1.191804 8.664113 18.251007
502 0 1 -1.668994 8.097375 17.633392
503 0 1 -1.384473 7.610544 16.882599
504 0 1 -0.653823 8.136212 16.660004
505 0 1 -1.059823 8.268723 15.767899
506 0 1 -1.498313 8.559022 14.926605
507 0 1 -2.356353 8.930623 15.187103
508 0 1 -2.893544 9.277734 14.534393
509 0 1 -3.714692 8.931413 14.007797
510 0 1 -2.860553 8.717134 13.419006
511 0 1 -2.071483 8.240033 13.346695
512 0 1 -1.747212 8.700154 12.545395
513 0 1 -2.142274 9.478433 12.901703
514 0 1 -1.775304 10.081075 13.630493
515 0 1 -0.895103 10.260785 13.351593
516 0 1 0.002637 9.898232 13.079102
517 0 1 -0.714433 9.410523 12.633194
518 0 1 0.141446 9.418023 12.141495
519 0 1 0.841866 8.808534 11.925003
520 0 1 0.690537 9.438893 11.128204
521 0 1 0.299607 8.844964 10.447800
522 0 1 0.521056 7.973943 10.179703
523 0 1 1.289477 8.542264 10.300797
524 0 1 2.134879 8.103925 10.518097
525 0 1 2.704808 7.664373 11.097992
526 0 1 2.808639 6.853006 11.649292
527 0 1 2.901412 5.931375 11.746307
528 0 1 3.076468 4.926645 11.731995
529 0 1 3.424836 4.620615 12.633499
530 0 1 2.884242 5.221143 13.179108
531 0 1 2.788869 4.428384 13.650299
532 0 1 1.992507 4.168134 13.132202
533 0 1 1.152297 4.483144 12.840393
534 0 1 0.921317 3.830015 13.506302
535 0 1 -0.072433 3.770975 13.273193
536 0 1 -0.698623 3.085824 13.548004
537 0 1 -1.493243 3.192674 12.995697
538 0 1 -2.143544 3.033643 13.704895
539 0 1 -1.443364 2.886446 14.317093
540 0 1 -1.891803 2.040075 14.338806
541 0 1 -2.104104 1.242576 14.860199
542 0 1 -1.495614 1.621774 15.503006
543 0 1 -1.972634 2.426836 15.534897
544 0 1 -2.771333 1.937904 15.388901
545 0 1 -3.621234 1.632940 15.746399
546 0 1 -4.396453 2.000333 15.175797
547 0 1 -4.998464 1.991884 14.382401
548 0 1 -4.602794 2.171693 13.498001
549 0 1 -5.342484 2.442796 12.865295
550 0 1 -6.037202 2.508752 13.581802
551 0 1 -6.232654 1.945323 12.821503
552 0 1 -6.912934 1.338563 12.755905
553 0 1 -6.702193 1.148319 11.862106
554 0 1 -6.108834 1.809074 11.437897
555 0 1 -7.008332 1.908723 10.901505
556 0 1 -7.418733 1.911254 10.078506
557 0 1 -7.460633 0.964149 10.098907
558 0 1 -8.423432 0.797927 10.053894
559 0 1 -9.017333 1.035303 9.369614
560 0 1 -9.468333 0.127708 9.273071
561 0 1 -8.883332 -0.594975 9.638733
562 0 1 -9.230332 -1.409926 9.144547
563 0 1 -10.142632 -1.616267 9.353500
564 0 1 -10.904332 -1.375546 8.837357
565 0 1 -11.613934 -1.110846 8.296478
566 0 1 -10.958533 -0.790385 7.638184
567 0 1 -10.761434 -1.435567 6.840927
568 0 1 -9.929433 -1.080416 7.084595
569 0 1 -9.566333 -1.975476 7.193314
570 0 1 -9.149934 -2.833605 7.146286
571 0 1 -8.862933 -3.109385 6.239594
572 0 1 -9.379733 -3.508996 5.466034
573 0 1 -9.880933 -3.916186 4.716125
574 0 1 -9.664533 -4.862875 5.031387
575 0 1 -9.411633 -5.758526 4.951859
576 0 1 -8.819734 -6.324305 5.468216
577 0 1 -8.126634 -6.964116 5.346878
578 0 1 -7.961732 -6.927786 4.383804
579 0 1 -7.313233 -7.477927 4.827667
580 0 1 -8.122632 -7.961997 4.975616
581 0 1 -8.174634 -8.806888 4.414093
582 0 1 -7.375134 -8.910886 4.996384
583 0 1 -7.930234 -9.416907 5.543289
584 0 1 -8.846433 -9.687306 5.916733
585 0 1 -8.789033 -10.600505 5.475616
586 0 1 -9.188233 -11.383206 5.127457
587 0 1 -8.626534 -11.371606 4.361053
588 0 1 -8.232934 -11.168906 3.517227
589 0 1 -7.596032 -11.127107 2.802231
590 0 1 -6.805974 -10.758206 2.396149
591 0 1 -6.927533 -10.450807 1.467377
592 0 1 -7.336034 -10.009505 0.717606
593 0 1 -6.992433 -9.142726 0.580002
594 0 1 -7.113233 -8.206746 0.501633
595 0 1 -7.661233 -7.613356 -0.072525
596 0 1 -7.983533 -8.456355 -0.317978
597 0 1 -7.416133 -8.152736 -0.999588
598 0 1 -7.537732 -7.287266 -1.379944
599 0 1 -6.736642 -6.971276 -0.837128
600 0 1 -6.554503 -7.385455 0.058579
601 0 1 -6.379552 -6.841515 0.755447
602 0 1 -6.109403 -6.044716 1.225174
603 0 1 -6.542283 -6.058695 2.080811
604 0 1 -6.670602 -5.092236 2.342484
605 0 1 -5.770373 -5.172797 2.457474
606 0 1 -5.054154 -4.512166 2.577408
607 0 1 -5.623874 -3.791516 2.852921
608 0 1 -5.342774 -2.834475 2.741608
609 0 1 -5.502275 -1.867226 2.796356
610 0 1 -5.388913 -2.223156 1.874329
611 0 1 -5.707673 -1.367846 1.511795
612 0 1 -5.518342 -1.359666 0.552200
613 0 1 -6.364543 -1.485865 0.054993
614 0 1 -6.078834 -2.332386 -0.398132
615 0 1 -5.361444 -2.338055 -1.100830
616 0 1 -4.678723 -2.667315 -0.475647
617 0 1 -3.745214 -2.826735 -0.876022
618 0 1 -3.670394 -1.963626 -1.263229
619 0 1 -3.788854 -0.937476 -1.210235
620 0 1 -3.019103 -0.770997 -1.703781
621 0 1 -3.169023 -1.121766 -2.568054
622 0 1 -2.466243 -1.286055 -3.285675
623 0 1 -1.880303 -0.691405 -2.945938
624 0 1 -1.107614 -0.348185 -3.482788
625 0 1 -0.380473 -0.539345 -2.867615
626 0 1 0.312236 -0.886456 -2.228714
627 0 1 0.329686 -1.636077 -2.863266
628 0 1 1.258277 -1.484995 -2.589554
629 0 1 2.111207 -1.525176 -3.037903
630 0 1 1.774287 -1.547066 -3.994766
631 0 1 2.200047 -1.324196 -4.831177
632 0 1 2.407128 -1.503667 -5.736343
633 0 1 1.950297 -0.765925 -6.192184
634 0 1 2.655240 -0.339016 -6.709747
635 0 1 3.618627 -0.103564 -6.832825
636 0 1 3.867019 -0.427247 -5.948273
637 0 1 4.271438 0.042800 -5.209976
638 0 1 5.033038 0.550350 -5.581436
639 0 1 4.895389 1.187496 -6.299210
640 0 1 4.386317 1.400298 -7.166153
641 0 1 5.294955 1.529539 -7.423141
642 0 1 4.861259 1.792894 -8.265045
643 0 1 4.799308 1.329545 -9.088425
644 0 1 5.241187 1.424287 -9.960571
645 0 1 5.989718 1.988935 -9.995285
646 0 1 6.264865 1.054942 -9.908096
647 0 1 6.002585 0.507577 -10.613007
648 0 1 5.429515 -0.307375 -10.728302
649 0 1 4.660617 0.347856 -10.795395
650 0 1 3.732789 0.436384 -11.180206
651 0 1 3.464087 1.117713 -10.466904
652 0 1 3.771329 1.715724 -11.119797
653 0 1 4.465327 2.414983 -11.240906
654 0 1 4.700877 3.108606 -11.847305
655 0 1 3.997977 3.284864 -12.477493
656 0 1 3.945794 4.273973 -12.470398
657 0 1 3.294356 4.762434 -12.000000
658 0 1 3.095870 5.549413 -12.628906
659 0 1 2.548265 5.201364 -13.357803
660 0 1 2.880023 5.737066 -14.015396
661 0 1 3.733220 6.141565 -13.919693
662 0 1 3.223294 6.749883 -13.306793
663 0 1 2.942870 7.094064 -14.134094
664 0 1 3.761233 7.334054 -14.600998
665 0 1 4.481177 6.824243 -15.047104
666 0 1 5.187846 7.132154 -14.569595
667 0 1 5.459956 6.349233 -15.161697
668 0 1 6.469775 6.538244 -15.238403
669 0 1 7.099097 7.225076 -15.600800
670 0 1 7.650187 6.666204 -15.105698
671 0 1 7.420177 5.836484 -15.574493
672 0 1 6.854896 5.619504 -14.683807
673 0 1 6.091235 6.112085 -14.208298
674 0 1 6.261798 7.061685 -14.255600
675 0 1 6.628325 7.986166 -14.306396
676 0 1 6.316188 8.473542 -15.147202
677 0 1 6.010455 8.972524 -14.369705
678 0 1 5.169086 8.459394 -14.298798
679 0 1 4.436337 8.946843 -14.725601
680 0 1 3.726882 8.959153 -15.397797
681 0 1 4.132876 8.956223 -16.297302
682 0 1 4.579247 9.819283 -16.553299
683 0 1 5.069777 9.077142 -16.264893
684 0 1 5.728747 9.388154 -15.634308
685 0 1 5.853938 10.070832 -16.285904
686 0 1 6.725257 9.893144 -16.526794
687 0 1 6.256598 9.072442 -16.784393
688 0 1 6.424266 8.726602 -17.670197
689 0 1 6.185199 7.833494 -17.402893
690 0 1 6.950316 7.373525 -17.885803
691 0 1 6.567046 6.613214 -17.487198
692 0 1 6.915835 6.093805 -16.766098
693 0 1 7.634276 6.637056 -17.096802
694 0 1 8.410766 6.279474 -17.546295
695 0 1 9.073726 6.894865 -17.793793
696 0 1 9.935798 6.743413 -18.263596
697 0 1 9.399146 7.177015 -18.869598
698 0 1 9.716838 8.046964 -19.138397
699 0 1 8.936427 8.441915 -18.738708
700 0 1 8.268329 8.840005 -19.371002
701 0 1 7.629836 8.176744 -19.745697
702 0 1 7.613978 7.121343 -19.986099
703 0 1 8.246188 6.849863 -20.661606
704 0 1 7.744296 7.458295 -21.131500
705 0 1 6.863948 7.178083 -20.926300
706 0 1 6.153506 6.520494 -20.660095
707 0 1 5.646617 5.678213 -20.525299
708 0 1 5.239406 5.147604 -21.176102
709 0 1 4.464377 4.840723 -20.772400
710 0 1 3.834304 4.120862 -20.566696
711 0 1 3.152484 4.503545 -19.963501
712 0 1 3.607394 4.931783 -19.236404
713 0 1 3.281199 4.727685 -18.308899
714 0 1 2.773971 4.416914 -17.575806
715 0 1 2.924899 3.564065 -17.984894
716 0 1 3.503028 3.048166 -18.564896
717 0 1 2.922326 2.977983 -19.335098
718 0 1 2.461812 2.443883 -18.607697
719 0 1 3.076200 1.842534 -19.089798
720 0 1 3.225907 1.092018 -19.685501
721 0 1 3.910888 1.520080 -20.204102
722 0 1 4.811637 1.739715 -19.901901
723 0 1 4.985309 1.362844 -19.053406
724 0 1 4.332147 0.616725 -19.125397
725 0 1 4.927257 0.594039 -19.890106
726 0 1 5.413817 0.130056 -19.200699
727 0 1 6.188025 -0.416876 -19.096802
728 0 1 5.367927 -0.930167 -19.142700
729 0 1 5.652488 -1.801365 -18.774902
730 0 1 5.103335 -2.455765 -19.194504
731 0 1 4.490928 -1.861975 -19.604095
732 0 1 4.693667 -1.311215 -20.377396
733 0 1 4.173356 -0.469685 -20.596497
734 0 1 3.680392 -0.311366 -21.459702
735 0 1 3.201274 -0.352425 -22.288300
736 0 1 2.568580 0.258739 -22.746597
737 0 1 3.179473 1.077617 -22.654800
738 0 1 3.418839 1.764955 -22.036301
739 0 1 3.114337 2.301904 -22.766205
740 0 1 2.985353 3.160245 -22.190399
741 0 1 2.963769 4.121545 -22.023102
742 0 1 2.167787 4.574975 -22.176605
743 0 1 2.220592 4.409776 -23.115494
744 0 1 2.961946 4.336645 -23.835403
745 0 1 3.462750 5.047075 -23.313904
746 0 1 4.500447 4.852445 -23.281998
747 0 1 5.105956 5.265844 -22.699493
748 0 1 5.438636 5.880094 -23.406906
749 0 1 5.702498 6.752115 -23.185806
750 0 1 6.064086 6.519693 -22.374298
751 0 1 6.615317 5.721742 -22.523697
752 0 1 7.132976 5.265623 -23.196503
753 0 1 7.500865 5.422193 -24.078003
754 0 1 8.214248 4.768896 -24.042801
755 0 1 8.489718 4.303712 -24.797607
756 0 1 8.462115 4.698156 -25.661499
757 0 1 7.639556 5.059873 -26.011902
758 0 1 6.724528 5.173475 -25.604492
759 0 1 6.504169 5.660013 -26.364807
760 0 1 7.166858 5.923746 -27.036407
761 0 1 6.960635 6.838354 -26.797806
762 0 1 7.482768 7.587884 -27.085800
763 0 1 7.928916 8.118894 -27.779404
764 0 1 8.037627 8.912465 -28.319092
765 0 1 7.630927 9.753934 -27.969406
766 0 1 7.669658 9.749902 -27.049606
767 0 1 7.929236 8.944802 -26.507507
768 0 1 7.009448 8.953225 -26.554596
769 0 1 6.049537 8.933682 -26.717194
770 0 1 5.626956 8.325105 -26.165802
771 0 1 5.151568 7.734464 -26.731094
772 0 1 4.720298 8.003343 -27.480896
773 0 1 4.103286 7.489164 -27.983002
774 0 1 4.230056 7.119913 -28.960800
775 0 1 4.820758 7.792043 -29.394501
776 0 1 5.699885 7.950323 -29.806793
777 0 1 6.451648 7.404863 -29.978806
778 0 1 6.179336 6.974363 -29.142197
779 0 1 5.447928 7.168993 -28.540100
780 0 1 5.117518 6.590723 -29.260300
781 0 1 4.874606 5.940694 -29.891998
782 0 1 4.591598 5.842096 -28.938202
783 0 1 4.045119 4.996095 -28.949295