LAMMPS data file via MDAnalysis

        2000  atoms
        1999  bonds
           0  angles
           0  dihedrals
           0  impropers

           1  atom types
           1  bond types
           0  angle types
           0  dihedral types
           0  improper types

-30.5 30.5 xlo xhi
-30.5 30.5 ylo yhi
-233.5 233.5 zlo zhi


Masses

1 1.000000

Atoms

1 0 1 27.331196 -8.069724 42.809814
2 0 1 26.745796 -7.768725 42.086212
3 0 1 26.137497 -8.542584 42.387207
4 0 1 25.834896 -8.090476 43.248993
5 0 1 24.913898 -7.837415 43.184113
6 0 1 24.572399 -8.238725 43.995300
7 0 1 24.984196 -8.835065 43.361603
8 0 1 25.581799 -9.515235 42.913391
9 0 1 25.339397 -9.395064 41.942200
10 0 1 25.312199 -9.873515 41.061310
11 0 1 24.520298 -10.077384 40.567108
12 0 1 23.594696 -9.916274 40.435608
13 0 1 22.948696 -9.352454 40.960907
14 0 1 23.101696 -8.674766 41.681885
15 0 1 23.862896 -8.130084 41.843811
16 0 1 24.659199 -8.380416 41.320099
17 0 1 24.494396 -7.447375 40.958893
18 0 1 24.251499 -6.621545 41.242401
19 0 1 23.652195 -6.846175 42.111084
20 0 1 22.926197 -6.545785 42.609802
21 0 1 22.668797 -6.406356 41.645599
22 0 1 22.362995 -5.566215 41.452515
23 0 1 23.204998 -5.271945 41.739594
24 0 1 22.934498 -4.798005 41.001587
25 0 1 22.636799 -4.154254 41.713409
26 0 1 22.016994 -3.604327 42.228790
27 0 1 21.571198 -3.062526 42.941803
28 0 1 21.751896 -3.249648 43.875397
29 0 1 20.892097 -2.934812 44.088593
30 0 1 20.656696 -2.258992 43.401093
31 0 1 20.005199 -1.691754 42.900909
32 0 1 19.968796 -0.666556 42.887604
33 0 1 20.781895 -0.833106 43.398102
34 0 1 20.774494 0.143605 43.676605
35 0 1 20.993694 -0.228187 44.621704
36 0 1 20.297695 -0.320544 45.341095
37 0 1 19.371696 -0.070785 45.388397
38 0 1 19.996395 0.668343 45.376892
39 0 1 19.721798 0.940755 46.279602
40 0 1 19.891197 1.829564 46.420502
41 0 1 20.250698 2.294137 45.594299
42 0 1 20.814198 2.510224 46.419495
43 0 1 20.358196 2.776856 47.267609
44 0 1 20.651096 3.232736 48.154907
45 0 1 20.843998 2.682267 48.900085
46 0 1 21.059097 2.083215 49.622009
47 0 1 21.714096 2.147664 48.850891
48 0 1 21.984394 1.310945 48.546997
49 0 1 22.281796 1.289884 49.511200
50 0 1 22.810497 0.954266 50.199707
51 0 1 23.421196 1.589875 50.682312
52 0 1 23.706596 2.036054 51.509613
53 0 1 24.435795 1.626225 51.984497
54 0 1 24.772697 2.096124 51.225800
55 0 1 25.123699 1.495244 50.560699
56 0 1 25.682297 0.743047 50.694702
57 0 1 26.070698 0.113866 51.360992
58 0 1 26.194897 -0.679965 51.898315
59 0 1 26.445797 -1.715875 51.842712
60 0 1 27.091297 -2.476056 51.893097
61 0 1 26.236496 -2.782878 52.270905
62 0 1 26.894299 -2.835109 52.910309
63 0 1 27.799797 -2.777396 52.601501
64 0 1 27.728695 -1.906495 53.030487
65 0 1 27.572895 -2.195722 53.949585
66 0 1 26.648998 -2.465734 54.167694
67 0 1 26.785099 -1.732865 54.828003
68 0 1 26.257397 -1.055484 54.328613
69 0 1 26.010799 -0.285144 53.791901
70 0 1 25.716297 -0.123183 52.911713
71 0 1 24.900799 -0.515655 53.230286
72 0 1 25.067295 -1.276355 53.836304
73 0 1 24.579899 -2.144618 53.708893
74 0 1 23.891296 -2.033555 54.472504
75 0 1 23.307396 -2.595174 55.023804
76 0 1 23.376698 -2.550115 56.025909
77 0 1 23.754299 -3.392201 55.868011
78 0 1 24.228794 -4.155826 55.451691
79 0 1 23.493595 -4.551415 55.910004
80 0 1 23.732296 -5.209954 56.585297
81 0 1 23.606899 -6.109645 56.355103
82 0 1 23.275295 -6.810664 55.736389
83 0 1 23.228096 -5.898934 55.355591
84 0 1 22.682095 -5.155484 55.159302
85 0 1 21.872898 -4.481626 55.228516
86 0 1 21.512897 -3.716926 54.747101
87 0 1 22.212696 -4.189845 54.241699
88 0 1 21.985294 -4.708695 53.455292
89 0 1 21.291698 -4.835456 52.862701
90 0 1 20.417297 -4.533025 52.997101
91 0 1 19.541294 -4.223155 53.290192
92 0 1 19.297497 -3.291780 53.327087
93 0 1 18.675697 -2.562119 53.637909
94 0 1 19.046795 -2.101933 52.843689
95 0 1 19.411396 -2.198705 51.945709
96 0 1 19.663097 -2.978086 51.458893
97 0 1 20.366199 -2.513005 50.932098
98 0 1 20.810997 -3.412333 50.878113
99 0 1 19.949696 -3.657231 50.489502
100 0 1 19.134296 -3.981565 50.063995
101 0 1 18.901497 -3.133574 49.639893
102 0 1 18.118595 -3.009980 49.148315
103 0 1 17.181599 -3.023103 49.191895
104 0 1 16.352497 -2.901811 49.798401
105 0 1 17.024998 -3.384505 50.284393
106 0 1 17.826298 -3.596837 50.796692
107 0 1 18.150497 -4.448634 50.916992
108 0 1 18.088795 -5.365106 51.350586
109 0 1 18.133297 -6.247186 51.864288
110 0 1 18.750599 -6.975385 52.024506
111 0 1 17.799595 -7.278884 52.179016
112 0 1 17.985195 -6.785504 52.945496
113 0 1 17.844898 -7.662375 53.335602
114 0 1 18.488598 -8.183486 53.834991
115 0 1 18.832294 -8.800284 53.083099
116 0 1 18.969097 -9.137374 52.224213
117 0 1 17.996799 -9.158355 52.412201
118 0 1 18.169296 -9.774455 53.224915
119 0 1 18.044399 -10.763055 53.278015
120 0 1 18.178097 -11.548995 52.803802
121 0 1 18.886497 -11.731845 53.528198
122 0 1 19.633595 -12.355485 53.468689
123 0 1 20.548199 -12.081805 53.567596
124 0 1 20.313896 -11.606215 54.351288
125 0 1 19.402996 -11.351886 54.424896
126 0 1 19.775295 -10.517924 54.606812
127 0 1 20.682598 -10.416316 54.239685
128 0 1 20.299198 -10.602355 53.372192
129 0 1 20.299297 -11.032634 52.528412
130 0 1 19.825497 -11.405616 51.811798
131 0 1 19.023697 -11.753785 51.447601
132 0 1 18.559696 -12.362765 51.992004
133 0 1 17.783398 -12.651645 51.476013
134 0 1 17.235699 -12.233495 52.114410
135 0 1 16.312199 -12.257014 52.068207
136 0 1 15.347095 -12.600215 52.142212
137 0 1 14.578895 -13.189105 52.178284
138 0 1 14.724895 -13.961305 52.688904
139 0 1 15.304095 -14.621604 53.058807
140 0 1 15.455497 -15.615605 53.089294
141 0 1 16.011395 -16.188507 53.644897
142 0 1 15.239596 -16.909904 53.716705
143 0 1 14.812694 -17.785305 53.544403
144 0 1 15.166396 -18.713705 53.444000
145 0 1 14.307395 -19.160406 53.608002
146 0 1 14.119697 -19.887905 53.025391
147 0 1 14.480697 -20.539406 52.470612
148 0 1 14.342795 -21.317005 51.882111
149 0 1 13.595996 -21.931406 51.777802
150 0 1 13.386897 -22.654905 51.284912
151 0 1 12.738498 -23.096006 51.921387
152 0 1 12.323398 -23.946707 52.206909
153 0 1 12.002696 -24.095205 53.116608
154 0 1 11.890296 -23.699905 54.011810
155 0 1 12.239696 -24.594006 54.057709
156 0 1 13.171397 -24.694105 54.227295
157 0 1 13.437095 -24.618206 53.231384
158 0 1 12.887595 -25.355606 52.738800
159 0 1 12.434295 -24.949205 52.010193
160 0 1 13.209094 -24.820807 51.474609
161 0 1 13.088695 -24.961805 50.542297
162 0 1 12.868995 -25.500505 49.785492
163 0 1 13.640597 -25.772106 49.205902
164 0 1 13.073997 -25.509306 48.461090
165 0 1 13.334197 -25.000305 47.706512
166 0 1 14.264094 -25.191906 47.678711
167 0 1 15.155097 -24.980406 47.561096
168 0 1 15.701896 -24.300306 47.198303
169 0 1 15.335597 -23.414705 47.145508
170 0 1 14.764697 -23.689306 47.865112
171 0 1 14.457896 -22.818207 47.873199
172 0 1 14.922793 -21.997505 47.878784
173 0 1 15.661296 -21.782106 48.510986
174 0 1 16.388298 -21.212807 48.138306
175 0 1 16.279598 -20.939905 47.194611
176 0 1 15.994796 -20.151007 47.683594
177 0 1 15.106696 -19.970507 47.840912
178 0 1 14.408694 -19.368505 48.142303
179 0 1 14.860896 -18.569805 47.868500
180 0 1 14.384696 -18.778105 47.067505
181 0 1 13.534095 -18.624306 46.570984
182 0 1 12.537196 -18.729105 46.572296
183 0 1 11.743796 -19.108906 46.132202
184 0 1 10.839755 -18.668505 46.075409
185 0 1 10.726916 -18.088106 45.345215
186 0 1 11.344794 -18.810005 44.911804
187 0 1 10.688605 -18.508205 44.252594
188 0 1 10.731795 -17.515106 44.349304
189 0 1 11.572795 -17.524906 44.755615
190 0 1 12.396697 -17.245705 44.272003
191 0 1 12.990893 -17.066406 44.942596
192 0 1 12.907195 -16.225206 44.487305
193 0 1 13.691195 -15.713605 44.212311
194 0 1 14.230895 -14.853505 43.891785
195 0 1 13.714194 -14.554505 43.116089
196 0 1 12.862796 -14.203406 43.304688
197 0 1 12.523196 -13.419505 42.754089
198 0 1 11.991897 -13.685004 41.993805
199 0 1 11.862597 -14.485904 42.554504
200 0 1 10.988875 -14.437905 42.126312
201 0 1 10.290015 -13.995704 41.649506
202 0 1 9.689136 -13.236005 41.753693
203 0 1 8.919387 -13.237205 41.176086
204 0 1 8.401404 -13.901805 40.783691
205 0 1 7.546428 -13.522006 40.959595
206 0 1 6.909225 -12.906905 40.689789
207 0 1 6.986728 -12.605716 41.660583
208 0 1 6.021938 -12.784415 41.417999
209 0 1 5.118717 -12.586024 41.167603
210 0 1 5.379325 -12.029025 40.320801
211 0 1 5.455188 -11.616424 39.503784
212 0 1 5.160068 -10.747565 39.238312
213 0 1 5.594997 -9.898246 39.620300
214 0 1 4.845478 -9.428775 39.310303
215 0 1 4.543888 -9.116244 38.423706
216 0 1 4.000225 -9.573184 37.773315
217 0 1 4.240276 -10.519355 37.805603
218 0 1 3.335685 -10.460296 38.099213
219 0 1 2.868656 -10.222205 37.312012
220 0 1 2.193044 -10.426734 36.609985
221 0 1 1.620126 -11.213805 36.390106
222 0 1 0.727987 -11.591615 36.551605
223 0 1 0.511907 -11.391795 35.678497
224 0 1 -0.122794 -10.922324 36.283203
225 0 1 -0.255454 -10.018186 36.398193
226 0 1 -0.666714 -9.300015 35.935394
227 0 1 -0.353983 -9.325015 35.016785
228 0 1 -0.922135 -10.132354 34.966797
229 0 1 -1.797934 -9.829625 34.687592
230 0 1 -2.506224 -10.084195 34.076813
231 0 1 -2.647593 -9.252114 34.485992
232 0 1 -2.115674 -8.376334 34.622406
233 0 1 -2.206143 -7.381064 34.420990
234 0 1 -2.806454 -7.142165 33.570984
235 0 1 -2.929114 -8.142365 33.340607
236 0 1 -3.750304 -7.656125 33.513702
237 0 1 -4.493824 -8.141786 33.204193
238 0 1 -5.073504 -8.603225 32.600891
239 0 1 -5.306443 -9.036965 33.451508
240 0 1 -5.233714 -8.354125 34.212006
241 0 1 -5.310814 -7.974715 35.059387
242 0 1 -5.919924 -7.411296 34.688202
243 0 1 -6.547204 -6.777995 35.000397
244 0 1 -7.212954 -6.574164 35.715302
245 0 1 -8.065873 -6.414845 36.078186
246 0 1 -8.571843 -5.718524 35.806793
247 0 1 -8.607144 -4.767135 35.556885
248 0 1 -7.915375 -5.012185 34.930115
249 0 1 -7.362204 -4.577975 35.638092
250 0 1 -7.445534 -4.615825 36.572601
251 0 1 -7.391163 -5.084775 37.396393
252 0 1 -6.721493 -5.642184 37.029694
253 0 1 -6.135733 -6.130555 37.780792
254 0 1 -6.561894 -6.213395 38.691193
255 0 1 -6.785424 -7.150815 38.841095
256 0 1 -7.104424 -8.066146 39.206696
257 0 1 -8.018106 -8.026875 39.388916
258 0 1 -7.751374 -7.163146 39.282593
259 0 1 -8.308894 -6.973855 40.031708
260 0 1 -7.659985 -6.983655 40.708496
261 0 1 -8.348134 -6.962825 41.322205
262 0 1 -8.479703 -7.890244 41.562408
263 0 1 -8.498525 -8.590766 40.886902
264 0 1 -7.913655 -9.224376 41.265991
265 0 1 -7.488175 -9.750276 41.876495
266 0 1 -8.085275 -10.494035 41.902588
267 0 1 -7.263443 -10.778195 42.353699
268 0 1 -7.150744 -11.138144 43.217010
269 0 1 -7.553174 -10.696574 44.012909
270 0 1 -8.340814 -11.260966 43.832703
271 0 1 -8.820905 -11.367995 42.983398
272 0 1 -8.852506 -11.854455 42.208801
273 0 1 -9.540505 -12.416884 42.623199
274 0 1 -9.808404 -11.501464 42.325012
275 0 1 -10.046803 -11.582715 43.252899
276 0 1 -10.620605 -11.498954 44.041412
277 0 1 -10.045403 -11.957105 44.647095
278 0 1 -9.919805 -12.020614 45.634613
279 0 1 -9.356706 -11.363465 45.265686
280 0 1 -8.568074 -11.419864 45.795593
281 0 1 -8.159144 -10.964076 46.595306
282 0 1 -7.432944 -10.324355 46.552490
283 0 1 -7.365674 -10.268695 47.494812
284 0 1 -7.124943 -9.481175 48.063812
285 0 1 -7.902375 -8.905215 48.395508
286 0 1 -7.457955 -8.960006 49.257904
287 0 1 -7.832114 -9.542495 49.902405
288 0 1 -8.240085 -8.768575 50.101501
289 0 1 -8.948403 -9.411685 50.394196
290 0 1 -8.309844 -9.195285 51.151001
291 0 1 -8.149045 -10.002225 51.659088
292 0 1 -8.797404 -10.662696 51.766113
293 0 1 -9.106305 -11.029056 52.614807
294 0 1 -9.713304 -10.557044 53.088593
295 0 1 -10.221005 -10.217435 53.822113
296 0 1 -9.935905 -9.314055 54.144501
297 0 1 -10.790704 -9.268275 53.841614
298 0 1 -10.813004 -9.702146 53.014801
299 0 1 -10.937104 -10.688125 53.120789
300 0 1 -11.874604 -10.337316 53.074493
301 0 1 -11.669705 -10.290275 53.994995
302 0 1 -12.550204 -10.586495 54.061890
303 0 1 -12.992204 -9.751435 54.312317
304 0 1 -12.424504 -9.749045 55.112305
305 0 1 -13.170403 -9.544055 55.682312
306 0 1 -13.207204 -8.854035 56.415100
307 0 1 -14.048004 -8.332725 56.551514
308 0 1 -14.541704 -7.502784 56.355103
309 0 1 -15.183904 -7.230334 55.693512
310 0 1 -14.675505 -7.976155 55.378693
311 0 1 -14.327604 -7.084195 55.103210
312 0 1 -14.425505 -6.536654 54.230896
313 0 1 -14.313905 -7.177966 53.518311
314 0 1 -14.123605 -6.451955 52.974487
315 0 1 -14.541305 -6.950564 52.297394
316 0 1 -14.991303 -7.312745 51.555603
317 0 1 -15.038104 -6.699534 50.808807
318 0 1 -14.780805 -6.242234 49.951294
319 0 1 -15.353904 -6.020366 49.172699
320 0 1 -14.707304 -5.814515 48.542908
321 0 1 -13.716105 -5.913825 48.454010
322 0 1 -13.498704 -6.774474 48.195007
323 0 1 -12.625504 -7.071345 48.056702
324 0 1 -12.519506 -6.506005 47.249512
325 0 1 -12.652104 -5.698066 47.723999
326 0 1 -11.877004 -5.065785 47.665100
327 0 1 -11.922404 -4.342814 46.944489
328 0 1 -11.501103 -3.524776 46.714813
329 0 1 -11.016105 -4.218925 46.312592
330 0 1 -10.631703 -4.740415 45.492004
331 0 1 -11.533904 -4.860564 45.271484
332 0 1 -11.259004 -4.804904 44.364685
333 0 1 -12.121205 -4.343184 44.429108
334 0 1 -12.692504 -4.579555 43.695007
335 0 1 -13.575404 -5.032346 43.509399
336 0 1 -13.503604 -5.232055 42.576996
337 0 1 -14.295505 -5.659434 42.882996
338 0 1 -13.999305 -6.474416 43.287415
339 0 1 -13.978905 -7.335994 42.910095
340 0 1 -14.245504 -7.210315 42.047394
341 0 1 -13.807204 -7.387046 41.173492
342 0 1 -13.737205 -8.366546 41.291290
343 0 1 -13.980305 -8.791955 40.449890
344 0 1 -14.213004 -8.083255 39.786896
345 0 1 -15.074204 -8.431254 39.537292
346 0 1 -15.292905 -7.787065 40.195709
347 0 1 -15.759204 -7.006526 39.951904
348 0 1 -16.337004 -6.238786 39.974609
349 0 1 -16.632103 -5.922845 39.092407
350 0 1 -17.233404 -5.398536 38.564392
351 0 1 -16.881504 -4.595605 39.069794
352 0 1 -17.414703 -4.089675 38.447510
353 0 1 -16.759403 -3.517661 37.940887
354 0 1 -16.088003 -4.062705 37.454285
355 0 1 -16.564203 -3.717275 36.717194
356 0 1 -16.903803 -4.547435 36.434998
357 0 1 -17.774803 -4.604695 36.078308
358 0 1 -18.284004 -4.321916 35.398895
359 0 1 -18.287603 -5.302985 35.228699
360 0 1 -18.799204 -5.705495 35.930695
361 0 1 -19.005003 -5.840804 36.878784
362 0 1 -18.570904 -5.007705 36.848999
363 0 1 -18.207203 -4.123275 37.240295
364 0 1 -19.033503 -4.133004 37.682892
365 0 1 -19.631104 -3.407937 37.386597
366 0 1 -20.122803 -2.508044 37.316193
367 0 1 -19.751204 -1.695664 37.534607
368 0 1 -20.285904 -1.052814 37.977997
369 0 1 -21.303003 -1.025077 38.038696
370 0 1 -21.964403 -0.844054 37.346100
371 0 1 -21.964104 -1.352077 36.510101
372 0 1 -21.865004 -1.878276 35.578796
373 0 1 -22.323603 -2.675649 35.681610
374 0 1 -23.058702 -3.300942 35.749695
375 0 1 -23.415003 -4.106204 35.327606
376 0 1 -23.886103 -4.002885 34.529114
377 0 1 -24.345604 -4.891105 34.687317
378 0 1 -23.686304 -5.371816 34.093109
379 0 1 -22.861004 -4.968154 33.687317
380 0 1 -22.276403 -4.941815 32.943298
381 0 1 -22.340204 -5.865865 32.506805
382 0 1 -22.307003 -6.375035 31.688995
383 0 1 -21.627304 -6.505445 32.401917
384 0 1 -20.825804 -5.923764 32.407593
385 0 1 -21.169903 -5.054706 32.058716
386 0 1 -21.189804 -4.293765 31.459808
387 0 1 -21.320103 -3.387042 31.810608
388 0 1 -21.809004 -3.018928 30.981201
389 0 1 -21.647604 -3.440543 30.098602
390 0 1 -21.493803 -3.776746 29.164093
391 0 1 -22.339203 -4.171226 28.838593
392 0 1 -22.937304 -3.587806 28.398895
393 0 1 -22.857704 -3.061223 27.620697
394 0 1 -23.565403 -3.771710 27.318787
395 0 1 -24.507504 -3.838235 27.201996
396 0 1 -25.347403 -3.299106 27.108307
397 0 1 -25.727404 -2.976806 26.265808
398 0 1 -26.027403 -2.041202 26.515289
399 0 1 -25.129103 -1.929524 26.255707
400 0 1 -24.725903 -2.282269 25.457397
401 0 1 -24.432302 -3.112105 25.139801
402 0 1 -24.877604 -3.953240 24.891785
403 0 1 -25.825703 -4.149005 25.151611
404 0 1 -25.783403 -3.328122 24.635986
405 0 1 -25.602404 -2.525504 24.015198
406 0 1 -25.908604 -3.237447 23.407715
407 0 1 -25.768003 -3.805451 22.644714
408 0 1 -25.110403 -4.226834 23.191803
409 0 1 -24.192703 -4.462625 23.167786
410 0 1 -24.294603 -3.962134 22.347198
411 0 1 -24.164803 -4.030604 21.403793
412 0 1 -23.765303 -3.126342 21.160095
413 0 1 -24.415604 -3.204366 20.480698
414 0 1 -24.503403 -2.313281 20.869598
415 0 1 -23.818003 -2.301145 20.134201
416 0 1 -23.015303 -2.837565 20.087097
417 0 1 -23.447903 -2.864713 19.226395
418 0 1 -23.670504 -2.943046 18.264297
419 0 1 -23.629503 -2.138591 17.768402
420 0 1 -24.168604 -2.455827 17.050797
421 0 1 -24.197304 -2.692407 16.092804
422 0 1 -23.626604 -3.320790 15.702393
423 0 1 -24.115904 -3.413026 14.899704
424 0 1 -25.089903 -3.458255 14.660095
425 0 1 -24.935904 -3.765500 13.751999
426 0 1 -24.501703 -4.370425 13.143005
427 0 1 -25.340403 -4.088454 12.744995
428 0 1 -25.099903 -4.883544 12.211502
429 0 1 -24.480604 -4.237235 12.014496
430 0 1 -24.805103 -3.336514 11.769302
431 0 1 -24.882704 -2.670146 11.053406
432 0 1 -23.957403 -2.644870 10.727203
433 0 1 -24.437304 -3.507730 10.576294
434 0 1 -23.881804 -4.176085 11.097397
435 0 1 -23.387304 -3.808738 11.883194
436 0 1 -22.780504 -4.536716 12.023895
437 0 1 -23.215603 -5.389504 11.974396
438 0 1 -23.555004 -5.549125 11.090607
439 0 1 -23.300303 -4.921765 10.358307
440 0 1 -22.648703 -5.123935 9.684341
441 0 1 -22.809103 -5.539405 8.834045
442 0 1 -22.816204 -6.350884 9.506653
443 0 1 -22.018803 -6.747054 9.035950
444 0 1 -21.238403 -7.049224 8.576813
445 0 1 -20.511003 -7.490035 8.078674
446 0 1 -20.989103 -7.174254 7.255905
447 0 1 -21.248703 -8.081794 7.276245
448 0 1 -21.979403 -7.582404 7.049805
449 0 1 -22.538603 -7.493335 6.265747
450 0 1 -23.451603 -7.283715 5.999344
451 0 1 -23.435404 -7.262605 5.032776
452 0 1 -23.648804 -6.353076 4.763763
453 0 1 -23.545504 -5.623975 4.172058
454 0 1 -23.578304 -5.121425 5.004440
455 0 1 -23.400303 -4.277455 5.348175
456 0 1 -23.088003 -4.371896 4.370087
457 0 1 -22.336004 -4.247355 3.817444
458 0 1 -22.337803 -3.431989 3.319763
459 0 1 -22.597904 -2.563760 3.575485
460 0 1 -22.178904 -3.039897 4.340179
461 0 1 -21.309004 -3.302978 4.629425
462 0 1 -21.398804 -3.328574 3.711319
463 0 1 -21.528904 -2.772864 2.828430
464 0 1 -21.617702 -2.003711 3.378082
465 0 1 -21.393204 -1.977529 4.352036
466 0 1 -21.169304 -1.205546 4.828323
467 0 1 -22.025904 -0.894836 4.631897
468 0 1 -22.256203 -1.517785 5.316559
469 0 1 -22.113104 -1.979167 6.135849
470 0 1 -21.486204 -2.705810 6.299103
471 0 1 -21.929804 -3.566741 6.436905
472 0 1 -21.335703 -3.710219 7.184799
473 0 1 -20.529404 -4.240186 7.418365
474 0 1 -19.755104 -4.552646 7.002975
475 0 1 -18.841904 -4.460746 6.862976
476 0 1 -19.434004 -3.979804 6.229660
477 0 1 -19.672203 -4.306495 5.384583
478 0 1 -18.984903 -3.879931 4.799942
479 0 1 -18.776503 -2.967809 4.516266
480 0 1 -18.535103 -2.427665 3.787140
481 0 1 -18.495703 -3.080907 3.084793
482 0 1 -19.042904 -2.291533 2.891907
483 0 1 -18.555103 -1.544635 2.555145
484 0 1 -19.275404 -0.984183 3.028763
485 0 1 -19.060604 -0.016696 2.918533
486 0 1 -19.550404 0.479264 2.243546
487 0 1 -19.331303 1.095605 1.527863
488 0 1 -18.780003 1.754937 1.024887
489 0 1 -19.202404 2.440446 0.530685
490 0 1 -19.933603 2.784104 0.076874
491 0 1 -20.079103 2.975854 -0.875443
492 0 1 -19.456503 2.652627 -1.623535
493 0 1 -19.368204 1.711724 -1.298477
494 0 1 -19.148903 0.924886 -1.852066
495 0 1 -19.900904 0.738065 -1.189178
496 0 1 -20.733603 0.217206 -1.274475
497 0 1 -21.162903 -0.331496 -1.881790
498 0 1 -20.621403 -0.211677 -2.641876
499 0 1 -19.930103 -0.102054 -3.305054
500 0 1 -20.671303 -0.414657 -3.819839
501 0 1 -20.610203 0.089406 -4.642075
502 0 1 -20.238104 0.937966 -4.805298
503 0 1 -20.279404 1.894506 -5.002853
504 0 1 -21.065403 2.495084 -4.963486
505 0 1 -21.975903 2.293485 -5.258087
506 0 1 -22.130903 1.548924 -5.950577
507 0 1 -22.589104 0.731366 -6.225174
508 0 1 -23.128004 1.551435 -6.286682
509 0 1 -23.681404 1.510293 -5.555695
510 0 1 -24.419403 1.500356 -6.166565
511 0 1 -25.356604 1.764787 -6.318527
512 0 1 -25.161903 0.861504 -6.649124
513 0 1 -25.724003 0.059724 -6.316498
514 0 1 -25.721903 -0.861465 -6.410385
515 0 1 -25.643003 -0.665584 -5.462753
516 0 1 -25.784103 -1.411376 -4.944855
517 0 1 -26.128103 -0.915034 -4.173370
518 0 1 -26.386904 -0.044444 -3.987427
519 0 1 -26.161203 0.116796 -3.050354
520 0 1 -26.860003 -0.212665 -2.493393
521 0 1 -27.088104 -0.166266 -1.466949
522 0 1 -26.639503 -0.224124 -0.531860
523 0 1 -26.581503 0.155045 0.360199
524 0 1 -26.443203 1.070916 0.540695
525 0 1 -26.068804 1.658246 1.205490
526 0 1 -25.217804 1.981595 1.338959
527 0 1 -25.511604 2.898534 0.993805
528 0 1 -24.656704 3.266774 1.113464
529 0 1 -23.870804 3.052903 1.519547
530 0 1 -23.668404 2.575734 2.314484
531 0 1 -22.708403 2.732766 2.287903
532 0 1 -22.274403 2.932885 1.429764
533 0 1 -22.209803 2.607236 0.415466
534 0 1 -22.070904 3.527764 0.222473
535 0 1 -21.614004 3.851846 1.024292
536 0 1 -21.329803 4.760076 0.798706
537 0 1 -20.531603 4.554475 1.219666
538 0 1 -20.699404 4.038026 2.054214
539 0 1 -20.086803 4.468366 2.694244
540 0 1 -19.964603 3.700616 3.354187
541 0 1 -19.701803 4.468904 3.809006
542 0 1 -18.955404 4.591725 4.411804
543 0 1 -18.149904 5.109956 4.587097
544 0 1 -18.048403 5.379216 5.518265
545 0 1 -18.360104 5.103566 6.347824
546 0 1 -18.580004 6.040906 6.439636
547 0 1 -18.709303 6.924813 6.083801
548 0 1 -18.475803 7.238996 6.889664
549 0 1 -17.945004 7.004876 7.672623
550 0 1 -17.117403 6.579064 7.366425
551 0 1 -17.193703 5.841615 7.965439
552 0 1 -16.338003 5.511785 8.240005
553 0 1 -16.099604 4.969514 8.996002
554 0 1 -15.287105 5.278474 8.496353
555 0 1 -14.959905 4.912217 9.330032
556 0 1 -14.218004 5.046826 8.755188
557 0 1 -14.177404 5.970574 8.362900
558 0 1 -14.091704 6.316026 7.366943
559 0 1 -13.960505 7.282693 7.445526
560 0 1 -14.426604 8.023694 7.720764
561 0 1 -14.661604 8.128095 6.780289
562 0 1 -14.657604 8.941895 6.107895
563 0 1 -14.793504 9.114396 7.038376
564 0 1 -14.569804 9.917295 6.567902
565 0 1 -14.849105 10.911794 6.490540
566 0 1 -15.364604 10.924695 7.354294
567 0 1 -15.377305 11.878495 7.020233
568 0 1 -15.292905 12.491395 6.276245
569 0 1 -15.182605 13.094697 5.493347
570 0 1 -14.349404 13.020394 5.014542
571 0 1 -13.686005 13.741593 5.081848
572 0 1 -12.756305 13.712895 5.339691
573 0 1 -12.177903 14.296594 4.854370
574 0 1 -11.328704 14.253297 4.403107
575 0 1 -10.929303 14.429193 3.496216
576 0 1 -10.552705 14.006494 2.774323
577 0 1 -10.842404 13.492795 1.981583
578 0 1 -11.013404 14.372396 1.770660
579 0 1 -10.898904 14.800996 0.906601
580 0 1 -10.451804 14.752694 0.102798
581 0 1 -10.666703 13.822694 -0.048187
582 0 1 -11.632705 13.776994 -0.198029
583 0 1 -11.463605 12.759995 -0.227829
584 0 1 -12.461503 12.741296 -0.133499
585 0 1 -12.720204 13.635697 0.212357
586 0 1 -12.851605 14.401895 -0.389481
587 0 1 -13.412805 15.203595 -0.340347
588 0 1 -12.823705 15.931397 -0.115799
589 0 1 -13.325705 15.725198 0.635239
590 0 1 -12.479703 16.123596 0.882462
591 0 1 -11.859605 16.436195 1.540970
592 0 1 -11.148105 16.137192 2.140854
593 0 1 -11.867404 15.942994 2.721710
594 0 1 -12.158605 16.811893 2.584763
595 0 1 -12.759404 16.758797 3.273270
596 0 1 -11.839204 16.931694 3.550995
597 0 1 -11.305905 17.206493 4.332275
598 0 1 -12.017304 17.832294 4.156845
599 0 1 -11.487805 18.129093 4.924408
600 0 1 -10.658803 18.157494 4.402084
601 0 1 -10.133603 17.589996 3.909988
602 0 1 -10.434104 17.443596 2.994263
603 0 1 -10.086904 16.532593 2.745514
604 0 1 -10.002604 15.636598 3.138245
605 0 1 -9.684403 14.826898 2.730377
606 0 1 -8.827905 14.415395 2.738586
607 0 1 -8.752374 14.901994 3.545776
608 0 1 -7.894913 15.364896 3.481567
609 0 1 -8.444165 15.439996 2.685333
610 0 1 -8.589784 15.497895 1.674927
611 0 1 -8.701095 16.470993 1.524094
612 0 1 -9.538606 16.917892 1.464844
613 0 1 -9.087605 16.958496 2.327744
614 0 1 -8.725024 17.862595 2.349564
615 0 1 -8.726415 18.749191 2.001923
616 0 1 -7.809924 18.577694 2.087082
617 0 1 -7.875884 19.514397 2.353012
618 0 1 -8.112355 19.000893 3.200485
619 0 1 -8.206143 19.596191 3.988159
620 0 1 -9.157004 19.584595 3.896805
621 0 1 -9.454206 20.006294 4.714233
622 0 1 -9.851005 20.278496 5.630356
623 0 1 -9.237805 20.965794 5.933624
624 0 1 -9.651404 21.773193 5.603745
625 0 1 -9.775504 22.457394 4.958038
626 0 1 -9.664403 22.816292 4.104218
627 0 1 -10.344106 22.141994 4.004593
628 0 1 -10.209805 21.208893 3.673523
629 0 1 -10.700604 21.369595 2.853821
630 0 1 -10.086705 20.827492 2.339554
631 0 1 -9.399505 20.623795 1.696213
632 0 1 -8.467053 20.837994 1.493790
633 0 1 -7.636334 20.803696 1.989059
634 0 1 -6.639433 21.060993 2.051331
635 0 1 -6.942833 21.886395 1.815781
636 0 1 -7.215834 22.326195 2.561111
637 0 1 -7.345883 23.059792 3.202698
638 0 1 -8.168675 22.911797 2.678040
639 0 1 -7.524344 23.352894 2.137924
640 0 1 -6.734644 23.878494 2.124725
641 0 1 -5.831244 24.068295 2.280487
642 0 1 -6.132653 24.698494 3.011398
643 0 1 -6.356474 25.403694 3.528503
644 0 1 -5.898613 25.196194 4.344528
645 0 1 -5.759844 24.686592 5.206970
646 0 1 -6.421185 24.409996 5.834213
647 0 1 -6.644223 24.974995 6.559143
648 0 1 -6.425404 24.380394 7.243225
649 0 1 -6.012314 23.525093 7.341370
650 0 1 -6.273043 22.815392 6.571274
651 0 1 -5.595913 22.277496 6.963654
652 0 1 -4.697705 22.166794 6.531937
653 0 1 -4.843964 21.147694 6.353897
654 0 1 -5.436644 20.537594 5.957306
655 0 1 -5.264904 21.380997 5.363846
656 0 1 -4.496853 21.371391 4.731613
657 0 1 -3.710114 21.083595 5.274216
658 0 1 -3.125865 21.237991 6.089294
659 0 1 -3.683924 20.978195 6.811874
660 0 1 -2.948445 20.319992 6.572464
661 0 1 -2.170744 20.782993 6.330933
662 0 1 -1.658034 21.187695 5.651108
663 0 1 -1.881314 20.321793 5.311737
664 0 1 -1.817284 19.715492 4.535645
665 0 1 -1.345644 20.361595 3.910522
666 0 1 -2.207324 20.444893 3.389679
667 0 1 -2.987494 21.006393 3.600937
668 0 1 -3.147173 20.782593 2.726517
669 0 1 -2.762623 21.322296 2.038223
670 0 1 -2.905274 21.141891 1.041046
671 0 1 -3.642205 20.795395 1.456696
672 0 1 -4.050385 20.543793 0.635620
673 0 1 -4.478384 21.242393 0.115799
674 0 1 -3.761633 21.689594 -0.357559
675 0 1 -3.558323 21.466293 -1.223404
676 0 1 -3.502264 20.498795 -1.346375
677 0 1 -3.519673 20.082893 -0.496429
678 0 1 -2.629735 20.309196 -0.679565
679 0 1 -2.539614 20.162594 -1.630478
680 0 1 -2.142434 19.349594 -1.983047
681 0 1 -2.706244 18.517094 -2.132889
682 0 1 -2.489834 17.625195 -1.839539
683 0 1 -1.656193 17.647694 -1.477371
684 0 1 -1.073374 17.529892 -2.290543
685 0 1 -0.978104 16.783493 -2.944519
686 0 1 -0.112843 17.052994 -2.619904
687 0 1 0.494758 17.028496 -1.844727
688 0 1 0.181886 16.152596 -1.977936
689 0 1 0.267322 15.979897 -1.024429
690 0 1 0.581731 16.367592 -0.225739
691 0 1 0.757745 15.535195 0.338577
692 0 1 -0.109894 15.150495 0.539551
693 0 1 -0.402533 14.272096 0.167633
694 0 1 -1.298523 13.876496 0.077927
695 0 1 -1.695633 13.264695 -0.550964
696 0 1 -2.377493 12.610196 -0.784668
697 0 1 -1.903803 11.803594 -0.779236
698 0 1 -1.119044 11.420693 -0.339706
699 0 1 -0.772254 10.721093 0.283432
700 0 1 -1.477913 10.867593 0.872192
701 0 1 -1.536774 9.906095 0.900818
702 0 1 -0.968714 9.636395 0.261566
703 0 1 -1.560814 8.893994 0.029922
704 0 1 -2.443404 8.927194 -0.365601
705 0 1 -2.125664 8.037293 -0.567993
706 0 1 -1.326693 8.022695 -1.223587
707 0 1 -1.721043 7.288896 -1.742325
708 0 1 -2.071564 7.591393 -2.584564
709 0 1 -1.528723 8.341897 -2.612732
710 0 1 -0.843504 8.749795 -3.160339
711 0 1 0.050836 8.573094 -2.670654
712 0 1 0.428056 9.093896 -1.996399
713 0 1 1.302827 9.443795 -2.063553
714 0 1 1.685611 9.716496 -1.227905
715 0 1 2.134389 10.373296 -1.855499
716 0 1 2.250616 9.882794 -2.651184
717 0 1 2.324195 10.320996 -3.499924
718 0 1 2.449916 11.113496 -2.929428
719 0 1 2.019550 11.260896 -3.826767
720 0 1 1.501771 11.760495 -3.112610
721 0 1 0.916576 12.380097 -3.432922
722 0 1 1.219907 12.987397 -4.207092
723 0 1 1.551462 13.859895 -3.914856
724 0 1 2.248376 13.855695 -3.200424
725 0 1 2.703376 13.686894 -2.399780
726 0 1 2.319057 12.939897 -1.924194
727 0 1 2.418306 13.075196 -0.943069
728 0 1 1.854208 12.286695 -1.143127
729 0 1 1.730352 12.050393 -0.169800
730 0 1 1.132198 11.766995 0.518417
731 0 1 0.232259 11.477094 0.798737
732 0 1 0.384101 11.260194 1.776886
733 0 1 0.871587 10.922696 2.535065
734 0 1 0.697050 10.238294 3.210205
735 0 1 1.631498 10.365594 3.150925
736 0 1 1.840215 9.647897 3.787033
737 0 1 1.820756 8.694894 3.940704
738 0 1 2.723705 8.482896 3.776886
739 0 1 2.435747 7.577096 3.794815
740 0 1 2.246316 6.781976 4.302414
741 0 1 1.920328 6.729455 5.198395
742 0 1 2.588956 7.226396 5.607895
743 0 1 3.058208 7.226995 4.726639
744 0 1 3.884315 6.726975 4.591873
745 0 1 3.612365 6.186765 5.354156
746 0 1 3.256065 5.858277 4.503235
747 0 1 3.267677 6.133714 3.553314
748 0 1 2.807266 5.526803 3.009628
749 0 1 2.469646 4.728246 3.337936
750 0 1 3.333637 4.310166 3.161865
751 0 1 3.603786 3.364495 3.261536
752 0 1 4.215477 3.545434 3.962997
753 0 1 4.597587 4.411145 3.949966
754 0 1 4.417697 5.070893 4.565613
755 0 1 5.135047 5.017774 5.225784
756 0 1 5.439456 5.834924 4.902115
757 0 1 6.013706 5.365907 5.634506
758 0 1 6.573066 6.118184 5.346252
759 0 1 7.335018 5.744737 5.711487
760 0 1 7.201648 5.579675 6.664642
761 0 1 6.331207 5.403356 7.040024
762 0 1 6.560817 5.347306 7.945282
763 0 1 6.663795 5.308366 8.949646
764 0 1 5.888965 4.652833 9.154846
765 0 1 6.071147 5.247964 9.857529
766 0 1 5.166008 5.574174 9.698044
767 0 1 5.396224 6.199216 8.954895
768 0 1 6.117916 6.912614 8.952927
769 0 1 5.532238 7.016744 8.212051
770 0 1 4.618236 7.044194 8.699066
771 0 1 3.868385 6.501485 8.992096
772 0 1 3.365715 5.663957 8.793228
773 0 1 2.772525 5.256345 9.458221
774 0 1 1.988414 5.040776 8.995239
775 0 1 1.215749 5.627606 9.143173
776 0 1 0.413290 5.324906 9.694702
777 0 1 -0.086394 5.786206 8.959854
778 0 1 -0.588685 6.456445 9.381546
779 0 1 -1.384844 6.846734 9.814972
780 0 1 -2.315175 6.627206 10.020508
781 0 1 -2.325083 7.419194 10.535599
782 0 1 -2.393193 7.503594 11.520096
783 0 1 -3.288064 7.271394 11.595093
784 0 1 -4.197224 7.588895 11.485992