LAMMPS data file via MDAnalysis

        2000  atoms
        1999  bonds
           0  angles
           0  dihedrals
           0  impropers

           1  atom types
           1  bond types
           0  angle types
           0  dihedral types
           0  improper types

-30.5 30.5 xlo xhi
-30.5 30.5 ylo yhi
-233.5 233.5 zlo zhi


Masses

1 1.000000

Atoms

1 0 1 9.584171 -15.111882 56.651489
2 0 1 9.439022 -15.112081 57.542206
3 0 1 8.841244 -14.407170 57.738190
4 0 1 8.092625 -14.086972 57.216003
5 0 1 7.459983 -14.275872 57.964905
6 0 1 6.997303 -13.972142 57.224701
7 0 1 6.182342 -14.568381 57.448700
8 0 1 5.235141 -14.504882 57.631409
9 0 1 5.848402 -14.537881 58.349792
10 0 1 5.515512 -13.960671 59.021698
11 0 1 4.848564 -14.564681 59.410095
12 0 1 4.082027 -14.219522 59.791107
13 0 1 3.336563 -14.812781 59.831512
14 0 1 2.719572 -15.135282 60.496307
15 0 1 2.023782 -14.712182 61.105591
16 0 1 2.258533 -13.958642 61.533203
17 0 1 1.438682 -13.606771 61.041595
18 0 1 0.972723 -12.896043 61.552307
19 0 1 1.754312 -12.881612 62.159393
20 0 1 1.694383 -12.110282 62.721985
21 0 1 2.341772 -11.607923 62.319702
22 0 1 1.979862 -11.131032 63.084503
23 0 1 2.503292 -10.980142 63.891510
24 0 1 2.424453 -9.966792 64.052307
25 0 1 3.321693 -9.655122 64.324890
26 0 1 2.851522 -8.982282 63.772308
27 0 1 2.976742 -7.994332 63.875488
28 0 1 2.065012 -8.129531 63.668304
29 0 1 1.130123 -8.215512 63.372711
30 0 1 0.518863 -7.593551 63.750916
31 0 1 -0.402558 -7.793792 64.120300
32 0 1 0.108963 -7.186551 64.717499
33 0 1 -0.047198 -8.068351 64.977112
34 0 1 0.535652 -7.532502 65.562408
35 0 1 -0.140238 -7.499402 66.274414
36 0 1 0.172012 -8.327622 66.548096
37 0 1 -0.738268 -8.582871 66.912292
38 0 1 -0.891148 -8.111962 67.737610
39 0 1 -1.146468 -7.241281 67.995697
40 0 1 -1.240319 -6.657102 67.178406
41 0 1 -1.136288 -6.177581 66.378204
42 0 1 -0.433216 -6.111081 65.626099
43 0 1 -0.657399 -5.167987 65.893188
44 0 1 -1.227988 -5.401916 65.095703
45 0 1 -1.770438 -4.873937 65.644989
46 0 1 -2.114987 -4.239888 66.237915
47 0 1 -3.044808 -4.598487 66.217285
48 0 1 -3.610188 -3.875779 66.426300
49 0 1 -3.839657 -2.896802 66.370117
50 0 1 -4.183346 -2.055852 66.424316
51 0 1 -4.267869 -1.423723 65.653198
52 0 1 -4.808747 -1.579900 64.893402
53 0 1 -5.619347 -1.971383 64.564209
54 0 1 -6.578148 -1.892232 64.644104
55 0 1 -7.151047 -2.421430 65.149200
56 0 1 -6.424946 -2.513601 65.791595
57 0 1 -6.375348 -2.630433 66.746216
58 0 1 -7.166647 -2.673623 67.308197
59 0 1 -7.877848 -2.110860 66.901917
60 0 1 -7.533749 -1.252031 66.568695
61 0 1 -8.470747 -1.030351 66.705292
62 0 1 -8.226347 -0.145864 66.364594
63 0 1 -8.176847 -0.025792 65.435913
64 0 1 -7.951647 0.927008 65.698303
65 0 1 -7.171248 1.464350 65.896790
66 0 1 -7.682549 2.309607 65.601685
67 0 1 -8.358448 2.975520 65.358002
68 0 1 -8.271048 3.849608 65.749390
69 0 1 -7.490948 4.132426 65.189087
70 0 1 -6.696448 4.143508 64.610809
71 0 1 -6.189747 3.492377 64.137207
72 0 1 -5.553647 3.538039 63.425903
73 0 1 -5.362217 4.379298 63.301605
74 0 1 -5.938847 4.326758 62.515686
75 0 1 -6.756348 3.800898 62.459900
76 0 1 -7.714547 4.121348 62.318695
77 0 1 -8.259346 3.417559 61.842896
78 0 1 -7.979847 2.543547 61.778198
79 0 1 -8.094448 1.964030 61.076691
80 0 1 -7.924447 1.435076 61.895508
81 0 1 -8.046349 1.002799 62.785492
82 0 1 -8.036549 0.086287 63.148315
83 0 1 -8.783247 -0.445790 62.919403
84 0 1 -9.701046 -0.243192 62.600189
85 0 1 -10.491548 0.027850 63.069489
86 0 1 -10.693347 -0.608213 63.722504
87 0 1 -11.148347 -1.012952 64.538391
88 0 1 -11.960648 -1.468091 64.469391
89 0 1 -11.654947 -2.143792 63.805298
90 0 1 -11.789248 -2.835363 64.478699
91 0 1 -12.770647 -3.271171 64.531189
92 0 1 -12.408348 -4.178781 64.433990
93 0 1 -12.442947 -5.150308 64.208984
94 0 1 -11.627747 -5.698010 64.029419
95 0 1 -11.829048 -6.484342 64.535706
96 0 1 -10.992948 -6.694421 65.062195
97 0 1 -10.698247 -6.028991 64.416016
98 0 1 -10.901147 -5.277259 65.080017
99 0 1 -11.362647 -4.470944 65.290497
100 0 1 -11.370647 -3.530105 65.703186
101 0 1 -10.931647 -3.012401 66.446289
102 0 1 -11.701347 -2.634771 66.964691
103 0 1 -12.013348 -3.085801 67.762299
104 0 1 -12.121548 -2.868352 68.669617
105 0 1 -11.799847 -2.086133 69.007690
106 0 1 -12.515347 -1.953420 69.648682
107 0 1 -12.436148 -0.978341 69.529999
108 0 1 -11.746748 -0.281343 69.735901
109 0 1 -11.855146 0.032180 70.709290
110 0 1 -11.865547 -0.900430 71.195892
111 0 1 -11.290547 -1.683660 71.078491
112 0 1 -11.065547 -2.169732 71.837189
113 0 1 -12.006147 -2.267312 71.640503
114 0 1 -11.863947 -3.145011 71.788605
115 0 1 -11.844147 -3.060882 72.781982
116 0 1 -12.591146 -3.032232 73.313293
117 0 1 -13.344847 -3.590228 73.233582
118 0 1 -13.842546 -3.157851 73.973297
119 0 1 -13.568348 -2.380662 73.488586
120 0 1 -12.734747 -2.347753 74.032990
121 0 1 -12.532948 -2.678724 74.898987
122 0 1 -12.187347 -1.768781 75.051697
123 0 1 -11.704247 -1.115033 74.550110
124 0 1 -10.978848 -1.806493 74.270905
125 0 1 -10.325848 -1.658761 74.943207
126 0 1 -9.813648 -1.299623 75.678406
127 0 1 -8.988647 -0.828401 75.498505
128 0 1 -8.044647 -0.678693 75.583893
129 0 1 -8.120947 -1.261522 74.822388
130 0 1 -7.212348 -1.587930 74.898010
131 0 1 -7.082148 -2.066880 75.720703
132 0 1 -6.454148 -2.850873 75.454407
133 0 1 -6.691348 -3.786491 75.587006
134 0 1 -5.741248 -3.780565 75.551208
135 0 1 -5.133118 -4.283034 76.099091
136 0 1 -5.303227 -4.698089 76.923889
137 0 1 -5.788548 -5.165614 77.646606
138 0 1 -6.096749 -6.073861 77.604889
139 0 1 -6.357548 -6.221751 78.521912
140 0 1 -6.620846 -7.116971 78.536682
141 0 1 -5.988049 -7.232661 79.241089
142 0 1 -5.950348 -8.180791 79.645386
143 0 1 -5.172738 -7.966132 79.176819
144 0 1 -4.225258 -8.251542 79.026093
145 0 1 -4.067917 -7.834172 78.134308
146 0 1 -3.545857 -7.221751 77.605408
147 0 1 -3.907337 -6.478421 77.159302
148 0 1 -4.112446 -6.156041 76.297791
149 0 1 -3.515368 -5.496781 76.074799
150 0 1 -3.109738 -5.161283 76.858490
151 0 1 -2.421997 -4.832940 76.317108
152 0 1 -1.922987 -4.305686 75.646790
153 0 1 -1.543467 -4.634381 74.814301
154 0 1 -0.628788 -4.849055 75.129517
155 0 1 -0.840287 -5.164979 75.960999
156 0 1 -1.209578 -5.850911 75.345490
157 0 1 -0.548706 -6.340802 74.846802
158 0 1 -1.246918 -7.000781 75.213684
159 0 1 -2.148648 -7.232322 74.781982
160 0 1 -2.418127 -8.117732 74.493713
161 0 1 -2.942137 -8.138951 73.763916
162 0 1 -3.019957 -7.724801 72.865204
163 0 1 -2.971108 -8.413192 72.254303
164 0 1 -2.420428 -9.147370 71.791016
165 0 1 -1.538088 -9.571261 71.590698
166 0 1 -1.507817 -9.489430 72.556793
167 0 1 -1.653328 -9.177932 73.446289
168 0 1 -0.912876 -8.797711 73.897797
169 0 1 -1.291909 -8.076550 73.484802
170 0 1 -0.879957 -7.382102 73.896606
171 0 1 -0.123288 -7.817271 73.393707
172 0 1 -0.041527 -7.624202 74.383301
173 0 1 0.631902 -7.787641 75.098907
174 0 1 -0.143017 -7.182111 75.316193
175 0 1 0.127971 -6.460172 75.862915
176 0 1 0.797712 -6.330401 76.553589
177 0 1 1.779522 -6.457582 76.519104
178 0 1 1.404943 -6.648301 75.696503
179 0 1 1.172453 -6.291032 74.808594
180 0 1 1.718122 -6.962491 74.414093
181 0 1 2.296682 -6.620131 73.639496
182 0 1 3.104542 -6.939071 73.997589
183 0 1 3.101602 -7.641301 73.325806
184 0 1 3.993797 -7.527781 72.963196
185 0 1 4.577920 -6.778131 72.982910
186 0 1 4.787551 -6.736482 73.902191
187 0 1 4.767459 -7.237081 74.725403
188 0 1 5.379087 -6.984891 75.407715
189 0 1 5.220853 -7.749372 75.913391
190 0 1 4.578001 -8.409532 76.208893
191 0 1 3.957729 -8.782582 76.852295
192 0 1 4.516912 -8.562522 77.597290
193 0 1 5.103023 -9.412341 77.518890
194 0 1 4.130828 -9.511582 77.541382
195 0 1 3.665951 -9.567002 78.350189
196 0 1 2.840702 -10.127141 78.425293
197 0 1 3.605327 -10.600881 77.949493
198 0 1 4.455085 -10.926972 77.669098
199 0 1 4.129930 -11.654662 77.113281
200 0 1 3.958091 -12.316052 77.797211
201 0 1 4.272539 -12.013152 78.673492
202 0 1 3.629059 -11.539311 79.153809
203 0 1 4.150253 -10.806481 79.492798
204 0 1 4.582536 -10.055963 79.969299
205 0 1 4.274076 -9.339831 79.396393
206 0 1 3.840358 -8.536653 79.104492
207 0 1 3.185392 -8.317401 78.473907
208 0 1 3.242073 -7.681962 79.174194
209 0 1 3.266332 -7.623631 80.220215
210 0 1 3.354152 -6.759761 79.855713
211 0 1 4.161138 -6.730882 79.239105
212 0 1 4.766321 -6.140021 79.755188
213 0 1 4.765239 -5.859611 80.683990
214 0 1 4.589937 -5.140243 79.988190
215 0 1 3.784977 -5.284255 80.435699
216 0 1 4.500810 -5.043410 81.089203
217 0 1 5.408119 -5.179858 81.172791
218 0 1 5.344064 -4.800338 82.143311
219 0 1 5.888662 -4.853601 82.924805
220 0 1 6.475852 -5.104692 83.688202
221 0 1 5.948263 -5.858012 83.823395
222 0 1 6.473461 -6.057841 83.057007
223 0 1 5.697563 -5.992091 82.517792
224 0 1 4.813920 -6.182691 82.265900
225 0 1 5.093038 -6.993922 81.815186
226 0 1 5.935552 -7.315532 82.117004
227 0 1 6.494163 -8.097682 82.322693
228 0 1 5.807842 -8.663981 82.718903
229 0 1 6.491802 -8.769082 83.367706
230 0 1 6.155544 -9.741042 83.715881
231 0 1 6.965141 -10.126771 83.248291
232 0 1 7.362861 -10.582150 84.000000
233 0 1 8.052391 -10.185542 84.567810
234 0 1 8.746731 -9.868920 85.052307
235 0 1 9.536022 -9.355351 84.864319
236 0 1 9.950954 -8.886552 84.128906
237 0 1 9.625782 -8.990512 83.165283
238 0 1 10.446373 -8.943852 82.734802
239 0 1 11.296112 -8.710160 83.085815
240 0 1 11.947704 -8.560712 82.413300
241 0 1 12.608974 -7.932391 82.091400
242 0 1 11.942474 -7.487132 82.606689
243 0 1 12.417282 -6.728122 82.187195
244 0 1 13.293713 -6.436070 82.174408
245 0 1 13.255692 -6.791142 83.121216
246 0 1 12.545712 -6.449712 83.664001
247 0 1 12.056324 -7.123811 84.256592
248 0 1 11.960693 -6.150882 84.497589
249 0 1 12.362194 -5.445037 83.979187
250 0 1 12.637573 -4.686006 83.448090
251 0 1 12.295784 -4.913465 82.604004
252 0 1 12.327713 -5.613721 81.946716
253 0 1 12.279552 -5.707520 81.047211
254 0 1 12.355831 -5.683902 80.106293
255 0 1 11.947872 -6.210761 79.448090
256 0 1 12.118053 -6.543992 78.587311
257 0 1 12.593773 -7.403752 78.692291
258 0 1 13.212582 -7.347831 77.938782
259 0 1 13.927372 -7.495021 77.200104
260 0 1 14.708954 -8.029241 77.286804
261 0 1 14.166523 -8.765191 77.671692
262 0 1 14.330612 -9.343051 78.396698
263 0 1 14.508553 -10.053021 77.803406
264 0 1 14.848854 -10.263612 76.936798
265 0 1 15.827251 -10.461402 77.216003
266 0 1 16.524353 -10.507432 77.808899
267 0 1 15.843552 -10.978871 78.337311
268 0 1 15.403652 -11.746022 77.854187
269 0 1 14.765751 -11.545411 77.198181
270 0 1 14.703754 -12.576962 77.281708
271 0 1 14.427593 -13.460912 77.679901
272 0 1 13.529461 -13.295371 77.949310
273 0 1 12.792763 -13.127023 77.407898
274 0 1 12.787132 -12.963962 76.384003
275 0 1 12.227093 -13.169072 75.620483
276 0 1 11.972034 -12.873311 74.646790
277 0 1 11.692184 -12.445420 73.824799
278 0 1 11.810902 -11.626863 73.355896
279 0 1 12.609211 -11.644122 73.903503
280 0 1 13.307072 -12.363601 73.954498
281 0 1 12.977962 -13.184590 73.765289
282 0 1 12.934982 -13.772931 72.968506
283 0 1 13.849632 -14.041081 73.210388
284 0 1 14.284393 -14.354661 72.400208
285 0 1 14.266544 -15.303582 72.713409
286 0 1 13.887833 -16.144682 72.343506
287 0 1 13.085293 -15.632482 72.473694
288 0 1 12.285133 -15.831281 71.918884
289 0 1 12.123402 -16.325382 71.040894
290 0 1 11.999233 -15.310983 71.069611
291 0 1 11.391373 -15.239581 71.867310
292 0 1 10.883831 -14.862882 71.093506
293 0 1 10.444721 -15.601380 71.483398
294 0 1 10.592503 -16.539183 71.510193
295 0 1 10.227692 -17.402884 71.266510
296 0 1 10.092754 -16.731081 70.552704
297 0 1 9.848404 -17.531183 70.064789
298 0 1 10.805672 -17.456182 70.315613
299 0 1 10.977253 -17.432682 69.364685
300 0 1 10.984974 -17.752481 68.417389
301 0 1 11.717922 -17.358482 67.815002
302 0 1 10.984673 -16.719881 67.776001
303 0 1 10.878834 -16.349382 66.921387
304 0 1 11.336182 -16.607983 66.147491
305 0 1 11.352764 -16.142483 65.281403
306 0 1 10.513092 -16.694283 65.194702
307 0 1 10.066853 -16.350782 64.355591
308 0 1 10.384403 -15.661382 64.938904
309 0 1 10.782944 -15.267682 64.151184
310 0 1 9.891804 -15.484483 63.830200
311 0 1 9.751072 -15.274081 62.861603
312 0 1 8.856003 -15.184781 63.117493
313 0 1 8.977505 -16.090483 62.840698
314 0 1 8.128452 -16.015982 63.301605
315 0 1 7.881073 -15.078181 63.578003
316 0 1 8.272903 -14.219792 63.205292
317 0 1 8.191803 -13.256282 63.401794
318 0 1 9.087933 -12.976792 63.651093
319 0 1 8.993912 -12.028481 63.510406
320 0 1 8.792564 -11.174741 63.982788
321 0 1 9.726803 -10.941062 63.915192
322 0 1 9.593933 -9.990672 64.133118
323 0 1 9.372913 -10.009822 63.124207
324 0 1 9.942394 -9.252351 63.064606
325 0 1 9.441704 -8.729081 62.415710
326 0 1 8.625862 -8.567250 63.051208
327 0 1 8.415203 -7.898971 62.396393
328 0 1 7.891803 -7.610812 61.697296
329 0 1 8.378021 -7.862611 60.806000
330 0 1 8.068851 -7.016131 60.565704
331 0 1 8.128304 -6.589742 59.740204
332 0 1 7.819202 -6.085521 58.987305
333 0 1 6.872692 -5.764762 59.153595
334 0 1 7.442783 -5.026830 59.151917
335 0 1 7.763134 -5.235345 58.239410
336 0 1 8.701424 -5.026639 58.113098
337 0 1 9.132233 -4.100705 57.953888
338 0 1 9.658943 -4.190419 57.130096
339 0 1 10.495464 -3.710246 57.328796
340 0 1 9.840591 -3.122352 57.601685
341 0 1 10.210213 -2.251012 57.221893
342 0 1 10.050083 -2.225831 56.210815
343 0 1 10.465923 -2.506833 55.397491
344 0 1 10.002892 -2.859681 54.661011
345 0 1 10.610882 -2.153932 54.376801
346 0 1 9.956902 -1.943464 53.691284
347 0 1 9.221352 -1.531472 54.087189
348 0 1 8.707932 -1.322831 54.837799
349 0 1 8.712742 -0.382692 54.828094
350 0 1 9.469643 0.092047 55.284210
351 0 1 8.615662 0.522357 55.272797
352 0 1 7.871292 0.882788 55.885101
353 0 1 7.425773 0.139338 56.300201
354 0 1 7.397243 -0.711633 56.839203
355 0 1 7.160961 -1.374822 57.577698
356 0 1 6.981262 -2.281621 57.831604
357 0 1 6.144523 -2.302331 57.384888
358 0 1 6.539432 -3.141851 57.102112
359 0 1 6.570343 -3.320981 56.118988
360 0 1 5.605762 -3.045722 56.270203
361 0 1 5.120143 -2.359563 55.945404
362 0 1 5.070064 -1.677411 55.235901
363 0 1 4.730144 -2.059572 54.440094
364 0 1 4.715269 -2.405771 53.554810
365 0 1 4.465143 -2.114011 52.673401
366 0 1 4.969350 -1.681573 51.983490
367 0 1 5.359519 -0.776120 51.662109
368 0 1 4.512681 -0.444963 52.023193
369 0 1 3.743345 -0.653943 51.541595
370 0 1 2.875923 -1.016641 51.196106
371 0 1 1.991823 -0.912214 51.515289
372 0 1 0.984472 -0.917112 51.447205
373 0 1 0.748012 -0.279882 52.123688
374 0 1 0.019573 -0.890233 52.085297
375 0 1 -0.427897 -1.532872 52.620209
376 0 1 -0.590428 -2.452821 52.739594
377 0 1 -1.546458 -2.588033 52.570801
378 0 1 -1.523018 -1.972173 53.323608
379 0 1 -1.246277 -2.980262 53.523590
380 0 1 -2.179157 -3.102702 53.411407
381 0 1 -2.140337 -2.896112 54.433594
382 0 1 -2.363188 -3.912606 54.480713
383 0 1 -3.076576 -4.138135 55.158691
384 0 1 -2.811398 -4.959445 55.533508
385 0 1 -3.189318 -5.803752 55.726990
386 0 1 -3.499916 -5.404679 56.542389
387 0 1 -3.934536 -5.763741 57.312103
388 0 1 -4.825009 -5.985051 57.419983
389 0 1 -5.534028 -5.588111 58.057312
390 0 1 -6.030247 -5.665141 58.887604
391 0 1 -5.398077 -6.133941 59.442413
392 0 1 -4.520758 -6.421111 59.666016
393 0 1 -3.902107 -6.803151 58.957092
394 0 1 -3.235848 -7.276462 59.414795
395 0 1 -2.885638 -6.926652 58.548004
396 0 1 -3.454558 -7.511462 57.993500
397 0 1 -3.770558 -8.268331 57.506500
398 0 1 -3.678698 -8.655871 56.672211
399 0 1 -4.583348 -8.847722 56.984009
400 0 1 -4.065897 -9.594750 56.669800
401 0 1 -3.605278 -10.416020 56.407806
402 0 1 -4.352559 -10.924592 56.676605
403 0 1 -5.022477 -11.500371 56.981903
404 0 1 -4.755377 -12.215852 57.513489
405 0 1 -3.986866 -12.596730 57.952393
406 0 1 -4.111098 -12.953191 56.981995
407 0 1 -4.483887 -13.821141 56.783691
408 0 1 -5.433648 -13.699502 56.430206
409 0 1 -5.438366 -13.843171 55.468689
410 0 1 -6.118947 -14.036832 54.777588
411 0 1 -6.911847 -14.530581 54.802094
412 0 1 -7.332148 -14.472020 55.632599
413 0 1 -7.180546 -15.403281 55.714691
414 0 1 -8.108448 -15.227681 55.362610
415 0 1 -8.490047 -15.492482 56.120605
416 0 1 -8.508747 -16.443083 56.017700
417 0 1 -7.569647 -16.518982 55.735107
418 0 1 -6.718747 -16.296083 55.332489
419 0 1 -5.817647 -16.185482 54.937195
420 0 1 -5.723748 -17.034582 54.414917
421 0 1 -5.397976 -17.996983 54.336090
422 0 1 -4.729428 -18.476183 53.891907
423 0 1 -5.277388 -18.249983 53.118011
424 0 1 -4.616858 -18.163483 52.427002
425 0 1 -4.764767 -17.308983 51.914001
426 0 1 -3.976116 -16.830881 51.595703
427 0 1 -3.980208 -17.825483 51.727203
428 0 1 -3.322357 -18.381182 51.226898
429 0 1 -3.551148 -17.623083 50.722107
430 0 1 -2.812077 -17.056383 50.511993
431 0 1 -2.388787 -16.193182 50.464294
432 0 1 -2.353688 -15.361680 49.998688
433 0 1 -1.483668 -14.995282 50.073090
434 0 1 -1.469647 -15.448781 49.270813
435 0 1 -0.673807 -15.995782 49.227905
436 0 1 0.003812 -16.677584 49.101990
437 0 1 0.593013 -17.312384 49.551605
438 0 1 -0.236138 -17.545483 49.946289
439 0 1 -0.003027 -18.376383 50.379517
440 0 1 -0.410128 -18.989782 49.839417
441 0 1 -0.913428 -19.826181 49.924896
442 0 1 -1.187168 -20.222681 50.794495
443 0 1 -1.823307 -20.605282 51.428101
444 0 1 -2.449288 -20.797583 52.149689
445 0 1 -2.510157 -20.863182 53.148102
446 0 1 -1.548888 -20.537682 53.285706
447 0 1 -1.412117 -20.858282 54.223999
448 0 1 -2.040957 -21.442982 53.855896
449 0 1 -2.685227 -22.127583 53.944702
450 0 1 -2.389588 -22.882683 53.409210
451 0 1 -1.521298 -23.347382 53.348816
452 0 1 -2.165697 -23.909483 53.844208
453 0 1 -2.468657 -24.014183 52.962799
454 0 1 -3.061638 -24.681282 53.539917
455 0 1 -3.151087 -25.510582 54.025208
456 0 1 -3.846657 -25.931482 53.570587
457 0 1 -4.588498 -25.833282 54.194397
458 0 1 -4.999497 -25.030783 54.595215
459 0 1 -5.900248 -25.217382 54.386902
460 0 1 -6.069748 -25.016283 53.439911
461 0 1 -6.502347 -25.810383 53.039703
462 0 1 -7.255248 -26.408182 52.718597
463 0 1 -7.541647 -25.492983 53.016998
464 0 1 -8.271446 -24.851383 53.112305
465 0 1 -8.814346 -24.754581 53.933899
466 0 1 -9.458847 -24.114582 54.007202
467 0 1 -10.362647 -24.460583 53.890503
468 0 1 -10.874447 -25.279982 53.519012
469 0 1 -10.337748 -24.853483 52.834290
470 0 1 -10.804347 -24.008883 52.894409
471 0 1 -11.708147 -23.788282 52.766205
472 0 1 -11.148848 -22.997581 52.508789
473 0 1 -10.929847 -22.118282 52.267609
474 0 1 -10.518447 -21.695782 51.533905
475 0 1 -11.063248 -22.406082 51.287109
476 0 1 -11.538047 -21.530983 50.970215
477 0 1 -12.042547 -21.816183 50.189606
478 0 1 -11.864548 -21.885883 49.256104
479 0 1 -12.404346 -22.167982 48.379791
480 0 1 -12.814247 -21.520782 47.747803
481 0 1 -12.521547 -20.766283 47.132812
482 0 1 -11.728348 -20.421082 47.288391
483 0 1 -12.246048 -20.179583 48.083191
484 0 1 -12.406948 -19.225983 47.996490
485 0 1 -11.667547 -19.011183 47.392395
486 0 1 -11.128847 -19.529383 48.048004
487 0 1 -10.329547 -20.122982 48.113403
488 0 1 -10.266647 -21.059782 48.125610
489 0 1 -9.326447 -20.824383 48.355713
490 0 1 -9.492147 -21.639282 48.830200
491 0 1 -8.598648 -22.033182 48.804504
492 0 1 -8.389946 -21.932083 47.872192
493 0 1 -7.726647 -21.270882 47.909698
494 0 1 -7.542847 -21.370182 48.901398
495 0 1 -7.379448 -20.533382 49.291809
496 0 1 -6.959649 -20.555082 50.193298
497 0 1 -6.084347 -20.948683 50.264404
498 0 1 -5.991848 -21.840883 50.010712
499 0 1 -5.503108 -21.377182 49.364899
500 0 1 -5.930748 -20.452482 49.318787
501 0 1 -6.001948 -20.050882 48.450195
502 0 1 -5.270989 -19.551382 48.747009
503 0 1 -4.641636 -20.236782 49.107788
504 0 1 -4.498589 -20.324081 48.179901
505 0 1 -5.055218 -20.989582 48.603394
506 0 1 -5.297408 -21.217182 47.671600
507 0 1 -5.181649 -21.599382 46.862000
508 0 1 -4.846337 -21.840282 45.991608
509 0 1 -4.434659 -21.101383 46.354187
510 0 1 -5.270937 -20.859482 45.959808
511 0 1 -5.307919 -20.034983 45.460693
512 0 1 -5.900248 -20.102482 44.749390
513 0 1 -5.646147 -20.699183 44.069794
514 0 1 -4.768248 -20.340881 44.214905
515 0 1 -4.158429 -20.967682 43.726501
516 0 1 -3.492867 -20.758682 43.002991
517 0 1 -3.684807 -20.191782 42.217194
518 0 1 -3.173786 -20.906683 41.806793
519 0 1 -2.204697 -21.035582 41.566193
520 0 1 -2.665497 -21.790382 41.420502
521 0 1 -3.429487 -22.080383 41.853699
522 0 1 -4.203688 -22.601582 41.576508
523 0 1 -5.135058 -22.325783 41.386108
524 0 1 -5.858748 -21.892782 41.895691
525 0 1 -6.779248 -21.792683 42.211914
526 0 1 -7.072648 -21.937582 41.256989
527 0 1 -7.467047 -21.073183 41.028595
528 0 1 -7.739548 -20.110682 41.080994
529 0 1 -7.971249 -19.244781 41.395203
530 0 1 -7.303048 -19.030783 42.062805
531 0 1 -7.182148 -18.835981 43.006500
532 0 1 -7.032748 -17.926481 42.912689
533 0 1 -7.668948 -17.301882 42.914490
534 0 1 -8.272648 -18.049683 43.001801
535 0 1 -7.890648 -17.935781 42.097107
536 0 1 -7.711148 -17.023182 41.746490
537 0 1 -8.642548 -17.049582 41.724091
538 0 1 -8.440147 -17.018883 40.746704
539 0 1 -8.023346 -16.167282 40.304504
540 0 1 -8.338348 -16.746983 39.588593
541 0 1 -9.146347 -16.839382 39.095703
542 0 1 -9.777946 -17.592283 38.832794
543 0 1 -10.524647 -18.013681 39.173706
544 0 1 -11.306247 -17.743883 39.662201
545 0 1 -11.875248 -18.350882 40.003510
546 0 1 -11.144547 -17.987482 40.653198
547 0 1 -10.541448 -17.269983 40.524414
548 0 1 -10.216347 -16.446482 40.862915
549 0 1 -11.174848 -16.372084 41.075287
550 0 1 -12.049147 -16.016083 40.953308
551 0 1 -12.666348 -15.944383 41.772095
552 0 1 -12.383347 -15.942681 42.722198
553 0 1 -12.061247 -15.096181 43.071503
554 0 1 -11.685247 -14.383370 43.498596
555 0 1 -11.249147 -13.493691 43.362091
556 0 1 -10.919747 -13.958982 42.610687
557 0 1 -11.016447 -13.016690 42.482300
558 0 1 -10.284247 -12.585732 42.864685
559 0 1 -9.789948 -11.838181 42.530792
560 0 1 -9.526947 -11.454551 41.671997
561 0 1 -9.049347 -10.786111 41.152405
562 0 1 -9.315746 -10.525521 42.010986
563 0 1 -9.633047 -9.643382 42.257507
564 0 1 -8.952847 -9.271781 41.686096
565 0 1 -8.358747 -9.395961 42.453308
566 0 1 -7.575348 -8.990182 42.865295
567 0 1 -7.005349 -9.754331 43.164093
568 0 1 -6.155549 -9.462960 43.392090
569 0 1 -5.272938 -9.726521 43.707306
570 0 1 -5.585846 -9.373851 44.535187
571 0 1 -5.473076 -8.598651 44.008698
572 0 1 -5.170468 -7.800942 44.542786
573 0 1 -4.272877 -7.635282 44.758789
574 0 1 -3.365029 -7.385251 44.508698
575 0 1 -2.913527 -6.628221 44.209503
576 0 1 -2.437687 -6.568021 43.425415
577 0 1 -1.699818 -5.927691 43.232605
578 0 1 -0.992558 -5.857991 43.924316
579 0 1 -1.051737 -6.075992 44.904602
580 0 1 -1.840126 -6.342811 45.410187
581 0 1 -1.794068 -7.015431 46.094116
582 0 1 -2.638088 -6.724452 46.371704
583 0 1 -2.820917 -7.029801 45.493408
584 0 1 -3.658367 -6.587562 45.250305
585 0 1 -4.254008 -6.341821 44.518616
586 0 1 -4.890587 -6.789271 44.009705
587 0 1 -5.469567 -7.092561 43.321411
588 0 1 -6.247548 -6.861630 42.866608
589 0 1 -5.869748 -6.591041 42.031616
590 0 1 -5.086049 -7.129821 41.690704
591 0 1 -4.615378 -7.753722 42.352417
592 0 1 -4.286839 -7.519422 43.230591
593 0 1 -3.495999 -6.966432 43.082611
594 0 1 -3.778958 -6.982072 42.152802
595 0 1 -3.210818 -6.383962 41.562103
596 0 1 -2.448187 -6.287591 40.973511
597 0 1 -1.888417 -6.151332 40.125183
598 0 1 -2.737057 -6.471702 39.814392
599 0 1 -3.309658 -5.879212 40.258301
600 0 1 -2.866217 -5.380544 39.510101
601 0 1 -3.584118 -5.961982 39.392212
602 0 1 -4.433999 -6.246852 39.011688
603 0 1 -4.814908 -5.359569 38.879608
604 0 1 -5.202229 -4.541600 39.162201
605 0 1 -5.547146 -3.665628 38.963409
606 0 1 -6.244048 -3.591413 38.376404
607 0 1 -6.274449 -3.985717 37.474396
608 0 1 -5.582749 -3.329683 37.350586
609 0 1 -5.054966 -3.750821 36.645508
610 0 1 -5.400078 -2.996122 36.179596
611 0 1 -4.744048 -2.646180 35.667389
612 0 1 -4.034367 -2.279290 36.200897
613 0 1 -3.645138 -1.384343 36.369995
614 0 1 -2.711027 -1.212022 36.319092
615 0 1 -2.909477 -0.533483 36.927704
616 0 1 -3.090357 0.326487 37.430603
617 0 1 -3.551987 -0.035321 38.208191
618 0 1 -3.755867 -0.777513 38.739990
619 0 1 -3.497097 -1.478273 39.424316
620 0 1 -4.219319 -1.285161 39.989685
621 0 1 -4.918377 -1.898992 39.734497
622 0 1 -5.211848 -2.003122 40.597809
623 0 1 -4.992598 -1.169992 41.054016
624 0 1 -4.459797 -1.173803 41.867004
625 0 1 -4.612027 -0.357183 42.295807
626 0 1 -3.742327 0.018569 41.880798
627 0 1 -3.006138 -0.467160 42.192291
628 0 1 -2.554337 0.381739 42.224304
629 0 1 -1.588726 0.214267 42.162292
630 0 1 -1.314389 -0.437810 41.527405
631 0 1 -1.270558 -1.303743 41.018890
632 0 1 -2.074278 -0.796090 40.808105
633 0 1 -1.960266 -1.140641 39.951996
634 0 1 -2.235577 -0.543203 39.188416
635 0 1 -1.762017 -1.068872 38.540802
636 0 1 -0.906517 -0.873731 38.307983
637 0 1 -0.495957 -0.025563 38.066589
638 0 1 0.347482 0.265128 38.362610
639 0 1 0.157343 0.932879 39.044891
640 0 1 -0.189108 1.001677 39.934296
641 0 1 -0.889447 1.296389 39.358398
642 0 1 -1.531597 1.933768 38.870605
643 0 1 -2.042017 2.479529 38.276001
644 0 1 -2.641136 3.092189 38.626190
645 0 1 -2.208798 3.372210 39.442200
646 0 1 -1.815297 3.796637 38.628601
647 0 1 -1.243328 3.066279 38.502289
648 0 1 -0.902767 2.444228 37.909790
649 0 1 -0.877007 3.044749 37.134308
650 0 1 -1.446978 3.862010 37.123505
651 0 1 -1.768248 3.185618 36.570099
652 0 1 -2.302128 2.735759 35.829712
653 0 1 -2.547638 2.299189 36.708710
654 0 1 -3.277718 2.468497 37.360596
655 0 1 -3.958168 2.947909 36.759705
656 0 1 -3.671837 3.843219 37.101410
657 0 1 -2.697808 4.044509 36.980499
658 0 1 -2.681807 4.397548 36.116913
659 0 1 -2.413857 5.047210 35.461304
660 0 1 -2.412197 6.050418 35.512085
661 0 1 -3.235428 6.510921 35.434296
662 0 1 -2.464447 7.098418 35.386810
663 0 1 -1.559237 7.117118 35.168488
664 0 1 -0.927178 7.786220 35.339996
665 0 1 -0.699658 8.116118 34.509491
666 0 1 0.032901 8.079818 35.160309
667 0 1 0.278824 7.319419 34.463196
668 0 1 0.707742 7.163718 35.324890
669 0 1 0.492042 7.131618 36.259399
670 0 1 1.390333 7.194419 36.752502
671 0 1 2.236822 7.569320 36.782715
672 0 1 3.051693 7.577319 36.325989
673 0 1 2.567133 8.419318 36.237915
674 0 1 1.869083 8.847919 36.748199
675 0 1 1.293653 8.947818 35.906891
676 0 1 0.771373 9.748118 35.902710
677 0 1 1.253612 10.416018 35.395294
678 0 1 1.927513 10.881419 35.854004
679 0 1 1.896692 11.115520 34.939514
680 0 1 2.564262 10.641418 34.539398
681 0 1 2.165582 9.993220 33.975098
682 0 1 2.847372 9.753016 33.347504
683 0 1 2.933693 10.296718 32.578186
684 0 1 2.089432 10.198421 32.097595
685 0 1 2.399532 10.763518 31.388397
686 0 1 2.035532 11.553920 31.921387
687 0 1 1.333862 11.084117 31.510895
688 0 1 0.408773 10.691817 31.437805
689 0 1 -0.192747 10.240619 30.965088
690 0 1 -0.161858 10.538920 30.044800
691 0 1 -0.229428 11.171119 29.231689
692 0 1 -1.137108 11.202121 28.891510
693 0 1 -1.328688 10.574618 28.154602
694 0 1 -1.982457 10.020820 27.773407
695 0 1 -2.428368 10.481219 27.022797
696 0 1 -2.601738 11.207419 26.452698
697 0 1 -2.957379 12.059520 26.812286
698 0 1 -2.602719 12.097621 27.665588
699 0 1 -3.041558 11.315120 28.129608
700 0 1 -3.689327 11.137019 28.839294
701 0 1 -4.312127 11.891116 28.736206
702 0 1 -4.841969 12.573016 28.902893
703 0 1 -4.348458 13.101218 29.449402
704 0 1 -3.949248 12.490619 30.047913
705 0 1 -4.863797 12.613620 30.447601
706 0 1 -5.729947 13.003119 30.213104
707 0 1 -6.516549 12.641719 29.751312
708 0 1 -5.665349 12.281520 29.433289
709 0 1 -5.626149 11.549819 28.810608
710 0 1 -5.035187 10.911719 28.431396
711 0 1 -4.628659 10.330520 27.805206
712 0 1 -4.918377 9.656318 27.098114
713 0 1 -5.683049 9.633121 27.619110
714 0 1 -6.037949 8.901618 27.119507
715 0 1 -6.017048 8.100619 26.582886
716 0 1 -6.185147 7.574321 25.805298
717 0 1 -5.989449 6.638118 25.708588
718 0 1 -5.286099 6.388019 25.015686
719 0 1 -5.183478 5.774619 24.234100
720 0 1 -5.592549 5.797618 23.347412
721 0 1 -5.870347 5.446750 22.476807
722 0 1 -6.364848 4.925738 21.891998
723 0 1 -6.271248 5.105319 20.974106
724 0 1 -6.502347 4.194488 20.685196
725 0 1 -6.322049 3.623187 21.440598
726 0 1 -5.364798 3.344508 21.597992
727 0 1 -5.377636 2.474349 22.085205
728 0 1 -4.454178 2.637069 22.111496
729 0 1 -3.885388 3.453509 22.088501
730 0 1 -3.027487 3.638610 21.761398
731 0 1 -2.995056 3.554587 22.757812
732 0 1 -3.363037 3.925967 23.538300
733 0 1 -2.519017 4.296451 23.385895
734 0 1 -2.654627 5.097259 22.869812
735 0 1 -2.964836 5.668017 22.260406
736 0 1 -2.912297 6.177520 21.395294
737 0 1 -1.972378 6.439319 21.164398
738 0 1 -1.377337 6.224418 20.434601
739 0 1 -1.630558 5.353168 19.946198
740 0 1 -1.719517 5.095698 18.968597
741 0 1 -2.483078 4.826587 19.614105
742 0 1 -3.092978 4.773021 18.801697
743 0 1 -3.055998 4.154670 18.046906
744 0 1 -2.377877 3.548758 17.663895
745 0 1 -1.572058 3.188540 17.237503
746 0 1 -2.178898 2.472499 16.784897
747 0 1 -1.475527 1.843627 16.657394
748 0 1 -2.119658 1.653388 16.007401
749 0 1 -2.386608 2.206446 15.249099
750 0 1 -3.113638 2.575087 15.698104
751 0 1 -3.564308 2.883967 16.512695
752 0 1 -3.785279 3.844249 16.617905
753 0 1 -3.925537 4.502528 15.904693
754 0 1 -4.098578 5.079719 16.657700
755 0 1 -3.590178 5.900718 16.603607
756 0 1 -3.314177 5.791018 15.690703
757 0 1 -4.015896 6.219417 15.206206
758 0 1 -3.493607 6.884318 14.777892
759 0 1 -3.014887 6.172519 14.294494
760 0 1 -3.292237 5.363589 13.891997
761 0 1 -3.549418 4.582667 14.347198
762 0 1 -4.256047 4.978618 14.807006
763 0 1 -5.170018 4.706519 14.685805
764 0 1 -5.549548 5.466617 14.222304
765 0 1 -5.015187 6.267520 14.213393
766 0 1 -5.322077 6.446319 13.346099
767 0 1 -5.474549 5.510818 13.200896
768 0 1 -5.313076 5.431827 12.234694
769 0 1 -5.156138 4.571437 11.747405
770 0 1 -5.951249 4.597209 11.064193
771 0 1 -6.083447 4.028487 10.313598
772 0 1 -5.812148 3.090819 10.425796
773 0 1 -4.952338 3.115760 9.992064
774 0 1 -5.471858 3.148490 9.074798
775 0 1 -5.811047 3.089457 8.174407
776 0 1 -5.090859 3.340659 7.686264
777 0 1 -5.722447 3.438517 6.973953
778 0 1 -6.602547 3.416346 6.645111
779 0 1 -6.813748 3.926577 5.864074
780 0 1 -7.225747 4.333591 5.134323
781 0 1 -7.758948 5.088408 5.226516
782 0 1 -8.565847 5.149501 5.772064