LAMMPS data file via MDAnalysis

        2000  atoms
        1999  bonds
           0  angles
           0  dihedrals
           0  impropers

           1  atom types
           1  bond types
           0  angle types
           0  dihedral types
           0  improper types

-30.5 30.5 xlo xhi
-30.5 30.5 ylo yhi
-233.5 233.5 zlo zhi


Masses

1 1.000000

Atoms

1 0 1 -12.263936 1.289842 51.294098
2 0 1 -12.408175 1.883361 50.624695
3 0 1 -12.792975 0.973210 50.382385
4 0 1 -13.367427 0.218742 50.459412
5 0 1 -14.060836 0.842391 50.129517
6 0 1 -14.350566 1.739951 50.089905
7 0 1 -13.795054 1.815631 49.297699
8 0 1 -12.851985 1.754651 49.182800
9 0 1 -12.131835 1.257201 49.576691
10 0 1 -11.644275 1.868062 49.027802
11 0 1 -11.677165 2.819751 49.154694
12 0 1 -11.803475 2.805840 50.096191
13 0 1 -11.549426 2.807311 51.004700
14 0 1 -10.595737 2.975072 51.096893
15 0 1 -9.881316 2.989060 50.460907
16 0 1 -9.413035 2.437812 51.051300
17 0 1 -8.508275 2.431092 50.611389
18 0 1 -8.465405 3.295220 50.930603
19 0 1 -9.070855 3.260800 51.842407
20 0 1 -8.862515 3.243272 52.804413
21 0 1 -8.553676 4.025382 53.233887
22 0 1 -9.085246 4.114621 54.014801
23 0 1 -9.877906 4.586013 54.373596
24 0 1 -9.923675 5.277873 53.709991
25 0 1 -9.770385 6.221551 53.432190
26 0 1 -9.785476 7.042970 52.929901
27 0 1 -10.619636 7.229821 52.463196
28 0 1 -11.426465 7.276540 51.892517
29 0 1 -11.393655 6.361081 52.214508
30 0 1 -11.067256 5.667066 51.569794
31 0 1 -10.419475 5.838557 50.763184
32 0 1 -9.739554 6.317292 51.355286
33 0 1 -9.686477 6.372931 50.433105
34 0 1 -9.474296 6.616780 49.542511
35 0 1 -9.755366 7.489072 49.031708
36 0 1 -10.448535 8.199822 48.596497
37 0 1 -9.893926 8.883862 49.227417
38 0 1 -9.881486 9.296643 48.365387
39 0 1 -10.200477 9.707173 47.597809
40 0 1 -10.108815 9.850381 46.703003
41 0 1 -10.264436 10.716832 46.698486
42 0 1 -9.556785 11.264871 46.291595
43 0 1 -8.860456 11.996060 46.390289
44 0 1 -9.290446 12.206143 45.605499
45 0 1 -9.944556 12.573442 44.979492
46 0 1 -10.533666 13.304181 45.077515
47 0 1 -10.483306 14.023664 44.430695
48 0 1 -10.883697 13.904672 43.579193
49 0 1 -10.596156 14.466001 42.869385
50 0 1 -10.786235 14.952100 43.615295
51 0 1 -11.072566 15.801892 43.453888
52 0 1 -11.756637 15.667390 44.115509
53 0 1 -12.353175 15.369493 43.420898
54 0 1 -13.112285 14.703012 43.529297
55 0 1 -13.723716 15.474790 43.625092
56 0 1 -13.782874 15.116292 44.490509
57 0 1 -13.632356 16.094191 44.481598
58 0 1 -14.569266 16.011992 44.663910
59 0 1 -15.149665 16.079092 45.479492
60 0 1 -15.308467 15.212090 45.491913
61 0 1 -14.848666 14.916860 44.640686
62 0 1 -14.758466 13.944013 44.846191
63 0 1 -15.421765 13.414731 44.389404
64 0 1 -16.144867 12.785913 44.612793
65 0 1 -16.645466 12.147603 45.099609
66 0 1 -17.235666 12.892690 45.297607
67 0 1 -17.920666 12.264810 45.214203
68 0 1 -17.913866 11.686723 44.454193
69 0 1 -18.703568 12.005452 44.057892
70 0 1 -18.092466 12.758519 44.157806
71 0 1 -18.341467 13.392053 43.457886
72 0 1 -17.997566 14.277852 43.352692
73 0 1 -17.446266 13.914552 42.619995
74 0 1 -16.549366 14.083989 42.995300
75 0 1 -16.631767 15.047521 42.708588
76 0 1 -16.566967 15.448590 41.857117
77 0 1 -16.697067 16.327291 41.539398
78 0 1 -17.181067 16.905790 40.972595
79 0 1 -16.996067 17.072493 40.074707
80 0 1 -17.202967 17.895094 40.526306
81 0 1 -17.782566 18.604292 40.489288
82 0 1 -17.742065 19.543993 40.410400
83 0 1 -17.642866 19.988691 39.553589
84 0 1 -18.539267 20.199392 39.325195
85 0 1 -18.295567 20.465994 38.432709
86 0 1 -18.748667 19.656794 38.224792
87 0 1 -18.722866 18.992491 38.937500
88 0 1 -18.230366 18.296591 38.607697
89 0 1 -18.769266 18.386293 37.800812
90 0 1 -19.301065 18.955191 37.204102
91 0 1 -19.939266 18.265993 37.405487
92 0 1 -19.635965 18.340792 36.455994
93 0 1 -19.849766 17.388891 36.113098
94 0 1 -20.561266 17.245390 35.398895
95 0 1 -20.728567 16.349291 35.856506
96 0 1 -20.522867 16.501493 36.777100
97 0 1 -20.520666 17.027494 37.575195
98 0 1 -19.603367 16.725393 37.396393
99 0 1 -19.732866 16.086691 38.076691
100 0 1 -20.035866 15.350591 38.622406
101 0 1 -19.845066 14.483472 38.388306
102 0 1 -19.025665 14.001180 38.669403
103 0 1 -18.357765 14.469274 38.207306
104 0 1 -17.469767 14.361592 38.428711
105 0 1 -17.178368 15.089040 37.821991
106 0 1 -16.783066 15.908292 38.154602
107 0 1 -16.256466 16.595793 38.652588
108 0 1 -15.732566 16.860193 37.913910
109 0 1 -15.499166 16.440393 37.034485
110 0 1 -15.470565 17.217192 36.493500
111 0 1 -15.300666 17.617491 37.386597
112 0 1 -16.285967 17.546892 37.311005
113 0 1 -16.811367 17.002993 36.713104
114 0 1 -16.716066 16.276892 36.155212
115 0 1 -17.007566 16.781893 35.365387
116 0 1 -17.401667 16.146193 34.766602
117 0 1 -17.456966 17.019293 34.369812
118 0 1 -18.347166 16.685793 34.240509
119 0 1 -18.352467 16.818090 33.358490
120 0 1 -18.222366 17.276293 32.538513
121 0 1 -18.264267 18.182192 32.306000
122 0 1 -18.070267 18.919691 31.714203
123 0 1 -17.427166 18.329290 31.342285
124 0 1 -16.969967 18.512793 30.568512
125 0 1 -16.239666 18.321993 29.976013
126 0 1 -15.769166 18.942392 29.381104
127 0 1 -14.798366 18.691492 29.333710
128 0 1 -14.113135 18.485991 28.583313
129 0 1 -14.084037 19.308790 27.988892
130 0 1 -14.532065 18.770391 27.269989
131 0 1 -15.096465 18.070494 26.782806
132 0 1 -14.806066 17.159693 26.788300
133 0 1 -13.932466 17.052591 26.346985
134 0 1 -13.359096 17.757391 26.336609
135 0 1 -12.789855 18.340593 25.796112
136 0 1 -12.876536 19.260992 26.153290
137 0 1 -12.169936 19.430593 25.516205
138 0 1 -11.461255 18.687693 25.627289
139 0 1 -10.886636 18.099592 25.127014
140 0 1 -11.018256 18.123491 24.210693
141 0 1 -11.057685 17.189192 24.251587
142 0 1 -10.953786 16.464193 23.618713
143 0 1 -11.190196 15.615090 23.234100
144 0 1 -11.417325 15.644990 24.188690
145 0 1 -12.150287 16.382895 23.922791
146 0 1 -12.983325 15.902291 23.688202
147 0 1 -13.067275 16.702192 23.123291
148 0 1 -12.689685 17.100191 22.334503
149 0 1 -12.928805 16.870691 21.456100
150 0 1 -13.273814 15.982892 21.417801
151 0 1 -13.722476 15.613893 20.546005
152 0 1 -14.011775 14.964601 19.864395
153 0 1 -13.712016 14.429753 20.611298
154 0 1 -12.869395 14.007833 20.458008
155 0 1 -12.486796 14.776402 20.929596
156 0 1 -12.692355 14.605863 21.847000
157 0 1 -11.759156 14.661069 22.303192
158 0 1 -11.327266 14.145020 21.617096
159 0 1 -11.042386 13.824731 20.755600
160 0 1 -10.264405 13.593923 21.174103
161 0 1 -10.107505 13.977399 22.035400
162 0 1 -9.345115 14.575742 22.078506
163 0 1 -9.134076 14.629380 23.121704
164 0 1 -9.274566 15.570394 23.315399
165 0 1 -8.739745 15.914491 24.077911
166 0 1 -8.455256 15.098599 24.477692
167 0 1 -8.037265 14.670732 23.694885
168 0 1 -7.378067 14.084352 24.056793
169 0 1 -7.175025 14.227612 23.078491
170 0 1 -6.689186 13.769139 22.285995
171 0 1 -6.553615 13.043622 22.798584
172 0 1 -6.740356 12.895150 23.727600
173 0 1 -6.591936 11.953950 23.463593
174 0 1 -7.020166 11.699182 24.277008
175 0 1 -6.155237 11.688851 24.717102
176 0 1 -5.930326 11.077680 24.020386
177 0 1 -6.163776 10.290261 24.512787
178 0 1 -6.773216 9.711240 24.012695
179 0 1 -6.561237 8.791642 24.095886
180 0 1 -5.932806 9.096971 24.749512
181 0 1 -6.210916 8.222802 25.039307
182 0 1 -6.699686 7.395841 25.075500
183 0 1 -7.651515 7.374990 24.793304
184 0 1 -8.576026 7.100183 25.057587
185 0 1 -7.946086 6.447791 24.834198
186 0 1 -7.508876 5.741199 25.319489
187 0 1 -7.645545 6.424752 25.950287
188 0 1 -7.604686 6.620831 26.915314
189 0 1 -6.713346 6.992833 27.015411
190 0 1 -6.520357 6.119191 27.241394
191 0 1 -7.113426 5.712592 26.643097
192 0 1 -7.441295 4.916278 26.246613
193 0 1 -7.460016 4.103932 26.767792
194 0 1 -7.663705 3.877131 27.675598
195 0 1 -7.975116 3.000831 27.919891
196 0 1 -7.537466 2.167151 28.086700
197 0 1 -8.049396 1.430892 27.810791
198 0 1 -7.115325 1.287551 27.513611
199 0 1 -6.946336 0.477012 27.932312
200 0 1 -6.056186 0.905391 27.832611
201 0 1 -5.282327 1.161431 28.288696
202 0 1 -4.532491 0.656291 28.047913
203 0 1 -3.694398 0.724332 28.411102
204 0 1 -2.716316 0.557212 28.358398
205 0 1 -2.087657 0.989122 27.722290
206 0 1 -1.555457 0.837991 28.531006
207 0 1 -1.062045 1.457711 29.165710
208 0 1 -1.336696 2.062982 28.512299
209 0 1 -0.622516 2.732312 28.575195
210 0 1 -0.226737 2.822711 27.731293
211 0 1 0.111485 3.523461 28.270813
212 0 1 -0.477916 3.556722 29.042114
213 0 1 -1.273055 4.138524 28.941498
214 0 1 -1.917625 3.467752 29.181488
215 0 1 -2.086196 3.789651 28.290192
216 0 1 -2.891885 4.121417 28.014313
217 0 1 -3.894061 4.171977 28.045807
218 0 1 -4.166027 4.979844 27.694214
219 0 1 -4.158435 5.245990 26.737213
220 0 1 -3.292587 5.311210 26.958405
221 0 1 -2.915435 4.742614 26.294098
222 0 1 -2.021125 4.356135 26.529114
223 0 1 -1.452125 3.728372 26.984406
224 0 1 -1.216125 3.825070 26.006012
225 0 1 -0.545238 4.395183 25.675812
226 0 1 0.157555 4.929212 25.298492
227 0 1 0.525975 5.775773 25.413391
228 0 1 -0.417884 5.755647 25.663208
229 0 1 -0.033107 6.621922 25.602295
230 0 1 -0.405715 7.491441 25.329590
231 0 1 -0.028106 7.849832 26.094391
232 0 1 0.592213 8.377843 26.609009
233 0 1 0.480664 9.170003 27.185699
234 0 1 1.059525 8.534772 27.511810
235 0 1 1.443246 7.854142 26.925415
236 0 1 2.359425 8.132161 26.899109
237 0 1 2.192376 8.148110 27.841614
238 0 1 1.996895 7.963151 28.734985
239 0 1 2.410084 7.694932 29.568207
240 0 1 2.028783 6.704793 29.608215
241 0 1 2.803654 6.431972 29.197601
242 0 1 3.686284 6.140370 29.363098
243 0 1 3.544392 5.390718 29.897186
244 0 1 2.797494 4.795241 29.820312
245 0 1 3.538502 4.402369 30.245392
246 0 1 4.371426 4.154567 30.776794
247 0 1 4.677304 4.436366 29.866791
248 0 1 5.193333 3.620292 29.852386
249 0 1 5.858433 4.293565 29.626007
250 0 1 6.649834 3.759542 29.775787
251 0 1 6.049832 3.496671 30.465393
252 0 1 6.667035 2.752610 30.346893
253 0 1 7.465634 3.073812 30.745300
254 0 1 7.944836 3.373061 29.985413
255 0 1 8.733735 3.012511 29.576813
256 0 1 9.169736 3.538581 30.270508
257 0 1 8.986836 4.193446 29.510101
258 0 1 8.077832 4.462899 29.371399
259 0 1 7.365933 3.901690 28.910400
260 0 1 6.925934 4.114438 28.089386
261 0 1 6.674435 4.910169 27.655487
262 0 1 6.258435 5.664651 27.247101
263 0 1 6.467434 6.543141 26.957092
264 0 1 5.641163 6.454322 26.488708
265 0 1 6.140133 7.254151 26.222992
266 0 1 6.925732 7.628591 25.809906
267 0 1 6.109734 8.178693 25.683899
268 0 1 5.192883 8.312680 25.930786
269 0 1 5.225903 8.861333 25.138489
270 0 1 6.056733 8.552873 24.712494
271 0 1 5.658314 8.422673 23.799713
272 0 1 5.551613 9.347650 23.691101
273 0 1 6.185235 9.866940 24.209198
274 0 1 6.437832 10.735440 23.945496
275 0 1 5.849335 10.795712 24.696808
276 0 1 5.174466 10.872300 23.976593
277 0 1 5.447373 11.275189 23.091309
278 0 1 5.311696 12.289041 22.991089
279 0 1 4.673474 12.347020 22.222504
280 0 1 5.191754 11.806031 21.547195
281 0 1 5.808636 11.126760 21.279099
282 0 1 6.643132 11.658902 21.160904
283 0 1 7.588334 11.421033 21.101303
284 0 1 7.701233 12.086743 21.789200
285 0 1 8.660535 11.932363 21.785004
286 0 1 9.039334 11.309991 21.151093
287 0 1 9.080235 10.334889 21.093903
288 0 1 8.500234 9.554669 21.230408
289 0 1 7.793435 8.942822 21.457001
290 0 1 7.268933 9.589192 22.011292
291 0 1 6.882435 10.379071 22.233093
292 0 1 7.096333 10.531232 23.131989
293 0 1 7.699734 11.267320 23.356506
294 0 1 7.885933 12.211022 23.379486
295 0 1 8.777535 12.415433 23.656311
296 0 1 9.555734 11.871610 23.868103
297 0 1 8.726434 11.537580 24.326294
298 0 1 9.626134 11.326592 24.729401
299 0 1 10.461434 10.865083 24.785797
300 0 1 10.860234 10.824410 25.699707
301 0 1 11.389333 11.141603 26.451202
302 0 1 12.080632 10.573941 26.108398
303 0 1 12.449437 11.021180 25.309692
304 0 1 13.452535 11.016263 25.424713
305 0 1 14.004636 11.269101 24.615295
306 0 1 14.579335 10.705132 24.068207
307 0 1 14.833734 10.629323 24.998291
308 0 1 14.719632 11.349782 25.629791
309 0 1 14.275834 11.347310 26.501099
310 0 1 13.868932 11.981481 27.066589
311 0 1 14.420735 11.961770 27.885010
312 0 1 14.680135 11.159402 28.403992
313 0 1 15.236135 10.748349 29.080414
314 0 1 15.639836 11.440461 29.683899
315 0 1 15.036935 11.121182 30.380310
316 0 1 14.238935 11.321019 31.045898
317 0 1 13.864232 12.052590 30.622498
318 0 1 14.270337 12.887841 30.638000
319 0 1 13.570737 13.458081 30.328003
320 0 1 13.107732 13.486592 31.139496
321 0 1 12.697232 14.141271 31.717896
322 0 1 11.937734 14.814282 31.611786
323 0 1 11.498734 14.058110 31.155792
324 0 1 11.034635 14.033441 31.973511
325 0 1 10.246533 13.908532 31.419708
326 0 1 9.903836 14.338559 32.205811
327 0 1 9.505635 13.578794 32.638397
328 0 1 8.634835 13.801473 33.040894
329 0 1 8.076535 13.109330 33.382996
330 0 1 7.365735 12.819840 33.929596
331 0 1 7.353032 13.796071 34.116302
332 0 1 7.505135 14.848912 34.182007
333 0 1 7.126935 15.748593 34.273407
334 0 1 7.999035 16.165693 34.338898
335 0 1 8.638036 15.747392 34.891785
336 0 1 9.149934 16.487593 34.691711
337 0 1 10.071534 16.156691 34.870605
338 0 1 9.824033 16.984991 35.353210
339 0 1 9.455235 16.324892 35.929016
340 0 1 8.935136 16.067293 36.733398
341 0 1 9.194432 15.218392 36.334503
342 0 1 8.425035 14.701123 36.463593
343 0 1 8.105035 14.012372 35.947113
344 0 1 8.457936 13.112561 35.784302
345 0 1 7.773633 12.612771 36.255310
346 0 1 8.152635 11.642251 36.221985
347 0 1 7.835736 11.541612 37.130188
348 0 1 7.098633 11.674542 37.684113
349 0 1 6.969532 10.807160 38.013916
350 0 1 6.728135 9.888360 37.926208
351 0 1 6.155835 9.601201 38.633209
352 0 1 5.593453 9.051053 38.037598
353 0 1 5.447644 8.158971 37.609802
354 0 1 4.474595 8.030850 37.590515
355 0 1 4.300175 7.660882 36.631989
356 0 1 5.097226 7.177781 36.682892
357 0 1 5.163662 6.334731 37.052094
358 0 1 4.668126 6.426742 37.797607
359 0 1 5.430233 6.604241 38.336487
360 0 1 4.554944 6.472131 38.893311
361 0 1 5.010933 6.429690 39.771698
362 0 1 5.162224 5.542085 39.978302
363 0 1 5.737332 5.654021 40.749817
364 0 1 5.917134 4.955298 41.460693
365 0 1 6.725132 5.468253 41.400391
366 0 1 6.271733 5.906737 42.072510
367 0 1 5.401783 6.232081 41.838287
368 0 1 4.648442 6.770020 42.094910
369 0 1 4.699322 7.704640 42.305603
370 0 1 4.203614 8.110871 43.074799
371 0 1 5.012604 7.880212 43.512909
372 0 1 5.749333 8.011533 44.311707
373 0 1 5.543515 7.093423 44.168091
374 0 1 5.709836 6.164601 44.368591
375 0 1 6.405434 5.567487 44.246216
376 0 1 7.355134 5.719975 44.206787
377 0 1 7.652733 5.110173 44.829407
378 0 1 6.899735 5.011987 45.382690
379 0 1 7.100533 4.095422 45.175110
380 0 1 7.731534 3.400941 45.581512
381 0 1 8.679536 3.338681 45.315613
382 0 1 9.588933 3.608722 45.565491
383 0 1 10.534436 3.956241 45.343994
384 0 1 10.307633 4.954808 45.381592
385 0 1 10.884732 4.794797 44.627808
386 0 1 11.008134 5.744340 44.528290
387 0 1 11.284036 5.406913 43.635712
388 0 1 12.069634 5.825744 44.064209
389 0 1 12.101537 6.789773 44.066803
390 0 1 12.320836 6.572091 44.943604
391 0 1 12.158536 6.740399 45.932312
392 0 1 12.935033 6.074962 46.146301
393 0 1 13.847737 6.109281 46.129913
394 0 1 13.856034 6.536000 46.990509
395 0 1 13.367032 7.083512 46.292908
396 0 1 13.744435 7.811791 45.839508
397 0 1 14.372834 8.537419 45.460388
398 0 1 15.224534 8.677449 44.928192
399 0 1 15.341134 9.493402 45.401184
400 0 1 16.200233 9.539540 45.855988
401 0 1 16.792034 8.969232 46.314392
402 0 1 16.173733 8.477521 46.880493
403 0 1 16.951633 7.944753 47.042297
404 0 1 17.466633 7.163232 46.724091
405 0 1 16.892536 6.629571 46.155212
406 0 1 17.318333 5.933373 45.689697
407 0 1 17.601234 6.766561 45.272705
408 0 1 17.575832 6.198901 44.536011
409 0 1 16.702435 6.511250 44.721100
410 0 1 16.468533 5.658355 44.418304
411 0 1 15.830434 5.094806 44.940094
412 0 1 15.154935 4.444562 44.850708
413 0 1 15.420232 3.498292 45.032196
414 0 1 14.503034 3.304101 45.131409
415 0 1 14.410436 2.620492 45.866089
416 0 1 13.519437 2.732532 45.451996
417 0 1 12.642735 2.457841 45.249512
418 0 1 13.125737 1.695642 45.682007
419 0 1 12.996335 1.074071 44.942108
420 0 1 13.318135 0.196302 44.490692
421 0 1 13.613637 -0.731469 44.616791
422 0 1 13.426534 -1.244418 45.416595
423 0 1 13.395032 -1.236308 46.390686
424 0 1 13.581937 -2.163369 46.047394
425 0 1 14.308835 -2.095128 46.682587
426 0 1 15.053235 -1.543538 47.106812
427 0 1 15.614736 -0.731379 47.249207
428 0 1 15.382436 -0.240428 46.406494
429 0 1 15.743134 -0.701518 45.646484
430 0 1 16.216633 -0.056779 45.126099
431 0 1 16.578335 0.781322 45.484100
432 0 1 16.780331 1.690431 45.378113
433 0 1 16.724133 1.735982 44.418701
434 0 1 15.909234 2.209592 44.415894
435 0 1 15.272435 1.488711 44.384308
436 0 1 14.630334 0.845582 44.653107
437 0 1 14.655835 0.005212 45.205383
438 0 1 14.633534 0.551782 46.010712
439 0 1 15.028035 1.214431 46.581604
440 0 1 14.263036 1.632022 46.907898
441 0 1 14.912137 2.309201 47.061005
442 0 1 14.918435 2.609471 47.957489
443 0 1 13.916936 2.600270 48.211700
444 0 1 14.514234 2.592952 49.003204
445 0 1 13.710332 2.167541 49.409485
446 0 1 12.830335 2.197782 49.891388
447 0 1 12.726735 1.216130 49.882599
448 0 1 11.817937 1.685092 49.688202
449 0 1 11.731835 1.625651 50.688904
450 0 1 12.182134 1.215512 51.355194
451 0 1 12.098634 0.502582 50.723389
452 0 1 13.085835 0.310941 50.637787
453 0 1 13.835332 -0.040109 51.128693
454 0 1 13.794335 -0.524810 51.894104
455 0 1 13.100133 -1.087680 52.258484
456 0 1 13.388635 -1.545058 51.407288
457 0 1 12.911733 -2.383590 51.270508
458 0 1 12.807134 -3.060779 50.558411
459 0 1 13.605832 -2.771199 50.089905
460 0 1 13.162732 -1.916777 50.303192
461 0 1 12.859532 -1.085969 49.854401
462 0 1 12.262334 -1.409329 49.158295
463 0 1 13.046334 -1.886058 49.228088
464 0 1 13.023034 -1.908580 48.250397
465 0 1 12.765233 -2.822238 48.419495
466 0 1 12.262136 -3.147910 49.196594
467 0 1 11.622136 -2.985538 49.907410
468 0 1 10.725835 -2.493629 49.886902
469 0 1 10.325135 -2.971848 50.607697
470 0 1 10.153535 -2.114308 51.097198
471 0 1 9.253636 -2.374169 51.094513
472 0 1 9.009034 -3.060779 50.451508
473 0 1 8.252336 -3.595180 50.537994
474 0 1 7.353833 -3.401439 50.865692
475 0 1 6.918435 -3.607879 50.022888
476 0 1 7.168633 -4.483348 49.742889
477 0 1 7.585434 -4.619779 48.869202
478 0 1 8.597936 -4.430669 48.867615
479 0 1 9.545636 -4.198070 48.568787
480 0 1 9.783635 -3.330298 48.098907
481 0 1 9.779435 -2.788159 48.937683
482 0 1 9.640634 -2.272029 48.116699
483 0 1 9.133733 -1.505340 48.495789
484 0 1 8.895135 -0.603038 48.294312
485 0 1 8.244336 -0.044099 47.981903
486 0 1 7.330533 0.290921 47.931488
487 0 1 6.976235 -0.592479 47.941010
488 0 1 6.397534 -1.332938 47.624512
489 0 1 6.120633 -1.423699 48.544189
490 0 1 5.417775 -0.752318 48.539185
491 0 1 5.285645 -0.021308 49.181702
492 0 1 4.676224 0.751712 49.456909
493 0 1 3.867875 0.250302 49.288513
494 0 1 3.745534 -0.586299 48.825195
495 0 1 2.906083 -0.067899 48.948608
496 0 1 2.342152 0.711101 49.068298
497 0 1 2.198914 1.425531 49.664490
498 0 1 1.216496 1.334062 49.515198
499 0 1 1.142926 1.895692 48.703705
500 0 1 0.785283 0.995521 48.565796
501 0 1 -0.060767 0.547101 48.382690
502 0 1 0.463154 0.810561 47.591614
503 0 1 1.084115 1.405131 47.169495
504 0 1 0.507252 2.108521 47.192413
505 0 1 0.153935 2.569562 46.500488
506 0 1 -0.551765 3.000381 47.070984
507 0 1 -1.331947 2.533631 47.451691
508 0 1 -1.827606 1.995351 48.143097
509 0 1 -1.935565 2.869361 48.571991
510 0 1 -2.815686 3.044881 48.132294
511 0 1 -3.188165 3.546012 47.459717
512 0 1 -3.026817 3.025512 46.660095
513 0 1 -3.117456 3.240211 45.731201
514 0 1 -4.049015 3.372922 45.781891
515 0 1 -4.880371 2.973802 46.023590
516 0 1 -5.434927 2.733781 45.289185
517 0 1 -6.211416 2.807570 44.672913
518 0 1 -6.230066 3.646892 44.229614
519 0 1 -5.309186 3.574021 44.092712
520 0 1 -5.558425 2.977672 43.358887
521 0 1 -6.385557 2.648641 43.026611
522 0 1 -7.132915 2.487241 43.525391
523 0 1 -7.772356 2.060241 42.966095
524 0 1 -7.958026 2.731511 42.228394
525 0 1 -7.418127 3.024661 41.540710
526 0 1 -6.799587 2.945172 40.809692
527 0 1 -6.188766 3.473912 40.263306
528 0 1 -6.183635 3.112592 39.420898
529 0 1 -6.559406 2.230172 39.640686
530 0 1 -5.965206 2.078641 38.937500
531 0 1 -5.088609 1.854232 39.206696
532 0 1 -4.771762 1.899331 38.206299
533 0 1 -3.940187 1.966691 38.628693
534 0 1 -3.965274 1.259662 37.993713
535 0 1 -4.210714 0.460160 38.437317
536 0 1 -3.418992 0.006482 38.540894
537 0 1 -4.050300 -0.393939 39.169098
538 0 1 -3.495937 -1.067908 38.856293
539 0 1 -2.660537 -1.414399 38.594116
540 0 1 -1.879066 -1.982299 38.559296
541 0 1 -2.198947 -2.929479 38.809113
542 0 1 -2.902086 -3.176959 39.418701
543 0 1 -3.616584 -3.678260 38.973297
544 0 1 -3.199975 -3.615348 38.099304
545 0 1 -3.801147 -3.334659 37.409302
546 0 1 -4.248285 -3.266648 36.587311
547 0 1 -3.950017 -2.784329 35.869507
548 0 1 -3.441003 -2.521678 35.031189
549 0 1 -3.033546 -3.384849 35.066101
550 0 1 -2.149497 -2.991618 35.114899
551 0 1 -1.377784 -2.528640 34.988312
552 0 1 -1.492557 -1.653388 34.708801
553 0 1 -1.711917 -0.744748 34.535187
554 0 1 -1.965804 -0.494868 33.582397
555 0 1 -2.701106 -0.678769 33.032593
556 0 1 -3.287046 -1.260959 33.534393
557 0 1 -4.139875 -1.331427 33.102997
558 0 1 -4.886383 -0.852319 33.408112
559 0 1 -5.353805 -1.144908 32.555695
560 0 1 -5.199543 -0.241149 32.282196
561 0 1 -5.027193 0.499002 31.769287
562 0 1 -5.995986 0.276391 31.636292
563 0 1 -6.586156 -0.270568 31.117493
564 0 1 -7.348346 -0.207148 31.751404
565 0 1 -6.928346 0.421201 32.328094
566 0 1 -6.464937 0.053012 33.130890
567 0 1 -7.389255 -0.026429 33.507690
568 0 1 -8.241725 -0.389058 33.147217
569 0 1 -7.815807 -1.263139 32.986908
570 0 1 -7.085216 -1.815169 33.346802
571 0 1 -7.492015 -2.209548 32.560608
572 0 1 -7.593477 -2.910228 31.847290
573 0 1 -8.115645 -2.247668 31.476013
574 0 1 -7.480436 -2.054978 30.818298
575 0 1 -7.883787 -1.598140 30.039612
576 0 1 -7.112495 -1.118119 29.724609
577 0 1 -7.862405 -0.626708 29.240204
578 0 1 -8.759795 -0.914128 28.788086
579 0 1 -9.474086 -0.779178 28.200500
580 0 1 -9.255746 -0.370578 27.341187
581 0 1 -9.481875 -1.249698 26.922089
582 0 1 -9.357476 -1.851319 27.667786
583 0 1 -10.096526 -2.174958 27.040100
584 0 1 -10.751735 -2.688489 26.519714
585 0 1 -9.922126 -3.180400 26.576691
586 0 1 -10.025346 -3.240609 25.589508
587 0 1 -9.777926 -2.962619 24.702698
588 0 1 -10.537276 -3.397208 24.364014
589 0 1 -11.127225 -3.480460 25.147797
590 0 1 -11.542785 -4.145698 24.600403
591 0 1 -12.109946 -3.352458 24.358002
592 0 1 -12.540425 -4.114348 23.983795
593 0 1 -13.193166 -4.126779 24.700287
594 0 1 -13.944316 -4.661819 24.738892
595 0 1 -14.380767 -4.517619 25.623199
596 0 1 -13.669227 -5.105409 25.830200
597 0 1 -13.466846 -5.960010 25.451691
598 0 1 -14.197526 -6.481009 25.968109
599 0 1 -14.067294 -6.461909 26.954010
600 0 1 -14.694366 -6.067208 27.608490
601 0 1 -14.456466 -5.058108 27.504913
602 0 1 -13.549726 -4.646379 27.696899
603 0 1 -13.156005 -4.695359 28.587189
604 0 1 -12.392047 -5.256108 28.441803
605 0 1 -13.033376 -5.591908 29.166290
606 0 1 -13.684896 -5.025310 29.570007
607 0 1 -14.173446 -5.867908 29.617615
608 0 1 -14.930165 -6.378409 30.028992
609 0 1 -15.731866 -6.691310 29.598297
610 0 1 -15.884067 -6.612609 28.638397
611 0 1 -15.204066 -6.979110 28.026398
612 0 1 -14.812566 -7.699409 27.431488
613 0 1 -13.948285 -8.016208 27.294800
614 0 1 -13.337714 -7.694808 27.988007
615 0 1 -12.518926 -7.832808 28.418701
616 0 1 -12.745856 -8.251010 29.248291
617 0 1 -13.485057 -8.788709 29.636810
618 0 1 -13.000834 -9.066607 30.396393
619 0 1 -13.738585 -9.609809 30.190094
620 0 1 -13.975245 -9.622309 31.136108
621 0 1 -14.477065 -9.082108 31.684998
622 0 1 -15.064965 -8.405009 31.410187
623 0 1 -15.874965 -7.958209 31.274109
624 0 1 -15.657565 -7.024310 31.278015
625 0 1 -14.606265 -6.939509 31.340912
626 0 1 -13.780736 -6.425408 31.014191
627 0 1 -13.106364 -5.781909 31.307709
628 0 1 -12.240645 -6.018008 31.027313
629 0 1 -11.796075 -6.359008 30.079285
630 0 1 -10.991817 -6.586308 30.651489
631 0 1 -10.650176 -6.429509 31.568298
632 0 1 -10.066936 -6.966510 30.981110
633 0 1 -9.364915 -6.399508 30.708313
634 0 1 -9.022435 -5.663409 30.186798
635 0 1 -8.290206 -6.330909 30.100800
636 0 1 -8.402366 -7.069407 29.490906
637 0 1 -7.752546 -6.427709 29.196594
638 0 1 -7.250516 -6.287309 28.370911
639 0 1 -6.784015 -5.706309 27.713501
640 0 1 -7.676157 -5.825309 27.255005
641 0 1 -7.699596 -5.000209 27.802002
642 0 1 -7.797367 -4.136180 28.191101
643 0 1 -7.511426 -3.288150 27.864502
644 0 1 -6.800617 -3.767478 27.436890
645 0 1 -5.880886 -4.040160 27.334198
646 0 1 -5.337717 -3.323478 26.989105
647 0 1 -4.726131 -2.637179 26.675415
648 0 1 -5.197237 -2.311210 25.940399
649 0 1 -5.772336 -1.607808 25.748810
650 0 1 -6.430767 -1.630587 25.064301
651 0 1 -7.273157 -1.910668 24.758911
652 0 1 -7.724277 -2.789969 24.950104
653 0 1 -8.406735 -3.452088 24.731903
654 0 1 -7.530576 -3.823310 24.661896
655 0 1 -7.684066 -4.487468 23.939209
656 0 1 -8.172055 -5.199109 24.362610
657 0 1 -8.211585 -6.141309 24.547791
658 0 1 -8.736995 -6.330909 23.729004
659 0 1 -7.979846 -5.951610 23.278900
660 0 1 -7.915287 -6.188609 22.319397
661 0 1 -7.405616 -5.701209 21.665497
662 0 1 -6.739236 -5.028209 21.859497
663 0 1 -6.235185 -5.063308 22.659393
664 0 1 -5.993976 -5.772910 22.025696
665 0 1 -5.582925 -6.593410 21.738495
666 0 1 -5.598976 -7.098807 22.529114
667 0 1 -5.185052 -7.870009 22.924011
668 0 1 -4.326890 -7.935109 22.685699
669 0 1 -4.611410 -8.927909 22.787994
670 0 1 -3.839980 -9.210509 23.318909
671 0 1 -3.692136 -10.150409 23.392395
672 0 1 -3.912154 -9.894508 22.500610
673 0 1 -3.502074 -10.726109 22.309692
674 0 1 -4.063900 -11.549209 22.201004
675 0 1 -4.900093 -11.380509 22.663605
676 0 1 -5.320566 -12.110209 22.189102
677 0 1 -6.142286 -11.585109 21.938705
678 0 1 -6.957407 -11.331809 22.311295
679 0 1 -6.943346 -10.426108 21.919205
680 0 1 -7.396976 -9.608008 22.145905
681 0 1 -6.675155 -9.096808 22.425201
682 0 1 -6.198736 -8.445510 22.808197
683 0 1 -5.875616 -9.276809 23.202393
684 0 1 -5.241539 -10.025509 23.347107
685 0 1 -5.925327 -10.320108 24.036102
686 0 1 -6.128786 -10.974208 23.360199
687 0 1 -5.532035 -11.804309 23.660889
688 0 1 -5.053775 -11.085309 24.244385
689 0 1 -4.336679 -11.640609 24.565399
690 0 1 -5.029439 -12.266009 24.558594
691 0 1 -4.527084 -12.825408 25.208191
692 0 1 -3.724582 -12.394309 24.928009
693 0 1 -3.546283 -13.348609 24.607910
694 0 1 -2.883935 -13.084109 23.886688
695 0 1 -2.244914 -13.542809 24.435699
696 0 1 -1.774505 -12.992108 23.782806
697 0 1 -2.149287 -13.576909 23.034607
698 0 1 -2.498927 -12.949908 22.323196
699 0 1 -2.796527 -12.916009 21.421097
700 0 1 -1.999885 -13.262408 20.967499
701 0 1 -1.467346 -12.614509 20.444794
702 0 1 -2.212787 -12.057509 20.775208
703 0 1 -2.093997 -11.752910 21.739105
704 0 1 -1.411216 -11.891608 22.440506
705 0 1 -1.185954 -12.361308 21.702606
706 0 1 -0.359897 -11.949109 21.413498
707 0 1 0.153443 -12.123908 22.272095
708 0 1 0.897595 -12.704009 22.254898
709 0 1 1.928795 -12.752910 22.466400
710 0 1 2.101273 -11.894408 22.190399
711 0 1 2.373364 -11.628808 21.299103
712 0 1 3.292073 -11.500110 21.266403
713 0 1 3.231644 -10.912608 22.027802
714 0 1 4.059086 -10.465209 21.782104
715 0 1 4.230034 -9.555609 22.099899
716 0 1 4.167023 -9.418009 23.013794
717 0 1 3.470845 -9.782009 23.477814
718 0 1 3.770573 -9.262609 24.192108
719 0 1 2.845876 -9.170209 24.223907
720 0 1 3.003785 -10.041609 24.533997
721 0 1 3.386544 -10.477709 25.322998
722 0 1 3.230515 -10.595109 26.292999
723 0 1 3.622243 -11.460908 26.006012
724 0 1 3.909726 -12.162408 25.376190
725 0 1 4.772664 -11.871808 25.624908
726 0 1 4.674473 -12.178109 24.689606
727 0 1 4.126652 -12.716708 24.157104
728 0 1 3.536584 -13.220109 24.686890
729 0 1 3.409234 -13.196208 25.643494
730 0 1 3.932713 -13.519710 26.386993
731 0 1 4.854634 -13.282609 26.454285
732 0 1 5.442933 -13.392108 27.245209
733 0 1 5.762936 -12.459109 27.239014
734 0 1 6.387036 -11.890609 27.679413
735 0 1 7.017933 -12.536008 27.324799
736 0 1 7.187333 -12.664609 28.249298
737 0 1 7.453335 -11.910909 28.818390
738 0 1 7.731434 -11.221808 29.463104
739 0 1 8.517434 -11.645308 29.028015
740 0 1 9.100934 -11.850410 28.343201
741 0 1 9.814534 -11.574510 28.932495
742 0 1 10.472135 -10.859709 28.920105
743 0 1 10.749433 -10.861508 27.994598
744 0 1 11.320134 -10.080009 27.693909
745 0 1 11.608136 -10.243709 28.571594
746 0 1 11.881932 -11.235009 28.708008
747 0 1 12.768033 -11.102809 28.371490
748 0 1 13.153432 -10.185308 28.478302
749 0 1 13.939034 -10.456709 28.887512
750 0 1 14.281537 -9.514209 28.797699
751 0 1 13.538835 -9.079009 29.148987
752 0 1 13.059636 -8.501307 29.828094
753 0 1 12.572637 -9.351508 29.975494
754 0 1 11.827134 -8.803208 29.545715
755 0 1 11.666333 -8.315608 28.775909
756 0 1 12.428937 -8.477408 28.186798
757 0 1 11.573335 -8.460010 27.638794
758 0 1 10.710633 -8.533210 27.179810
759 0 1 10.460034 -7.726108 27.624512
760 0 1 10.219934 -8.459609 28.148712
761 0 1 9.505136 -8.444610 28.890106
762 0 1 9.012532 -8.413310 29.777100
763 0 1 8.329633 -7.960708 30.249207
764 0 1 8.026036 -7.644710 31.080597
765 0 1 7.445435 -7.224309 31.778412
766 0 1 7.291035 -6.290309 32.089600
767 0 1 6.481034 -6.506209 32.623810
768 0 1 6.601735 -5.547008 32.444305
769 0 1 5.961735 -5.859609 31.736389
770 0 1 6.489834 -6.563609 31.334198
771 0 1 6.881234 -7.134410 30.650513
772 0 1 7.699536 -6.689708 30.974609
773 0 1 7.272835 -5.929608 30.610199
774 0 1 7.481034 -5.935008 29.673798
775 0 1 7.750435 -5.280009 29.077698
776 0 1 7.359734 -4.448449 28.771606
777 0 1 7.187832 -3.663230 28.160400
778 0 1 7.895833 -3.774119 27.476105
779 0 1 7.781834 -3.947549 26.561188
780 0 1 7.818936 -4.261939 25.653503
781 0 1 8.282735 -4.679278 24.903015
782 0 1 8.397836 -4.961108 24.017090
783 0 1 7.476334 -4.789088 23.895813
784 0 1 7.251332 -5.693210 23.923798
785 0 1 6.671933 -6.405808 23.679901
786 0 1 5.970734 -5.707309 23.662201
787 0 1 5.824234 -6.383208 23.048309
788 0 1 5.161366 -7.095609 23.265015
789 0 1 4.545464 -7.409209 22.660706