LAMMPS data file via MDAnalysis

        2000  atoms
        1999  bonds
           0  angles
           0  dihedrals
           0  impropers

           1  atom types
           1  bond types
           0  angle types
           0  dihedral types
           0  improper types

-30.5 30.5 xlo xhi
-30.5 30.5 ylo yhi
-233.5 233.5 zlo zhi


Masses

1 1.000000

Atoms

1 0 1 19.357264 -16.647243 45.049713
2 0 1 19.970263 -17.356144 45.014496
3 0 1 19.063963 -17.701044 45.016602
4 0 1 18.811064 -17.286644 45.924500
5 0 1 17.978662 -17.715343 45.820801
6 0 1 17.307463 -17.556944 46.615387
7 0 1 17.947863 -17.114544 47.247711
8 0 1 17.378565 -16.333244 47.226593
9 0 1 16.920362 -15.520044 47.099304
10 0 1 16.247263 -15.098145 47.699799
11 0 1 15.583564 -15.530544 48.260315
12 0 1 16.068663 -16.265844 48.770599
13 0 1 15.954764 -15.335943 49.141113
14 0 1 15.499564 -15.841543 49.872009
15 0 1 15.452964 -16.370045 50.725494
16 0 1 14.511966 -16.436844 50.634796
17 0 1 13.675765 -16.465944 51.088196
18 0 1 14.307666 -16.639444 51.780701
19 0 1 14.291766 -17.521944 51.862396
20 0 1 13.734065 -17.316244 52.610596
21 0 1 13.661365 -16.659945 53.365784
22 0 1 13.083365 -16.380243 52.530792
23 0 1 12.234462 -16.890444 52.650299
24 0 1 11.999663 -16.786043 53.585388
25 0 1 11.136462 -16.412443 53.615295
26 0 1 10.906466 -15.462944 53.564514
27 0 1 10.478564 -14.820944 52.942505
28 0 1 10.865664 -15.135544 52.084412
29 0 1 11.096263 -14.290544 51.694702
30 0 1 12.071963 -14.298644 51.404114
31 0 1 12.896564 -14.259244 50.893494
32 0 1 13.473365 -14.333544 51.687988
33 0 1 14.083262 -14.962344 51.300201
34 0 1 14.922065 -14.767344 51.726196
35 0 1 14.528361 -15.019244 52.545898
36 0 1 13.932261 -14.412744 52.950195
37 0 1 13.523665 -13.555344 53.092712
38 0 1 13.718966 -12.712444 53.697388
39 0 1 12.755965 -12.666445 53.775513
40 0 1 13.098666 -11.776844 53.512787
41 0 1 12.147464 -11.709845 53.284607
42 0 1 11.783565 -11.004444 53.859100
43 0 1 10.820464 -11.040945 53.765411
44 0 1 10.815463 -10.071043 54.033295
45 0 1 10.393264 -9.441744 53.358704
46 0 1 9.533763 -8.893204 53.468597
47 0 1 9.325465 -8.285484 52.723694
48 0 1 8.373466 -8.233034 52.537903
49 0 1 7.675063 -8.105543 53.143005
50 0 1 7.155246 -8.936335 53.016602
51 0 1 6.343375 -8.464693 52.722198
52 0 1 5.781135 -8.269114 51.927887
53 0 1 4.893485 -7.701263 51.918213
54 0 1 4.357585 -8.557524 51.883087
55 0 1 3.472533 -8.426683 51.490997
56 0 1 3.163172 -7.936193 50.787292
57 0 1 2.295886 -7.921632 51.209808
58 0 1 1.471095 -7.674623 50.741302
59 0 1 1.216575 -7.341474 49.890198
60 0 1 0.281875 -7.195293 49.856506
61 0 1 0.732905 -6.538354 50.347809
62 0 1 1.288463 -6.145084 50.907806
63 0 1 0.832335 -5.787164 51.603516
64 0 1 0.598464 -4.882253 51.278503
65 0 1 0.010505 -5.391624 50.756592
66 0 1 0.027472 -5.726034 49.822296
67 0 1 0.319945 -5.659784 48.937805
68 0 1 1.289256 -5.636133 49.070404
69 0 1 2.021704 -5.245883 49.526611
70 0 1 1.527644 -4.637834 50.072906
71 0 1 0.569674 -4.668912 49.634308
72 0 1 0.082553 -3.913103 50.093903
73 0 1 0.725882 -3.373973 49.533691
74 0 1 1.715106 -3.361633 49.469788
75 0 1 1.827514 -2.813283 50.241608
76 0 1 1.003413 -2.551664 50.664490
77 0 1 0.751883 -1.667854 50.409912
78 0 1 1.330855 -0.848644 50.423187
79 0 1 0.523143 -0.275404 50.501007
80 0 1 -0.339215 -0.764604 50.293396
81 0 1 -0.926776 0.027296 50.219910
82 0 1 -1.394151 0.073075 49.307892
83 0 1 -1.799541 0.434891 48.556885
84 0 1 -2.268255 -0.383554 48.503204
85 0 1 -2.758870 -1.191633 48.549011
86 0 1 -3.235385 -0.520464 48.089600
87 0 1 -3.989606 -1.142534 48.056091
88 0 1 -4.469775 -0.347164 47.745911
89 0 1 -5.204255 -0.745033 48.225189
90 0 1 -5.428327 -0.225334 48.991211
91 0 1 -5.605416 -0.812593 49.741913
92 0 1 -5.714135 -0.708234 50.701294
93 0 1 -6.113505 -1.634803 50.409210
94 0 1 -6.259225 -2.481803 50.744690
95 0 1 -5.717166 -3.039333 51.387390
96 0 1 -5.617597 -2.104553 51.695190
97 0 1 -5.548375 -1.812683 52.626312
98 0 1 -4.581466 -1.627054 52.689789
99 0 1 -4.441806 -2.434974 52.129303
100 0 1 -4.504815 -1.712154 51.461914
101 0 1 -4.894835 -0.809164 51.494812
102 0 1 -4.965295 0.159743 51.568298
103 0 1 -4.502477 0.659590 50.830902
104 0 1 -3.852306 0.447510 51.628906
105 0 1 -3.562045 1.162745 52.341492
106 0 1 -3.108342 1.357621 53.178802
107 0 1 -3.186855 1.157830 54.117188
108 0 1 -2.563815 0.781884 54.709503
109 0 1 -1.906798 1.221655 55.270905
110 0 1 -1.684852 0.274428 55.072815
111 0 1 -1.909751 0.052529 54.126709
112 0 1 -1.351258 -0.594404 54.580017
113 0 1 -1.414374 -1.548664 54.796509
114 0 1 -1.690358 -2.242624 55.421692
115 0 1 -2.234491 -2.630813 54.681000
116 0 1 -2.083482 -3.548183 54.536713
117 0 1 -2.781831 -3.515234 53.748291
118 0 1 -2.788589 -3.620344 52.800812
119 0 1 -3.590375 -3.077924 52.409912
120 0 1 -3.057956 -2.247493 52.651703
121 0 1 -2.207439 -2.562004 52.555115
122 0 1 -1.677455 -3.128973 51.958984
123 0 1 -2.014585 -4.046443 51.884003
124 0 1 -2.492810 -4.768493 52.294708
125 0 1 -3.041791 -4.422264 51.544617
126 0 1 -3.494737 -4.896984 50.869293
127 0 1 -4.001565 -5.659393 50.546295
128 0 1 -4.349265 -6.417432 50.961304
129 0 1 -4.966746 -6.748024 51.720612
130 0 1 -5.786435 -6.955472 51.336700
131 0 1 -6.369206 -7.634294 51.010406
132 0 1 -6.477376 -8.506104 50.967194
133 0 1 -7.373256 -8.250984 51.197388
134 0 1 -7.374625 -8.169724 50.271606
135 0 1 -7.120126 -8.196844 49.297302
136 0 1 -7.242846 -8.870214 48.699493
137 0 1 -6.655267 -9.588943 48.522308
138 0 1 -6.667176 -9.480543 47.569000
139 0 1 -7.443635 -9.987444 47.675293
140 0 1 -7.045026 -10.447544 46.885590
141 0 1 -7.488326 -10.544943 46.037415
142 0 1 -8.081506 -11.180544 45.412292
143 0 1 -8.774205 -11.848845 45.276611
144 0 1 -9.172517 -11.919844 44.444794
145 0 1 -8.196116 -11.876043 44.248505
146 0 1 -7.469605 -12.066145 43.565613
147 0 1 -6.807776 -12.728243 44.006104
148 0 1 -6.536225 -11.822443 43.985687
149 0 1 -7.214746 -12.043243 44.614899
150 0 1 -7.132516 -11.037643 44.822388
151 0 1 -7.358756 -11.051844 43.849701
152 0 1 -6.905786 -10.763744 42.988403
153 0 1 -7.855515 -10.397745 42.852203
154 0 1 -8.040606 -9.811945 42.048187
155 0 1 -8.109536 -9.882444 41.125793
156 0 1 -8.161767 -10.159243 40.157898
157 0 1 -8.076495 -9.317545 39.730011
158 0 1 -8.893205 -8.981215 40.010406
159 0 1 -9.531877 -9.633345 39.703400
160 0 1 -9.348626 -9.356844 38.817810
161 0 1 -9.265447 -10.179243 38.405792
162 0 1 -9.744086 -9.792044 37.700195
163 0 1 -10.606006 -10.203745 37.523102
164 0 1 -10.444757 -11.086744 37.182190
165 0 1 -11.439326 -11.105743 37.033203
166 0 1 -11.812047 -11.959743 37.354187
167 0 1 -11.914886 -12.877644 37.087006
168 0 1 -11.462306 -13.716544 36.908386
169 0 1 -10.532666 -13.593843 37.010895
170 0 1 -10.694316 -14.478643 37.386688
171 0 1 -10.592086 -15.072245 38.111389
172 0 1 -9.874745 -15.357944 38.706299
173 0 1 -9.401366 -15.712143 39.470093
174 0 1 -10.162305 -15.289743 39.832306
175 0 1 -10.329825 -16.124344 39.442291
176 0 1 -10.693147 -16.844444 39.925812
177 0 1 -9.908586 -17.326244 39.983307
178 0 1 -9.436706 -18.116243 39.801086
179 0 1 -9.624757 -17.610643 39.016693
180 0 1 -10.129865 -18.329245 38.621796
181 0 1 -11.065877 -18.105145 38.724213
182 0 1 -11.668046 -18.873043 38.862610
183 0 1 -12.316037 -19.387844 39.225586
184 0 1 -13.124635 -19.902044 39.074310
185 0 1 -13.701337 -19.999544 39.855896
186 0 1 -13.394635 -19.091944 39.744690
187 0 1 -13.680337 -18.869444 40.687012
188 0 1 -13.845735 -19.569944 41.354614
189 0 1 -14.159337 -18.641844 41.640808
190 0 1 -14.059537 -18.442844 42.559113
191 0 1 -13.207536 -19.033545 42.407501
192 0 1 -12.647237 -19.486244 43.210205
193 0 1 -13.463735 -19.839243 43.528198
194 0 1 -13.730136 -20.423843 42.815186
195 0 1 -13.280536 -21.214144 43.218506
196 0 1 -12.374635 -20.835243 43.440094
197 0 1 -11.819455 -20.240145 43.996002
198 0 1 -11.180236 -20.980844 43.826996
199 0 1 -11.579877 -21.580744 44.472198
200 0 1 -12.375737 -22.037245 44.818909
201 0 1 -13.071336 -21.696344 45.353516
202 0 1 -12.978135 -21.176443 46.273193
203 0 1 -12.166846 -21.292343 45.871216
204 0 1 -11.383435 -21.401443 46.331207
205 0 1 -10.419496 -21.510143 46.352112
206 0 1 -10.842216 -20.759745 46.871613
207 0 1 -10.564107 -20.379145 45.954010
208 0 1 -10.066045 -20.123243 46.720490
209 0 1 -10.639245 -19.283745 46.771790
210 0 1 -11.582286 -19.374643 46.458588
211 0 1 -12.503137 -19.315643 46.556396
212 0 1 -13.000035 -19.120844 45.757996
213 0 1 -13.030236 -18.207745 45.832214
214 0 1 -13.093936 -17.260445 45.563812
215 0 1 -13.196637 -16.323343 45.513306
216 0 1 -12.477235 -15.911144 45.875305
217 0 1 -13.006536 -15.041744 45.705109
218 0 1 -13.422135 -14.192044 45.992615
219 0 1 -13.562736 -13.327044 45.573914
220 0 1 -14.067437 -12.681543 46.061401
221 0 1 -13.190736 -12.448044 45.858490
222 0 1 -12.940637 -11.629145 45.455902
223 0 1 -13.189736 -11.231043 46.268097
224 0 1 -13.762136 -11.701445 46.891785
225 0 1 -14.294936 -11.385244 47.612610
226 0 1 -14.135636 -11.916945 48.420105
227 0 1 -14.974536 -12.149343 48.051605
228 0 1 -15.311736 -11.960543 48.958801
229 0 1 -14.773835 -11.213644 49.235291
230 0 1 -14.834237 -10.322245 49.628510
231 0 1 -15.568936 -10.345844 49.063293
232 0 1 -16.095137 -10.541044 48.270508
233 0 1 -16.063637 -9.700344 47.889191
234 0 1 -16.310337 -8.777533 47.607391
235 0 1 -15.847436 -8.144844 48.127411
236 0 1 -16.524538 -8.501345 48.786407
237 0 1 -16.526937 -7.521404 48.838104
238 0 1 -16.527237 -6.749843 48.357391
239 0 1 -16.798635 -5.824703 48.384308
240 0 1 -16.849236 -6.201084 47.507507
241 0 1 -16.552336 -6.593553 46.716797
242 0 1 -15.786237 -6.925832 46.344116
243 0 1 -16.190336 -6.712694 45.495087
244 0 1 -16.258137 -7.548524 45.034088
245 0 1 -16.641638 -8.152254 45.635803
246 0 1 -17.399937 -8.267313 46.273010
247 0 1 -18.292036 -8.102274 45.795410
248 0 1 -18.054935 -9.000933 45.733215
249 0 1 -18.735437 -9.498144 45.199493
250 0 1 -18.556337 -10.411943 45.398193
251 0 1 -18.549337 -10.760544 44.513306
252 0 1 -17.589037 -10.949842 44.391510
253 0 1 -17.815536 -10.626844 43.481110
254 0 1 -18.760838 -10.808544 43.187592
255 0 1 -18.110836 -11.468943 42.860901
256 0 1 -17.187635 -11.729343 42.774292
257 0 1 -16.555737 -12.166044 43.325592
258 0 1 -16.167637 -12.765144 43.942902
259 0 1 -15.590936 -13.525343 43.849701
260 0 1 -14.671536 -13.700844 44.191589
261 0 1 -14.089837 -12.982645 43.851685
262 0 1 -14.010736 -13.817944 43.431091
263 0 1 -13.968637 -14.757244 43.439606
264 0 1 -14.693936 -15.092844 44.018402
265 0 1 -15.256736 -14.852444 44.787506
266 0 1 -16.097136 -14.815844 45.323090
267 0 1 -16.022738 -14.154044 45.973694
268 0 1 -15.999736 -14.589244 46.801086
269 0 1 -16.283037 -14.338744 47.699890
270 0 1 -16.179037 -13.860544 48.489807
271 0 1 -16.366037 -13.903944 49.481384
272 0 1 -16.103037 -14.671944 50.030701
273 0 1 -16.430237 -15.473345 49.659210
274 0 1 -16.066936 -16.001043 48.977203
275 0 1 -15.224435 -15.702644 49.233093
276 0 1 -14.249337 -15.837143 49.177612
277 0 1 -13.565736 -15.618744 49.791901
278 0 1 -13.605535 -15.368645 50.696716
279 0 1 -13.226735 -16.247944 50.678711
280 0 1 -12.983937 -15.749544 51.455505
281 0 1 -13.915936 -15.817144 51.536102
282 0 1 -14.850236 -15.931744 51.683990
283 0 1 -14.568936 -15.335844 52.388092
284 0 1 -14.465636 -15.818943 53.179199
285 0 1 -14.029435 -16.194143 53.936096
286 0 1 -13.695935 -17.106144 53.906403
287 0 1 -12.746036 -16.892843 53.804688
288 0 1 -12.575135 -15.979445 54.089691
289 0 1 -12.902135 -15.078344 54.284912
290 0 1 -13.609937 -14.514844 54.667694
291 0 1 -13.522935 -13.930644 55.396301
292 0 1 -12.716435 -13.554844 55.111389
293 0 1 -11.803975 -13.887744 55.255188
294 0 1 -10.907916 -13.560044 55.150299
295 0 1 -10.510674 -14.416843 55.009888
296 0 1 -10.474746 -15.352144 54.776093
297 0 1 -11.350587 -15.544643 54.918610
298 0 1 -11.719676 -15.622343 55.814301
299 0 1 -11.863515 -16.585943 55.930298
300 0 1 -11.533597 -16.835344 55.010498
301 0 1 -11.658685 -16.640144 54.082703
302 0 1 -10.995456 -15.951944 53.843597
303 0 1 -11.231336 -15.517843 53.012299
304 0 1 -10.844117 -16.268944 52.486511
305 0 1 -11.351327 -17.043943 52.202606
306 0 1 -10.528337 -17.393444 52.049805
307 0 1 -9.926856 -17.923445 52.627991
308 0 1 -9.568946 -17.902143 51.756104
309 0 1 -8.777596 -17.336245 51.432190
310 0 1 -8.282975 -16.533844 51.114807
311 0 1 -7.505025 -16.838444 50.635315
312 0 1 -6.929465 -16.105444 50.503387
313 0 1 -7.140246 -15.495644 49.814789
314 0 1 -6.625825 -15.185743 49.001892
315 0 1 -5.624125 -15.018344 48.784790
316 0 1 -5.439536 -14.098844 48.590698
317 0 1 -5.716537 -13.366045 49.201202
318 0 1 -5.115186 -12.939245 49.782715
319 0 1 -4.676316 -12.815042 50.639191
320 0 1 -5.031596 -13.050543 51.506805
321 0 1 -4.942826 -12.229044 52.068207
322 0 1 -4.666806 -12.755444 52.859009
323 0 1 -5.119086 -11.882944 53.184906
324 0 1 -6.056916 -11.596445 53.171387
325 0 1 -6.592015 -12.349443 53.575195
326 0 1 -6.225905 -12.038343 54.431488
327 0 1 -7.093986 -11.799044 54.636414
328 0 1 -7.428996 -11.654444 55.545105
329 0 1 -7.087796 -10.916143 56.005005
330 0 1 -7.141515 -10.791643 57.010895
331 0 1 -6.367455 -10.185743 57.205109
332 0 1 -7.064906 -9.936344 57.929291
333 0 1 -7.392575 -9.150545 57.467407
334 0 1 -6.944665 -8.266863 57.401917
335 0 1 -6.078916 -8.114044 57.083588
336 0 1 -6.139636 -7.186952 56.742096
337 0 1 -5.554887 -6.445034 56.464111
338 0 1 -5.176316 -7.058673 57.176086
339 0 1 -4.954106 -7.854093 56.718506
340 0 1 -4.142356 -7.789434 57.239410
341 0 1 -3.601766 -7.095865 57.664001
342 0 1 -2.729913 -6.983493 57.970306
343 0 1 -1.960078 -6.954933 57.380798
344 0 1 -2.093721 -6.841434 56.451111
345 0 1 -1.428136 -7.716234 56.654694
346 0 1 -1.019536 -8.372633 57.297485
347 0 1 -1.203076 -9.300943 57.486084
348 0 1 -1.806577 -9.382744 58.234100
349 0 1 -2.085101 -9.342344 59.125000
350 0 1 -2.600206 -10.030643 59.511597
351 0 1 -3.440875 -10.267645 60.041199
352 0 1 -3.505435 -10.892744 60.818115
353 0 1 -3.223069 -11.491945 61.497192
354 0 1 -2.940677 -10.877943 62.180389
355 0 1 -3.006011 -10.392544 62.967987
356 0 1 -3.940295 -10.563543 63.085388
357 0 1 -3.897105 -9.600344 62.786102
358 0 1 -4.669347 -9.543344 63.387299
359 0 1 -4.925056 -8.626265 63.224304
360 0 1 -4.635177 -8.084114 62.480194
361 0 1 -4.478766 -7.217752 62.238586
362 0 1 -3.435256 -7.153114 62.046112
363 0 1 -2.468566 -7.022064 62.194611
364 0 1 -2.540286 -7.872423 62.559204
365 0 1 -3.053899 -7.824125 63.386292
366 0 1 -2.154655 -7.605283 63.774994
367 0 1 -2.488168 -6.854244 64.274292
368 0 1 -2.248060 -5.868383 64.100189
369 0 1 -3.194787 -5.587354 64.130798
370 0 1 -3.698716 -4.802484 63.764801
371 0 1 -4.509425 -4.924234 63.218506
372 0 1 -4.770226 -5.698064 63.771210
373 0 1 -5.494536 -6.263624 63.508789
374 0 1 -6.326417 -5.923303 63.112701
375 0 1 -7.041387 -6.183473 63.714813
376 0 1 -7.824506 -6.448413 64.211304
377 0 1 -8.302995 -6.906843 63.474609
378 0 1 -9.243876 -7.010044 63.230713
379 0 1 -10.082496 -6.760553 63.728302
380 0 1 -10.643697 -6.048744 63.420288
381 0 1 -11.616996 -6.002134 63.412506
382 0 1 -12.482736 -5.633144 63.654388
383 0 1 -13.397935 -5.358123 63.666992
384 0 1 -13.378736 -6.198434 64.149109
385 0 1 -13.104535 -6.958684 63.647888
386 0 1 -12.718436 -6.835954 62.792114
387 0 1 -12.428235 -7.441864 62.127411
388 0 1 -12.477235 -6.564533 61.603699
389 0 1 -12.721837 -5.559953 61.625793
390 0 1 -12.939536 -5.753143 60.719208
391 0 1 -12.612435 -4.849824 60.830109
392 0 1 -12.342736 -3.914434 61.049500
393 0 1 -11.459447 -4.158884 60.477509
394 0 1 -12.288335 -4.041154 59.984100
395 0 1 -12.392236 -3.798734 59.036407
396 0 1 -11.784726 -3.935792 58.259613
397 0 1 -11.079276 -3.280113 58.386902
398 0 1 -10.289756 -2.736564 58.504791
399 0 1 -9.735276 -2.096483 58.085907
400 0 1 -9.588025 -2.315732 57.146606
401 0 1 -10.358575 -2.208383 56.469299
402 0 1 -11.238086 -1.823703 56.560913
403 0 1 -10.780416 -0.934583 56.619202
404 0 1 -10.313066 -0.731653 55.817413
405 0 1 -10.757535 -0.250623 55.115601
406 0 1 -11.015077 0.165146 55.985809
407 0 1 -11.343877 0.839541 55.404785
408 0 1 -10.561307 1.409006 55.393707
409 0 1 -10.285737 2.273016 55.318390
410 0 1 -10.813706 2.371136 54.511414
411 0 1 -11.406255 3.143126 54.682098
412 0 1 -11.421765 3.877966 53.961090
413 0 1 -11.704675 3.527876 53.052704
414 0 1 -11.328805 2.594866 53.053497
415 0 1 -10.868825 1.945816 52.552002
416 0 1 -11.419297 2.414866 51.936005
417 0 1 -10.606065 2.834765 51.656708
418 0 1 -10.341395 2.990885 50.757507
419 0 1 -10.105676 3.436087 49.901093
420 0 1 -9.692815 3.426386 49.033813
421 0 1 -10.502877 3.275107 48.476593
422 0 1 -11.210906 2.667758 48.764313
423 0 1 -11.976655 2.442908 49.259094
424 0 1 -12.210237 1.942196 50.064514
425 0 1 -11.761575 1.185397 49.575195
426 0 1 -11.556706 0.303406 49.885986
427 0 1 -10.897906 -0.044984 49.327515
428 0 1 -11.247716 0.744076 48.785187
429 0 1 -10.775407 1.496197 48.283112
430 0 1 -10.876416 1.772757 47.396393
431 0 1 -10.727735 0.818989 47.324402
432 0 1 -9.888875 0.485693 47.049896
433 0 1 -9.304376 0.294020 46.236694
434 0 1 -8.488086 0.732331 46.669006
435 0 1 -8.510446 1.654532 46.683289
436 0 1 -7.814725 1.374787 47.256897
437 0 1 -7.284575 0.611382 47.784607
438 0 1 -6.980456 1.139195 48.575592
439 0 1 -6.130395 1.663969 48.794098
440 0 1 -5.994866 2.599997 49.169617
441 0 1 -5.354547 3.349608 49.291687
442 0 1 -4.951066 4.289908 49.358795
443 0 1 -4.266557 4.458647 48.754303
444 0 1 -4.186635 4.444968 47.754791
445 0 1 -3.638397 4.133738 47.019592
446 0 1 -3.580575 3.355708 46.397491
447 0 1 -2.659608 3.652766 46.662689
448 0 1 -2.714217 2.807246 46.194702
449 0 1 -3.459396 2.216616 46.076111
450 0 1 -4.419896 2.472708 46.065094
451 0 1 -4.500587 1.520628 45.887909
452 0 1 -4.742246 0.913391 45.116608
453 0 1 -4.807736 -0.042568 44.947815
454 0 1 -5.684337 0.354414 44.965302
455 0 1 -6.221375 -0.419214 44.802612
456 0 1 -5.975156 -1.004974 44.024994
457 0 1 -5.076346 -1.284093 43.924408
458 0 1 -4.210826 -1.601404 44.091492
459 0 1 -4.462775 -2.448434 43.622314
460 0 1 -4.356875 -3.439224 43.540405
461 0 1 -3.411016 -3.097244 43.548309
462 0 1 -2.691112 -3.650774 43.315094
463 0 1 -2.902801 -4.560754 43.083099
464 0 1 -2.296560 -5.231683 43.416809
465 0 1 -1.946359 -4.561443 44.123901
466 0 1 -1.121146 -4.939363 43.856903
467 0 1 -0.213967 -5.350603 43.840790
468 0 1 -0.097634 -4.452264 43.573608
469 0 1 0.760302 -4.219123 43.921814
470 0 1 0.894175 -4.165924 44.898315
471 0 1 0.479014 -4.965133 45.137604
472 0 1 0.228682 -5.181253 46.072815
473 0 1 0.847613 -4.481653 46.201202
474 0 1 0.365283 -4.541294 46.981812
475 0 1 0.283713 -5.461004 47.156311
476 0 1 -0.659146 -5.728874 47.117310
477 0 1 -0.756086 -5.733573 48.077087
478 0 1 -0.621644 -6.456323 48.670410
479 0 1 0.135035 -6.437984 48.041901
480 0 1 0.978854 -6.579732 48.334900
481 0 1 1.575435 -6.487453 47.610809
482 0 1 1.984034 -6.359533 46.743011
483 0 1 2.771804 -6.770133 46.263611
484 0 1 2.977553 -6.103263 47.061890
485 0 1 3.936496 -5.873123 46.848602
486 0 1 4.183753 -6.757154 46.562195
487 0 1 4.779994 -6.118204 46.117889
488 0 1 5.241405 -5.819044 45.265808
489 0 1 4.933314 -5.861463 44.369598
490 0 1 5.669326 -5.753343 43.813812
491 0 1 5.592784 -4.938083 43.176514
492 0 1 5.195315 -4.282384 42.543091
493 0 1 5.381244 -3.608743 41.915192
494 0 1 6.039035 -3.891202 41.272217
495 0 1 6.920154 -3.991033 41.746307
496 0 1 7.474044 -4.643283 42.238495
497 0 1 7.159503 -5.495813 41.789185
498 0 1 7.059875 -5.755785 42.708801
499 0 1 7.221793 -6.698053 42.917511
500 0 1 7.319057 -7.436502 42.311890
501 0 1 8.114566 -6.915603 42.137299
502 0 1 8.755263 -6.766384 41.464905
503 0 1 8.998263 -7.668054 41.264404
504 0 1 9.529162 -8.271643 40.822113
505 0 1 10.359363 -8.794174 40.846008
506 0 1 10.109164 -8.588003 39.860413
507 0 1 10.416564 -9.117044 39.168701
508 0 1 10.716266 -8.219614 38.957886
509 0 1 10.847766 -7.838653 38.058197
510 0 1 11.249663 -7.044834 38.246796
511 0 1 11.957164 -7.480592 37.643097
512 0 1 11.803763 -8.066263 36.888000
513 0 1 12.526965 -8.767254 36.641602
514 0 1 13.100764 -9.580645 36.519714
515 0 1 13.638064 -10.079844 37.168396
516 0 1 13.601466 -9.745745 38.097809
517 0 1 12.809062 -10.112345 38.483398
518 0 1 12.114062 -9.950544 37.782898
519 0 1 11.669463 -10.762444 37.755615
520 0 1 11.904963 -10.634644 36.817505
521 0 1 12.445163 -11.450144 36.662415
522 0 1 12.839763 -11.921343 35.899109
523 0 1 13.509166 -11.286444 36.159210
524 0 1 12.869765 -10.770844 35.718201
525 0 1 13.288665 -10.068445 35.196503
526 0 1 12.586665 -9.916243 34.461212
527 0 1 12.841964 -10.802044 33.985291
528 0 1 12.688163 -10.854744 33.073792
529 0 1 12.350863 -11.687044 33.496613
530 0 1 11.844665 -11.818743 32.695099
531 0 1 12.682162 -11.492743 32.316895
532 0 1 12.656165 -10.653643 31.789612
533 0 1 12.859565 -9.763744 31.392212
534 0 1 12.116263 -10.010645 30.792603
535 0 1 12.149764 -11.031744 30.742615
536 0 1 11.332767 -11.522943 30.494507
537 0 1 10.470565 -11.033443 30.404388
538 0 1 10.024463 -11.351343 31.160797
539 0 1 9.349963 -11.307245 31.805786
540 0 1 8.765265 -11.359545 32.544403
541 0 1 7.993865 -11.216644 31.999084
542 0 1 7.557334 -12.032244 31.853088
543 0 1 7.105113 -11.821543 32.742188
544 0 1 6.990584 -11.963545 33.707001
545 0 1 7.175433 -11.171244 34.169312
546 0 1 7.413722 -10.777044 33.275513
547 0 1 6.985175 -9.978243 33.654297
548 0 1 7.862666 -9.432043 33.829010
549 0 1 8.162463 -9.458344 34.709991
550 0 1 7.521255 -9.897943 35.281189
551 0 1 8.160865 -10.599043 34.993988
552 0 1 8.273067 -10.384943 34.031097
553 0 1 8.986365 -9.818644 33.717407
554 0 1 9.798064 -9.820044 34.194611
555 0 1 10.679866 -9.457243 34.487213
556 0 1 11.471663 -9.054844 34.734802
557 0 1 12.221965 -8.778454 34.147491
558 0 1 12.668963 -8.454824 34.979309
559 0 1 13.636764 -8.185804 34.791199
560 0 1 14.124465 -7.769285 34.081390
561 0 1 14.326163 -7.489614 33.219208
562 0 1 13.518264 -7.327253 32.820587
563 0 1 14.035964 -8.100485 32.361206
564 0 1 13.918464 -7.664014 31.532593
565 0 1 14.838664 -8.021273 31.643188
566 0 1 14.953166 -8.578413 32.443695
567 0 1 15.347964 -9.168344 33.061798
568 0 1 16.202166 -8.854013 33.394287
569 0 1 16.067965 -8.027945 33.903595
570 0 1 15.813266 -7.193452 34.352112
571 0 1 15.325664 -6.450883 34.534088
572 0 1 16.104464 -5.937654 34.888794
573 0 1 15.601264 -5.157203 35.144012
574 0 1 16.167765 -4.566324 35.563507
575 0 1 16.753466 -4.620174 36.253693
576 0 1 17.350763 -5.125663 35.734100
577 0 1 18.044664 -4.522354 35.669708
578 0 1 18.795465 -5.175283 35.628998
579 0 1 19.165262 -5.850244 35.045807
580 0 1 18.847864 -6.768203 35.026093
581 0 1 18.270761 -7.463953 35.188995
582 0 1 18.321363 -7.850202 34.292786
583 0 1 18.973864 -8.338743 34.784912
584 0 1 19.240465 -9.153845 34.401184
585 0 1 19.725061 -9.215544 33.576111
586 0 1 20.105265 -9.669645 32.829193
587 0 1 20.310263 -8.793943 32.533813
588 0 1 21.072664 -8.342623 32.912811
589 0 1 21.627962 -7.511964 32.936890
590 0 1 22.081064 -6.657474 32.665802
591 0 1 21.938364 -6.561504 31.750092
592 0 1 20.991365 -6.596374 31.823212
593 0 1 20.087164 -7.048772 32.059906
594 0 1 19.102365 -6.978612 32.191010
595 0 1 18.695063 -6.801973 31.359406
596 0 1 17.750360 -7.203273 31.041901
597 0 1 17.353762 -6.355203 31.173096
598 0 1 16.712465 -6.122034 30.534698
599 0 1 16.743364 -5.362203 31.136810
600 0 1 16.341761 -5.500743 31.997192
601 0 1 16.400362 -5.051153 32.836090
602 0 1 15.475764 -4.622743 33.066010
603 0 1 15.771365 -4.259523 32.211090
604 0 1 15.129565 -3.684204 31.758698
605 0 1 14.726466 -4.332263 31.234009
606 0 1 14.399264 -4.123634 30.327911
607 0 1 13.686564 -4.749273 30.656799
608 0 1 12.778464 -4.784763 30.915314
609 0 1 13.016364 -5.180673 31.711212
610 0 1 13.225463 -6.093223 32.052399
611 0 1 12.585063 -6.090784 32.764099
612 0 1 13.140964 -5.331844 33.159210
613 0 1 12.945765 -4.421964 33.359192
614 0 1 13.217063 -3.789804 34.089600
615 0 1 12.750163 -4.403364 34.687195
616 0 1 13.071666 -5.186874 34.259796
617 0 1 12.101665 -5.410203 34.321198
618 0 1 11.327064 -4.899244 34.349609
619 0 1 10.648665 -4.975254 35.111298
620 0 1 10.093863 -5.760374 35.232483
621 0 1 9.154162 -5.557073 35.206696
622 0 1 8.470965 -5.682403 34.507111
623 0 1 8.058364 -4.742744 34.333099
624 0 1 8.505664 -5.224443 33.571503
625 0 1 9.173366 -6.031494 33.312805
626 0 1 8.944766 -6.967063 33.238586
627 0 1 8.179263 -6.413494 33.026184
628 0 1 7.378104 -6.305894 33.529388
629 0 1 7.394824 -5.454463 33.104095
630 0 1 6.927314 -4.620224 33.094391
631 0 1 6.902553 -4.503774 32.050110
632 0 1 5.992023 -4.806043 31.697510
633 0 1 5.679564 -4.699474 30.809509
634 0 1 6.083865 -3.792854 30.773010
635 0 1 6.197696 -3.856033 29.860107
636 0 1 5.642543 -3.078674 29.640289
637 0 1 5.030772 -3.811473 29.649811
638 0 1 4.752086 -4.547033 29.130798
639 0 1 5.042304 -4.809663 28.287598
640 0 1 5.471404 -4.078523 27.926392
641 0 1 4.715373 -3.837923 27.334290
642 0 1 4.486026 -4.062784 26.422302
643 0 1 4.475875 -4.406065 25.495911
644 0 1 5.167186 -4.552404 24.792206
645 0 1 5.077083 -3.840143 24.124298
646 0 1 4.048255 -4.032823 24.035095
647 0 1 4.308642 -4.556364 23.263611
648 0 1 3.373603 -4.328825 23.242004
649 0 1 2.694175 -4.837974 22.705597
650 0 1 2.109843 -5.483203 22.294403
651 0 1 2.841395 -6.109634 22.474396
652 0 1 3.086913 -5.735853 21.673492
653 0 1 3.046466 -6.439504 21.054504
654 0 1 3.345824 -5.848533 20.375595
655 0 1 4.053893 -5.238403 20.040695
656 0 1 4.724254 -5.742944 19.546799
657 0 1 4.680934 -5.838024 18.521194
658 0 1 5.025023 -6.731853 18.466599
659 0 1 5.664523 -6.489063 17.709000
660 0 1 5.994884 -7.012643 16.942505
661 0 1 6.725635 -6.944004 16.336502
662 0 1 6.670833 -6.016744 16.302200
663 0 1 6.513503 -5.206153 15.761506
664 0 1 5.534255 -5.274673 16.017197
665 0 1 5.133662 -6.031044 16.495697
666 0 1 4.428462 -6.586864 16.790405
667 0 1 4.849143 -7.413312 16.885406
668 0 1 4.742003 -7.848983 16.041901
669 0 1 4.218875 -7.259933 15.457597
670 0 1 3.762175 -6.795354 14.752900
671 0 1 3.445643 -6.039514 15.214509
672 0 1 2.612593 -5.791633 15.650407
673 0 1 2.331195 -5.460433 16.525497
674 0 1 2.053103 -4.544282 16.430206
675 0 1 1.625094 -3.811153 16.946808
676 0 1 2.131743 -4.299573 17.517899
677 0 1 2.824572 -3.901853 18.059006
678 0 1 3.037734 -3.207193 17.443298
679 0 1 3.315325 -2.703294 16.670807
680 0 1 3.682784 -3.458204 16.188705
681 0 1 4.445125 -3.566524 16.870804
682 0 1 4.417525 -3.572553 17.892303
683 0 1 5.367213 -3.370023 17.986603
684 0 1 6.108863 -3.588264 17.363297
685 0 1 7.061954 -3.897724 17.245499
686 0 1 7.861964 -3.491714 17.462006
687 0 1 8.416263 -4.076164 16.965897
688 0 1 8.886264 -4.921384 17.291794
689 0 1 9.682563 -4.826234 16.692993
690 0 1 9.826762 -4.186893 17.359100
691 0 1 9.981063 -3.313653 17.699997
692 0 1 9.644565 -2.540983 18.085602
693 0 1 10.167464 -2.358434 17.266998
694 0 1 11.076663 -2.289833 17.023407
695 0 1 11.812366 -2.867923 16.979401
696 0 1 12.347766 -2.172544 16.797607
697 0 1 11.711963 -1.448993 16.961502
698 0 1 10.881064 -0.921034 17.028702
699 0 1 10.640563 0.077454 17.029694
700 0 1 11.008964 0.556214 17.776505
701 0 1 11.821265 0.257191 18.085297
702 0 1 12.573466 0.792210 18.244202
703 0 1 12.240264 0.708449 19.142792
704 0 1 12.518962 0.212578 20.013702
705 0 1 11.831065 0.495274 20.768494
706 0 1 11.255565 1.084301 21.266998
707 0 1 11.854663 1.770350 21.600601
708 0 1 11.898665 1.093573 22.222397
709 0 1 11.833766 1.447430 23.097809
710 0 1 11.072566 1.845976 23.417694
711 0 1 10.718265 2.444167 24.131897
712 0 1 9.804263 2.629317 24.011414
713 0 1 8.923865 2.471938 23.656403
714 0 1 8.480964 3.303385 23.832794
715 0 1 7.754165 3.431387 24.419312
716 0 1 6.824775 3.372588 24.636597
717 0 1 5.920604 3.697405 24.951111
718 0 1 5.647635 3.825266 25.877197
719 0 1 6.127784 4.403586 26.503601
720 0 1 6.905856 3.988917 26.839600
721 0 1 7.037074 4.082266 25.878784
722 0 1 7.515826 4.824988 25.338593
723 0 1 8.336463 5.196566 25.525604
724 0 1 8.254764 6.113055 25.954193
725 0 1 8.980563 6.392958 26.561005
726 0 1 8.774562 6.466586 27.500305
727 0 1 7.788165 6.421317 27.501495
728 0 1 6.866542 6.673586 27.372101
729 0 1 6.423396 6.296237 28.118591
730 0 1 5.646625 6.892535 28.157806
731 0 1 5.924193 7.816325 28.149109
732 0 1 5.135272 8.185015 27.648895
733 0 1 5.901145 8.695055 27.332611
734 0 1 5.421542 8.836016 26.524994
735 0 1 5.032916 9.082155 25.712402
736 0 1 4.928454 8.181307 25.595093
737 0 1 5.563575 7.835497 24.947388
738 0 1 5.637725 7.288798 25.752899
739 0 1 6.267974 6.637137 26.029114
740 0 1 5.746745 5.865897 25.886902
741 0 1 5.056422 5.514227 26.415802
742 0 1 4.272704 5.946578 26.153290
743 0 1 3.777755 6.233637 26.932404
744 0 1 3.145385 5.524348 26.700012
745 0 1 3.248942 5.487486 25.771088
746 0 1 2.427855 5.150317 25.481384
747 0 1 1.742064 5.771807 25.630005
748 0 1 1.168414 6.356646 25.145691
749 0 1 0.693324 6.596758 24.293488
750 0 1 0.705844 5.742259 23.744598
751 0 1 -0.143758 5.266718 23.634186
752 0 1 -1.132405 5.189986 23.843994
753 0 1 -1.431972 5.609965 24.699890
754 0 1 -2.362922 5.665907 24.379608
755 0 1 -2.101743 6.019026 23.517212
756 0 1 -1.568130 6.556868 22.955688
757 0 1 -2.277734 7.272936 22.955902
758 0 1 -2.531003 6.539328 22.396500
759 0 1 -2.552022 7.480048 22.045502
760 0 1 -2.765863 8.230738 21.404205
761 0 1 -3.039445 8.203836 20.455292
762 0 1 -4.013135 8.200624 20.483994
763 0 1 -4.055316 8.394938 19.530197
764 0 1 -4.574315 7.811957 18.896606
765 0 1 -5.477487 7.765425 19.232300
766 0 1 -5.328376 6.867987 19.491104
767 0 1 -6.177106 6.917407 19.056198
768 0 1 -6.722205 6.674654 19.859299
769 0 1 -7.523536 6.261096 19.500595
770 0 1 -7.701917 5.575396 20.188995
771 0 1 -8.563975 5.829257 20.546494
772 0 1 -7.901156 5.652678 21.244705
773 0 1 -7.358047 6.058848 21.964600
774 0 1 -7.501346 5.886668 22.943115
775 0 1 -7.611566 5.025996 23.441803
776 0 1 -8.526736 4.903857 23.479095
777 0 1 -8.921037 4.138255 23.179108
778 0 1 -8.796567 3.844908 22.242493
779 0 1 -8.626166 2.899306 22.607788
780 0 1 -9.152307 2.227646 22.195801