LAMMPS data file via MDAnalysis

        2000  atoms
        1999  bonds
           0  angles
           0  dihedrals
           0  impropers

           1  atom types
           1  bond types
           0  angle types
           0  dihedral types
           0  improper types

-30.5 30.5 xlo xhi
-30.5 30.5 ylo yhi
-233.5 233.5 zlo zhi


Masses

1 1.000000

Atoms

1 0 1 14.375001 -13.743362 65.248596
2 0 1 14.961709 -13.418962 65.891418
3 0 1 15.291409 -14.326662 66.281799
4 0 1 14.684911 -14.906562 66.685303
5 0 1 14.358731 -15.773263 66.999603
6 0 1 13.447289 -16.142363 66.884399
7 0 1 12.655442 -15.959062 66.264099
8 0 1 12.141591 -16.417562 66.976807
9 0 1 12.596650 -15.624362 67.426910
10 0 1 13.215390 -15.630363 68.185486
11 0 1 13.214490 -14.696563 68.576202
12 0 1 13.347489 -13.958562 69.146210
13 0 1 13.761380 -14.260862 69.964294
14 0 1 14.521291 -13.992163 70.404510
15 0 1 14.430650 -14.820363 70.832611
16 0 1 14.406373 -15.579663 71.407104
17 0 1 14.576173 -16.383963 71.927094
18 0 1 14.765759 -15.554563 72.467407
19 0 1 14.181111 -15.375361 73.220490
20 0 1 14.374532 -15.202563 74.132904
21 0 1 14.541562 -15.153663 75.070709
22 0 1 15.101911 -15.349162 75.842896
23 0 1 14.999410 -16.367264 76.005005
24 0 1 14.116712 -16.055563 76.250916
25 0 1 13.304452 -15.794362 75.629791
26 0 1 13.514909 -15.759763 74.692291
27 0 1 12.850579 -16.423862 74.634399
28 0 1 13.205930 -16.813763 73.817017
29 0 1 12.967050 -17.723564 73.624298
30 0 1 12.808763 -18.691664 73.234406
31 0 1 12.255921 -19.329363 72.770813
32 0 1 12.542882 -19.862564 73.558105
33 0 1 11.932622 -19.790863 74.286316
34 0 1 11.384072 -20.581263 74.300995
35 0 1 11.387372 -20.466564 73.306610
36 0 1 11.116029 -19.703663 72.776703
37 0 1 10.344743 -19.409363 72.277008
38 0 1 10.191941 -20.220764 72.682404
39 0 1 10.165532 -20.323963 73.667694
40 0 1 9.956361 -21.237762 74.043518
41 0 1 9.118802 -21.718464 74.290100
42 0 1 8.918920 -20.735662 74.194702
43 0 1 8.237489 -20.363964 73.609497
44 0 1 8.714070 -20.248463 72.803192
45 0 1 8.454843 -19.322664 72.749817
46 0 1 8.221509 -18.513863 72.240997
47 0 1 9.063550 -18.569464 71.815094
48 0 1 8.325349 -18.807962 71.161407
49 0 1 8.917611 -18.891464 70.354004
50 0 1 8.473012 -19.396164 69.619812
51 0 1 8.338670 -18.934164 68.756897
52 0 1 7.522020 -18.558964 68.379883
53 0 1 7.949270 -18.837864 67.527710
54 0 1 7.196371 -18.294662 67.103210
55 0 1 6.863401 -17.761663 66.277008
56 0 1 6.672082 -17.339964 67.069885
57 0 1 6.699132 -16.636663 67.687195
58 0 1 6.045862 -16.237463 67.117004
59 0 1 6.458162 -15.363862 67.045288
60 0 1 6.536092 -15.010062 66.067810
61 0 1 7.227041 -14.334962 66.056396
62 0 1 7.133401 -13.721362 66.784393
63 0 1 7.224809 -12.817163 66.427704
64 0 1 7.750570 -12.055463 66.858704
65 0 1 7.211851 -11.622363 66.201416
66 0 1 6.299911 -11.316962 66.110901
67 0 1 6.427471 -10.719962 65.383911
68 0 1 6.914201 -10.259063 64.709808
69 0 1 6.813859 -9.267161 64.553802
70 0 1 6.534353 -8.397532 64.757385
71 0 1 7.030851 -7.816923 64.109497
72 0 1 7.180810 -7.367143 64.908813
73 0 1 6.813932 -7.531682 65.788696
74 0 1 5.922128 -7.735004 65.896118
75 0 1 5.968280 -8.152102 66.802704
76 0 1 5.143634 -8.372703 66.246887
77 0 1 4.245594 -8.529252 66.024689
78 0 1 4.011257 -8.258952 65.148682
79 0 1 3.835290 -7.616992 65.834900
80 0 1 3.294042 -7.124473 66.404907
81 0 1 2.712671 -6.875572 65.697296
82 0 1 1.811471 -6.575273 65.638489
83 0 1 2.331661 -5.859582 66.002289
84 0 1 1.696641 -5.841762 66.730011
85 0 1 1.360841 -5.208534 66.083008
86 0 1 0.898740 -5.121143 67.004395
87 0 1 0.488660 -4.353492 66.746307
88 0 1 -0.346940 -3.953403 67.004089
89 0 1 -0.137820 -3.465083 67.766785
90 0 1 0.473041 -3.928931 68.324799
91 0 1 -0.185809 -3.732923 69.076782
92 0 1 -1.029710 -3.829322 68.725098
93 0 1 -1.741450 -4.539203 68.762207
94 0 1 -2.176308 -3.931312 68.184082
95 0 1 -1.878918 -3.743083 67.304993
96 0 1 -2.422518 -3.712823 66.511108
97 0 1 -2.417819 -4.695432 66.316193
98 0 1 -2.855679 -4.434883 67.101410
99 0 1 -2.151929 -4.968942 67.324493
100 0 1 -1.735409 -5.759323 67.266693
101 0 1 -1.371760 -5.912673 68.096405
102 0 1 -0.616648 -6.493793 67.878296
103 0 1 -1.033559 -7.368223 67.891510
104 0 1 -0.507178 -7.702053 67.094910
105 0 1 -0.553519 -8.591063 67.273102
106 0 1 -0.754489 -9.327064 67.825806
107 0 1 -1.592219 -9.350364 67.190186
108 0 1 -1.551240 -8.499202 66.638916
109 0 1 -1.029469 -8.323314 65.820312
110 0 1 -0.563819 -7.485282 66.019104
111 0 1 -0.172839 -6.765552 65.604401
112 0 1 0.366081 -7.237792 64.918701
113 0 1 -0.181720 -6.826423 64.212494
114 0 1 0.012182 -5.892602 64.261292
115 0 1 -0.441828 -5.254493 63.771912
116 0 1 -1.071219 -4.999692 64.536682
117 0 1 -1.701258 -4.559932 63.888489
118 0 1 -0.953309 -4.114982 63.524811
119 0 1 -0.565240 -4.689462 62.797302
120 0 1 -0.494040 -4.675342 61.842712
121 0 1 0.093690 -4.147644 61.315491
122 0 1 0.265231 -4.461162 60.402100
123 0 1 -0.531190 -4.865293 60.773407
124 0 1 -1.397729 -5.150262 60.520813
125 0 1 -1.094359 -4.394832 59.938812
126 0 1 -0.917619 -4.721862 59.006287
127 0 1 -1.420550 -5.471843 58.648895
128 0 1 -0.943019 -6.293632 58.834900
129 0 1 -0.657210 -6.839954 58.044189
130 0 1 -0.443610 -6.139923 57.406494
131 0 1 0.393611 -5.761932 57.939209
132 0 1 1.208841 -5.963792 57.506592
133 0 1 1.217021 -5.885822 56.568909
134 0 1 1.278390 -4.926242 56.707703
135 0 1 1.925111 -5.358783 56.138702
136 0 1 2.521051 -6.041723 56.147308
137 0 1 2.933801 -6.568733 55.443115
138 0 1 3.919450 -6.605033 55.403992
139 0 1 4.797693 -6.673454 55.132812
140 0 1 4.458221 -6.529953 54.231201
141 0 1 4.961511 -6.078372 53.569397
142 0 1 5.492254 -5.511283 54.161804
143 0 1 6.106491 -5.113723 54.757812
144 0 1 6.329021 -4.556324 55.511810
145 0 1 6.643060 -5.493022 55.547913
146 0 1 6.723112 -5.275743 56.479797
147 0 1 5.906105 -5.747032 56.665802
148 0 1 5.521215 -5.325832 57.491089
149 0 1 5.380516 -6.202802 57.840698
150 0 1 5.539447 -6.754604 58.572601
151 0 1 6.448961 -6.943264 58.281006
152 0 1 6.506773 -6.432212 59.096985
153 0 1 7.291910 -6.191513 58.626709
154 0 1 7.697221 -5.593633 57.977600
155 0 1 8.058751 -4.871673 57.334290
156 0 1 7.622819 -4.145343 56.895813
157 0 1 7.390600 -3.200282 56.999603
158 0 1 6.576883 -3.401563 57.387299
159 0 1 7.106832 -3.438934 58.171295
160 0 1 7.762041 -2.989822 58.689514
161 0 1 7.957193 -2.077323 58.620911
162 0 1 7.937803 -1.184772 58.687592
163 0 1 8.446080 -0.581363 59.223389
164 0 1 9.040910 -0.397863 59.973999
165 0 1 8.342839 -0.400503 60.609100
166 0 1 7.607942 0.169068 60.469116
167 0 1 7.418649 0.920445 59.940796
168 0 1 6.472051 0.764918 60.090393
169 0 1 5.642808 0.544097 60.515503
170 0 1 6.015892 0.029067 61.322510
171 0 1 5.593938 0.471896 62.060791
172 0 1 4.745519 0.963895 61.979614
173 0 1 4.116300 1.145144 61.246887
174 0 1 3.880231 0.241967 61.513397
175 0 1 3.264241 -0.247423 62.126892
176 0 1 3.511220 -0.371173 63.114594
177 0 1 4.363300 -0.270072 63.570892
178 0 1 3.909251 -0.802402 64.205200
179 0 1 3.986469 -1.424842 63.479797
180 0 1 3.848991 -2.016412 62.657715
181 0 1 3.331182 -2.273544 63.513092
182 0 1 2.592420 -1.720733 63.311890
183 0 1 1.726112 -1.616153 63.712097
184 0 1 1.303731 -1.749852 64.595001
185 0 1 0.558801 -1.417953 65.276611
186 0 1 0.387851 -0.492162 65.491302
187 0 1 0.472562 0.440657 65.670410
188 0 1 0.564801 1.341885 65.406708
189 0 1 0.663661 2.256688 65.146790
190 0 1 0.097720 2.878598 65.616089
191 0 1 -0.436480 2.130418 65.751892
192 0 1 -1.084309 2.502297 66.370392
193 0 1 -1.547059 1.899686 67.060089
194 0 1 -0.893409 1.248450 66.850708
195 0 1 -1.664988 1.194981 66.284607
196 0 1 -2.344289 1.857083 66.423492
197 0 1 -2.321990 2.516368 65.718506
198 0 1 -2.357718 2.007928 64.896393
199 0 1 -2.046809 2.932267 64.499908
200 0 1 -1.889079 3.442769 63.691711
201 0 1 -2.384608 4.155365 64.124084
202 0 1 -2.917859 4.737347 64.644196
203 0 1 -2.166379 5.007336 65.172089
204 0 1 -1.865100 4.941449 66.073090
205 0 1 -2.143609 5.461438 66.912415
206 0 1 -2.592879 6.224717 66.556305
207 0 1 -3.464659 6.563946 66.271118
208 0 1 -2.834729 7.218796 66.531891
209 0 1 -3.496058 7.825177 66.273987
210 0 1 -4.468970 7.951748 65.999207
211 0 1 -4.377718 7.116818 66.545715
212 0 1 -5.283789 6.713597 66.215393
213 0 1 -4.798329 7.028157 65.434204
214 0 1 -4.690579 7.830517 64.937988
215 0 1 -5.326590 7.608647 64.173218
216 0 1 -5.347689 8.561238 64.169708
217 0 1 -4.774889 9.245446 63.830292
218 0 1 -4.211768 9.753457 63.241699
219 0 1 -4.918288 10.431546 63.149292
220 0 1 -5.309088 10.829469 62.434814
221 0 1 -5.067688 11.589738 62.949799
222 0 1 -5.712588 11.038186 63.432495
223 0 1 -5.895190 10.106168 63.526001
224 0 1 -6.867289 10.010308 63.260986
225 0 1 -7.598589 10.668229 63.137604
226 0 1 -7.892588 10.487077 64.027710
227 0 1 -7.773390 11.379888 64.295593
228 0 1 -7.106688 11.621037 63.609589
229 0 1 -7.130389 12.494939 63.234802
230 0 1 -7.832789 12.999738 63.734589
231 0 1 -7.683989 13.822438 64.227783
232 0 1 -6.750988 14.020139 64.325806
233 0 1 -6.619288 13.220338 63.925598
234 0 1 -5.768790 12.948037 64.188110
235 0 1 -5.720389 13.281339 65.065399
236 0 1 -5.638489 13.045037 65.993500
237 0 1 -6.188990 12.673440 66.618408
238 0 1 -6.269389 11.696637 66.626495
239 0 1 -6.785189 11.307729 67.330109
240 0 1 -6.480788 12.144135 67.667206
241 0 1 -6.931590 12.176038 68.526306
242 0 1 -7.706488 12.411038 68.997101
243 0 1 -7.694989 12.884038 69.864899
244 0 1 -8.702889 13.102239 69.873718
245 0 1 -9.157889 13.240438 70.732300
246 0 1 -8.229289 13.532338 70.661896
247 0 1 -8.721389 14.297837 70.338593
248 0 1 -9.306090 14.036439 69.680206
249 0 1 -9.756289 14.780236 70.035004
250 0 1 -9.265590 15.527638 69.574402
251 0 1 -9.897789 16.028736 68.883301
252 0 1 -10.521489 16.739635 69.045410
253 0 1 -11.040990 17.315735 68.401398
254 0 1 -11.825290 17.823837 68.330017
255 0 1 -11.531789 18.760937 68.060791
256 0 1 -11.872989 19.286037 68.873505
257 0 1 -11.960689 18.717438 69.647705
258 0 1 -12.167989 17.971138 70.166199
259 0 1 -12.325789 18.718834 70.642883
260 0 1 -12.619689 19.653038 70.916504
261 0 1 -12.029189 19.625736 71.708801
262 0 1 -11.239490 20.077736 71.667694
263 0 1 -11.302289 20.755135 70.958313
264 0 1 -10.466490 20.348537 70.654785
265 0 1 -10.210189 19.760036 69.896484
266 0 1 -9.798590 20.408134 69.216797
267 0 1 -9.445090 19.698437 68.622192
268 0 1 -9.105090 18.865437 68.844788
269 0 1 -8.549991 18.177734 69.412598
270 0 1 -8.841788 17.314636 69.618591
271 0 1 -8.843188 16.811836 70.518311
272 0 1 -7.890288 16.689835 70.503296
273 0 1 -7.000788 17.295235 70.582092
274 0 1 -6.167889 17.586037 70.953705
275 0 1 -5.431489 17.075336 71.078186
276 0 1 -5.414290 16.256336 70.498596
277 0 1 -5.660489 15.471040 69.979187
278 0 1 -6.485589 15.531739 69.493286
279 0 1 -6.277689 16.451336 69.692688
280 0 1 -5.796189 16.959236 69.033203
281 0 1 -5.505188 17.659237 68.344391
282 0 1 -4.885890 18.440136 68.371216
283 0 1 -5.266188 18.969437 69.099609
284 0 1 -4.882979 19.799034 68.890015
285 0 1 -4.022158 19.377937 68.512909
286 0 1 -3.795939 20.332138 68.468201
287 0 1 -3.589179 21.282135 68.497406
288 0 1 -2.681309 21.408237 68.226501
289 0 1 -2.628709 20.510139 67.771210
290 0 1 -1.710999 20.797436 67.664093
291 0 1 -0.964200 20.824135 67.080597
292 0 1 -1.219329 20.095238 66.520996
293 0 1 -1.087809 20.306137 65.582001
294 0 1 -0.204838 20.487839 65.904297
295 0 1 0.193721 19.665737 65.637085
296 0 1 1.003930 19.420334 66.047302
297 0 1 1.415052 19.346634 65.216614
298 0 1 1.183940 20.195637 64.919617
299 0 1 0.935411 20.673538 65.703491
300 0 1 0.453141 21.269936 66.327087
301 0 1 0.945482 22.059639 66.455383
302 0 1 1.451711 22.735737 66.066101
303 0 1 2.037042 23.362137 66.483093
304 0 1 2.605790 22.740437 66.013611
305 0 1 2.751802 22.210037 65.273010
306 0 1 3.751071 22.081837 65.110504
307 0 1 3.784742 22.568138 66.079803
308 0 1 4.514472 23.187538 65.985413
309 0 1 4.356779 23.829136 66.756409
310 0 1 4.230573 24.745438 67.044983
311 0 1 4.980741 25.236038 67.347198
312 0 1 4.753652 25.395836 68.293793
313 0 1 4.034086 24.746838 68.343109
314 0 1 3.801221 23.971535 68.888489
315 0 1 3.047780 23.353935 68.603882
316 0 1 2.788261 22.433937 68.812500
317 0 1 3.133762 21.563339 68.625397
318 0 1 3.335962 20.686638 68.291901
319 0 1 4.015459 19.989235 68.150299
320 0 1 4.458728 20.384136 68.842499
321 0 1 3.776490 20.407738 69.581482
322 0 1 4.652473 20.197739 69.938416
323 0 1 5.283088 19.448235 69.836395
324 0 1 5.315679 18.661934 69.206787
325 0 1 5.658376 18.463135 68.320496
326 0 1 5.568624 19.373535 67.992188
327 0 1 6.371850 19.291836 67.421906
328 0 1 6.327951 19.756237 66.571808
329 0 1 6.786703 20.446236 66.107391
330 0 1 6.878183 20.247536 65.132111
331 0 1 6.466020 20.401138 64.270203
332 0 1 5.687257 20.137939 64.797913
333 0 1 5.250440 20.539337 64.056213
334 0 1 4.343112 20.244339 63.848389
335 0 1 3.492320 20.771439 63.812103
336 0 1 3.389291 21.658237 63.429199
337 0 1 3.920541 22.054737 62.777313
338 0 1 3.554021 22.643539 62.109589
339 0 1 3.299171 22.222435 61.269897
340 0 1 4.083301 22.745834 61.161102
341 0 1 3.989051 23.414734 60.446808
342 0 1 3.719232 23.531738 59.498505
343 0 1 3.109531 22.752037 59.529510
344 0 1 2.567090 22.010239 59.374908
345 0 1 1.660581 22.165138 59.043610
346 0 1 1.560331 21.882637 59.937897
347 0 1 1.407130 20.930038 60.127014
348 0 1 1.715020 20.415138 59.338806
349 0 1 0.935750 20.439339 58.855988
350 0 1 1.519151 19.892235 58.369385
351 0 1 2.121541 19.162136 58.709991
352 0 1 1.971280 18.260536 58.955811
353 0 1 2.891280 18.073936 58.706390
354 0 1 3.739991 17.822739 58.243103
355 0 1 4.629188 17.932434 58.661011
356 0 1 4.673105 17.617035 59.593689
357 0 1 5.388664 17.129436 60.060303
358 0 1 5.786321 16.497139 59.363190
359 0 1 6.211431 15.644338 59.127808
360 0 1 6.636781 14.892137 59.572113
361 0 1 7.309553 14.612435 58.841797
362 0 1 7.277620 13.884637 58.139313
363 0 1 6.414232 13.458638 58.483612
364 0 1 6.061481 12.786637 57.969696
365 0 1 6.002071 12.028138 58.520691
366 0 1 5.295072 12.608438 58.812683
367 0 1 4.924161 13.441037 58.495209
368 0 1 4.467491 13.857339 57.777802
369 0 1 5.110483 13.402638 57.282196
370 0 1 4.653924 12.604737 56.987610
371 0 1 4.115671 11.889039 56.622589
372 0 1 4.351591 11.463338 57.572205
373 0 1 4.438560 10.516938 57.497101
374 0 1 5.133464 9.869836 57.216095
375 0 1 5.939371 9.481519 56.957489
376 0 1 5.695676 9.704598 55.999908
377 0 1 5.924484 10.609067 55.841705
378 0 1 5.980451 10.941628 54.850098
379 0 1 5.099609 10.641488 54.698090
380 0 1 4.389053 10.568818 54.088806
381 0 1 4.424720 9.600087 53.994995
382 0 1 4.582391 8.724278 53.753387
383 0 1 3.942170 8.748288 52.974396
384 0 1 3.345050 8.013837 53.050201
385 0 1 3.845351 7.832139 52.204590
386 0 1 4.093851 7.656266 51.289490
387 0 1 3.227910 7.285946 51.326599
388 0 1 2.766931 6.977337 50.529388
389 0 1 3.025232 7.811829 50.218201
390 0 1 3.132020 8.430329 49.462097
391 0 1 3.673831 8.958966 48.834808
392 0 1 4.281326 9.441346 48.320404
393 0 1 5.139425 9.146878 48.568787
394 0 1 5.271368 10.093125 48.444092
395 0 1 6.227022 10.242948 48.453400
396 0 1 6.576620 10.643106 47.665100
397 0 1 6.730043 11.206597 46.905792
398 0 1 7.579271 10.648866 47.020203
399 0 1 7.046861 9.804276 47.162109
400 0 1 6.172132 9.845437 46.894989
401 0 1 5.598239 10.544686 46.719788
402 0 1 5.227647 10.067258 45.975098
403 0 1 4.338327 10.371057 45.597992
404 0 1 4.229282 11.303636 45.785889
405 0 1 4.360046 11.588136 46.703308
406 0 1 5.089958 12.226937 46.884216
407 0 1 4.560108 12.822839 47.336700
408 0 1 4.034795 13.648839 47.223816
409 0 1 3.672700 14.543336 47.365692
410 0 1 2.718372 14.342938 47.164703
411 0 1 2.271701 15.059937 47.551300
412 0 1 2.962402 15.670236 47.778809
413 0 1 3.615430 16.081436 47.178711
414 0 1 2.803951 16.509937 46.998291
415 0 1 2.288051 17.294235 46.928284
416 0 1 3.045701 17.740234 47.318115
417 0 1 3.917911 17.853336 47.099091
418 0 1 3.946870 18.795738 47.351410
419 0 1 4.205673 19.692837 47.534210
420 0 1 4.922800 19.603035 48.196808
421 0 1 5.459793 19.044838 47.585205
422 0 1 6.026811 18.477638 47.029602
423 0 1 6.852392 18.023438 47.339996
424 0 1 7.493482 17.543739 47.913300
425 0 1 8.014920 18.382439 47.831604
426 0 1 8.400952 18.728737 48.672211
427 0 1 7.575563 18.926537 49.165497
428 0 1 7.424730 19.212036 50.060486
429 0 1 8.059850 19.108337 50.764801
430 0 1 8.282571 18.637337 51.539307
431 0 1 7.976511 19.513039 51.893707
432 0 1 7.270273 19.351135 52.538788
433 0 1 8.158269 19.118237 52.975403
434 0 1 8.838750 19.521339 52.478790
435 0 1 9.775640 19.176136 52.383209
436 0 1 10.025880 18.295738 52.158295
437 0 1 9.584680 18.594139 51.384216
438 0 1 10.417691 18.904335 50.942810
439 0 1 10.156831 18.625237 50.094910
440 0 1 10.614072 18.995239 49.368408
441 0 1 11.416963 19.447838 49.464203
442 0 1 11.360051 20.400936 49.619202
443 0 1 11.072370 21.315437 49.855408
444 0 1 10.808190 21.131134 50.756195
445 0 1 9.922112 20.988937 50.292389
446 0 1 9.485250 21.842339 50.140289
447 0 1 8.653649 21.308235 50.173004
448 0 1 8.604260 21.955837 50.868408
449 0 1 8.831971 22.650635 51.530090
450 0 1 8.087762 23.264839 51.441010
451 0 1 7.787832 23.794437 52.111816
452 0 1 7.470590 24.643738 51.834808
453 0 1 7.422651 25.457939 51.279510
454 0 1 6.688821 25.500038 51.879395
455 0 1 5.856124 25.641838 51.458710
456 0 1 5.390382 24.913937 51.907990
457 0 1 5.193502 24.361736 52.672485
458 0 1 4.578628 24.116837 51.999512
459 0 1 4.516408 23.104137 51.849091
460 0 1 4.254842 23.624237 51.028015
461 0 1 3.358152 23.319435 50.639191
462 0 1 2.488712 23.629436 50.512909
463 0 1 3.044311 24.240738 50.036316
464 0 1 2.501210 24.968636 50.421112
465 0 1 3.125470 25.334335 49.751190
466 0 1 3.976186 24.996239 49.231110
467 0 1 4.831392 25.522835 49.523987
468 0 1 4.087129 26.041737 49.744904
469 0 1 4.310073 26.312439 48.823090
470 0 1 3.742791 26.808334 48.153503
471 0 1 3.084642 26.204136 48.401184
472 0 1 2.106601 26.100037 48.307190
473 0 1 1.830930 25.458138 48.886993
474 0 1 0.905172 25.211739 49.198792
475 0 1 0.671800 26.178635 49.281311
476 0 1 -0.209910 25.824638 49.587708
477 0 1 -0.618800 26.614536 49.930206
478 0 1 -0.683768 26.742134 50.870605
479 0 1 -0.044469 26.606438 51.536896
480 0 1 -0.843848 26.917637 52.078186
481 0 1 -0.605609 26.938934 52.994202
482 0 1 -1.222060 26.704136 53.744904
483 0 1 -1.660779 26.630836 54.571503
484 0 1 -2.488429 26.277039 54.975189
485 0 1 -3.412080 26.274536 55.025513
486 0 1 -4.124489 26.925537 54.942108
487 0 1 -4.740239 26.467339 55.562805
488 0 1 -4.876399 27.426937 55.894196
489 0 1 -4.664179 27.727234 56.770386
490 0 1 -4.172019 28.483837 57.172913
491 0 1 -3.786330 28.469337 58.121887
492 0 1 -3.734648 27.572639 57.572113
493 0 1 -4.196049 26.735435 57.563507
494 0 1 -5.036768 27.120438 57.752991
495 0 1 -5.369389 26.167435 57.833984
496 0 1 -5.836588 25.498737 57.276184
497 0 1 -5.905390 24.624836 56.952209
498 0 1 -6.857289 24.703835 57.076416
499 0 1 -7.561388 24.069038 56.597687
500 0 1 -7.084389 23.448738 56.133789
501 0 1 -7.917090 22.942039 56.376587
502 0 1 -7.683589 22.079437 56.084106
503 0 1 -6.690390 22.258137 56.216705
504 0 1 -5.922190 22.290737 56.823212
505 0 1 -5.657588 23.162037 56.952698
506 0 1 -5.892188 23.866234 57.558807
507 0 1 -6.694489 23.787037 58.168488
508 0 1 -7.590788 23.805237 58.123505
509 0 1 -7.558989 24.719036 58.432312
510 0 1 -7.984889 25.516739 57.927490
511 0 1 -7.903590 26.432537 57.568390
512 0 1 -7.117989 26.152435 58.129211
513 0 1 -6.959589 26.172539 59.055695
514 0 1 -7.003489 26.521339 59.948395
515 0 1 -6.413289 27.196037 59.643005
516 0 1 -5.869788 26.518738 60.118500
517 0 1 -4.982150 26.236137 60.102295
518 0 1 -4.463568 25.682137 60.805786
519 0 1 -4.742060 25.634937 61.693604
520 0 1 -5.007399 24.714935 61.578705
521 0 1 -5.140189 23.826138 62.055206
522 0 1 -5.526289 23.847137 62.919189
523 0 1 -5.419890 22.938034 62.535309
524 0 1 -5.763089 22.077736 62.335999
525 0 1 -5.429690 21.320236 62.778015
526 0 1 -5.158389 20.403637 62.665283
527 0 1 -5.830889 19.544739 62.766998
528 0 1 -6.522389 20.315937 63.065308
529 0 1 -7.189389 20.528137 63.702698
530 0 1 -7.770089 20.421337 64.400513
531 0 1 -8.004889 19.783737 63.703308
532 0 1 -8.028991 19.716637 62.757202
533 0 1 -7.829089 18.923836 62.334991
534 0 1 -7.577788 19.424736 61.539490
535 0 1 -7.941088 19.911835 60.826202
536 0 1 -8.597489 19.803837 60.062195
537 0 1 -8.889289 20.839439 59.980011
538 0 1 -8.406791 20.779434 59.161804
539 0 1 -8.250789 21.178139 58.345490
540 0 1 -8.833089 21.508137 57.561798
541 0 1 -9.415488 21.508236 58.372314
542 0 1 -10.218390 21.018436 58.330994
543 0 1 -10.416389 20.796837 59.278595
544 0 1 -11.360789 20.627335 59.280487
545 0 1 -11.801188 20.453735 58.378906
546 0 1 -12.605090 20.018036 58.449310
547 0 1 -13.058690 19.215034 58.660889
548 0 1 -13.264190 19.458038 59.593903
549 0 1 -13.246089 19.635937 60.522095
550 0 1 -14.094390 20.003838 60.794617
551 0 1 -14.289090 20.938538 60.780792
552 0 1 -13.981688 21.941238 60.867615
553 0 1 -14.234389 22.635937 60.245300
554 0 1 -15.030089 22.689636 59.754913
555 0 1 -14.885289 21.719238 59.522400
556 0 1 -14.815989 20.737839 59.475891
557 0 1 -14.577989 21.271835 58.685486
558 0 1 -13.751590 21.667038 58.771698
559 0 1 -13.501988 20.898537 58.194885
560 0 1 -12.892390 21.496037 57.729706
561 0 1 -11.932290 21.594437 57.747894
562 0 1 -12.395490 22.079437 57.056793
563 0 1 -13.094890 21.796837 56.366211
564 0 1 -13.780690 21.677139 55.585297
565 0 1 -13.886090 21.051136 54.906189
566 0 1 -13.800889 21.838337 54.358887
567 0 1 -13.858989 22.587536 53.781189
568 0 1 -12.937190 22.490135 53.520203
569 0 1 -12.659789 22.720737 52.675812
570 0 1 -11.732890 22.415737 52.497711
571 0 1 -11.704490 22.028038 51.644806
572 0 1 -11.593989 21.291336 51.101410
573 0 1 -11.039090 20.741234 50.530609
574 0 1 -10.480689 20.927734 51.326416
575 0 1 -10.272289 21.827438 51.499908
576 0 1 -9.522990 21.261734 51.458984
577 0 1 -9.154389 22.073437 51.199097
578 0 1 -8.525689 21.864937 50.536713
579 0 1 -9.030391 21.331039 49.915405
580 0 1 -9.867290 21.788437 50.201813
581 0 1 -10.689989 21.718834 49.650391
582 0 1 -11.297990 22.542137 49.602203
583 0 1 -11.061688 23.017036 48.851990
584 0 1 -11.811490 22.900837 48.335388
585 0 1 -12.677489 23.106239 47.912109
586 0 1 -12.729489 23.266136 46.929596
587 0 1 -12.666589 22.522137 46.307007
588 0 1 -11.688190 22.577538 46.120911
589 0 1 -11.797389 21.746838 45.606995
590 0 1 -12.534289 21.497139 46.337097
591 0 1 -12.003789 20.813538 46.804993
592 0 1 -12.599389 20.099636 46.857788
593 0 1 -12.563489 19.327438 47.458588
594 0 1 -11.743289 19.808037 47.737915
595 0 1 -11.537490 19.514038 48.591797
596 0 1 -11.674088 18.575935 48.633606
597 0 1 -11.217090 18.109337 47.873596
598 0 1 -11.014689 17.323738 47.343994
599 0 1 -10.485089 17.768135 46.684906
600 0 1 -9.740190 18.402039 46.519592
601 0 1 -9.520190 18.130337 45.648804
602 0 1 -9.255290 17.349937 45.145691
603 0 1 -9.055888 16.479336 44.727783
604 0 1 -9.222489 15.969037 43.938904
605 0 1 -9.397189 16.378036 43.132202
606 0 1 -9.623989 17.158237 42.617401
607 0 1 -9.796689 16.840439 41.693207
608 0 1 -9.828690 17.473137 40.980988
609 0 1 -10.505090 16.807137 40.958191
610 0 1 -10.297090 16.161236 40.258087
611 0 1 -11.259089 15.995236 40.529205
612 0 1 -11.804589 16.805737 40.269196
613 0 1 -12.630488 16.314537 40.620300
614 0 1 -13.390889 16.205135 39.986206
615 0 1 -13.863990 16.638435 39.339905
616 0 1 -14.014289 17.346737 38.704102
617 0 1 -13.551490 17.111538 37.909302
618 0 1 -14.287789 16.826439 37.426605
619 0 1 -13.533990 16.793537 36.754211
620 0 1 -13.935090 15.930535 36.394592
621 0 1 -12.970990 16.036438 36.412201
622 0 1 -13.370389 16.130035 35.532990
623 0 1 -14.286889 15.757035 35.337799
624 0 1 -14.015189 16.301838 34.586792
625 0 1 -13.498189 16.677635 33.858398
626 0 1 -12.673690 17.087337 33.553406
627 0 1 -12.735888 18.064636 33.207397
628 0 1 -13.010289 17.805038 32.288513
629 0 1 -13.181289 18.755436 32.242493
630 0 1 -12.591790 18.639534 31.483889
631 0 1 -12.381089 18.123337 30.659395
632 0 1 -11.977389 17.675236 29.939211
633 0 1 -11.310288 18.316837 30.081514
634 0 1 -10.659389 17.757736 30.519197
635 0 1 -10.174290 18.210236 29.764193
636 0 1 -10.131089 17.542637 29.040590
637 0 1 -9.262290 17.469734 29.549410
638 0 1 -8.343089 17.304237 29.683992
639 0 1 -8.104590 17.431335 28.728792
640 0 1 -7.592089 16.764435 29.308596
641 0 1 -6.735989 16.732239 28.961397
642 0 1 -7.003588 15.830136 28.575899
643 0 1 -6.579289 15.271440 27.849611
644 0 1 -6.648589 15.253636 26.916414
645 0 1 -7.058589 15.942338 26.370607
646 0 1 -6.753088 16.847038 26.363100
647 0 1 -7.335989 17.301735 25.802492
648 0 1 -8.074489 17.838135 25.677492
649 0 1 -8.330390 18.551037 26.367006
650 0 1 -9.275689 18.357437 26.673494
651 0 1 -9.883389 18.030136 25.940187
652 0 1 -10.143889 18.969337 25.809298
653 0 1 -11.048089 18.803837 25.670809
654 0 1 -10.576089 18.372238 24.984499
655 0 1 -10.186689 18.617737 24.153505
656 0 1 -9.263490 18.467636 24.401888
657 0 1 -8.827090 19.272736 24.203890
658 0 1 -8.520989 20.125336 23.916903
659 0 1 -7.727789 19.610836 24.063295
660 0 1 -6.841189 19.370037 23.854403
661 0 1 -6.328389 20.220139 23.937716
662 0 1 -5.481287 19.765038 24.008608
663 0 1 -4.848040 19.693535 23.311495
664 0 1 -5.640389 19.929436 22.862307
665 0 1 -5.439990 19.326836 22.155001
666 0 1 -5.021140 19.260735 21.267397
667 0 1 -4.231949 19.529236 20.793398
668 0 1 -4.529780 19.247139 19.894503
669 0 1 -4.927279 18.426239 19.709703
670 0 1 -5.439990 17.867336 20.221300
671 0 1 -5.961789 16.972435 20.077501
672 0 1 -5.140288 16.524937 20.302095
673 0 1 -4.968920 15.560239 20.020296
674 0 1 -5.331789 16.044739 19.206499
675 0 1 -6.269089 16.192738 19.136904
676 0 1 -6.044688 15.741338 18.317308
677 0 1 -6.314490 14.999940 17.719408
678 0 1 -6.365988 14.037839 17.390505
679 0 1 -6.933089 13.321237 17.745897
680 0 1 -6.682688 12.787236 18.514803
681 0 1 -7.212588 12.327638 19.203798
682 0 1 -7.733889 12.323537 20.058504
683 0 1 -8.270289 11.545339 20.161699
684 0 1 -7.511689 11.304807 19.588305
685 0 1 -8.163089 10.653916 19.296099
686 0 1 -9.017690 10.454907 19.692904
687 0 1 -9.540689 9.680387 19.554796
688 0 1 -8.920390 9.560616 18.785799
689 0 1 -8.744090 8.642648 18.984499
690 0 1 -8.712291 7.951035 19.638399
691 0 1 -9.542389 8.260747 19.872301
692 0 1 -10.336490 8.145848 20.505205
693 0 1 -10.974589 8.275109 19.822908
694 0 1 -11.489890 8.072896 20.628695
695 0 1 -11.660289 8.938397 21.048906
696 0 1 -12.514789 8.669366 20.639101
697 0 1 -12.644389 8.253167 21.544710
698 0 1 -13.303090 7.896157 20.895906
699 0 1 -14.043389 7.399666 21.026308
700 0 1 -14.468190 6.800358 20.431505
701 0 1 -14.698590 6.007218 20.992708
702 0 1 -14.255589 5.144207 21.173006
703 0 1 -13.486489 4.510468 21.288408
704 0 1 -12.654889 4.484887 20.772799
705 0 1 -12.363688 5.284707 20.299196
706 0 1 -11.507590 5.454735 20.734102
707 0 1 -11.537189 4.952237 21.576906
708 0 1 -11.545489 3.962876 21.887102
709 0 1 -11.533389 3.156117 21.354006
710 0 1 -11.950690 2.994588 20.486300
711 0 1 -12.347390 2.276166 21.035906
712 0 1 -12.698390 1.635976 21.634401
713 0 1 -11.916490 1.103526 21.903200
714 0 1 -12.496789 0.322308 21.914705
715 0 1 -12.695989 0.440877 20.972597
716 0 1 -13.544389 0.692509 20.636599
717 0 1 -13.110589 0.444657 19.779299
718 0 1 -12.210589 0.133486 20.155199
719 0 1 -11.386189 -0.408422 20.248796
720 0 1 -11.572490 -0.676402 19.337999
721 0 1 -11.799289 -1.161903 18.501009
722 0 1 -10.925389 -0.730853 18.595705
723 0 1 -10.687989 0.142058 18.322100
724 0 1 -11.537690 -0.169982 17.911898
725 0 1 -12.402989 -0.041744 17.573397
726 0 1 -12.751590 0.828591 18.059603
727 0 1 -12.730189 1.752400 17.878496
728 0 1 -12.490489 1.625443 16.956408
729 0 1 -13.388890 1.981154 16.696306
730 0 1 -13.605590 2.900998 16.906206
731 0 1 -12.919589 2.790677 17.566408
732 0 1 -12.331389 3.494607 17.717104
733 0 1 -12.525489 4.135266 18.462999
734 0 1 -13.054688 3.389386 18.922609
735 0 1 -13.745490 2.781358 19.220003
736 0 1 -14.671090 2.594058 19.484804
737 0 1 -14.485690 3.527318 19.458803
738 0 1 -14.660689 3.175519 18.558702
739 0 1 -14.276990 2.495137 17.963503
740 0 1 -14.083190 1.804795 18.620897
741 0 1 -14.514089 1.108441 19.162706
742 0 1 -15.255889 1.652364 19.080996
743 0 1 -15.547090 0.743052 18.854708
744 0 1 -16.503387 0.751616 18.789400
745 0 1 -17.238588 0.209187 18.391207
746 0 1 -17.049189 -0.335313 19.132998
747 0 1 -17.210688 -0.211393 20.039202
748 0 1 -18.108688 -0.128393 20.615694
749 0 1 -18.626488 0.468713 20.202303
750 0 1 -18.803089 -0.015283 19.415804
751 0 1 -19.637089 0.407267 19.333406
752 0 1 -19.561489 1.024714 20.059099
753 0 1 -18.954189 1.541384 20.646196
754 0 1 -18.381187 1.297976 21.360994
755 0 1 -17.626188 1.080828 21.907503
756 0 1 -18.058088 0.405528 22.464510
757 0 1 -18.552088 0.280808 21.643206
758 0 1 -19.267588 -0.102893 21.185396
759 0 1 -19.262388 -0.698543 22.048204
760 0 1 -18.518988 -1.114152 22.396898
761 0 1 -18.601589 -1.629592 23.204103
762 0 1 -17.775188 -2.038982 22.977816
763 0 1 -17.421688 -1.153774 22.847994
764 0 1 -17.143389 -1.619203 22.060198
765 0 1 -17.295288 -2.440212 21.405199
766 0 1 -18.250689 -2.615632 21.418200
767 0 1 -18.086388 -2.406373 20.477999
768 0 1 -17.668789 -3.249162 20.238405
769 0 1 -17.232288 -2.555692 19.707506
770 0 1 -16.292788 -2.207843 19.832201
771 0 1 -15.568089 -1.772783 19.306704
772 0 1 -15.457389 -1.236882 18.475603
773 0 1 -16.151888 -0.608524 18.244600
774 0 1 -16.188389 -0.519803 17.228609
775 0 1 -16.514788 0.411347 17.133104
776 0 1 -16.234089 1.324908 16.999605
777 0 1 -16.231388 1.860024 16.196001
778 0 1 -15.808888 2.335603 17.001802
779 0 1 -16.305387 2.879668 17.667299
780 0 1 -17.221088 3.325749 17.625795
781 0 1 -17.829588 3.581189 16.774706
782 0 1 -17.289789 4.151608 16.286898
783 0 1 -17.494688 3.402779 15.782105
784 0 1 -16.587189 2.938378 15.742402
785 0 1 -16.520388 2.137206 15.265901
786 0 1 -16.319588 1.354619 14.806306