LAMMPS data file via MDAnalysis

        2000  atoms
        1999  bonds
           0  angles
           0  dihedrals
           0  impropers

           1  atom types
           1  bond types
           0  angle types
           0  dihedral types
           0  improper types

-30.5 30.5 xlo xhi
-30.5 30.5 ylo yhi
-233.5 233.5 zlo zhi


Masses

1 1.000000

Atoms

1 0 1 13.107525 4.005072 84.400909
2 0 1 13.009727 4.420845 85.286194
3 0 1 13.374126 4.191782 86.120789
4 0 1 14.208626 3.943947 85.691010
5 0 1 14.546127 4.736546 85.282104
6 0 1 14.700325 5.589842 84.989197
7 0 1 15.611824 5.616093 84.588104
8 0 1 16.082527 4.904026 84.179504
9 0 1 15.849724 4.508390 85.095398
10 0 1 16.438927 3.949268 85.575195
11 0 1 16.587925 4.708826 86.096893
12 0 1 17.188126 4.640715 86.845490
13 0 1 18.038925 5.088436 86.896790
14 0 1 18.111923 4.155714 86.985901
15 0 1 18.695526 4.364054 87.744507
16 0 1 19.454525 4.470501 87.117188
17 0 1 20.005325 4.515747 87.893311
18 0 1 19.960724 5.330256 88.395599
19 0 1 19.454628 5.710611 89.114319
20 0 1 19.764626 6.594187 89.295288
21 0 1 19.412727 7.319315 88.757690
22 0 1 18.927826 7.710146 89.521393
23 0 1 18.950928 6.895567 89.962189
24 0 1 18.899529 7.669085 90.632294
25 0 1 18.660526 7.716936 91.498108
26 0 1 19.290924 7.899855 92.170990
27 0 1 19.964725 7.166136 92.173004
28 0 1 20.887726 6.820837 92.305298
29 0 1 21.305126 7.637186 92.569519
30 0 1 21.574524 7.575075 93.541901
31 0 1 21.863525 6.746786 93.949402
32 0 1 22.756828 6.893106 93.724792
33 0 1 23.156925 6.225117 93.093689
34 0 1 22.380726 6.266787 92.585388
35 0 1 21.851227 5.873568 93.276703
36 0 1 21.696724 4.946541 93.018890
37 0 1 20.988327 4.500692 93.554688
38 0 1 20.663425 4.898951 94.383209
39 0 1 20.001823 4.420378 93.837708
40 0 1 20.430328 3.589117 93.731293
41 0 1 20.936226 3.800316 94.483398
42 0 1 21.568924 4.417465 94.890289
43 0 1 22.207428 4.901253 95.369598
44 0 1 23.088726 4.605209 95.055603
45 0 1 22.594425 4.003056 95.705109
46 0 1 23.456123 3.689177 95.425415
47 0 1 24.289925 4.070192 95.829407
48 0 1 24.830528 3.758427 95.043701
49 0 1 24.008728 4.206059 94.754211
50 0 1 24.521927 4.476456 93.978699
51 0 1 24.916023 5.357325 94.278015
52 0 1 25.479324 5.814112 94.893402
53 0 1 24.755524 5.754612 95.549103
54 0 1 24.678528 6.148157 96.412689
55 0 1 24.433426 7.057787 96.690094
56 0 1 24.286125 7.923918 97.040710
57 0 1 24.371025 8.666506 96.422211
58 0 1 24.737026 9.200396 97.121796
59 0 1 25.521927 9.803595 97.062805
60 0 1 25.546726 9.172247 97.754700
61 0 1 25.312027 9.036097 98.757507
62 0 1 25.174927 9.509516 99.632904
63 0 1 25.525326 10.196238 99.008484
64 0 1 24.587227 10.384775 98.651794
65 0 1 23.638725 10.065195 98.713806
66 0 1 23.615726 9.094324 99.090515
67 0 1 23.318924 8.884726 98.223999
68 0 1 22.731926 8.106066 98.232208
69 0 1 22.048126 7.942514 97.601196
70 0 1 21.417027 7.211336 97.836395
71 0 1 21.534626 6.632875 98.571899
72 0 1 22.169228 6.159386 97.964905
73 0 1 22.415226 6.179167 98.949493
74 0 1 22.976925 5.423462 98.802795
75 0 1 23.599125 5.248665 99.484497
76 0 1 22.794128 5.352337 100.161011
77 0 1 22.257423 5.313643 100.959991
78 0 1 22.308525 4.474335 101.567993
79 0 1 22.926125 3.743956 101.445984
80 0 1 23.714127 4.057964 101.903015
81 0 1 23.492725 3.159925 102.040009
82 0 1 22.959229 2.337086 101.860992
83 0 1 22.636124 2.135977 101.001007
84 0 1 21.930023 1.472246 100.700012
85 0 1 21.374226 1.170336 101.458984
86 0 1 20.488525 0.870596 101.178009
87 0 1 20.941826 1.304186 100.442017
88 0 1 20.352425 1.997847 100.718994
89 0 1 19.437126 2.200987 101.203003
90 0 1 18.667824 1.905697 101.648987
91 0 1 18.252026 1.011536 101.531006
92 0 1 17.608925 1.375246 102.225006
93 0 1 17.425125 0.461016 102.230011
94 0 1 16.584225 0.027786 102.540009
95 0 1 16.086227 -0.079664 101.738007
96 0 1 15.520325 0.214996 102.523987
97 0 1 14.928024 0.215046 103.311005
98 0 1 14.664326 -0.339163 102.505005
99 0 1 14.230427 0.465147 102.734985
100 0 1 13.438828 0.752846 103.190002
101 0 1 12.521725 0.527756 103.481995
102 0 1 12.664425 1.176907 104.182983
103 0 1 12.519524 0.628937 104.947998
104 0 1 11.742527 1.165026 104.700012
105 0 1 10.805225 1.040337 104.846985
106 0 1 10.936325 1.638987 104.035004
107 0 1 10.830124 2.540316 103.847992
108 0 1 11.801327 2.734726 104.007996
109 0 1 12.720924 3.004477 103.977997
110 0 1 12.436028 3.817377 103.532990
111 0 1 11.793228 4.442698 103.154999
112 0 1 10.958225 4.126677 102.742981
113 0 1 10.671295 3.369566 103.210999
114 0 1 9.930916 3.570187 102.606995
115 0 1 9.659756 2.971216 101.803009
116 0 1 8.739166 2.591427 101.910004
117 0 1 9.166588 1.848045 101.455017
118 0 1 9.083206 1.359837 102.320984
119 0 1 9.441326 1.056995 103.169983
120 0 1 9.291607 0.346806 103.738007
121 0 1 9.032738 -0.480854 104.289001
122 0 1 8.894554 -1.468054 104.372986
123 0 1 8.964085 -1.106794 105.304993
124 0 1 8.542458 -0.661543 106.036987
125 0 1 9.167797 0.029926 106.308990
126 0 1 8.858936 -0.475294 107.083984
127 0 1 9.462234 0.027517 107.692993
128 0 1 9.558735 -0.915243 107.959991
129 0 1 9.572433 -1.214754 108.937012
130 0 1 10.081314 -1.737564 109.497986
131 0 1 9.393974 -2.357454 109.916016
132 0 1 9.714264 -2.794483 109.041992
133 0 1 9.309464 -3.589914 108.904999
134 0 1 8.413406 -3.226824 108.890991
135 0 1 8.456345 -2.936714 107.924011
136 0 1 8.229324 -2.442604 107.158997
137 0 1 7.403465 -3.124054 107.003998
138 0 1 6.809517 -2.434725 106.867981
139 0 1 6.416367 -2.225723 106.079010
140 0 1 6.160835 -1.713053 106.833008
141 0 1 5.386684 -1.091345 107.056000
142 0 1 4.741886 -0.412994 107.273010
143 0 1 3.762436 0.010286 107.295990
144 0 1 3.059956 -0.602734 107.117004
145 0 1 3.618614 -1.406134 107.080994
146 0 1 4.037937 -1.881655 106.354004
147 0 1 3.262455 -2.346603 106.765991
148 0 1 2.523426 -2.417315 107.510010
149 0 1 2.595585 -3.174734 108.052002
150 0 1 1.922707 -2.669483 108.453003
151 0 1 0.936335 -2.889894 108.451996
152 0 1 0.719011 -2.734274 107.476990
153 0 1 -0.258509 -2.751514 107.423004
154 0 1 -1.058933 -3.165792 107.807983
155 0 1 -1.336063 -4.012915 107.417999
156 0 1 -0.595413 -3.886774 106.903992
157 0 1 -0.152731 -3.415705 106.197998
158 0 1 -0.756504 -3.372564 105.299011
159 0 1 -0.925295 -2.371363 105.119995
160 0 1 -0.837124 -2.815905 104.296997
161 0 1 -1.570854 -2.254583 103.820984
162 0 1 -1.985075 -3.024214 103.444000
163 0 1 -1.922644 -3.984335 103.438995
164 0 1 -1.103664 -4.327925 102.992004
165 0 1 -0.324545 -4.809484 102.798004
166 0 1 -0.370773 -5.689934 103.200989
167 0 1 0.557257 -5.729933 103.489014
168 0 1 0.692038 -5.419935 102.639008
169 0 1 0.941990 -5.331835 101.703003
170 0 1 0.343864 -4.698704 101.442993
171 0 1 0.610474 -4.186495 100.678009
172 0 1 1.491852 -4.162703 100.201996
173 0 1 2.252056 -3.736013 100.653992
174 0 1 2.231136 -3.397764 99.781189
175 0 1 3.007496 -3.976355 99.505798
176 0 1 3.517914 -3.363993 100.044983
177 0 1 3.527897 -3.120134 99.083191
178 0 1 3.212986 -2.957664 98.241516
179 0 1 2.583416 -3.514433 97.757599
180 0 1 2.218204 -4.383673 97.507690
181 0 1 2.516068 -4.041533 96.708191
182 0 1 3.398335 -4.457445 96.762909
183 0 1 3.095818 -5.135134 97.364899
184 0 1 4.044796 -5.003834 97.576111
185 0 1 4.409374 -5.858734 97.293304
186 0 1 4.648766 -6.734034 97.513184
187 0 1 3.973125 -6.970133 98.112488
188 0 1 3.188885 -7.221233 97.570801
189 0 1 2.958977 -6.373034 97.095886
190 0 1 2.003756 -6.257433 96.990417
191 0 1 1.260113 -5.809732 96.521210
192 0 1 1.091110 -4.917963 96.888000
193 0 1 0.437727 -4.383753 96.544189
194 0 1 0.139925 -3.539762 96.275604
195 0 1 0.801176 -2.837084 96.552399
196 0 1 0.320349 -2.446665 95.829102
197 0 1 -0.632734 -2.381514 95.958405
198 0 1 -1.522163 -2.204084 96.285400
199 0 1 -1.615774 -1.301193 96.210815
200 0 1 -1.054514 -0.515154 96.231110
201 0 1 -0.243946 -0.010725 95.944794
202 0 1 -0.219351 -0.893234 95.737915
203 0 1 0.125050 -0.473925 94.902496
204 0 1 -0.199030 -0.567793 94.022095
205 0 1 -0.871014 -0.683424 93.386719
206 0 1 -1.377234 -1.375803 93.796295
207 0 1 -1.246655 -2.232164 94.124084
208 0 1 -1.794304 -2.951714 93.733582
209 0 1 -2.657305 -2.814585 94.053101
210 0 1 -3.039003 -2.134573 93.510681
211 0 1 -3.060425 -2.703844 92.787689
212 0 1 -3.988874 -2.561674 92.622986
213 0 1 -3.753143 -3.270264 92.015411
214 0 1 -4.569973 -3.380033 91.559204
215 0 1 -4.774204 -3.291655 92.468109
216 0 1 -4.800163 -4.231274 92.202606
217 0 1 -5.208405 -4.822943 92.878296
218 0 1 -6.106915 -4.912535 92.600586
219 0 1 -6.511135 -4.060503 92.769287
220 0 1 -6.177654 -3.824923 93.642395
221 0 1 -6.798204 -3.240473 94.109985
222 0 1 -6.421724 -3.578323 94.850006
223 0 1 -6.313074 -4.208164 95.637817
224 0 1 -6.342014 -3.918055 96.535095
225 0 1 -6.836075 -4.744043 96.615997
226 0 1 -7.764605 -4.514105 96.319397
227 0 1 -8.720943 -4.844893 96.334106
228 0 1 -9.625275 -4.953295 96.145111
229 0 1 -9.577274 -5.291334 97.024292
230 0 1 -9.662773 -6.246233 96.787994
231 0 1 -9.480974 -7.150734 96.589203
232 0 1 -10.035074 -7.815035 97.048096
233 0 1 -9.797073 -8.118534 96.104797
234 0 1 -9.472275 -8.485235 95.231201
235 0 1 -8.909264 -9.282734 94.949402
236 0 1 -8.415443 -9.761333 95.626709
237 0 1 -7.988613 -10.582933 95.249817
238 0 1 -7.908434 -10.031434 94.480011
239 0 1 -7.896685 -10.911134 94.193390
240 0 1 -6.975285 -10.972934 93.912994
241 0 1 -6.164444 -10.714933 94.367981
242 0 1 -5.716345 -10.063233 93.816498
243 0 1 -4.990395 -10.664734 94.061310
244 0 1 -4.255005 -10.063233 94.217102
245 0 1 -4.093044 -9.469833 93.515686
246 0 1 -3.182854 -9.288534 93.798096
247 0 1 -3.256124 -9.066633 92.865906
248 0 1 -2.527344 -9.376734 92.220703
249 0 1 -2.726164 -10.101334 92.768311
250 0 1 -2.099434 -10.748534 93.028809
251 0 1 -1.407703 -10.721034 92.413208
252 0 1 -1.202765 -10.706234 91.495209
253 0 1 -1.191904 -11.278833 90.724915
254 0 1 -1.524565 -12.187334 90.397797
255 0 1 -1.706585 -12.294334 91.347290
256 0 1 -2.574514 -12.706234 91.458710
257 0 1 -2.724733 -12.985634 90.480713
258 0 1 -2.771164 -12.345634 89.773499
259 0 1 -2.789274 -11.935133 88.890015
260 0 1 -2.521805 -12.849634 88.692688
261 0 1 -3.306305 -12.772835 88.144897
262 0 1 -2.637764 -12.228233 87.665710
263 0 1 -2.809944 -12.611134 86.780518
264 0 1 -2.405254 -11.977034 86.236084
265 0 1 -2.861765 -11.219734 86.199799
266 0 1 -2.179405 -10.588034 86.191498
267 0 1 -1.666494 -10.710934 87.046692
268 0 1 -0.911015 -10.393634 87.502197
269 0 1 -1.334663 -10.040934 88.366516
270 0 1 -0.759075 -9.961934 89.171906
271 0 1 -0.948855 -9.065134 88.828705
272 0 1 -0.617004 -8.449133 88.193390
273 0 1 -0.508465 -8.204334 87.287994
274 0 1 -1.310574 -8.708534 87.318909
275 0 1 -1.489614 -9.239634 86.530396
276 0 1 -2.392725 -9.190935 86.706604
277 0 1 -2.953125 -9.618434 85.996490
278 0 1 -3.835194 -9.196634 86.035400
279 0 1 -4.323635 -9.326633 85.285004
280 0 1 -4.907454 -10.146833 85.110199
281 0 1 -5.358404 -10.587634 84.306000
282 0 1 -5.449074 -10.234134 83.446716
283 0 1 -6.365215 -10.389334 83.445099
284 0 1 -7.166254 -10.680533 83.958893
285 0 1 -7.157084 -10.742134 84.933197
286 0 1 -8.023445 -10.615334 84.557800
287 0 1 -8.921413 -10.444434 84.863800
288 0 1 -9.017334 -11.178934 85.547485
289 0 1 -9.936275 -10.938134 85.507507
290 0 1 -10.757175 -10.712334 85.011902
291 0 1 -11.570675 -10.733734 84.536011
292 0 1 -12.107674 -10.680334 83.729004
293 0 1 -12.481174 -10.034834 84.341919
294 0 1 -12.148273 -9.581533 85.208893
295 0 1 -12.337374 -8.752634 84.849792
296 0 1 -13.098774 -8.252634 84.595306
297 0 1 -13.798676 -8.144733 85.253693
298 0 1 -14.686774 -7.863434 84.997803
299 0 1 -14.234075 -7.035034 84.911316
300 0 1 -14.215075 -6.840134 85.857300
301 0 1 -13.400375 -6.415634 85.983795
302 0 1 -13.933774 -5.593035 86.136597
303 0 1 -13.733376 -5.638334 85.243591
304 0 1 -13.966574 -6.007635 84.441589
305 0 1 -14.284174 -6.769133 83.858582
306 0 1 -15.120174 -6.648134 84.399689
307 0 1 -15.674173 -7.153734 83.797699
308 0 1 -14.941275 -7.360334 83.147308
309 0 1 -15.119474 -8.108534 82.630707
310 0 1 -15.349874 -8.322134 81.678802
311 0 1 -14.825874 -7.534933 81.500000
312 0 1 -13.957274 -7.828833 81.122009
313 0 1 -13.062973 -8.212734 80.978516
314 0 1 -12.921375 -8.480034 80.072906
315 0 1 -12.971375 -8.879133 79.201294
316 0 1 -12.928274 -7.914234 78.948090
317 0 1 -12.358673 -7.253633 78.564301
318 0 1 -12.420374 -6.294733 78.575806
319 0 1 -12.413273 -6.270433 79.486694
320 0 1 -11.556974 -6.627634 79.197998
321 0 1 -11.320074 -6.589434 78.302490
322 0 1 -11.416574 -6.091034 77.454010
323 0 1 -12.204575 -6.588133 77.225891
324 0 1 -12.669075 -6.673634 76.351990
325 0 1 -13.463774 -6.413233 76.928406
326 0 1 -13.322874 -5.447935 76.939087
327 0 1 -13.553974 -4.704063 76.391113
328 0 1 -14.325174 -4.090094 76.452789
329 0 1 -15.249874 -4.156214 76.175507
330 0 1 -16.166574 -4.503963 75.940704
331 0 1 -17.084074 -4.202993 75.733002
332 0 1 -17.336874 -5.046835 75.895905
333 0 1 -18.153475 -4.905584 75.385590
334 0 1 -18.200575 -4.929184 74.418091
335 0 1 -17.981773 -4.030943 74.287903
336 0 1 -17.387074 -3.998083 73.443787
337 0 1 -17.595875 -4.158184 72.518311
338 0 1 -17.037075 -4.940374 72.254883
339 0 1 -16.839474 -4.348604 71.574310
340 0 1 -16.406174 -3.509933 71.719604
341 0 1 -17.170174 -2.858305 71.621002
342 0 1 -16.921074 -1.994974 71.964996
343 0 1 -16.303574 -1.786034 71.222290
344 0 1 -15.816574 -1.198103 71.727905
345 0 1 -15.561375 -1.052084 70.853088
346 0 1 -15.154074 -0.259224 70.566193
347 0 1 -14.245275 -0.487055 70.687683
348 0 1 -13.894774 -0.784224 69.804810
349 0 1 -13.956274 -1.285694 68.992401
350 0 1 -13.031673 -1.553783 68.819885
351 0 1 -12.554874 -1.865103 69.584991
352 0 1 -12.190374 -1.089113 69.208496
353 0 1 -11.521374 -1.650213 68.781708
354 0 1 -12.078175 -1.210754 68.178894
355 0 1 -11.594374 -1.757423 67.541382
356 0 1 -10.884474 -2.105164 66.914398
357 0 1 -9.968575 -1.757654 66.581604
358 0 1 -10.307774 -2.033844 65.626190
359 0 1 -10.208973 -1.431314 64.876099
360 0 1 -9.876175 -0.990204 65.665588
361 0 1 -9.149334 -1.509014 65.325684
362 0 1 -8.894405 -0.760553 64.750397
363 0 1 -8.247805 -0.371714 64.202393
364 0 1 -8.076544 -1.034365 63.483887
365 0 1 -8.059334 -0.351004 62.821198
366 0 1 -8.513624 -0.016535 62.046295
367 0 1 -9.404474 0.302326 62.297302
368 0 1 -9.473274 0.883295 61.591705
369 0 1 -10.331875 0.805496 62.035492
370 0 1 -11.285675 0.760595 62.168793
371 0 1 -12.068674 1.227457 62.290802
372 0 1 -12.310375 0.472996 62.882507
373 0 1 -12.730074 -0.056294 62.231812
374 0 1 -13.153175 -0.346914 61.417786
375 0 1 -12.901073 -1.137583 60.910889
376 0 1 -13.060673 -1.448114 61.756012
377 0 1 -12.061474 -1.440794 61.581207
378 0 1 -12.366274 -2.330133 61.819092
379 0 1 -12.255074 -3.079674 62.523193
380 0 1 -13.010674 -3.483784 62.057892
381 0 1 -13.937974 -3.770945 62.048187
382 0 1 -13.986175 -3.959555 61.089508
383 0 1 -14.644074 -3.204565 61.027893
384 0 1 -15.124174 -3.084635 61.837585
385 0 1 -15.570173 -3.025034 62.661896
386 0 1 -16.215975 -2.630003 62.105804
387 0 1 -16.046774 -1.711195 62.069702
388 0 1 -17.036674 -1.777945 62.121796
389 0 1 -17.353973 -2.415344 62.716797
390 0 1 -17.497173 -3.207184 63.353516
391 0 1 -17.058674 -4.035433 63.254089
392 0 1 -17.600174 -4.668554 62.767303
393 0 1 -17.518574 -4.941732 63.714111
394 0 1 -17.114174 -5.609533 63.166199
395 0 1 -16.888374 -6.634333 63.225708
396 0 1 -17.256575 -7.221533 63.847504
397 0 1 -18.021475 -7.723433 63.886810
398 0 1 -18.575474 -8.494833 64.204102
399 0 1 -19.118275 -8.901434 64.953003
400 0 1 -19.006575 -8.914234 65.901917
401 0 1 -19.332775 -8.053434 66.044891
402 0 1 -20.085773 -7.901834 66.578003
403 0 1 -19.479774 -8.578234 67.017090
404 0 1 -19.635374 -9.466034 67.316498
405 0 1 -20.078175 -8.863733 67.882996
406 0 1 -19.495174 -8.647333 68.598297
407 0 1 -18.898375 -8.678234 69.272217
408 0 1 -18.513973 -7.953934 69.753510
409 0 1 -17.823574 -8.128134 69.159119
410 0 1 -17.215975 -8.420834 68.500183
411 0 1 -16.420774 -8.979933 68.468292
412 0 1 -16.617174 -9.276634 69.317200
413 0 1 -15.931374 -8.678434 69.678406
414 0 1 -15.226274 -9.185534 69.485901
415 0 1 -14.978174 -8.787834 68.664185
416 0 1 -15.026374 -8.328934 67.770813
417 0 1 -15.446875 -7.658834 67.116608
418 0 1 -15.119074 -6.903534 67.621796
419 0 1 -14.394374 -6.716934 66.995911
420 0 1 -13.917274 -7.530134 66.926086
421 0 1 -13.052475 -7.849333 66.700897
422 0 1 -12.184673 -7.481833 66.300110
423 0 1 -12.087074 -8.223833 65.724792
424 0 1 -12.118874 -8.758533 64.922913
425 0 1 -12.833574 -9.284634 64.520203
426 0 1 -12.783073 -10.029934 65.080292
427 0 1 -12.016273 -10.595234 64.771118
428 0 1 -12.088474 -10.695734 65.672791
429 0 1 -13.055973 -10.921034 65.736511
430 0 1 -13.145674 -11.819834 66.053497
431 0 1 -12.884575 -12.666634 65.697205
432 0 1 -13.093575 -13.514133 65.272583
433 0 1 -13.839375 -13.404034 65.912109
434 0 1 -14.144674 -14.169634 65.513794
435 0 1 -13.997474 -15.066833 66.022003
436 0 1 -13.149075 -15.465935 66.246399
437 0 1 -13.189075 -16.032133 65.433594
438 0 1 -12.410873 -16.399935 65.942993
439 0 1 -11.498573 -16.171734 65.872894
440 0 1 -11.493574 -15.586634 66.638611
441 0 1 -11.243473 -14.741934 67.151489
442 0 1 -10.947773 -14.512634 66.266907
443 0 1 -10.203175 -13.826334 66.302002
444 0 1 -9.548574 -13.181034 66.542694
445 0 1 -10.110775 -12.412933 66.734589
446 0 1 -10.394674 -11.806334 65.982910
447 0 1 -10.756874 -10.975334 66.158813
448 0 1 -10.231474 -10.408033 65.538300
449 0 1 -10.738373 -11.136133 65.139587
450 0 1 -10.604275 -11.530535 64.310913
451 0 1 -10.753775 -12.132734 63.602203
452 0 1 -11.001373 -13.028833 63.781708
453 0 1 -10.380674 -13.534134 64.270386
454 0 1 -9.579773 -13.810333 64.592590
455 0 1 -9.882374 -14.772835 64.660400
456 0 1 -9.257784 -14.635735 64.012695
457 0 1 -8.725815 -15.551733 64.006195
458 0 1 -9.231575 -16.180933 63.490295
459 0 1 -9.939373 -16.232933 62.798584
460 0 1 -9.961975 -16.208735 61.843903
461 0 1 -9.985674 -16.221933 60.893311
462 0 1 -10.107574 -15.610233 60.124603
463 0 1 -10.105474 -14.909334 60.795715
464 0 1 -10.814075 -14.287434 61.180511
465 0 1 -11.406574 -14.286434 60.398499
466 0 1 -12.072475 -14.089634 59.826996
467 0 1 -12.969374 -14.470034 59.725708
468 0 1 -13.217575 -13.566235 59.734100
469 0 1 -13.605675 -12.742933 59.325684
470 0 1 -14.065374 -11.871834 59.430908
471 0 1 -14.640074 -12.489534 58.908112
472 0 1 -15.103874 -13.442533 58.648895
473 0 1 -15.650974 -14.207933 58.747101
474 0 1 -15.926674 -14.312634 59.679016
475 0 1 -15.314375 -14.488533 60.462189
476 0 1 -15.001374 -15.196434 59.809113
477 0 1 -14.645874 -15.499334 58.993500
478 0 1 -15.495073 -15.359135 58.563995
479 0 1 -15.538275 -16.266733 58.257507
480 0 1 -15.166074 -17.032034 57.831696
481 0 1 -14.914974 -17.251734 58.777802
482 0 1 -14.767374 -17.949934 59.337585
483 0 1 -13.882374 -17.557333 59.505005
484 0 1 -13.078373 -17.183134 59.856110
485 0 1 -12.401175 -17.162733 60.539185
486 0 1 -11.933075 -16.371433 60.597198
487 0 1 -11.325073 -15.926535 59.926697
488 0 1 -11.054174 -16.286135 59.067596
489 0 1 -10.206474 -16.129133 58.846588
490 0 1 -10.781273 -15.504435 58.259613
491 0 1 -10.034874 -14.875534 58.344116
492 0 1 -10.214674 -14.179335 57.654114
493 0 1 -11.101974 -14.018833 57.149811
494 0 1 -10.762775 -13.488533 56.460083
495 0 1 -11.570675 -12.919933 56.464508
496 0 1 -11.585175 -12.156834 57.067902
497 0 1 -10.689974 -11.845734 57.154114
498 0 1 -10.954174 -11.639235 56.237701
499 0 1 -10.095974 -12.037233 56.172302
500 0 1 -9.846474 -12.668533 55.551208
501 0 1 -10.006474 -13.321234 54.839996
502 0 1 -10.569775 -12.981533 54.137695
503 0 1 -10.546875 -12.008533 53.749908
504 0 1 -10.460175 -11.407934 53.057495
505 0 1 -10.274574 -10.767934 52.392090
506 0 1 -10.343575 -11.193933 51.548706
507 0 1 -11.300076 -10.922133 51.463196
508 0 1 -10.961575 -10.817134 50.584595
509 0 1 -10.139574 -10.425134 50.225403
510 0 1 -9.671673 -9.965934 49.494202
511 0 1 -10.370274 -9.468834 49.084808
512 0 1 -10.520073 -8.477133 49.137695
513 0 1 -11.524975 -8.285534 49.112701
514 0 1 -11.658573 -9.118032 48.597595
515 0 1 -11.590775 -10.100834 48.705505
516 0 1 -12.155075 -10.737634 49.155884
517 0 1 -11.266874 -11.130135 49.140411
518 0 1 -11.016075 -12.003134 49.404510
519 0 1 -10.230675 -12.416933 49.158203
520 0 1 -9.392975 -12.268034 49.507690
521 0 1 -8.666935 -11.665733 49.239594
522 0 1 -8.100254 -11.326334 49.935394
523 0 1 -8.128544 -10.344234 50.007812
524 0 1 -7.921694 -9.958134 49.156616
525 0 1 -8.667183 -9.445333 49.518188
526 0 1 -8.659595 -8.578634 50.042999
527 0 1 -7.894014 -8.022833 49.843384
528 0 1 -7.185934 -7.548634 50.310303
529 0 1 -6.545053 -7.409134 49.542786
530 0 1 -5.753643 -8.062634 49.514313
531 0 1 -5.834105 -8.575033 50.338196
532 0 1 -6.397644 -9.432734 50.470398
533 0 1 -6.088623 -10.221734 50.930511
534 0 1 -5.929514 -11.100433 50.484497
535 0 1 -6.004623 -11.698235 51.196899
536 0 1 -5.105083 -11.326534 51.241394
537 0 1 -5.074194 -11.794733 52.066589
538 0 1 -4.415085 -12.494333 52.147797
539 0 1 -3.917925 -12.161533 52.881897
540 0 1 -3.425774 -11.369333 53.187317
541 0 1 -2.524284 -11.676434 53.278900
542 0 1 -1.621325 -11.558634 53.549408
543 0 1 -0.917404 -10.874834 53.243591
544 0 1 -0.090109 -11.189734 52.909302
545 0 1 0.356308 -11.453434 53.713196
546 0 1 0.961718 -10.768534 53.901703
547 0 1 1.052971 -10.108734 53.143494
548 0 1 1.313818 -9.852434 52.246399
549 0 1 1.858727 -10.255733 51.576813
550 0 1 2.466385 -10.342733 50.842499
551 0 1 3.254635 -10.921534 50.785187
552 0 1 2.754105 -11.701933 50.551910
553 0 1 2.459274 -11.429434 49.657715
554 0 1 1.553972 -10.997134 49.771606
555 0 1 0.691946 -10.590434 50.013702
556 0 1 0.188477 -11.377733 50.301605
557 0 1 0.909880 -11.986235 50.498505
558 0 1 1.012011 -11.349134 51.217499
559 0 1 1.542833 -12.087435 51.540405
560 0 1 1.457508 -12.747034 50.786713
561 0 1 2.262585 -13.070734 50.430786
562 0 1 1.955456 -13.325033 49.531006
563 0 1 1.584658 -13.898335 48.728210
564 0 1 2.409885 -14.029034 48.331390
565 0 1 2.873386 -14.373034 47.602203
566 0 1 3.330265 -14.805834 48.259796
567 0 1 4.246437 -14.936134 47.923187
568 0 1 4.344597 -14.201134 47.339294
569 0 1 4.550617 -15.078434 46.887390
570 0 1 3.592606 -15.501833 46.703613
571 0 1 3.013206 -15.780033 45.883911
572 0 1 2.545776 -14.908834 45.921112
573 0 1 2.470314 -14.223833 45.272583
574 0 1 2.561646 -13.420334 44.639404
575 0 1 1.609501 -13.585533 44.574890
576 0 1 1.338646 -14.364334 44.096710
577 0 1 0.926535 -13.655634 43.718597
578 0 1 0.669271 -13.863533 42.831604
579 0 1 -0.132908 -14.045235 42.448090
580 0 1 0.400194 -14.627934 41.882996
581 0 1 0.554298 -15.573833 41.796906
582 0 1 1.287834 -15.005434 42.106903
583 0 1 1.421421 -15.269634 41.230988
584 0 1 2.081045 -16.048933 41.379913
585 0 1 3.074314 -16.013233 41.438599
586 0 1 3.043835 -16.041233 40.471893
587 0 1 2.132647 -15.631334 40.338684
588 0 1 1.414101 -15.578634 39.700409
589 0 1 2.034885 -16.346535 39.429016
590 0 1 2.870247 -16.630333 39.146301
591 0 1 3.591057 -16.331234 38.536194
592 0 1 3.985146 -16.969833 37.970490
593 0 1 4.938557 -16.976633 37.844604
594 0 1 5.426785 -16.958534 36.982483
595 0 1 5.355827 -16.231533 36.357788
596 0 1 4.987816 -16.792435 35.692291
597 0 1 4.436478 -16.021633 35.638489
598 0 1 4.520954 -16.090034 34.694489
599 0 1 3.948666 -16.582733 34.128998
600 0 1 3.968166 -17.256334 33.471710
601 0 1 3.589127 -16.624334 32.818298
602 0 1 4.177998 -17.239334 32.328308
603 0 1 4.801857 -17.321434 31.550293
604 0 1 5.682316 -16.960234 31.382385
605 0 1 5.961716 -17.808233 31.778992
606 0 1 6.790356 -17.411333 32.108002
607 0 1 6.371918 -17.958735 32.718903
608 0 1 6.378864 -17.394733 33.507507
609 0 1 6.685497 -16.702534 32.905304
610 0 1 7.313477 -16.485634 33.623688
611 0 1 7.772606 -16.662834 32.795288
612 0 1 8.237617 -17.273733 32.203400
613 0 1 7.882248 -18.110733 31.983490
614 0 1 8.473244 -17.922634 31.317291
615 0 1 8.124664 -17.176535 30.906799
616 0 1 7.867626 -16.328934 30.547699
617 0 1 7.002987 -15.840034 30.342102
618 0 1 7.116467 -15.264034 29.546600
619 0 1 6.697327 -14.468233 29.939789
620 0 1 6.055965 -15.151434 29.994385
621 0 1 5.848244 -15.876133 30.627014
622 0 1 4.926945 -15.711334 30.869110
623 0 1 4.106937 -15.357134 31.112915
624 0 1 3.989487 -14.357035 31.011292
625 0 1 4.387936 -13.696333 30.451904
626 0 1 4.449085 -12.774235 30.470215
627 0 1 4.677654 -12.082933 31.053894
628 0 1 4.683407 -11.474335 30.399506
629 0 1 4.195354 -10.665634 30.549500
630 0 1 3.859917 -10.554034 29.595490
631 0 1 3.778946 -10.425434 28.624207
632 0 1 3.134907 -10.944234 28.109711
633 0 1 2.932167 -11.103834 27.196289
634 0 1 2.999245 -10.169434 27.389099
635 0 1 2.248238 -9.630733 27.571106
636 0 1 1.885965 -9.321634 26.737488
637 0 1 1.471853 -8.523434 27.076904
638 0 1 1.310890 -7.764433 27.620697
639 0 1 0.520792 -7.794733 28.204010
640 0 1 -0.011839 -8.373632 28.790894
641 0 1 -0.727345 -9.132334 28.609497
642 0 1 -0.837074 -9.764234 29.375793
643 0 1 -1.513815 -9.056433 29.549988
644 0 1 -1.894875 -8.646034 30.261108
645 0 1 -2.136885 -9.273733 31.008209
646 0 1 -2.721973 -8.667534 31.497101
647 0 1 -3.332214 -8.049833 31.228607
648 0 1 -4.230394 -7.696234 31.432800
649 0 1 -3.674395 -6.922335 31.292389
650 0 1 -2.703745 -6.839634 31.618011
651 0 1 -2.087275 -7.642733 31.662903
652 0 1 -2.236084 -7.380934 30.723206
653 0 1 -2.512465 -7.224833 29.851501
654 0 1 -2.546974 -6.224934 30.177704
655 0 1 -2.021564 -5.737934 30.815796
656 0 1 -1.900805 -5.395235 31.761810
657 0 1 -1.608204 -5.318335 32.678406
658 0 1 -0.659023 -5.209734 32.841003
659 0 1 0.112457 -5.361134 32.374695
660 0 1 0.717937 -4.552904 32.071594
661 0 1 1.602465 -4.271324 32.067993
662 0 1 2.200687 -3.625933 32.290192
663 0 1 1.784475 -2.825214 32.623901
664 0 1 0.914562 -2.895784 32.143188
665 0 1 0.146769 -3.271244 32.699005
666 0 1 0.759104 -2.878384 33.371094
667 0 1 1.159470 -2.278004 34.086609
668 0 1 1.483643 -1.663603 34.691010
669 0 1 0.818594 -1.484564 35.415100
670 0 1 -0.047724 -1.050755 35.203400
671 0 1 0.397596 -0.423704 34.657715
672 0 1 0.456688 0.278906 34.048584
673 0 1 1.406046 0.024216 33.954803
674 0 1 2.172956 -0.276894 33.523895
675 0 1 2.912846 -0.166933 34.088989
676 0 1 3.591156 0.107607 33.510803
677 0 1 4.389397 0.564535 33.244812
678 0 1 4.791176 1.247217 32.635803
679 0 1 5.621094 0.809675 32.290009
680 0 1 6.516907 0.871626 31.881287
681 0 1 7.239357 0.323126 31.598999
682 0 1 7.394135 1.261166 31.402008
683 0 1 7.536686 0.863157 30.523193
684 0 1 7.348125 -0.023054 30.206512
685 0 1 6.759785 -0.752033 29.982300
686 0 1 6.584446 -0.705263 29.046509
687 0 1 6.025585 -1.187433 28.472412
688 0 1 5.063087 -1.448164 28.552185
689 0 1 4.476097 -2.007524 28.044891
690 0 1 4.149727 -1.771324 28.897797
691 0 1 4.024727 -0.785254 29.005188
692 0 1 4.231667 0.255815 28.875000
693 0 1 3.512325 -0.050055 28.376709
694 0 1 3.809765 0.336166 27.615509
695 0 1 3.240894 0.809397 26.990387
696 0 1 3.632656 0.815515 26.142700
697 0 1 4.157135 -0.057394 25.971405
698 0 1 3.475525 -0.595144 25.558411
699 0 1 2.808544 -0.105913 25.084106
700 0 1 2.097876 -0.779413 25.106689
701 0 1 2.292236 -0.519344 24.209106
702 0 1 1.392748 -0.733975 24.256500
703 0 1 0.896643 -0.045393 23.814697
704 0 1 1.300283 -0.672813 23.185394
705 0 1 1.483669 -1.426834 22.635986
706 0 1 1.263931 -2.370234 22.253998
707 0 1 1.346786 -3.199604 21.634796
708 0 1 1.636959 -3.622583 20.805298
709 0 1 1.259203 -4.380764 20.259308
710 0 1 0.581078 -4.870794 19.786102
711 0 1 0.419468 -5.648233 20.240601
712 0 1 0.903303 -5.344833 21.052597
713 0 1 1.325327 -6.208433 21.223404
714 0 1 1.841496 -6.375635 20.470200
715 0 1 1.536682 -7.114634 19.919907
716 0 1 0.641077 -6.972633 19.670898
717 0 1 0.468010 -7.724733 19.041199
718 0 1 0.259928 -8.612534 19.346603
719 0 1 0.488098 -8.808134 20.266495
720 0 1 1.239586 -8.350334 20.584808
721 0 1 1.828396 -7.804735 21.085602
722 0 1 2.565044 -7.311132 20.710907
723 0 1 2.989567 -6.581133 20.346497
724 0 1 2.848877 -5.934435 21.097198
725 0 1 2.846546 -5.148233 21.597794
726 0 1 3.042545 -5.125134 22.501312
727 0 1 2.508755 -4.805445 23.214203
728 0 1 2.877316 -4.798964 24.136597
729 0 1 3.572067 -5.025312 23.541504
730 0 1 4.129265 -4.378864 23.055511
731 0 1 4.950657 -4.855364 23.347809
732 0 1 5.492836 -5.243534 22.546112
733 0 1 5.527905 -4.711973 21.735306
734 0 1 5.020847 -4.196672 21.132507
735 0 1 4.725597 -4.642324 20.317398
736 0 1 4.372555 -3.980234 19.715302
737 0 1 3.479164 -3.648523 19.987396
738 0 1 3.345894 -2.690495 20.316498
739 0 1 3.292686 -2.436813 19.410599
740 0 1 2.701946 -1.696863 19.091492
741 0 1 3.634407 -1.515314 18.701904
742 0 1 4.108047 -1.572784 17.874298
743 0 1 3.795708 -1.171835 17.082794
744 0 1 4.275734 -0.439314 17.579605
745 0 1 4.710068 0.171427 17.054794
746 0 1 5.540066 0.570526 16.808197
747 0 1 5.093494 0.828867 15.906906
748 0 1 5.800556 1.419247 16.164505
749 0 1 5.553497 1.909136 15.332092
750 0 1 4.980125 2.186207 14.513306
751 0 1 4.784466 2.995676 14.923599
752 0 1 4.355957 3.007227 15.786102
753 0 1 4.518757 3.955172 15.529495
754 0 1 4.136856 3.794796 14.615005
755 0 1 3.384464 3.407587 14.858398
756 0 1 3.307045 3.802147 13.979706
757 0 1 2.450695 4.077246 13.630600
758 0 1 1.486980 3.895065 13.830994
759 0 1 1.067518 3.430437 13.129593
760 0 1 0.863691 2.690836 12.532700
761 0 1 0.062176 2.986607 12.126801
762 0 1 0.179979 3.929476 12.334503
763 0 1 0.341631 4.866396 12.012695
764 0 1 -0.149906 4.171017 11.505203
765 0 1 0.249458 4.566315 10.678299
766 0 1 0.473690 3.812326 10.181702
767 0 1 0.850460 4.100016 9.282394
768 0 1 0.210226 4.747452 9.368774
769 0 1 0.356293 5.551012 8.790863
770 0 1 0.908441 5.849321 9.575119
771 0 1 1.567583 5.442650 10.163696
772 0 1 2.055506 5.208090 10.931305
773 0 1 2.054316 4.420794 10.344803
774 0 1 2.764496 3.862516 9.970734
775 0 1 3.067368 4.726585 9.647308
776 0 1 2.718796 5.497406 9.258667
777 0 1 3.428627 5.947849 8.808777
778 0 1 3.550735 6.892836 8.487213
779 0 1 3.116997 6.683416 7.554032
780 0 1 2.146397 6.724718 7.428696