LAMMPS data file via MDAnalysis

        2000  atoms
        1999  bonds
           0  angles
           0  dihedrals
           0  impropers

           1  atom types
           1  bond types
           0  angle types
           0  dihedral types
           0  improper types

-30.5 30.5 xlo xhi
-30.5 30.5 ylo yhi
-233.5 233.5 zlo zhi


Masses

1 1.000000

Atoms

1 0 1 4.307703 -6.734815 47.843506
2 0 1 4.458193 -7.637595 47.538391
3 0 1 4.156264 -8.368134 46.846497
4 0 1 4.736874 -8.228795 45.994507
5 0 1 5.390383 -7.968646 45.303894
6 0 1 5.549134 -8.730786 44.755615
7 0 1 6.107808 -9.394216 45.218994
8 0 1 5.696194 -9.938235 45.868408
9 0 1 4.974684 -9.339025 45.719299
10 0 1 4.057984 -9.603444 45.406799
11 0 1 4.211083 -10.343616 44.826202
12 0 1 3.485502 -9.792214 44.508911
13 0 1 2.822394 -9.869786 45.159790
14 0 1 1.973803 -9.784745 44.636414
15 0 1 2.011273 -10.071345 43.704712
16 0 1 1.206793 -9.929746 43.093811
17 0 1 0.320814 -10.184915 43.445801
18 0 1 -0.292186 -10.069955 44.227112
19 0 1 -0.727796 -10.042916 45.049011
20 0 1 -0.121748 -9.879235 45.905090
21 0 1 -0.122627 -10.426515 46.748291
22 0 1 -0.538786 -10.005006 47.485291
23 0 1 -1.409876 -10.340516 47.727509
24 0 1 -2.102636 -10.266114 48.429504
25 0 1 -2.703287 -10.732816 48.975189
26 0 1 -1.759897 -11.067016 49.314697
27 0 1 -1.568628 -11.839116 49.843109
28 0 1 -1.938066 -12.014714 48.994293
29 0 1 -2.367326 -12.710317 49.476898
30 0 1 -3.227278 -12.257316 49.311310
31 0 1 -2.982176 -12.339915 50.289093
32 0 1 -2.313696 -12.769916 50.868500
33 0 1 -2.194097 -13.755815 50.887909
34 0 1 -3.095377 -14.095117 50.940704
35 0 1 -2.919176 -14.518716 51.802887
36 0 1 -2.353737 -14.794616 52.551910
37 0 1 -2.482237 -14.216916 53.311310
38 0 1 -2.693468 -13.245317 53.168884
39 0 1 -2.456947 -13.381017 54.121704
40 0 1 -1.884987 -12.694615 54.352997
41 0 1 -2.267168 -11.914815 53.910583
42 0 1 -1.367166 -11.512815 53.650604
43 0 1 -1.170976 -10.621915 53.854309
44 0 1 -1.509117 -10.134816 54.562988
45 0 1 -1.461357 -10.891015 55.195587
46 0 1 -0.986026 -10.193715 55.662506
47 0 1 -0.078638 -10.353215 55.436310
48 0 1 0.022593 -9.521836 56.006805
49 0 1 -0.817337 -9.127515 56.416595
50 0 1 -0.275697 -8.342565 56.710693
51 0 1 0.381373 -8.235524 57.440491
52 0 1 0.337973 -7.306195 57.110596
53 0 1 -0.413397 -6.982095 57.541901
54 0 1 -1.208326 -6.831235 58.038910
55 0 1 -1.437607 -5.975986 57.784698
56 0 1 -1.306448 -5.944936 58.731689
57 0 1 -0.495496 -6.195016 59.134705
58 0 1 0.034952 -5.498706 58.897003
59 0 1 0.924574 -5.439055 59.101410
60 0 1 1.321984 -6.255275 59.311890
61 0 1 2.181664 -6.447906 59.616608
62 0 1 2.331034 -5.838284 58.873413
63 0 1 3.180603 -5.676526 58.489014
64 0 1 2.759604 -4.789216 58.463196
65 0 1 2.100323 -4.401166 57.921387
66 0 1 2.599774 -5.119325 57.507690
67 0 1 2.432352 -5.643016 56.731201
68 0 1 1.755743 -5.061406 56.238800
69 0 1 2.188183 -4.482705 55.555908
70 0 1 2.679133 -3.955726 54.948914
71 0 1 3.357674 -3.671226 55.521088
72 0 1 2.918802 -3.605266 56.391785
73 0 1 3.320973 -2.861926 56.698700
74 0 1 3.539383 -3.368205 57.484100
75 0 1 4.418423 -3.434476 57.062592
76 0 1 5.345294 -3.232266 56.691193
77 0 1 6.143967 -3.343295 56.273193
78 0 1 5.975083 -4.308095 56.470886
79 0 1 6.642096 -4.588555 55.850586
80 0 1 6.614184 -5.395745 56.435791
81 0 1 6.561219 -6.293605 56.807007
82 0 1 6.725726 -6.275115 55.787598
83 0 1 6.394280 -6.322375 54.893799
84 0 1 6.321517 -7.262725 54.742004
85 0 1 6.981190 -7.914735 54.673004
86 0 1 7.008963 -8.877366 54.400909
87 0 1 6.741400 -9.219556 53.491516
88 0 1 6.563487 -8.259934 53.678497
89 0 1 6.043883 -7.431775 53.557007
90 0 1 5.910464 -7.947295 52.781799
91 0 1 6.552866 -8.506366 52.502197
92 0 1 6.912711 -9.179255 51.986694
93 0 1 7.669867 -9.761876 51.854889
94 0 1 8.427664 -9.934377 51.259308
95 0 1 9.322474 -9.717477 50.894806
96 0 1 9.748152 -10.169114 50.202789
97 0 1 10.070074 -10.565915 49.332794
98 0 1 10.524782 -11.300916 49.757904
99 0 1 10.427183 -10.857615 50.616791
100 0 1 9.746485 -11.570416 50.565796
101 0 1 10.477133 -11.978814 51.045410
102 0 1 10.823301 -12.379315 50.260193
103 0 1 11.400042 -13.141715 50.311188
104 0 1 11.078653 -13.497815 49.495483
105 0 1 10.444445 -13.993917 48.985901
106 0 1 10.450514 -14.217614 48.063904
107 0 1 10.886072 -14.691316 47.406616
108 0 1 11.536703 -15.079616 46.882690
109 0 1 11.461843 -14.878615 45.925812
110 0 1 12.356352 -15.137015 45.467712
111 0 1 11.702333 -15.638315 45.006409
112 0 1 12.598261 -15.877416 44.787506
113 0 1 13.484884 -15.921215 45.237793
114 0 1 14.204924 -15.261215 45.393188
115 0 1 15.069452 -15.587215 45.159302
116 0 1 15.222624 -16.268517 44.483307
117 0 1 14.975393 -17.191517 44.457214
118 0 1 14.249403 -17.399817 44.983002
119 0 1 13.933481 -17.063217 44.088013
120 0 1 14.025312 -16.581316 43.327301
121 0 1 14.738974 -17.260517 43.070190
122 0 1 13.972494 -17.896217 43.043091
123 0 1 13.288424 -18.036116 42.444397
124 0 1 13.411303 -18.007116 41.498505
125 0 1 12.980463 -17.358416 40.920288
126 0 1 12.119024 -17.087116 41.385193
127 0 1 11.756563 -17.431316 42.252197
128 0 1 11.055243 -17.021317 41.786194
129 0 1 10.445353 -17.464916 41.232300
130 0 1 10.256102 -16.991716 40.384796
131 0 1 11.036104 -17.406116 39.909607
132 0 1 11.561274 -18.177916 39.759308
133 0 1 10.885664 -18.886116 39.517517
134 0 1 10.561712 -18.568316 40.374908
135 0 1 10.294554 -19.247717 40.958313
136 0 1 9.763792 -18.550917 41.315002
137 0 1 9.041552 -18.141617 40.789612
138 0 1 8.315443 -17.788816 41.367310
139 0 1 7.945483 -17.807617 40.406494
140 0 1 7.688876 -18.773817 40.608490
141 0 1 6.781376 -18.891317 40.795990
142 0 1 5.962904 -19.252016 40.399200
143 0 1 4.998814 -19.316317 40.300598
144 0 1 4.460053 -19.077417 41.078400
145 0 1 4.649992 -18.225317 41.507812
146 0 1 3.855353 -17.627316 41.432892
147 0 1 3.310114 -17.039717 42.015594
148 0 1 2.442494 -17.454817 41.865204
149 0 1 2.124823 -16.634016 42.159698
150 0 1 1.683453 -16.128616 41.428406
151 0 1 2.071423 -15.342316 41.866699
152 0 1 2.679514 -14.690315 41.542999
153 0 1 3.560614 -14.266816 41.756805
154 0 1 2.887673 -13.984916 42.429596
155 0 1 3.580652 -13.905515 43.179108
156 0 1 3.245314 -13.019315 43.017395
157 0 1 2.587303 -12.878116 42.289703
158 0 1 1.690264 -13.297315 42.278107
159 0 1 0.982514 -13.588716 42.792999
160 0 1 0.258984 -14.236316 42.891388
161 0 1 -0.575397 -14.240014 43.352203
162 0 1 -1.350267 -14.235314 42.768494
163 0 1 -1.495847 -13.677115 42.035400
164 0 1 -0.556116 -13.883817 41.958008
165 0 1 -0.824257 -13.062215 41.569702
166 0 1 -0.854507 -12.126416 41.877502
167 0 1 0.084593 -12.002114 41.935913
168 0 1 -0.371177 -11.658814 42.716187
169 0 1 -0.653158 -12.295415 43.380798
170 0 1 -1.296606 -11.600514 43.316284
171 0 1 -1.817068 -10.736417 43.213104
172 0 1 -1.010647 -10.579816 42.765198
173 0 1 -1.251146 -9.742517 42.353302
174 0 1 -0.794857 -9.397996 41.468109
175 0 1 -1.729116 -9.230115 41.429108
176 0 1 -1.403717 -8.644074 42.167908
177 0 1 -1.222347 -8.067365 42.991913
178 0 1 -1.411707 -8.039166 43.919800
179 0 1 -1.512316 -7.025216 44.010498
180 0 1 -1.086967 -6.178365 43.807007
181 0 1 -1.115038 -5.195535 44.013489
182 0 1 -0.182687 -4.857556 43.890503
183 0 1 0.670563 -4.412366 44.346100
184 0 1 0.803433 -4.541366 45.293884
185 0 1 0.270953 -5.278056 45.522491
186 0 1 -0.449728 -4.653996 45.733887
187 0 1 -0.706546 -4.140025 44.955200
188 0 1 -1.615728 -3.780036 44.874390
189 0 1 -1.171396 -3.130185 44.288788
190 0 1 -0.735628 -2.316855 43.948395
191 0 1 0.120194 -2.160695 43.477509
192 0 1 1.039213 -2.394776 43.265808
193 0 1 1.698782 -3.016265 43.374817
194 0 1 1.962483 -2.140306 43.088989
195 0 1 1.676844 -1.707875 43.945496
196 0 1 1.685333 -1.791526 44.862213
197 0 1 1.427973 -2.505015 45.482910
198 0 1 1.615202 -2.322005 46.432312
199 0 1 2.157812 -1.570645 46.178894
200 0 1 2.248774 -1.100276 47.007385
201 0 1 2.163103 -0.175069 47.147308
202 0 1 2.437533 0.740228 46.789917
203 0 1 2.468573 1.268035 47.517303
204 0 1 2.316004 2.002124 46.784393
205 0 1 2.388582 2.681415 46.175201
206 0 1 2.052412 2.945495 45.390808
207 0 1 2.281203 2.643073 44.515594
208 0 1 2.213663 2.533126 43.544800
209 0 1 2.180304 3.247596 42.963287
210 0 1 1.565903 3.989715 42.813904
211 0 1 1.592774 4.412704 43.717010
212 0 1 0.690344 4.018065 43.825195
213 0 1 0.010172 3.649573 43.192413
214 0 1 -0.560636 3.937755 42.465393
215 0 1 -1.098978 4.750236 42.530701
216 0 1 -1.590357 4.768294 41.725586
217 0 1 -1.118677 4.418384 41.017212
218 0 1 -1.767486 3.861953 40.660583
219 0 1 -2.537487 3.273673 40.387207
220 0 1 -2.542207 2.463294 39.859314
221 0 1 -1.686447 2.451613 39.324799
222 0 1 -1.381456 1.514056 39.426086
223 0 1 -0.967966 0.873321 38.862701
224 0 1 -1.307688 0.325091 39.617401
225 0 1 -0.551857 0.486842 40.220398
226 0 1 -0.012956 0.938794 40.844208
227 0 1 0.798212 0.976914 41.279297
228 0 1 1.195713 0.533931 41.986908
229 0 1 1.584294 -0.047292 41.304291
230 0 1 1.843214 -0.558314 42.022583
231 0 1 2.530613 -0.515761 41.340088
232 0 1 2.652104 -0.983771 40.427307
233 0 1 2.593542 -0.508851 39.534912
234 0 1 1.872202 -0.933946 38.967804
235 0 1 2.415333 -1.709846 39.238892
236 0 1 3.085074 -2.437016 39.105713
237 0 1 3.586504 -3.112355 38.642792
238 0 1 3.679503 -3.267976 37.706299
239 0 1 2.743584 -3.138227 37.970001
240 0 1 1.879713 -3.244985 38.395996
241 0 1 2.138693 -4.144006 38.288910
242 0 1 2.785612 -4.856755 38.093597
243 0 1 2.231493 -5.604686 37.743500
244 0 1 2.521813 -6.343215 37.207794
245 0 1 2.351553 -6.586255 36.257294
246 0 1 3.272654 -6.747365 36.116699
247 0 1 3.837643 -7.291995 36.668488
248 0 1 4.008614 -8.189265 36.971405
249 0 1 4.021004 -8.286805 36.037811
250 0 1 4.359114 -9.175904 36.187103
251 0 1 4.957703 -9.198796 35.503693
252 0 1 5.219344 -8.365506 35.856293
253 0 1 4.822114 -7.994775 34.985107
254 0 1 4.427014 -7.184705 34.772217
255 0 1 3.569983 -7.583264 34.708008
256 0 1 3.456623 -8.256185 34.066803
257 0 1 3.195053 -7.987695 33.229492
258 0 1 4.146554 -8.044686 33.197815
259 0 1 4.597233 -7.978896 32.182495
260 0 1 5.060694 -7.471175 31.523590
261 0 1 4.813454 -6.853765 32.188690
262 0 1 4.730843 -6.017566 32.630890
263 0 1 4.937493 -6.254525 33.561890
264 0 1 5.406723 -5.453855 33.253693
265 0 1 6.062384 -5.752006 33.892609
266 0 1 6.686118 -5.121266 33.580383
267 0 1 7.406064 -4.537246 33.452301
268 0 1 7.736029 -4.018586 32.684204
269 0 1 8.158894 -3.362636 32.078400
270 0 1 7.926568 -2.636956 32.812012
271 0 1 8.137564 -1.670976 32.698303
272 0 1 8.427862 -1.124425 33.442688
273 0 1 7.535315 -1.460114 33.684204
274 0 1 8.173203 -1.619445 34.409790
275 0 1 7.343594 -2.004836 34.599487
276 0 1 6.659016 -1.418046 34.335999
277 0 1 6.306406 -2.027976 33.690796
278 0 1 5.467494 -1.942836 33.153992
279 0 1 4.674464 -2.388806 32.942505
280 0 1 4.317833 -2.556726 33.813599
281 0 1 4.045504 -2.233125 34.618500
282 0 1 3.705624 -1.876405 35.485901
283 0 1 3.134293 -1.147286 35.896606
284 0 1 2.368254 -0.634906 35.709717
285 0 1 2.094513 -0.459737 34.847107
286 0 1 2.500162 -0.317306 33.971985
287 0 1 2.025833 0.381909 33.587311
288 0 1 1.270674 0.330796 33.070099
289 0 1 0.377404 0.639178 32.903900
290 0 1 0.554194 1.051385 33.821289
291 0 1 0.678484 1.999774 33.746094
292 0 1 1.342283 1.672774 34.317413
293 0 1 2.127354 1.833076 33.814697
294 0 1 2.273403 2.338206 32.977692
295 0 1 2.566544 2.980903 32.201508
296 0 1 3.493914 3.105094 32.375702
297 0 1 3.853953 3.012694 33.295715
298 0 1 4.859734 2.860866 33.105713
299 0 1 5.329804 3.679393 33.207306
300 0 1 5.552933 4.452445 32.836212
301 0 1 4.798674 4.602725 32.239807
302 0 1 4.149893 5.325366 32.135986
303 0 1 3.706843 5.549266 32.947906
304 0 1 3.978443 6.032733 33.779907
305 0 1 4.074343 7.012404 33.755493
306 0 1 3.578453 7.197295 32.942413
307 0 1 2.604304 7.041503 32.783295
308 0 1 2.758883 6.314734 32.188995
309 0 1 3.772393 6.423324 31.977386
310 0 1 3.266083 7.257724 31.685486
311 0 1 2.469073 7.401874 31.097290
312 0 1 2.412934 8.033095 31.816406
313 0 1 1.575203 8.130115 31.390411
314 0 1 1.674544 8.424384 30.527313
315 0 1 0.921953 8.801345 30.902893
316 0 1 0.514193 9.674445 30.897400
317 0 1 -0.259117 9.195045 31.191284
318 0 1 -0.790987 9.141994 31.994202
319 0 1 -0.244688 8.977725 32.765686
320 0 1 -0.157146 8.079284 32.533813
321 0 1 0.367523 7.369014 32.255615
322 0 1 0.336623 7.518714 33.211212
323 0 1 1.122544 6.991225 33.484009
324 0 1 0.795584 6.024405 33.466400
325 0 1 -0.205646 5.773685 33.471405
326 0 1 -0.967027 5.341956 33.814209
327 0 1 -1.749918 5.841544 33.860107
328 0 1 -1.776838 5.576884 32.918793
329 0 1 -2.724527 5.491286 32.567291
330 0 1 -3.187477 6.257613 32.786407
331 0 1 -2.396906 6.634456 33.296906
332 0 1 -2.589758 6.743964 34.201416
333 0 1 -1.781458 6.441794 34.648987
334 0 1 -1.463167 5.765655 35.215088
335 0 1 -1.965017 5.980353 35.995209
336 0 1 -2.228407 6.562713 36.765289
337 0 1 -3.159376 6.434936 36.847809
338 0 1 -3.371378 5.740233 36.188507
339 0 1 -3.883676 4.993575 36.448395
340 0 1 -3.169576 4.698123 36.950012
341 0 1 -2.698705 4.661284 37.806305
342 0 1 -2.117847 5.407355 38.147491
343 0 1 -1.190138 5.554915 38.152008
344 0 1 -0.363327 4.978576 38.358795
345 0 1 0.447113 4.938827 38.833008
346 0 1 0.265663 5.505633 39.596405
347 0 1 0.904534 5.646163 40.295807
348 0 1 0.795693 5.940646 41.187683
349 0 1 0.982083 6.681075 41.716095
350 0 1 1.401913 7.311725 42.269806
351 0 1 1.579092 7.941184 42.980286
352 0 1 1.217613 8.670035 43.572113
353 0 1 0.439513 8.742404 44.061890
354 0 1 -0.489626 8.652415 44.412994
355 0 1 -1.294107 9.185634 44.692688
356 0 1 -1.595497 8.334704 44.819611
357 0 1 -2.342146 8.252784 44.254913
358 0 1 -2.372198 7.276706 44.029297
359 0 1 -3.266777 7.459514 44.360504
360 0 1 -3.628576 8.371383 44.658112
361 0 1 -3.387476 8.959235 43.959106
362 0 1 -3.565777 8.957465 43.002991
363 0 1 -4.023675 8.147346 42.598602
364 0 1 -4.385276 7.484725 43.199890
365 0 1 -5.341978 7.714633 43.097412
366 0 1 -5.302677 8.538054 42.572296
367 0 1 -6.187376 8.498763 42.847290
368 0 1 -6.591276 8.377414 43.735413
369 0 1 -7.385877 8.282676 43.142609
370 0 1 -7.881076 9.046504 42.660492
371 0 1 -8.534277 9.210315 43.313904
372 0 1 -7.689677 9.665004 43.559204
373 0 1 -7.208276 10.064586 44.325500
374 0 1 -7.957877 9.540095 44.619812
375 0 1 -8.277977 9.882106 45.445984
376 0 1 -9.134577 10.228286 45.203094
377 0 1 -9.551277 9.924785 45.938812
378 0 1 -9.081377 9.716834 46.753387
379 0 1 -8.343477 9.266906 47.225006
380 0 1 -7.497877 9.416266 47.583008
381 0 1 -7.063978 9.979583 46.851105
382 0 1 -6.986476 9.110816 46.436798
383 0 1 -7.241077 8.313956 46.026001
384 0 1 -6.888578 7.789466 45.267303
385 0 1 -7.437677 7.038596 45.181000
386 0 1 -8.390777 6.953975 45.045288
387 0 1 -8.893877 7.375854 44.285095
388 0 1 -9.630877 7.606246 43.737396
389 0 1 -10.484978 7.650424 44.189209
390 0 1 -10.604277 8.344626 43.504608
391 0 1 -10.757177 8.195754 42.608002
392 0 1 -11.584578 8.519134 42.151917
393 0 1 -10.707176 8.536254 41.599213
394 0 1 -9.891376 8.081584 41.646790
395 0 1 -9.974676 7.924754 40.677399
396 0 1 -9.635277 7.048953 40.543793
397 0 1 -9.731176 6.293193 40.009094
398 0 1 -10.241777 5.882804 39.321503
399 0 1 -10.218077 5.247836 38.533600
400 0 1 -9.986977 5.905246 37.908813
401 0 1 -9.914577 4.970836 37.568512
402 0 1 -9.587877 4.264415 36.995392
403 0 1 -8.789277 3.938293 37.431396
404 0 1 -8.650077 2.935935 37.278595
405 0 1 -8.381377 2.048926 37.460602
406 0 1 -8.137377 1.110984 37.234985
407 0 1 -9.077778 0.850818 36.980896
408 0 1 -8.732877 0.114129 37.551086
409 0 1 -8.576777 0.609277 38.352112
410 0 1 -8.748877 0.429715 39.287415
411 0 1 -9.211077 -0.289252 39.683105
412 0 1 -10.187677 -0.459321 39.925415
413 0 1 -10.473577 0.159852 40.562408
414 0 1 -10.189177 0.598552 41.352692
415 0 1 -9.250177 0.736403 41.192200
416 0 1 -9.388577 1.726146 41.088287
417 0 1 -9.277878 2.405326 40.497101
418 0 1 -9.497276 3.222934 40.953308
419 0 1 -9.799877 3.685634 40.176300
420 0 1 -10.659376 3.834643 39.852203
421 0 1 -10.296078 3.910426 38.983002
422 0 1 -10.103577 3.173976 38.449097
423 0 1 -11.004477 2.811416 38.604095
424 0 1 -11.056377 1.865573 38.782288
425 0 1 -11.866777 1.418513 38.236389
426 0 1 -11.484978 1.529513 37.325897
427 0 1 -10.992376 1.614165 36.379211
428 0 1 -10.946478 1.277745 35.445801
429 0 1 -11.386778 1.461856 34.639496
430 0 1 -11.192677 1.784144 33.723206
431 0 1 -11.931078 1.593936 33.108612
432 0 1 -12.599977 1.568984 33.761108
433 0 1 -13.151978 1.588164 34.570709
434 0 1 -13.339376 1.240115 35.465393
435 0 1 -14.010178 0.996444 36.111298
436 0 1 -14.520977 0.181813 36.415009
437 0 1 -14.657677 -0.675738 36.088806
438 0 1 -15.478876 -1.131366 35.916901
439 0 1 -16.024378 -1.446115 36.687408
440 0 1 -15.974876 -0.949710 37.442505
441 0 1 -15.692278 -0.165006 37.956207
442 0 1 -16.583277 -0.519124 38.253510
443 0 1 -16.875378 -0.727397 39.187683
444 0 1 -16.160378 -0.209189 39.512787
445 0 1 -15.886976 -1.089194 39.725098
446 0 1 -16.689177 -1.124696 40.367493
447 0 1 -16.298477 -0.623647 41.042114
448 0 1 -15.762177 0.158385 41.043610
449 0 1 -15.931677 0.620931 40.208008
450 0 1 -15.499977 1.373134 40.626007
451 0 1 -15.185577 2.340415 40.678284
452 0 1 -15.982977 2.980414 40.625183
453 0 1 -16.756878 2.553424 40.249084
454 0 1 -16.642878 3.277816 39.602112
455 0 1 -16.987377 3.395637 38.701599
456 0 1 -16.495176 3.937705 37.998901
457 0 1 -16.974676 4.775275 38.207214
458 0 1 -17.633177 4.662395 37.519897
459 0 1 -18.111477 5.013484 38.270996
460 0 1 -17.880676 4.544204 39.019501
461 0 1 -17.700777 5.161235 39.736084
462 0 1 -18.502478 5.514434 39.334503
463 0 1 -18.465776 6.195403 38.711700
464 0 1 -17.983076 6.648475 39.424103
465 0 1 -17.572878 7.537265 39.529114
466 0 1 -16.695377 7.589244 39.880707
467 0 1 -16.132277 8.382224 39.779999
468 0 1 -15.542578 8.822764 39.115784
469 0 1 -16.148876 9.192016 38.462891
470 0 1 -16.868177 8.609843 38.382904
471 0 1 -16.878378 7.688865 38.061310
472 0 1 -16.849777 7.131263 37.264099
473 0 1 -16.631178 6.749106 36.300598
474 0 1 -16.947376 7.551166 35.799103
475 0 1 -17.003477 8.139136 35.032196
476 0 1 -16.087177 8.132216 34.783295
477 0 1 -16.175077 7.953094 33.754608
478 0 1 -16.467978 7.182796 33.241608
479 0 1 -16.344477 6.255343 33.314606
480 0 1 -16.913277 5.926753 32.661591
481 0 1 -16.188477 5.695765 32.084290
482 0 1 -16.886477 5.344024 31.381012
483 0 1 -16.274378 4.826076 30.857910
484 0 1 -16.997078 4.351695 30.518402
485 0 1 -16.816277 4.983985 29.872803
486 0 1 -16.367977 5.748046 30.259888
487 0 1 -15.473377 5.359866 30.111298
488 0 1 -14.968178 4.687083 30.632904
489 0 1 -13.988876 4.923873 30.656097
490 0 1 -13.669077 5.444125 29.884796
491 0 1 -12.894577 4.948894 29.714508
492 0 1 -12.819878 4.271506 30.326111
493 0 1 -11.859177 4.585906 30.308014
494 0 1 -11.279476 4.760165 29.521790
495 0 1 -11.344177 4.526725 28.595001
496 0 1 -11.511177 5.203433 27.950012
497 0 1 -11.591677 5.707343 27.098114
498 0 1 -11.042377 6.508346 27.285187
499 0 1 -10.748577 7.331935 26.868408
500 0 1 -10.267076 8.114455 26.861786
501 0 1 -9.869377 8.864257 26.462585
502 0 1 -10.749277 9.151885 26.601501
503 0 1 -10.210278 9.829246 26.105896
504 0 1 -10.783777 10.603286 25.982910
505 0 1 -10.589077 11.526183 26.306000
506 0 1 -10.161476 12.367084 26.502686
507 0 1 -10.120977 12.539786 27.472412
508 0 1 -10.879578 12.035583 27.702911
509 0 1 -11.748077 12.519786 27.772400
510 0 1 -12.007177 11.879683 28.478790
511 0 1 -12.320677 10.932384 28.528992
512 0 1 -13.295177 11.048186 28.331512
513 0 1 -13.609676 10.134784 28.292603
514 0 1 -14.223276 10.642085 27.772614
515 0 1 -14.504377 9.793143 27.467712
516 0 1 -14.747877 9.098296 28.059204
517 0 1 -14.043177 8.825896 28.584106
518 0 1 -14.808277 9.059844 29.085999
519 0 1 -14.946478 9.998584 28.883484
520 0 1 -15.253878 10.704284 29.505005
521 0 1 -15.587276 10.504485 30.346191
522 0 1 -14.783876 10.247684 30.850494
523 0 1 -14.999178 9.362514 30.368286
524 0 1 -14.467077 9.176734 31.153992
525 0 1 -13.745478 9.696124 31.513000
526 0 1 -13.221577 9.541163 30.730591
527 0 1 -12.371576 9.205005 30.310608
528 0 1 -11.403776 9.240256 30.557892
529 0 1 -11.701576 9.002315 29.606598
530 0 1 -11.925177 9.122184 28.678802
531 0 1 -12.862377 8.783813 28.570190
532 0 1 -13.315077 8.072616 28.935303
533 0 1 -14.057676 7.897586 29.438293
534 0 1 -14.729677 7.612956 30.052795
535 0 1 -14.136778 7.241775 30.759796
536 0 1 -14.530678 6.455504 31.135406
537 0 1 -15.315477 6.215075 30.676697
538 0 1 -15.185778 6.611976 29.829498
539 0 1 -15.197178 6.563174 28.868713
540 0 1 -15.562777 7.136065 28.248901
541 0 1 -15.787277 6.259875 28.005310
542 0 1 -15.953478 5.366904 28.062103
543 0 1 -15.778578 5.409663 29.041290
544 0 1 -16.193377 6.289695 29.230499
545 0 1 -16.734676 6.534373 28.565796
546 0 1 -17.204977 5.809863 28.216003
547 0 1 -17.496677 4.899917 28.177307
548 0 1 -18.355778 4.608626 28.107605
549 0 1 -19.247778 4.421165 28.079407
550 0 1 -19.817978 4.569625 27.302704
551 0 1 -19.617376 4.550525 26.398315
552 0 1 -19.218977 4.367545 25.591705
553 0 1 -18.873777 3.514884 25.118713
554 0 1 -18.972677 2.725383 24.572113
555 0 1 -18.740778 2.483054 23.644196
556 0 1 -19.680576 2.683394 23.753601
557 0 1 -19.512877 3.630534 23.688293
558 0 1 -20.146776 3.620845 22.966003
559 0 1 -20.126877 3.963244 22.079407
560 0 1 -19.561176 3.809943 21.290894
561 0 1 -18.616877 3.680133 21.319595
562 0 1 -18.099577 4.512706 21.471298
563 0 1 -17.617277 4.128516 22.174698
564 0 1 -17.978876 3.240504 22.068604
565 0 1 -17.403877 2.573436 21.767792
566 0 1 -17.067177 1.841826 21.197006
567 0 1 -16.830976 2.681663 20.850800
568 0 1 -17.001877 2.717353 19.905396
569 0 1 -17.575577 3.346084 19.508698
570 0 1 -18.195377 3.245406 18.768005
571 0 1 -18.091377 2.325015 18.753098
572 0 1 -17.535578 1.696616 18.226807
573 0 1 -16.850777 1.202794 17.787094
574 0 1 -16.036377 1.709865 17.560806
575 0 1 -15.817877 1.035935 18.236801
576 0 1 -15.451077 1.508246 19.036194
577 0 1 -15.343576 2.307704 18.652206
578 0 1 -14.754177 2.076213 17.869400
579 0 1 -13.986477 1.601474 18.218796
580 0 1 -13.081078 1.227914 18.192505
581 0 1 -12.300577 1.606544 18.525208
582 0 1 -11.362778 1.438945 18.468292
583 0 1 -11.721176 1.525035 19.404404
584 0 1 -12.380978 1.322354 20.033600
585 0 1 -12.477177 0.527635 19.481796
586 0 1 -12.008877 -0.205359 19.971802
587 0 1 -11.200176 -0.690240 19.985596
588 0 1 -10.390078 -0.501447 20.523407
589 0 1 -9.830477 -1.320256 20.576797
590 0 1 -10.013777 -2.119365 20.049103
591 0 1 -9.089977 -1.825675 20.095505
592 0 1 -8.239077 -2.293395 20.209808
593 0 1 -8.309477 -2.018136 19.298904
594 0 1 -8.732277 -1.399646 18.730301
595 0 1 -8.539177 -0.508664 18.958099
596 0 1 -7.792476 0.029597 18.592896
597 0 1 -7.097776 -0.537532 18.806000
598 0 1 -7.096277 0.256976 19.393600
599 0 1 -7.223876 -0.359204 20.125702
600 0 1 -6.912776 0.248979 20.824203
601 0 1 -6.301977 0.091252 20.112595
602 0 1 -5.413976 0.243653 20.414001
603 0 1 -5.487775 0.771350 19.594498
604 0 1 -5.139978 0.052396 19.031296
605 0 1 -5.124376 -0.827989 18.764404
606 0 1 -5.933076 -1.300826 18.848999
607 0 1 -5.315176 -2.021676 18.528107
608 0 1 -5.358676 -2.995345 18.860001
609 0 1 -5.935577 -3.484176 18.217407
610 0 1 -6.371677 -4.342736 18.186707
611 0 1 -6.120477 -5.117085 18.692200
612 0 1 -6.526678 -5.404817 19.481796
613 0 1 -5.633876 -5.812396 19.774994
614 0 1 -5.908376 -5.775006 20.729599
615 0 1 -6.427377 -5.159095 21.284805
616 0 1 -7.023077 -4.569936 21.845703
617 0 1 -7.337377 -4.008376 22.605103
618 0 1 -7.953177 -3.444715 22.107208
619 0 1 -7.647076 -2.936835 21.346695
620 0 1 -8.121977 -3.554965 20.771194
621 0 1 -8.212777 -4.522656 20.688797
622 0 1 -9.135477 -4.516026 20.809097
623 0 1 -10.033478 -4.341136 20.391403
624 0 1 -10.875076 -4.728665 20.472000
625 0 1 -10.926577 -3.981036 19.721008
626 0 1 -11.429377 -4.663945 19.232208
627 0 1 -10.962477 -5.462285 19.034607
628 0 1 -11.386377 -5.968276 18.300995
629 0 1 -12.256477 -6.229865 18.780396
630 0 1 -12.511477 -6.746135 18.002502
631 0 1 -11.789377 -7.331746 17.821304
632 0 1 -12.570976 -7.540555 17.317596
633 0 1 -12.962578 -7.964946 16.551498
634 0 1 -12.589077 -8.896356 16.280197
635 0 1 -12.362677 -8.686376 15.350998
636 0 1 -13.229477 -8.786706 15.589401
637 0 1 -14.112476 -8.974666 15.195999
638 0 1 -14.860977 -9.521745 15.032394
639 0 1 -14.931276 -8.991065 14.227707
640 0 1 -14.588676 -8.318206 13.594604
641 0 1 -15.294577 -7.673245 13.672897
642 0 1 -15.987577 -8.216645 13.269592
643 0 1 -15.294876 -8.485326 12.719101
644 0 1 -15.119377 -9.173945 12.083694
645 0 1 -14.598976 -8.424455 11.914597
646 0 1 -14.601776 -7.684445 12.545502
647 0 1 -13.913277 -7.039645 12.453201
648 0 1 -13.334276 -7.371615 11.752197
649 0 1 -13.316677 -8.224916 12.074799
650 0 1 -13.228577 -9.070195 12.554398
651 0 1 -12.891176 -9.490125 11.780106
652 0 1 -11.911177 -9.418715 11.606995
653 0 1 -10.919077 -9.583707 11.695099
654 0 1 -11.151077 -10.079465 10.925293
655 0 1 -11.843277 -10.446614 11.437897
656 0 1 -11.347378 -11.269015 11.254898
657 0 1 -11.773777 -12.112515 11.463806
658 0 1 -12.742477 -12.469516 11.409897
659 0 1 -12.671078 -13.393815 11.794800
660 0 1 -13.007977 -14.310914 12.037201
661 0 1 -13.553177 -14.576316 12.848907
662 0 1 -13.320976 -15.231915 13.581696
663 0 1 -13.158377 -16.190216 13.575806
664 0 1 -12.258476 -16.385015 13.845795
665 0 1 -12.472277 -15.772216 14.541107
666 0 1 -12.461077 -14.822915 14.554993
667 0 1 -12.583576 -14.574216 15.442993
668 0 1 -13.342176 -15.035215 15.107605
669 0 1 -14.166576 -14.918916 15.611603
670 0 1 -15.043577 -14.568416 15.882706
671 0 1 -15.678677 -14.039617 16.461594
672 0 1 -15.822678 -13.093316 16.372299
673 0 1 -14.920677 -13.084516 16.382095
674 0 1 -14.408077 -12.611714 17.054398
675 0 1 -15.317078 -12.311814 17.552704
676 0 1 -15.394278 -13.210515 17.741699
677 0 1 -14.595877 -12.907815 18.253799
678 0 1 -14.504778 -12.901416 19.181107
679 0 1 -14.639877 -12.040416 18.745392
680 0 1 -13.750578 -12.287416 18.980606
681 0 1 -14.079077 -11.548415 19.564102
682 0 1 -13.372377 -11.792516 20.245392
683 0 1 -14.219378 -11.632215 20.796494
684 0 1 -14.279078 -10.841716 21.245605
685 0 1 -13.299877 -10.936215 21.679993
686 0 1 -12.614777 -11.104016 21.034103
687 0 1 -12.440477 -12.070916 21.316696
688 0 1 -11.849377 -11.716315 20.678101
689 0 1 -11.561277 -12.649014 20.510193
690 0 1 -11.145376 -12.171216 19.804306
691 0 1 -10.141077 -12.013314 20.153992
692 0 1 -9.189676 -11.860715 20.451508
693 0 1 -9.102777 -12.160714 19.524002
694 0 1 -8.317877 -12.291917 19.077896
695 0 1 -7.741376 -11.549214 18.824997
696 0 1 -7.500777 -12.009816 17.998703
697 0 1 -7.285877 -11.361917 17.254898
698 0 1 -6.437875 -11.217515 16.795105
699 0 1 -5.973077 -10.741715 17.498795
700 0 1 -5.953376 -11.106715 18.383804
701 0 1 -5.525278 -11.630315 19.074997
702 0 1 -4.916276 -11.206616 19.584106
703 0 1 -4.110876 -10.610314 19.610107
704 0 1 -3.725378 -9.760245 19.565002
705 0 1 -3.974176 -9.028035 19.024002
706 0 1 -3.247677 -8.416356 18.874207
707 0 1 -3.715776 -7.600526 18.691605
708 0 1 -4.280675 -7.420775 18.000000
709 0 1 -4.426176 -7.867906 17.152405
710 0 1 -3.439977 -8.308225 17.054398
711 0 1 -3.336277 -7.950166 16.203705
712 0 1 -2.669786 -8.527905 15.944107
713 0 1 -2.726267 -9.138936 16.673401
714 0 1 -2.448717 -8.792846 17.546204
715 0 1 -1.800777 -9.178096 18.156708
716 0 1 -1.811357 -9.954137 17.665009
717 0 1 -2.009277 -10.148215 18.598404
718 0 1 -2.323488 -9.716025 19.370697
719 0 1 -2.668337 -10.003236 20.284698
720 0 1 -1.852466 -10.505815 20.500702
721 0 1 -1.556597 -10.708415 21.419098
722 0 1 -1.316747 -10.240617 22.204498
723 0 1 -0.675817 -9.492545 22.205994
724 0 1 -0.909366 -8.575255 22.265396
725 0 1 -0.013027 -8.369925 22.087708
726 0 1 -0.004938 -7.553166 22.482498
727 0 1 -0.636377 -6.951526 22.201797
728 0 1 -0.508356 -6.163304 22.615814
729 0 1 -0.240778 -5.519055 23.396088
730 0 1 -0.329057 -4.761546 22.751099
731 0 1 0.204413 -3.965714 22.706696
732 0 1 0.950814 -3.563386 23.118195
733 0 1 0.935913 -3.070664 23.914307
734 0 1 1.799563 -2.955476 23.444000
735 0 1 1.909973 -3.756625 22.885406
736 0 1 1.696553 -2.950776 22.389694
737 0 1 0.803103 -2.965495 22.214005
738 0 1 0.203654 -2.197335 22.192398
739 0 1 0.785233 -1.612235 21.561798
740 0 1 0.251562 -0.868775 21.744400
741 0 1 -0.092787 0.044591 21.885895
742 0 1 -0.748577 0.085994 21.215302
743 0 1 -0.834276 0.851125 20.574402
744 0 1 -1.120836 1.197875 21.412201
745 0 1 -1.616766 1.038184 22.251099
746 0 1 -2.241447 0.593999 21.700195
747 0 1 -2.846447 0.604362 20.972992
748 0 1 -2.566396 1.318784 20.444305
749 0 1 -2.054456 1.454696 19.625900
750 0 1 -2.627527 1.711455 18.990799
751 0 1 -2.788397 1.421916 18.037399
752 0 1 -2.093416 1.458533 17.368195
753 0 1 -2.559147 2.289096 17.464798
754 0 1 -3.105377 2.248733 16.626297
755 0 1 -3.564977 2.133086 17.443497
756 0 1 -3.982378 1.162305 17.529495
757 0 1 -4.036676 0.550986 16.782593
758 0 1 -4.505178 0.851737 15.954193
759 0 1 -5.392276 1.260295 16.308594
760 0 1 -6.222476 1.259564 16.891098
761 0 1 -6.603076 2.106025 16.541107
762 0 1 -7.543876 2.309905 16.342407
763 0 1 -7.884676 2.952033 15.712601
764 0 1 -7.861777 3.884555 16.123901
765 0 1 -8.537877 3.332606 16.551605
766 0 1 -9.470978 3.613753 16.420303
767 0 1 -9.843678 4.471965 16.536499
768 0 1 -9.313477 5.181594 17.001205
769 0 1 -10.065678 4.869964 17.538895
770 0 1 -9.611776 4.576243 18.326096
771 0 1 -9.372078 5.503196 18.381393
772 0 1 -9.330378 6.378985 17.934906
773 0 1 -8.912977 7.045634 17.388397
774 0 1 -8.150277 7.561103 17.328903
775 0 1 -7.819577 6.634513 17.429703
776 0 1 -7.355077 6.492614 16.621597
777 0 1 -7.106878 5.647414 16.316498
778 0 1 -6.343076 5.010375 16.488007
779 0 1 -5.502477 4.581233 16.551498
780 0 1 -5.124876 5.447265 16.612595
781 0 1 -4.140577 5.582713 16.763199
782 0 1 -3.697277 6.381534 16.399506
783 0 1 -4.314777 6.448794 15.674103
784 0 1 -4.747976 7.198997 16.156906
785 0 1 -5.219976 7.106727 15.310394
786 0 1 -5.693777 7.699313 14.575104