LAMMPS data file via MDAnalysis

        2000  atoms
        1999  bonds
           0  angles
           0  dihedrals
           0  impropers

           1  atom types
           1  bond types
           0  angle types
           0  dihedral types
           0  improper types

-30.5 30.5 xlo xhi
-30.5 30.5 ylo yhi
-233.5 233.5 zlo zhi


Masses

1 1.000000

Atoms

1 0 1 22.591028 -6.858712 40.158905
2 0 1 22.124327 -7.523492 39.504791
3 0 1 22.705324 -8.075864 39.024414
4 0 1 22.185427 -7.456523 38.429901
5 0 1 21.951727 -8.173263 37.816193
6 0 1 21.456427 -8.758561 37.213806
7 0 1 21.654226 -8.345963 36.372101
8 0 1 21.220728 -8.386662 35.447693
9 0 1 21.306128 -8.224763 34.505402
10 0 1 20.414427 -8.219262 34.292786
11 0 1 20.254725 -9.019662 33.677399
12 0 1 19.943224 -9.409463 34.492493
13 0 1 19.367727 -8.974063 35.185791
14 0 1 19.586428 -8.784162 36.076202
15 0 1 19.934626 -9.629064 35.925415
16 0 1 19.931326 -9.556462 36.855103
17 0 1 19.289728 -10.248464 37.190704
18 0 1 18.839827 -11.071263 37.168488
19 0 1 18.979128 -10.858962 36.218597
20 0 1 19.003126 -10.165662 35.575897
21 0 1 18.135729 -9.926862 35.358612
22 0 1 17.789125 -9.711963 34.501404
23 0 1 17.549326 -10.395263 33.820099
24 0 1 16.968527 -10.848363 33.262207
25 0 1 17.074427 -11.775163 33.389587
26 0 1 16.703627 -11.372962 34.154907
27 0 1 16.277628 -11.794862 34.951599
28 0 1 15.877028 -12.357562 35.597992
29 0 1 16.208826 -13.069963 35.029999
30 0 1 16.878428 -13.745662 34.799011
31 0 1 17.562525 -13.817962 35.494202
32 0 1 17.560129 -14.244063 36.362701
33 0 1 17.115229 -13.671662 37.055511
34 0 1 16.472326 -13.314363 36.446106
35 0 1 15.609327 -13.571663 36.721191
36 0 1 15.168428 -13.886962 35.933899
37 0 1 14.414328 -14.141763 36.434387
38 0 1 14.241526 -15.048263 36.195587
39 0 1 13.399828 -14.888362 35.758209
40 0 1 12.883726 -14.062762 35.897888
41 0 1 13.017427 -13.144062 35.715698
42 0 1 12.353827 -12.424663 35.863007
43 0 1 12.100225 -11.641461 35.446991
44 0 1 12.367727 -10.718263 35.281189
45 0 1 11.884127 -10.778462 36.161713
46 0 1 12.675226 -10.935462 36.698486
47 0 1 12.477129 -10.930661 37.619202
48 0 1 11.573526 -10.860063 38.013397
49 0 1 11.141527 -10.719064 38.819305
50 0 1 10.621626 -10.290963 38.071594
51 0 1 10.007547 -10.892762 37.630798
52 0 1 9.656397 -11.770661 37.680389
53 0 1 8.940737 -12.119264 38.200287
54 0 1 8.328657 -11.384461 38.471405
55 0 1 7.895265 -12.001863 37.946411
56 0 1 7.481157 -12.444263 37.215088
57 0 1 6.784128 -12.737363 36.484009
58 0 1 5.906827 -12.457262 36.385712
59 0 1 6.274988 -11.556663 36.443604
60 0 1 5.515436 -11.004563 36.751495
61 0 1 5.521898 -10.222863 37.227509
62 0 1 5.421617 -11.006562 37.884705
63 0 1 6.171407 -11.273664 38.386292
64 0 1 6.853815 -10.754262 38.811188
65 0 1 6.298837 -10.764562 39.589294
66 0 1 6.847948 -11.095464 40.317291
67 0 1 7.136148 -10.175162 40.089600
68 0 1 6.775926 -9.242963 40.230286
69 0 1 7.117616 -9.017463 39.364014
70 0 1 6.282445 -8.703162 38.993286
71 0 1 5.544378 -8.276563 38.695984
72 0 1 4.798067 -7.990563 39.213593
73 0 1 4.220567 -8.723962 39.476288
74 0 1 4.405786 -8.800563 40.463104
75 0 1 4.602636 -8.048661 41.113586
76 0 1 4.618394 -7.193051 41.596405
77 0 1 5.502756 -7.378072 42.082214
78 0 1 6.231725 -6.905332 42.490295
79 0 1 6.655057 -7.226413 41.680511
80 0 1 6.520708 -8.124661 41.907593
81 0 1 6.841245 -8.910062 42.378204
82 0 1 5.929285 -8.969163 42.858002
83 0 1 6.318475 -9.708863 43.327606
84 0 1 5.372697 -9.790162 43.225189
85 0 1 4.762277 -9.255162 42.750916
86 0 1 4.676137 -8.990361 41.867004
87 0 1 4.345918 -9.707261 41.276917
88 0 1 3.678575 -10.372163 41.392090
89 0 1 3.369726 -10.842462 42.192596
90 0 1 3.941186 -11.207463 42.854309
91 0 1 4.124605 -12.116862 42.625610
92 0 1 4.037427 -13.111062 42.423706
93 0 1 4.564977 -13.803262 42.710907
94 0 1 5.396257 -13.597862 42.214508
95 0 1 6.140226 -13.456363 41.628296
96 0 1 6.974115 -13.063063 41.139709
97 0 1 7.324647 -13.930963 40.921692
98 0 1 7.115087 -13.739663 39.960083
99 0 1 6.302537 -14.186963 39.559387
100 0 1 6.500165 -15.097163 39.326202
101 0 1 7.000486 -15.609763 38.652496
102 0 1 6.412977 -15.666562 37.930115
103 0 1 6.031045 -15.423663 37.076202
104 0 1 6.286535 -15.530063 36.169800
105 0 1 7.014886 -15.835162 36.718994
106 0 1 7.473707 -16.606964 36.338806
107 0 1 7.642637 -17.554863 36.518005
108 0 1 7.580698 -17.533564 35.588593
109 0 1 8.490648 -17.404064 35.868286
110 0 1 9.026888 -17.083263 36.590790
111 0 1 9.579798 -17.737064 35.988403
112 0 1 9.729628 -18.702663 36.010498
113 0 1 9.204775 -19.153664 36.724609
114 0 1 9.981157 -19.397663 37.302307
115 0 1 9.152864 -19.790663 37.638489
116 0 1 9.227438 -19.159264 38.485992
117 0 1 8.900717 -18.543564 39.145599
118 0 1 8.191046 -18.079964 39.598389
119 0 1 8.265356 -18.831364 40.210693
120 0 1 8.841028 -19.488264 40.360687
121 0 1 9.162687 -20.236164 40.853790
122 0 1 9.498476 -19.888563 41.687897
123 0 1 9.265776 -19.595564 42.562195
124 0 1 9.418547 -18.763563 42.936310
125 0 1 9.533758 -18.078564 42.339111
126 0 1 10.303686 -17.785864 41.861908
127 0 1 10.293707 -16.872263 42.176697
128 0 1 10.300756 -15.945462 42.307983
129 0 1 10.272146 -15.141862 42.826111
130 0 1 10.903997 -14.821063 43.576813
131 0 1 10.379938 -14.737863 44.325897
132 0 1 10.338278 -13.738162 44.427307
133 0 1 10.952929 -13.209263 44.926514
134 0 1 10.316156 -13.613763 45.665100
135 0 1 11.050726 -13.649062 46.244293
136 0 1 11.806726 -13.913562 46.865784
137 0 1 12.814425 -13.960563 46.720306
138 0 1 13.779627 -13.525863 46.545502
139 0 1 14.483625 -13.470263 47.200897
140 0 1 15.115229 -12.757162 47.436890
141 0 1 15.801626 -12.873363 46.707489
142 0 1 16.126726 -12.080064 46.467712
143 0 1 15.536928 -11.794362 45.769806
144 0 1 14.785727 -12.178762 45.272797
145 0 1 14.008928 -12.734962 45.030884
146 0 1 13.910727 -13.330262 44.315613
147 0 1 14.593428 -13.551963 44.970093
148 0 1 14.800028 -12.825763 44.430206
149 0 1 15.362825 -13.346362 43.853912
150 0 1 15.131227 -12.522463 43.344910
151 0 1 14.200525 -12.623162 42.865784
152 0 1 13.247828 -12.702163 42.808105
153 0 1 13.719728 -13.581363 42.771210
154 0 1 13.015429 -13.801862 42.200409
155 0 1 12.672026 -12.929162 41.931793
156 0 1 13.591028 -13.058662 41.614899
157 0 1 14.136026 -12.538062 41.023895
158 0 1 13.960127 -11.578961 40.836700
159 0 1 13.958326 -10.910562 40.146912
160 0 1 14.943827 -10.917863 40.145905
161 0 1 14.681726 -10.114263 39.742188
162 0 1 14.665228 -9.173963 39.486389
163 0 1 15.611925 -9.302463 39.192902
164 0 1 15.853628 -8.635262 39.779297
165 0 1 16.579126 -8.199761 40.197998
166 0 1 17.553125 -8.324662 40.295715
167 0 1 17.308428 -8.366162 39.384003
168 0 1 18.029528 -8.036962 38.854889
169 0 1 18.577127 -7.362132 38.566406
170 0 1 19.383028 -7.687661 38.924011
171 0 1 19.560625 -6.803632 39.168396
172 0 1 19.143827 -6.456922 39.996490
173 0 1 18.774630 -5.735574 40.580505
174 0 1 19.635427 -6.053102 40.868286
175 0 1 20.077627 -6.859532 41.170898
176 0 1 20.378328 -6.347672 41.887299
177 0 1 21.228624 -6.088132 42.176910
178 0 1 21.059824 -5.657332 43.061005
179 0 1 21.225229 -4.960242 43.646393
180 0 1 21.802427 -5.001563 44.473816
181 0 1 21.767027 -5.828004 44.026794
182 0 1 22.583124 -5.765641 43.556091
183 0 1 23.030527 -5.405652 44.332001
184 0 1 23.595926 -6.121453 44.756195
185 0 1 23.713228 -6.581063 43.951202
186 0 1 23.827028 -5.798612 43.401703
187 0 1 24.580225 -5.610532 44.044403
188 0 1 25.251226 -5.282252 44.644592
189 0 1 26.131029 -5.243712 45.042908
190 0 1 26.119226 -5.253743 46.015503
191 0 1 26.251226 -5.172883 46.942596
192 0 1 26.860426 -4.478871 46.754608
193 0 1 25.996225 -4.088822 46.520996
194 0 1 26.289026 -3.135122 46.379700
195 0 1 25.863924 -3.478372 45.638611
196 0 1 24.919230 -3.169353 45.326996
197 0 1 24.827227 -3.915433 45.919312
198 0 1 24.197725 -4.357202 45.339203
199 0 1 23.421328 -3.908273 44.955688
200 0 1 22.524324 -4.015773 44.679993
201 0 1 22.281027 -3.057582 44.774597
202 0 1 21.718027 -2.352903 45.114105
203 0 1 21.790224 -2.302812 44.218506
204 0 1 21.132326 -2.755754 43.690887
205 0 1 20.630926 -3.573753 43.771912
206 0 1 19.894827 -2.959413 43.698395
207 0 1 19.072927 -2.435514 43.876404
208 0 1 19.813726 -1.986922 44.330383
209 0 1 19.494726 -1.848792 45.209991
210 0 1 18.588926 -1.562232 44.828796
211 0 1 18.143827 -1.925853 43.972992
212 0 1 17.817827 -2.759294 44.426788
213 0 1 17.525328 -2.579463 45.361084
214 0 1 17.762529 -3.278423 45.957092
215 0 1 17.966524 -3.741813 45.083191
216 0 1 17.582327 -4.315213 44.385498
217 0 1 16.719828 -4.572022 44.674500
218 0 1 16.460127 -3.780832 44.116089
219 0 1 16.197329 -3.003352 44.726288
220 0 1 16.223127 -2.610273 43.799500
221 0 1 15.749125 -2.806894 43.010590
222 0 1 15.310228 -2.058812 43.574890
223 0 1 14.383326 -2.134643 43.506592
224 0 1 13.724627 -1.844043 44.125397
225 0 1 13.324129 -0.973283 44.226013
226 0 1 14.081827 -0.464582 44.523499
227 0 1 14.392126 -0.060462 45.298492
228 0 1 14.903326 0.742528 45.008087
229 0 1 14.224825 1.036448 44.458496
230 0 1 13.936426 1.941872 44.420990
231 0 1 13.077726 2.267464 44.362701
232 0 1 12.079027 2.162938 44.504913
233 0 1 11.992128 1.441411 43.844910
234 0 1 12.238329 0.806077 43.210693
235 0 1 12.244928 1.678470 42.869110
236 0 1 11.566626 2.332820 43.184204
237 0 1 10.653986 2.164471 42.923889
238 0 1 10.475695 1.530530 42.264404
239 0 1 9.601656 1.897000 42.426788
240 0 1 8.882776 2.363423 42.963196
241 0 1 9.617258 2.972768 42.946991
242 0 1 8.862608 3.422198 42.548096
243 0 1 8.311777 3.716498 41.859314
244 0 1 8.243158 2.794139 41.794189
245 0 1 7.767007 2.560647 41.000183
246 0 1 7.486185 1.718587 40.601807
247 0 1 6.481855 1.800368 40.546112
248 0 1 6.113737 1.637313 39.692017
249 0 1 6.168077 1.175828 38.814606
250 0 1 5.506998 0.926047 38.210510
251 0 1 4.982618 1.228497 37.422607
252 0 1 5.210256 0.411908 37.097290
253 0 1 4.257135 0.368867 37.408203
254 0 1 3.970685 0.710227 36.568390
255 0 1 4.665548 1.024527 36.028015
256 0 1 4.790864 1.907994 35.585510
257 0 1 5.086965 1.292157 34.832794
258 0 1 5.081758 2.246178 34.496887
259 0 1 4.224176 2.597016 34.009308
260 0 1 3.804655 2.964032 34.828796
261 0 1 3.414598 3.013657 35.681305
262 0 1 2.641397 2.525840 35.910309
263 0 1 1.880819 3.152583 35.718109
264 0 1 1.804313 3.999038 36.358490
265 0 1 2.739908 3.852566 36.484100
266 0 1 2.812875 3.658328 37.448792
267 0 1 3.175558 2.872702 37.922211
268 0 1 3.187757 3.091483 38.864594
269 0 1 4.036188 3.555638 38.941284
270 0 1 4.250795 4.285056 39.497406
271 0 1 4.647825 5.077796 39.854706
272 0 1 3.842927 5.555907 40.125397
273 0 1 3.205648 5.100978 39.608795
274 0 1 3.352445 4.491649 40.360199
275 0 1 2.500608 4.184489 40.249817
276 0 1 1.765523 3.692248 39.914795
277 0 1 1.479087 4.473147 40.448914
278 0 1 0.611629 3.975009 40.394196
279 0 1 0.344684 4.849437 40.753906
280 0 1 -0.371853 5.519496 40.608307
281 0 1 -0.073748 6.168139 41.213104
282 0 1 -0.102093 7.160598 41.208801
283 0 1 0.798202 6.955829 40.781006
284 0 1 1.709411 7.080195 40.429901
285 0 1 1.742969 7.364337 39.443390
286 0 1 2.286756 8.171458 39.604889
287 0 1 2.450025 8.951728 38.991608
288 0 1 3.417696 9.072017 38.947601
289 0 1 3.726488 9.096248 38.050812
290 0 1 3.851118 8.729308 37.138306
291 0 1 3.224535 9.335666 36.748596
292 0 1 2.266136 9.219737 36.679596
293 0 1 1.677797 8.480437 36.660583
294 0 1 2.475347 8.317916 36.196899
295 0 1 3.331888 8.028377 35.866699
296 0 1 3.713426 7.180049 36.328003
297 0 1 3.030855 6.535087 36.349701
298 0 1 2.783586 5.786597 35.798889
299 0 1 3.711885 5.718017 35.425903
300 0 1 4.175668 5.812377 34.609802
301 0 1 4.097528 6.046668 33.666687
302 0 1 3.234296 5.598926 33.576294
303 0 1 2.306016 5.419009 33.563110
304 0 1 2.176425 5.427749 34.532501
305 0 1 1.809473 6.301269 34.398895
306 0 1 1.175518 6.639747 33.747711
307 0 1 1.154531 7.448329 34.247711
308 0 1 2.096216 7.555079 34.400299
309 0 1 1.662580 8.076179 35.076111
310 0 1 1.147893 7.321036 35.344604
311 0 1 0.956970 6.506618 35.795197
312 0 1 0.516578 7.125007 36.359589
313 0 1 -0.125803 6.829387 36.960815
314 0 1 -0.343234 5.974437 36.539703
315 0 1 -0.080958 5.952899 35.507996
316 0 1 -0.014508 4.990508 35.768311
317 0 1 -0.276614 4.036357 35.557190
318 0 1 -0.245913 3.889056 34.618896
319 0 1 -0.831173 3.122023 34.728394
320 0 1 -1.234274 2.295102 34.464905
321 0 1 -1.494444 2.187854 35.399414
322 0 1 -2.202933 2.470616 35.977692
323 0 1 -3.192843 2.639949 35.916290
324 0 1 -3.831854 2.390078 35.127899
325 0 1 -4.353323 3.163254 35.478210
326 0 1 -3.839304 3.360717 34.660797
327 0 1 -4.247035 3.364867 33.807495
328 0 1 -4.897383 3.510888 33.155304
329 0 1 -5.180064 2.539695 33.145508
330 0 1 -5.985234 2.000445 32.931702
331 0 1 -6.425723 1.789191 32.079193
332 0 1 -7.202294 1.867110 32.648804
333 0 1 -7.128644 2.526309 33.445312
334 0 1 -6.512124 3.054524 32.964691
335 0 1 -6.366654 3.457556 32.070312
336 0 1 -7.065073 3.196126 31.498993
337 0 1 -7.413485 4.120547 31.767792
338 0 1 -7.021843 4.801627 32.277710
339 0 1 -6.852244 5.473376 31.528107
340 0 1 -5.942654 5.301337 31.933105
341 0 1 -4.972994 5.245608 31.562500
342 0 1 -4.680874 5.622016 30.763000
343 0 1 -4.042603 6.370799 30.915894
344 0 1 -3.617964 5.823867 30.146484
345 0 1 -2.734734 6.275908 30.115997
346 0 1 -2.516823 6.209407 29.122009
347 0 1 -2.941683 7.105918 29.247986
348 0 1 -2.145064 7.719039 29.161316
349 0 1 -1.301453 7.357398 29.522308
350 0 1 -0.559044 7.528228 30.146912
351 0 1 0.120138 8.209849 29.991302
352 0 1 0.940912 8.630816 29.723907
353 0 1 0.550211 9.446639 29.330292
354 0 1 0.116266 9.120929 28.528992
355 0 1 -0.791604 9.110709 28.953613
356 0 1 -1.571013 9.101638 29.469910
357 0 1 -2.239863 8.739596 30.049286
358 0 1 -2.960164 9.265128 29.640900
359 0 1 -3.333214 9.663539 28.904785
360 0 1 -2.866784 10.336528 28.349213
361 0 1 -2.005764 10.657348 28.109314
362 0 1 -1.679493 11.500239 28.181488
363 0 1 -1.168343 12.312099 27.873108
364 0 1 -1.631503 12.567737 27.050110
365 0 1 -2.100703 13.432635 26.766998
366 0 1 -1.294913 13.918338 26.655304
367 0 1 -0.905854 14.543635 26.054016
368 0 1 -1.350214 15.397838 25.821198
369 0 1 -2.178254 15.954238 25.821991
370 0 1 -2.004174 15.580935 24.951202
371 0 1 -2.296233 16.430136 24.691711
372 0 1 -2.846974 16.035738 23.988312
373 0 1 -3.472693 15.344337 24.259186
374 0 1 -3.167063 15.674537 25.113403
375 0 1 -3.757445 14.898540 25.179688
376 0 1 -4.061614 14.074538 24.809601
377 0 1 -3.357024 13.416240 24.777893
378 0 1 -3.891884 12.759437 24.383392
379 0 1 -3.706233 11.789760 24.235107
380 0 1 -3.852843 11.309588 25.028809
381 0 1 -4.372433 10.559695 25.231903
382 0 1 -3.618784 9.942397 25.187714
383 0 1 -3.380713 10.661746 25.750793
384 0 1 -2.419373 10.723258 25.786011
385 0 1 -2.336154 9.895347 25.119385
386 0 1 -2.837304 10.286117 24.480804
387 0 1 -3.151103 9.815879 23.713013
388 0 1 -3.330184 8.872996 23.608307
389 0 1 -2.862294 8.857287 22.763000
390 0 1 -2.704794 9.254798 21.913605
391 0 1 -1.877333 8.796409 21.838699
392 0 1 -1.736723 8.872718 20.805405
393 0 1 -0.981913 8.374549 21.204193
394 0 1 -0.492823 7.925979 20.542099
395 0 1 -0.493954 7.123408 19.962204
396 0 1 -1.317023 6.588908 20.110107
397 0 1 -1.901074 5.882369 19.961594
398 0 1 -1.834584 5.246608 20.714401
399 0 1 -1.416974 4.369136 20.783905
400 0 1 -1.109183 4.463519 21.721695
401 0 1 -1.988623 4.553157 22.188095
402 0 1 -2.682124 3.754866 22.201508
403 0 1 -3.019173 2.898982 22.279495
404 0 1 -2.842164 2.273038 23.079193
405 0 1 -2.245413 2.660630 23.712494
406 0 1 -1.506964 2.132603 23.557587
407 0 1 -1.994654 1.548518 24.194794
408 0 1 -2.500033 0.838248 24.662506
409 0 1 -2.759984 -0.015172 24.306305
410 0 1 -2.706044 -0.519223 25.154694
411 0 1 -3.330973 0.199357 25.480591
412 0 1 -4.165024 0.138518 25.895111
413 0 1 -4.679595 0.558778 26.571198
414 0 1 -5.300793 0.745988 27.378113
415 0 1 -6.018204 1.382773 27.511810
416 0 1 -6.272854 2.272876 27.591492
417 0 1 -6.640614 3.115124 27.382904
418 0 1 -6.671593 3.463328 26.439514
419 0 1 -6.596234 3.722907 25.524292
420 0 1 -6.863364 2.780158 25.472504
421 0 1 -7.093964 2.085059 24.792786
422 0 1 -7.616274 1.286378 24.735809
423 0 1 -8.218733 2.089408 24.963806
424 0 1 -8.708403 2.651587 25.529694
425 0 1 -8.761913 3.596617 25.588898
426 0 1 -9.591373 3.169089 25.307312
427 0 1 -10.180872 3.985129 25.119995
428 0 1 -10.627672 4.470496 25.757385
429 0 1 -10.021273 3.904677 26.260986
430 0 1 -10.056374 4.787559 26.775787
431 0 1 -10.725273 5.507796 26.833008
432 0 1 -10.020473 6.035728 26.502197
433 0 1 -10.052073 6.342917 25.514587
434 0 1 -10.533073 7.100509 25.196991
435 0 1 -9.604874 7.323958 25.000092
436 0 1 -9.181673 7.863139 25.732208
437 0 1 -9.625673 8.274516 26.490295
438 0 1 -10.513073 8.678996 26.285309
439 0 1 -10.462873 8.322356 27.178406
440 0 1 -9.983374 8.947177 27.772400
441 0 1 -9.540373 8.572448 28.577301
442 0 1 -9.688974 9.503379 28.884613
443 0 1 -9.843073 10.453166 29.118195
444 0 1 -10.365072 11.172175 29.486084
445 0 1 -11.183474 10.939448 29.871490
446 0 1 -11.865274 10.835139 30.491791
447 0 1 -12.220675 11.467856 29.878387
448 0 1 -12.306074 10.630889 29.418701
449 0 1 -13.083973 9.930049 29.305695
450 0 1 -12.725874 9.447177 28.509705
451 0 1 -13.067274 10.216807 28.104706
452 0 1 -13.768573 9.615417 27.843811
453 0 1 -13.923873 10.003829 27.000793
454 0 1 -14.350973 10.206279 26.193512
455 0 1 -14.852473 10.570388 25.352692
456 0 1 -15.822174 10.496177 25.396606
457 0 1 -16.503174 11.103847 25.211304
458 0 1 -16.590273 11.758616 24.486694
459 0 1 -16.331274 12.539237 23.850586
460 0 1 -15.714573 12.044448 23.280304
461 0 1 -15.050973 12.478137 22.814209
462 0 1 -15.368374 12.075046 21.984100
463 0 1 -14.519473 11.660907 21.929108
464 0 1 -14.913074 10.740088 21.953796
465 0 1 -15.441772 10.454078 21.177399
466 0 1 -14.763073 9.850856 20.776794
467 0 1 -15.014974 10.240809 19.899994
468 0 1 -14.423373 10.868217 19.551102
469 0 1 -13.527273 10.741939 19.796494
470 0 1 -13.495974 9.816237 19.555298
471 0 1 -14.215573 9.222396 19.514603
472 0 1 -13.676474 8.469829 19.309296
473 0 1 -12.794672 8.786296 19.070999
474 0 1 -12.915373 8.507346 18.162003
475 0 1 -12.596174 8.042926 17.349792
476 0 1 -12.009573 7.480018 17.013199
477 0 1 -11.586573 6.646377 16.870499
478 0 1 -10.836172 6.940219 17.400299
479 0 1 -10.138674 6.817737 16.764496
480 0 1 -10.891874 6.877818 16.158508
481 0 1 -10.198874 6.211627 15.882798
482 0 1 -9.330873 5.861579 15.571198
483 0 1 -9.084553 6.718036 15.882096
484 0 1 -8.127794 6.956527 15.961305
485 0 1 -7.929095 6.064937 15.704103
486 0 1 -7.106543 5.619079 16.004700
487 0 1 -7.574584 4.925849 16.512100
488 0 1 -8.409353 4.874648 16.117096
489 0 1 -8.239103 4.213328 16.875900
490 0 1 -8.949833 3.888686 17.439606
491 0 1 -8.381094 3.160853 17.668793
492 0 1 -8.548233 2.219737 17.679001
493 0 1 -9.327475 1.712758 17.959702
494 0 1 -9.487974 0.945788 18.619995
495 0 1 -9.786074 0.045626 18.265808
496 0 1 -8.898222 -0.207612 17.888702
497 0 1 -8.065693 -0.088042 17.608704
498 0 1 -8.304682 -1.026582 17.711395
499 0 1 -7.699744 -1.595273 17.205399
500 0 1 -8.243174 -2.058213 16.551804
501 0 1 -7.816992 -2.910053 16.361099
502 0 1 -7.570874 -3.558343 17.094894
503 0 1 -8.126713 -3.834403 16.342804
504 0 1 -8.637413 -4.505042 16.834000
505 0 1 -9.597174 -4.376742 16.872101
506 0 1 -10.000574 -4.918822 16.175995
507 0 1 -10.243473 -4.269223 15.559098
508 0 1 -11.116873 -4.761622 15.460603
509 0 1 -11.739973 -5.328671 15.899903
510 0 1 -12.642273 -4.990163 15.737397
511 0 1 -13.276472 -4.293403 15.762406
512 0 1 -12.281172 -4.055173 15.817597
513 0 1 -12.518072 -3.143232 15.585496
514 0 1 -12.511572 -2.729993 14.641297
515 0 1 -11.975073 -3.317392 14.129197
516 0 1 -11.928673 -2.706552 13.365296
517 0 1 -12.746374 -2.974042 12.763398
518 0 1 -12.385473 -2.832433 11.927796
519 0 1 -13.245373 -2.625392 11.537599
520 0 1 -14.171574 -2.801824 11.218995
521 0 1 -14.879573 -3.475112 11.591096
522 0 1 -15.044973 -4.419593 11.630708
523 0 1 -14.906573 -5.335912 11.342500
524 0 1 -15.091574 -5.741143 10.471604
525 0 1 -14.297473 -6.124103 10.900208
526 0 1 -14.076074 -7.025884 11.195298
527 0 1 -13.568373 -7.748363 11.081498
528 0 1 -13.822574 -7.914163 10.198197
529 0 1 -12.863573 -7.934262 10.008302
530 0 1 -12.313974 -7.336593 10.614305
531 0 1 -12.044073 -7.115033 9.726365
532 0 1 -12.426474 -6.964772 8.884187
533 0 1 -12.857773 -6.609761 8.159623
534 0 1 -13.836373 -6.878432 8.267015
535 0 1 -14.646873 -6.369523 8.005647
536 0 1 -14.917274 -5.805741 8.784242
537 0 1 -14.992273 -4.801171 9.213227
538 0 1 -14.229573 -4.343053 8.870591
539 0 1 -13.982373 -4.937072 9.642274
540 0 1 -14.229074 -4.105952 10.011201
541 0 1 -14.960273 -3.791673 10.566499
542 0 1 -15.023473 -3.130834 9.824555
543 0 1 -15.559473 -2.931533 10.630403
544 0 1 -15.668673 -2.691194 11.615006
545 0 1 -16.390574 -2.345292 12.066407
546 0 1 -15.952173 -2.060043 12.970704
547 0 1 -15.337072 -1.295543 12.833299
548 0 1 -15.582573 -1.094472 11.924409
549 0 1 -15.971073 -0.933602 11.033204
550 0 1 -16.665672 -1.645372 11.032899
551 0 1 -16.564873 -2.566123 10.760804
552 0 1 -16.463974 -3.523423 10.509095
553 0 1 -16.774973 -3.689542 9.643556
554 0 1 -16.268272 -4.330003 9.123429
555 0 1 -15.720774 -4.644452 8.424302
556 0 1 -15.678473 -4.354573 7.484666
557 0 1 -15.036473 -3.786662 7.746736
558 0 1 -14.142673 -3.493833 7.684999
559 0 1 -13.743673 -4.045012 7.031739
560 0 1 -13.069973 -4.693643 6.795655
561 0 1 -12.679773 -5.430142 6.392838
562 0 1 -13.390272 -5.853023 5.903108
563 0 1 -12.972174 -5.281882 5.295487
564 0 1 -13.646274 -5.379434 4.699800
565 0 1 -13.098673 -5.839442 4.021638
566 0 1 -12.689573 -6.677484 4.013108
567 0 1 -12.192274 -7.511743 3.722215
568 0 1 -11.594275 -8.256661 3.970674
569 0 1 -12.280474 -8.481263 3.316789
570 0 1 -11.814074 -9.317262 3.344956
571 0 1 -12.006372 -10.075763 2.878449
572 0 1 -11.780573 -11.080564 2.796494
573 0 1 -11.373274 -11.636762 3.446122
574 0 1 -12.071774 -12.254263 3.207002
575 0 1 -12.292574 -11.976064 4.117311
576 0 1 -11.374073 -12.379963 4.186448
577 0 1 -10.470072 -12.569463 4.585206
578 0 1 -10.182074 -13.480762 4.450318
579 0 1 -9.203272 -13.356362 4.356568
580 0 1 -9.499573 -13.443663 5.237138
581 0 1 -9.087275 -12.555662 5.383317
582 0 1 -9.979574 -12.324862 5.548951
583 0 1 -9.595072 -12.256863 6.410996
584 0 1 -8.964014 -11.507463 6.101060
585 0 1 -9.147873 -10.567964 6.072724
586 0 1 -9.045362 -9.909062 5.386491
587 0 1 -8.678123 -9.092263 5.693345
588 0 1 -8.547503 -8.883763 4.814927
589 0 1 -8.920753 -8.035562 5.085298
590 0 1 -9.799873 -7.661563 4.868043
591 0 1 -10.553274 -7.853362 5.432923
592 0 1 -10.664972 -8.724362 5.054307
593 0 1 -11.528273 -9.107862 4.942918
594 0 1 -11.153074 -9.694062 5.616044
595 0 1 -11.073473 -9.949662 6.596498
596 0 1 -11.445673 -10.091863 7.424211
597 0 1 -11.111372 -10.288762 8.340318
598 0 1 -10.975172 -11.187161 8.155442
599 0 1 -10.784372 -11.489362 9.110230
600 0 1 -10.358673 -12.346462 9.253648
601 0 1 -9.686974 -12.956162 9.617448
602 0 1 -9.239374 -13.548062 9.053544
603 0 1 -9.051933 -13.159062 8.219010
604 0 1 -8.120962 -12.811362 8.093904
605 0 1 -7.821463 -13.350363 8.785691
606 0 1 -8.141264 -13.329863 9.768952
607 0 1 -7.968153 -12.461062 10.195100
608 0 1 -7.057374 -12.827063 10.045899
609 0 1 -6.415684 -12.260862 9.609483
610 0 1 -5.628544 -12.779862 9.738511
611 0 1 -4.817923 -13.323162 9.619340
612 0 1 -4.537484 -13.217663 8.692521
613 0 1 -3.953734 -13.825263 8.254487
614 0 1 -3.488204 -13.686862 7.415833
615 0 1 -2.938593 -14.434363 7.777726
616 0 1 -2.643023 -15.221763 7.201478
617 0 1 -2.631283 -16.089163 6.848115
618 0 1 -1.867545 -15.676862 6.437348
619 0 1 -1.574374 -15.623162 5.549882
620 0 1 -1.751944 -16.523964 5.413484
621 0 1 -1.443264 -17.101763 6.053788
622 0 1 -1.790614 -17.872763 6.512345
623 0 1 -2.006653 -18.251564 7.386567
624 0 1 -2.399165 -17.377264 7.361924
625 0 1 -1.462864 -17.337463 7.302323
626 0 1 -0.864403 -17.936764 7.807145
627 0 1 -0.178204 -18.613564 8.208253
628 0 1 -0.022906 -17.709963 8.557176
629 0 1 -0.233654 -16.943764 8.082368
630 0 1 0.713361 -16.576063 8.188050
631 0 1 1.101219 -16.818363 7.389268
632 0 1 1.719034 -16.373564 6.739076
633 0 1 2.251256 -16.984663 7.211854
634 0 1 3.150938 -16.630663 7.207795
635 0 1 3.490808 -15.759162 7.539674
636 0 1 4.476705 -15.656362 7.633088
637 0 1 5.086416 -15.405063 6.947404
638 0 1 5.803415 -15.149362 6.274049
639 0 1 6.440385 -14.460563 6.222001
640 0 1 6.722166 -14.039262 7.119416
641 0 1 7.517896 -14.591563 7.252625
642 0 1 7.446805 -14.724263 6.193528
643 0 1 7.768205 -14.265462 5.413407
644 0 1 8.701918 -13.982062 5.700593
645 0 1 9.634508 -14.173963 5.772523
646 0 1 9.647348 -14.768062 5.025453
647 0 1 10.386415 -15.308562 5.346559
648 0 1 11.282728 -15.462663 5.378037
649 0 1 12.047129 -14.969163 5.637834
650 0 1 12.394526 -14.285962 5.023408
651 0 1 13.345526 -14.586862 4.752488
652 0 1 13.877726 -15.425763 4.904359
653 0 1 13.610926 -15.395062 3.972703
654 0 1 14.499426 -15.548463 4.043214
655 0 1 15.392027 -15.429563 3.956727
656 0 1 16.120428 -15.635362 3.391648
657 0 1 15.781027 -15.202462 2.584794
658 0 1 15.159925 -14.853662 3.168031
659 0 1 14.698828 -14.033462 3.409745
660 0 1 14.222025 -13.986363 2.576524
661 0 1 13.398626 -14.109263 2.127213
662 0 1 12.488726 -13.794362 1.866975
663 0 1 11.739126 -14.357263 2.088075
664 0 1 11.194128 -13.724862 2.624024
665 0 1 10.370428 -14.083362 2.335481
666 0 1 10.913126 -14.031863 1.486298
667 0 1 11.583727 -14.058162 0.734254
668 0 1 12.428125 -14.262063 0.314774
669 0 1 13.049726 -14.716462 0.805711
670 0 1 13.755327 -14.142062 0.698075
671 0 1 13.963427 -14.888062 0.129579
672 0 1 13.421526 -15.624562 0.376222
673 0 1 13.528025 -16.461964 0.873414
674 0 1 12.820726 -16.795864 0.246247
675 0 1 13.427828 -16.675863 -0.547103
676 0 1 14.470827 -16.720463 -0.723067
677 0 1 15.126528 -17.433064 -0.894622
678 0 1 16.013727 -17.816563 -1.041213
679 0 1 16.230528 -17.064564 -1.546783
680 0 1 16.006227 -16.898764 -2.482116
681 0 1 16.037626 -17.101864 -3.469680
682 0 1 16.780527 -17.545763 -3.089004
683 0 1 17.318026 -17.288864 -3.840346
684 0 1 18.256327 -17.104864 -3.766952
685 0 1 18.033129 -16.424564 -4.479064
686 0 1 17.270128 -15.865062 -4.514617
687 0 1 17.507929 -15.174262 -3.946105
688 0 1 16.896929 -14.410262 -3.972213
689 0 1 16.465826 -13.701362 -3.415435
690 0 1 17.260225 -13.988862 -2.998992
691 0 1 17.370226 -13.182762 -2.390059
692 0 1 16.938425 -12.812363 -3.226363
693 0 1 17.098024 -11.851962 -3.251433
694 0 1 16.365126 -12.030963 -2.576705
695 0 1 16.789927 -12.524762 -1.889266
696 0 1 17.582228 -12.454062 -1.331084
697 0 1 17.006727 -13.113462 -0.966949
698 0 1 16.249529 -13.149762 -0.471953
699 0 1 15.782427 -12.661563 0.231675
700 0 1 15.008425 -12.469163 0.790315
701 0 1 14.155626 -12.497063 0.378983
702 0 1 13.421827 -12.138562 0.925828
703 0 1 12.907228 -11.486863 0.633943
704 0 1 13.282125 -10.755363 0.180680
705 0 1 14.030226 -10.338363 -0.325622
706 0 1 14.760626 -10.608762 0.249146
707 0 1 15.678225 -10.559262 -0.011443
708 0 1 16.413225 -10.713162 -0.659118
709 0 1 16.539328 -10.070363 0.101731
710 0 1 17.373529 -9.752263 0.584870
711 0 1 18.014727 -9.911862 1.246110
712 0 1 19.010630 -9.811563 1.251603
713 0 1 19.872026 -9.478662 1.081178
714 0 1 20.787729 -9.312963 0.716172
715 0 1 20.950930 -8.908963 1.595033
716 0 1 21.754427 -8.918363 1.104737
717 0 1 21.255526 -8.256763 0.588670
718 0 1 20.378927 -7.804963 0.271455
719 0 1 20.177526 -7.136971 0.974763
720 0 1 21.103029 -6.878533 1.048585
721 0 1 21.016726 -6.350541 0.295457
722 0 1 21.583727 -5.625802 0.207154
723 0 1 21.933725 -5.704152 -0.709594
724 0 1 22.529825 -6.490582 -0.809753
725 0 1 21.888025 -7.070111 -1.120116
726 0 1 21.867624 -8.038062 -1.118819
727 0 1 21.397829 -8.396262 -1.919982
728 0 1 20.885427 -7.838862 -2.514022
729 0 1 20.066427 -7.492263 -2.798507
730 0 1 19.816729 -8.340962 -3.081985
731 0 1 18.904924 -8.527661 -3.466216
732 0 1 18.596125 -8.176963 -4.308105
733 0 1 17.933928 -7.885962 -4.908874
734 0 1 18.066027 -7.440904 -5.726699
735 0 1 18.769526 -6.898084 -6.025878
736 0 1 19.011225 -6.955743 -6.958846
737 0 1 19.459528 -6.238744 -7.419372
738 0 1 20.113924 -6.736573 -6.985732
739 0 1 19.981527 -6.140233 -6.238036
740 0 1 20.359529 -7.072392 -6.015731
741 0 1 21.162325 -7.655362 -6.198333
742 0 1 21.432329 -7.532502 -7.137374
743 0 1 21.789427 -6.617103 -7.148208
744 0 1 21.898527 -5.642774 -7.320037
745 0 1 21.544725 -4.917262 -7.814895
746 0 1 21.803026 -4.622592 -6.970717
747 0 1 20.896524 -4.713862 -6.690383
748 0 1 21.426325 -4.275153 -6.005813
749 0 1 21.167429 -3.566072 -6.602508
750 0 1 21.529226 -3.556024 -7.510406
751 0 1 22.219126 -3.347842 -8.137862
752 0 1 22.639826 -2.996543 -8.865157
753 0 1 23.375025 -3.259122 -8.307418
754 0 1 24.130426 -2.920043 -7.763457
755 0 1 24.043627 -2.044862 -8.083343
756 0 1 24.171526 -1.852193 -9.002685
757 0 1 24.814829 -1.173173 -8.987716
758 0 1 25.478930 -0.552352 -8.712890
759 0 1 24.732325 -0.080053 -8.400207
760 0 1 24.549028 -0.871173 -7.834517
761 0 1 23.786127 -0.960893 -8.381637
762 0 1 22.755526 -0.760123 -8.330626
763 0 1 22.971628 -1.530322 -7.715453
764 0 1 22.548128 -1.095964 -6.913116
765 0 1 22.504526 -0.272653 -7.353499
766 0 1 22.244127 0.600457 -7.023910
767 0 1 21.962725 1.304047 -6.422500
768 0 1 21.472727 0.683158 -5.790282
769 0 1 22.389128 0.657218 -5.404723
770 0 1 22.290125 1.603854 -5.378600
771 0 1 23.103228 2.095122 -5.680129
772 0 1 23.141726 2.637933 -6.486602
773 0 1 23.328226 2.209313 -7.391662
774 0 1 22.653025 1.824984 -7.963073
775 0 1 22.559126 1.448485 -8.864181
776 0 1 21.716928 1.368325 -9.344863
777 0 1 21.206827 1.332377 -8.597381
778 0 1 20.813425 2.136103 -8.922454
779 0 1 20.493029 3.041667 -9.070357
780 0 1 20.120928 3.947139 -8.985717
781 0 1 19.469927 4.206607 -9.650405
782 0 1 19.472025 5.053359 -10.058501
783 0 1 18.546129 5.221118 -9.984313
784 0 1 18.768328 6.030128 -9.657851
785 0 1 18.831125 6.312236 -10.598800
786 0 1 19.330927 7.078609 -10.149291
787 0 1 20.040926 7.073768 -10.906295