LAMMPS data file via MDAnalysis

        2000  atoms
        1999  bonds
           0  angles
           0  dihedrals
           0  impropers

           1  atom types
           1  bond types
           0  angle types
           0  dihedral types
           0  improper types

-30.5 30.5 xlo xhi
-30.5 30.5 ylo yhi
-233.5 233.5 zlo zhi


Masses

1 1.000000

Atoms

1 0 1 -10.294166 -10.529273 10.939102
2 0 1 -9.599067 -10.147975 10.355804
3 0 1 -9.593236 -9.295375 10.935608
4 0 1 -9.677026 -8.833774 11.815796
5 0 1 -8.928725 -8.159074 11.824295
6 0 1 -8.236285 -8.278373 11.130493
7 0 1 -8.395785 -7.345855 10.875107
8 0 1 -8.410605 -6.413434 11.255005
9 0 1 -8.164996 -6.613593 12.154694
10 0 1 -7.707138 -7.059833 12.904800
11 0 1 -7.789487 -6.063724 12.887207
12 0 1 -7.773637 -5.211204 13.345703
13 0 1 -7.943376 -4.276534 13.187805
14 0 1 -8.025836 -3.360343 13.016403
15 0 1 -7.235406 -3.172454 13.408997
16 0 1 -7.102937 -2.281585 12.985001
17 0 1 -6.890626 -1.626223 12.256302
18 0 1 -6.794986 -0.764153 11.747192
19 0 1 -7.459207 -0.048055 11.468994
20 0 1 -8.198796 0.325875 11.973602
21 0 1 -9.019176 0.910276 11.947495
22 0 1 -8.365466 1.526407 12.361908
23 0 1 -9.021266 1.980035 12.871506
24 0 1 -9.579566 1.823110 13.653503
25 0 1 -9.880736 2.721568 13.865906
26 0 1 -9.198047 3.422818 14.043594
27 0 1 -8.434337 2.841708 14.173904
28 0 1 -8.725396 2.032148 14.549698
29 0 1 -8.975547 2.613818 15.241104
30 0 1 -8.468047 3.383319 15.240295
31 0 1 -7.747396 3.777776 14.778595
32 0 1 -7.759397 4.394135 14.033493
33 0 1 -7.316267 5.126607 13.430695
34 0 1 -6.891437 5.660096 14.105606
35 0 1 -6.507286 5.279565 14.969803
36 0 1 -5.730217 4.923825 14.423004
37 0 1 -5.636356 4.370767 15.132507
38 0 1 -5.290496 5.253545 15.459000
39 0 1 -5.929386 4.914426 16.098495
40 0 1 -5.484096 5.692395 16.407501
41 0 1 -6.015256 6.514928 16.308395
42 0 1 -6.403697 6.860257 15.495193
43 0 1 -7.083557 6.244645 15.699005
44 0 1 -8.023986 6.439958 15.756897
45 0 1 -8.329106 6.167424 16.573395
46 0 1 -8.798285 5.966146 17.426697
47 0 1 -8.054267 6.534287 17.851105
48 0 1 -8.487845 7.346288 18.399994
49 0 1 -7.672187 7.024796 18.852905
50 0 1 -8.030496 7.661916 19.494507
51 0 1 -7.900747 8.246575 20.231506
52 0 1 -7.883117 9.216084 20.337097
53 0 1 -7.337686 9.765454 19.768295
54 0 1 -6.864027 10.563298 20.211899
55 0 1 -6.742717 10.715356 21.144394
56 0 1 -6.887746 10.397046 22.040009
57 0 1 -6.016746 9.934026 21.974594
58 0 1 -5.169296 10.238645 22.466797
59 0 1 -4.483196 9.626985 22.795197
60 0 1 -5.261907 9.151807 23.248688
61 0 1 -6.110546 9.541337 23.382904
62 0 1 -6.347337 8.980428 24.085114
63 0 1 -6.911487 8.799996 23.263092
64 0 1 -7.912687 8.762868 23.432098
65 0 1 -8.035226 9.714925 23.635895
66 0 1 -7.697277 10.634877 23.580292
67 0 1 -7.601926 11.615266 23.577393
68 0 1 -7.364006 12.336858 22.990814
69 0 1 -7.336687 12.966626 22.192902
70 0 1 -8.122687 12.580125 21.888702
71 0 1 -8.528987 13.414227 22.221497
72 0 1 -7.831747 14.056424 22.416000
73 0 1 -8.262567 14.293626 23.236786
74 0 1 -9.112716 14.706525 23.467010
75 0 1 -8.724456 14.897027 24.354095
76 0 1 -9.504386 15.520425 24.625305
77 0 1 -9.641576 15.952027 23.770996
78 0 1 -10.478116 16.468626 23.695801
79 0 1 -10.603806 15.623925 24.028412
80 0 1 -11.074697 14.829026 24.081604
81 0 1 -12.014846 14.880727 24.275391
82 0 1 -12.403827 15.633824 24.811798
83 0 1 -13.205926 15.097325 25.086304
84 0 1 -13.408725 14.848424 24.170593
85 0 1 -13.602527 14.256726 23.412689
86 0 1 -14.408126 14.593827 23.122009
87 0 1 -14.467126 15.030324 24.005005
88 0 1 -15.085326 15.380727 24.663513
89 0 1 -15.318526 16.009527 25.368500
90 0 1 -14.673125 15.652425 26.122986
91 0 1 -15.098126 15.303624 26.957489
92 0 1 -14.811727 14.371625 27.181000
93 0 1 -14.960925 13.431226 27.164490
94 0 1 -15.329226 13.202825 28.047607
95 0 1 -15.814126 12.603124 28.672913
96 0 1 -16.474426 11.939256 28.455109
97 0 1 -17.354527 12.145097 28.725586
98 0 1 -17.876827 11.953084 27.917297
99 0 1 -18.546227 11.795995 28.579590
100 0 1 -18.474327 12.301778 29.398315
101 0 1 -19.391827 12.632726 29.559387
102 0 1 -19.203028 13.201924 30.278015
103 0 1 -19.011726 13.358724 31.253906
104 0 1 -19.665228 12.685525 31.269714
105 0 1 -19.140627 12.293797 30.668701
106 0 1 -19.357527 11.443578 30.494812
107 0 1 -19.821028 10.679875 30.916199
108 0 1 -20.401928 11.353894 30.999298
109 0 1 -20.461327 10.930554 30.102112
110 0 1 -21.449627 10.773534 30.109192
111 0 1 -21.836428 10.298165 29.399292
112 0 1 -22.554928 10.925225 29.232788
113 0 1 -22.814528 11.872098 29.142487
114 0 1 -23.588827 11.631825 28.497986
115 0 1 -23.898827 11.254384 27.605499
116 0 1 -23.063427 10.981664 27.263000
117 0 1 -22.729628 10.207788 26.825806
118 0 1 -22.093126 9.573155 27.182495
119 0 1 -22.562527 8.893285 26.663788
120 0 1 -21.698627 8.381806 26.771393
121 0 1 -22.067627 8.007035 27.590515
122 0 1 -22.970728 7.984086 27.920013
123 0 1 -23.525927 7.212785 28.093292
124 0 1 -23.219727 7.470426 28.961487
125 0 1 -23.401327 8.349515 29.295502
126 0 1 -23.024628 9.128785 29.589600
127 0 1 -23.550827 9.438455 30.361908
128 0 1 -24.398127 9.182187 30.711792
129 0 1 -25.078426 9.815465 30.899109
130 0 1 -25.704927 10.088735 30.230194
131 0 1 -26.357126 10.329595 29.556305
132 0 1 -26.750128 9.585637 29.043793
133 0 1 -27.114826 8.880197 29.558990
134 0 1 -27.229128 8.210114 28.976593
135 0 1 -27.582527 7.745145 29.751587
136 0 1 -26.763027 7.267488 29.881195
137 0 1 -27.190428 6.577355 29.245087
138 0 1 -27.644827 6.158265 29.996399
139 0 1 -27.817728 5.496327 30.733704
140 0 1 -27.461727 4.901578 31.441406
141 0 1 -27.042128 5.639424 31.797913
142 0 1 -26.917328 5.415986 32.700195
143 0 1 -26.023626 5.090238 32.869598
144 0 1 -26.668028 4.396447 32.949402
145 0 1 -26.479128 3.583417 33.381287
146 0 1 -25.563828 3.533550 32.997498
147 0 1 -25.285627 2.664525 33.239105
148 0 1 -24.496927 2.142064 33.143097
149 0 1 -24.789528 1.653873 32.438293
150 0 1 -24.182228 1.710841 31.719116
151 0 1 -24.168827 1.178706 30.882202
152 0 1 -23.308826 0.674066 30.737915
153 0 1 -23.843527 0.228126 30.097992
154 0 1 -23.015728 0.033076 29.641998
155 0 1 -23.352226 0.290677 28.817413
156 0 1 -24.214727 -0.155753 28.846497
157 0 1 -24.945528 0.443786 29.110992
158 0 1 -25.036728 0.354257 28.174500
159 0 1 -25.846928 -0.119035 28.427094
160 0 1 -26.718227 -0.232135 28.037415
161 0 1 -27.484627 0.319726 27.884186
162 0 1 -27.649828 -0.052384 28.680603
163 0 1 -28.397926 -0.628295 28.337708
164 0 1 -28.252827 -1.151093 27.482391
165 0 1 -27.810528 -1.953814 27.300903
166 0 1 -27.952026 -1.935454 26.393005
167 0 1 -27.883728 -1.763713 25.375000
168 0 1 -28.207626 -2.399153 24.708313
169 0 1 -27.786028 -3.135884 25.274597
170 0 1 -27.137228 -3.786235 25.688507
171 0 1 -26.646927 -2.956893 25.820007
172 0 1 -26.066128 -2.815293 25.034302
173 0 1 -26.317327 -2.622283 24.062012
174 0 1 -25.969128 -1.788993 24.413300
175 0 1 -25.563627 -1.019913 24.817993
176 0 1 -26.026627 -0.272843 24.438599
177 0 1 -25.780827 -0.172734 23.548187
178 0 1 -26.429928 0.283796 23.065491
179 0 1 -26.540327 -0.524434 22.588989
180 0 1 -26.372927 -1.367564 23.068909
181 0 1 -25.405626 -1.740283 22.812592
182 0 1 -25.098927 -2.618924 22.993011
183 0 1 -25.063427 -3.536544 23.335999
184 0 1 -25.792526 -3.491164 22.665894
185 0 1 -26.571228 -3.450364 23.244995
186 0 1 -27.494028 -3.358603 23.547791
187 0 1 -28.264727 -3.243304 24.084808
188 0 1 -28.505827 -3.523394 23.195190
189 0 1 -28.018726 -2.892413 22.696411
190 0 1 -28.027126 -2.642564 21.766403
191 0 1 -27.249826 -3.175614 21.907104
192 0 1 -27.002527 -3.734984 21.111908
193 0 1 -26.612726 -2.857474 20.919098
194 0 1 -25.942127 -2.164744 20.988602
195 0 1 -25.081226 -1.680924 20.945099
196 0 1 -24.928328 -1.439814 21.926895
197 0 1 -24.305527 -2.018344 22.362198
198 0 1 -23.764227 -1.466273 22.990692
199 0 1 -23.557028 -0.533334 22.765198
200 0 1 -23.017628 -0.642453 23.535492
201 0 1 -22.779327 0.092456 22.964111
202 0 1 -22.500027 0.855867 23.481903
203 0 1 -22.303827 0.891286 24.416016
204 0 1 -22.448128 1.537967 25.062592
205 0 1 -22.712227 1.144185 25.884491
206 0 1 -22.167427 1.072686 26.612396
207 0 1 -22.099928 1.302575 27.568115
208 0 1 -21.687227 2.024957 27.030212
209 0 1 -21.020027 1.497867 26.605011
210 0 1 -20.668827 0.755067 27.119507
211 0 1 -20.187828 0.422876 27.855286
212 0 1 -19.811827 0.991037 28.558716
213 0 1 -19.424227 1.918597 28.535614
214 0 1 -20.054028 2.611823 28.265686
215 0 1 -19.606627 3.488666 28.149292
216 0 1 -18.852028 3.353486 27.559998
217 0 1 -17.792927 3.197021 27.685089
218 0 1 -17.505926 3.877286 28.350189
219 0 1 -17.543528 3.013416 28.732605
220 0 1 -16.655127 3.069015 29.082306
221 0 1 -15.985026 3.119844 29.819214
222 0 1 -16.297028 2.193538 29.949707
223 0 1 -15.929626 2.499067 30.817993
224 0 1 -16.228828 2.982660 31.571289
225 0 1 -15.319427 2.725133 31.773499
226 0 1 -15.094028 1.864297 32.013702
227 0 1 -15.909526 1.777541 31.515289
228 0 1 -15.524926 1.081186 30.960907
229 0 1 -14.659427 0.665376 30.694092
230 0 1 -13.953425 1.245937 30.507690
231 0 1 -13.084826 1.638374 30.653015
232 0 1 -13.261827 2.120088 29.851105
233 0 1 -12.903728 2.992858 29.643799
234 0 1 -12.346026 3.601657 29.191284
235 0 1 -12.727427 4.386125 28.901398
236 0 1 -12.504827 4.815907 29.684113
237 0 1 -12.528525 5.781575 29.789093
238 0 1 -11.499896 5.522546 29.454590
239 0 1 -11.360587 5.978787 30.249084
240 0 1 -10.935126 6.270726 31.054688
241 0 1 -11.046855 7.054788 31.625702
242 0 1 -10.584247 7.662137 32.151001
243 0 1 -11.103168 8.442697 32.405304
244 0 1 -11.823356 8.117787 32.906403
245 0 1 -11.526706 7.579988 33.589508
246 0 1 -10.926187 6.921315 33.240387
247 0 1 -11.217395 6.676827 34.133606
248 0 1 -11.013045 5.800084 34.486908
249 0 1 -11.625525 5.379148 35.009613
250 0 1 -12.188226 4.586698 34.938812
251 0 1 -11.399026 3.908937 34.787506
252 0 1 -10.487685 3.667896 34.906189
253 0 1 -10.824386 3.764365 35.811707
254 0 1 -11.338536 3.644136 36.678009
255 0 1 -12.071227 3.735017 35.981903
256 0 1 -13.062125 3.592696 36.048889
257 0 1 -12.640227 3.323671 36.877808
258 0 1 -12.044526 3.615907 37.586395
259 0 1 -11.547996 3.505719 38.382599
260 0 1 -10.737956 4.012366 38.686890
261 0 1 -10.583646 3.599706 39.535004
262 0 1 -9.877027 3.242110 40.071411
263 0 1 -9.128146 2.588212 40.286102
264 0 1 -9.386416 1.744640 40.807892
265 0 1 -9.059396 1.587194 39.917206
266 0 1 -8.300197 1.160196 39.503693
267 0 1 -8.930097 0.400445 39.432800
268 0 1 -9.855876 0.313247 39.730103
269 0 1 -10.604396 0.030585 40.168793
270 0 1 -10.978436 0.218995 41.015686
271 0 1 -11.150886 1.035457 41.508087
272 0 1 -11.660426 0.592536 42.183716
273 0 1 -12.328227 0.316976 41.484894
274 0 1 -12.633727 0.911475 40.744110
275 0 1 -12.714927 1.846265 40.624603
276 0 1 -13.064527 2.220762 39.835388
277 0 1 -12.212825 1.761449 39.559601
278 0 1 -12.734725 1.930551 38.793396
279 0 1 -12.497725 1.152246 38.200500
280 0 1 -12.137927 2.022706 37.959808
281 0 1 -12.003615 1.556846 37.100891
282 0 1 -11.483565 1.474366 36.272003
283 0 1 -10.572446 1.586805 36.442902
284 0 1 -10.530555 0.784826 35.934998
285 0 1 -9.698136 0.987237 35.576813
286 0 1 -9.307597 0.368867 34.876007
287 0 1 -8.481296 0.780486 34.613007
288 0 1 -8.518037 0.515065 35.574310
289 0 1 -8.560916 -0.409974 35.712097
290 0 1 -7.918647 -0.646323 35.092804
291 0 1 -7.382778 -1.392163 35.081512
292 0 1 -7.674377 -2.184424 34.586700
293 0 1 -7.961338 -2.278083 33.672699
294 0 1 -7.639038 -1.396304 33.785583
295 0 1 -8.452016 -0.937804 34.039795
296 0 1 -8.218146 -0.666533 33.149689
297 0 1 -7.387277 -0.441644 33.641205
298 0 1 -6.898117 -0.330245 34.484192
299 0 1 -6.234357 -0.741935 35.126190
300 0 1 -5.767427 -0.409304 35.970093
301 0 1 -5.909076 0.458707 36.486511
302 0 1 -5.901866 1.331416 36.055115
303 0 1 -5.383068 1.538877 36.855804
304 0 1 -4.808736 1.733613 37.682495
305 0 1 -4.159477 1.990981 38.411499
306 0 1 -3.214175 1.895078 38.742310
307 0 1 -2.369760 1.792670 39.271393
308 0 1 -2.391481 1.323606 40.094116
309 0 1 -2.109725 1.318326 41.053009
310 0 1 -2.930455 1.036876 41.402313
311 0 1 -3.847936 1.024736 41.718597
312 0 1 -4.751497 0.930467 41.307495
313 0 1 -4.485446 1.357696 40.488892
314 0 1 -4.276718 0.472776 40.275696
315 0 1 -3.747867 -0.317723 40.129517
316 0 1 -3.806957 -0.399665 41.046692
317 0 1 -3.318666 -1.237773 41.157715
318 0 1 -2.405271 -1.172953 41.617096
319 0 1 -1.515293 -0.806825 41.870605
320 0 1 -1.002996 -1.625193 42.092407
321 0 1 -1.776769 -2.179093 42.117401
322 0 1 -1.007017 -2.664695 41.844696
323 0 1 -0.549276 -3.514983 41.761688
324 0 1 -1.131004 -4.114924 42.269104
325 0 1 -0.594257 -3.628884 42.991608
326 0 1 -0.370128 -4.009725 43.895111
327 0 1 -0.049938 -3.568034 44.675690
328 0 1 -0.162746 -2.648574 44.362000
329 0 1 -0.823476 -1.921834 44.147003
330 0 1 -0.853147 -1.206645 44.863403
331 0 1 -0.688606 -0.758794 45.744812
332 0 1 -0.656717 -1.677745 45.939392
333 0 1 -0.869907 -2.094523 46.740692
334 0 1 -0.956947 -2.190314 47.682190
335 0 1 -0.166187 -2.706034 47.677094
336 0 1 0.145795 -2.510274 48.520996
337 0 1 -0.556547 -3.112334 48.796295
338 0 1 -1.379541 -3.310494 48.332092
339 0 1 -0.713447 -3.798995 47.846405
340 0 1 -1.136272 -4.438914 48.402313
341 0 1 -1.928026 -4.737075 47.869507
342 0 1 -2.196002 -4.681575 46.980194
343 0 1 -2.574052 -3.807624 47.238312
344 0 1 -3.175946 -4.340505 46.659607
345 0 1 -3.349187 -5.338473 46.602417
346 0 1 -3.319246 -6.060794 47.351898
347 0 1 -3.941646 -6.799764 47.378998
348 0 1 -4.578506 -6.058854 47.252014
349 0 1 -4.490427 -6.562743 46.480896
350 0 1 -3.895536 -6.039104 45.943390
351 0 1 -3.812757 -5.509454 45.185608
352 0 1 -4.358087 -5.589175 44.432495
353 0 1 -4.676246 -5.758403 43.465393
354 0 1 -4.177337 -6.518924 43.818909
355 0 1 -3.508907 -6.550635 43.111908
356 0 1 -3.307977 -7.533074 43.009308
357 0 1 -3.711686 -7.757075 42.184814
358 0 1 -3.972446 -7.609174 41.263000
359 0 1 -4.347618 -8.032573 40.545898
360 0 1 -3.686946 -7.721774 39.864899
361 0 1 -3.546136 -6.796805 40.156616
362 0 1 -2.607736 -6.748843 40.084290
363 0 1 -1.793018 -7.022105 40.540497
364 0 1 -1.665323 -7.240565 41.414795
365 0 1 -0.982856 -7.813273 41.104889
366 0 1 -1.055721 -8.527474 40.510315
367 0 1 -1.505447 -8.992274 39.800110
368 0 1 -2.137637 -8.512675 39.278503
369 0 1 -2.575942 -7.794475 39.806793
370 0 1 -3.079576 -8.627374 39.848297
371 0 1 -2.689456 -8.480174 40.742310
372 0 1 -3.373117 -8.561473 41.481995
373 0 1 -3.753297 -9.159574 40.910706
374 0 1 -4.381986 -9.643775 40.427704
375 0 1 -4.952596 -9.960874 41.135712
376 0 1 -5.471696 -9.206275 40.896088
377 0 1 -6.248197 -9.606774 41.382904
378 0 1 -5.868698 -10.467174 41.207306
379 0 1 -6.731037 -10.855474 41.721100
380 0 1 -7.038587 -10.929175 42.604004
381 0 1 -7.804937 -10.764575 43.109497
382 0 1 -7.865837 -10.542274 42.177704
383 0 1 -8.539897 -10.050174 42.578705
384 0 1 -8.735316 -9.528773 43.388306
385 0 1 -8.965707 -9.133574 42.594208
386 0 1 -9.507127 -8.998073 41.792297
387 0 1 -9.530107 -9.571273 41.021790
388 0 1 -9.687945 -10.385875 40.572601
389 0 1 -10.508037 -10.873675 40.833801
390 0 1 -10.526166 -10.393573 41.658112
391 0 1 -11.393497 -10.804973 41.296997
392 0 1 -12.220225 -10.785773 41.830383
393 0 1 -11.544406 -11.186873 42.407410
394 0 1 -11.656367 -10.567174 43.076691
395 0 1 -10.807345 -11.041675 43.307495
396 0 1 -11.048545 -11.721574 43.879517
397 0 1 -11.363206 -11.928374 44.720795
398 0 1 -11.930816 -11.638373 45.495209
399 0 1 -12.699327 -12.040974 44.955292
400 0 1 -12.930026 -11.882773 45.841003
401 0 1 -12.353827 -12.279174 46.560303
402 0 1 -11.741145 -11.640374 46.905609
403 0 1 -12.471828 -11.728175 47.506409
404 0 1 -13.364026 -11.414374 47.096191
405 0 1 -13.910026 -10.690274 46.828796
406 0 1 -13.618327 -10.165675 46.049500
407 0 1 -12.949927 -9.570174 46.509491
408 0 1 -12.784726 -9.835874 45.514404
409 0 1 -12.028226 -10.143973 45.910004
410 0 1 -11.468646 -9.340674 45.950104
411 0 1 -11.158496 -8.742675 46.643005
412 0 1 -11.644486 -8.970674 47.442810
413 0 1 -11.903886 -8.173373 47.907990
414 0 1 -10.990796 -7.931075 47.845001
415 0 1 -10.344216 -8.184173 48.597687
416 0 1 -10.094386 -9.115174 48.641510
417 0 1 -9.133487 -9.014174 48.610809
418 0 1 -8.450196 -8.827575 49.328094
419 0 1 -7.617307 -9.311473 49.341797
420 0 1 -7.610916 -10.233375 49.238495
421 0 1 -6.812757 -10.465774 48.800293
422 0 1 -6.686527 -10.035773 47.943390
423 0 1 -7.183807 -10.235574 47.158203
424 0 1 -6.702327 -10.305373 46.289795
425 0 1 -5.973197 -10.160874 45.674591
426 0 1 -5.221727 -10.247275 46.198395
427 0 1 -5.686176 -11.139873 46.268494
428 0 1 -5.929176 -11.846175 45.678711
429 0 1 -5.037906 -11.793674 45.309692
430 0 1 -4.715196 -12.412274 45.969208
431 0 1 -4.108047 -12.471974 45.229797
432 0 1 -4.034477 -11.743773 44.603699
433 0 1 -3.400317 -12.367574 44.222992
434 0 1 -3.706067 -12.918774 43.530884
435 0 1 -3.306186 -13.354474 42.769287
436 0 1 -3.441467 -12.503974 42.330383
437 0 1 -2.976272 -11.814874 42.716888
438 0 1 -2.626182 -11.912475 41.791595
439 0 1 -3.302806 -11.155774 41.577301
440 0 1 -3.555667 -10.336375 42.097198
441 0 1 -3.041906 -9.749675 41.518097
442 0 1 -2.334438 -10.165675 40.938293
443 0 1 -2.906896 -10.400874 40.202301
444 0 1 -2.821111 -9.911273 39.362091
445 0 1 -2.128675 -9.541474 38.820404
446 0 1 -2.476388 -9.392974 37.929108
447 0 1 -2.968105 -9.532374 37.203888
448 0 1 -3.630357 -9.817573 36.505707
449 0 1 -3.204166 -10.687774 36.510406
450 0 1 -3.267507 -11.637973 36.358704
451 0 1 -3.408336 -12.510174 36.022400
452 0 1 -3.013345 -12.726774 35.148010
453 0 1 -3.630527 -13.408174 35.292511
454 0 1 -4.085006 -14.183675 35.791687
455 0 1 -3.198316 -14.220473 36.107208
456 0 1 -2.503003 -14.574574 36.641602
457 0 1 -3.086936 -14.203774 37.318512
458 0 1 -2.918874 -15.154075 37.311493
459 0 1 -2.512416 -16.073072 37.268402
460 0 1 -3.207866 -16.656473 36.990204
461 0 1 -3.457406 -17.556072 37.061005
462 0 1 -3.960187 -17.912773 37.818207
463 0 1 -4.491176 -18.681273 37.596008
464 0 1 -5.343666 -19.053473 37.438904
465 0 1 -4.946117 -19.878874 37.085510
466 0 1 -5.367116 -20.257772 37.832886
467 0 1 -5.240097 -20.950974 38.390503
468 0 1 -4.331506 -21.186073 38.579895
469 0 1 -4.190998 -21.897573 37.945496
470 0 1 -4.883647 -21.888172 37.161591
471 0 1 -4.569017 -22.779472 37.005890
472 0 1 -3.706847 -22.679974 36.586090
473 0 1 -3.635257 -22.893173 37.496613
474 0 1 -2.911294 -23.240473 38.092987
475 0 1 -2.414047 -23.734373 37.355591
476 0 1 -2.540164 -24.563473 36.886688
477 0 1 -2.226562 -25.385973 36.476105
478 0 1 -2.338102 -25.089573 35.539612
479 0 1 -2.530996 -24.480774 34.788391
480 0 1 -2.845697 -24.912474 33.989594
481 0 1 -2.967784 -24.100473 33.531097
482 0 1 -2.008394 -24.013674 33.744385
483 0 1 -2.138795 -23.605173 34.591400
484 0 1 -2.342246 -22.759974 34.139587
485 0 1 -1.929096 -22.611473 33.253387
486 0 1 -0.990596 -22.438574 33.185699
487 0 1 -0.129047 -22.090973 33.460297
488 0 1 0.216134 -21.665073 32.684998
489 0 1 0.764905 -21.382174 31.950287
490 0 1 0.915192 -20.582273 32.454102
491 0 1 1.460015 -20.046473 33.096191
492 0 1 2.011784 -19.837973 33.825684
493 0 1 1.438054 -19.098774 33.987610
494 0 1 0.904935 -18.339073 34.021301
495 0 1 0.722275 -18.973873 34.737610
496 0 1 0.392285 -18.956774 35.644806
497 0 1 0.743355 -19.095173 36.510193
498 0 1 1.734364 -19.164873 36.742096
499 0 1 1.218285 -18.439774 37.127686
500 0 1 1.268292 -18.914774 37.979004
501 0 1 1.400502 -18.515272 38.800415
502 0 1 1.843712 -17.700172 38.543091
503 0 1 1.881955 -16.958874 39.135101
504 0 1 1.635853 -16.445473 39.875092
505 0 1 0.717404 -16.718273 40.067017
506 0 1 0.625153 -17.361374 40.742096
507 0 1 0.016732 -18.121773 40.564789
508 0 1 0.128705 -19.085274 40.308197
509 0 1 -0.562997 -19.312572 40.957794
510 0 1 -0.760246 -20.187174 41.220001
511 0 1 -1.519876 -20.061172 41.828796
512 0 1 -1.393747 -20.929173 42.354401
513 0 1 -1.485687 -21.753773 41.886597
514 0 1 -1.360395 -22.253273 42.701813
515 0 1 -1.521255 -21.725674 43.512299
516 0 1 -1.952323 -22.287474 44.142883
517 0 1 -1.216819 -22.850874 44.217712
518 0 1 -0.467666 -23.480673 43.978088
519 0 1 0.163083 -23.433973 44.698486
520 0 1 0.788453 -22.754873 44.622803
521 0 1 1.314774 -23.124573 43.784607
522 0 1 1.198533 -24.159473 43.637085
523 0 1 2.038182 -24.560272 43.321808
524 0 1 2.280392 -23.636972 43.300598
525 0 1 3.007584 -23.861572 43.939301
526 0 1 3.175153 -23.201773 44.560211
527 0 1 4.033532 -23.314873 45.015808
528 0 1 4.929123 -23.422974 45.266113
529 0 1 5.667153 -23.252474 45.821106
530 0 1 6.175984 -23.854174 45.246887
531 0 1 6.550675 -23.948673 46.084198
532 0 1 6.897984 -23.836473 46.973297
533 0 1 6.994183 -24.821873 46.869110
534 0 1 6.614323 -25.523672 47.432983
535 0 1 6.293713 -24.759773 47.962494
536 0 1 6.718632 -24.817873 48.806396
537 0 1 5.946084 -24.712173 49.403412
538 0 1 5.230244 -25.205273 48.807800
539 0 1 4.785672 -24.342573 48.726288
540 0 1 4.600132 -24.022573 47.783508
541 0 1 5.496014 -24.307974 47.488098
542 0 1 5.584645 -23.761873 48.303894
543 0 1 5.245743 -23.342373 49.096313
544 0 1 5.011872 -22.881773 49.968811
545 0 1 5.503003 -22.039574 50.149292
546 0 1 5.312504 -21.783573 49.243195
547 0 1 4.875905 -22.384172 48.688202
548 0 1 4.432423 -21.493073 48.491211
549 0 1 3.947434 -22.034372 49.142883
550 0 1 4.039692 -21.722874 50.057892
551 0 1 4.384724 -21.011873 50.619293
552 0 1 5.312893 -20.677874 50.714417
553 0 1 5.374024 -20.666372 51.654999
554 0 1 4.828492 -20.003572 52.067810
555 0 1 4.731484 -20.379772 52.984802
556 0 1 5.144684 -19.562473 53.222595
557 0 1 5.196854 -18.682373 52.827789
558 0 1 4.657292 -17.945772 53.162201
559 0 1 3.797032 -17.602974 53.392212
560 0 1 3.804543 -16.507473 53.326202
561 0 1 3.337064 -16.185173 52.597198
562 0 1 3.217633 -17.161573 52.567505
563 0 1 2.233094 -17.272272 52.447296
564 0 1 2.591115 -18.153873 52.662201
565 0 1 2.471303 -19.025272 52.381409
566 0 1 2.352685 -18.531874 51.568695
567 0 1 2.926774 -19.045973 51.000092
568 0 1 2.687672 -19.994473 51.026398
569 0 1 2.944802 -20.096973 50.144012
570 0 1 2.841393 -19.216373 49.705292
571 0 1 2.848534 -19.508074 48.800995
572 0 1 1.984475 -19.237873 48.923187
573 0 1 1.564385 -18.335573 48.871490
574 0 1 1.741234 -18.136072 47.953400
575 0 1 1.103875 -18.470074 47.313599
576 0 1 1.846833 -18.962473 47.116089
577 0 1 2.605462 -19.687273 46.896606
578 0 1 3.414235 -20.196774 46.539612
579 0 1 2.518174 -20.590273 46.354889
580 0 1 1.729535 -21.016573 46.717987
581 0 1 1.119374 -21.397373 47.402100
582 0 1 0.531052 -21.892673 46.727203
583 0 1 0.524193 -22.706472 47.273804
584 0 1 -0.268665 -22.577574 46.517395
585 0 1 0.082352 -22.373472 45.614594
586 0 1 -0.685937 -21.768972 45.636688
587 0 1 -1.283866 -21.957273 46.371002
588 0 1 -1.492948 -21.101374 46.740295
589 0 1 -1.490831 -20.565372 47.574097
590 0 1 -0.896186 -19.763973 47.453003
591 0 1 -1.429103 -19.063173 47.979187
592 0 1 -2.305005 -18.529373 47.986298
593 0 1 -1.617690 -17.868572 48.212799
594 0 1 -1.906713 -16.904972 48.164917
595 0 1 -2.054853 -17.238474 49.054199
596 0 1 -2.808185 -16.694174 49.428497
597 0 1 -3.409457 -16.014072 49.693512
598 0 1 -3.067777 -15.482074 48.953613
599 0 1 -2.419198 -14.764073 49.321899
600 0 1 -1.722112 -15.291875 48.908813
601 0 1 -0.830097 -15.022674 49.010986
602 0 1 -0.739166 -15.781875 49.545807
603 0 1 0.185925 -16.034073 49.693298
604 0 1 0.208535 -16.642673 48.969788
605 0 1 1.140893 -16.802874 49.123993
606 0 1 1.009095 -16.559174 48.197205
607 0 1 1.209992 -15.720174 47.706787
608 0 1 1.617344 -14.855075 47.822998
609 0 1 1.595605 -13.899774 47.812988
610 0 1 1.890965 -13.509574 46.983612
611 0 1 1.392502 -14.237374 46.595490
612 0 1 0.898305 -13.358574 46.689697
613 0 1 0.351773 -13.276174 45.907806
614 0 1 0.299302 -14.230775 46.121216
615 0 1 -0.616716 -13.995774 46.193298
616 0 1 -0.636787 -13.528773 45.328491
617 0 1 -0.756446 -13.081574 44.541290
618 0 1 -0.479545 -12.955074 43.600098
619 0 1 0.399464 -12.500874 44.014404
620 0 1 1.135205 -12.880574 44.510010
621 0 1 1.989255 -12.573774 44.427887
622 0 1 1.556523 -12.183674 43.617615
623 0 1 1.444085 -13.187074 43.509094
624 0 1 2.186265 -13.789075 43.458313
625 0 1 2.894822 -14.441573 43.438416
626 0 1 3.328023 -13.989774 42.720306
627 0 1 3.419884 -13.869473 41.766907
628 0 1 2.809502 -13.152174 41.607697
629 0 1 2.526353 -12.248774 42.013611
630 0 1 2.170735 -11.337775 42.192596
631 0 1 1.842393 -10.458274 42.440308
632 0 1 1.903004 -10.566274 43.356506
633 0 1 2.007344 -9.587274 43.162506
634 0 1 1.468575 -9.439874 43.933594
635 0 1 0.907624 -9.360774 44.712585
636 0 1 0.089863 -9.828475 44.761108
637 0 1 -0.654067 -9.227874 44.609314
638 0 1 -0.049445 -9.383475 43.735901
639 0 1 0.011044 -9.199973 42.808899
640 0 1 -0.144748 -8.352874 42.296204
641 0 1 0.142815 -7.542974 41.878601
642 0 1 0.743935 -6.950923 41.404907
643 0 1 0.344674 -6.071895 41.246399
644 0 1 1.063084 -5.776843 40.677094
645 0 1 1.990082 -5.624183 40.329895
646 0 1 1.728963 -4.744924 40.041412
647 0 1 1.158322 -4.653205 39.273987
648 0 1 0.775433 -3.751235 39.244293
649 0 1 -0.004306 -4.197614 39.540588
650 0 1 -0.112895 -4.447635 38.596985
651 0 1 -0.287788 -3.638324 38.080597
652 0 1 0.545224 -3.917004 37.742889
653 0 1 0.420952 -4.185044 36.858093
654 0 1 0.440385 -4.537894 35.880188
655 0 1 0.116223 -3.681193 35.576691
656 0 1 -0.072826 -4.204904 34.758392
657 0 1 -0.811767 -3.635964 34.458099
658 0 1 -0.536367 -3.011294 33.796387
659 0 1 0.349045 -2.845254 33.636810
660 0 1 0.273503 -2.401894 34.469513
661 0 1 0.157754 -1.715903 35.154510
662 0 1 1.062955 -1.957675 35.578491
663 0 1 1.654732 -1.229373 35.229187
664 0 1 1.067284 -0.572305 34.753387
665 0 1 1.953454 -0.267314 34.875916
666 0 1 1.719144 0.649186 34.911987
667 0 1 2.145215 0.524636 33.993195
668 0 1 2.414822 0.489106 33.097900
669 0 1 1.722565 0.660196 32.460083
670 0 1 1.351613 0.809386 31.658203
671 0 1 0.545964 1.298057 31.413696
672 0 1 0.743073 1.706167 30.600708
673 0 1 0.688775 2.223869 29.737213
674 0 1 0.260743 3.041417 29.965088
675 0 1 0.684834 3.763807 29.435486
676 0 1 1.078904 4.144227 28.655212
677 0 1 1.115372 4.787137 27.906311
678 0 1 1.359131 5.040616 27.026001
679 0 1 1.619843 5.893266 27.359589
680 0 1 1.736863 6.840226 27.431610
681 0 1 1.346085 7.621156 26.922089
682 0 1 1.899354 8.047894 26.237396
683 0 1 2.857873 8.088525 26.441711
684 0 1 3.440404 7.399976 26.740601
685 0 1 3.981374 8.150308 27.016998
686 0 1 4.764874 8.142938 26.495697
687 0 1 4.464554 8.115697 25.591614
688 0 1 4.104111 8.370065 24.777802
689 0 1 3.936852 9.098718 24.141296
690 0 1 4.504914 8.345998 23.804596
691 0 1 4.690163 8.825837 23.026886
692 0 1 4.709652 8.349828 22.225800
693 0 1 5.258282 9.051187 21.889694
694 0 1 5.631363 8.188107 21.579498
695 0 1 6.433274 8.692468 21.845596
696 0 1 6.467072 7.761506 21.914398
697 0 1 6.285325 6.746507 21.687408
698 0 1 5.816231 5.979745 21.390900
699 0 1 5.793114 5.130395 21.045898
700 0 1 5.700943 4.900556 20.153305
701 0 1 5.457352 5.835366 19.990005
702 0 1 5.730072 5.684175 19.084396
703 0 1 5.318474 5.655995 18.237106
704 0 1 6.256081 5.557256 17.918594
705 0 1 6.784203 6.230405 18.481995
706 0 1 7.701924 5.677728 18.240906
707 0 1 8.355874 5.322698 18.968796
708 0 1 8.028375 4.423905 18.777695
709 0 1 7.191811 4.716596 19.085297
710 0 1 7.685864 4.775887 19.938995
711 0 1 7.394635 5.653535 19.533401
712 0 1 6.716023 5.235066 20.066193
713 0 1 7.048893 5.010835 20.921097
714 0 1 6.711384 5.255727 21.775101
715 0 1 7.638764 5.472417 22.112793
716 0 1 7.490742 4.967786 22.940887
717 0 1 8.293672 5.476914 23.199188
718 0 1 8.471974 5.719186 24.128693
719 0 1 8.872674 6.523625 24.101807
720 0 1 9.166574 7.013486 23.338684
721 0 1 8.379975 6.911706 22.824493
722 0 1 8.458772 7.813687 23.156616
723 0 1 8.875772 8.150277 24.027893
724 0 1 9.732675 8.368566 23.716309
725 0 1 10.751473 8.421205 23.840302
726 0 1 10.688676 7.906697 24.578796
727 0 1 11.150575 7.272485 24.035889
728 0 1 11.507073 6.566705 24.523895
729 0 1 11.435575 5.608045 24.224792
730 0 1 12.027974 4.975095 23.983002
731 0 1 12.506673 4.265077 24.414612
732 0 1 12.176774 3.453878 24.776306
733 0 1 11.208375 3.425328 24.622314
734 0 1 10.763173 4.235036 24.969696
735 0 1 10.984273 4.237878 25.950592
736 0 1 10.967973 4.526086 26.854095
737 0 1 10.612973 4.545075 27.775696
738 0 1 10.675874 4.919507 28.693604
739 0 1 10.895974 4.836587 29.601593
740 0 1 10.660172 4.951665 30.551208
741 0 1 10.604672 3.951837 30.773102
742 0 1 10.325173 3.359668 29.970795
743 0 1 9.326573 3.505656 30.157806
744 0 1 9.034173 2.781255 29.620789
745 0 1 8.655175 2.488572 28.782013
746 0 1 7.720402 2.649562 28.563416
747 0 1 7.269974 3.426996 28.907288
748 0 1 6.489281 3.538202 29.419495
749 0 1 5.528534 3.568755 29.019592
750 0 1 4.817353 3.944486 28.533508
751 0 1 4.238175 4.726018 28.418488
752 0 1 3.753793 5.585626 28.468597
753 0 1 3.883744 5.083238 29.303192
754 0 1 3.200024 5.536347 29.810608
755 0 1 4.133263 5.812066 30.077911
756 0 1 4.487134 6.046956 30.960388
757 0 1 4.576764 6.978185 30.880188
758 0 1 4.560704 6.510625 31.859497
759 0 1 5.364213 7.047444 31.804413
760 0 1 6.317143 7.049485 31.533295
761 0 1 6.039143 7.874707 31.176514
762 0 1 6.427384 7.609887 30.334412
763 0 1 5.997353 7.201276 29.590912
764 0 1 4.997033 7.332814 29.550812
765 0 1 4.523312 7.878587 30.185913
766 0 1 4.576825 8.320275 29.331299
767 0 1 4.244824 8.893235 28.690491
768 0 1 3.374062 9.215726 28.960510
769 0 1 2.610535 9.382447 29.513306
770 0 1 2.505803 8.655606 30.136292
771 0 1 1.585145 8.473695 29.992889
772 0 1 0.777234 8.974465 30.174286
773 0 1 1.229203 8.619428 30.958984
774 0 1 1.180722 7.686505 30.815002
775 0 1 1.287705 7.120996 31.608002
776 0 1 1.308262 6.907456 32.538391
777 0 1 2.050244 7.445706 32.356689
778 0 1 2.263856 6.735436 32.931793
779 0 1 3.045445 6.071237 33.015289
780 0 1 3.900712 6.522187 32.916992
781 0 1 4.075531 7.328694 32.464813
782 0 1 3.723164 7.472566 33.359711
783 0 1 3.924092 7.579045 34.375793
784 0 1 4.819363 7.310475 34.660187