LAMMPS data file via MDAnalysis

        2000  atoms
        1999  bonds
           0  angles
           0  dihedrals
           0  impropers

           1  atom types
           1  bond types
           0  angle types
           0  dihedral types
           0  improper types

-30.5 30.5 xlo xhi
-30.5 30.5 ylo yhi
-233.5 233.5 zlo zhi


Masses

1 1.000000

Atoms

1 0 1 5.158190 -7.093943 22.671509
2 0 1 5.612192 -7.319942 21.798096
3 0 1 5.981451 -7.616444 20.911896
4 0 1 6.126402 -7.600742 19.951797
5 0 1 6.281782 -6.632843 19.980606
6 0 1 6.694422 -5.848042 20.214005
7 0 1 7.425661 -5.979942 19.550003
8 0 1 7.677641 -6.843042 19.775208
9 0 1 7.535070 -7.731943 19.505600
10 0 1 6.740709 -8.024443 18.936401
11 0 1 6.527060 -7.873543 18.021103
12 0 1 5.704481 -7.493942 18.469101
13 0 1 4.875841 -7.103043 18.140396
14 0 1 4.861799 -6.264942 18.603302
15 0 1 4.574640 -5.469442 18.294205
16 0 1 3.629339 -5.641743 18.286499
17 0 1 2.902140 -6.260942 18.457901
18 0 1 2.769842 -5.540743 17.788605
19 0 1 1.959780 -6.172043 17.990601
20 0 1 1.793291 -6.686943 18.756195
21 0 1 1.794250 -7.249641 17.881195
22 0 1 2.092760 -8.137241 18.060501
23 0 1 2.122440 -8.149544 17.147202
24 0 1 1.382406 -7.858843 16.550400
25 0 1 1.585600 -8.648743 16.140198
26 0 1 2.531282 -8.381641 15.980606
27 0 1 2.611250 -7.606243 15.413605
28 0 1 2.892431 -6.650444 15.444901
29 0 1 3.133482 -6.872643 16.405594
30 0 1 2.952791 -5.884644 16.395905
31 0 1 3.142363 -5.286383 15.689102
32 0 1 3.347830 -5.290592 14.774506
33 0 1 3.081553 -5.476442 13.816895
34 0 1 2.026060 -5.592043 13.726593
35 0 1 1.737850 -4.738462 13.947403
36 0 1 2.061420 -4.572422 14.882904
37 0 1 2.576441 -3.771461 14.875595
38 0 1 3.376062 -3.969364 15.397202
39 0 1 3.755560 -3.122932 15.672302
40 0 1 2.912760 -2.716383 15.978302
41 0 1 2.168421 -2.708923 16.539200
42 0 1 1.328789 -2.536564 16.227203
43 0 1 0.586113 -2.971893 16.748001
44 0 1 -0.125128 -2.767742 16.200195
45 0 1 -1.004210 -3.098122 16.469406
46 0 1 -1.008959 -3.654333 17.202301
47 0 1 -1.759218 -3.772274 17.765396
48 0 1 -2.085508 -4.381542 17.133804
49 0 1 -2.791849 -4.977272 16.830902
50 0 1 -2.936970 -5.648943 16.197006
51 0 1 -2.851410 -6.432743 16.708206
52 0 1 -3.086140 -6.910042 15.923004
53 0 1 -2.756569 -7.768944 15.640503
54 0 1 -3.148109 -8.194344 16.397903
55 0 1 -3.782640 -8.490843 17.009598
56 0 1 -4.535818 -7.970743 17.395096
57 0 1 -4.376829 -7.573742 18.326202
58 0 1 -5.085890 -6.888443 18.217499
59 0 1 -4.260908 -6.524443 18.005997
60 0 1 -4.612600 -5.772043 18.606506
61 0 1 -5.183828 -5.360443 19.248398
62 0 1 -6.027269 -5.726742 19.556793
63 0 1 -6.046669 -4.956173 20.040894
64 0 1 -6.611950 -4.581692 19.358704
65 0 1 -6.951658 -4.104134 18.596298
66 0 1 -7.536631 -4.318634 17.897202
67 0 1 -8.012369 -5.065434 17.293793
68 0 1 -8.482340 -5.366463 16.547302
69 0 1 -8.005098 -5.174862 15.785904
70 0 1 -8.734159 -4.739803 15.528000
71 0 1 -9.305889 -4.230383 16.150803
72 0 1 -9.509089 -5.179203 16.346207
73 0 1 -10.347490 -5.467342 16.693893
74 0 1 -11.213989 -5.473442 17.023193
75 0 1 -12.149189 -5.545443 17.176895
76 0 1 -12.769789 -5.601843 16.451096
77 0 1 -13.500189 -5.963842 15.809204
78 0 1 -13.614189 -6.533443 16.552597
79 0 1 -14.461589 -6.831444 16.831100
80 0 1 -14.804790 -6.070143 17.246094
81 0 1 -15.135690 -5.976742 16.311905
82 0 1 -14.565889 -5.716942 15.510193
83 0 1 -15.127589 -5.000202 15.257706
84 0 1 -15.425690 -4.213182 14.786896
85 0 1 -15.447090 -4.420162 13.822601
86 0 1 -15.577389 -3.998013 12.990204
87 0 1 -16.062389 -3.545162 12.319901
88 0 1 -17.004589 -3.543623 12.482895
89 0 1 -17.654789 -3.615414 13.234695
90 0 1 -17.640388 -2.732723 13.562805
91 0 1 -16.754290 -2.703142 13.995499
92 0 1 -16.546289 -1.762394 14.082901
93 0 1 -15.869190 -1.593853 13.412094
94 0 1 -16.194990 -0.839502 12.996307
95 0 1 -16.737989 -1.224243 12.377701
96 0 1 -16.559990 -1.492792 11.430206
97 0 1 -17.276588 -1.049553 10.971207
98 0 1 -16.973289 -0.447514 11.665695
99 0 1 -16.384989 0.306557 11.855103
100 0 1 -17.275990 0.531246 12.120407
101 0 1 -17.963690 1.026096 11.739197
102 0 1 -17.250589 1.454817 11.231201
103 0 1 -17.510889 1.173157 10.363007
104 0 1 -16.943489 0.426746 10.258301
105 0 1 -16.535589 -0.386574 10.084000
106 0 1 -16.765089 -1.088182 9.478775
107 0 1 -17.005390 -1.473892 8.594513
108 0 1 -17.094790 -1.167873 7.678727
109 0 1 -16.326488 -1.663803 7.587311
110 0 1 -16.630789 -1.670902 6.700577
111 0 1 -16.340889 -2.072952 5.868683
112 0 1 -15.424290 -2.434914 6.181534
113 0 1 -14.656189 -2.937162 6.088227
114 0 1 -14.087090 -3.451323 6.732819
115 0 1 -14.059489 -2.551594 7.090546
116 0 1 -14.094389 -2.072763 7.894745
117 0 1 -13.428690 -2.618113 8.433044
118 0 1 -12.881090 -3.397703 8.466080
119 0 1 -12.585089 -4.204254 8.878799
120 0 1 -11.881489 -4.651333 8.530548
121 0 1 -11.901590 -5.490444 9.039795
122 0 1 -12.067989 -5.077423 9.918457
123 0 1 -11.639288 -5.685543 10.550003
124 0 1 -11.368689 -5.966942 11.402802
125 0 1 -10.929388 -5.701744 12.143799
126 0 1 -10.677488 -6.646244 11.966293
127 0 1 -9.887489 -6.066544 11.963196
128 0 1 -9.038950 -6.033043 12.438904
129 0 1 -8.669508 -6.988243 12.151901
130 0 1 -9.580191 -7.014143 12.191299
131 0 1 -10.122690 -7.071842 13.011902
132 0 1 -10.742590 -6.913342 13.737503
133 0 1 -11.077290 -6.206043 13.138794
134 0 1 -10.399691 -5.498043 13.131195
135 0 1 -9.661390 -4.764923 12.975204
136 0 1 -10.219889 -4.498543 12.285095
137 0 1 -9.936590 -3.743633 12.826797
138 0 1 -10.270390 -3.916874 13.717896
139 0 1 -10.676588 -3.308403 14.292603
140 0 1 -11.515989 -2.832003 14.418304
141 0 1 -12.307289 -2.612833 13.878296
142 0 1 -12.741789 -3.186222 14.466705
143 0 1 -13.241388 -3.826242 14.014999
144 0 1 -13.858689 -3.919712 14.720596
145 0 1 -14.545589 -3.447283 14.273895
146 0 1 -15.124390 -2.906343 14.969604
147 0 1 -15.620190 -2.015512 14.973206
148 0 1 -15.230789 -1.216413 15.268295
149 0 1 -14.706189 -0.433622 15.522202
150 0 1 -14.476089 -0.104744 16.365997
151 0 1 -15.060689 0.610207 16.406998
152 0 1 -15.762989 0.877197 17.160095
153 0 1 -16.746290 0.879248 17.001404
154 0 1 -16.570490 0.010607 17.450195
155 0 1 -16.842989 0.188417 18.384003
156 0 1 -16.330889 1.000887 18.807999
157 0 1 -15.568190 0.612257 19.283508
158 0 1 -15.524889 0.797638 20.217697
159 0 1 -15.101089 1.418177 20.767197
160 0 1 -14.921889 0.923727 21.596603
161 0 1 -14.053589 1.096867 21.759705
162 0 1 -13.556089 0.843607 20.971207
163 0 1 -12.629990 1.004498 21.084106
164 0 1 -12.928389 1.782587 21.425507
165 0 1 -13.649189 2.393488 21.369293
166 0 1 -13.083288 3.104357 21.222305
167 0 1 -12.199089 2.662558 21.166397
168 0 1 -11.371088 2.421747 20.590698
169 0 1 -11.257490 1.702717 19.943802
170 0 1 -11.437389 1.393646 20.792908
171 0 1 -10.830690 1.551878 21.477905
172 0 1 -11.154989 1.081198 22.300598
173 0 1 -11.057789 1.169737 23.311584
174 0 1 -10.514288 1.086447 24.179596
175 0 1 -9.556890 0.971737 24.172211
176 0 1 -9.892389 0.330437 23.444885
177 0 1 -10.751289 0.016796 22.993713
178 0 1 -10.935989 -0.907442 23.342712
179 0 1 -10.451189 -1.688892 23.606110
180 0 1 -10.312189 -2.534822 24.095093
181 0 1 -9.971788 -3.454733 24.081390
182 0 1 -9.267340 -3.247423 23.452087
183 0 1 -8.984919 -3.792643 24.152710
184 0 1 -8.299870 -3.910643 24.827209
185 0 1 -8.177401 -3.961702 25.785889
186 0 1 -7.624060 -3.229092 26.093201
187 0 1 -7.943468 -2.505903 25.483307
188 0 1 -8.494440 -2.437843 26.321503
189 0 1 -9.398890 -2.257954 26.633392
190 0 1 -9.712290 -1.971462 27.448395
191 0 1 -10.101290 -1.388433 28.096985
192 0 1 -10.407488 -0.499323 27.810699
193 0 1 -10.963888 -0.752543 27.009094
194 0 1 -11.319788 -1.558224 27.499512
195 0 1 -11.593889 -2.252533 26.873688
196 0 1 -12.134390 -2.310543 26.042603
197 0 1 -12.350290 -1.460173 25.588501
198 0 1 -12.334490 -0.532074 25.369598
199 0 1 -13.128389 -0.896504 24.967804
200 0 1 -14.043989 -0.992123 24.505096
201 0 1 -14.832290 -0.504414 24.208191
202 0 1 -15.005789 -1.412443 24.198212
203 0 1 -15.597889 -1.969683 24.775513
204 0 1 -16.515089 -2.360683 24.772308
205 0 1 -16.218988 -2.177313 25.687805
206 0 1 -17.052589 -2.558403 26.006409
207 0 1 -17.341690 -3.482182 26.373810
208 0 1 -17.983290 -3.737114 25.536407
209 0 1 -17.986589 -4.645683 25.847992
210 0 1 -18.510689 -4.768913 25.042389
211 0 1 -18.749989 -4.747393 24.078400
212 0 1 -17.996889 -5.076563 23.686890
213 0 1 -17.780190 -4.220612 23.365601
214 0 1 -17.529490 -3.707872 24.198395
215 0 1 -17.498489 -2.848932 23.710815
216 0 1 -18.361290 -2.998943 24.052185
217 0 1 -18.725889 -2.777662 23.212708
218 0 1 -19.006090 -1.940683 23.568695
219 0 1 -19.322489 -1.020092 23.652405
220 0 1 -18.823889 -1.102333 22.842712
221 0 1 -18.207088 -0.609604 23.382507
222 0 1 -18.549688 0.215116 23.181610
223 0 1 -18.588890 1.138597 23.589600
224 0 1 -19.370989 0.882757 23.103699
225 0 1 -19.754389 1.139257 23.974396
226 0 1 -19.352989 1.827707 24.456512
227 0 1 -18.802389 2.605766 24.402588
228 0 1 -17.910688 2.306347 24.866394
229 0 1 -18.083488 1.270067 24.790894
230 0 1 -17.303690 0.816957 24.403198
231 0 1 -16.476589 0.425518 24.707092
232 0 1 -16.592289 0.489067 25.617798
233 0 1 -16.203089 1.275877 25.987701
234 0 1 -15.544689 1.721867 26.624390
235 0 1 -14.626889 1.922836 27.009308
236 0 1 -15.289389 2.163387 27.632202
237 0 1 -16.054390 1.659178 27.996216
238 0 1 -16.459990 1.005228 28.543213
239 0 1 -16.328089 0.254497 28.010498
240 0 1 -15.521688 -0.148203 27.678314
241 0 1 -15.556189 -0.537012 26.790314
242 0 1 -16.324989 -1.076054 26.988800
243 0 1 -17.211889 -0.781872 26.882599
244 0 1 -17.531889 -1.535282 27.314789
245 0 1 -17.732988 -2.446672 27.531799
246 0 1 -17.749590 -2.843283 28.424194
247 0 1 -18.628189 -3.204464 28.761597
248 0 1 -18.490490 -3.991974 29.243011
249 0 1 -19.141788 -3.919903 29.918610
250 0 1 -19.848289 -4.410633 29.339600
251 0 1 -20.432789 -4.025602 28.635498
252 0 1 -20.434090 -4.592033 27.795898
253 0 1 -20.738989 -5.446043 27.447815
254 0 1 -21.601789 -5.626842 27.867188
255 0 1 -21.224190 -6.433743 27.941193
256 0 1 -21.556189 -7.358543 27.649811
257 0 1 -21.016190 -8.166443 27.913391
258 0 1 -21.688990 -8.687141 28.371796
259 0 1 -22.527590 -8.153643 28.346802
260 0 1 -21.809589 -7.772543 28.859985
261 0 1 -22.387589 -7.077244 29.069702
262 0 1 -21.729689 -6.697842 29.674408
263 0 1 -20.772388 -6.605143 29.384308
264 0 1 -20.431189 -6.013243 30.087189
265 0 1 -19.542089 -6.277643 29.924805
266 0 1 -18.793089 -6.394543 30.554688
267 0 1 -17.910589 -6.414143 30.282410
268 0 1 -18.226589 -5.719643 29.700806
269 0 1 -17.451689 -5.449842 29.161011
270 0 1 -16.970589 -5.471542 28.298889
271 0 1 -16.429289 -5.001041 28.991608
272 0 1 -15.601490 -5.544342 29.050110
273 0 1 -15.925089 -6.387743 29.249786
274 0 1 -15.826189 -6.317043 28.313812
275 0 1 -16.689989 -6.645142 27.962311
276 0 1 -16.841888 -7.303444 27.246216
277 0 1 -16.581589 -7.225143 26.332092
278 0 1 -15.712290 -6.811844 26.252197
279 0 1 -15.339190 -7.543043 25.772491
280 0 1 -14.386489 -7.571243 25.660095
281 0 1 -13.575489 -7.701542 26.231995
282 0 1 -13.088690 -6.979942 25.804810
283 0 1 -12.910891 -6.193844 25.156097
284 0 1 -12.655489 -5.538342 25.871307
285 0 1 -11.967890 -5.471443 26.525696
286 0 1 -11.790689 -4.476023 26.628510
287 0 1 -11.553190 -4.050343 25.728699
288 0 1 -11.434189 -4.522861 24.858002
289 0 1 -11.048389 -4.652742 23.996704
290 0 1 -10.145889 -5.104202 23.926910
291 0 1 -9.225668 -5.221983 23.948303
292 0 1 -8.841829 -5.644943 24.725800
293 0 1 -7.967569 -5.386423 24.441284
294 0 1 -7.940069 -6.273043 23.908600
295 0 1 -6.960039 -6.441341 23.914490
296 0 1 -6.676088 -5.550941 24.135406
297 0 1 -5.760889 -5.615242 23.773987
298 0 1 -5.319769 -4.877283 23.358398
299 0 1 -4.659880 -5.571243 23.440887
300 0 1 -3.878029 -5.846443 22.958496
301 0 1 -2.983019 -6.153843 22.944214
302 0 1 -3.011980 -6.043442 23.885101
303 0 1 -3.511808 -6.367243 24.718689
304 0 1 -2.511419 -6.588943 24.741516
305 0 1 -1.916609 -6.117443 25.346191
306 0 1 -2.015980 -5.268593 25.809113
307 0 1 -2.557850 -4.857983 26.489410
308 0 1 -2.935850 -5.703842 26.988098
309 0 1 -3.032419 -6.489044 27.477600
310 0 1 -3.011700 -6.275444 28.423492
311 0 1 -3.521448 -6.922642 28.859100
312 0 1 -2.845190 -6.694242 29.581787
313 0 1 -3.304708 -5.835644 29.585602
314 0 1 -4.080580 -5.934544 30.130188
315 0 1 -4.624809 -6.597343 30.586395
316 0 1 -4.859640 -7.362041 31.075012
317 0 1 -5.211079 -8.262543 30.923401
318 0 1 -4.276489 -8.483742 31.345795
319 0 1 -3.648790 -8.320541 32.142700
320 0 1 -3.307550 -9.016443 31.527496
321 0 1 -2.397009 -9.333143 31.591187
322 0 1 -2.169399 -8.479643 32.042908
323 0 1 -2.337080 -8.757843 32.976593
324 0 1 -1.848990 -9.299541 33.563812
325 0 1 -1.504990 -9.856144 34.278992
326 0 1 -0.859089 -9.417744 34.824097
327 0 1 -1.135180 -9.418142 35.721497
328 0 1 -1.219219 -10.298443 35.417206
329 0 1 -0.859249 -10.935543 36.006104
330 0 1 -1.115069 -11.055142 36.938416
331 0 1 -0.621689 -10.327743 37.319092
332 0 1 0.046492 -10.923743 37.714203
333 0 1 0.512369 -10.905943 36.837708
334 0 1 0.444357 -9.969043 36.606598
335 0 1 0.309055 -9.466442 37.435486
336 0 1 -0.074450 -9.789242 38.328705
337 0 1 -0.831730 -9.529543 38.873413
338 0 1 -0.802250 -9.410744 39.861511
339 0 1 -1.476639 -8.965643 40.410095
340 0 1 -1.549370 -7.998943 40.596588
341 0 1 -0.715769 -7.650242 40.131592
342 0 1 -0.305790 -6.797844 40.226410
343 0 1 0.608547 -6.984943 40.027893
344 0 1 0.378818 -7.327442 39.091400
345 0 1 0.415338 -8.186243 38.616913
346 0 1 1.177530 -8.704643 39.013397
347 0 1 1.978821 -8.250542 39.103607
348 0 1 2.564562 -8.864943 39.556091
349 0 1 3.027170 -8.935143 38.739594
350 0 1 3.892439 -8.634644 38.380310
351 0 1 4.307741 -7.709642 38.325287
352 0 1 4.287062 -7.442142 37.383484
353 0 1 4.678942 -6.610844 37.399902
354 0 1 5.042860 -6.827343 36.569000
355 0 1 5.572302 -7.629343 36.468597
356 0 1 6.337839 -7.648342 36.976013
357 0 1 6.669333 -8.547142 37.181702
358 0 1 6.170019 -8.641943 36.431885
359 0 1 6.004911 -9.384144 35.815613
360 0 1 6.173880 -8.496544 35.334290
361 0 1 6.510351 -8.532543 34.434998
362 0 1 5.883821 -8.780943 33.687408
363 0 1 5.550169 -9.714844 33.951508
364 0 1 5.613173 -9.957043 33.021606
365 0 1 5.085241 -9.804844 32.209503
366 0 1 4.346632 -9.413443 31.861908
367 0 1 4.182951 -9.782242 32.733795
368 0 1 3.744131 -10.469243 32.200195
369 0 1 3.086149 -9.860641 32.042297
370 0 1 2.480032 -9.813343 31.250397
371 0 1 3.116472 -10.556243 31.112000
372 0 1 3.202581 -11.492844 30.937897
373 0 1 3.162542 -11.969942 30.126587
374 0 1 3.690413 -12.689743 30.259613
375 0 1 4.276922 -12.089443 30.670288
376 0 1 5.180281 -11.830442 30.503204
377 0 1 5.702131 -12.230143 29.859589
378 0 1 6.291201 -12.959942 29.753906
379 0 1 6.778200 -13.737642 29.600189
380 0 1 6.514582 -14.154444 30.400299
381 0 1 5.929010 -13.567442 30.932007
382 0 1 6.183519 -12.799643 31.322693
383 0 1 5.387770 -12.316942 31.665588
384 0 1 5.634569 -11.767742 32.395508
385 0 1 6.416319 -11.505342 31.932312
386 0 1 7.022120 -11.702044 32.630188
387 0 1 7.644049 -11.519243 31.928406
388 0 1 8.046522 -11.980944 32.696198
389 0 1 7.670679 -12.336742 33.509491
390 0 1 8.388479 -12.174242 34.225800
391 0 1 8.162199 -11.254043 34.484406
392 0 1 8.584799 -11.212643 35.346313
393 0 1 9.377378 -11.121243 34.819702
394 0 1 9.532812 -11.017643 35.721710
395 0 1 10.267683 -11.589542 36.096802
396 0 1 9.522562 -12.195343 36.221710
397 0 1 8.874472 -12.726143 36.643616
398 0 1 8.625582 -12.015642 37.275299
399 0 1 7.854231 -11.489643 37.517090
400 0 1 8.504290 -11.518044 38.232788
401 0 1 7.710310 -11.572042 38.730804
402 0 1 8.129992 -12.450842 38.977295
403 0 1 9.042459 -12.621643 38.939392
404 0 1 8.878611 -12.424343 39.865295
405 0 1 9.731142 -12.429043 40.341003
406 0 1 10.231371 -11.748743 40.900085
407 0 1 10.514231 -12.135242 41.724091
408 0 1 10.268141 -11.981342 42.657501
409 0 1 9.853811 -12.485743 43.334290
410 0 1 9.304689 -11.835642 43.708313
411 0 1 8.664782 -11.150943 43.896912
412 0 1 9.394701 -10.688843 43.642395
413 0 1 10.226049 -10.849342 43.248108
414 0 1 10.756613 -10.286842 43.875916
415 0 1 9.989130 -9.829144 43.432983
416 0 1 9.260710 -9.583443 42.885193
417 0 1 9.134359 -8.656544 42.570099
418 0 1 9.697271 -8.026743 42.103607
419 0 1 9.903372 -8.818642 41.668610
420 0 1 9.376940 -8.943943 40.929504
421 0 1 8.398329 -9.300644 40.705811
422 0 1 7.882460 -9.808043 40.050507
423 0 1 7.151171 -10.400642 39.850708
424 0 1 6.511789 -10.719543 40.488495
425 0 1 5.655279 -10.846043 40.080200
426 0 1 4.827700 -10.598843 39.731110
427 0 1 4.723669 -11.535643 39.892303
428 0 1 5.231661 -11.683243 40.651703
429 0 1 5.528341 -10.941543 41.124603
430 0 1 5.650640 -10.288543 41.851410
431 0 1 5.219629 -9.785042 42.416412
432 0 1 5.440321 -8.868143 42.309387
433 0 1 6.023439 -8.851242 43.038391
434 0 1 6.295042 -8.383942 43.920898
435 0 1 6.868662 -7.860443 43.445190
436 0 1 7.426371 -7.560143 42.770111
437 0 1 7.964651 -7.007843 43.337189
438 0 1 7.177019 -6.534142 43.214203
439 0 1 6.957811 -5.831944 42.626099
440 0 1 7.387522 -4.944511 42.880402
441 0 1 8.045912 -4.282001 42.920288
442 0 1 8.628862 -3.826622 43.559906
443 0 1 8.605600 -4.035563 44.465698
444 0 1 8.461859 -3.336933 45.080597
445 0 1 7.506079 -3.163162 45.128387
446 0 1 7.807611 -2.704094 45.896088
447 0 1 7.726522 -3.524323 46.311188
448 0 1 7.272722 -3.460493 47.166992
449 0 1 7.033670 -3.850292 48.048004
450 0 1 6.426420 -3.115662 47.848297
451 0 1 5.585340 -3.273922 47.372498
452 0 1 5.006952 -2.854412 47.967712
453 0 1 5.317560 -2.357594 48.760803
454 0 1 5.107672 -2.296192 49.723694
455 0 1 4.755400 -3.204872 49.926514
456 0 1 5.078871 -3.994303 49.446808
457 0 1 5.592661 -3.999992 50.263184
458 0 1 5.103762 -4.261532 51.042694
459 0 1 5.547731 -5.054401 51.361389
460 0 1 5.927450 -5.984142 51.200287
461 0 1 5.763350 -6.907343 51.344696
462 0 1 5.403059 -6.543842 50.462006
463 0 1 5.101141 -6.860142 49.575195
464 0 1 5.150869 -7.780144 49.140808
465 0 1 5.751799 -7.932243 48.367493
466 0 1 6.653379 -8.078043 48.525909
467 0 1 7.468271 -8.562443 48.492493
468 0 1 8.073652 -8.078043 49.092407
469 0 1 8.985201 -8.349943 49.220886
470 0 1 9.897749 -8.143044 49.489685
471 0 1 10.873110 -8.214844 49.601105
472 0 1 11.129011 -7.824944 50.477783
473 0 1 11.130411 -8.212742 51.453003
474 0 1 10.870611 -7.353943 51.599213
475 0 1 11.138212 -7.758942 52.400299
476 0 1 11.467909 -7.751644 53.331299
477 0 1 12.417212 -7.957844 53.323090
478 0 1 13.214209 -8.340042 53.631195
479 0 1 12.827410 -9.174643 53.315186
480 0 1 12.964911 -10.164543 53.256500
481 0 1 12.936510 -11.213943 53.365204
482 0 1 13.209211 -11.423643 52.452393
483 0 1 13.447012 -12.382544 52.311005
484 0 1 12.745512 -13.006742 52.129395
485 0 1 13.121111 -13.427343 52.918091
486 0 1 14.099611 -13.297842 52.989990
487 0 1 14.667910 -12.565243 53.105804
488 0 1 15.220411 -13.280643 53.049408
489 0 1 15.974211 -12.730343 53.227783
490 0 1 15.760111 -12.292242 52.342987
491 0 1 16.591009 -12.478243 51.789612
492 0 1 16.984808 -12.853743 52.613586
493 0 1 16.423613 -13.614042 52.802094
494 0 1 15.754511 -14.182842 53.132904
495 0 1 15.330809 -14.634842 52.404907
496 0 1 15.178209 -14.718443 51.427094
497 0 1 14.500608 -14.232542 50.972900
498 0 1 14.137812 -15.116842 51.249603
499 0 1 14.093809 -15.920942 51.821716
500 0 1 13.166311 -16.024143 51.636993
501 0 1 13.028612 -15.789843 50.741302
502 0 1 12.124113 -15.925043 50.969391
503 0 1 11.664511 -16.242743 50.035400
504 0 1 11.683111 -17.180042 50.114807
505 0 1 11.002512 -16.812243 50.701813
506 0 1 10.914610 -15.853743 50.668488
507 0 1 10.696600 -14.909843 50.823608
508 0 1 11.620909 -14.846542 51.127197
509 0 1 12.354311 -14.765642 50.520691
510 0 1 12.542410 -14.122442 49.889587
511 0 1 13.461210 -14.312443 49.745697
512 0 1 13.743612 -14.047443 48.802399
513 0 1 13.468912 -14.960043 48.729889
514 0 1 12.711813 -14.856142 48.117004
515 0 1 13.404013 -15.301342 47.634613
516 0 1 14.357512 -15.314642 47.697906
517 0 1 15.190210 -14.764544 47.695892
518 0 1 15.225210 -15.320744 46.966309
519 0 1 14.905512 -15.760643 46.245789
520 0 1 14.160612 -15.111843 46.367401
521 0 1 13.221910 -15.074043 46.327301
522 0 1 12.612509 -14.338943 46.813904
523 0 1 13.040709 -13.473743 46.609497
524 0 1 13.629412 -12.833542 46.224701
525 0 1 14.495211 -13.246643 46.244598
526 0 1 14.772112 -12.835043 47.062012
527 0 1 14.985712 -12.268642 47.807983
528 0 1 14.647612 -12.378042 48.784210
529 0 1 13.757212 -12.057543 48.415192
530 0 1 13.162012 -11.279943 48.469208
531 0 1 13.432508 -10.460943 48.897797
532 0 1 12.728712 -9.836643 49.256195
533 0 1 12.151812 -9.376842 49.822510
534 0 1 12.423712 -8.544342 50.217712
535 0 1 13.055811 -7.829042 50.077087
536 0 1 13.894312 -8.147243 49.766602
537 0 1 14.739912 -8.130543 49.244598
538 0 1 14.888113 -7.356943 48.623901
539 0 1 14.131208 -7.981243 48.448212
540 0 1 13.742208 -7.363342 49.104492
541 0 1 13.360811 -6.486042 48.960205
542 0 1 13.170511 -5.727242 48.376099
543 0 1 12.424410 -5.316502 47.841797
544 0 1 12.850710 -4.610653 48.348816
545 0 1 13.313009 -3.867983 47.940491
546 0 1 13.903112 -3.631153 47.236084
547 0 1 14.457109 -2.957283 46.796509
548 0 1 15.022512 -3.693323 46.450409
549 0 1 15.842009 -3.263714 46.114990
550 0 1 16.573511 -3.077732 46.762604
551 0 1 15.853312 -2.636463 47.229706
552 0 1 16.567312 -2.077923 47.578003
553 0 1 16.747808 -1.646744 46.716003
554 0 1 16.006411 -1.060944 46.499603
555 0 1 15.308611 -0.611673 45.942505
556 0 1 14.509512 -0.116684 46.209198
557 0 1 14.936411 -0.402184 47.059204
558 0 1 14.033010 -0.158154 47.309509
559 0 1 13.422411 -0.746613 46.836090
560 0 1 13.055712 -1.524763 47.323303
561 0 1 13.277712 -1.366842 48.204895
562 0 1 13.021410 -1.742773 49.114502
563 0 1 12.611509 -1.580633 49.937988
564 0 1 13.312311 -2.248363 50.044312
565 0 1 14.008211 -1.516483 49.938507
566 0 1 14.383009 -0.627083 50.029785
567 0 1 14.516409 0.270616 50.438110
568 0 1 15.504011 0.352358 50.385590
569 0 1 15.637812 1.042368 51.020691
570 0 1 15.972811 0.225986 51.444611
571 0 1 15.817709 -0.282364 52.202301
572 0 1 15.027311 -0.376432 52.732605
573 0 1 15.552011 -0.956972 53.276306
574 0 1 15.281813 -1.053923 54.223816
575 0 1 15.559412 -1.148224 55.191711
576 0 1 14.822912 -0.504433 55.022705
577 0 1 14.761011 0.396357 55.306213
578 0 1 15.251612 1.169558 55.447510
579 0 1 15.710409 0.702476 56.120209
580 0 1 15.757711 1.160408 56.961609
581 0 1 15.936510 1.218456 57.935089
582 0 1 16.323709 2.048748 57.660797
583 0 1 16.007711 2.599087 56.965515
584 0 1 15.770613 3.025867 57.835297
585 0 1 16.314512 3.680752 57.485992
586 0 1 15.886110 3.812376 56.638000
587 0 1 14.953810 3.617352 56.870697
588 0 1 14.906511 4.248486 56.217010
589 0 1 14.006208 4.521437 56.387512
590 0 1 13.593912 4.043844 57.055206
591 0 1 13.112711 4.640715 57.714905
592 0 1 12.614408 4.901638 56.954285
593 0 1 12.019609 5.437191 56.493500
594 0 1 12.387609 6.124786 55.908600
595 0 1 11.776213 5.939068 55.157410
596 0 1 11.003111 5.434782 55.152710
597 0 1 10.297400 5.560598 54.535309
598 0 1 9.704443 5.165026 53.787811
599 0 1 9.969561 4.544727 54.427307
600 0 1 10.680811 4.255697 53.893097
601 0 1 10.728010 3.607597 54.571198
602 0 1 10.164492 3.086447 55.138000
603 0 1 10.325560 2.186047 54.700287
604 0 1 9.537401 1.600437 54.528015
605 0 1 8.589350 1.779278 54.551697
606 0 1 7.795912 1.835377 54.064606
607 0 1 8.398661 2.254026 53.410889
608 0 1 8.419451 2.795258 52.599304
609 0 1 8.628969 3.664679 52.261688
610 0 1 7.690413 3.370108 52.140289
611 0 1 6.919333 2.711437 52.122894
612 0 1 7.015329 2.168747 51.300415
613 0 1 7.504759 1.688467 51.997986
614 0 1 7.400331 1.207327 52.885406
615 0 1 8.214090 0.987867 53.348389
616 0 1 8.276201 0.724848 52.450409
617 0 1 7.976080 -0.162563 52.380493
618 0 1 7.201452 -0.651123 52.044800
619 0 1 6.346811 -0.248432 52.368896
620 0 1 5.386789 -0.329182 52.387085
621 0 1 5.220793 -0.245434 53.328186
622 0 1 4.375341 -0.420822 53.799408
623 0 1 3.434523 -0.611143 53.805695
624 0 1 3.148691 0.021788 54.499298
625 0 1 2.210871 -0.159603 54.286987
626 0 1 1.233213 -0.385923 54.388611
627 0 1 0.791363 -1.138592 54.733887
628 0 1 -0.092632 -0.856403 55.079498
629 0 1 -0.264935 -0.396664 55.872498
630 0 1 -0.799349 0.163357 55.259796
631 0 1 -1.501570 0.809566 55.147583
632 0 1 -2.286980 1.071308 54.657288
633 0 1 -2.860559 0.810636 55.407501
634 0 1 -3.390949 1.218437 54.671814
635 0 1 -4.108309 0.795767 55.247589
636 0 1 -4.550159 1.581688 55.621704
637 0 1 -4.822248 2.463167 55.404785
638 0 1 -5.691019 2.652348 55.025787
639 0 1 -6.533770 2.976418 55.224396
640 0 1 -7.341619 2.446947 55.199402
641 0 1 -6.820499 2.548037 54.345703
642 0 1 -7.116739 3.492867 54.081909
643 0 1 -7.555578 4.319384 54.062500
644 0 1 -7.910601 4.077755 54.890015
645 0 1 -8.269199 3.168488 54.912811
646 0 1 -9.155390 3.459578 55.045715
647 0 1 -9.228380 3.611006 54.061890
648 0 1 -10.028990 3.602423 53.505402
649 0 1 -10.259291 4.582993 53.752991
650 0 1 -11.002689 5.072441 53.491394
651 0 1 -11.771688 5.423792 53.050110
652 0 1 -11.050089 6.041927 52.824097
653 0 1 -11.285891 6.921806 53.140991
654 0 1 -11.577890 7.032768 52.133789
655 0 1 -10.839289 7.600716 52.145996
656 0 1 -11.104889 8.460709 51.893707
657 0 1 -11.823790 8.939548 51.401001
658 0 1 -11.248789 8.719959 50.569305
659 0 1 -10.483191 9.049335 50.131897
660 0 1 -9.783789 9.571877 49.672699
661 0 1 -9.022200 10.097546 49.895905
662 0 1 -8.610140 10.516258 49.134216
663 0 1 -8.603830 11.130676 49.826599
664 0 1 -9.231159 11.564556 49.324707
665 0 1 -10.014090 11.542339 48.798004
666 0 1 -10.915890 11.359669 48.338684
667 0 1 -10.754389 11.697678 47.466705
668 0 1 -10.012489 11.452877 46.881104
669 0 1 -9.526388 10.586468 46.883087
670 0 1 -9.318388 10.498898 45.929993
671 0 1 -10.057589 10.360935 45.243896
672 0 1 -10.752588 10.802876 44.865692
673 0 1 -10.870588 10.844929 43.906097
674 0 1 -11.794489 11.065506 43.681610
675 0 1 -11.901888 10.118069 43.813293
676 0 1 -11.903288 10.012249 42.834198
677 0 1 -11.278490 10.732136 42.584290
678 0 1 -11.326288 11.347908 41.867310
679 0 1 -10.644190 10.836796 41.277008
680 0 1 -11.272890 10.154106 41.107788
681 0 1 -11.763288 9.688816 40.418793
682 0 1 -12.400789 9.068768 40.023895
683 0 1 -11.622290 8.866566 39.298187
684 0 1 -11.488689 9.070835 38.389008
685 0 1 -11.753790 8.471039 37.755707
686 0 1 -10.787790 8.177467 37.612091
687 0 1 -10.824389 7.200878 37.731384
688 0 1 -11.278189 6.794006 38.461914
689 0 1 -10.751390 5.983538 38.422699
690 0 1 -10.491190 5.169636 37.971313
691 0 1 -9.732988 5.572887 37.457001
692 0 1 -9.815489 4.604229 37.367706
693 0 1 -9.502289 4.624128 36.471497
694 0 1 -8.595179 4.973223 36.450500
695 0 1 -8.107000 4.314922 36.028198
696 0 1 -7.384069 4.907845 35.937195
697 0 1 -6.577188 5.172573 36.361816
698 0 1 -5.711800 5.075169 35.961700
699 0 1 -5.967718 4.397526 36.656891
700 0 1 -5.749880 3.600189 36.150299
701 0 1 -6.069860 2.744858 36.138916
702 0 1 -6.097019 1.943737 35.625397
703 0 1 -5.483210 2.052368 34.830109
704 0 1 -4.970900 1.348557 35.325897
705 0 1 -4.845350 0.878937 34.482483
706 0 1 -4.478689 0.016006 34.755402
707 0 1 -4.092299 0.157337 33.939606
708 0 1 -4.930960 -0.213303 33.655304
709 0 1 -5.829760 -0.532284 33.762299
710 0 1 -5.482550 -0.817743 32.925812
711 0 1 -5.043940 -1.316683 32.221497
712 0 1 -4.269789 -1.802593 31.901306
713 0 1 -3.764809 -2.230673 32.621216
714 0 1 -3.598919 -2.983334 33.103516
715 0 1 -3.274929 -3.378174 32.343689
716 0 1 -3.853430 -4.081953 32.705200
717 0 1 -3.466249 -4.933014 32.474091
718 0 1 -2.667330 -4.339344 32.483490
719 0 1 -2.473379 -5.247784 32.226807
720 0 1 -1.857849 -5.371723 33.009491
721 0 1 -1.534289 -6.193642 32.576202
722 0 1 -0.654739 -6.309843 32.884094
723 0 1 0.169073 -6.848042 33.081207
724 0 1 0.223629 -6.430443 32.249908
725 0 1 1.084185 -5.923141 32.360107
726 0 1 1.630377 -5.147543 32.435486
727 0 1 2.265619 -5.800243 32.240601
728 0 1 2.926321 -5.599842 31.615692
729 0 1 3.344721 -5.157814 32.315186
730 0 1 3.474321 -4.744263 33.230713
731 0 1 3.300322 -3.760773 33.408691
732 0 1 4.003809 -4.254883 33.897003
733 0 1 3.522871 -3.766354 34.618988
734 0 1 2.892469 -3.043142 34.553711
735 0 1 2.359690 -2.261612 34.704895
736 0 1 2.352369 -2.327084 35.741608
737 0 1 1.655632 -3.012062 35.702301
738 0 1 1.052320 -3.713684 35.308990
739 0 1 0.788660 -2.842182 34.903503
740 0 1 0.474001 -2.374844 35.714813
741 0 1 0.531116 -2.121052 36.646912
742 0 1 0.765831 -1.507294 37.290009
743 0 1 0.290562 -1.306042 38.044098
744 0 1 -0.120524 -0.946993 37.276489
745 0 1 0.663156 -0.740513 36.671600
746 0 1 0.500921 0.226458 36.485107
747 0 1 0.200218 0.701946 37.317413
748 0 1 0.307285 1.526297 37.742493
749 0 1 0.612581 2.331158 38.150604
750 0 1 0.834623 3.209507 38.550110
751 0 1 0.794054 3.715849 37.724487
752 0 1 1.229166 4.228861 38.446503
753 0 1 1.533371 5.078074 38.485596
754 0 1 1.674950 5.929728 37.984985
755 0 1 1.697994 5.734888 37.049408
756 0 1 2.656179 5.830448 37.295502
757 0 1 3.534163 5.738888 37.673004
758 0 1 4.336500 5.857557 38.223511
759 0 1 3.699041 5.553658 38.867310
760 0 1 3.584940 6.405106 39.277405
761 0 1 3.904699 7.295696 39.261810
762 0 1 4.253820 8.062328 38.692505
763 0 1 5.155310 7.899498 38.515594
764 0 1 5.260199 7.003078 38.931396
765 0 1 5.829981 6.685627 39.597687
766 0 1 6.711149 6.971409 39.454712
767 0 1 6.251482 7.652798 40.012390
768 0 1 6.433439 8.515488 40.561584
769 0 1 5.612692 8.943047 40.344788
770 0 1 4.884649 8.672836 40.940887
771 0 1 3.946081 8.415119 40.996796
772 0 1 3.701689 8.750965 40.136200
773 0 1 2.973101 8.931236 39.539490
774 0 1 2.005741 9.014759 39.739105
775 0 1 2.512011 9.144058 40.561096
776 0 1 2.688181 9.896439 40.008698
777 0 1 2.324800 10.078655 39.130493
778 0 1 1.703422 9.917446 38.439911
779 0 1 1.706976 10.489548 37.690613
780 0 1 1.830940 11.385399 38.175201
781 0 1 1.155674 12.035755 38.390106
782 0 1 1.646927 12.565838 38.997803
783 0 1 1.679462 13.245815 38.295990
784 0 1 1.210888 13.795498 38.882294
785 0 1 0.717171 14.334415 38.301300