LAMMPS data file via MDAnalysis

        2000  atoms
        1999  bonds
           0  angles
           0  dihedrals
           0  impropers

           1  atom types
           1  bond types
           0  angle types
           0  dihedral types
           0  improper types

-30.5 30.5 xlo xhi
-30.5 30.5 ylo yhi
-233.5 233.5 zlo zhi


Masses

1 1.000000

Atoms

1 0 1 -19.870378 -12.074337 43.783203
2 0 1 -19.597178 -12.067337 42.875793
3 0 1 -19.147678 -12.803335 43.223816
4 0 1 -18.669477 -13.132036 44.007690
5 0 1 -18.065779 -12.495035 43.590393
6 0 1 -18.417479 -11.644136 43.337708
7 0 1 -17.971977 -11.299036 44.101685
8 0 1 -17.604677 -11.404936 45.043213
9 0 1 -16.764877 -11.810236 44.987793
10 0 1 -16.808477 -12.710035 44.640503
11 0 1 -16.765879 -13.690237 44.488190
12 0 1 -16.261679 -14.395838 44.912415
13 0 1 -15.637380 -13.928637 44.371613
14 0 1 -14.941178 -13.220337 44.001099
15 0 1 -14.939179 -12.339937 43.617493
16 0 1 -15.392879 -11.715136 42.991608
17 0 1 -15.539279 -11.421436 43.852600
18 0 1 -14.729779 -11.128637 44.341888
19 0 1 -15.437980 -10.519926 44.502411
20 0 1 -15.396079 -10.276735 45.418091
21 0 1 -14.900880 -9.615168 45.841705
22 0 1 -14.471080 -8.754557 45.598206
23 0 1 -13.648379 -9.151476 45.187897
24 0 1 -14.009879 -8.522078 44.582794
25 0 1 -14.945680 -8.439507 44.175812
26 0 1 -15.446279 -7.739807 43.763489
27 0 1 -15.391978 -6.747566 43.646912
28 0 1 -14.740180 -6.427767 42.958313
29 0 1 -14.398580 -5.693148 42.210297
30 0 1 -15.152478 -5.427637 42.767700
31 0 1 -15.890180 -6.009176 42.839508
32 0 1 -16.702078 -6.539387 42.862915
33 0 1 -17.122879 -5.859436 42.338898
34 0 1 -16.950878 -5.163157 43.041687
35 0 1 -17.247478 -4.689957 42.229095
36 0 1 -17.601479 -5.079676 41.459198
37 0 1 -17.113379 -4.308746 41.091492
38 0 1 -17.429379 -3.517176 40.665100
39 0 1 -17.863277 -2.965327 41.417114
40 0 1 -18.031578 -3.222647 42.306091
41 0 1 -17.248178 -3.461916 42.751587
42 0 1 -18.028877 -3.081557 43.319214
43 0 1 -18.096678 -3.748087 44.030304
44 0 1 -19.121778 -3.946926 44.125092
45 0 1 -18.910078 -3.169358 44.573090
46 0 1 -19.207378 -2.887676 45.481384
47 0 1 -19.513178 -2.701767 46.324005
48 0 1 -19.560978 -2.400566 47.257690
49 0 1 -19.531479 -3.144356 47.847900
50 0 1 -19.408878 -4.022476 47.297302
51 0 1 -19.297379 -4.181387 48.183807
52 0 1 -19.467777 -3.584517 48.928802
53 0 1 -19.021378 -3.387997 49.765411
54 0 1 -19.236279 -2.527107 50.245789
55 0 1 -19.697578 -1.959997 49.562408
56 0 1 -18.914978 -1.414209 49.392883
57 0 1 -19.138578 -0.836062 50.074493
58 0 1 -18.713978 -0.498098 50.876099
59 0 1 -18.676079 -1.085802 51.644501
60 0 1 -19.451878 -1.559767 52.021088
61 0 1 -18.849277 -1.299791 52.759399
62 0 1 -19.574678 -1.544857 53.377502
63 0 1 -18.686977 -1.695517 53.710205
64 0 1 -17.765179 -1.469132 54.026489
65 0 1 -16.884977 -1.739718 53.773590
66 0 1 -17.351978 -1.482729 52.913208
67 0 1 -17.941378 -0.704859 52.770111
68 0 1 -18.294378 -0.069546 52.079010
69 0 1 -18.026379 0.643583 52.667114
70 0 1 -17.322178 1.120245 52.217407
71 0 1 -16.416677 0.841423 52.441406
72 0 1 -16.325977 0.167797 51.792694
73 0 1 -15.452479 -0.230385 51.527893
74 0 1 -14.604980 0.188545 51.252899
75 0 1 -15.180480 0.894903 50.753906
76 0 1 -14.379079 0.848654 50.253510
77 0 1 -13.767678 0.795023 50.997101
78 0 1 -13.347379 0.965433 50.184906
79 0 1 -12.574579 0.384111 50.153809
80 0 1 -12.168778 0.844723 49.435303
81 0 1 -11.376180 0.555513 49.734314
82 0 1 -10.711278 1.166613 49.299103
83 0 1 -9.922879 1.816854 49.048706
84 0 1 -9.529279 2.626562 48.733215
85 0 1 -10.329379 2.955282 49.233490
86 0 1 -9.876878 3.858675 49.260101
87 0 1 -9.500579 4.601225 48.843384
88 0 1 -9.350480 5.199392 48.183411
89 0 1 -10.024678 5.425993 47.522217
90 0 1 -10.685880 4.741774 47.277008
91 0 1 -10.371379 3.825304 47.178711
92 0 1 -9.659179 4.284895 46.833984
93 0 1 -9.197080 3.571443 46.465790
94 0 1 -8.766778 3.109464 47.194214
95 0 1 -8.168080 2.966013 46.437317
96 0 1 -7.759778 3.593233 45.743988
97 0 1 -8.355580 4.278692 46.107605
98 0 1 -7.895179 5.041155 45.818695
99 0 1 -8.025779 5.272963 44.876801
100 0 1 -7.888078 4.374804 44.677399
101 0 1 -7.206990 4.919195 44.331909
102 0 1 -6.446919 5.422625 44.726807
103 0 1 -6.065900 5.353804 43.859894
104 0 1 -6.254479 6.251822 43.715515
105 0 1 -6.339419 6.801504 44.487091
106 0 1 -5.675950 6.983652 45.156403
107 0 1 -5.196149 6.651323 45.891602
108 0 1 -5.268489 5.735003 45.626312
109 0 1 -4.455970 5.397192 45.473511
110 0 1 -4.274539 5.951902 46.306488
111 0 1 -3.634179 5.805532 46.974792
112 0 1 -3.478469 5.733404 47.966888
113 0 1 -3.597329 5.347342 48.777893
114 0 1 -3.484839 4.487024 49.240784
115 0 1 -2.643809 4.951395 49.056091
116 0 1 -2.711200 4.100794 48.572510
117 0 1 -1.788878 4.151281 48.725494
118 0 1 -1.198409 3.852415 49.368103
119 0 1 -2.184060 3.635534 49.705994
120 0 1 -2.375338 3.591741 50.605713
121 0 1 -1.669678 4.187895 50.365601
122 0 1 -1.303300 4.751974 51.079590
123 0 1 -0.959538 4.157213 51.798096
124 0 1 -1.011819 3.240534 51.378510
125 0 1 -0.733998 2.877405 50.524902
126 0 1 -0.457269 3.097242 49.615784
127 0 1 -0.017909 3.796694 50.135895
128 0 1 0.253270 4.587332 49.755615
129 0 1 0.048841 5.530535 50.039490
130 0 1 0.546540 6.239832 50.341614
131 0 1 0.568361 6.654482 51.223206
132 0 1 0.188531 6.657274 52.079193
133 0 1 -0.354628 7.507925 52.192993
134 0 1 -1.201878 7.850332 51.954285
135 0 1 -1.082419 8.623343 51.282501
136 0 1 -0.711638 8.002794 50.633392
137 0 1 -0.951409 7.530214 49.894409
138 0 1 -0.492678 7.187944 49.109100
139 0 1 -0.178399 6.328154 48.842285
140 0 1 -0.113589 6.066992 47.872986
141 0 1 -0.492608 6.994024 47.703186
142 0 1 0.398061 7.389212 47.795990
143 0 1 0.336261 7.905592 48.622589
144 0 1 1.267221 7.806993 48.353210
145 0 1 2.039779 7.640604 48.889496
146 0 1 2.856822 8.051992 48.559509
147 0 1 3.530141 7.418242 48.154785
148 0 1 4.336001 7.943632 48.215912
149 0 1 5.239070 8.205221 48.128296
150 0 1 6.074203 8.661482 48.158112
151 0 1 6.101470 9.081663 48.934296
152 0 1 5.981071 10.013865 48.958313
153 0 1 6.638911 9.929861 48.223389
154 0 1 7.052882 10.760164 48.279510
155 0 1 7.104770 10.449663 47.395203
156 0 1 6.255519 10.103361 47.137390
157 0 1 6.262370 10.920862 46.621796
158 0 1 5.422011 10.840563 46.162201
159 0 1 4.544402 11.175962 45.756287
160 0 1 3.694711 10.720762 45.594910
161 0 1 2.936849 11.267763 45.385986
162 0 1 2.750741 12.024061 45.875916
163 0 1 3.132388 12.584063 46.564087
164 0 1 3.843452 13.076765 46.132507
165 0 1 4.811572 13.331964 46.105988
166 0 1 4.958732 13.914564 46.860596
167 0 1 4.071219 14.250463 46.718292
168 0 1 4.000079 14.500563 45.783691
169 0 1 4.992930 14.708364 45.761108
170 0 1 5.226081 15.626562 45.820496
171 0 1 5.723231 16.185865 46.422394
172 0 1 5.920859 17.007261 46.831604
173 0 1 6.068851 17.946264 46.483002
174 0 1 5.567161 18.811262 46.566101
175 0 1 5.790771 19.795065 46.663605
176 0 1 6.315181 19.340666 46.002991
177 0 1 5.642989 19.304266 45.279999
178 0 1 6.039729 20.111563 44.931213
179 0 1 6.975329 20.354963 44.772583
180 0 1 7.270911 21.179663 44.433899
181 0 1 6.885711 21.871962 43.794495
182 0 1 6.637752 22.763762 44.189514
183 0 1 7.513122 23.075563 44.216003
184 0 1 7.405452 23.828363 43.661194
185 0 1 8.445102 23.808764 43.313995
186 0 1 8.404799 23.276663 42.488403
187 0 1 8.270843 22.492563 43.059113
188 0 1 8.621779 22.296164 43.963989
189 0 1 8.917903 21.862661 44.846008
190 0 1 9.489802 21.137266 44.573212
191 0 1 9.656970 20.140165 44.580811
192 0 1 8.998382 20.085066 45.281097
193 0 1 8.075549 20.215261 45.139404
194 0 1 7.685710 19.742064 45.897095
195 0 1 8.201350 19.129065 45.305695
196 0 1 8.598861 18.558561 45.971008
197 0 1 8.942142 19.375662 46.386810
198 0 1 9.435939 19.263563 47.180298
199 0 1 9.578403 18.384466 46.765900
200 0 1 10.195880 17.700663 46.285187
201 0 1 10.531192 16.914862 46.746490
202 0 1 9.942752 16.209265 46.500305
203 0 1 10.708121 15.880461 45.875488
204 0 1 10.838061 15.318064 45.050201
205 0 1 11.432521 14.770063 44.525513
206 0 1 11.839492 15.515066 44.093292
207 0 1 12.269530 15.896666 43.344208
208 0 1 11.575492 16.232565 42.816711
209 0 1 10.651523 16.538164 42.804688
210 0 1 10.032020 16.348166 42.115692
211 0 1 9.523360 16.357264 42.896393
212 0 1 9.893851 16.594763 43.754791
213 0 1 9.433402 15.759565 43.977203
214 0 1 9.422271 16.255564 44.786896
215 0 1 8.747371 16.172262 45.436310
216 0 1 7.817660 15.987562 45.416016
217 0 1 7.255801 16.396063 44.727112
218 0 1 7.861182 15.948866 44.207214
219 0 1 7.803653 16.654661 43.567291
220 0 1 7.246352 16.354162 42.760803
221 0 1 6.809859 15.574965 43.035797
222 0 1 6.275691 16.202261 43.553009
223 0 1 5.627902 16.415564 44.228394
224 0 1 4.756289 16.041162 44.259491
225 0 1 4.069652 15.529562 44.642609
226 0 1 3.087421 15.339262 44.852295
227 0 1 2.221320 15.229261 45.059998
228 0 1 1.617078 15.953962 44.759796
229 0 1 1.699001 16.900564 44.935089
230 0 1 1.830291 17.805166 45.123901
231 0 1 2.075217 18.635664 45.496002
232 0 1 2.574352 19.420263 45.798309
233 0 1 2.542737 20.284964 46.216797
234 0 1 3.119817 20.591963 45.518097
235 0 1 3.196220 19.764364 45.021698
236 0 1 2.238950 19.653265 44.829407
237 0 1 2.540340 19.815062 43.960388
238 0 1 1.807826 19.680063 43.310486
239 0 1 1.406785 19.253462 42.522217
240 0 1 1.376184 19.229963 41.580383
241 0 1 1.987691 18.532362 41.833099
242 0 1 1.517970 17.759062 42.048584
243 0 1 0.968221 17.909563 41.256195
244 0 1 1.511678 17.076162 41.106598
245 0 1 1.271161 16.617464 40.272583
246 0 1 1.887355 17.223265 39.870605
247 0 1 2.612672 17.414762 40.561707
248 0 1 3.279870 17.498064 41.252197
249 0 1 3.961353 16.891066 41.582489
250 0 1 4.102180 15.938364 41.457092
251 0 1 3.202510 15.782965 41.117798
252 0 1 2.237712 15.658865 41.273499
253 0 1 2.285281 16.225863 42.091614
254 0 1 2.249341 16.806063 42.850403
255 0 1 1.576156 17.305265 43.278992
256 0 1 1.161601 16.448561 43.568207
257 0 1 0.173211 16.743261 43.678192
258 0 1 0.210250 16.553465 42.666595
259 0 1 0.870542 15.871466 42.616394
260 0 1 0.699660 15.044165 43.051208
261 0 1 0.700492 14.098166 43.175995
262 0 1 -0.015439 13.901064 43.750092
263 0 1 0.394752 14.343061 44.543213
264 0 1 0.637431 13.369364 44.639709
265 0 1 0.274631 12.471663 44.816803
266 0 1 0.757301 12.663363 45.660797
267 0 1 0.582212 11.990164 46.363098
268 0 1 0.147460 11.487864 45.575409
269 0 1 -0.052640 10.534262 45.486694
270 0 1 -0.199189 9.840063 46.142090
271 0 1 0.214111 8.956732 45.850403
272 0 1 0.785472 8.332914 46.234100
273 0 1 1.492791 8.877832 45.819092
274 0 1 2.479129 8.817713 46.065002
275 0 1 3.297107 8.916903 45.591614
276 0 1 2.703573 8.152094 45.284088
277 0 1 3.254960 7.742384 44.538696
278 0 1 3.215017 7.912634 43.613007
279 0 1 2.760177 7.073885 43.441406
280 0 1 2.269307 6.293264 43.636108
281 0 1 2.498105 6.005625 42.773499
282 0 1 2.892265 5.120855 42.539917
283 0 1 2.716272 4.213343 42.626007
284 0 1 2.759376 3.400133 42.050507
285 0 1 2.832061 3.867944 41.240692
286 0 1 3.332771 3.393423 40.632599
287 0 1 3.677692 4.045145 39.996216
288 0 1 3.445541 4.502573 39.188110
289 0 1 2.651716 4.501303 38.641693
290 0 1 2.268686 5.278692 38.203888
291 0 1 1.356757 5.266813 37.988403
292 0 1 0.601691 5.430544 37.417603
293 0 1 0.433801 6.225245 37.978790
294 0 1 1.177282 6.610846 37.404907
295 0 1 1.863221 6.201315 36.804291
296 0 1 2.327865 5.716993 36.133484
297 0 1 1.599742 5.153543 35.746887
298 0 1 1.509231 6.067656 35.527893
299 0 1 1.395042 5.450045 34.811310
300 0 1 1.827337 5.506403 34.033905
301 0 1 2.118722 4.632273 33.920990
302 0 1 2.759017 4.350782 33.231506
303 0 1 3.207761 5.019812 32.767395
304 0 1 3.533641 5.878775 32.481903
305 0 1 3.069247 6.594755 32.228394
306 0 1 2.540376 7.024115 31.597290
307 0 1 2.062412 7.843534 31.674103
308 0 1 2.771236 8.290804 31.124512
309 0 1 3.410701 8.881315 31.452301
310 0 1 4.285762 8.747484 30.995697
311 0 1 5.136752 9.217134 31.179291
312 0 1 5.307181 10.135263 31.375000
313 0 1 5.487292 10.553862 32.242188
314 0 1 5.020999 10.934065 33.012787
315 0 1 4.176192 11.290762 33.070892
316 0 1 4.179782 12.252764 33.118896
317 0 1 4.698691 12.838865 33.739105
318 0 1 5.338550 13.408663 34.203796
319 0 1 5.652881 14.329962 33.881500
320 0 1 6.127070 14.391665 33.044312
321 0 1 6.226253 13.448065 33.432190
322 0 1 6.826961 12.851065 32.877106
323 0 1 6.339232 12.535162 32.095795
324 0 1 6.664321 11.739763 31.600189
325 0 1 7.707522 11.501764 31.886505
326 0 1 7.792102 11.077864 31.014496
327 0 1 8.700202 10.949762 31.248596
328 0 1 9.285880 11.673365 31.323303
329 0 1 9.654120 11.736063 32.191284
330 0 1 10.327289 12.035864 31.530792
331 0 1 10.983569 11.562963 30.912598
332 0 1 10.632373 12.394964 30.549408
333 0 1 11.151782 13.193163 30.283386
334 0 1 11.871932 13.805761 30.482208
335 0 1 12.823020 13.674162 30.789703
336 0 1 13.781123 13.591562 31.008087
337 0 1 13.584521 14.049364 30.233490
338 0 1 13.484122 13.056166 29.951904
339 0 1 13.317222 12.633162 29.075592
340 0 1 13.318320 13.520063 28.809906
341 0 1 13.016120 13.567366 27.859100
342 0 1 12.366023 13.784464 27.182709
343 0 1 11.774341 14.345064 27.823090
344 0 1 11.202052 14.876062 27.250488
345 0 1 11.036441 15.770262 27.009796
346 0 1 10.812190 16.635862 27.367798
347 0 1 11.556651 17.009863 27.869904
348 0 1 12.332622 16.422766 27.817108
349 0 1 12.662219 17.275862 27.455994
350 0 1 13.474223 17.505064 26.870789
351 0 1 14.071021 16.643461 26.582489
352 0 1 14.536220 15.766165 26.540497
353 0 1 14.087619 15.444864 25.721100
354 0 1 14.855121 15.030863 25.225891
355 0 1 15.150722 14.079763 25.408997
356 0 1 15.056121 13.790964 24.420502
357 0 1 15.688922 13.909662 23.698303
358 0 1 16.121822 14.632666 24.194489
359 0 1 16.803322 14.998762 24.722412
360 0 1 16.491623 15.393362 25.585205
361 0 1 17.072720 14.597761 25.639404
362 0 1 17.584923 13.809462 26.109497
363 0 1 17.480022 13.818663 27.137299
364 0 1 16.971622 14.461561 27.662201
365 0 1 17.040920 15.362165 27.599487
366 0 1 17.812420 15.737764 27.987091
367 0 1 18.398121 16.144262 27.339691
368 0 1 18.898624 16.367865 28.152191
369 0 1 19.402920 16.455862 27.287689
370 0 1 19.652920 15.739561 26.649200
371 0 1 20.398022 15.395765 26.126892
372 0 1 20.710522 15.748762 26.941986
373 0 1 20.611019 16.601664 26.476105
374 0 1 20.274323 17.520964 26.282288
375 0 1 19.727924 18.280363 26.100311
376 0 1 19.000019 18.904562 26.012299
377 0 1 19.468323 19.591261 26.408295
378 0 1 20.226921 20.140562 26.283295
379 0 1 20.621323 19.259764 26.544006
380 0 1 20.783024 19.947462 27.159393
381 0 1 19.995823 19.567862 27.560089
382 0 1 20.166920 19.370665 28.489014
383 0 1 19.407822 19.703863 29.045288
384 0 1 18.995823 20.272963 29.675110
385 0 1 17.968220 20.167963 29.598511
386 0 1 17.886921 19.671965 28.726898
387 0 1 17.976322 18.662764 28.685699
388 0 1 17.632122 17.848661 28.321808
389 0 1 17.232220 17.524466 27.512604
390 0 1 17.717724 18.051962 26.881592
391 0 1 17.951824 18.786463 26.301208
392 0 1 17.270622 19.410864 26.646088
393 0 1 16.610321 19.720663 27.205505
394 0 1 16.259724 19.659666 26.339294
395 0 1 15.608623 18.952864 26.394012
396 0 1 16.051620 18.220465 26.048492
397 0 1 15.724322 18.234964 25.124786
398 0 1 14.798820 18.196066 25.414795
399 0 1 14.178622 18.659464 24.813995
400 0 1 14.398219 19.186361 25.535614
401 0 1 14.212619 19.699163 24.684204
402 0 1 13.992621 19.237066 23.872803
403 0 1 13.462123 19.719263 23.196411
404 0 1 13.258021 19.639864 22.293594
405 0 1 14.196021 19.783564 21.981201
406 0 1 14.890521 20.340563 21.551102
407 0 1 15.278819 19.930864 20.802002
408 0 1 14.949321 19.847563 19.887695
409 0 1 15.624221 19.487764 19.263306
410 0 1 16.425320 19.302061 18.791595
411 0 1 17.157322 19.449461 18.264099
412 0 1 17.460621 20.064363 17.581497
413 0 1 17.627224 19.734964 16.721100
414 0 1 17.768421 20.487265 16.039093
415 0 1 18.358219 19.727865 15.888702
416 0 1 17.500423 19.263063 15.743195
417 0 1 17.663822 19.906164 15.062500
418 0 1 17.172520 19.758062 14.263794
419 0 1 17.125721 18.838865 13.988602
420 0 1 16.829521 18.701963 14.887604
421 0 1 15.927020 18.452864 14.975800
422 0 1 15.889720 17.539961 14.657303
423 0 1 15.661021 16.638464 14.653702
424 0 1 16.441723 16.459562 15.085602
425 0 1 17.223621 16.967363 15.359100
426 0 1 17.541122 16.688364 16.241104
427 0 1 18.007420 15.809763 16.311401
428 0 1 17.182823 15.817064 16.974594
429 0 1 16.928120 16.266363 17.755005
430 0 1 16.338421 16.604765 18.427200
431 0 1 16.236221 17.153963 19.190598
432 0 1 16.710823 17.541265 19.895294
433 0 1 16.074520 17.026163 20.431595
434 0 1 16.173023 16.219164 20.856598
435 0 1 16.187023 15.304564 20.541992
436 0 1 15.957721 14.480764 20.138596
437 0 1 15.653022 13.572264 19.995193
438 0 1 15.549422 13.811766 20.934402
439 0 1 15.242122 14.347563 21.639694
440 0 1 14.532321 13.683363 21.458099
441 0 1 14.179919 13.571764 22.337997
442 0 1 13.222621 13.583464 22.581512
443 0 1 12.599521 13.198965 21.843201
444 0 1 12.942721 12.528063 22.350006
445 0 1 12.069552 12.298662 22.089005
446 0 1 11.329700 12.952864 21.911301
447 0 1 10.867141 12.016165 21.760696
448 0 1 10.248271 11.414564 21.281006
449 0 1 9.543620 10.734365 20.943298
450 0 1 8.692622 10.853865 20.517303
451 0 1 8.696101 11.323065 19.615402
452 0 1 9.032413 10.810461 18.830597
453 0 1 9.441741 10.001364 19.190399
454 0 1 8.884250 9.361982 19.585999
455 0 1 8.260070 9.059462 18.872498
456 0 1 8.754729 8.937803 18.096207
457 0 1 8.724200 8.115664 17.633301
458 0 1 8.090732 8.580381 17.098602
459 0 1 7.495681 9.245333 16.747894
460 0 1 7.803203 9.215883 15.819504
461 0 1 8.254962 9.576963 15.041595
462 0 1 9.170310 9.466764 14.714401
463 0 1 8.715552 8.833792 14.142593
464 0 1 7.883269 8.459585 14.007599
465 0 1 7.412852 9.341955 13.930801
466 0 1 7.295489 10.126463 14.467697
467 0 1 6.631522 10.675463 14.902496
468 0 1 7.086169 11.360064 15.279602
469 0 1 6.504069 12.054365 15.572693
470 0 1 6.012813 12.759165 16.049408
471 0 1 5.888850 13.464766 15.385300
472 0 1 6.411929 13.448965 14.595901
473 0 1 6.131652 12.593264 14.257294
474 0 1 6.956332 12.719263 13.771103
475 0 1 6.195052 12.459764 13.131393
476 0 1 6.744021 12.500563 12.340805
477 0 1 6.058070 12.055162 11.860107
478 0 1 5.277720 12.583162 11.569305
479 0 1 5.157123 12.014563 12.429901
480 0 1 4.568210 11.201063 12.114304
481 0 1 3.785571 11.067064 11.647705
482 0 1 3.850341 10.907965 10.674194
483 0 1 4.165652 10.341162 10.014297
484 0 1 3.329372 10.603361 9.726715
485 0 1 2.771457 9.921064 9.333878
486 0 1 3.117660 10.581762 8.690598
487 0 1 2.675908 10.831263 7.876175
488 0 1 3.537822 11.091463 7.711197
489 0 1 4.433990 11.217962 7.409744
490 0 1 4.517920 10.221064 7.354095
491 0 1 4.344092 9.359674 6.981766
492 0 1 3.909740 8.917284 6.326721
493 0 1 3.372361 8.048143 6.497803
494 0 1 3.905853 7.837824 5.712479
495 0 1 4.653571 8.034513 6.354187
496 0 1 5.120311 7.255884 6.117264
497 0 1 4.791121 6.956282 6.998886
498 0 1 4.911040 6.070894 7.407547
499 0 1 4.691962 5.288252 7.952057
500 0 1 4.392692 4.467443 8.385910
501 0 1 5.301730 4.000914 8.470734
502 0 1 5.282783 4.720404 9.108810
503 0 1 5.249320 4.888403 10.056595
504 0 1 5.229350 4.282904 10.744003
505 0 1 5.935172 4.823935 11.008194
506 0 1 6.463462 4.472624 11.718506
507 0 1 7.292670 4.169222 12.171204
508 0 1 8.037990 4.469244 12.762695
509 0 1 8.510161 4.277563 13.562607
510 0 1 9.406280 4.526854 13.346207
511 0 1 9.440600 3.605703 13.613297
512 0 1 9.358142 2.654623 13.433105
513 0 1 9.878421 2.641245 14.256195
514 0 1 10.670951 2.119432 14.222794
515 0 1 10.087543 1.383104 14.119507
516 0 1 9.225402 1.635523 14.464005
517 0 1 9.028392 1.769552 15.399704
518 0 1 8.414290 2.263155 14.833801
519 0 1 8.094623 3.020933 14.352600
520 0 1 7.190272 3.408293 14.292603
521 0 1 6.946601 2.848322 14.990906
522 0 1 6.491401 3.251344 15.803192
523 0 1 5.889022 3.143595 16.580505
524 0 1 5.682811 2.349794 17.082703
525 0 1 6.599700 2.491323 17.417099
526 0 1 7.325130 1.877005 17.186295
527 0 1 6.823840 1.225634 16.683807
528 0 1 6.059512 0.670713 16.687500
529 0 1 5.256591 1.278574 16.672607
530 0 1 4.481059 1.812364 16.522995
531 0 1 4.212852 1.398134 17.346893
532 0 1 3.415731 1.905054 17.101303
533 0 1 3.475791 2.629644 17.792206
534 0 1 3.745691 3.574404 17.587601
535 0 1 4.206363 3.853483 18.412903
536 0 1 4.446509 3.578882 19.330093
537 0 1 3.975089 2.814184 19.683899
538 0 1 4.145610 2.051153 20.275696
539 0 1 4.775271 1.586744 20.770905
540 0 1 5.317782 1.579313 21.515305
541 0 1 5.965671 1.786642 22.250305
542 0 1 6.080840 1.714495 23.164886
543 0 1 5.929431 2.669103 23.149902
544 0 1 6.780852 2.488813 22.755707
545 0 1 7.013381 3.127424 23.417511
546 0 1 7.386512 2.419412 23.933807
547 0 1 8.123439 2.241052 24.516907
548 0 1 9.030330 2.535032 24.711090
549 0 1 9.334701 2.865312 23.856903
550 0 1 8.935191 3.583174 23.345795
551 0 1 8.154082 3.299242 23.811005
552 0 1 7.334861 3.682653 24.240997
553 0 1 7.571662 4.461424 24.748291
554 0 1 6.794162 4.692133 25.199097
555 0 1 6.627032 5.141382 26.044403
556 0 1 7.266063 5.660734 25.647095
557 0 1 8.202750 5.282202 25.839600
558 0 1 8.028792 6.246164 25.923584
559 0 1 7.503062 7.037085 26.182312
560 0 1 7.755412 7.193045 25.286713
561 0 1 6.915599 7.729403 25.397888
562 0 1 6.573451 8.490202 25.811584
563 0 1 7.563151 8.583254 25.803894
564 0 1 8.403029 8.788176 25.314697
565 0 1 7.915771 9.471365 24.646698
566 0 1 7.456531 10.302164 24.590393
567 0 1 7.935962 11.119265 24.458893
568 0 1 7.991401 11.601362 23.673096
569 0 1 8.429652 12.393663 24.015106
570 0 1 8.263652 13.229963 23.623108
571 0 1 7.395881 13.595163 23.877411
572 0 1 7.191581 12.686163 23.753204
573 0 1 6.951892 12.111063 22.976105
574 0 1 7.553241 12.055365 22.283798
575 0 1 7.041102 11.949064 21.511292
576 0 1 6.757792 11.707365 20.624496
577 0 1 5.970000 11.494562 20.136795
578 0 1 5.103671 11.607862 19.673798
579 0 1 4.613021 11.650965 18.768494
580 0 1 4.043742 11.159662 18.046402
581 0 1 3.602342 10.903765 17.211594
582 0 1 3.829311 11.759665 16.842102
583 0 1 3.726381 11.995665 15.895004
584 0 1 2.818277 12.138662 16.152802
585 0 1 2.240398 12.227163 15.329803
586 0 1 1.956161 11.662264 14.656296
587 0 1 1.021772 11.359964 14.629395
588 0 1 0.754392 11.940462 13.876099
589 0 1 0.525111 12.752462 13.477097
590 0 1 -0.273278 12.886263 13.019592
591 0 1 -1.039809 12.815763 12.506805
592 0 1 -1.580539 12.265062 11.820099
593 0 1 -2.409699 12.350462 12.328796
594 0 1 -2.151198 11.858664 13.092194
595 0 1 -2.068309 12.406763 13.885300
596 0 1 -2.192609 12.378965 14.891800
597 0 1 -1.340298 12.828363 14.841095
598 0 1 -1.246308 12.100065 15.541000
599 0 1 -1.289368 12.313562 16.459503
600 0 1 -1.389279 11.321665 16.395996
601 0 1 -0.782199 11.191664 17.114594
602 0 1 -0.684289 10.491362 16.488297
603 0 1 0.025762 9.803762 16.198105
604 0 1 0.509271 9.654364 17.035599
605 0 1 0.211032 8.704542 17.044495
606 0 1 -0.196509 9.193396 17.850403
607 0 1 -1.040559 8.751745 17.790802
608 0 1 -1.658768 9.432505 17.528305
609 0 1 -1.537379 8.782194 16.916992
610 0 1 -2.377259 8.468233 16.528305
611 0 1 -2.598908 9.130575 15.807693
612 0 1 -3.270890 9.748365 16.147903
613 0 1 -2.915309 9.792063 17.057404
614 0 1 -2.529130 10.572165 16.760193
615 0 1 -3.339608 10.992662 17.110703
616 0 1 -3.787820 10.662264 17.966202
617 0 1 -3.238559 10.578566 18.804703
618 0 1 -3.847878 11.322863 19.047897
619 0 1 -3.724358 12.247862 18.851501
620 0 1 -4.527549 12.650164 19.243896
621 0 1 -4.756238 12.092264 18.427994
622 0 1 -4.678590 12.312864 17.499298
623 0 1 -5.003860 13.234163 17.368896
624 0 1 -5.592669 12.518965 17.101395
625 0 1 -6.209390 13.128664 17.463303
626 0 1 -6.537549 12.602064 18.212997
627 0 1 -6.820779 11.713064 18.449203
628 0 1 -7.495938 11.885763 17.800507
629 0 1 -7.901679 12.697264 18.286301
630 0 1 -8.727679 12.416162 17.900497
631 0 1 -9.433579 11.868162 17.493195
632 0 1 -8.976579 10.996061 17.485901
633 0 1 -8.292779 10.341162 17.217407
634 0 1 -7.430659 10.140463 17.534500
635 0 1 -6.507459 9.933561 17.709702
636 0 1 -6.635329 10.322561 18.626892
637 0 1 -6.434968 9.426962 18.963593
638 0 1 -6.749928 9.379244 19.893906
639 0 1 -6.643970 8.449312 20.181900
640 0 1 -7.300260 7.643503 20.110397
641 0 1 -7.388978 6.767862 20.727295
642 0 1 -6.546128 6.571543 21.032394
643 0 1 -5.646979 6.481302 20.859100
644 0 1 -5.198060 6.861002 21.641693
645 0 1 -4.998969 7.778372 21.847702
646 0 1 -4.948098 7.554686 20.834503
647 0 1 -4.561040 6.625765 20.714905
648 0 1 -4.366099 6.838022 19.795502
649 0 1 -3.861619 6.176146 19.396301
650 0 1 -3.991439 5.550203 18.672699
651 0 1 -4.204299 4.576384 18.543503
652 0 1 -4.443799 3.818693 18.023407
653 0 1 -5.049340 4.526472 17.610199
654 0 1 -5.465119 5.088465 17.000595
655 0 1 -6.332280 5.425833 17.426208
656 0 1 -6.267259 6.350805 17.674698
657 0 1 -6.954589 6.628153 18.289307
658 0 1 -6.265389 7.353674 18.105194
659 0 1 -5.747090 7.267065 17.262802
660 0 1 -5.032699 7.787905 17.580200
661 0 1 -4.496579 7.836744 16.751999
662 0 1 -4.091720 7.094713 16.231796
663 0 1 -3.354760 6.588842 16.216797
664 0 1 -2.488698 6.536562 16.505905
665 0 1 -2.104020 7.010305 15.799698
666 0 1 -1.383710 6.472525 16.127106
667 0 1 -0.671809 5.855314 15.843597
668 0 1 -0.479119 5.455122 15.009796
669 0 1 0.311521 5.157621 15.454407
670 0 1 -0.137929 4.238714 15.443298
671 0 1 -0.557189 3.346014 15.309692
672 0 1 -0.737710 2.381273 15.408707
673 0 1 0.055871 1.919721 15.512299
674 0 1 0.900861 1.649164 15.190506
675 0 1 1.500598 1.462442 14.487000
676 0 1 1.827132 0.495832 14.581299
677 0 1 2.719320 0.407884 14.182693
678 0 1 3.075366 0.334818 13.255493
679 0 1 3.627280 0.070984 12.508606
680 0 1 3.767852 -0.897991 12.531998
681 0 1 3.708551 -1.457346 11.824203
682 0 1 4.123900 -0.889488 11.147598
683 0 1 4.873820 -1.405748 10.769104
684 0 1 5.369632 -2.271958 10.591095
685 0 1 6.128871 -1.959776 9.987213
686 0 1 6.413871 -2.502796 10.752197
687 0 1 7.004752 -3.131497 11.281097
688 0 1 7.221190 -4.055126 11.113297
689 0 1 7.345450 -4.933836 11.487900
690 0 1 8.057590 -4.807318 10.800507
691 0 1 8.824882 -4.845636 10.264603
692 0 1 9.145892 -3.978657 10.324600
693 0 1 9.962932 -3.528218 10.647400
694 0 1 9.392631 -2.904396 10.183807
695 0 1 9.096931 -2.172627 9.552490
696 0 1 9.390521 -1.602327 8.841675
697 0 1 8.576930 -1.036291 9.038025
698 0 1 7.951560 -0.283039 8.892136
699 0 1 7.053721 -0.738939 9.033310
700 0 1 6.146152 -0.471285 9.097473
701 0 1 6.115333 -1.044109 8.404236
702 0 1 6.068091 -1.999336 8.405609
703 0 1 6.338672 -2.865107 8.565857
704 0 1 6.793250 -3.691227 8.500946
705 0 1 6.775950 -4.493156 7.915512
706 0 1 7.223571 -5.336317 7.544693
707 0 1 7.278312 -6.234686 7.106537
708 0 1 6.692019 -6.953556 7.157623
709 0 1 5.794452 -6.475386 7.030518
710 0 1 4.904033 -6.045527 6.999146
711 0 1 4.917651 -6.832346 7.616791
712 0 1 4.880820 -7.813665 7.413132
713 0 1 4.906070 -8.322557 8.247223
714 0 1 4.649970 -8.584227 9.101288
715 0 1 4.054881 -9.231867 9.475327
716 0 1 4.122882 -9.874367 10.180099
717 0 1 4.227241 -10.517897 9.455994
718 0 1 3.336911 -10.537237 9.027023
719 0 1 3.098121 -10.283426 8.104904
720 0 1 2.285016 -10.137526 8.573486
721 0 1 2.192867 -9.701517 9.378555
722 0 1 1.938295 -8.766047 9.495529
723 0 1 1.177551 -9.150408 9.013611
724 0 1 0.610051 -9.460506 8.332809
725 0 1 0.344341 -8.912268 7.566177
726 0 1 -0.508378 -9.171227 7.227493
727 0 1 -0.661649 -9.169537 8.170883
728 0 1 -1.090129 -10.012377 8.281815
729 0 1 -0.795579 -10.944838 8.298340
730 0 1 -0.722110 -10.717936 7.402573
731 0 1 -1.205449 -11.141237 6.765396
732 0 1 -0.903189 -11.890535 7.381973
733 0 1 -0.500319 -12.379038 6.609482
734 0 1 0.068591 -12.809538 5.915054
735 0 1 0.744661 -13.073538 6.565125
736 0 1 0.689370 -14.032137 6.601349
737 0 1 1.543836 -13.866438 6.272491
738 0 1 1.932168 -14.310938 7.058060
739 0 1 2.850065 -14.050137 7.198257
740 0 1 2.795324 -14.704237 7.909241
741 0 1 2.000566 -15.197336 7.757217
742 0 1 1.577625 -15.241837 8.600006
743 0 1 0.589832 -15.112336 8.930038
744 0 1 0.136661 -15.874137 9.334793
745 0 1 -0.139779 -16.814636 9.101746
746 0 1 0.540860 -17.455837 9.313629
747 0 1 1.244392 -17.980537 9.721786
748 0 1 1.979644 -17.682236 10.272095
749 0 1 1.339896 -18.260437 10.824997
750 0 1 1.113900 -18.024837 11.714005
751 0 1 0.281072 -17.584736 11.402405
752 0 1 -0.430379 -17.977837 10.967499
753 0 1 -0.950410 -18.570736 10.394302
754 0 1 -0.761418 -19.404137 10.796005
755 0 1 -1.689219 -19.405037 10.401505
756 0 1 -1.795569 -20.136936 9.817093
757 0 1 -2.734410 -20.297237 9.972580
758 0 1 -2.549649 -20.572336 9.096542
759 0 1 -1.668238 -20.791437 8.620712
760 0 1 -1.103120 -21.599937 8.612137
761 0 1 -0.532599 -21.813936 7.873886
762 0 1 0.306731 -22.025137 8.367310
763 0 1 0.377172 -21.064137 8.094666
764 0 1 1.152242 -21.427237 8.636673
765 0 1 1.442897 -21.474337 7.729218
766 0 1 1.717408 -20.596037 7.654266
767 0 1 0.787912 -20.311436 7.529327
768 0 1 1.060861 -19.942436 8.311737
769 0 1 0.370092 -19.388836 7.986877
770 0 1 -0.598149 -19.425236 7.982712
771 0 1 -1.297198 -18.809637 7.659134
772 0 1 -1.818068 -19.617737 7.318832
773 0 1 -2.298398 -18.987236 7.799164
774 0 1 -3.164159 -19.573336 7.735504
775 0 1 -2.981900 -19.591537 8.673767
776 0 1 -3.531918 -18.857836 8.513107
777 0 1 -4.411950 -18.791336 8.019196
778 0 1 -4.030620 -19.142336 7.174515
779 0 1 -3.440789 -19.019238 6.453293
780 0 1 -2.510018 -19.007736 6.294586
781 0 1 -2.561929 -18.585938 5.413422
782 0 1 -1.675568 -18.939236 5.442993
783 0 1 -0.943789 -19.168636 5.992371
784 0 1 -1.061869 -19.657637 5.170395
785 0 1 -1.559939 -20.287237 4.545517
786 0 1 -0.801129 -20.419037 3.930893
787 0 1 -0.503400 -19.778637 3.203262
788 0 1 -1.472419 -19.729736 2.859436
789 0 1 -2.265130 -20.308336 3.103012
790 0 1 -2.986520 -20.945637 2.997910
791 0 1 -2.416579 -21.574236 3.455414
792 0 1 -2.368428 -21.840736 4.315582
793 0 1 -1.601418 -21.679337 4.960068
794 0 1 -1.323668 -22.584337 5.313629
795 0 1 -2.159230 -23.042236 5.555695
796 0 1 -2.488999 -23.892536 5.142075
797 0 1 -3.317590 -23.705637 4.737778
798 0 1 -4.257619 -23.695536 4.352905