LAMMPS data file via MDAnalysis

        2000  atoms
        1999  bonds
           0  angles
           0  dihedrals
           0  impropers

           1  atom types
           1  bond types
           0  angle types
           0  dihedral types
           0  improper types

-30.5 30.5 xlo xhi
-30.5 30.5 ylo yhi
-233.5 233.5 zlo zhi


Masses

1 1.000000

Atoms

1 0 1 -5.967262 12.248801 78.444305
2 0 1 -5.149082 12.729804 78.147217
3 0 1 -4.546122 13.122203 78.823608
4 0 1 -4.405493 12.169303 78.635590
5 0 1 -3.590462 11.995002 78.146484
6 0 1 -2.814402 12.177505 77.593597
7 0 1 -2.075133 12.231002 76.937195
8 0 1 -2.033081 12.275901 75.971802
9 0 1 -1.466702 11.440101 76.358398
10 0 1 -0.625366 11.828704 76.577393
11 0 1 -0.159643 11.001903 76.436798
12 0 1 0.559055 11.089301 77.067017
13 0 1 1.438436 10.642501 77.061707
14 0 1 1.260988 10.107802 76.320892
15 0 1 1.219238 9.207404 75.923309
16 0 1 1.053678 9.496203 74.936310
17 0 1 1.965536 9.197803 74.706299
18 0 1 1.589659 8.291903 74.654785
19 0 1 2.003137 8.100303 75.547913
20 0 1 2.339327 7.404002 75.042114
21 0 1 2.901216 6.722602 75.338013
22 0 1 3.681299 6.048003 75.428589
23 0 1 3.930429 5.102252 75.497498
24 0 1 2.978929 5.065963 75.442108
25 0 1 3.329126 4.798522 74.458801
26 0 1 2.370779 4.753081 74.451782
27 0 1 1.928278 5.013114 73.695892
28 0 1 1.063358 5.177611 74.044312
29 0 1 0.943378 5.408401 73.097198
30 0 1 1.490438 5.547202 72.317596
31 0 1 2.354238 5.078414 72.549896
32 0 1 2.463499 4.212562 72.024811
33 0 1 3.371076 4.047004 71.881287
34 0 1 3.877229 4.844474 71.958618
35 0 1 3.788267 5.470702 71.161102
36 0 1 3.023298 5.961104 70.843506
37 0 1 3.144708 6.125304 69.944092
38 0 1 2.658167 6.937503 69.738007
39 0 1 1.962908 7.417502 70.119598
40 0 1 2.053888 8.347602 69.919617
41 0 1 1.558760 8.439605 69.127502
42 0 1 1.568739 9.386901 68.972412
43 0 1 0.653747 9.400702 69.365692
44 0 1 -0.087023 9.244201 69.930481
45 0 1 -0.758230 9.154704 69.306793
46 0 1 -0.469725 8.622405 68.444397
47 0 1 -0.306364 7.879603 67.897491
48 0 1 -0.125960 7.088202 67.401917
49 0 1 -0.957764 7.325702 66.982391
50 0 1 -0.815361 7.065303 66.042297
51 0 1 -1.383282 6.358302 66.510101
52 0 1 -0.478579 6.014205 66.493195
53 0 1 -0.267462 5.586604 65.628204
54 0 1 -1.028360 5.501304 64.988007
55 0 1 -0.986201 5.490203 64.090698
56 0 1 -0.020624 5.611602 64.339691
57 0 1 0.372810 6.318004 64.789490
58 0 1 1.016708 5.877803 65.477112
59 0 1 1.706308 6.025104 66.167786
60 0 1 2.324888 6.462905 66.747406
61 0 1 2.113958 7.231303 67.329712
62 0 1 3.069879 7.127501 67.673218
63 0 1 3.903047 7.420802 67.509308
64 0 1 4.397638 6.774604 67.047302
65 0 1 5.182768 7.266501 66.776917
66 0 1 5.681238 6.517501 66.311584
67 0 1 4.819277 6.057105 66.304688
68 0 1 5.025000 5.078753 66.473694
69 0 1 4.513868 4.648925 65.842712
70 0 1 4.207426 3.730304 65.776093
71 0 1 5.159227 3.880851 65.595215
72 0 1 5.884867 3.343105 65.885315
73 0 1 6.448599 2.918292 65.280304
74 0 1 5.671160 3.237174 64.881714
75 0 1 5.349787 3.975723 64.349701
76 0 1 5.457296 4.824752 63.845306
77 0 1 5.433889 5.584804 63.231689
78 0 1 6.157026 6.126101 63.321106
79 0 1 6.821417 5.987102 62.628387
80 0 1 6.337896 6.288302 61.848511
81 0 1 5.939077 6.868003 61.129700
82 0 1 5.064547 7.161304 60.934204
83 0 1 4.933760 7.519103 60.069885
84 0 1 5.750998 8.036605 60.074402
85 0 1 5.708609 8.237903 59.170898
86 0 1 6.486509 8.916701 59.093994
87 0 1 6.412649 9.270804 58.193298
88 0 1 5.574778 8.828303 57.906494
89 0 1 5.408339 7.933902 58.113007
90 0 1 4.694738 7.320403 58.188812
91 0 1 5.168329 6.717101 57.582306
92 0 1 4.238008 6.620402 57.342804
93 0 1 3.948568 6.088004 56.593109
94 0 1 3.536237 5.329993 56.993591
95 0 1 4.060308 4.946353 56.229187
96 0 1 4.842577 4.597354 55.713287
97 0 1 5.543787 4.435203 56.401184
98 0 1 5.488810 5.358783 56.335388
99 0 1 5.678556 6.358901 56.229187
100 0 1 5.428148 5.896304 55.300293
101 0 1 5.313959 6.480605 54.492188
102 0 1 5.229578 6.669604 53.543396
103 0 1 4.493109 6.818801 52.829712
104 0 1 4.398176 5.900104 52.569214
105 0 1 4.160418 5.288825 51.824799
106 0 1 4.779768 5.950004 51.606201
107 0 1 4.239210 5.886504 50.799713
108 0 1 3.871248 5.201903 50.319214
109 0 1 4.314577 4.281264 50.042297
110 0 1 3.832670 3.442214 49.959900
111 0 1 3.774229 3.884124 49.117889
112 0 1 4.199118 3.049651 48.868408
113 0 1 4.585077 2.238052 48.457489
114 0 1 4.686338 2.253345 49.373688
115 0 1 4.851229 3.090331 49.790283
116 0 1 5.050467 3.399192 50.690613
117 0 1 4.804838 2.685634 51.409485
118 0 1 4.260580 2.051605 51.929901
119 0 1 3.695108 1.710422 52.610901
120 0 1 3.843397 0.739692 52.787903
121 0 1 4.649458 1.215415 52.503296
122 0 1 5.449808 1.556903 52.980896
123 0 1 5.449858 2.447654 53.403900
124 0 1 4.680788 2.370895 54.026703
125 0 1 3.732748 2.227794 53.992401
126 0 1 3.041967 2.599422 54.533112
127 0 1 2.455427 1.935851 54.184387
128 0 1 1.901449 1.096614 54.312408
129 0 1 2.107019 0.462264 54.932190
130 0 1 2.401918 0.185641 54.064606
131 0 1 2.836138 -0.413396 54.686096
132 0 1 2.734930 -0.311917 55.733612
133 0 1 3.491419 0.194572 55.447205
134 0 1 3.529649 0.447013 56.337494
135 0 1 3.166158 -0.168767 56.929413
136 0 1 3.125410 0.660361 57.463409
137 0 1 3.714018 1.232192 57.912811
138 0 1 4.616339 1.463554 58.092804
139 0 1 5.327658 1.178905 58.720001
140 0 1 5.723757 0.319942 58.773407
141 0 1 6.236288 0.818164 59.349396
142 0 1 6.591436 1.229213 60.133392
143 0 1 6.256647 0.601943 60.746490
144 0 1 6.613268 -0.239968 60.965393
145 0 1 5.615290 -0.386098 61.148315
146 0 1 6.015627 -0.365968 62.019806
147 0 1 5.075788 -0.336137 62.228607
148 0 1 5.173590 -1.040688 62.830994
149 0 1 4.377546 -1.585267 62.524292
150 0 1 4.411268 -2.385327 63.109009
151 0 1 4.580709 -2.726315 64.012299
152 0 1 5.308287 -3.312777 63.775513
153 0 1 5.819738 -4.028579 64.150208
154 0 1 4.917669 -4.205766 64.606293
155 0 1 4.195917 -3.965661 64.059082
156 0 1 3.842119 -4.905263 63.963104
157 0 1 4.556307 -5.527532 63.698486
158 0 1 4.354338 -5.154647 62.824005
159 0 1 4.094248 -5.725778 62.153687
160 0 1 3.113409 -5.858537 62.091095
161 0 1 2.675997 -5.238147 62.698914
162 0 1 1.715937 -4.887994 62.482391
163 0 1 1.304449 -5.729238 62.411896
164 0 1 1.133089 -6.595027 62.812988
165 0 1 1.458818 -7.293187 63.360992
166 0 1 0.686941 -7.758088 63.714691
167 0 1 0.862037 -8.536458 64.135010
168 0 1 1.828497 -8.592366 63.990204
169 0 1 2.402300 -9.144397 63.501495
170 0 1 2.815939 -9.153956 62.622589
171 0 1 2.969187 -9.998357 63.027496
172 0 1 3.642809 -10.577447 63.419617
173 0 1 4.384089 -10.160928 62.955505
174 0 1 5.360628 -10.213077 62.762787
175 0 1 6.067698 -10.399938 63.476013
176 0 1 5.619749 -10.108417 64.306000
177 0 1 5.758059 -9.455827 63.626190
178 0 1 5.819578 -9.206376 62.728210
179 0 1 5.567087 -8.677266 61.929596
180 0 1 4.915537 -9.312436 61.589111
181 0 1 4.095327 -8.991138 61.046906
182 0 1 3.293157 -8.943727 60.506409
183 0 1 2.866186 -9.074838 59.676208
184 0 1 3.139017 -8.758597 58.827606
185 0 1 2.837950 -7.951407 59.200409
186 0 1 2.523439 -7.175197 59.607208
187 0 1 2.296739 -6.401088 59.108795
188 0 1 1.850798 -5.415864 59.130188
189 0 1 1.479139 -4.581544 59.225189
190 0 1 0.582529 -4.914407 59.085297
191 0 1 0.079506 -4.114715 59.252808
192 0 1 0.862907 -3.745978 58.822998
193 0 1 0.576113 -3.045895 58.189301
194 0 1 0.882788 -3.402217 57.385803
195 0 1 1.724539 -2.974278 57.305786
196 0 1 2.314070 -3.137055 56.581116
197 0 1 1.513327 -2.596307 56.257294
198 0 1 1.490568 -1.965588 55.515686
199 0 1 2.263220 -1.711537 56.026398
200 0 1 2.586557 -1.093106 56.691010
201 0 1 3.575948 -1.138688 56.518188
202 0 1 4.389448 -1.586717 56.628204
203 0 1 5.150667 -2.106717 56.307404
204 0 1 5.913279 -2.147507 55.693604
205 0 1 6.479380 -1.999806 54.949097
206 0 1 6.743628 -1.122357 55.192017
207 0 1 7.087587 -1.102925 54.362488
208 0 1 6.511049 -0.666608 53.685608
209 0 1 7.222300 -0.442818 53.093903
210 0 1 6.932570 -0.738286 52.251587
211 0 1 6.987890 -0.160249 51.413086
212 0 1 6.634398 0.569701 51.891510
213 0 1 6.685839 0.942584 51.018890
214 0 1 6.408258 1.514552 50.142883
215 0 1 6.785467 2.354705 49.734802
216 0 1 6.452658 3.185733 49.516602
217 0 1 7.160818 3.322242 48.832611
218 0 1 6.603376 3.378734 48.048401
219 0 1 5.664938 3.432193 47.821808
220 0 1 6.050718 4.215892 47.448792
221 0 1 5.889627 4.179854 46.508606
222 0 1 5.332678 3.936492 45.755890
223 0 1 4.810797 4.298125 46.537201
224 0 1 3.972128 4.599032 46.280609
225 0 1 3.305868 5.212993 46.712006
226 0 1 3.534757 6.099303 46.720886
227 0 1 2.922098 6.523303 47.317596
228 0 1 3.255907 7.378104 46.958893
229 0 1 3.822996 7.593802 46.182098
230 0 1 4.689886 7.989303 46.388184
231 0 1 5.605078 8.126204 46.236298
232 0 1 6.449690 7.763801 46.148102
233 0 1 6.283728 8.074401 45.252594
234 0 1 5.929499 8.922805 45.025787
235 0 1 6.834909 8.995002 44.658203
236 0 1 7.325506 8.574904 45.269897
237 0 1 7.743948 9.406604 45.388092
238 0 1 8.401396 8.811805 45.604187
239 0 1 8.744379 7.927901 45.427185
240 0 1 9.369097 7.235503 45.558502
241 0 1 10.059427 6.626002 45.345612
242 0 1 9.802008 6.452403 44.470795
243 0 1 10.195829 5.648002 44.913910
244 0 1 11.072828 5.357505 44.728302
245 0 1 11.963327 5.169684 44.640106
246 0 1 11.915129 5.074504 45.598602
247 0 1 12.737127 4.745475 45.266693
248 0 1 12.476328 3.940963 45.668701
249 0 1 11.648729 4.086783 45.134796
250 0 1 12.419027 3.815685 44.590088
251 0 1 13.181429 4.012103 44.089600
252 0 1 13.562429 4.770385 43.526184
253 0 1 13.032827 5.534904 43.308990
254 0 1 13.303030 6.284904 42.804596
255 0 1 13.734327 6.824203 42.023010
256 0 1 14.500628 6.659804 41.464691
257 0 1 14.021227 5.859904 41.300903
258 0 1 13.625929 5.545104 40.463287
259 0 1 12.944727 5.823501 41.067688
260 0 1 12.018129 5.936805 40.982300
261 0 1 12.155828 5.221164 41.605499
262 0 1 11.649626 4.910224 40.828796
263 0 1 11.360128 5.204551 39.952515
264 0 1 10.663027 5.801604 39.608093
265 0 1 10.349428 6.175704 38.794708
266 0 1 10.766127 5.813403 37.972290
267 0 1 10.652529 5.050464 38.536896
268 0 1 11.590128 4.916251 38.131897
269 0 1 11.846727 5.839805 38.050415
270 0 1 12.562330 6.551604 38.014404
271 0 1 13.322329 5.877105 38.004791
272 0 1 13.884027 6.583102 37.612915
273 0 1 14.119230 7.585402 37.657013
274 0 1 13.738527 7.472503 38.626099
275 0 1 14.452028 7.821105 39.080017
276 0 1 14.008429 8.491504 38.515594
277 0 1 13.887327 9.120402 39.202087
278 0 1 13.007029 9.432704 39.489990
279 0 1 12.804728 10.266105 39.094910
280 0 1 12.207930 10.384204 38.330505
281 0 1 11.525930 10.285502 37.622894
282 0 1 10.619528 9.994304 37.929291
283 0 1 9.776438 9.584502 38.119995
284 0 1 8.810118 9.794902 38.131195
285 0 1 8.056929 10.407004 37.930908
286 0 1 7.808779 10.436805 37.027191
287 0 1 7.540098 10.146304 36.134796
288 0 1 7.836256 10.711501 35.444611
289 0 1 7.709017 11.704505 35.255615
290 0 1 7.189787 11.538001 34.414490
291 0 1 6.375689 11.063804 34.507202
292 0 1 6.029387 11.921302 34.303589
293 0 1 5.709040 11.465003 33.477783
294 0 1 5.674479 10.984302 32.669312
295 0 1 4.747549 11.079402 32.872101
296 0 1 4.056749 10.442103 33.114807
297 0 1 4.233068 9.463302 33.055695
298 0 1 3.859869 9.545802 33.958710
299 0 1 3.073999 9.864203 34.523010
300 0 1 2.924040 10.181804 35.458801
301 0 1 3.587236 9.563903 35.653503
302 0 1 4.288710 8.894004 35.425812
303 0 1 5.072199 8.280601 35.378113
304 0 1 5.588949 8.725501 34.756195
305 0 1 5.958590 9.400405 35.240784
306 0 1 6.910418 9.301505 35.160187
307 0 1 6.772417 8.998904 34.290100
308 0 1 7.152899 8.610801 33.486511
309 0 1 7.443159 7.815303 33.975800
310 0 1 7.784147 7.333205 33.200989
311 0 1 8.057940 6.777404 33.986694
312 0 1 7.949186 5.784503 34.023590
313 0 1 7.668188 6.058803 33.187012
314 0 1 7.308470 5.176272 33.294891
315 0 1 7.575300 4.631064 34.058105
316 0 1 7.408140 3.739341 33.678101
317 0 1 7.180029 2.808555 33.400909
318 0 1 6.803659 2.257774 34.121490
319 0 1 6.831369 1.473571 33.562683
320 0 1 7.626516 1.371844 33.058716
321 0 1 8.217127 0.944251 33.659302
322 0 1 9.156519 0.948592 33.773499
323 0 1 9.881826 1.000083 33.132507
324 0 1 10.259829 1.313094 33.971100
325 0 1 11.047728 0.798965 33.916595
326 0 1 11.743128 1.565292 34.079498
327 0 1 12.211927 1.596442 33.136292
328 0 1 12.123930 0.774234 33.580200
329 0 1 12.927828 0.467052 34.002594
330 0 1 12.679827 -0.165017 34.778015
331 0 1 12.395430 -0.803506 35.441803
332 0 1 13.332327 -0.936688 35.254791
333 0 1 14.225527 -1.021226 34.876709
334 0 1 14.938929 -1.490937 34.559113
335 0 1 15.422926 -0.898297 33.975494
336 0 1 15.636728 -0.331849 33.187195
337 0 1 15.986528 0.160152 32.426788
338 0 1 16.805529 0.297652 31.924194
339 0 1 16.783827 1.050662 31.280396
340 0 1 17.487127 1.314422 30.743500
341 0 1 17.877127 0.420783 30.805115
342 0 1 17.813528 0.013423 31.623596
343 0 1 18.713327 -0.306836 31.254486
344 0 1 19.170427 -1.046708 30.833191
345 0 1 19.532431 -1.853509 30.411896
346 0 1 20.147627 -2.644116 30.282715
347 0 1 20.153028 -2.279137 29.369385
348 0 1 19.694929 -1.983067 28.628784
349 0 1 18.756330 -1.927766 28.730011
350 0 1 18.180929 -1.537747 28.065399
351 0 1 17.586531 -1.599748 27.286591
352 0 1 16.661726 -1.906686 27.753693
353 0 1 15.762129 -1.977956 28.141296
354 0 1 15.511328 -1.183747 27.619904
355 0 1 16.203329 -0.729695 28.058990
356 0 1 16.074530 0.184234 28.075592
357 0 1 15.211630 0.665134 28.256195
358 0 1 14.538927 0.031173 28.365692
359 0 1 13.932627 -0.244386 27.680298
360 0 1 13.194227 -0.546037 28.311890
361 0 1 12.586428 -0.204308 27.659607
362 0 1 12.247629 -1.120698 27.447510
363 0 1 11.335028 -1.003846 27.614685
364 0 1 11.439928 -2.055138 27.689392
365 0 1 11.229029 -2.806046 28.249695
366 0 1 10.799929 -2.771497 27.378906
367 0 1 10.457727 -2.313508 26.653412
368 0 1 9.546957 -2.711667 26.846802
369 0 1 9.724268 -3.118035 25.959198
370 0 1 10.582327 -3.185918 25.573792
371 0 1 10.658430 -2.376946 25.014893
372 0 1 11.184229 -1.867078 24.350098
373 0 1 11.193628 -2.025498 23.429596
374 0 1 11.015329 -2.018918 22.479996
375 0 1 10.874529 -2.881806 21.888397
376 0 1 11.439726 -3.475608 22.397903
377 0 1 11.434927 -4.362456 22.594910
378 0 1 12.027830 -4.919507 22.045395
379 0 1 11.722929 -5.349961 22.890289
380 0 1 11.966726 -5.957047 23.609711
381 0 1 11.810629 -6.895978 23.765900
382 0 1 12.471727 -7.545327 23.917297
383 0 1 12.081728 -8.280328 24.346497
384 0 1 11.136030 -8.315097 24.514008
385 0 1 11.609327 -9.128266 24.933014
386 0 1 11.313829 -8.880887 25.862213
387 0 1 11.475428 -9.814918 25.687592
388 0 1 10.651827 -10.054067 26.132690
389 0 1 9.703508 -9.846417 26.178406
390 0 1 9.677057 -9.478957 27.054016
391 0 1 9.181658 -10.318147 27.320496
392 0 1 9.546198 -10.886497 26.556000
393 0 1 9.096098 -11.082948 25.746704
394 0 1 9.636377 -11.579337 25.169495
395 0 1 9.723158 -12.450517 24.706604
396 0 1 10.146429 -12.286407 23.881897
397 0 1 10.641027 -13.147897 23.929688
398 0 1 10.124727 -13.944667 24.208893
399 0 1 9.415949 -14.412457 23.696808
400 0 1 8.602087 -14.670098 23.240814
401 0 1 9.145418 -14.734897 22.406799
402 0 1 9.985830 -14.223517 22.471497
403 0 1 9.679106 -13.850467 21.677704
404 0 1 10.115728 -13.655587 20.903793
405 0 1 10.316027 -14.420577 20.385300
406 0 1 10.350828 -14.968997 21.137299
407 0 1 10.387327 -15.837697 21.556198
408 0 1 9.962629 -16.507298 22.096603
409 0 1 10.220030 -17.192396 21.451904
410 0 1 10.803228 -17.202297 22.148102
411 0 1 10.952726 -16.904196 23.049988
412 0 1 10.898729 -17.893997 23.132996
413 0 1 10.538229 -17.549397 23.957092
414 0 1 9.966829 -18.168495 24.504486
415 0 1 10.071829 -18.634197 25.339294
416 0 1 10.068628 -19.464096 25.878113
417 0 1 9.741346 -19.745897 26.815399
418 0 1 8.943449 -20.140896 27.174896
419 0 1 8.738359 -19.420296 26.561584
420 0 1 7.965536 -18.811398 26.699097
421 0 1 7.380087 -18.794096 25.902191
422 0 1 7.126280 -17.921497 26.103912
423 0 1 6.781309 -17.169697 26.619812
424 0 1 6.079779 -17.369696 27.331696
425 0 1 5.770468 -18.219795 27.731201
426 0 1 5.144747 -18.913795 27.491913
427 0 1 4.446917 -18.914795 26.841400
428 0 1 4.052366 -19.335197 25.975800
429 0 1 3.237200 -19.255297 25.572998
430 0 1 2.811956 -19.673697 26.400909
431 0 1 2.638147 -18.712795 26.516785
432 0 1 3.143617 -17.898296 26.743103
433 0 1 2.284208 -17.690296 26.261414
434 0 1 3.184950 -17.681896 25.730408
435 0 1 3.937128 -17.256296 26.170593
436 0 1 4.916739 -17.261896 26.062500
437 0 1 5.511877 -16.392097 26.082794
438 0 1 6.264238 -16.877296 25.770813
439 0 1 6.778097 -16.105797 25.859314
440 0 1 7.400579 -16.427696 25.176514
441 0 1 8.077650 -15.983197 25.709686
442 0 1 8.027559 -16.252197 26.617004
443 0 1 8.670359 -15.523198 26.700989
444 0 1 9.193857 -15.133798 27.392700
445 0 1 9.017427 -14.895997 28.267090
446 0 1 9.126749 -14.946397 29.342987
447 0 1 8.488718 -14.940198 30.081696
448 0 1 8.803579 -14.003127 30.142792
449 0 1 7.886538 -14.056828 29.752594
450 0 1 7.066359 -14.512637 29.481598
451 0 1 6.344549 -15.004197 29.225494
452 0 1 6.283888 -14.466437 28.421112
453 0 1 6.136290 -14.727098 27.520599
454 0 1 5.607977 -15.127597 26.831207
455 0 1 4.863268 -14.765197 27.289612
456 0 1 5.256868 -13.893216 27.453094
457 0 1 4.906137 -13.458327 26.681305
458 0 1 4.088400 -13.470696 27.194092
459 0 1 3.877779 -12.798087 27.885498
460 0 1 4.489508 -12.169568 28.283905
461 0 1 4.817148 -11.338107 28.587494
462 0 1 5.502157 -11.003488 28.021912
463 0 1 4.927637 -10.289147 28.382904
464 0 1 5.074270 -9.409097 28.731201
465 0 1 5.395376 -8.811196 28.025513
466 0 1 6.221418 -8.978827 27.482513
467 0 1 5.867449 -9.377316 26.746399
468 0 1 5.180807 -8.942897 26.201508
469 0 1 4.253229 -8.890178 25.880096
470 0 1 3.606619 -9.565267 25.496399
471 0 1 3.082987 -10.051257 24.888916
472 0 1 2.246736 -9.694467 25.090698
473 0 1 2.416479 -10.573056 25.484711
474 0 1 2.454717 -10.965466 26.465912
475 0 1 1.609030 -10.842196 26.898712
476 0 1 1.270819 -11.629268 27.428711
477 0 1 0.561836 -12.229806 27.659912
478 0 1 -0.051951 -12.191068 28.427490
479 0 1 0.345045 -12.243087 29.362396
480 0 1 0.708153 -11.353337 29.571289
481 0 1 0.859869 -10.677577 30.183899
482 0 1 1.216669 -9.746137 29.958710
483 0 1 2.066519 -9.663476 30.509491
484 0 1 2.681257 -9.327416 31.244110
485 0 1 2.603208 -8.721116 31.941284
486 0 1 1.710478 -8.401967 32.065308
487 0 1 1.258287 -8.082248 32.819611
488 0 1 1.932516 -8.773356 32.955109
489 0 1 2.434976 -8.454158 33.644196
490 0 1 1.733278 -8.200757 34.328705
491 0 1 1.850378 -9.046268 34.691284
492 0 1 2.712587 -8.787208 35.102783
493 0 1 3.667619 -9.114078 34.748901
494 0 1 3.829736 -8.982808 33.822693
495 0 1 3.722749 -8.046798 33.789795
496 0 1 3.536867 -7.136497 33.661499
497 0 1 3.389848 -7.415137 32.698303
498 0 1 3.195657 -6.686467 32.115387
499 0 1 3.079336 -5.757207 31.799988
500 0 1 2.964308 -6.244946 30.944702
501 0 1 3.876878 -5.876697 30.928802
502 0 1 4.382727 -6.761046 30.728699
503 0 1 4.238169 -7.263907 31.536896
504 0 1 3.261556 -7.616948 31.542389
505 0 1 3.285078 -7.585567 30.585510
506 0 1 2.962766 -7.323478 29.677887
507 0 1 2.198999 -7.921807 29.510590
508 0 1 1.945120 -7.048587 29.071808
509 0 1 1.723806 -6.331687 29.684998
510 0 1 0.979418 -6.202367 30.250305
511 0 1 0.453951 -6.982198 30.470215
512 0 1 0.692249 -7.061437 31.368408
513 0 1 -0.161358 -6.705108 31.292786
514 0 1 -0.644175 -6.653987 32.130310
515 0 1 -0.617651 -6.251687 33.054810
516 0 1 -1.353783 -6.074218 33.730408
517 0 1 -1.596022 -5.157908 34.065491
518 0 1 -0.922148 -4.852447 34.679504
519 0 1 -0.779745 -4.395993 35.535706
520 0 1 0.099352 -4.618896 35.490601
521 0 1 0.266798 -4.893699 36.385590
522 0 1 0.677860 -5.819448 36.300995
523 0 1 1.359079 -6.165288 36.881500
524 0 1 0.882429 -6.956067 37.057312
525 0 1 1.803568 -6.931787 37.443512
526 0 1 1.844419 -6.677796 38.369904
527 0 1 1.060299 -6.470138 38.821594
528 0 1 1.293268 -6.495008 39.750610
529 0 1 2.205358 -6.627017 40.002197
530 0 1 3.056749 -6.454066 39.569092
531 0 1 3.104967 -5.687217 38.776093
532 0 1 2.370600 -5.136128 39.067413
533 0 1 2.325746 -4.243627 38.713501
534 0 1 3.244657 -4.055779 38.974701
535 0 1 2.871717 -3.780566 39.858795
536 0 1 3.427557 -3.008626 39.933502
537 0 1 3.922930 -2.227608 39.930511
538 0 1 4.269506 -1.497468 40.419800
539 0 1 5.078577 -1.688138 41.006500
540 0 1 5.206629 -2.615018 41.128204
541 0 1 4.601118 -2.746827 41.895294
542 0 1 4.789770 -1.970418 42.397797
543 0 1 3.977369 -2.135728 42.966797
544 0 1 3.442419 -2.902318 42.624390
545 0 1 2.843759 -2.173047 42.498413
546 0 1 2.905729 -1.262246 42.346893
547 0 1 2.229566 -1.303857 41.568695
548 0 1 2.128858 -1.372186 40.671814
549 0 1 2.714018 -1.727666 39.965912
550 0 1 2.590368 -1.076798 39.206512
551 0 1 2.319078 -0.893658 38.281799
552 0 1 2.460199 -0.013287 38.102112
553 0 1 2.927248 0.881694 38.212799
554 0 1 2.639139 1.802913 38.327209
555 0 1 2.828249 2.639674 38.774292
556 0 1 3.401537 3.019534 38.146210
557 0 1 3.777399 3.906211 38.078705
558 0 1 4.247519 4.605113 38.455505
559 0 1 4.664679 5.121802 39.152405
560 0 1 4.336599 4.361754 39.662903
561 0 1 4.036169 4.657233 40.589600
562 0 1 3.436849 3.930305 40.769287
563 0 1 2.607576 3.504054 40.439087
564 0 1 2.219259 3.474685 41.344116
565 0 1 3.035768 3.058753 41.747711
566 0 1 3.261457 2.173774 42.035095
567 0 1 3.983358 1.649524 42.403290
568 0 1 4.844759 1.886722 42.471008
569 0 1 4.939768 1.042194 42.875183
570 0 1 5.307238 0.417243 42.201111
571 0 1 5.256887 1.043002 41.385895
572 0 1 5.894308 1.781222 41.438995
573 0 1 6.791647 1.654273 41.274597
574 0 1 7.667570 1.208182 41.228790
575 0 1 8.022768 0.701244 40.544891
576 0 1 7.379099 1.036922 39.920288
577 0 1 7.094816 1.525794 39.107300
578 0 1 6.594217 2.173553 39.618988
579 0 1 7.001440 2.978824 40.025391
580 0 1 7.455717 3.579524 40.638702
581 0 1 7.035189 4.480773 40.313690
582 0 1 7.402819 4.593154 39.400604
583 0 1 6.782579 5.249213 39.118988
584 0 1 6.450209 4.558322 38.605194
585 0 1 6.084169 5.440604 38.365784
586 0 1 5.850069 4.864371 37.598206
587 0 1 6.208647 5.394004 36.935211
588 0 1 5.833979 4.961425 36.097107
589 0 1 4.951128 5.158034 36.290497
590 0 1 5.139948 6.074004 36.088501
591 0 1 4.958147 6.611304 35.372314
592 0 1 4.528727 6.432105 34.537415
593 0 1 3.626096 6.216502 34.513306
594 0 1 3.450796 5.407702 34.932587
595 0 1 3.243486 4.946952 35.758789
596 0 1 3.436979 5.874103 36.019196
597 0 1 2.907049 6.570403 36.281006
598 0 1 2.633058 6.944102 35.410095
599 0 1 2.446310 7.907004 35.638702
600 0 1 2.141096 7.935302 34.741913
601 0 1 1.316599 8.339503 35.028290
602 0 1 0.670706 9.011603 35.240509
603 0 1 1.299309 9.279902 34.407104
604 0 1 1.797369 9.466002 35.215607
605 0 1 1.829317 9.475501 36.152191
606 0 1 1.468550 9.678802 37.065613
607 0 1 0.719189 9.147002 36.733704
608 0 1 0.031570 9.348704 36.095215
609 0 1 -0.447861 10.056403 35.644104
610 0 1 -0.910650 10.648704 35.062012
611 0 1 -0.230669 10.061202 34.675598
612 0 1 -0.672268 9.239203 34.246490
613 0 1 -0.545660 9.910403 33.476898
614 0 1 -0.178780 9.440803 32.712585
615 0 1 -0.044703 9.488002 31.741302
616 0 1 0.760023 9.958602 31.865204
617 0 1 0.080673 10.417304 31.298309
618 0 1 0.589565 10.896003 30.595795
619 0 1 0.120626 11.144202 29.788300
620 0 1 0.705856 10.893905 29.035706
621 0 1 1.531748 11.321303 29.199799
622 0 1 2.052679 10.541903 28.969696
623 0 1 1.777319 9.836703 29.608704
624 0 1 1.721586 10.039203 30.551788
625 0 1 1.046657 9.425502 30.221985
626 0 1 1.787577 8.853103 30.097992
627 0 1 1.802698 8.237304 30.814301
628 0 1 2.170877 7.862002 30.019501
629 0 1 1.696669 7.489802 29.247101
630 0 1 2.603208 7.190803 29.084900
631 0 1 2.967458 8.104602 29.203705
632 0 1 3.202348 9.009402 29.333191
633 0 1 3.416868 9.614501 30.104004
634 0 1 3.111276 8.845202 30.690399
635 0 1 4.038340 8.726401 31.081299
636 0 1 4.726080 8.929305 31.698608
637 0 1 5.667887 8.992805 31.458405
638 0 1 5.456137 8.277503 30.907593
639 0 1 4.994070 7.727603 31.704407
640 0 1 4.173620 7.241103 31.744293
641 0 1 4.936289 6.734302 32.113403
642 0 1 5.834410 6.556403 31.803497
643 0 1 6.001337 7.359405 31.287201
644 0 1 6.366938 8.032104 31.946411
645 0 1 6.740549 7.971503 31.010895
646 0 1 7.668268 7.994201 31.278900
647 0 1 8.569868 7.972903 31.006409
648 0 1 8.858686 8.594203 30.359894
649 0 1 8.142859 9.227805 30.343109
650 0 1 8.942076 9.764903 30.257385
651 0 1 9.406389 10.185103 31.006592
652 0 1 9.977530 10.448401 30.297089
653 0 1 10.929129 10.404803 30.106903
654 0 1 10.769529 11.106101 30.807098
655 0 1 11.708529 11.441405 30.949890
656 0 1 11.776030 10.463103 30.704193
657 0 1 12.493128 10.578902 30.083008
658 0 1 11.830229 10.235503 29.447296
659 0 1 12.439528 10.428405 28.722992
660 0 1 12.207727 9.804702 27.989685
661 0 1 12.675928 9.202102 28.676788
662 0 1 13.130827 8.727103 29.334503
663 0 1 13.368128 9.724902 29.375610
664 0 1 14.094728 9.693904 29.968689
665 0 1 14.348928 8.784102 30.247498
666 0 1 15.298330 8.775901 30.162506
667 0 1 15.970526 8.975204 29.424103
668 0 1 15.986628 9.841903 28.962189
669 0 1 16.613329 9.351302 28.445496
670 0 1 17.466528 8.999602 28.721893
671 0 1 17.499426 8.260303 28.050812
672 0 1 18.192728 7.744002 27.667999
673 0 1 18.452627 7.203704 26.937012
674 0 1 19.253729 7.754104 27.182800
675 0 1 19.567129 8.104903 26.388306
676 0 1 20.537527 8.163703 26.377686
677 0 1 21.003729 8.488502 25.640900
678 0 1 21.884527 8.255904 25.459686
679 0 1 21.315527 7.577003 25.909698
680 0 1 21.243029 6.692302 25.507812
681 0 1 22.106028 6.662101 26.010712
682 0 1 21.643827 5.822104 26.213898
683 0 1 20.932631 5.156604 26.333191
684 0 1 21.463228 5.284953 27.134796
685 0 1 21.403627 5.363002 28.045807
686 0 1 21.475428 6.078902 28.678009
687 0 1 20.618929 6.452201 28.887512
688 0 1 19.922628 6.943603 29.392303
689 0 1 19.773928 6.887305 30.354187
690 0 1 19.460928 6.814704 31.256500
691 0 1 19.518229 6.061702 31.967499
692 0 1 18.725328 6.185302 32.545288
693 0 1 18.224127 6.459102 31.777496
694 0 1 18.461729 7.415702 31.695099
695 0 1 18.053526 8.110305 31.228699
696 0 1 18.851728 8.492702 30.778015
697 0 1 19.438627 8.977302 31.410400
698 0 1 18.796629 9.632102 31.765106
699 0 1 18.007029 9.013801 31.845306
700 0 1 17.682028 9.875701 32.041107
701 0 1 16.993128 9.531104 32.617493
702 0 1 16.516428 10.232902 32.273895
703 0 1 16.517828 10.000701 31.363098
704 0 1 17.041929 9.927302 30.519501
705 0 1 16.950529 9.918803 29.519104
706 0 1 17.859228 9.984103 29.282898
707 0 1 17.681627 10.878203 28.966400
708 0 1 17.294329 10.284705 28.325012
709 0 1 16.603628 10.749003 27.815186
710 0 1 15.800928 10.327304 27.769989
711 0 1 16.044329 9.436603 27.321411
712 0 1 15.260729 9.700404 26.846985
713 0 1 15.084730 9.969604 25.942902
714 0 1 14.949728 9.541503 25.110413
715 0 1 14.732130 9.977004 24.220093
716 0 1 14.616827 10.662704 23.614288
717 0 1 14.187529 10.722205 22.794098
718 0 1 13.688330 10.034705 23.285400
719 0 1 12.760328 9.541804 23.065704
720 0 1 11.950327 8.950103 23.142487
721 0 1 11.129229 9.471503 22.942688
722 0 1 10.984426 10.019401 23.735992
723 0 1 10.871527 10.837401 24.314209
724 0 1 11.155828 11.095405 23.418488
725 0 1 11.062727 11.542903 22.556396
726 0 1 11.077127 12.380702 23.104492
727 0 1 10.506430 13.116004 23.337311
728 0 1 10.555029 13.338805 24.300201
729 0 1 10.620230 14.046702 25.092010
730 0 1 10.149427 14.519103 25.785492
731 0 1 10.309530 15.375602 25.380096
732 0 1 10.254728 15.773204 24.474701
733 0 1 9.763758 15.292903 23.806793
734 0 1 10.240828 15.042502 23.040894
735 0 1 9.563307 14.971004 22.325302
736 0 1 10.055227 14.659705 21.568497
737 0 1 10.983728 14.911704 21.226303
738 0 1 11.312227 14.141902 21.794403
739 0 1 11.349527 13.468101 21.101105
740 0 1 11.439329 13.191203 20.203903
741 0 1 11.333029 14.220801 20.197495
742 0 1 11.705526 15.107100 20.110992
743 0 1 11.865629 15.579001 19.292496
744 0 1 11.361128 16.006302 18.560104
745 0 1 11.552828 15.283504 17.956802
746 0 1 11.397127 14.696303 17.113205
747 0 1 11.708029 15.634402 16.945801
748 0 1 11.946630 15.139503 16.136703
749 0 1 11.961229 14.400203 15.431305
750 0 1 11.306128 13.694602 15.138306
751 0 1 11.946329 13.173804 14.609695
752 0 1 12.909029 13.129703 14.534103
753 0 1 12.509729 12.484504 13.948502
754 0 1 12.261728 11.551204 13.877899
755 0 1 12.734629 10.863502 13.483093
756 0 1 12.726130 10.092303 12.913406
757 0 1 11.908529 9.625003 12.552200
758 0 1 11.198729 9.732203 11.898102
759 0 1 11.681528 9.084903 11.431396
760 0 1 11.286928 8.351703 11.864700
761 0 1 12.027529 7.696105 11.900406
762 0 1 12.631430 7.559802 11.262299
763 0 1 11.895430 6.960601 11.192505
764 0 1 11.370329 6.294703 11.641602
765 0 1 10.981928 5.449302 11.943298
766 0 1 11.437429 4.771491 12.432693
767 0 1 10.812529 4.671382 13.108200
768 0 1 9.970629 4.318862 13.408096
769 0 1 9.244947 3.686473 13.563904
770 0 1 8.375238 3.487323 13.795303
771 0 1 8.079439 4.319312 13.373993
772 0 1 7.353979 4.886363 13.678604
773 0 1 6.505720 4.730983 13.198898
774 0 1 5.692247 4.547355 12.629105
775 0 1 6.083117 5.114684 11.960098
776 0 1 5.877439 4.218524 11.572205
777 0 1 5.172159 3.656532 11.846497
778 0 1 4.718260 4.461734 11.972305
779 0 1 4.358187 5.367503 12.070099
780 0 1 3.684286 4.669951 11.982498
781 0 1 3.239568 4.483863 11.106506
782 0 1 2.333147 4.763972 11.215393
783 0 1 1.891367 4.906272 10.397797
784 0 1 1.771688 5.811702 10.776001
785 0 1 0.814009 5.976802 10.467896
786 0 1 1.258037 5.870502 9.594666
787 0 1 0.558807 6.444503 9.331787
788 0 1 0.359209 6.506301 8.367279
789 0 1 0.111437 6.855803 7.398254
790 0 1 0.605543 7.648505 7.728546
791 0 1 0.194551 7.793204 6.891906
792 0 1 -0.278917 8.104403 6.154647
793 0 1 0.132168 7.323905 5.838806
794 0 1 0.596041 7.891704 5.206542
795 0 1 -0.127731 8.143703 4.578369
796 0 1 0.374407 8.149302 3.793396
797 0 1 -0.403858 7.738303 3.301086
798 0 1 -0.817839 8.042205 2.440643
799 0 1 -0.024428 7.788505 1.960006
800 0 1 -0.673298 7.505904 1.314117
801 0 1 -1.412592 6.917403 1.048294
802 0 1 -1.390082 7.073302 1.993270
803 0 1 -1.431212 6.070601 2.164947
804 0 1 -1.555672 5.458102 1.402267
805 0 1 -0.917416 4.857963 0.999343