LAMMPS data file via MDAnalysis

        2000  atoms
        1999  bonds
           0  angles
           0  dihedrals
           0  impropers

           1  atom types
           1  bond types
           0  angle types
           0  dihedral types
           0  improper types

-30.5 30.5 xlo xhi
-30.5 30.5 ylo yhi
-233.5 233.5 zlo zhi


Masses

1 1.000000

Atoms

1 0 1 -19.169775 -7.826008 81.335297
2 0 1 -18.948175 -7.404738 82.175415
3 0 1 -18.622675 -8.235338 82.427795
4 0 1 -18.563675 -7.957629 83.342499
5 0 1 -17.911474 -7.681168 83.971893
6 0 1 -17.854574 -6.809098 84.389893
7 0 1 -18.497675 -6.105917 84.565094
8 0 1 -18.797375 -5.177557 84.731384
9 0 1 -18.019175 -4.688288 84.957611
10 0 1 -17.430874 -4.023818 84.496704
11 0 1 -16.669575 -3.873139 85.040588
12 0 1 -15.836975 -3.358069 84.860413
13 0 1 -16.625975 -2.805815 84.999207
14 0 1 -16.166174 -3.050009 85.820190
15 0 1 -16.473974 -2.238693 86.231598
16 0 1 -16.241375 -1.547844 86.977295
17 0 1 -16.064375 -1.222622 86.127411
18 0 1 -15.938574 -1.321251 85.166290
19 0 1 -15.942076 -1.461737 84.224091
20 0 1 -16.176275 -0.480997 84.260590
21 0 1 -16.220274 0.104242 85.001404
22 0 1 -16.615875 0.651853 84.306519
23 0 1 -17.291075 0.254060 83.802795
24 0 1 -17.635176 0.995821 83.375183
25 0 1 -17.504574 0.371031 82.629089
26 0 1 -16.603174 0.050131 82.378418
27 0 1 -15.969875 -0.599919 82.720886
28 0 1 -15.091875 -0.282839 82.662689
29 0 1 -14.648676 0.300211 82.013184
30 0 1 -13.937075 -0.037817 82.455109
31 0 1 -13.430475 -0.033598 83.280884
32 0 1 -12.730974 0.546663 82.888306
33 0 1 -12.087875 0.346391 82.179901
34 0 1 -11.480936 -0.320250 82.458893
35 0 1 -10.611494 -0.629288 82.419617
36 0 1 -9.831865 -1.073727 82.560089
37 0 1 -8.925545 -1.272225 82.385101
38 0 1 -8.833216 -1.825892 83.193787
39 0 1 -8.114626 -2.400631 83.572998
40 0 1 -7.991575 -2.507836 82.605194
41 0 1 -7.520966 -3.314827 82.926208
42 0 1 -7.136946 -3.150608 82.101318
43 0 1 -6.939356 -3.304167 81.124084
44 0 1 -6.403835 -4.039179 80.891602
45 0 1 -5.859655 -3.586859 80.244110
46 0 1 -4.933245 -3.299998 80.357910
47 0 1 -4.186584 -3.294619 80.940796
48 0 1 -3.469734 -3.633078 80.414307
49 0 1 -3.528965 -4.041888 79.535706
50 0 1 -4.127655 -4.511479 78.884003
51 0 1 -3.999695 -3.910498 78.185913
52 0 1 -4.684395 -4.369957 77.662903
53 0 1 -5.256756 -4.752308 76.970703
54 0 1 -4.471815 -5.272139 76.772308
55 0 1 -3.551636 -5.089589 76.525696
56 0 1 -3.601154 -6.003489 76.064911
57 0 1 -2.889894 -6.035319 76.710693
58 0 1 -2.182297 -5.576779 76.305603
59 0 1 -1.471222 -5.017968 76.144806
60 0 1 -1.201074 -5.160979 75.218506
61 0 1 -0.739174 -5.896929 74.857300
62 0 1 -1.226072 -6.650168 74.369812
63 0 1 -0.606064 -6.257168 73.670197
64 0 1 -0.456335 -5.529858 73.067017
65 0 1 -0.305034 -4.790638 72.277893
66 0 1 0.342905 -4.710787 72.959290
67 0 1 0.830595 -5.295039 72.475708
68 0 1 0.406237 -6.095759 72.219391
69 0 1 -0.254484 -6.815718 72.468018
70 0 1 0.212897 -7.494757 72.871307
71 0 1 -0.265795 -7.920289 73.605591
72 0 1 0.509073 -8.096327 74.152008
73 0 1 0.064924 -7.775248 75.015991
74 0 1 -0.297294 -6.956349 75.291382
75 0 1 0.366156 -6.330388 75.542206
76 0 1 1.197867 -5.992558 75.172089
77 0 1 1.922884 -5.670517 75.808289
78 0 1 2.039885 -5.038489 75.117706
79 0 1 2.120554 -4.130188 75.388184
80 0 1 2.913275 -3.483128 75.307800
81 0 1 3.681315 -4.076128 74.933289
82 0 1 4.603254 -3.889078 75.038696
83 0 1 4.802866 -3.822249 76.004089
84 0 1 5.524996 -3.576319 75.397888
85 0 1 5.624414 -3.250769 74.459503
86 0 1 5.697046 -3.386978 73.539307
87 0 1 6.054995 -4.368758 73.721405
88 0 1 5.408915 -5.090518 73.661804
89 0 1 5.753134 -5.654669 72.955597
90 0 1 6.596514 -5.180598 72.994904
91 0 1 6.445745 -5.158528 71.976593
92 0 1 6.937094 -4.415679 72.217285
93 0 1 6.677404 -4.030209 71.324799
94 0 1 7.226904 -3.264427 71.241394
95 0 1 6.501867 -2.611359 71.284210
96 0 1 7.243223 -2.244871 71.681610
97 0 1 7.779234 -1.450335 71.665405
98 0 1 8.375647 -1.188834 70.951508
99 0 1 8.948523 -1.913889 71.368500
100 0 1 9.538527 -2.695765 71.211700
101 0 1 9.366026 -3.250408 70.474182
102 0 1 9.216726 -2.752913 69.670410
103 0 1 9.244326 -2.762635 68.748901
104 0 1 10.244627 -2.683193 68.486389
105 0 1 10.742826 -2.536383 67.676086
106 0 1 10.409727 -1.863917 66.984009
107 0 1 9.716223 -1.480843 67.549500
108 0 1 8.845324 -1.723467 67.187317
109 0 1 9.200724 -1.515826 66.314697
110 0 1 10.005526 -0.896033 66.461792
111 0 1 9.192724 -0.505509 66.816284
112 0 1 8.752726 0.350523 66.700104
113 0 1 7.990965 0.684442 67.231689
114 0 1 7.282606 -0.015589 67.363708
115 0 1 6.437056 0.021501 67.879517
116 0 1 5.726774 0.651613 67.899414
117 0 1 5.030375 0.636453 67.239685
118 0 1 4.445967 1.094202 66.625092
119 0 1 3.840586 1.745542 67.019897
120 0 1 4.273066 1.912733 67.990784
121 0 1 4.602785 2.038603 68.894409
122 0 1 4.136526 1.320333 69.092712
123 0 1 4.769335 0.599832 68.929688
124 0 1 4.552824 -0.220599 68.524689
125 0 1 4.544157 -1.106514 68.078186
126 0 1 4.369314 -1.009982 67.168610
127 0 1 4.506346 -1.919213 66.920593
128 0 1 4.107916 -2.634333 66.366089
129 0 1 3.918715 -3.540718 66.718384
130 0 1 3.166144 -3.219069 67.210907
131 0 1 2.947756 -2.942139 68.187408
132 0 1 2.470694 -2.258648 67.720093
133 0 1 1.623144 -1.806675 67.590393
134 0 1 2.134905 -2.046316 66.812103
135 0 1 1.562304 -2.255366 66.102203
136 0 1 2.247916 -2.910048 66.106110
137 0 1 2.323374 -3.356198 65.292114
138 0 1 2.167277 -3.264227 64.386505
139 0 1 2.596377 -3.345888 63.500092
140 0 1 2.696486 -3.714419 62.592102
141 0 1 2.205446 -4.490168 62.363007
142 0 1 1.704226 -4.941767 61.573700
143 0 1 1.947195 -4.766749 60.617096
144 0 1 2.336954 -4.002898 60.254700
145 0 1 2.354655 -3.967697 59.329010
146 0 1 3.020476 -3.471277 58.916809
147 0 1 2.742975 -2.703285 58.399292
148 0 1 3.439875 -1.910054 58.361084
149 0 1 3.584566 -1.424195 57.550507
150 0 1 3.996615 -0.581038 57.558502
151 0 1 3.619616 -0.153128 56.742188
152 0 1 3.003416 0.699983 56.590210
153 0 1 3.743525 0.687151 55.952698
154 0 1 4.053267 1.378511 55.425903
155 0 1 4.538755 1.783701 56.222900
156 0 1 4.713507 2.709821 55.961914
157 0 1 5.468794 2.169191 55.591492
158 0 1 5.836554 3.004301 55.919800
159 0 1 6.238577 3.196943 56.793304
160 0 1 6.677526 2.354223 56.881500
161 0 1 7.206396 2.401373 56.031708
162 0 1 6.899416 1.550981 55.662109
163 0 1 7.273184 1.160402 56.493805
164 0 1 7.615126 0.614053 57.233704
165 0 1 8.280203 1.406641 57.152405
166 0 1 8.906927 1.373170 57.859802
167 0 1 8.778624 0.431600 57.601196
168 0 1 9.138525 0.577512 56.726898
169 0 1 10.041525 1.000002 56.678101
170 0 1 10.655024 1.381952 55.980713
171 0 1 10.415327 2.022131 55.327606
172 0 1 10.892424 2.604791 55.984100
173 0 1 11.727625 2.215711 56.219604
174 0 1 12.444227 2.321131 56.877197
175 0 1 12.190123 1.694624 57.569214
176 0 1 11.987925 2.016641 58.446411
177 0 1 12.487524 2.785612 58.164398
178 0 1 13.443926 2.920503 58.494904
179 0 1 14.416124 2.923532 58.494995
180 0 1 15.323927 3.414331 58.366791
181 0 1 15.987226 3.462702 57.733795
182 0 1 16.652327 2.782263 57.913788
183 0 1 16.410627 2.021921 57.390411
184 0 1 17.296724 1.649461 57.031891
185 0 1 16.521425 1.282602 56.535187
186 0 1 17.194025 0.891073 55.954407
187 0 1 16.704626 0.233034 56.408905
188 0 1 16.095724 0.598871 55.694489
189 0 1 16.349726 0.971773 54.857391
190 0 1 16.402723 0.845003 53.866516
191 0 1 16.248125 -0.110190 53.760895
192 0 1 17.187525 -0.399597 53.828888
193 0 1 17.817724 0.359613 53.797302
194 0 1 17.691923 1.084520 54.385590
195 0 1 17.241224 1.550974 53.665283
196 0 1 16.804823 2.360643 53.727905
197 0 1 16.173925 2.009832 53.135712
198 0 1 15.516424 2.242491 52.478394
199 0 1 14.806723 2.870401 52.202606
200 0 1 14.081026 2.360620 52.539185
201 0 1 13.614927 1.582342 52.894714
202 0 1 13.244627 1.411043 53.792603
203 0 1 13.924826 2.033003 53.972900
204 0 1 14.288923 2.714990 54.638702
205 0 1 14.765127 3.489763 54.365692
206 0 1 15.480326 3.998533 54.004303
207 0 1 15.874125 3.145540 54.137085
208 0 1 16.182924 3.656900 54.935089
209 0 1 16.735723 4.181211 54.357208
210 0 1 17.557226 3.733881 54.050690
211 0 1 17.721823 4.052640 53.187012
212 0 1 17.889326 4.999200 53.041107
213 0 1 17.399023 5.050733 52.214600
214 0 1 17.676325 4.336553 51.574890
215 0 1 18.556524 4.356611 51.028687
216 0 1 19.172926 5.089361 51.069885
217 0 1 20.002028 5.449163 50.890900
218 0 1 20.722425 5.451631 51.549591
219 0 1 20.140226 4.690813 51.700287
220 0 1 19.777426 4.524831 52.584198
221 0 1 19.649527 3.643781 52.280609
222 0 1 18.926325 3.387892 52.880798
223 0 1 19.075727 2.531984 53.429504
224 0 1 18.676325 2.371591 52.529388
225 0 1 17.846823 2.376722 52.074310
226 0 1 18.357924 1.724592 51.645996
227 0 1 19.048223 1.832742 50.924988
228 0 1 19.422323 1.763651 50.078796
229 0 1 20.075323 1.271593 49.589813
230 0 1 19.284224 0.720251 49.757507
231 0 1 18.977827 0.265543 48.929291
232 0 1 19.842924 0.400953 48.482910
233 0 1 20.535124 0.328611 47.873810
234 0 1 21.406927 0.792543 47.923584
235 0 1 21.316923 1.741171 48.096497
236 0 1 21.942225 2.135370 48.722687
237 0 1 21.537725 3.045412 48.837189
238 0 1 20.791426 3.031473 48.217010
239 0 1 20.140127 3.733110 48.273407
240 0 1 19.669226 3.862154 49.068207
241 0 1 19.059225 4.547441 49.238007
242 0 1 18.097822 4.258333 49.227997
243 0 1 17.600523 4.985712 49.168091
244 0 1 18.134726 5.721723 48.776611
245 0 1 17.342527 6.027441 48.238190
246 0 1 16.969824 5.726953 47.337494
247 0 1 17.063925 6.701852 47.309204
248 0 1 16.111425 6.635831 47.078888
249 0 1 15.350424 6.745782 46.443512
250 0 1 14.951727 6.289979 45.731812
251 0 1 14.282724 5.906381 45.112091
252 0 1 14.635225 5.110403 45.524597
253 0 1 14.410524 4.560853 46.261505
254 0 1 15.017626 3.982980 45.748413
255 0 1 14.820826 4.166761 44.853912
256 0 1 14.207026 3.669191 44.287415
257 0 1 15.124125 3.284551 44.235107
258 0 1 16.072824 3.533960 44.637085
259 0 1 17.001722 3.514093 44.712494
260 0 1 17.940226 3.224981 44.546600
261 0 1 17.394728 2.519632 44.176697
262 0 1 18.345724 2.261392 44.038696
263 0 1 17.818125 1.938470 43.322693
264 0 1 17.024023 2.099993 42.830994
265 0 1 16.212725 2.526491 42.874512
266 0 1 15.712027 1.794561 42.570099
267 0 1 16.286325 2.071832 41.866791
268 0 1 15.949423 1.976141 40.955597
269 0 1 15.870825 1.077203 41.402710
270 0 1 16.220327 0.228063 41.138916
271 0 1 16.060026 -0.479927 40.549194
272 0 1 15.200525 -0.299620 40.173096
273 0 1 14.588625 0.501272 40.114990
274 0 1 13.949526 -0.018248 39.632599
275 0 1 12.997526 0.214330 39.368011
276 0 1 12.367926 -0.144087 40.029785
277 0 1 12.095324 -0.817997 39.422699
278 0 1 11.124125 -0.596209 39.391907
279 0 1 10.534727 -1.051379 38.734711
280 0 1 9.980825 -1.814944 39.004913
281 0 1 10.458227 -2.368935 38.432709
282 0 1 11.302126 -2.526779 38.901489
283 0 1 12.214323 -2.533886 38.669403
284 0 1 13.025724 -2.437395 38.175598
285 0 1 13.662024 -1.703312 38.069214
286 0 1 14.474127 -2.072705 38.304810
287 0 1 14.299925 -3.040777 38.297211
288 0 1 13.957026 -2.587267 37.437195
289 0 1 14.312323 -2.268894 36.606689
290 0 1 15.131826 -2.051968 36.957001
291 0 1 15.583426 -1.314648 37.299500
292 0 1 16.324827 -1.661646 37.785004
293 0 1 16.874624 -1.774670 36.982391
294 0 1 17.604124 -2.262137 36.502594
295 0 1 18.465727 -1.895611 36.700989
296 0 1 18.328924 -2.101897 37.633209
297 0 1 17.780325 -2.437395 38.337189
298 0 1 18.406424 -3.109907 38.398193
299 0 1 18.634825 -3.829739 38.931213
300 0 1 18.052427 -4.130448 39.680298
301 0 1 17.861925 -4.799819 40.309296
302 0 1 18.048925 -5.456318 39.643402
303 0 1 18.087725 -6.029917 38.887390
304 0 1 17.953222 -6.440299 39.701599
305 0 1 17.348326 -6.738818 39.016205
306 0 1 17.959326 -7.099408 38.396912
307 0 1 17.343428 -7.783617 38.616791
308 0 1 16.689924 -7.370278 38.010803
309 0 1 15.912024 -7.924319 38.157501
310 0 1 15.875723 -8.406467 37.313599
311 0 1 14.961325 -8.798618 36.924316
312 0 1 15.662527 -9.506647 36.952301
313 0 1 15.673624 -9.467817 36.000183
314 0 1 15.394125 -10.279917 35.616699
315 0 1 14.991026 -10.442528 34.741699
316 0 1 14.851027 -11.199728 34.159393
317 0 1 14.994825 -10.970797 33.177795
318 0 1 14.062525 -10.833628 32.841797
319 0 1 14.008825 -10.587038 31.854706
320 0 1 13.136526 -10.894398 32.241302
321 0 1 12.216124 -10.966177 32.496307
322 0 1 11.592325 -11.672159 32.791199
323 0 1 10.992125 -11.114656 33.247101
324 0 1 11.065527 -10.364317 33.784393
325 0 1 11.297323 -9.433947 33.658112
326 0 1 11.334024 -8.449047 33.585083
327 0 1 12.098524 -8.730827 34.104706
328 0 1 12.271624 -8.937708 33.166290
329 0 1 11.893225 -8.252848 32.685303
330 0 1 12.697424 -7.803069 33.000183
331 0 1 13.379026 -7.133269 33.190704
332 0 1 14.135225 -7.527749 33.609711
333 0 1 15.088224 -7.157088 33.316406
334 0 1 15.984625 -7.126368 33.564697
335 0 1 16.616926 -6.385108 33.620087
336 0 1 17.245123 -5.770928 33.803284
337 0 1 17.838423 -6.415247 34.155609
338 0 1 18.613825 -6.767708 33.723297
339 0 1 18.789923 -6.512087 32.841492
340 0 1 19.772123 -6.182768 32.752686
341 0 1 19.370825 -5.644709 32.014709
342 0 1 18.811224 -6.055508 31.279114
343 0 1 19.690725 -6.499949 31.412506
344 0 1 20.062025 -6.787629 30.609009
345 0 1 19.790125 -7.607218 30.224304
346 0 1 19.229425 -8.014967 30.833191
347 0 1 19.186525 -8.919548 31.218506
348 0 1 18.817225 -9.539188 30.591492
349 0 1 17.888124 -9.787848 30.872009
350 0 1 17.702627 -9.024837 30.248810
351 0 1 17.318426 -9.591747 29.598907
352 0 1 17.298323 -8.969368 28.858307
353 0 1 17.748426 -9.169918 28.001190
354 0 1 18.122824 -8.830917 27.200012
355 0 1 18.783125 -8.546457 27.858490
356 0 1 18.935724 -8.113638 27.015198
357 0 1 19.292826 -7.894429 26.161316
358 0 1 18.933622 -7.808569 25.200104
359 0 1 18.272123 -8.512098 25.096802
360 0 1 18.168623 -9.144358 25.769287
361 0 1 17.583525 -8.516178 26.290497
362 0 1 16.780725 -9.029037 26.358002
363 0 1 16.157026 -8.888268 27.047913
364 0 1 15.295626 -9.081068 26.756500
365 0 1 14.797728 -8.488008 26.234711
366 0 1 14.166525 -8.743269 25.677795
367 0 1 13.471624 -8.656208 25.080902
368 0 1 14.040823 -8.088827 24.490906
369 0 1 14.623823 -8.696068 24.056396
370 0 1 14.547422 -9.430798 23.335205
371 0 1 14.363523 -10.239218 22.816406
372 0 1 14.658625 -11.109457 22.427994
373 0 1 13.923223 -11.622766 22.652191
374 0 1 13.233725 -10.846928 22.466705
375 0 1 12.954126 -10.762648 23.377289
376 0 1 12.025427 -11.011738 23.277191
377 0 1 11.662626 -11.437057 22.485992
378 0 1 12.322725 -11.614897 21.794296
379 0 1 12.875925 -12.301258 22.211304
380 0 1 12.242727 -12.861059 22.763000
381 0 1 11.871824 -13.672659 23.156799
382 0 1 12.434725 -13.800558 23.919189
383 0 1 12.970526 -14.428556 23.552307
384 0 1 12.892126 -15.275158 24.025513
385 0 1 13.481825 -15.357859 23.302887
386 0 1 13.392027 -15.181559 22.391800
387 0 1 13.337027 -15.575958 21.531204
388 0 1 13.902224 -16.199457 21.991302
389 0 1 13.443724 -16.881458 21.476700
390 0 1 12.614824 -16.543259 21.158096
391 0 1 11.892725 -15.908157 21.115097
392 0 1 11.833124 -16.130259 22.074799
393 0 1 11.252623 -16.150358 22.787109
394 0 1 10.674826 -16.888557 22.739502
395 0 1 9.937223 -16.472258 23.057190
396 0 1 9.121126 -16.191156 22.561890
397 0 1 9.626524 -16.477358 21.781998
398 0 1 10.501726 -16.908758 21.735001
399 0 1 10.797426 -16.104158 21.234497
400 0 1 10.151823 -15.457758 21.009903
401 0 1 9.408125 -14.939657 20.886902
402 0 1 8.544924 -15.430857 20.980606
403 0 1 7.703413 -15.872458 20.932205
404 0 1 6.915396 -15.379057 21.122299
405 0 1 6.123655 -14.931858 21.353394
406 0 1 5.615286 -15.760458 21.263901
407 0 1 5.084604 -16.570559 21.375595
408 0 1 4.190474 -16.673258 21.809097
409 0 1 3.523886 -16.019258 22.071899
410 0 1 2.555655 -16.092758 22.045197
411 0 1 1.626913 -15.784758 21.947098
412 0 1 0.742834 -16.216059 22.032196
413 0 1 1.372126 -16.571157 21.390594
414 0 1 1.383536 -17.521658 21.005798
415 0 1 1.431387 -18.280157 21.626602
416 0 1 1.492415 -17.446959 22.190994
417 0 1 1.743475 -17.683058 23.191589
418 0 1 1.970206 -17.264458 24.010895
419 0 1 2.673754 -17.580257 24.559113
420 0 1 3.612356 -17.636059 24.255402
421 0 1 4.346914 -18.146358 24.510010
422 0 1 4.329775 -19.090757 24.793610
423 0 1 5.037886 -19.715359 24.777100
424 0 1 5.654936 -19.434757 24.032410
425 0 1 6.459345 -19.057858 23.655487
426 0 1 7.172606 -19.648558 23.292389
427 0 1 6.666136 -20.420258 23.250610
428 0 1 6.446783 -21.275457 23.526306
429 0 1 5.947336 -21.513557 24.299286
430 0 1 6.857836 -21.775957 24.349487
431 0 1 7.277037 -22.308458 24.989410
432 0 1 7.058714 -23.021358 24.211914
433 0 1 6.158636 -22.986958 24.174103
434 0 1 6.001585 -23.971458 24.094513
435 0 1 6.197584 -24.105257 24.987305
436 0 1 6.174654 -24.104757 25.888794
437 0 1 5.569723 -23.347958 25.585114
438 0 1 4.866156 -23.781658 26.100189
439 0 1 4.010054 -23.436758 26.420898
440 0 1 3.002215 -23.664358 26.195099
441 0 1 2.299093 -24.232159 25.858215
442 0 1 2.231985 -25.200857 26.072601
443 0 1 1.659216 -24.756857 26.748291
444 0 1 2.459906 -24.296858 27.150696
445 0 1 2.501906 -23.641857 27.889191
446 0 1 1.836825 -23.411657 28.513611
447 0 1 1.542753 -23.271358 27.643402
448 0 1 0.745466 -23.702158 27.962006
449 0 1 0.480196 -24.188358 27.211212
450 0 1 0.824774 -24.843258 27.859009
451 0 1 1.086825 -24.694057 28.818298
452 0 1 2.098894 -24.777159 29.008911
453 0 1 1.790816 -24.866758 29.977997
454 0 1 2.477614 -25.425657 30.286499
455 0 1 1.778136 -26.022058 30.601105
456 0 1 1.151434 -26.154657 31.382904
457 0 1 1.055674 -26.996357 31.738495
458 0 1 0.526484 -27.256357 30.955994
459 0 1 0.111864 -26.240257 30.939514
460 0 1 0.518805 -25.435658 30.654205
461 0 1 -0.181465 -25.117058 31.246796
462 0 1 0.682314 -25.183659 31.695709
463 0 1 1.287276 -25.621357 32.295410
464 0 1 1.193415 -25.506557 33.276611
465 0 1 1.936766 -25.732859 33.904510
466 0 1 2.409395 -25.809458 34.822906
467 0 1 2.025225 -26.643658 34.653809
468 0 1 1.187056 -26.808058 34.221191
469 0 1 1.000986 -25.949858 34.635193
470 0 1 -0.003343 -26.193258 34.678894
471 0 1 -0.472645 -25.402557 34.563812
472 0 1 -0.906889 -25.235357 33.776611
473 0 1 -1.637272 -24.599558 33.736389
474 0 1 -2.605875 -24.609259 33.530090
475 0 1 -2.824945 -24.204857 32.602295
476 0 1 -3.765144 -24.287458 32.942688
477 0 1 -4.640646 -24.644157 32.651917
478 0 1 -5.643934 -24.652557 32.222504
479 0 1 -5.477354 -23.981558 31.548706
480 0 1 -5.245335 -23.334957 32.221008
481 0 1 -5.255835 -23.075058 33.123505
482 0 1 -6.011005 -23.332058 33.726288
483 0 1 -5.646915 -22.528057 34.236511
484 0 1 -5.638586 -22.066057 35.062317
485 0 1 -6.337416 -22.559757 35.526794
486 0 1 -6.254805 -21.870657 36.135498
487 0 1 -5.701216 -22.468557 36.632599
488 0 1 -5.258156 -23.151157 37.096008
489 0 1 -4.629206 -23.269258 37.781189
490 0 1 -4.401295 -23.714157 38.629395
491 0 1 -4.126965 -24.123058 39.379700
492 0 1 -4.231155 -23.222658 39.704590
493 0 1 -3.588644 -22.442457 39.629608
494 0 1 -3.197145 -21.774757 39.083710
495 0 1 -3.326984 -20.977558 38.667603
496 0 1 -3.923925 -20.266357 38.696106
497 0 1 -3.629696 -19.830757 37.934601
498 0 1 -3.198265 -19.101858 37.430206
499 0 1 -3.755424 -18.602457 37.979614
500 0 1 -4.445095 -17.967358 38.115906
501 0 1 -5.363045 -18.349058 38.234100
502 0 1 -5.434126 -17.893658 39.117706
503 0 1 -5.225214 -17.858059 40.127991
504 0 1 -4.468805 -18.426857 39.787903
505 0 1 -4.877405 -19.257458 40.150513
506 0 1 -4.868944 -20.184958 40.296814
507 0 1 -4.744785 -20.733358 41.151489
508 0 1 -4.443806 -20.333958 41.938507
509 0 1 -3.986315 -20.116558 42.761902
510 0 1 -3.240434 -20.317858 42.103790
511 0 1 -3.038336 -19.678957 42.876709
512 0 1 -2.875444 -19.128057 42.067413
513 0 1 -2.381239 -19.071558 41.248901
514 0 1 -1.570745 -19.709457 41.242004
515 0 1 -0.789839 -20.347258 41.124695
516 0 1 0.024336 -19.977959 40.689087
517 0 1 -0.421896 -19.924957 39.770905
518 0 1 0.492346 -20.153757 39.482910
519 0 1 1.088717 -19.436459 39.661987
520 0 1 1.526655 -19.925758 38.887299
521 0 1 0.884665 -20.064657 38.191010
522 0 1 0.148226 -20.645857 38.346893
523 0 1 0.049795 -20.637058 37.386292
524 0 1 -0.430855 -21.468758 37.106506
525 0 1 0.489496 -21.724958 36.999298
526 0 1 1.151514 -22.321157 36.618988
527 0 1 2.036684 -22.303257 36.306610
528 0 1 2.009356 -21.391958 36.610199
529 0 1 2.614577 -21.200958 37.324493
530 0 1 3.491404 -21.054258 36.928101
531 0 1 3.756644 -21.859358 36.421906
532 0 1 4.252596 -22.504358 35.853699
533 0 1 4.582594 -22.830359 35.026611
534 0 1 3.923636 -22.230759 34.622406
535 0 1 3.196127 -22.192657 34.052704
536 0 1 2.309824 -22.433357 33.876892
537 0 1 1.368574 -22.480558 33.673889
538 0 1 1.076315 -21.587957 33.835083
539 0 1 0.913313 -20.951757 33.091614
540 0 1 0.106474 -20.504257 33.098907
541 0 1 -0.208925 -21.078857 32.400696
542 0 1 -0.267084 -21.659859 33.209412
543 0 1 -1.204756 -21.627157 33.111389
544 0 1 -1.276834 -22.350458 32.471313
545 0 1 -1.503742 -23.334358 32.350403
546 0 1 -1.589447 -23.193558 31.396790
547 0 1 -1.310375 -22.394358 30.811005
548 0 1 -0.822065 -22.036959 30.077209
549 0 1 -0.312284 -21.417559 29.579407
550 0 1 -1.170793 -21.022858 29.803894
551 0 1 -1.577682 -20.913458 28.941406
552 0 1 -2.419044 -20.440557 28.968994
553 0 1 -3.281894 -19.969559 28.928009
554 0 1 -3.517065 -20.251257 28.068207
555 0 1 -3.670984 -20.209257 27.130615
556 0 1 -4.588835 -20.400757 27.182892
557 0 1 -4.976614 -21.246159 27.434113
558 0 1 -5.661264 -21.408358 28.076508
559 0 1 -5.299335 -22.295858 27.964813
560 0 1 -5.517244 -23.153257 27.539398
561 0 1 -6.361284 -23.279358 28.052399
562 0 1 -7.295374 -23.552359 28.016785
563 0 1 -7.185175 -22.581858 28.197998
564 0 1 -6.566854 -21.860458 27.850800
565 0 1 -7.336056 -21.348358 27.583496
566 0 1 -8.152454 -21.056358 27.104004
567 0 1 -7.591166 -21.615957 26.524994
568 0 1 -7.572945 -22.489958 26.904205
569 0 1 -7.398054 -22.632158 25.978912
570 0 1 -7.296404 -22.311558 25.080109
571 0 1 -7.940565 -22.180758 24.449005
572 0 1 -7.545105 -21.596157 23.858307
573 0 1 -6.636616 -21.315659 23.790588
574 0 1 -6.479645 -22.024557 23.113312
575 0 1 -7.145065 -22.001257 22.338501
576 0 1 -7.609045 -22.733158 21.892700
577 0 1 -7.495705 -23.787758 21.832596
578 0 1 -8.422716 -24.220158 21.899094
579 0 1 -7.969515 -24.928257 21.404907
580 0 1 -7.353094 -24.781359 20.688705
581 0 1 -6.612925 -25.296457 20.740601
582 0 1 -6.486044 -24.571959 21.313202
583 0 1 -6.744566 -24.491558 22.271896
584 0 1 -6.787975 -23.609558 22.650299
585 0 1 -7.378925 -23.235058 23.450592
586 0 1 -8.108194 -22.576057 23.179993
587 0 1 -8.524694 -22.239557 22.419006
588 0 1 -8.638525 -21.280958 22.674591
589 0 1 -9.549086 -21.235258 23.096100
590 0 1 -9.729216 -20.431658 23.512604
591 0 1 -9.972195 -19.672157 23.006409
592 0 1 -10.162096 -19.417658 22.142593
593 0 1 -10.461634 -19.824657 21.339996
594 0 1 -11.231865 -20.158358 21.739105
595 0 1 -11.736776 -20.462358 22.484604
596 0 1 -11.646975 -21.229557 21.891998
597 0 1 -11.525515 -20.822258 21.028595
598 0 1 -10.743284 -21.379658 21.213394
599 0 1 -10.745075 -22.216957 21.807297
600 0 1 -9.877634 -22.409859 21.342697
601 0 1 -9.514965 -21.627258 20.911499
602 0 1 -8.775145 -22.209358 20.811996
603 0 1 -8.021265 -22.252558 20.249908
604 0 1 -7.306915 -21.669857 20.225403
605 0 1 -6.603065 -22.214758 19.868698
606 0 1 -5.967655 -21.782257 20.384705
607 0 1 -5.502634 -20.990957 20.024292
608 0 1 -6.331125 -20.868458 19.472305
609 0 1 -5.673645 -20.420557 18.799896
610 0 1 -5.406445 -19.806658 18.115494
611 0 1 -4.576546 -19.797459 17.712204
612 0 1 -3.622894 -19.873558 17.958603
613 0 1 -2.749285 -20.198957 18.217102
614 0 1 -2.711694 -19.843357 17.324997
615 0 1 -2.659666 -19.863157 16.380600
616 0 1 -2.955364 -19.192657 15.767197
617 0 1 -3.254965 -18.930058 14.902695
618 0 1 -3.152494 -17.998857 15.022598
619 0 1 -2.760275 -17.838158 15.896805
620 0 1 -2.191616 -18.003557 16.634003
621 0 1 -2.779865 -17.318058 16.954605
622 0 1 -2.934456 -16.523357 16.403900
623 0 1 -3.568205 -15.801458 16.675400
624 0 1 -3.894205 -15.506758 15.895004
625 0 1 -3.975664 -16.344858 15.253998
626 0 1 -4.197655 -15.823658 14.463104
627 0 1 -4.340555 -15.054159 13.912796
628 0 1 -4.082745 -14.194159 14.067596
629 0 1 -4.226755 -13.277458 14.358093
630 0 1 -4.212315 -12.293459 14.513000
631 0 1 -4.650866 -11.438038 14.611603
632 0 1 -5.578945 -11.659979 14.584900
633 0 1 -6.129644 -11.958158 13.899796
634 0 1 -6.263775 -12.844057 13.550903
635 0 1 -6.793736 -13.639257 13.389801
636 0 1 -7.639986 -13.903858 13.783005
637 0 1 -8.165445 -13.135757 13.796204
638 0 1 -8.812845 -13.300756 14.438095
639 0 1 -8.806335 -12.301258 14.625305
640 0 1 -9.375124 -11.975157 13.869202
641 0 1 -9.130434 -11.060028 14.159500
642 0 1 -9.179895 -10.751337 13.264694
643 0 1 -8.366076 -10.671438 12.774506
644 0 1 -8.170425 -10.707588 13.687195
645 0 1 -7.847595 -10.620047 14.605499
646 0 1 -7.258165 -9.822098 14.787399
647 0 1 -6.704185 -9.686129 15.608002
648 0 1 -6.353495 -9.213747 14.768005
649 0 1 -6.637545 -8.659777 15.563293
650 0 1 -5.935366 -8.100437 15.131897
651 0 1 -5.462225 -7.298909 15.066803
652 0 1 -4.626915 -7.091399 14.647400
653 0 1 -4.837965 -7.423647 13.764496
654 0 1 -4.442554 -8.123857 13.081100
655 0 1 -4.170225 -8.889618 13.615692
656 0 1 -4.136265 -9.731977 13.262604
657 0 1 -3.278965 -9.756557 12.835800
658 0 1 -3.006445 -8.824238 12.681198
659 0 1 -2.671236 -8.354239 11.926804
660 0 1 -2.961805 -8.770628 11.150497
661 0 1 -2.826494 -9.141628 10.238602
662 0 1 -3.597475 -8.644537 9.866989
663 0 1 -4.142416 -8.172077 9.263611
664 0 1 -5.079735 -7.790648 9.291260
665 0 1 -4.598505 -7.592328 8.479446
666 0 1 -4.679806 -7.954579 7.615891
667 0 1 -4.387655 -8.661098 7.095444
668 0 1 -4.104385 -7.780768 6.767731
669 0 1 -3.224655 -8.155018 6.678360
670 0 1 -2.898185 -8.980738 7.132218
671 0 1 -2.873476 -9.046898 6.155106
672 0 1 -3.642055 -8.838657 5.753464
673 0 1 -4.428514 -9.428629 5.846833
674 0 1 -4.960896 -8.847979 5.279694
675 0 1 -5.750404 -9.210407 4.775559
676 0 1 -5.032576 -9.405989 4.217453
677 0 1 -4.745806 -8.845377 3.493866
678 0 1 -5.126925 -9.657827 3.178879
679 0 1 -5.920084 -10.197069 2.970978
680 0 1 -6.747875 -10.226488 2.429993
681 0 1 -7.343416 -10.911467 2.908936
682 0 1 -7.517015 -10.415709 3.680817
683 0 1 -7.795755 -11.337278 3.843766
684 0 1 -8.754145 -11.150759 4.064911
685 0 1 -9.513464 -11.672607 4.044770
686 0 1 -9.995016 -10.959938 4.600831
687 0 1 -10.038605 -10.523817 5.433197
688 0 1 -9.800566 -10.028528 6.185547
689 0 1 -9.335985 -9.231968 6.541779
690 0 1 -9.683525 -8.481777 6.116181
691 0 1 -10.331015 -7.814858 5.981308
692 0 1 -11.138365 -7.941369 5.538788
693 0 1 -11.744974 -8.331408 4.926529
694 0 1 -11.203815 -8.712788 4.209488
695 0 1 -11.312075 -9.388638 4.877625
696 0 1 -10.534025 -9.701948 4.384354
697 0 1 -10.519655 -9.349598 3.478837
698 0 1 -11.010424 -9.404638 2.706757
699 0 1 -10.949675 -8.964777 1.754487
700 0 1 -10.476295 -8.102999 1.633301
701 0 1 -10.042116 -7.313948 1.563172
702 0 1 -9.869915 -6.361979 1.769989
703 0 1 -10.345045 -6.260439 0.960785
704 0 1 -11.212534 -6.531159 0.684418
705 0 1 -11.461565 -6.123139 -0.151809
706 0 1 -11.262506 -6.594229 -0.932220
707 0 1 -11.971174 -7.083289 -0.488815
708 0 1 -11.599075 -7.757058 0.119873
709 0 1 -10.971834 -7.999588 -0.517593
710 0 1 -11.791574 -8.203127 -0.881973
711 0 1 -11.696775 -8.749777 -1.720718
712 0 1 -12.169874 -9.490658 -2.066635
713 0 1 -13.004875 -9.082008 -2.133529
714 0 1 -13.612375 -9.584118 -2.705444
715 0 1 -13.808275 -10.086298 -3.514328
716 0 1 -13.496775 -9.846977 -4.402191
717 0 1 -13.959875 -9.068758 -4.753051
718 0 1 -14.628475 -8.340008 -4.930633
719 0 1 -15.446775 -8.202047 -4.526077
720 0 1 -15.909876 -8.789558 -5.089019
721 0 1 -16.875074 -8.804138 -5.105270
722 0 1 -16.832275 -7.951588 -4.636596
723 0 1 -16.877775 -7.112328 -4.241973
724 0 1 -16.312174 -7.082037 -5.024215
725 0 1 -15.686876 -6.316878 -4.967697
726 0 1 -16.356575 -6.384629 -5.777557
727 0 1 -16.852774 -5.940009 -6.452163
728 0 1 -15.995775 -5.794358 -6.905548
729 0 1 -16.320774 -4.933568 -7.110870
730 0 1 -16.960875 -4.257849 -6.985443
731 0 1 -16.439274 -3.522728 -6.590957
732 0 1 -15.871576 -2.800507 -6.680923
733 0 1 -16.010475 -2.983507 -5.783752
734 0 1 -15.294075 -2.397316 -5.543838
735 0 1 -15.713774 -1.788437 -6.265136
736 0 1 -16.461674 -2.100121 -5.705932
737 0 1 -17.148474 -1.600664 -6.148345
738 0 1 -16.540874 -1.001473 -6.550003
739 0 1 -17.260675 -0.407778 -6.926300
740 0 1 -17.092775 0.513513 -7.196167
741 0 1 -17.444275 1.383661 -6.994628
742 0 1 -18.260574 0.792741 -6.742797
743 0 1 -19.049376 1.382951 -6.577270
744 0 1 -18.387875 2.104761 -6.721756
745 0 1 -17.725775 2.766931 -6.985214
746 0 1 -17.719875 3.410913 -7.632385
747 0 1 -17.906574 3.753511 -8.477905
748 0 1 -17.066675 3.271204 -8.576645
749 0 1 -16.826874 3.675592 -9.432327
750 0 1 -16.789875 4.331602 -10.128403
751 0 1 -16.956175 3.863233 -10.937500
752 0 1 -16.288774 3.190050 -10.690094
753 0 1 -16.236074 2.374693 -11.147202
754 0 1 -16.881174 2.508463 -10.291901
755 0 1 -16.824774 2.086183 -9.479675
756 0 1 -17.529675 1.579713 -9.878555
757 0 1 -17.355574 1.288522 -10.735504
758 0 1 -17.580875 2.145292 -11.270905
759 0 1 -17.218874 2.013372 -12.150604
760 0 1 -17.970776 1.632982 -12.613098
761 0 1 -17.725876 0.959444 -11.966400
762 0 1 -17.157274 0.193163 -12.131104
763 0 1 -16.586475 0.539243 -12.863998
764 0 1 -16.021074 0.679403 -13.632797
765 0 1 -15.385975 1.339620 -13.476395
766 0 1 -15.495775 2.309553 -13.227005
767 0 1 -15.967875 2.378053 -14.037201
768 0 1 -16.753174 2.874861 -13.769394
769 0 1 -16.792374 2.855493 -14.703094
770 0 1 -16.273474 2.173361 -15.182999
771 0 1 -15.659876 1.488733 -15.334198
772 0 1 -14.912176 0.908121 -15.225204
773 0 1 -14.080976 1.192960 -15.700302
774 0 1 -14.015175 2.160951 -15.869202
775 0 1 -13.879375 2.465593 -14.913101
776 0 1 -13.429276 2.195791 -14.145706
777 0 1 -12.620075 2.723043 -14.275604
778 0 1 -12.419275 2.039270 -13.569901
779 0 1 -11.523075 2.347730 -13.349594
780 0 1 -11.486135 2.978681 -12.573502
781 0 1 -10.677305 3.072332 -13.016998