The first line (this line) of the header is always skipped; it typically contains a description of the file.

#--------------------- Header ---------------------
150 atoms
149 bonds

2 atom types
1 bond types

-4.1 4.1 xlo xhi
-4.1 4.1 ylo yhi
-5.03 5.9398 zlo zhi

#--------------------- Body ---------------------
#---------- Section 1 ----------
Atoms # bond
# atom-ID molecule-ID atom-type x y z nx ny nz
1 1 1 1.64128321577 0.0 -4.03 0 0 0
2 1 1 1.57123242343 0.47438303715 -3.9698 0 0 0
3 1 1 1.36705965244 0.908272261523 -3.9096 0 0 0
4 1 1 1.04619329571 1.2646304529 -3.8494 0 0 0
5 1 1 0.636022827894 1.51303851794 -3.7892 0 0 0
6 1 1 0.171560812332 1.63229209459 -3.729 0 0 0
7 1 1 -0.307545806579 1.61221157769 -3.6688 0 0 0
8 1 1 -0.760400006376 1.45451106035 -3.6086 0 0 0
9 1 1 -1.14834569748 1.17265201721 -3.5484 0 0 0
10 1 1 -1.43826744583 0.79069421944 -3.4882 0 0 0
11 1 1 -1.60541723963 0.341241968502 -3.428 0 0 0
12 1 1 -1.63552700452 -0.137339039793 -3.3678 0 0 0
13 1 1 -1.52602654071 -0.604196649635 -3.3076 0 0 0
14 1 1 -1.28626291782 -1.01947942629 -3.2474 0 0 0
15 1 1 -0.936702599654 -1.3477384146 -3.1872 0 0 0
16 1 1 -0.507184406256 -1.56095309745 -3.127 0 0 0
17 1 1 -0.0343724422522 -1.64092325524 -3.0668 0 0 0
18 1 1 0.441373587964 -1.58082255495 -3.0066 0 0 0
19 1 1 0.87944352516 -1.38578125273 -2.9464 0 0 0
20 1 1 1.24244327926 -1.07244827017 -2.8862 0 0 0
21 1 1 1.49938682647 -0.66757002552 -2.826 0 0 0
22 1 1 1.62834120739 -0.205707332628 -2.7658 0 0 0
23 1 1 1.61829874646 0.273714744901 -2.7056 0 0 0
24 1 1 1.47011667825 0.729772256738 -2.6454 0 0 0
25 1 1 1.19644397301 1.12353567537 -2.5852 0 0 0
26 1 1 0.820641607886 1.42139295966 -2.525 0 0 0
27 1 1 0.37478845042 1.59791871252 -2.4648 0 0 0
28 1 1 -0.103057025813 1.63804451826 -2.4046 0 0 0
29 1 1 -0.572105450757 1.5383451978 -2.3444 0 0 0
30 1 1 -0.992318379495 1.30733118531 -2.2842 0 0 0
31 1 1 -1.32782601414 0.964722069066 -2.224 0 0 0
32 1 1 -1.54998908584 0.539763307519 -2.1638 0 0 0
33 1 1 -1.63984353154 0.0687298076152 -2.1036 0 0 0
34 1 1 -1.58971928544 -0.408170537736 -2.0434 0 0 0
35 1 1 -1.40389500357 -0.850229035801 -1.9832 0 0 0
36 1 1 -1.09823283338 -1.21971112894 -1.923 0 0 0
37 1 1 -0.698824404869 -1.48507745439 -1.8628 0 0 0
38 1 1 -0.239763622889 -1.62367607592 -1.8026 0 0 0
39 1 1 0.239763622889 -1.62367607592 -1.7424 0 0 0
40 1 1 0.698824404869 -1.48507745439 -1.6822 0 0 0
41 1 1 1.09823283338 -1.21971112894 -1.622 0 0 0
42 1 1 1.40389500357 -0.850229035801 -1.5618 0 0 0
43 1 1 1.58971928544 -0.408170537736 -1.5016 0 0 0
44 1 1 1.63984353154 0.0687298076152 -1.4414 0 0 0
45 1 1 1.54998908584 0.539763307519 -1.3812 0 0 0
46 1 1 1.32782601414 0.964722069066 -1.321 0 0 0
47 1 1 0.992318379495 1.30733118531 -1.2608 0 0 0
48 1 1 0.572105450757 1.5383451978 -1.2006 0 0 0
49 1 1 0.103057025813 1.63804451826 -1.1404 0 0 0
50 1 1 -0.37478845042 1.59791871252 -1.0802 0 0 0
51 1 1 -0.820641607886 1.42139295966 -1.02 0 0 0
52 1 1 -1.19644397301 1.12353567537 -0.9598 0 0 0
53 1 1 -1.47011667825 0.729772256738 -0.8996 0 0 0
54 1 1 -1.61829874646 0.273714744901 -0.8394 0 0 0
55 1 1 -1.62834120739 -0.205707332628 -0.7792 0 0 0
56 1 1 -1.49938682647 -0.66757002552 -0.719 0 0 0
57 1 1 -1.24244327926 -1.07244827017 -0.6588 0 0 0
58 1 1 -0.87944352516 -1.38578125273 -0.5986 0 0 0
59 1 1 -0.441373587964 -1.58082255495 -0.5384 0 0 0
60 1 1 0.0343724422522 -1.64092325524 -0.4782 0 0 0
61 1 1 0.507184406256 -1.56095309745 -0.418 0 0 0
62 1 1 0.936702599654 -1.3477384146 -0.3578 0 0 0
63 1 1 1.28626291782 -1.01947942629 -0.2976 0 0 0
64 1 1 1.52602654071 -0.604196649635 -0.2374 0 0 0
65 1 1 1.63552700452 -0.137339039793 -0.1772 0 0 0
66 1 1 1.60541723963 0.341241968502 -0.117 0 0 0
67 1 1 1.43826744583 0.79069421944 -0.0568 0 0 0
68 1 1 1.14834569748 1.17265201721 0.0034 0 0 0
69 1 1 0.760400006376 1.45451106035 0.0636 0 0 0
70 1 1 0.307545806579 1.61221157769 0.1238 0 0 0
71 1 1 -0.171560812332 1.63229209459 0.184 0 0 0
72 1 1 -0.636022827894 1.51303851794 0.2442 0 0 0
73 1 1 -1.04619329571 1.2646304529 0.3044 0 0 0
74 1 1 -1.36705965244 0.908272261523 0.3646 0 0 0
75 1 1 -1.57123242343 0.47438303715 0.4248 0 0 0
76 1 1 -1.64128321577 1.40699456568e-15 0.485 0 0 0
77 1 1 -1.57123242343 -0.47438303715 0.5452 0 0 0
78 1 1 -1.36705965244 -0.908272261523 0.6054 0 0 0
79 1 1 -1.04619329571 -1.2646304529 0.6656 0 0 0
80 1 1 -0.636022827894 -1.51303851794 0.7258 0 0 0
81 1 1 -0.171560812332 -1.63229209459 0.786 0 0 0
82 1 1 0.307545806579 -1.61221157769 0.8462 0 0 0
83 1 1 0.760400006376 -1.45451106035 0.9064 0 0 0
84 1 1 1.14834569748 -1.17265201721 0.9666 0 0 0
85 1 1 1.43826744583 -0.79069421944 1.0268 0 0 0
86 1 1 1.60541723963 -0.341241968502 1.087 0 0 0
87 1 1 1.63552700452 0.137339039793 1.1472 0 0 0
88 1 1 1.52602654071 0.604196649635 1.2074 0 0 0
89 1 1 1.28626291782 1.01947942629 1.2676 0 0 0
90 1 1 0.936702599654 1.3477384146 1.3278 0 0 0
91 1 1 0.507184406256 1.56095309745 1.388 0 0 0
92 1 1 0.0343724422522 1.64092325524 1.4482 0 0 0
93 1 1 -0.441373587964 1.58082255495 1.5084 0 0 0
94 1 1 -0.87944352516 1.38578125273 1.5686 0 0 0
95 1 1 -1.24244327926 1.07244827017 1.6288 0 0 0
96 1 1 -1.49938682647 0.66757002552 1.689 0 0 0
97 1 1 -1.62834120739 0.205707332628 1.7492 0 0 0
98 1 1 -1.61829874646 -0.273714744901 1.8094 0 0 0
99 1 1 -1.47011667825 -0.729772256738 1.8696 0 0 0
100 1 1 -1.19644397301 -1.12353567537 1.9298 0 0 0
101 1 1 -0.820641607886 -1.42139295966 1.99 0 0 0
102 1 1 -0.37478845042 -1.59791871252 2.0502 0 0 0
103 1 1 0.103057025813 -1.63804451826 2.1104 0 0 0
104 1 1 0.572105450757 -1.5383451978 2.1706 0 0 0
105 1 1 0.992318379495 -1.30733118531 2.2308 0 0 0
106 1 1 1.32782601414 -0.964722069066 2.291 0 0 0
107 1 1 1.54998908584 -0.539763307519 2.3512 0 0 0
108 1 1 1.63984353154 -0.0687298076152 2.4114 0 0 0
109 1 1 1.58971928544 0.408170537736 2.4716 0 0 0
110 1 1 1.40389500357 0.850229035801 2.5318 0 0 0
111 1 1 1.09823283338 1.21971112894 2.592 0 0 0
112 1 1 0.698824404869 1.48507745439 2.6522 0 0 0
113 1 1 0.239763622889 1.62367607592 2.7124 0 0 0
114 1 1 -0.239763622889 1.62367607592 2.7726 0 0 0
115 1 1 -0.698824404869 1.48507745439 2.8328 0 0 0
116 1 1 -1.09823283338 1.21971112894 2.893 0 0 0
117 1 1 -1.40389500357 0.850229035801 2.9532 0 0 0
118 1 1 -1.58971928544 0.408170537736 3.0134 0 0 0
119 1 1 -1.63984353154 -0.0687298076152 3.0736 0 0 0
120 1 1 -1.54998908584 -0.539763307519 3.1338 0 0 0
121 1 1 -1.32782601414 -0.964722069066 3.194 0 0 0
122 1 1 -0.992318379495 -1.30733118531 3.2542 0 0 0
123 1 1 -0.572105450757 -1.5383451978 3.3144 0 0 0
124 1 1 -0.103057025813 -1.63804451826 3.3746 0 0 0
125 1 1 0.37478845042 -1.59791871252 3.4348 0 0 0
126 1 1 0.820641607886 -1.42139295966 3.495 0 0 0
127 1 1 1.19644397301 -1.12353567537 3.5552 0 0 0
128 1 1 1.47011667825 -0.729772256738 3.6154 0 0 0
129 1 1 1.61829874646 -0.273714744901 3.6756 0 0 0
130 1 1 1.62834120739 0.205707332628 3.7358 0 0 0
131 1 1 1.49938682647 0.66757002552 3.796 0 0 0
132 1 1 1.24244327926 1.07244827017 3.8562 0 0 0
133 1 1 0.87944352516 1.38578125273 3.9164 0 0 0
134 1 1 0.441373587964 1.58082255495 3.9766 0 0 0
135 1 1 -0.0343724422522 1.64092325524 4.0368 0 0 0
136 1 1 -0.507184406256 1.56095309745 4.097 0 0 0
137 1 1 -0.936702599654 1.3477384146 4.1572 0 0 0
138 1 1 -1.28626291782 1.01947942629 4.2174 0 0 0
139 1 1 -1.52602654071 0.604196649635 4.2776 0 0 0
140 1 1 -1.63552700452 0.137339039793 4.3378 0 0 0
141 1 1 -1.60541723963 -0.341241968502 4.398 0 0 0
142 1 1 -1.43826744583 -0.79069421944 4.4582 0 0 0
143 1 1 -1.14834569748 -1.17265201721 4.5184 0 0 0
144 1 1 -0.760400006376 -1.45451106035 4.5786 0 0 0
145 1 1 -0.307545806579 -1.61221157769 4.6388 0 0 0
146 1 1 0.171560812332 -1.63229209459 4.699 0 0 0
147 1 1 0.636022827894 -1.51303851794 4.7592 0 0 0
148 1 1 1.04619329571 -1.2646304529 4.8194 0 0 0
149 1 1 1.36705965244 -0.908272261523 4.8796 0 0 0
150 1 1 1.57123242343 -0.47438303715 4.9398 0 0 0

#---------- Section 2 ----------
Velocities
#atom-ID vx vy vz
1 0.0 0.0 0.0
2 0.0 0.0 0.0
3 0.0 0.0 0.0
4 0.0 0.0 0.0
5 0.0 0.0 0.0
6 0.0 0.0 0.0
7 0.0 0.0 0.0
8 0.0 0.0 0.0
9 0.0 0.0 0.0
10 0.0 0.0 0.0
11 0.0 0.0 0.0
12 0.0 0.0 0.0
13 0.0 0.0 0.0
14 0.0 0.0 0.0
15 0.0 0.0 0.0
16 0.0 0.0 0.0
17 0.0 0.0 0.0
18 0.0 0.0 0.0
19 0.0 0.0 0.0
20 0.0 0.0 0.0
21 0.0 0.0 0.0
22 0.0 0.0 0.0
23 0.0 0.0 0.0
24 0.0 0.0 0.0
25 0.0 0.0 0.0
26 0.0 0.0 0.0
27 0.0 0.0 0.0
28 0.0 0.0 0.0
29 0.0 0.0 0.0
30 0.0 0.0 0.0
31 0.0 0.0 0.0
32 0.0 0.0 0.0
33 0.0 0.0 0.0
34 0.0 0.0 0.0
35 0.0 0.0 0.0
36 0.0 0.0 0.0
37 0.0 0.0 0.0
38 0.0 0.0 0.0
39 0.0 0.0 0.0
40 0.0 0.0 0.0
41 0.0 0.0 0.0
42 0.0 0.0 0.0
43 0.0 0.0 0.0
44 0.0 0.0 0.0
45 0.0 0.0 0.0
46 0.0 0.0 0.0
47 0.0 0.0 0.0
48 0.0 0.0 0.0
49 0.0 0.0 0.0
50 0.0 0.0 0.0
51 0.0 0.0 0.0
52 0.0 0.0 0.0
53 0.0 0.0 0.0
54 0.0 0.0 0.0
55 0.0 0.0 0.0
56 0.0 0.0 0.0
57 0.0 0.0 0.0
58 0.0 0.0 0.0
59 0.0 0.0 0.0
60 0.0 0.0 0.0
61 0.0 0.0 0.0
62 0.0 0.0 0.0
63 0.0 0.0 0.0
64 0.0 0.0 0.0
65 0.0 0.0 0.0
66 0.0 0.0 0.0
67 0.0 0.0 0.0
68 0.0 0.0 0.0
69 0.0 0.0 0.0
70 0.0 0.0 0.0
71 0.0 0.0 0.0
72 0.0 0.0 0.0
73 0.0 0.0 0.0
74 0.0 0.0 0.0
75 0.0 0.0 0.0
76 0.0 0.0 0.0
77 0.0 0.0 0.0
78 0.0 0.0 0.0
79 0.0 0.0 0.0
80 0.0 0.0 0.0
81 0.0 0.0 0.0
82 0.0 0.0 0.0
83 0.0 0.0 0.0
84 0.0 0.0 0.0
85 0.0 0.0 0.0
86 0.0 0.0 0.0
87 0.0 0.0 0.0
88 0.0 0.0 0.0
89 0.0 0.0 0.0
90 0.0 0.0 0.0
91 0.0 0.0 0.0
92 0.0 0.0 0.0
93 0.0 0.0 0.0
94 0.0 0.0 0.0
95 0.0 0.0 0.0
96 0.0 0.0 0.0
97 0.0 0.0 0.0
98 0.0 0.0 0.0
99 0.0 0.0 0.0
100 0.0 0.0 0.0
101 0.0 0.0 0.0
102 0.0 0.0 0.0
103 0.0 0.0 0.0
104 0.0 0.0 0.0
105 0.0 0.0 0.0
106 0.0 0.0 0.0
107 0.0 0.0 0.0
108 0.0 0.0 0.0
109 0.0 0.0 0.0
110 0.0 0.0 0.0
111 0.0 0.0 0.0
112 0.0 0.0 0.0
113 0.0 0.0 0.0
114 0.0 0.0 0.0
115 0.0 0.0 0.0
116 0.0 0.0 0.0
117 0.0 0.0 0.0
118 0.0 0.0 0.0
119 0.0 0.0 0.0
120 0.0 0.0 0.0
121 0.0 0.0 0.0
122 0.0 0.0 0.0
123 0.0 0.0 0.0
124 0.0 0.0 0.0
125 0.0 0.0 0.0
126 0.0 0.0 0.0
127 0.0 0.0 0.0
128 0.0 0.0 0.0
129 0.0 0.0 0.0
130 0.0 0.0 0.0
131 0.0 0.0 0.0
132 0.0 0.0 0.0
133 0.0 0.0 0.0
134 0.0 0.0 0.0
135 0.0 0.0 0.0
136 0.0 0.0 0.0
137 0.0 0.0 0.0
138 0.0 0.0 0.0
139 0.0 0.0 0.0
140 0.0 0.0 0.0
141 0.0 0.0 0.0
142 0.0 0.0 0.0
143 0.0 0.0 0.0
144 0.0 0.0 0.0
145 0.0 0.0 0.0
146 0.0 0.0 0.0
147 0.0 0.0 0.0
148 0.0 0.0 0.0
149 0.0 0.0 0.0
150 0.0 0.0 0.0

#---------- Section 3 ----------
Bonds
#ID type atom1 atom2
1 1 1 2
2 1 2 3
3 1 3 4
4 1 4 5
5 1 5 6
6 1 6 7
7 1 7 8
8 1 8 9
9 1 9 10
10 1 10 11
11 1 11 12
12 1 12 13
13 1 13 14
14 1 14 15
15 1 15 16
16 1 16 17
17 1 17 18
18 1 18 19
19 1 19 20
20 1 20 21
21 1 21 22
22 1 22 23
23 1 23 24
24 1 24 25
25 1 25 26
26 1 26 27
27 1 27 28
28 1 28 29
29 1 29 30
30 1 30 31
31 1 31 32
32 1 32 33
33 1 33 34
34 1 34 35
35 1 35 36
36 1 36 37
37 1 37 38
38 1 38 39
39 1 39 40
40 1 40 41
41 1 41 42
42 1 42 43
43 1 43 44
44 1 44 45
45 1 45 46
46 1 46 47
47 1 47 48
48 1 48 49
49 1 49 50
50 1 50 51
51 1 51 52
52 1 52 53
53 1 53 54
54 1 54 55
55 1 55 56
56 1 56 57
57 1 57 58
58 1 58 59
59 1 59 60
60 1 60 61
61 1 61 62
62 1 62 63
63 1 63 64
64 1 64 65
65 1 65 66
66 1 66 67
67 1 67 68
68 1 68 69
69 1 69 70
70 1 70 71
71 1 71 72
72 1 72 73
73 1 73 74
74 1 74 75
75 1 75 76
76 1 76 77
77 1 77 78
78 1 78 79
79 1 79 80
80 1 80 81
81 1 81 82
82 1 82 83
83 1 83 84
84 1 84 85
85 1 85 86
86 1 86 87
87 1 87 88
88 1 88 89
89 1 89 90
90 1 90 91
91 1 91 92
92 1 92 93
93 1 93 94
94 1 94 95
95 1 95 96
96 1 96 97
97 1 97 98
98 1 98 99
99 1 99 100
100 1 100 101
101 1 101 102
102 1 102 103
103 1 103 104
104 1 104 105
105 1 105 106
106 1 106 107
107 1 107 108
108 1 108 109
109 1 109 110
110 1 110 111
111 1 111 112
112 1 112 113
113 1 113 114
114 1 114 115
115 1 115 116
116 1 116 117
117 1 117 118
118 1 118 119
119 1 119 120
120 1 120 121
121 1 121 122
122 1 122 123
123 1 123 124
124 1 124 125
125 1 125 126
126 1 126 127
127 1 127 128
128 1 128 129
129 1 129 130
130 1 130 131
131 1 131 132
132 1 132 133
133 1 133 134
134 1 134 135
135 1 135 136
136 1 136 137
137 1 137 138
138 1 138 139
139 1 139 140
140 1 140 141
141 1 141 142
142 1 142 143
143 1 143 144
144 1 144 145
145 1 145 146
146 1 146 147
147 1 147 148
148 1 148 149
149 1 149 150
