Helical heterogeneous linear polymer

307 atoms
306 bonds

3 atom types
2 bond types

-14.499333090948607 14.499333090948607 xlo xhi
-4.99990249751443 4.99990249751443 ylo yhi
-16.998666181897214 16.998666181897214 zlo zhi

Atoms

1 1 2 -11.982628574246881 0.288519570619384 -2.8500000000000005 0 0 0
2 1 1 -11.982628574246881 0.288519570619384 0.0 0 0 0
3 1 1 -11.695694349164626 1.1941512565030243 0.07755102040816197 0 0 0
4 1 1 -11.091605558395976 1.9273475009476284 0.15510204081632573 0 0 0
5 1 1 -10.257592623327927 2.3822347662553947 0.23265306122448948 0 0 0
6 1 1 -9.314087011784304 2.493127331315882 0.31020408163265145 0 0 0
7 1 1 -8.397330934072007 2.244012309734357 0.3877551020408152 0 0 0
8 1 1 -7.63970396781269 1.6708619106271898 0.46530612244897895 0 0 0
9 1 1 -7.150607446934201 0.8564390516254571 0.5428571428571409 0 0 0
10 1 1 -7.000666909051391 -0.081653606430996 0.6204081632653065 0 0 0
11 1 1 -7.21153376783454 -1.0079554837188092 0.6979591836734684 0 0 0
12 1 1 -7.752758848875361 -1.7887085891576264 0.7755102040816322 0 0 0
13 1 1 -8.546189250471558 -2.311172174322082 0.8530612244897959 0 0 0
14 1 1 -9.477253622632642 -2.4999024975144297 0.9306122448979579 0 0 0
15 1 1 -10.411506270018549 -2.327646900065694 1.0081632653061217 0 0 0
16 1 1 -11.21404111034676 -1.8192790902474718 1.0857142857142854 0 0 0
17 1 1 -11.768972112673874 -1.0482073797975149 1.1632653061224474 0 0 0
18 1 1 -11.996167240263862 -0.1257745237047969 1.2408163265306111 0 0 0
19 1 1 -11.862819516692726 0.8148201736108939 1.3183673469387749 0 0 0
20 1 1 -11.38818435324414 1.6377548378571711 1.3959183673469369 0 0 0
21 1 1 -10.64079906752008 2.2241977035168734 1.4734693877551006 0 0 0
22 1 1 -9.728586094779098 2.489466420788739 1.5510204081632644 0 0 0
23 1 1 -8.783268988284993 2.3952561868987114 1.6285714285714281 0 0 0
24 1 1 -7.941351538215515 1.9551709596205094 1.7061224489795919 0 0 0
25 1 1 -7.3244066243606945 1.2327590457731064 1.7836734693877538 0 0 0
26 1 1 -7.021521092281169 0.3323367257160666 1.8612244897959176 0 0 0
27 1 1 -7.076431612809221 -0.6160750175343732 1.9387755102040813 0 0 0
28 1 1 -7.4812091067806 -1.4755255282528494 2.0163265306122433 0 0 0
29 1 1 -8.177403704065838 -2.121910152691614 2.093877551020407 0 0 0
30 1 1 -9.06448490481695 -2.46189095108171 2.171428571428571 0 0 0
31 1 1 -10.014358183645474 -2.446374696135607 2.248979591836733 0 0 0
32 1 1 -10.889861839088569 -2.0776019350675217 2.3265306122448965 0 0 0
33 1 1 -11.564573143300253 -1.4088234545756866 2.4040816326530603 0 0 0
34 1 1 -11.941063783952359 -0.5366108672431221 2.481632653061224 0 0 0
35 1 1 -11.964968512534725 0.41308832931934886 2.559183673469388 0 0 0
36 1 1 -11.632835486240054 1.303137571128106 2.6367346938775498 0 0 0
37 1 1 -10.992624714065299 2.0050137476659646 2.7142857142857135 0 0 0
38 1 1 -10.136782631512494 2.417365939040858 2.7918367346938773 0 0 0
39 1 1 -9.188892835302262 2.480650488818252 2.8693877551020393 0 0 0
40 1 1 -8.285830612007365 2.1857291080102903 2.946938775510203 0 0 0
41 1 1 -7.55799814667158 1.5751884440056418 3.0244897959183668 0 0 0
42 1 1 -7.110494447289401 0.7371905686865795 3.1020408163265287 0 0 0
43 1 1 -7.007939048051609 -0.2072576247508249 3.1795918367346925 0 0 0
44 1 1 -7.265140948608145 -1.1217778171742103 3.2571428571428562 0 0 0
45 1 1 -7.8449601945186425 -1.87431329279764 3.33469387755102 0 0 0
46 1 1 -8.663670886673629 -2.35619792894109 3.4122448979591837 0 0 0
47 1 1 -9.60305120112592 -2.4978475841454473 3.4897959183673457 0 0 0
48 1 1 -10.527454620468607 -2.2788080481992017 3.5673469387755095 0 0 0
49 1 1 -11.303397290948608 -1.7307086300929915 3.644897959183673 0 0 0
50 1 1 -11.818833090948607 -0.9326948858013532 3.722448979591835 0 0 0
51 1 1 -11.999333090948607 3.061616997868383e-16 3.799999999999999 0 0 0
52 1 2 -11.999333090948607 3.061616997868383e-16 6.649999999999999 0 0 0
53 1 1 -11.999333090948607 -6.123233995736766e-16 9.5 0 0 0
54 1 1 -11.921782070540445 0.9326948858013528 9.680500000000002 0 0 0
55 1 1 -11.844231050132281 1.7307086300929913 10.1959358 0 0 0
56 1 1 -11.766680029724117 2.2788080481992017 10.97187847048 0 0 0
57 1 1 -11.689129009315954 2.4978475841454473 11.896281889822689 0 0 0
58 1 1 -11.61157798890779 2.35619792894109 12.835662204274978 0 0 0
59 1 1 -11.534026968499628 1.8743132927976403 13.654372896429965 0 0 0
60 1 1 -11.456475948091464 1.1217778171742105 14.234192142340461 0 0 0
61 1 1 -11.3789249276833 0.2072576247508252 14.491394042897 0 0 0
62 1 1 -11.301373907275137 -0.7371905686865792 14.388838643659206 0 0 0
63 1 1 -11.223822886866973 -1.5751884440056416 13.941334944277028 0 0 0
64 1 1 -11.146271866458811 -2.1857291080102903 13.213502478941244 0 0 0
65 1 1 -11.068720846050647 -2.480650488818252 12.310440255646345 0 0 0
66 1 1 -10.991169825642485 -2.417365939040858 11.362550459436115 0 0 0
67 1 1 -10.913618805234321 -2.0050137476659646 10.50670837688331 0 0 0
68 1 1 -10.836067784826158 -1.3031375711281061 9.866497604708552 0 0 0
69 1 1 -10.758516764417996 -0.41308832931934913 9.534364578413882 0 0 0
70 1 1 -10.680965744009832 0.5366108672431218 9.558269306996248 0 0 0
71 1 1 -10.603414723601668 1.4088234545756864 9.934759947648352 0 0 0
72 1 1 -10.525863703193505 2.0776019350675217 10.609471251860036 0 0 0
73 1 1 -10.448312682785343 2.446374696135607 11.484974907303133 0 0 0
74 1 1 -10.370761662377179 2.46189095108171 12.434848186131656 0 0 0
75 1 1 -10.293210641969015 2.121910152691614 13.321929386882768 0 0 0
76 1 1 -10.215659621560851 1.4755255282528497 14.018123984168007 0 0 0
77 1 1 -10.138108601152688 0.6160750175343735 14.422901478139387 0 0 0
78 1 1 -10.060557580744526 -0.3323367257160663 14.477811998667438 0 0 0
79 1 1 -9.983006560336362 -1.2327590457731061 14.174926466587912 0 0 0
80 1 1 -9.905455539928198 -1.9551709596205091 13.557981552733093 0 0 0
81 1 1 -9.827904519520036 -2.3952561868987114 12.716064102663612 0 0 0
82 1 1 -9.750353499111872 -2.489466420788739 11.77074699616951 0 0 0
83 1 1 -9.672802478703709 -2.2241977035168734 10.858534023428525 0 0 0
84 1 1 -9.595251458295547 -1.6377548378571714 10.111148737704465 0 0 0
85 1 1 -9.517700437887383 -0.8148201736108942 9.63651357425588 0 0 0
86 1 1 -9.440149417479219 0.12577452370479658 9.503165850684745 0 0 0
87 1 1 -9.362598397071057 1.0482073797975147 9.730360978274732 0 0 0
88 1 1 -9.285047376662893 1.8192790902474716 10.285291980601848 0 0 0
89 1 1 -9.20749635625473 2.327646900065694 11.087826820930058 0 0 0
90 1 1 -9.129945335846566 2.4999024975144297 12.022079468315965 0 0 0
91 1 1 -9.052394315438402 2.311172174322082 12.953143840477047 0 0 0
92 1 1 -8.97484329503024 1.7887085891576266 13.746574242073244 0 0 0
93 1 1 -8.897292274622076 1.0079554837188094 14.287799323114065 0 0 0
94 1 1 -8.819741254213913 0.08165360643099631 14.498666181897214 0 0 0
95 1 1 -8.742190233805749 -0.8564390516254567 14.348725644014404 0 0 0
96 1 1 -8.664639213397585 -1.6708619106271896 13.859629123135917 0 0 0
97 1 1 -8.587088192989423 -2.244012309734357 13.102002156876601 0 0 0
98 1 1 -8.50953717258126 -2.493127331315882 12.185246079164301 0 0 0
99 1 1 -8.431986152173096 -2.3822347662553947 11.24174046762068 0 0 0
100 1 1 -8.354435131764934 -1.9273475009476286 10.40772753255263 0 0 0
101 1 1 -8.27688411135677 -1.1941512565030246 9.803638741783981 0 0 0
102 1 1 -8.199333090948608 -0.28851957061938427 9.516704516701726 0 0 0
103 1 2 -5.349333090948608 -0.28851957061938427 9.516704516701726 0 0 0
104 1 1 -2.499333090948607 -0.28851957061938427 9.516704516701722 0 0 0
105 1 1 -2.421782070540445 -1.1941512565030246 9.803638741783981 0 0 0
106 1 1 -2.344231050132281 -1.9273475009476286 10.40772753255263 0 0 0
107 1 1 -2.2666800297241174 -2.3822347662553947 11.24174046762068 0 0 0
108 1 1 -2.1891290093159554 -2.493127331315882 12.185246079164301 0 0 0
109 1 1 -2.1115779889077917 -2.244012309734357 13.102002156876598 0 0 0
110 1 1 -2.034026968499628 -1.6708619106271896 13.859629123135914 0 0 0
111 1 1 -1.956475948091466 -0.8564390516254567 14.348725644014404 0 0 0
112 1 1 -1.8789249276833004 0.08165360643099631 14.498666181897214 0 0 0
113 1 1 -1.8013739072751385 1.0079554837188094 14.287799323114065 0 0 0
114 1 1 -1.7238228868669747 1.7887085891576266 13.746574242073244 0 0 0
115 1 1 -1.646271866458811 2.311172174322082 12.953143840477047 0 0 0
116 1 1 -1.568720846050649 2.4999024975144297 12.022079468315962 0 0 0
117 1 1 -1.4911698256424852 2.327646900065694 11.087826820930054 0 0 0
118 1 1 -1.4136188052343215 1.8192790902474716 10.285291980601848 0 0 0
119 1 1 -1.3360677848261595 1.0482073797975147 9.730360978274732 0 0 0
120 1 1 -1.2585167644179958 0.12577452370479658 9.503165850684745 0 0 0
121 1 1 -1.180965744009832 -0.8148201736108942 9.63651357425588 0 0 0
122 1 1 -1.10341472360167 -1.6377548378571714 10.111148737704465 0 0 0
123 1 1 -1.0258637031935063 -2.2241977035168734 10.858534023428525 0 0 0
124 1 1 -0.9483126827853425 -2.489466420788739 11.770746996169507 0 0 0
125 1 1 -0.8707616623771788 -2.3952561868987114 12.716064102663612 0 0 0
126 1 1 -0.793210641969015 -1.9551709596205091 13.55798155273309 0 0 0
127 1 1 -0.715659621560853 -1.2327590457731061 14.174926466587909 0 0 0
128 1 1 -0.6381086011526893 -0.3323367257160663 14.477811998667434 0 0 0
129 1 1 -0.5605575807445256 0.6160750175343735 14.422901478139384 0 0 0
130 1 1 -0.4830065603363636 1.4755255282528497 14.018123984168003 0 0 0
131 1 1 -0.4054555399281998 2.121910152691614 13.321929386882765 0 0 0
132 1 1 -0.3279045195200361 2.46189095108171 12.434848186131653 0 0 0
133 1 1 -0.2503534991118741 2.446374696135607 11.48497490730313 0 0 0
134 1 1 -0.17280247870371035 2.0776019350675217 10.609471251860036 0 0 0
135 1 1 -0.0952514582955466 1.4088234545756864 9.934759947648352 0 0 0
136 1 1 -0.017700437887382847 0.5366108672431218 9.558269306996245 0 0 0
137 1 1 0.059850582520780904 -0.41308832931934913 9.534364578413879 0 0 0
138 1 1 0.13740160292894288 -1.3031375711281061 9.866497604708549 0 0 0
139 1 1 0.21495262333710663 -2.0050137476659646 10.506708376883306 0 0 0
140 1 1 0.2925036437452704 -2.417365939040858 11.362550459436111 0 0 0
141 1 1 0.37005466415343236 -2.480650488818252 12.310440255646341 0 0 0
142 1 1 0.4476056845615961 -2.1857291080102903 13.21350247894124 0 0 0
143 1 1 0.5251567049697599 -1.5751884440056416 13.941334944277024 0 0 0
144 1 1 0.6027077253779218 -0.7371905686865792 14.388838643659202 0 0 0
145 1 1 0.6802587457860856 0.2072576247508252 14.491394042896996 0 0 0
146 1 1 0.7578097661942493 1.1217778171742105 14.234192142340461 0 0 0
147 1 1 0.8353607866024131 1.8743132927976403 13.654372896429962 0 0 0
148 1 1 0.9129118070105768 2.35619792894109 12.835662204274975 0 0 0
149 1 1 0.9904628274187388 2.4978475841454473 11.896281889822685 0 0 0
150 1 1 1.0680138478269026 2.2788080481992017 10.971878470479997 0 0 0
151 1 1 1.1455648682350663 1.7307086300929913 10.195935799999997 0 0 0
152 1 1 1.2231158886432283 0.9326948858013528 9.680499999999999 0 0 0
153 1 1 1.300666909051392 -6.123233995736769e-16 9.499999999999996 0 0 0
154 1 2 4.150666909051392 -6.123233995736771e-16 9.499999999999996 0 0 0
155 1 1 7.000666909051393 0.0 9.5 0 0 0
156 1 1 7.181166909051395 0.9326948858013535 9.422448979591838 0 0 0
157 1 1 7.696602709051394 1.7307086300929917 9.344897959183672 0 0 0
158 1 1 8.472545379531393 2.2788080481992017 9.26734693877551 0 0 0
159 1 1 9.396948798874082 2.4978475841454473 9.189795918367349 0 0 0
160 1 1 10.336329113326371 2.35619792894109 9.112244897959183 0 0 0
161 1 1 11.155039805481358 1.8743132927976398 9.034693877551021 0 0 0
162 1 1 11.734859051391854 1.12177781717421 8.957142857142856 0 0 0
163 1 1 11.992060951948392 0.2072576247508246 8.879591836734694 0 0 0
164 1 1 11.889505552710599 -0.7371905686865798 8.802040816326532 0 0 0
165 1 1 11.44200185332842 -1.575188444005642 8.724489795918366 0 0 0
166 1 1 10.714169387992637 -2.1857291080102903 8.646938775510204 0 0 0
167 1 1 9.811107164697738 -2.480650488818252 8.569387755102042 0 0 0
168 1 1 8.863217368487508 -2.417365939040858 8.491836734693877 0 0 0
169 1 1 8.0073752859347 -2.0050137476659646 8.414285714285715 0 0 0
170 1 1 7.3671645137599455 -1.3031375711281057 8.336734693877553 0 0 0
171 1 1 7.035031487465275 -0.4130883293193486 8.259183673469387 0 0 0
172 1 1 7.058936216047641 0.5366108672431225 8.181632653061225 0 0 0
173 1 1 7.4354268566997455 1.4088234545756868 8.104081632653063 0 0 0
174 1 1 8.110138160911433 2.0776019350675217 8.026530612244898 0 0 0
175 1 1 8.985641816354526 2.446374696135607 7.948979591836736 0 0 0
176 1 1 9.93551509518305 2.46189095108171 7.87142857142857 0 0 0
177 1 1 10.822596295934162 2.121910152691614 7.793877551020408 0 0 0
178 1 1 11.5187908932194 1.4755255282528492 7.716326530612246 0 0 0
179 1 1 11.92356838719078 0.6160750175343729 7.638775510204081 0 0 0
180 1 1 11.97847890771883 -0.33233672571606687 7.561224489795919 0 0 0
181 1 1 11.675593375639306 -1.2327590457731066 7.483673469387753 0 0 0
182 1 1 11.058648461784486 -1.9551709596205096 7.406122448979591 0 0 0
183 1 1 10.216731011715005 -2.3952561868987114 7.328571428571429 0 0 0
184 1 1 9.2714139052209 -2.489466420788739 7.251020408163264 0 0 0
185 1 1 8.359200932479919 -2.2241977035168734 7.173469387755102 0 0 0
186 1 1 7.611815646755858 -1.637754837857171 7.09591836734694 0 0 0
187 1 1 7.137180483307272 -0.8148201736108935 7.018367346938774 0 0 0
188 1 1 7.003832759736138 0.1257745237047972 6.940816326530612 0 0 0
189 1 1 7.231027887326125 1.048207379797515 6.86326530612245 0 0 0
190 1 1 7.785958889653241 1.819279090247472 6.785714285714285 0 0 0
191 1 1 8.588493729981451 2.327646900065694 6.708163265306123 0 0 0
192 1 1 9.522746377367358 2.4999024975144297 6.630612244897961 0 0 0
193 1 1 10.453810749528444 2.311172174322082 6.553061224489795 0 0 0
194 1 1 11.247241151124637 1.7887085891576262 6.475510204081633 0 0 0
195 1 1 11.788466232165458 1.007955483718809 6.3979591836734695 0 0 0
196 1 1 11.999333090948607 0.0816536064309957 6.320408163265306 0 0 0
197 1 1 11.849392553065798 -0.8564390516254574 6.242857142857142 0 0 0
198 1 1 11.36029603218731 -1.67086191062719 6.165306122448978 0 0 0
199 1 1 10.60266906592799 -2.244012309734357 6.087755102040816 0 0 0
200 1 1 9.685912988215694 -2.493127331315882 6.0102040816326525 0 0 0
201 1 1 8.742407376672073 -2.3822347662553947 5.932653061224489 0 0 0
202 1 1 7.908394441604024 -1.9273475009476282 5.855102040816327 0 0 0
203 1 1 7.304305650835374 -1.1941512565030241 5.777551020408163 0 0 0
204 1 1 7.017371425753119 -0.2885195706193837 5.700000000000001 0 0 0
205 1 2 7.017371425753119 -0.2885195706193837 2.8500000000000014 0 0 0
206 1 1 7.017371425753119 -0.2885195706193837 0.0 0 0 0
207 1 1 7.304305650835374 -1.1941512565030241 -0.07755102040816197 0 0 0
208 1 1 7.908394441604024 -1.9273475009476282 -0.15510204081632573 0 0 0
209 1 1 8.742407376672073 -2.3822347662553947 -0.23265306122448948 0 0 0
210 1 1 9.685912988215694 -2.493127331315882 -0.31020408163265145 0 0 0
211 1 1 10.60266906592799 -2.244012309734357 -0.3877551020408152 0 0 0
212 1 1 11.360296032187307 -1.67086191062719 -0.46530612244897895 0 0 0
213 1 1 11.849392553065798 -0.8564390516254574 -0.5428571428571409 0 0 0
214 1 1 11.999333090948607 0.0816536064309957 -0.6204081632653065 0 0 0
215 1 1 11.788466232165458 1.007955483718809 -0.6979591836734684 0 0 0
216 1 1 11.247241151124637 1.7887085891576262 -0.7755102040816322 0 0 0
217 1 1 10.45381074952844 2.311172174322082 -0.8530612244897959 0 0 0
218 1 1 9.522746377367358 2.4999024975144297 -0.9306122448979579 0 0 0
219 1 1 8.588493729981451 2.327646900065694 -1.0081632653061217 0 0 0
220 1 1 7.785958889653241 1.819279090247472 -1.0857142857142854 0 0 0
221 1 1 7.231027887326125 1.048207379797515 -1.1632653061224474 0 0 0
222 1 1 7.003832759736138 0.1257745237047972 -1.2408163265306111 0 0 0
223 1 1 7.137180483307272 -0.8148201736108935 -1.3183673469387749 0 0 0
224 1 1 7.611815646755858 -1.637754837857171 -1.3959183673469369 0 0 0
225 1 1 8.359200932479919 -2.2241977035168734 -1.4734693877551006 0 0 0
226 1 1 9.2714139052209 -2.489466420788739 -1.5510204081632644 0 0 0
227 1 1 10.216731011715005 -2.3952561868987114 -1.6285714285714281 0 0 0
228 1 1 11.058648461784482 -1.9551709596205096 -1.7061224489795919 0 0 0
229 1 1 11.675593375639306 -1.2327590457731066 -1.7836734693877538 0 0 0
230 1 1 11.97847890771883 -0.33233672571606687 -1.8612244897959176 0 0 0
231 1 1 11.923568387190777 0.6160750175343729 -1.9387755102040813 0 0 0
232 1 1 11.5187908932194 1.4755255282528492 -2.0163265306122433 0 0 0
233 1 1 10.822596295934158 2.121910152691614 -2.093877551020407 0 0 0
234 1 1 9.93551509518305 2.46189095108171 -2.171428571428571 0 0 0
235 1 1 8.985641816354523 2.446374696135607 -2.248979591836733 0 0 0
236 1 1 8.11013816091143 2.0776019350675217 -2.3265306122448965 0 0 0
237 1 1 7.4354268566997455 1.4088234545756868 -2.4040816326530603 0 0 0
238 1 1 7.058936216047638 0.5366108672431225 -2.481632653061224 0 0 0
239 1 1 7.035031487465275 -0.4130883293193486 -2.559183673469388 0 0 0
240 1 1 7.3671645137599455 -1.3031375711281057 -2.6367346938775498 0 0 0
241 1 1 8.0073752859347 -2.0050137476659646 -2.7142857142857135 0 0 0
242 1 1 8.863217368487504 -2.417365939040858 -2.7918367346938773 0 0 0
243 1 1 9.811107164697734 -2.480650488818252 -2.8693877551020393 0 0 0
244 1 1 10.714169387992634 -2.1857291080102903 -2.946938775510203 0 0 0
245 1 1 11.442001853328417 -1.575188444005642 -3.0244897959183668 0 0 0
246 1 1 11.889505552710599 -0.7371905686865798 -3.1020408163265287 0 0 0
247 1 1 11.992060951948389 0.2072576247508246 -3.1795918367346925 0 0 0
248 1 1 11.734859051391854 1.12177781717421 -3.2571428571428562 0 0 0
249 1 1 11.155039805481355 1.8743132927976398 -3.33469387755102 0 0 0
250 1 1 10.336329113326371 2.35619792894109 -3.4122448979591837 0 0 0
251 1 1 9.396948798874078 2.4978475841454473 -3.4897959183673457 0 0 0
252 1 1 8.472545379531393 2.2788080481992017 -3.5673469387755095 0 0 0
253 1 1 7.69660270905139 1.7307086300929917 -3.644897959183673 0 0 0
254 1 1 7.181166909051392 0.9326948858013535 -3.722448979591835 0 0 0
255 1 1 7.000666909051393 1.9721522630525295e-31 -3.799999999999999 0 0 0
256 1 2 7.000666909051393 1.9721522630525295e-31 -6.649999999999999 0 0 0
257 1 1 7.000666909051397 -6.123233995736766e-16 -9.5 0 0 0
258 1 1 6.923115888643231 0.9326948858013528 -9.680500000000002 0 0 0
259 1 1 6.845564868235069 1.7307086300929913 -10.1959358 0 0 0
260 1 1 6.768013847826907 2.2788080481992017 -10.97187847048 0 0 0
261 1 1 6.690462827418742 2.4978475841454473 -11.896281889822689 0 0 0
262 1 1 6.61291180701058 2.35619792894109 -12.835662204274978 0 0 0
263 1 1 6.535360786602414 1.8743132927976403 -13.654372896429965 0 0 0
264 1 1 6.457809766194252 1.1217778171742105 -14.234192142340461 0 0 0
265 1 1 6.38025874578609 0.2072576247508252 -14.491394042897 0 0 0
266 1 1 6.3027077253779265 -0.7371905686865792 -14.388838643659206 0 0 0
267 1 1 6.225156704969763 -1.5751884440056416 -13.941334944277028 0 0 0
268 1 1 6.147605684561601 -2.1857291080102903 -13.213502478941244 0 0 0
269 1 1 6.070054664153437 -2.480650488818252 -12.310440255646345 0 0 0
270 1 1 5.992503643745273 -2.417365939040858 -11.362550459436115 0 0 0
271 1 1 5.9149526233371095 -2.0050137476659646 -10.50670837688331 0 0 0
272 1 1 5.8374016029289475 -1.3031375711281061 -9.866497604708552 0 0 0
273 1 1 5.759850582520784 -0.41308832931934913 -9.534364578413882 0 0 0
274 1 1 5.68229956211262 0.5366108672431218 -9.558269306996248 0 0 0
275 1 1 5.604748541704456 1.4088234545756864 -9.934759947648352 0 0 0
276 1 1 5.527197521296294 2.0776019350675217 -10.609471251860036 0 0 0
277 1 1 5.4496465008881305 2.446374696135607 -11.484974907303133 0 0 0
278 1 1 5.372095480479967 2.46189095108171 -12.434848186131656 0 0 0
279 1 1 5.294544460071803 2.121910152691614 -13.321929386882768 0 0 0
280 1 1 5.216993439663641 1.4755255282528497 -14.018123984168007 0 0 0
281 1 1 5.139442419255477 0.6160750175343735 -14.422901478139387 0 0 0
282 1 1 5.0618913988473135 -0.3323367257160663 -14.477811998667438 0 0 0
283 1 1 4.98434037843915 -1.2327590457731061 -14.174926466587912 0 0 0
284 1 1 4.906789358030988 -1.9551709596205091 -13.557981552733093 0 0 0
285 1 1 4.829238337622824 -2.3952561868987114 -12.716064102663612 0 0 0
286 1 1 4.75168731721466 -2.489466420788739 -11.77074699616951 0 0 0
287 1 1 4.674136296806498 -2.2241977035168734 -10.858534023428525 0 0 0
288 1 1 4.596585276398335 -1.6377548378571714 -10.111148737704465 0 0 0
289 1 1 4.519034255990171 -0.8148201736108942 -9.63651357425588 0 0 0
290 1 1 4.441483235582009 0.12577452370479658 -9.503165850684745 0 0 0
291 1 1 4.363932215173845 1.0482073797975147 -9.730360978274732 0 0 0
292 1 1 4.286381194765681 1.8192790902474716 -10.285291980601848 0 0 0
293 1 1 4.208830174357518 2.327646900065694 -11.087826820930058 0 0 0
294 1 1 4.131279153949354 2.4999024975144297 -12.022079468315965 0 0 0
295 1 1 4.053728133541192 2.311172174322082 -12.953143840477047 0 0 0
296 1 1 3.976177113133028 1.7887085891576266 -13.746574242073244 0 0 0
297 1 1 3.8986260927248644 1.0079554837188094 -14.287799323114065 0 0 0
298 1 1 3.8210750723167024 0.08165360643099631 -14.498666181897214 0 0 0
299 1 1 3.7435240519085387 -0.8564390516254567 -14.348725644014404 0 0 0
300 1 1 3.665973031500375 -1.6708619106271896 -13.859629123135917 0 0 0
301 1 1 3.588422011092211 -2.244012309734357 -13.102002156876601 0 0 0
302 1 1 3.510870990684049 -2.493127331315882 -12.185246079164301 0 0 0
303 1 1 3.4333199702758854 -2.3822347662553947 -11.24174046762068 0 0 0
304 1 1 3.3557689498677217 -1.9273475009476286 -10.40772753255263 0 0 0
305 1 1 3.2782179294595597 -1.1941512565030246 -9.803638741783981 0 0 0
306 1 1 3.200666909051396 -0.28851957061938427 -9.516704516701726 0 0 0
307 1 2 0.3506669090513981 -0.28851957061938427 -9.516704516701726 0 0 0

Velocities

1 0.0 0.0 0.0
2 0.0 0.0 0.0
3 0.0 0.0 0.0
4 0.0 0.0 0.0
5 0.0 0.0 0.0
6 0.0 0.0 0.0
7 0.0 0.0 0.0
8 0.0 0.0 0.0
9 0.0 0.0 0.0
10 0.0 0.0 0.0
11 0.0 0.0 0.0
12 0.0 0.0 0.0
13 0.0 0.0 0.0
14 0.0 0.0 0.0
15 0.0 0.0 0.0
16 0.0 0.0 0.0
17 0.0 0.0 0.0
18 0.0 0.0 0.0
19 0.0 0.0 0.0
20 0.0 0.0 0.0
21 0.0 0.0 0.0
22 0.0 0.0 0.0
23 0.0 0.0 0.0
24 0.0 0.0 0.0
25 0.0 0.0 0.0
26 0.0 0.0 0.0
27 0.0 0.0 0.0
28 0.0 0.0 0.0
29 0.0 0.0 0.0
30 0.0 0.0 0.0
31 0.0 0.0 0.0
32 0.0 0.0 0.0
33 0.0 0.0 0.0
34 0.0 0.0 0.0
35 0.0 0.0 0.0
36 0.0 0.0 0.0
37 0.0 0.0 0.0
38 0.0 0.0 0.0
39 0.0 0.0 0.0
40 0.0 0.0 0.0
41 0.0 0.0 0.0
42 0.0 0.0 0.0
43 0.0 0.0 0.0
44 0.0 0.0 0.0
45 0.0 0.0 0.0
46 0.0 0.0 0.0
47 0.0 0.0 0.0
48 0.0 0.0 0.0
49 0.0 0.0 0.0
50 0.0 0.0 0.0
51 0.0 0.0 0.0
52 0.0 0.0 0.0
53 0.0 0.0 0.0
54 0.0 0.0 0.0
55 0.0 0.0 0.0
56 0.0 0.0 0.0
57 0.0 0.0 0.0
58 0.0 0.0 0.0
59 0.0 0.0 0.0
60 0.0 0.0 0.0
61 0.0 0.0 0.0
62 0.0 0.0 0.0
63 0.0 0.0 0.0
64 0.0 0.0 0.0
65 0.0 0.0 0.0
66 0.0 0.0 0.0
67 0.0 0.0 0.0
68 0.0 0.0 0.0
69 0.0 0.0 0.0
70 0.0 0.0 0.0
71 0.0 0.0 0.0
72 0.0 0.0 0.0
73 0.0 0.0 0.0
74 0.0 0.0 0.0
75 0.0 0.0 0.0
76 0.0 0.0 0.0
77 0.0 0.0 0.0
78 0.0 0.0 0.0
79 0.0 0.0 0.0
80 0.0 0.0 0.0
81 0.0 0.0 0.0
82 0.0 0.0 0.0
83 0.0 0.0 0.0
84 0.0 0.0 0.0
85 0.0 0.0 0.0
86 0.0 0.0 0.0
87 0.0 0.0 0.0
88 0.0 0.0 0.0
89 0.0 0.0 0.0
90 0.0 0.0 0.0
91 0.0 0.0 0.0
92 0.0 0.0 0.0
93 0.0 0.0 0.0
94 0.0 0.0 0.0
95 0.0 0.0 0.0
96 0.0 0.0 0.0
97 0.0 0.0 0.0
98 0.0 0.0 0.0
99 0.0 0.0 0.0
100 0.0 0.0 0.0
101 0.0 0.0 0.0
102 0.0 0.0 0.0
103 0.0 0.0 0.0
104 0.0 0.0 0.0
105 0.0 0.0 0.0
106 0.0 0.0 0.0
107 0.0 0.0 0.0
108 0.0 0.0 0.0
109 0.0 0.0 0.0
110 0.0 0.0 0.0
111 0.0 0.0 0.0
112 0.0 0.0 0.0
113 0.0 0.0 0.0
114 0.0 0.0 0.0
115 0.0 0.0 0.0
116 0.0 0.0 0.0
117 0.0 0.0 0.0
118 0.0 0.0 0.0
119 0.0 0.0 0.0
120 0.0 0.0 0.0
121 0.0 0.0 0.0
122 0.0 0.0 0.0
123 0.0 0.0 0.0
124 0.0 0.0 0.0
125 0.0 0.0 0.0
126 0.0 0.0 0.0
127 0.0 0.0 0.0
128 0.0 0.0 0.0
129 0.0 0.0 0.0
130 0.0 0.0 0.0
131 0.0 0.0 0.0
132 0.0 0.0 0.0
133 0.0 0.0 0.0
134 0.0 0.0 0.0
135 0.0 0.0 0.0
136 0.0 0.0 0.0
137 0.0 0.0 0.0
138 0.0 0.0 0.0
139 0.0 0.0 0.0
140 0.0 0.0 0.0
141 0.0 0.0 0.0
142 0.0 0.0 0.0
143 0.0 0.0 0.0
144 0.0 0.0 0.0
145 0.0 0.0 0.0
146 0.0 0.0 0.0
147 0.0 0.0 0.0
148 0.0 0.0 0.0
149 0.0 0.0 0.0
150 0.0 0.0 0.0
151 0.0 0.0 0.0
152 0.0 0.0 0.0
153 0.0 0.0 0.0
154 0.0 0.0 0.0
155 0.0 0.0 0.0
156 0.0 0.0 0.0
157 0.0 0.0 0.0
158 0.0 0.0 0.0
159 0.0 0.0 0.0
160 0.0 0.0 0.0
161 0.0 0.0 0.0
162 0.0 0.0 0.0
163 0.0 0.0 0.0
164 0.0 0.0 0.0
165 0.0 0.0 0.0
166 0.0 0.0 0.0
167 0.0 0.0 0.0
168 0.0 0.0 0.0
169 0.0 0.0 0.0
170 0.0 0.0 0.0
171 0.0 0.0 0.0
172 0.0 0.0 0.0
173 0.0 0.0 0.0
174 0.0 0.0 0.0
175 0.0 0.0 0.0
176 0.0 0.0 0.0
177 0.0 0.0 0.0
178 0.0 0.0 0.0
179 0.0 0.0 0.0
180 0.0 0.0 0.0
181 0.0 0.0 0.0
182 0.0 0.0 0.0
183 0.0 0.0 0.0
184 0.0 0.0 0.0
185 0.0 0.0 0.0
186 0.0 0.0 0.0
187 0.0 0.0 0.0
188 0.0 0.0 0.0
189 0.0 0.0 0.0
190 0.0 0.0 0.0
191 0.0 0.0 0.0
192 0.0 0.0 0.0
193 0.0 0.0 0.0
194 0.0 0.0 0.0
195 0.0 0.0 0.0
196 0.0 0.0 0.0
197 0.0 0.0 0.0
198 0.0 0.0 0.0
199 0.0 0.0 0.0
200 0.0 0.0 0.0
201 0.0 0.0 0.0
202 0.0 0.0 0.0
203 0.0 0.0 0.0
204 0.0 0.0 0.0
205 0.0 0.0 0.0
206 0.0 0.0 0.0
207 0.0 0.0 0.0
208 0.0 0.0 0.0
209 0.0 0.0 0.0
210 0.0 0.0 0.0
211 0.0 0.0 0.0
212 0.0 0.0 0.0
213 0.0 0.0 0.0
214 0.0 0.0 0.0
215 0.0 0.0 0.0
216 0.0 0.0 0.0
217 0.0 0.0 0.0
218 0.0 0.0 0.0
219 0.0 0.0 0.0
220 0.0 0.0 0.0
221 0.0 0.0 0.0
222 0.0 0.0 0.0
223 0.0 0.0 0.0
224 0.0 0.0 0.0
225 0.0 0.0 0.0
226 0.0 0.0 0.0
227 0.0 0.0 0.0
228 0.0 0.0 0.0
229 0.0 0.0 0.0
230 0.0 0.0 0.0
231 0.0 0.0 0.0
232 0.0 0.0 0.0
233 0.0 0.0 0.0
234 0.0 0.0 0.0
235 0.0 0.0 0.0
236 0.0 0.0 0.0
237 0.0 0.0 0.0
238 0.0 0.0 0.0
239 0.0 0.0 0.0
240 0.0 0.0 0.0
241 0.0 0.0 0.0
242 0.0 0.0 0.0
243 0.0 0.0 0.0
244 0.0 0.0 0.0
245 0.0 0.0 0.0
246 0.0 0.0 0.0
247 0.0 0.0 0.0
248 0.0 0.0 0.0
249 0.0 0.0 0.0
250 0.0 0.0 0.0
251 0.0 0.0 0.0
252 0.0 0.0 0.0
253 0.0 0.0 0.0
254 0.0 0.0 0.0
255 0.0 0.0 0.0
256 0.0 0.0 0.0
257 0.0 0.0 0.0
258 0.0 0.0 0.0
259 0.0 0.0 0.0
260 0.0 0.0 0.0
261 0.0 0.0 0.0
262 0.0 0.0 0.0
263 0.0 0.0 0.0
264 0.0 0.0 0.0
265 0.0 0.0 0.0
266 0.0 0.0 0.0
267 0.0 0.0 0.0
268 0.0 0.0 0.0
269 0.0 0.0 0.0
270 0.0 0.0 0.0
271 0.0 0.0 0.0
272 0.0 0.0 0.0
273 0.0 0.0 0.0
274 0.0 0.0 0.0
275 0.0 0.0 0.0
276 0.0 0.0 0.0
277 0.0 0.0 0.0
278 0.0 0.0 0.0
279 0.0 0.0 0.0
280 0.0 0.0 0.0
281 0.0 0.0 0.0
282 0.0 0.0 0.0
283 0.0 0.0 0.0
284 0.0 0.0 0.0
285 0.0 0.0 0.0
286 0.0 0.0 0.0
287 0.0 0.0 0.0
288 0.0 0.0 0.0
289 0.0 0.0 0.0
290 0.0 0.0 0.0
291 0.0 0.0 0.0
292 0.0 0.0 0.0
293 0.0 0.0 0.0
294 0.0 0.0 0.0
295 0.0 0.0 0.0
296 0.0 0.0 0.0
297 0.0 0.0 0.0
298 0.0 0.0 0.0
299 0.0 0.0 0.0
300 0.0 0.0 0.0
301 0.0 0.0 0.0
302 0.0 0.0 0.0
303 0.0 0.0 0.0
304 0.0 0.0 0.0
305 0.0 0.0 0.0
306 0.0 0.0 0.0
307 0.0 0.0 0.0

Bonds

1 2 1 2
2 1 2 3
3 1 3 4
4 1 4 5
5 1 5 6
6 1 6 7
7 1 7 8
8 1 8 9
9 1 9 10
10 1 10 11
11 1 11 12
12 1 12 13
13 1 13 14
14 1 14 15
15 1 15 16
16 1 16 17
17 1 17 18
18 1 18 19
19 1 19 20
20 1 20 21
21 1 21 22
22 1 22 23
23 1 23 24
24 1 24 25
25 1 25 26
26 1 26 27
27 1 27 28
28 1 28 29
29 1 29 30
30 1 30 31
31 1 31 32
32 1 32 33
33 1 33 34
34 1 34 35
35 1 35 36
36 1 36 37
37 1 37 38
38 1 38 39
39 1 39 40
40 1 40 41
41 1 41 42
42 1 42 43
43 1 43 44
44 1 44 45
45 1 45 46
46 1 46 47
47 1 47 48
48 1 48 49
49 1 49 50
50 1 50 51
51 2 51 52
52 2 52 53
53 1 53 54
54 1 54 55
55 1 55 56
56 1 56 57
57 1 57 58
58 1 58 59
59 1 59 60
60 1 60 61
61 1 61 62
62 1 62 63
63 1 63 64
64 1 64 65
65 1 65 66
66 1 66 67
67 1 67 68
68 1 68 69
69 1 69 70
70 1 70 71
71 1 71 72
72 1 72 73
73 1 73 74
74 1 74 75
75 1 75 76
76 1 76 77
77 1 77 78
78 1 78 79
79 1 79 80
80 1 80 81
81 1 81 82
82 1 82 83
83 1 83 84
84 1 84 85
85 1 85 86
86 1 86 87
87 1 87 88
88 1 88 89
89 1 89 90
90 1 90 91
91 1 91 92
92 1 92 93
93 1 93 94
94 1 94 95
95 1 95 96
96 1 96 97
97 1 97 98
98 1 98 99
99 1 99 100
100 1 100 101
101 1 101 102
102 2 102 103
103 2 103 104
104 1 104 105
105 1 105 106
106 1 106 107
107 1 107 108
108 1 108 109
109 1 109 110
110 1 110 111
111 1 111 112
112 1 112 113
113 1 113 114
114 1 114 115
115 1 115 116
116 1 116 117
117 1 117 118
118 1 118 119
119 1 119 120
120 1 120 121
121 1 121 122
122 1 122 123
123 1 123 124
124 1 124 125
125 1 125 126
126 1 126 127
127 1 127 128
128 1 128 129
129 1 129 130
130 1 130 131
131 1 131 132
132 1 132 133
133 1 133 134
134 1 134 135
135 1 135 136
136 1 136 137
137 1 137 138
138 1 138 139
139 1 139 140
140 1 140 141
141 1 141 142
142 1 142 143
143 1 143 144
144 1 144 145
145 1 145 146
146 1 146 147
147 1 147 148
148 1 148 149
149 1 149 150
150 1 150 151
151 1 151 152
152 1 152 153
153 2 153 154
154 2 154 155
155 1 155 156
156 1 156 157
157 1 157 158
158 1 158 159
159 1 159 160
160 1 160 161
161 1 161 162
162 1 162 163
163 1 163 164
164 1 164 165
165 1 165 166
166 1 166 167
167 1 167 168
168 1 168 169
169 1 169 170
170 1 170 171
171 1 171 172
172 1 172 173
173 1 173 174
174 1 174 175
175 1 175 176
176 1 176 177
177 1 177 178
178 1 178 179
179 1 179 180
180 1 180 181
181 1 181 182
182 1 182 183
183 1 183 184
184 1 184 185
185 1 185 186
186 1 186 187
187 1 187 188
188 1 188 189
189 1 189 190
190 1 190 191
191 1 191 192
192 1 192 193
193 1 193 194
194 1 194 195
195 1 195 196
196 1 196 197
197 1 197 198
198 1 198 199
199 1 199 200
200 1 200 201
201 1 201 202
202 1 202 203
203 1 203 204
204 2 204 205
205 2 205 206
206 1 206 207
207 1 207 208
208 1 208 209
209 1 209 210
210 1 210 211
211 1 211 212
212 1 212 213
213 1 213 214
214 1 214 215
215 1 215 216
216 1 216 217
217 1 217 218
218 1 218 219
219 1 219 220
220 1 220 221
221 1 221 222
222 1 222 223
223 1 223 224
224 1 224 225
225 1 225 226
226 1 226 227
227 1 227 228
228 1 228 229
229 1 229 230
230 1 230 231
231 1 231 232
232 1 232 233
233 1 233 234
234 1 234 235
235 1 235 236
236 1 236 237
237 1 237 238
238 1 238 239
239 1 239 240
240 1 240 241
241 1 241 242
242 1 242 243
243 1 243 244
244 1 244 245
245 1 245 246
246 1 246 247
247 1 247 248
248 1 248 249
249 1 249 250
250 1 250 251
251 1 251 252
252 1 252 253
253 1 253 254
254 1 254 255
255 2 255 256
256 2 256 257
257 1 257 258
258 1 258 259
259 1 259 260
260 1 260 261
261 1 261 262
262 1 262 263