The first line (this line) of the header is always skipped; it typically contains a description of the file.

#--------------------- Header ---------------------
80 atoms
79 bonds

2 atom types
1 bond types

-4.1 4.1 xlo xhi
-4.1 4.1 ylo yhi
-5.03 5.887125 zlo zhi

#--------------------- Body ---------------------
#---------- Section 1 ----------
Atoms # bond
# atom-ID molecule-ID atom-type x y z nx ny nz
1 1 1 0.857949448463 0.0 -4.03 0 0 0
2 1 1 0.731522158745 0.448277355421 -3.917125 0 0 0
3 1 1 0.389500898859 0.764438556005 -3.80425 0 0 0
4 1 1 -0.0673139379066 0.85530467664 -3.691375 0 0 0
5 1 1 -0.504290033019 0.694095684122 -3.5785 0 0 0
6 1 1 -0.792641935365 0.328323039734 -3.465625 0 0 0
7 1 1 -0.847386667067 -0.134212863002 -3.35275 0 0 0
8 1 1 -0.652389878795 -0.557193594871 -3.239875 0 0 0
9 1 1 -0.26512095989 -0.815958413613 -3.127 0 0 0
10 1 1 0.200284321167 -0.834244236908 -3.014125 0 0 0
11 1 1 0.606661872924 -0.606661872924 -2.90125 0 0 0
12 1 1 0.834244236908 -0.200284321167 -2.788375 0 0 0
13 1 1 0.815958413613 0.26512095989 -2.6755 0 0 0
14 1 1 0.557193594871 0.652389878795 -2.562625 0 0 0
15 1 1 0.134212863002 0.847386667067 -2.44975 0 0 0
16 1 1 -0.328323039734 0.792641935365 -2.336875 0 0 0
17 1 1 -0.694095684122 0.504290033019 -2.224 0 0 0
18 1 1 -0.85530467664 0.0673139379066 -2.111125 0 0 0
19 1 1 -0.764438556005 -0.389500898859 -1.99825 0 0 0
20 1 1 -0.448277355421 -0.731522158745 -1.885375 0 0 0
21 1 1 -3.67739766062e-16 -0.857949448463 -1.7725 0 0 0
22 1 1 0.448277355421 -0.731522158745 -1.659625 0 0 0
23 1 1 0.764438556005 -0.389500898859 -1.54675 0 0 0
24 1 1 0.85530467664 0.0673139379066 -1.433875 0 0 0
25 1 1 0.694095684122 0.504290033019 -1.321 0 0 0
26 1 1 0.328323039734 0.792641935365 -1.208125 0 0 0
27 1 1 -0.134212863002 0.847386667067 -1.09525 0 0 0
28 1 1 -0.557193594871 0.652389878795 -0.982375 0 0 0
29 1 1 -0.815958413613 0.26512095989 -0.8695 0 0 0
30 1 1 -0.834244236908 -0.200284321167 -0.756625 0 0 0
31 1 1 -0.606661872924 -0.606661872924 -0.64375 0 0 0
32 1 1 -0.200284321167 -0.834244236908 -0.530875 0 0 0
33 1 1 0.26512095989 -0.815958413613 -0.418 0 0 0
34 1 1 0.652389878795 -0.557193594871 -0.305125 0 0 0
35 1 1 0.847386667067 -0.134212863002 -0.19225 0 0 0
36 1 1 0.792641935365 0.328323039734 -0.079375 0 0 0
37 1 1 0.504290033019 0.694095684122 0.0335 0 0 0
38 1 1 0.0673139379066 0.85530467664 0.146375 0 0 0
39 1 1 -0.389500898859 0.764438556005 0.25925 0 0 0
40 1 1 -0.731522158745 0.448277355421 0.372125 0 0 0
41 1 1 -0.857949448463 7.35479532124e-16 0.485 0 0 0
42 1 1 -0.731522158745 -0.448277355421 0.597875 0 0 0
43 1 1 -0.389500898859 -0.764438556005 0.71075 0 0 0
44 1 1 0.0673139379066 -0.85530467664 0.823625 0 0 0
45 1 1 0.504290033019 -0.694095684122 0.9365 0 0 0
46 1 1 0.792641935365 -0.328323039734 1.049375 0 0 0
47 1 1 0.847386667067 0.134212863002 1.16225 0 0 0
48 1 1 0.652389878795 0.557193594871 1.275125 0 0 0
49 1 1 0.26512095989 0.815958413613 1.388 0 0 0
50 1 1 -0.200284321167 0.834244236908 1.500875 0 0 0
51 1 1 -0.606661872924 0.606661872924 1.61375 0 0 0
52 1 1 -0.834244236908 0.200284321167 1.726625 0 0 0
53 1 1 -0.815958413613 -0.26512095989 1.8395 0 0 0
54 1 1 -0.557193594871 -0.652389878795 1.952375 0 0 0
55 1 1 -0.134212863002 -0.847386667067 2.06525 0 0 0
56 1 1 0.328323039734 -0.792641935365 2.178125 0 0 0
57 1 1 0.694095684122 -0.504290033019 2.291 0 0 0
58 1 1 0.85530467664 -0.0673139379066 2.403875 0 0 0
59 1 1 0.764438556005 0.389500898859 2.51675 0 0 0
60 1 1 0.448277355421 0.731522158745 2.629625 0 0 0
61 1 1 -4.20805072452e-16 0.857949448463 2.7425 0 0 0
62 1 1 -0.448277355421 0.731522158745 2.855375 0 0 0
63 1 1 -0.764438556005 0.389500898859 2.96825 0 0 0
64 1 1 -0.85530467664 -0.0673139379066 3.081125 0 0 0
65 1 1 -0.694095684122 -0.504290033019 3.194 0 0 0
66 1 1 -0.328323039734 -0.792641935365 3.306875 0 0 0
67 1 1 0.134212863002 -0.847386667067 3.41975 0 0 0
68 1 1 0.557193594871 -0.652389878795 3.532625 0 0 0
69 1 1 0.815958413613 -0.26512095989 3.6455 0 0 0
70 1 1 0.834244236908 0.200284321167 3.758375 0 0 0
71 1 1 0.606661872924 0.606661872924 3.87125 0 0 0
72 1 1 0.200284321167 0.834244236908 3.984125 0 0 0
73 1 1 -0.26512095989 0.815958413613 4.097 0 0 0
74 1 1 -0.652389878795 0.557193594871 4.209875 0 0 0
75 1 1 -0.847386667067 0.134212863002 4.32275 0 0 0
76 1 1 -0.792641935365 -0.328323039734 4.435625 0 0 0
77 1 1 -0.504290033019 -0.694095684122 4.5485 0 0 0
78 1 1 -0.0673139379066 -0.85530467664 4.661375 0 0 0
79 1 1 0.389500898859 -0.764438556005 4.77425 0 0 0
80 1 1 0.731522158745 -0.448277355421 4.887125 0 0 0

#---------- Section 2 ----------
Velocities
#atom-ID vx vy vz
1 0.0 0.0 0.0
2 0.0 0.0 0.0
3 0.0 0.0 0.0
4 0.0 0.0 0.0
5 0.0 0.0 0.0
6 0.0 0.0 0.0
7 0.0 0.0 0.0
8 0.0 0.0 0.0
9 0.0 0.0 0.0
10 0.0 0.0 0.0
11 0.0 0.0 0.0
12 0.0 0.0 0.0
13 0.0 0.0 0.0
14 0.0 0.0 0.0
15 0.0 0.0 0.0
16 0.0 0.0 0.0
17 0.0 0.0 0.0
18 0.0 0.0 0.0
19 0.0 0.0 0.0
20 0.0 0.0 0.0
21 0.0 0.0 0.0
22 0.0 0.0 0.0
23 0.0 0.0 0.0
24 0.0 0.0 0.0
25 0.0 0.0 0.0
26 0.0 0.0 0.0
27 0.0 0.0 0.0
28 0.0 0.0 0.0
29 0.0 0.0 0.0
30 0.0 0.0 0.0
31 0.0 0.0 0.0
32 0.0 0.0 0.0
33 0.0 0.0 0.0
34 0.0 0.0 0.0
35 0.0 0.0 0.0
36 0.0 0.0 0.0
37 0.0 0.0 0.0
38 0.0 0.0 0.0
39 0.0 0.0 0.0
40 0.0 0.0 0.0
41 0.0 0.0 0.0
42 0.0 0.0 0.0
43 0.0 0.0 0.0
44 0.0 0.0 0.0
45 0.0 0.0 0.0
46 0.0 0.0 0.0
47 0.0 0.0 0.0
48 0.0 0.0 0.0
49 0.0 0.0 0.0
50 0.0 0.0 0.0
51 0.0 0.0 0.0
52 0.0 0.0 0.0
53 0.0 0.0 0.0
54 0.0 0.0 0.0
55 0.0 0.0 0.0
56 0.0 0.0 0.0
57 0.0 0.0 0.0
58 0.0 0.0 0.0
59 0.0 0.0 0.0
60 0.0 0.0 0.0
61 0.0 0.0 0.0
62 0.0 0.0 0.0
63 0.0 0.0 0.0
64 0.0 0.0 0.0
65 0.0 0.0 0.0
66 0.0 0.0 0.0
67 0.0 0.0 0.0
68 0.0 0.0 0.0
69 0.0 0.0 0.0
70 0.0 0.0 0.0
71 0.0 0.0 0.0
72 0.0 0.0 0.0
73 0.0 0.0 0.0
74 0.0 0.0 0.0
75 0.0 0.0 0.0
76 0.0 0.0 0.0
77 0.0 0.0 0.0
78 0.0 0.0 0.0
79 0.0 0.0 0.0
80 0.0 0.0 0.0

#---------- Section 3 ----------
Bonds
#ID type atom1 atom2
1 1 1 2
2 1 2 3
3 1 3 4
4 1 4 5
5 1 5 6
6 1 6 7
7 1 7 8
8 1 8 9
9 1 9 10
10 1 10 11
11 1 11 12
12 1 12 13
13 1 13 14
14 1 14 15
15 1 15 16
16 1 16 17
17 1 17 18
18 1 18 19
19 1 19 20
20 1 20 21
21 1 21 22
22 1 22 23
23 1 23 24
24 1 24 25
25 1 25 26
26 1 26 27
27 1 27 28
28 1 28 29
29 1 29 30
30 1 30 31
31 1 31 32
32 1 32 33
33 1 33 34
34 1 34 35
35 1 35 36
36 1 36 37
37 1 37 38
38 1 38 39
39 1 39 40
40 1 40 41
41 1 41 42
42 1 42 43
43 1 43 44
44 1 44 45
45 1 45 46
46 1 46 47
47 1 47 48
48 1 48 49
49 1 49 50
50 1 50 51
51 1 51 52
52 1 52 53
53 1 53 54
54 1 54 55
55 1 55 56
56 1 56 57
57 1 57 58
58 1 58 59
59 1 59 60
60 1 60 61
61 1 61 62
62 1 62 63
63 1 63 64
64 1 64 65
65 1 65 66
66 1 66 67
67 1 67 68
68 1 68 69
69 1 69 70
70 1 70 71
71 1 71 72
72 1 72 73
73 1 73 74
74 1 74 75
75 1 75 76
76 1 76 77
77 1 77 78
78 1 78 79
79 1 79 80
