Helical homogenous linear polymer

50 atoms
49 bonds

3 atom types
2 bond types

-5.75 5.75 xlo xhi
-5.75 5.75 ylo yhi
-2.5 2.5 zlo zhi

Atoms

1 1 1 2.673107396928723 1.058358088968449 -1.44 0 0 0
2 1 1 2.0957848038365583 1.9680729295449797 -1.38 0 0 0
3 1 1 1.2241154632495839 2.6013777758398064 -1.32 0 0 0
4 1 1 0.18052274364677634 2.869326844231281 -1.26 0 0 0
5 1 1 -0.8884238588279736 2.7342874843485667 -1.2 0 0 0
6 1 1 -1.8325939705274827 2.215225572980394 -1.1400000000000001 0 0 0
7 1 1 -2.5193817051261074 1.3850418130424325 -1.08 0 0 0
8 1 1 -2.8523297662791234 0.3603330464973755 -1.02 0 0 0
9 1 1 -2.7846765882448143 -0.7149834255989582 -0.96 0 0 0
10 1 1 -2.325923858827974 -1.68988260034086 -0.9 0 0 0
11 1 1 -1.5405020355646166 -2.4274427858182923 -0.8400000000000001 0 0 0
12 1 1 -0.5387212794339583 -2.82407584584498 -0.78 0 0 0
13 1 1 0.5387212794339573 -2.82407584584498 -0.72 0 0 0
14 1 1 1.5405020355646135 -2.4274427858182945 -0.66 0 0 0
15 1 1 2.325923858827972 -1.689882600340863 -0.6000000000000001 0 0 0
16 1 1 2.784676588244814 -0.7149834255989591 -0.54 0 0 0
17 1 1 2.852329766279124 0.3603330464973745 -0.48 0 0 0
18 1 1 2.5193817051261074 1.3850418130424327 -0.41999999999999993 0 0 0
19 1 1 1.832593970527485 2.2152255729803927 -0.3600000000000001 0 0 0
20 1 1 0.8884238588279747 2.7342874843485663 -0.30000000000000004 0 0 0
21 1 1 -0.18052274364677404 2.869326844231281 -0.24 0 0 0
22 1 1 -1.2241154632495812 2.601377775839808 -0.18000000000000016 0 0 0
23 1 1 -2.095784803836555 1.9680729295449826 -0.1200000000000001 0 0 0
24 1 1 -2.6731073969287227 1.0583580889684492 -0.06000000000000005 0 0 0
25 1 1 -2.875 1.056257864264592e-15 0.0 0 0 0
26 1 1 -2.6731073969287236 -1.0583580889684472 0.06000000000000005 0 0 0
27 1 1 -2.09578480383656 -1.968072929544978 0.11999999999999988 0 0 0
28 1 1 -1.2241154632495876 -2.6013777758398042 0.17999999999999994 0 0 0
29 1 1 -0.18052274364677615 -2.869326844231281 0.24 0 0 0
30 1 1 0.8884238588279677 -2.7342874843485685 0.2999999999999998 0 0 0
31 1 1 1.8325939705274812 -2.2152255729803954 0.3599999999999999 0 0 0
32 1 1 2.519381705126106 -1.3850418130424342 0.41999999999999993 0 0 0
33 1 1 2.852329766279124 -0.3603330464973741 0.48 0 0 0
34 1 1 2.784676588244815 0.7149834255989571 0.54 0 0 0
35 1 1 2.3259238588279745 1.6898826003408594 0.6000000000000001 0 0 0
36 1 1 1.540502035564613 2.4274427858182945 0.6600000000000001 0 0 0
37 1 1 0.5387212794339619 2.8240758458449795 0.7199999999999998 0 0 0
38 1 1 -0.5387212794339536 2.824075845844981 0.7799999999999998 0 0 0
39 1 1 -1.5405020355646102 2.4274427858182968 0.8399999999999999 0 0 0
40 1 1 -2.3259238588279727 1.6898826003408618 0.8999999999999999 0 0 0
41 1 1 -2.784676588244814 0.7149834255989602 0.96 0 0 0
42 1 1 -2.8523297662791243 -0.3603330464973709 1.02 0 0 0
43 1 1 -2.519381705126108 -1.3850418130424316 1.08 0 0 0
44 1 1 -1.8325939705274874 -2.2152255729803905 1.1399999999999997 0 0 0
45 1 1 -0.8884238588279757 -2.7342874843485663 1.1999999999999997 0 0 0
46 1 1 0.1805227436467679 -2.8693268442312814 1.2599999999999998 0 0 0
47 1 1 1.2241154632495803 -2.601377775839808 1.3199999999999998 0 0 0
48 1 1 2.0957848038365583 -1.9680729295449801 1.38 0 0 0
49 1 1 2.6731073969287205 -1.0583580889684547 1.44 0 0 0
50 1 1 2.875 -2.112515728529184e-15 1.5 0 0 0

Velocities

1 0.0 0.0 0.0
2 0.0 0.0 0.0
3 0.0 0.0 0.0
4 0.0 0.0 0.0
5 0.0 0.0 0.0
6 0.0 0.0 0.0
7 0.0 0.0 0.0
8 0.0 0.0 0.0
9 0.0 0.0 0.0
10 0.0 0.0 0.0
11 0.0 0.0 0.0
12 0.0 0.0 0.0
13 0.0 0.0 0.0
14 0.0 0.0 0.0
15 0.0 0.0 0.0
16 0.0 0.0 0.0
17 0.0 0.0 0.0
18 0.0 0.0 0.0
19 0.0 0.0 0.0
20 0.0 0.0 0.0
21 0.0 0.0 0.0
22 0.0 0.0 0.0
23 0.0 0.0 0.0
24 0.0 0.0 0.0
25 0.0 0.0 0.0
26 0.0 0.0 0.0
27 0.0 0.0 0.0
28 0.0 0.0 0.0
29 0.0 0.0 0.0
30 0.0 0.0 0.0
31 0.0 0.0 0.0
32 0.0 0.0 0.0
33 0.0 0.0 0.0
34 0.0 0.0 0.0
35 0.0 0.0 0.0
36 0.0 0.0 0.0
37 0.0 0.0 0.0
38 0.0 0.0 0.0
39 0.0 0.0 0.0
40 0.0 0.0 0.0
41 0.0 0.0 0.0
42 0.0 0.0 0.0
43 0.0 0.0 0.0
44 0.0 0.0 0.0
45 0.0 0.0 0.0
46 0.0 0.0 0.0
47 0.0 0.0 0.0
48 0.0 0.0 0.0
49 0.0 0.0 0.0
50 0.0 0.0 0.0

Bonds

1 1 1 2
2 1 2 3
3 1 3 4
4 1 4 5
5 1 5 6
6 1 6 7
7 1 7 8
8 1 8 9
9 1 9 10
10 1 10 11
11 1 11 12
12 1 12 13
13 1 13 14
14 1 14 15
15 1 15 16
16 1 16 17
17 1 17 18
18 1 18 19
19 1 19 20
20 1 20 21
21 1 21 22
22 1 22 23
23 1 23 24
24 1 24 25
25 1 25 26
26 1 26 27
27 1 27 28
28 1 28 29
29 1 29 30
30 1 30 31
31 1 31 32
32 1 32 33
33 1 33 34
34 1 34 35
35 1 35 36
36 1 36 37
37 1 37 38
38 1 38 39
39 1 39 40
40 1 40 41
41 1 41 42
42 1 42 43
43 1 43 44
44 1 44 45
45 1 45 46
46 1 46 47
47 1 47 48
48 1 48 49
49 1 49 50
