Helical homogenous linear polymer

1000 atoms
999 bonds

2 atom types
1 bond types

-3.5 3.5 xlo xhi
-3.5 3.5 ylo yhi
-46.5 46.5 zlo zhi

Atoms

1 1 1 1.471653019021796 0.9469621912220326 -45.409 0 0 0
2 1 1 0.7251572667382474 1.5926854486987425 -45.318 0 0 0
3 1 1 -0.25201886946644136 1.7317582075546392 -45.227 0 0 0
4 1 1 -1.1490250725676734 1.319939916288182 -45.136 0 0 0
5 1 1 -1.6805139499346502 0.48823443556865165 -45.045 0 0 0
6 1 1 -1.6774131307804077 -0.4987837093224584 -44.954 0 0 0
7 1 1 -1.1407090192765386 -1.3271333517552626 -44.863 0 0 0
8 1 1 -0.2411330086981174 -1.7333074949691396 -44.772 0 0 0
9 1 1 0.7351500247206602 -1.588097742946955 -44.681 0 0 0
10 1 1 1.4775738696285259 -0.937696891213245 -44.59 0 0 0
11 1 1 1.7499654564982399 0.010995501939727051 -44.499 0 0 0
12 1 1 1.4656740700737478 0.9561901067849712 -44.408 0 0 0
13 1 1 0.7151358807886106 1.5972102779561301 -44.317 0 0 0
14 1 1 -0.26289478096132346 1.7301405532913499 -44.226 0 0 0
15 1 1 -1.1572957643163895 1.3126943718533053 -44.135 0 0 0
16 1 1 -1.6835484252756499 0.47766588715532077 -44.044 0 0 0
17 1 1 -1.674246090227954 -0.5093132919494741 -43.953 0 0 0
18 1 1 -1.132347932746529 -1.3342743942700326 -43.862 0 0 0
19 1 1 -0.23023762841149628 -1.734788354371636 -43.771 0 0 0
20 1 1 0.7451137602388753 -1.583447341815535 -43.68 0 0 0
21 1 1 1.4834363881488963 -0.9283945725367836 -43.589 0 0 0
22 1 1 1.7498618273566782 0.02199056979586484 -43.498 0 0 0
23 1 1 1.4596372588230508 0.9653802735997511 -43.407 0 0 0
24 1 1 0.705086262498909 1.6016720520866061 -43.316 0 0 0
25 1 1 -0.2737603138204015 1.7284545960414914 -43.225 0 0 0
26 1 1 -1.1655207680099406 1.3053970044923184 -43.134 0 0 0
27 1 1 -1.6865164370075163 0.4670784813106599 -43.043 0 0 0
28 1 1 -1.671012953306626 -0.5198227677598084 -42.952 0 0 0
29 1 1 -1.1239421430590248 -1.3413627619163604 -42.861 0 0 0
30 1 1 -0.21933315873753542 -1.736200727300336 -42.77 0 0 0
31 1 1 0.7550480799416753 -1.5787344288943563 -42.679 0 0 0
32 1 1 1.4892403431407089 -0.9190556024322702 -42.588 0 0 0
33 1 1 1.7496891166664157 0.03298476950196719 -42.497 0 0 0
34 1 1 1.4535428235926742 0.974532328854326 -42.406 0 0 0
35 1 1 0.6950088086108693 1.6060705949469656 -42.315 0 0 0
36 1 1 -0.2846150390910427 1.7267004023637695 -42.224000000000004 0 0 0
37 1 1 -1.1736997589392573 1.298048102292796 -42.133 0 0 0
38 1 1 -1.6894178679582283 0.45647263600732335 -42.042 0 0 0
39 1 1 -1.667713847655134 -0.5303117218573508 -41.951 0 0 0
40 1 1 -1.11549198206021 -1.3483981748576286 -41.86 0 0 0
41 1 1 -0.20842003016602617 -1.7375445579971733 -41.769 0 0 0
42 1 1 0.7649525916391343 -1.5739591902411485 -41.678 0 0 0
43 1 1 1.4949855054737642 -0.9096803495862454 -41.587 0 0 0
44 1 1 1.749447331245775 0.04397766702583614 -41.496 0 0 0
45 1 1 1.4473910049804857 0.9836459112412248 -41.405 0 0 0
46 1 1 0.6849039169651086 1.6104057328902712 -41.314 0 0 0
47 1 1 -0.2954585282472857 1.7248780415107463 -41.223 0 0 0
48 1 1 -1.1818324142117937 1.2906479553768033 -41.132 0 0 0
49 1 1 -1.69225260358426 0.44584876994592365 -41.041 0 0 0
50 1 1 -1.6643489035165202 -0.5407797401561532 -40.95 0 0 0
51 1 1 -1.106997783347967 -1.3553803553477848 -40.859 0 0 0
52 1 1 -0.19749867352859202 -1.738819793410015 -40.768 0 0 0
53 1 1 0.7748269043180729 -1.5691218143741652 -40.677 0 0 0
54 1 1 1.5006716483388887 -0.9002691841176409 -40.586 0 0 0
55 1 1 1.7491364806400305 0.05496882838671896 -40.495 0 0 0
56 1 1 1.441182045849751 0.9927206609718192 -40.403999999999996 0 0 0
57 1 1 0.6747719864854436 1.614677294772701 -40.313 0 0 0
58 1 1 -0.3062903532067273 1.7229875854261105 -40.222 0 0 0
59 1 1 -1.1899184127642337 1.28319685588948 -40.131 0 0 0
60 1 1 -1.695020531975103 0.4352073025385017 -40.04 0 0 0
61 1 1 -1.6609182537330156 -0.5512264093967835 -39.949 0 0 0
62 1 1 -1.0984598822587308 -1.362309027742287 -39.858000000000004 0 0 0
63 1 1 -0.18656951998170498 -1.7400263831947482 -39.767 0 0 0
64 1 1 0.7846706281575506 -1.5642224922647145 -39.676 0 0 0
65 1 1 1.5062985472569013 -0.89082247756315 -39.585 0 0 0
66 1 1 1.748756577121031 0.06595781967239119 -39.494 0 0 0
67 1 1 1.434916191319549 1.0017562197905234 -39.403 0 0 0
68 1 1 0.6646134171631584 1.618885111960299 -39.312 0 0 0
69 1 1 -0.31711008634748966 1.721029108741827 -39.221000000000004 0 0 0
70 1 1 -1.1979574353752 1.275695097987475 -39.13 0 0 0
71 1 1 -1.697721543857682 0.424548653891976 -39.039 0 0 0
72 1 1 -1.657422033740805 -0.5616513171626097 -38.948 0 0 0
73 1 1 -1.0898786158541978 -1.3691839185090287 -38.857 0 0 0
74 1 1 -0.1756330009896335 -1.7411642797172746 -38.766 0 0 0
75 1 1 0.7944833745442057 -1.5592614173296444 -38.675 0 0 0
76 1 1 1.511865980087458 -0.881340602862588 -38.584 0 0 0
77 1 1 1.7483076356867184 0.07694420705626201 -38.493 0 0 0
78 1 1 1.4285936887550763 1.0107522309889618 -38.402 0 0 0
79 1 1 0.6544286100411525 1.6230290183356566 -38.311 0 0 0
80 1 1 -0.3279173005250101 1.7190026887752066 -38.22 0 0 0
81 1 1 -1.2059491646778584 1.268142977827333 -38.129 0 0 0
82 1 1 -1.7003555326006774 0.41387324479152626 -38.038 0 0 0
83 1 1 -1.6538603815646593 -0.5720540518961472 -37.947 0 0 0
84 1 1 -1.081254322908082 -1.3760047562390856 -37.856 0 0 0
85 1 1 -0.1646895483074148 -1.7422334380553886 -37.765 0 0 0
86 1 1 0.804264756087596 -1.554238785423707 -37.674 0 0 0
87 1 1 1.5173737270378564 -0.8718239343441113 -37.583 0 0 0
88 1 1 1.7477896740605312 0.08792755681458783 -37.492000000000004 0 0 0
89 1 1 1.422214787757916 1.019708339420006 -37.400999999999996 0 0 0
90 1 1 0.6442179671981949 1.6271088503044366 -37.31 0 0 0
91 1 1 -0.3387115690890025 1.7169084055258352 -37.219 0 0 0
92 1 1 -1.213893285172402 1.2605407935538433 -37.128 0 0 0
93 1 1 -1.702922394218718 0.40318149668404873 -37.037 0 0 0
94 1 1 -1.6502334378125119 -0.5824342029152293 -36.946 0 0 0
95 1 1 -1.0725873438927116 -1.382771271657456 -36.855000000000004 0 0 0
96 1 1 -0.15373959396379785 -1.743233816000552 -36.763999999999996 0 0 0
97 1 1 0.8140143866355489 -1.5491547948317983 -36.673 0 0 0
98 1 1 1.522821570671665 -0.8622728477095188 -36.582 0 0 0
99 1 1 1.7472027126907066 0.09890743534353912 -36.491 0 0 0
100 1 1 1.4157797401561638 1.02862419151182 -36.4 0 0 0
101 1 1 0.6339818917329703 1.631124446801863 -36.309 0 0 0
102 1 1 -0.3494924659002143 1.7147463416724316 -36.218 0 0 0
103 1 1 -1.2217894832385654 1.252888845288216 -36.127 0 0 0
104 1 1 -1.7054220273765104 0.3924738316614152 -36.036 0 0 0
105 1 1 -1.646541345669896 -0.5927913604292557 -35.945 0 0 0
106 1 1 -1.063878020965568 -1.3894831976337052 -35.854 0 0 0
107 1 1 -0.14278357024428032 -1.744165374059552 -35.763 0 0 0
108 1 1 0.8237318812893224 -1.5440096462611734 -35.672 0 0 0
109 1 1 1.5282092959173579 -0.8526877200193358 -35.581 0 0 0
110 1 1 1.746546774749476 0.1098834091762873 -35.49 0 0 0
111 1 1 1.4092887999944739 1.0374994352818396 -35.399 0 0 0
112 1 1 0.6237207877481993 1.635075649299067 -35.308 0 0 0
113 1 1 -0.3602595653472872 1.7125165825695774 -35.217 0 0 0
114 1 1 -1.2296374471479867 1.2451874351162489 -35.126 0 0 0
115 1 1 -1.7078543333928042 0.38175067244396693 -35.035 0 0 0
116 1 1 -1.6427842508942838 -0.6031251155553938 -34.944 0 0 0
117 1 1 -1.0551266979557976 -1.3961402691924958 -34.853 0 0 0
118 1 1 -0.13182190967388177 -1.7450280754560743 -34.762 0 0 0
119 1 1 0.8334168564188774 -1.538803542833482 -34.671 0 0 0
120 1 1 1.5335366900767555 -0.8430689296780123 -34.58 0 0 0
121 1 1 1.7458218861321448 0.12085504500020172 -34.489000000000004 0 0 0
122 1 1 1.4027422235240319 1.0463337203506609 -34.397999999999996 0 0 0
123 1 1 0.6134350603347073 1.638962301809335 -34.307 0 0 0
124 1 1 -0.37101244236358377 1.710219216244341 -34.216 0 0 0
125 1 1 -1.237436867076458 1.2374368670764582 -34.125 0 0 0
126 1 1 -1.7102192162443368 0.3710124423636035 -34.034 0 0 0
127 1 1 -1.638962301809335 -0.6134350603347073 -33.943 0 0 0
128 1 1 -1.046333720350661 -1.4027422235240317 -33.852000000000004 0 0 0
129 1 1 -0.12085504500022155 -1.7458218861321433 -33.761 0 0 0
130 1 1 0.8430689296780025 -1.5335366900767609 -33.67 0 0 0
131 1 1 1.53880354283347 -0.8334168564188996 -33.579 0 0 0
132 1 1 1.7450280754560743 0.13182190967388602 -33.488 0 0 0
133 1 1 1.3961402691925007 1.0551266979557912 -33.397 0 0 0
134 1 1 0.6031251155554147 1.642784250894276 -33.306 0 0 0
135 1 1 -0.38175067244394983 1.7078543333928078 -33.215 0 0 0
136 1 1 -1.2451874351162453 1.2296374471479903 -33.124 0 0 0
137 1 1 -1.7125165825695774 0.36025956534728604 -33.033 0 0 0
138 1 1 -1.6350756492990721 -0.6237207877481858 -32.942 0 0 0
139 1 1 -1.0374994352818612 -1.4092887999944579 -32.851 0 0 0
140 1 1 -0.10988340917629544 -1.7465467747494754 -32.76 0 0 0
141 1 1 0.8526877200193259 -1.5282092959173634 -32.669 0 0 0
142 1 1 1.5440096462611623 -0.8237318812893433 -32.578 0 0 0
143 1 1 1.7441653740595522 0.1427835702442753 -32.487 0 0 0
144 1 1 1.3894831976337176 1.0638780209655516 -32.396 0 0 0
145 1 1 0.5927913604292576 1.6465413456698954 -32.305 0 0 0
146 1 1 -0.3924738316614103 1.7054220273765115 -32.214 0 0 0
147 1 1 -1.252888845288195 1.2217894832385867 -32.123000000000005 0 0 0
148 1 1 -1.7147463416724318 0.34949246590021316 -32.032 0 0 0
149 1 1 -1.6311244468018729 -0.6339818917329454 -31.941000000000003 0 0 0
150 1 1 -1.0286241915118264 -1.4157797401561591 -31.85 0 0 0
151 1 1 -0.09890743534354726 -1.7472027126907062 -31.759 0 0 0
152 1 1 0.862272847709501 -1.522821570671675 -31.668 0 0 0
153 1 1 1.5491547948317974 -0.8140143866355506 -31.576999999999998 0 0 0
154 1 1 1.743233816000553 0.15373959396378972 -31.486 0 0 0
155 1 1 1.3827712716574572 1.07258734389271 -31.395 0 0 0
156 1 1 0.5824342029152312 1.6502334378125112 -31.304000000000002 0 0 0
157 1 1 -0.40318149668402264 1.7029223942187242 -31.213 0 0 0
158 1 1 -1.260540793553838 1.2138932851724078 -31.122 0 0 0
159 1 1 -1.7169084055258337 0.3387115690890105 -31.031 0 0 0
160 1 1 -1.6271088503044464 -0.64421796719817 -30.94 0 0 0
161 1 1 -1.0197083394200126 -1.4222147877579112 -30.849 0 0 0
162 1 1 -0.08792755681460838 -1.74778967406053 -30.758000000000003 0 0 0
163 1 1 0.8718239343441095 -1.5173737270378571 -30.667 0 0 0
164 1 1 1.5542387854237003 -0.8042647560876088 -30.576 0 0 0
165 1 1 1.7422334380553912 0.16468954830738813 -30.485 0 0 0
166 1 1 1.376004756239087 1.0812543229080804 -30.394 0 0 0
167 1 1 0.5720540518961609 1.6538603815646544 -30.303 0 0 0
168 1 1 -0.4138732447915183 1.7003555326006794 -30.212 0 0 0
169 1 1 -1.2681429778273274 1.2059491646778644 -30.121000000000002 0 0 0
170 1 1 -1.719002688775203 0.3279173005250304 -30.03 0 0 0
171 1 1 -1.6230290183356575 -0.6544286100411506 -29.939 0 0 0
172 1 1 -1.0107522309889787 -1.4285936887550648 -29.848 0 0 0
173 1 1 -0.07694420705626394 -1.7483076356867182 -29.756999999999998 0 0 0
174 1 1 0.8813406028625758 -1.511865980087465 -29.666 0 0 0
175 1 1 1.5592614173296377 -0.7944833745442185 -29.575000000000003 0 0 0
176 1 1 1.7411642797172773 0.17563300098960685 -29.484 0 0 0
177 1 1 1.3691839185090338 1.0898786158541913 -29.393 0 0 0
178 1 1 0.5616513171626174 1.657422033740802 -29.302 0 0 0
179 1 1 -0.42454865389194396 1.69772154385769 -29.211000000000002 0 0 0
180 1 1 -1.2756950979874608 1.197957435375215 -29.12 0 0 0
181 1 1 -1.7210291087418257 0.31711008634749766 -29.029 0 0 0
182 1 1 -1.6188851119602974 -0.6646134171631622 -28.938 0 0 0
183 1 1 -1.0017562197905505 -1.4349161913195303 -28.847 0 0 0
184 1 1 -0.0659578196723869 -1.7487565771210312 -28.756 0 0 0
185 1 1 0.8908224775631537 -1.506298547256899 -28.665 0 0 0
186 1 1 1.5642224922646997 -0.7846706281575802 -28.574 0 0 0
187 1 1 1.740026383194749 0.1865695199816969 -28.483 0 0 0
188 1 1 1.3623090277422922 1.0984598822587244 -28.392 0 0 0
189 1 1 0.551226409396803 1.660918253733009 -28.301000000000002 0 0 0
190 1 1 -0.43520730253848183 1.6950205319751082 -28.21 0 0 0
191 1 1 -1.2831968558894828 1.1899184127642306 -28.119 0 0 0
192 1 1 -1.7229875854261112 0.30629035320672304 -28.028 0 0 0
193 1 1 -1.614677294772709 -0.6747719864854245 -27.937 0 0 0
194 1 1 -0.9927206609718259 -1.4411820458497466 -27.846 0 0 0
195 1 1 -0.05496882838672088 -1.7491364806400302 -27.755 0 0 0
196 1 1 0.9002691841176234 -1.5006716483388993 -27.664 0 0 0
197 1 1 1.5691218143741588 -0.7748269043180858 -27.573 0 0 0
198 1 1 1.7388197934100138 0.19749867352860243 -27.482 0 0 0
199 1 1 1.3553803553477979 1.106997783347951 -27.391000000000002 0 0 0
200 1 1 0.5407797401561727 1.664348903516514 -27.3 0 0 0
201 1 1 -0.4458487699459217 1.6922526035842607 -27.209 0 0 0
202 1 1 -1.2906479553767853 1.1818324142118137 -27.118000000000002 0 0 0
203 1 1 -1.724878041510745 0.29545852824729374 -27.027 0 0 0
204 1 1 -1.6104057328902746 -0.684903916965101 -26.936 0 0 0
205 1 1 -0.9836459112412161 -1.4473910049804917 -26.845 0 0 0
206 1 1 -0.04397766702585671 -1.7494473312457746 -26.754 0 0 0
207 1 1 0.909680349586233 -1.4949855054737717 -26.663 0 0 0
208 1 1 1.5739591902411532 -0.7649525916391249 -26.572 0 0 0
209 1 1 1.7375445579971767 0.20842003016599955 -26.481 0 0 0
210 1 1 1.348398174857634 1.1154919820602038 -26.39 0 0 0
211 1 1 0.5303117218573524 1.6677138476551336 -26.299 0 0 0
212 1 1 -0.4564726360072915 1.6894178679582368 -26.208000000000002 0 0 0
213 1 1 -1.2980481022927863 1.173699758939268 -26.117 0 0 0
214 1 1 -1.7267004023637684 0.28461503909105074 -26.026 0 0 0
215 1 1 -1.6060705949469762 -0.6950088086108447 -25.935000000000002 0 0 0
216 1 1 -0.974532328854343 -1.4535428235926626 -25.844 0 0 0
217 1 1 -0.03298476950197533 -1.7496891166664155 -25.753 0 0 0
218 1 1 0.9190556024322739 -1.4892403431407066 -25.662 0 0 0
219 1 1 1.5787344288943448 -0.7550480799416995 -25.571 0 0 0
220 1 1 1.7362007273003368 0.2193331587375274 -25.48 0 0 0
221 1 1 1.3413627619163617 1.1239421430590233 -25.389 0 0 0
222 1 1 0.519822767759828 1.67101295330662 -25.298000000000002 0 0 0
223 1 1 -0.467078481310646 1.68651643700752 -25.207 0 0 0
224 1 1 -1.305397004492315 1.1655207680099444 -25.116 0 0 0
225 1 1 -1.7284545960414872 0.27376031382042804 -25.025000000000002 0 0 0
226 1 1 -1.601672052086613 -0.705086262498893 -24.934 0 0 0
227 1 1 -0.9653802735997526 -1.4596372588230497 -24.843 0 0 0
228 1 1 -0.021990569795860553 -1.7498618273566782 -24.752 0 0 0
229 1 1 0.9283945725367636 -1.4834363881489088 -24.661 0 0 0
230 1 1 1.5834473418155315 -0.7451137602388826 -24.57 0 0 0
231 1 1 1.7347883543716365 0.2302376284114944 -24.479 0 0 0
232 1 1 1.334274394270046 1.1323479327465131 -24.388 0 0 0
233 1 1 0.5093132919494758 1.6742460902279532 -24.297 0 0 0
234 1 1 -0.4776658871553249 1.6835484252756485 -24.206 0 0 0
235 1 1 -1.3126943718532793 1.157295764316419 -24.115000000000002 0 0 0
236 1 1 -1.7301405532913485 0.2628947809613315 -24.024 0 0 0
237 1 1 -1.5972102779561301 -0.7151358807886103 -23.933 0 0 0
238 1 1 -0.9561901067849871 -1.4656740700737374 -23.842000000000002 0 0 0
239 1 1 -0.010995501939741414 -1.7499654564982399 -23.751 0 0 0
240 1 1 0.937696891213238 -1.4775738696285303 -23.66 0 0 0
241 1 1 1.588097742946954 -0.7351500247206619 -23.569 0 0 0
242 1 1 1.7333074949691418 0.2411330086980999 -23.478 0 0 0
243 1 1 1.3271333517552666 1.140709019276534 -23.387 0 0 0
244 1 1 0.4987837093224516 1.6774131307804099 -23.296 0 0 0
245 1 1 -0.4882344355686316 1.680513949934656 -23.205000000000002 0 0 0
246 1 1 -1.3199399162881762 1.14902507256768 -23.114 0 0 0
247 1 1 -1.7317582075546398 0.25201886946643826 -23.023 0 0 0
248 1 1 -1.5926854486987525 -0.7251572667382252 -22.932000000000002 0 0 0
249 1 1 -0.9469621912220435 -1.471653019021789 -22.841 0 0 0
250 1 1 -3.214697847761802e-16 -1.75 -22.75 0 0 0
251 1 1 0.9469621912220427 -1.4716530190217894 -22.659 0 0 0
252 1 1 1.5926854486987359 -0.7251572667382619 -22.568 0 0 0
253 1 1 1.7317582075546398 0.2520188694664376 -22.477 0 0 0
254 1 1 1.319939916288176 1.1490250725676803 -22.386 0 0 0
255 1 1 0.48823443556866997 1.6805139499346449 -22.295 0 0 0
256 1 1 -0.4987837093224513 1.6774131307804099 -22.204 0 0 0
257 1 1 -1.3271333517552666 1.140709019276534 -22.113 0 0 0
258 1 1 -1.7333074949691365 0.24113300869813928 -22.022000000000002 0 0 0
259 1 1 -1.588097742946959 -0.7351500247206513 -21.931 0 0 0
260 1 1 -0.9376968912132426 -1.4775738696285274 -21.84 0 0 0
261 1 1 0.010995501939701863 -1.74996545649824 -21.749000000000002 0 0 0
262 1 1 0.9561901067849591 -1.4656740700737556 -21.658 0 0 0
263 1 1 1.5972102779561292 -0.7151358807886123 -21.567 0 0 0
264 1 1 1.7301405532913485 0.26289478096133234 -21.476 0 0 0
265 1 1 1.3126943718533155 1.157295764316378 -21.385 0 0 0
266 1 1 0.477665887155324 1.683548425275649 -21.294 0 0 0
267 1 1 -0.5093132919494797 1.6742460902279521 -21.203 0 0 0
268 1 1 -1.3342743942700201 1.1323479327465436 -21.112000000000002 0 0 0
269 1 1 -1.7347883543716354 0.2302376284115028 -21.021 0 0 0
270 1 1 -1.583447341815534 -0.7451137602388779 -20.93 0 0 0
271 1 1 -0.9283945725368052 -1.4834363881488828 -20.839000000000002 0 0 0
272 1 1 0.021990569795855192 -1.7498618273566784 -20.748 0 0 0
273 1 1 0.9653802735997534 -1.4596372588230493 -20.657 0 0 0
274 1 1 1.601672052086611 -0.7050862624988979 -20.566 0 0 0
275 1 1 1.7284545960414939 0.27376031382038585 -20.475 0 0 0
276 1 1 1.3053970044923227 1.1655207680099358 -20.384 0 0 0
277 1 1 0.4670784813106511 1.6865164370075187 -20.293 0 0 0
278 1 1 -0.5198227677597932 1.6710129533066307 -20.202 0 0 0
279 1 1 -1.3413627619163582 1.1239421430590275 -20.111 0 0 0
280 1 1 -1.7362007273003368 0.2193331587375265 -20.02 0 0 0
281 1 1 -1.5787344288943659 -0.7550480799416555 -19.929000000000002 0 0 0
282 1 1 -0.9190556024322784 -1.489240343140704 -19.838 0 0 0
283 1 1 0.03298476950196375 -1.7496891166664157 -19.747 0 0 0
284 1 1 0.974532328854308 -1.4535428235926864 -19.656000000000002 0 0 0
285 1 1 1.6060705949469618 -0.6950088086108782 -19.565 0 0 0
286 1 1 1.7267004023637693 0.28461503909104546 -19.474 0 0 0
287 1 1 1.29804810229279 1.173699758939264 -19.383 0 0 0
288 1 1 0.4564726360073387 1.6894178679582241 -19.292 0 0 0
289 1 1 -0.5303117218573474 1.6677138476551352 -19.201 0 0 0
290 1 1 -1.3483981748576344 1.1154919820602032 -19.11 0 0 0
291 1 1 -1.7375445579971713 0.20842003016604188 -19.019000000000002 0 0 0
292 1 1 -1.5739591902411554 -0.7649525916391201 -18.928 0 0 0
293 1 1 -0.9096803495862429 -1.4949855054737657 -18.837 0 0 0
294 1 1 0.043977667025814064 -1.7494473312457757 -18.746000000000002 0 0 0
295 1 1 0.9836459112412168 -1.4473910049804912 -18.655 0 0 0
296 1 1 1.6104057328902723 -0.6849039169651059 -18.564 0 0 0
297 1 1 1.7248780415107448 0.2954585282472946 -18.473 0 0 0
298 1 1 1.2906479553768184 1.1818324142117775 -18.382 0 0 0
299 1 1 0.44584876994592093 1.6922526035842609 -18.291 0 0 0
300 1 1 -0.5407797401561617 1.6643489035165175 -18.2 0 0 0
301 1 1 -1.355380355347767 1.106997783347989 -18.109 0 0 0
302 1 1 -1.7388197934100138 0.1974986735286016 -18.018 0 0 0
303 1 1 -1.5691218143741639 -0.7748269043180753 -17.927 0 0 0
304 1 1 -0.9002691841176547 -1.5006716483388804 -17.836000000000002 0 0 0
305 1 1 0.05496882838670931 -1.7491364806400307 -17.745 0 0 0
306 1 1 0.9927206609718267 -1.4411820458497462 -17.654 0 0 0
307 1 1 1.6146772947726902 -0.6747719864854695 -17.563000000000002 0 0 0
308 1 1 1.7229875854261132 0.3062903532067117 -17.472 0 0 0
309 1 1 1.2831968558894822 1.1899184127642313 -17.381 0 0 0
310 1 1 0.43520730253849305 1.6950205319751053 -17.29 0 0 0
311 1 1 -0.5512264093967683 1.6609182537330205 -17.199 0 0 0
312 1 1 -1.3623090277422851 1.0984598822587335 -17.108 0 0 0
313 1 1 -1.7400263831947491 0.18656951998169605 -17.017 0 0 0
314 1 1 -1.5642224922647217 -0.7846706281575365 -16.926000000000002 0 0 0
315 1 1 -0.8908224775631638 -1.506298547256893 -16.835 0 0 0
316 1 1 0.06595781967238777 -1.7487565771210312 -16.744 0 0 0
317 1 1 1.0017562197905103 -1.4349161913195583 -16.653000000000002 0 0 0
318 1 1 1.6188851119602976 -0.6646134171631615 -16.562 0 0 0
319 1 1 1.7210291087418277 0.3171100863474863 -16.471 0 0 0
320 1 1 1.2756950979874944 1.1979574353751794 -16.380000000000003 0 0 0
321 1 1 0.4245486538919793 1.6977215438576811 -16.289 0 0 0
322 1 1 -0.5616513171626065 1.6574220337408059 -16.198 0 0 0
323 1 1 -1.369183918509034 1.0898786158541909 -16.107 0 0 0
324 1 1 -1.741164279717273 0.1756330009896493 -16.016000000000002 0 0 0
325 1 1 -1.5592614173296515 -0.7944833745441916 -15.925 0 0 0
326 1 1 -0.8813406028625802 -1.5118659800874625 -15.834 0 0 0
327 1 1 0.07694420705623373 -1.7483076356867195 -15.743000000000002 0 0 0
328 1 1 1.010752230988959 -1.4285936887550785 -15.652000000000001 0 0 0
329 1 1 1.6230290183356553 -0.6544286100411556 -15.561 0 0 0
330 1 1 1.7190026887752097 0.32791730052499457 -15.470000000000002 0 0 0
331 1 1 1.2681429778273439 1.2059491646778469 -15.379000000000001 0 0 0
332 1 1 0.4138732447915296 1.7003555326006765 -15.288 0 0 0
333 1 1 -0.5720540518961558 1.6538603815646562 -15.197 0 0 0
334 1 1 -1.376004756239068 1.0812543229081042 -15.106000000000002 0 0 0
335 1 1 -1.7422334380553894 0.16468954830740584 -15.015 0 0 0
336 1 1 -1.5542387854237028 -0.804264756087604 -14.924 0 0 0
337 1 1 -0.8718239343441356 -1.5173737270378422 -14.833000000000002 0 0 0
338 1 1 0.08792755681458442 -1.7477896740605312 -14.742 0 0 0
339 1 1 1.0197083394200033 -1.422214787757918 -14.651 0 0 0
340 1 1 1.6271088503044306 -0.6442179671982097 -14.560000000000002 0 0 0
341 1 1 1.7169084055258383 0.33871156908898703 -14.469000000000001 0 0 0
342 1 1 1.2605407935538373 1.2138932851724085 -14.378 0 0 0
343 1 1 0.4031814966840642 1.7029223942187142 -14.287000000000003 0 0 0
344 1 1 -0.5824342029152026 1.6502334378125212 -14.196000000000002 0 0 0
345 1 1 -1.3827712716574538 1.0725873438927143 -14.105 0 0 0
346 1 1 -1.7432338160005516 0.15373959396380127 -14.014 0 0 0
347 1 1 -1.5491547948318056 -0.8140143866355348 -13.923000000000002 0 0 0
348 1 1 -0.8622728477095218 -1.5228215706716632 -13.832 0 0 0
349 1 1 0.09890743534354812 -1.7472027126907062 -13.741 0 0 0
350 1 1 1.0286241915118068 -1.4157797401561731 -13.650000000000002 0 0 0
351 1 1 1.631124446801862 -0.6339818917329735 -13.559000000000001 0 0 0
352 1 1 1.7147463416724398 0.34949246590017446 -13.468000000000004 0 0 0
353 1 1 1.2528888452882272 1.2217894832385539 -13.377000000000002 0 0 0
354 1 1 0.3924738316614306 1.7054220273765068 -13.286000000000001 0 0 0
355 1 1 -0.5927913604292526 1.6465413456698972 -13.195 0 0 0
356 1 1 -1.3894831976337108 1.0638780209655607 -13.104 0 0 0
357 1 1 -1.7441653740595526 0.14278357024427132 -13.012999999999998 0 0 0
358 1 1 -1.5440096462611868 -0.8237318812892974 -12.922000000000004 0 0 0
359 1 1 -0.8526877200193606 -1.5282092959173441 -12.831000000000003 0 0 0
360 1 1 0.10988340917627147 -1.746546774749477 -12.740000000000002 0 0 0
361 1 1 1.0374994352818367 -1.4092887999944759 -12.649000000000001 0 0 0
362 1 1 1.6350756492990657 -0.6237207877482026 -12.558 0 0 0
363 1 1 1.7125165825695734 0.3602595653473058 -12.466999999999999 0 0 0
364 1 1 1.2451874351162315 1.2296374471480043 -12.375999999999998 0 0 0
365 1 1 0.38175067244398914 1.7078543333927991 -12.285000000000004 0 0 0
366 1 1 -0.603125115555378 1.6427842508942896 -12.194000000000003 0 0 0
367 1 1 -1.3961402691924891 1.0551266979558065 -12.103000000000002 0 0 0
368 1 1 -1.745028075456074 0.13182190967388746 -12.012 0 0 0
369 1 1 -1.5388035428334705 -0.8334168564188991 -11.921 0 0 0
370 1 1 -0.8430689296779854 -1.5335366900767702 -11.829999999999998 0 0 0
371 1 1 0.120855045000162 -1.7458218861321475 -11.739000000000004 0 0 0
372 1 1 1.046333720350629 -1.4027422235240554 -11.648000000000003 0 0 0
373 1 1 1.6389623018093284 -0.6134350603347254 -11.557000000000002 0 0 0
374 1 1 1.7102192162443413 0.3710124423635831 -11.466000000000001 0 0 0
375 1 1 1.2374368670764584 1.237436867076458 -11.375 0 0 0
376 1 1 0.37101244236358405 1.710219216244341 -11.283999999999999 0 0 0
377 1 1 -0.6134350603347245 1.6389623018093287 -11.192999999999998 0 0 0
378 1 1 -1.4027422235240086 1.0463337203506924 -11.102000000000004 0 0 0
379 1 1 -1.745821886132142 0.12085504500024047 -11.011000000000003 0 0 0
380 1 1 -1.53353669007677 -0.843068929677986 -10.920000000000002 0 0 0
381 1 1 -0.8334168564189013 -1.5388035428334692 -10.829 0 0 0
382 1 1 0.1318219096738857 -1.7450280754560743 -10.738 0 0 0
383 1 1 1.0551266979558058 -1.3961402691924898 -10.646999999999998 0 0 0
384 1 1 1.6427842508942894 -0.6031251155553784 -10.555999999999997 0 0 0
385 1 1 1.7078543333928162 0.3817506724439131 -10.465000000000003 0 0 0
386 1 1 1.229637447148006 1.2451874351162298 -10.374000000000002 0 0 0
387 1 1 0.3602595653473077 1.712516582569573 -10.283000000000001 0 0 0
388 1 1 -0.6237207877481856 1.6350756492990721 -10.192 0 0 0
389 1 1 -1.4092887999944688 1.0374994352818465 -10.100999999999999 0 0 0
390 1 1 -1.7465467747494765 0.10988340917627713 -10.009999999999998 0 0 0
391 1 1 -1.5282092959173819 -0.852687720019293 -9.919000000000004 0 0 0
392 1 1 -0.8237318812893599 -1.5440096462611532 -9.828000000000003 0 0 0
393 1 1 0.14278357024425636 -1.7441653740595537 -9.737000000000002 0 0 0
394 1 1 1.0638780209655538 -1.3894831976337163 -9.646 0 0 0
395 1 1 1.6465413456698943 -0.5927913604292607 -9.555 0 0 0
396 1 1 1.7054220273765075 0.3924738316614282 -9.463999999999999 0 0 0
397 1 1 1.22178948323856 1.2528888452882212 -9.372999999999998 0 0 0
398 1 1 0.34949246590025007 1.7147463416724242 -9.282000000000004 0 0 0
399 1 1 -0.6339818917329305 1.6311244468018786 -9.191000000000003 0 0 0
400 1 1 -1.415779740156146 1.0286241915118444 -9.100000000000001 0 0 0
401 1 1 -1.747202712690706 0.09890743534355069 -9.009 0 0 0
402 1 1 -1.5228215706716677 -0.8622728477095141 -8.918 0 0 0
403 1 1 -0.8140143866355372 -1.5491547948318045 -8.826999999999998 0 0 0
404 1 1 0.15373959396375533 -1.7432338160005558 -8.736000000000004 0 0 0
405 1 1 1.0725873438926827 -1.3827712716574785 -8.645000000000003 0 0 0
406 1 1 1.6502334378125039 -0.582434202915252 -8.554000000000002 0 0 0
407 1 1 1.7029223942187248 0.4031814966840193 -8.463000000000001 0 0 0
408 1 1 1.2138932851724102 1.2605407935538355 -8.372 0 0 0
409 1 1 0.3387115690889956 1.7169084055258366 -8.280999999999999 0 0 0
410 1 1 -0.6442179671982072 1.6271088503044318 -8.189999999999998 0 0 0
411 1 1 -1.4222147877578877 1.0197083394200455 -8.099000000000004 0 0 0
412 1 1 -1.747789674060529 0.08792755681463045 -8.008000000000003 0 0 0
413 1 1 -1.5173737270378682 -0.8718239343440904 -7.917000000000002 0 0 0
414 1 1 -0.8042647560876118 -1.5542387854236988 -7.8260000000000005 0 0 0
415 1 1 0.1646895483074033 -1.7422334380553899 -7.734999999999999 0 0 0
416 1 1 1.0812543229080975 -1.3760047562390734 -7.643999999999998 0 0 0
417 1 1 1.653860381564641 -0.5720540518961993 -7.553000000000004 0 0 0
418 1 1 1.700355532600689 0.4138732447914788 -7.462000000000003 0 0 0
419 1 1 1.2059491646778757 1.2681429778273163 -7.371000000000002 0 0 0
420 1 1 0.32791730052503376 1.7190026887752021 -7.280000000000001 0 0 0
421 1 1 -0.6544286100411532 1.6230290183356562 -7.189 0 0 0
422 1 1 -1.428593688755077 1.0107522309889612 -7.097999999999999 0 0 0
423 1 1 -1.748307635686719 0.07694420705624873 -7.006999999999998 0 0 0
424 1 1 -1.5118659800874825 -0.8813406028625459 -6.916000000000004 0 0 0
425 1 1 -0.7944833745442381 -1.559261417329628 -6.825000000000003 0 0 0
426 1 1 0.17563300098960963 -1.7411642797172768 -6.734000000000002 0 0 0
427 1 1 1.0898786158541887 -1.3691839185090358 -6.643000000000001 0 0 0
428 1 1 1.657422033740801 -0.5616513171626206 -6.552 0 0 0
429 1 1 1.6977215438576818 0.4245486538919768 -6.4609999999999985 0 0 0
430 1 1 1.1979574353752447 1.2756950979874329 -6.3700000000000045 0 0 0
431 1 1 0.31711008634752547 1.7210291087418204 -6.2790000000000035 0 0 0
432 1 1 -0.6646134171631246 1.618885111960313 -6.188000000000002 0 0 0
433 1 1 -1.4349161913195352 1.001756219790543 -6.097000000000001 0 0 0
434 1 1 -1.748756577121031 0.06595781967239032 -6.006 0 0 0
435 1 1 -1.5062985472569008 -0.890822477563151 -5.914999999999999 0 0 0
436 1 1 -0.7846706281575389 -1.5642224922647205 -5.823999999999998 0 0 0
437 1 1 0.1865695199816564 -1.7400263831947531 -5.733000000000004 0 0 0
438 1 1 1.0984598822587024 -1.36230902774231 -5.642000000000003 0 0 0
439 1 1 1.660918253733008 -0.5512264093968062 -5.551000000000002 0 0 0
440 1 1 1.6950205319751088 0.4352073025384785 -5.460000000000001 0 0 0
441 1 1 1.1899184127642333 1.2831968558894804 -5.369 0 0 0
442 1 1 0.3062903532067265 1.7229875854261107 -5.277999999999999 0 0 0
443 1 1 -0.6747719864854672 1.614677294772691 -5.186999999999998 0 0 0
444 1 1 -1.4411820458497233 0.9927206609718595 -5.096000000000004 0 0 0
445 1 1 -1.7491364806400291 0.05496882838676159 -5.005000000000003 0 0 0
446 1 1 -1.500671648338901 -0.9002691841176202 -4.9140000000000015 0 0 0
447 1 1 -0.7748269043180888 -1.5691218143741574 -4.823 0 0 0
448 1 1 0.19749867352859904 -1.738819793410014 -4.731999999999999 0 0 0
449 1 1 1.1069977833479774 -1.3553803553477763 -4.640999999999998 0 0 0
450 1 1 1.6643489035165013 -0.5407797401562114 -4.550000000000004 0 0 0
451 1 1 1.6922526035842709 0.44584876994588235 -4.459000000000003 0 0 0
452 1 1 1.181832414211816 1.290647955376783 -4.368000000000002 0 0 0
453 1 1 0.2954585282472971 1.7248780415107445 -4.277000000000001 0 0 0
454 1 1 -0.6849039169650979 1.6104057328902757 -4.186 0 0 0
455 1 1 -1.4473910049804897 0.983645911241219 -4.094999999999999 0 0 0
456 1 1 -1.7494473312457754 0.04397766702582285 -4.003999999999998 0 0 0
457 1 1 -1.4949855054737928 -0.9096803495861983 -3.913000000000004 0 0 0
458 1 1 -0.7649525916391616 -1.5739591902411352 -3.8220000000000027 0 0 0
459 1 1 0.20842003016599617 -1.737544557997177 -3.7310000000000016 0 0 0
460 1 1 1.1154919820602012 -1.348398174857636 -3.6400000000000006 0 0 0
461 1 1 1.6677138476551323 -0.5303117218573559 -3.5489999999999995 0 0 0
462 1 1 1.6894178679582248 0.4564726360073362 -3.4579999999999984 0 0 0
463 1 1 1.1736997589392981 1.2980481022927592 -3.3670000000000044 0 0 0
464 1 1 0.284615039091091 1.7267004023637618 -3.2760000000000034 0 0 0