Lammps data files by amirhsi

500 atoms
499 bonds

2 atom types
1 bond types

-3.9999638650002245 3.9999638650002245 xlo xhi
-3.9999777945660195 3.9999777945660195 ylo yhi
-14.78 14.78 zlo zhi

Atoms

1 1 1 2.7999638650002243 4.137875800891422e-06 -13.58 0 0 0
2 1 1 2.631946007857367 0.9553417743589043 -13.52557114228457 0 0 0
3 1 1 2.148056722370851 1.7960267090349986 -13.471142284569138 0 0 0
4 1 1 1.4063688948562711 2.421166026720827 -13.416713426853708 0 0 0
5 1 1 0.4958945249192988 2.7557350355783017 -13.362284569138277 0 0 0
6 1 1 -0.4740978498541346 2.75958118708268 -13.307855711422846 0 0 0
7 1 1 -1.3871967721394987 2.4322428939953795 -13.253426853707415 0 0 0
8 1 1 -2.133818724592622 1.8130049267202084 -13.198997995991984 0 0 0
9 1 1 -2.624359549679941 0.9761837397736468 -13.144569138276553 0 0 0
10 1 1 -2.799948091492697 0.022208549328911413 -13.090140280561123 0 0 0
11 1 1 -2.6395114853635926 -0.9344314537097312 -13.035711422845692 0 0 0
12 1 1 -2.1623041704134023 -1.7789272669367888 -12.981282565130261 0 0 0
13 1 1 -1.4255971112641446 -2.4099286211347444 -12.92685370741483 0 0 0
14 1 1 -0.5178045517874467 -2.7517073053131806 -12.8724248496994 0 0 0
15 1 1 0.45212682189276365 -2.763245517948695 -12.817995991983969 0 0 0
16 1 1 1.3677928733612126 -2.4431585263539466 -12.763567134268538 0 0 0
17 1 1 2.119301997027769 -1.8298608522625417 -12.709138276553107 0 0 0
18 1 1 2.6164635124768867 -0.9969560392398658 -12.654709418837676 0 0 0
19 1 1 2.7996116965088107 -0.044403288634522343 -12.600280561122245 0 0 0
20 1 1 2.6467664309659353 0.9134789195733188 -12.545851703406814 0 0 0
21 1 1 2.1762710972703645 1.7617325025134032 -12.491422845691382 0 0 0
22 1 1 1.444591136681556 2.3985562106719183 -12.436993987975953 0 0 0
23 1 1 0.5395374771227285 2.7475230763184593 -12.38256513026052 0 0 0
24 1 1 -0.4302718982072805 2.766752624467463 -12.328136272545091 0 0 0
25 1 1 -1.348447494251332 2.4539370640661993 -12.273707414829659 0 0 0
26 1 1 -2.1047965280607124 1.846618252357213 -12.219278557114228 0 0 0
27 1 1 -2.6085474682691956 1.0176821931589985 -12.164849699398797 0 0 0
28 1 1 -2.799243776657119 0.06661178673935556 -12.110420841683366 0 0 0
29 1 1 -2.653999463867058 -0.8924523871312672 -12.055991983967935 0 0 0
30 1 1 -2.1902457000398514 -1.7444103946269989 -12.001563126252504 0 0 0
31 1 1 -1.463638852061344 -2.387016408037031 -11.947134268537074 0 0 0
32 1 1 -0.56138100963344 -2.743149509246889 -11.892705410821643 0 0 0
33 1 1 0.40824537776165504 -2.7700691835973394 -11.838276553106212 0 0 0
34 1 1 1.328872775953022 -2.4645447268031386 -11.783847695390781 0 0 0
35 1 1 2.090014154461295 -1.863242970675208 -11.72941883767535 0 0 0
36 1 1 2.600322839429523 -1.038327795614163 -11.67498997995992 0 0 0
37 1 1 2.7985552796221747 -0.08879954450455865 -11.620561122244489 0 0 0
38 1 1 2.660921053741129 0.8713862811907191 -11.566132264529058 0 0 0
39 1 1 2.2039380244307045 1.7269951351200568 -11.511703406813627 0 0 0
40 1 1 1.4824499840733254 2.375343041433686 -11.457274549098196 0 0 0
41 1 1 0.5830447001654521 2.738619981630273 -11.402845691382765 0 0 0
42 1 1 -0.3863377212178039 2.773228089251787 -11.348416833667335 0 0 0
43 1 1 -1.309359024938741 2.4750139499536994 -11.293987975951904 0 0 0
44 1 1 -2.075244881319937 1.8797670642035607 -11.239559118236473 0 0 0
45 1 1 -2.5920792186433994 1.0589246507261532 -11.185130260521042 0 0 0
46 1 1 -2.7978353241556015 0.11099826906750442 -11.130701402805611 0 0 0
47 1 1 -2.667819840754958 -0.8502488240756086 -11.07627254509018 0 0 0
48 1 1 -2.217636284810301 -1.7094547167212715 -11.02184368737475 0 0 0
49 1 1 -1.5013124251721823 -2.363503742493159 -10.967414829659319 0 0 0
50 1 1 -0.6048162617811104 -2.733901675836579 -10.912985971943888 0 0 0
51 1 1 0.36426123085595974 -2.7761960402868926 -10.858557114228457 0 0 0
52 1 1 1.2896183929402667 -2.4853109726411224 -10.804128256513026 0 0 0
53 1 1 2.0602005619966595 -1.8961563912854882 -10.749699398797596 0 0 0
54 1 1 2.5835280488841885 -1.0794383607094575 -10.695270541082165 0 0 0
55 1 1 2.7967948800808453 -0.13317346190397863 -10.640841683366734 0 0 0
56 1 1 2.6744063156028397 0.8290744475689393 -10.586412825651303 0 0 0
57 1 1 2.231050544266159 1.6918233450022906 -10.531983967935872 0 0 0
58 1 1 1.519935913679308 2.3515323582538405 -10.477555110220441 0 0 0
59 1 1 0.6264052498523954 2.7290279910776176 -10.42312625250501 0 0 0
60 1 1 -0.34230637048057305 2.7790059525394613 -10.368697394789578 0 0 0
61 1 1 -1.2699411968640575 2.4954682497899503 -10.314268537074149 0 0 0
62 1 1 -2.0451712180551906 1.9124430237113506 -10.259839679358716 0 0 0
63 1 1 -2.5749589433730007 1.099900737979348 -10.205410821643287 0 0 0
64 1 1 -2.7957230882828528 0.15535683094156003 -10.150981963927855 0 0 0
65 1 1 -2.6809691395263737 -0.8078313808035809 -10.096553106212426 0 0 0
66 1 1 -2.2444690346526635 -1.674069026282722 -10.042124248496993 0 0 0
67 1 1 -1.5386083538499538 -2.339396539088801 -9.987695390781564 0 0 0
68 1 1 -0.6480993821395671 -2.7239661313647847 -9.933266533066131 0 0 0
69 1 1 0.3201854453404413 -2.7816245468131555 -9.878837675350702 0 0 0
70 1 1 1.2500395987206816 -2.505452040141141 -9.82440881763527 0 0 0
71 1 1 2.0298687192109335 -1.92859283475788 -9.769979959919839 0 0 0
72 1 1 2.566083365552346 -1.1202773932074037 -9.715551102204408 0 0 0
73 1 1 2.79433094071143 -0.17751387862169107 -9.661122244488977 0 0 0
74 1 1 2.6872188243479767 0.786554062204135 -9.606693386773546 0 0 0
75 1 1 2.257601836651581 1.6562259795860075 -9.552264529058117 0 0 0
76 1 1 1.5570394959543175 2.32713015068407 -9.497835671342685 0 0 0
77 1 1 0.6696082188840037 2.7187495175153833 -9.443406813627254 0 0 0
78 1 1 -0.2981889220344194 2.7840847609152046 -9.388977955911823 0 0 0
79 1 1 -1.2302039255394719 2.5152948183178605 -9.334549098196392 0 0 0
80 1 1 -2.0145831032640644 1.9446379112781762 -9.280120240480962 0 0 0
81 1 1 -2.55719094904479 1.1406001474280023 -9.22569138276553 0 0 0
82 1 1 -2.7929076003695315 0.19967631401306707 -9.1712625250501 0 0 0
83 1 1 -2.693444052489372 -0.7652107273773218 -9.116833667334669 0 0 0
84 1 1 -2.2707371998176393 -1.6382622245436376 -9.062404809619238 0 0 0
85 1 1 -1.575517256343972 -2.3147008619650062 -9.007975951903807 0 0 0
86 1 1 -0.6912194828865438 -2.7133453751070062 -8.953547094188377 0 0 0
87 1 1 0.27602910843143696 -2.786353337641162 -8.899118236472946 0 0 0
88 1 1 1.210146349297322 -2.5249628628393577 -8.844689378757515 0 0 0
89 1 1 1.9990262560464722 -1.9605441417399954 -8.790260521042084 0 0 0
90 1 1 2.5479931776252958 -1.1608346200933688 -8.735831663326653 0 0 0
91 1 1 2.791164081315223 -0.2218096408736302 -8.681402805611222 0 0 0
92 1 1 2.699355357003776 0.7438358210534127 -8.626973947895792 0 0 0
93 1 1 2.283585222637978 1.6202119933501236 -8.57254509018036 0 0 0
94 1 1 1.5937513975322055 2.3021425570733998 -8.51811623246493 0 0 0
95 1 1 0.7126427395999849 2.707787146482513 -8.4636873747495 0 0 0
96 1 1 -0.25399647357597505 2.788463236810239 -8.409258517034068 0 0 0
97 1 1 -1.1901572068327582 2.534488668185487 -8.354829659318638 0 0 0
98 1 1 -1.9834882313538702 1.9763436283147655 -8.300400801603207 0 0 0
99 1 1 -2.5387797051785985 1.1810126411795165 -8.245971943887774 0 0 0
100 1 1 -2.789389568648587 0.24394556976383586 -8.191543086172345 0 0 0
101 1 1 -2.7052414415930413 -0.722397584976265 -8.137114228456912 0 0 0
102 1 1 -2.296434172576575 -1.602043318666428 -8.082685370741483 0 0 0
103 1 1 -1.6120298482595945 -2.289422923292739 -8.02825651302605 0 0 0
104 1 1 -0.734165717207152 -2.7020420787030393 -7.973827655310621 0 0 0
105 1 1 0.23180332760792477 -2.7903812232486747 -7.91939879759519 0 0 0
106 1 1 1.1699486797740748 -2.5438385328093576 -7.864969939879759 0 0 0
107 1 1 1.967680930891663 -1.9920022749149782 -7.810541082164328 0 0 0
108 1 1 2.529262035670314 -1.2010998392406425 -7.756112224448898 0 0 0
109 1 1 2.7872950985122933 -0.266049606108543 -7.701683366733467 0 0 0
110 1 1 2.710812860638522 0.7009304698443117 -7.647254509018036 0 0 0
111 1 1 2.308994166132598 1.583790445574077 -7.592825651302605 0 0 0
112 1 1 1.6300623835736812 2.2765758630240818 -7.538396793587174 0 0 0
113 1 1 0.7554979867130069 2.6961436355516337 -7.4839679358717435 0 0 0
114 1 1 -0.20974014166801982 2.792140278823674 -7.429539078156313 0 0 0
115 1 1 -1.1498111144528536 2.5530449712005785 -7.375110220440882 0 0 0
116 1 1 -1.9518944242061158 2.007552199282177 -7.320681362725451 0 0 0
117 1 1 -2.5197298431029855 1.2211280535146254 -7.26625250501002 0 0 0
118 1 1 -2.7851698780771095 0.28815346231026523 -7.211823647294589 0 0 0
119 1 1 -2.716358339216861 -0.6794027232002668 -7.157394789579158 0 0 0
120 1 1 -2.321553488883669 -1.56542141947783 -7.102965931863727 0 0 0
121 1 1 -1.6481369448936853 -2.263569081710223 -7.048537074148296 0 0 0
122 1 1 -0.7769272820224165 -2.690059085484915 -6.994108216432865 0 0 0
123 1 1 0.1875192278174249 -2.7937071904254083 -6.939679358717434 0 0 0
124 1 1 1.1294567018314108 -2.56207430189669 -6.8852505010020035 0 0 0
125 1 1 1.9358406286292655 -2.0229593210233334 -6.830821643286573 0 0 0
126 1 1 2.509894651485975 -1.2410629219767364 -6.776392785571142 0 0 0
127 1 1 2.782724965541093 -0.3102226458108657 -6.721963927855711 0 0 0
128 1 1 2.7215884531295207 0.6578488013717048 -6.66753507014028 0 0 0
129 1 1 2.3338222755430915 1.5469704980589565 -6.613106212424849 0 0 0
130 1 1 1.6659633200893418 2.2504364998104505 -6.558677354709419 0 0 0
131 1 1 0.7981631800318465 2.683821913635371 -6.504248496993988 0 0 0
132 1 1 -0.16543105894313637 2.7951149619995546 -6.449819639278557 0 0 0
133 1 1 -1.109175797415803 2.570959059545113 -6.395390781563126 0 0 0
134 1 1 -1.9198096292089735 2.0382557736979843 -6.340961923847695 0 0 0
135 1 1 -2.500046154790225 1.2609362934445913 -6.2865330661322645 0 0 0
136 1 1 -2.7802495901137143 0.3322888712046318 -6.232104208416834 0 0 0
137 1 1 -2.726791948917214 -0.6362369573604679 -6.177675350701403 0 0 0
138 1 1 -2.346088830001982 -1.5284057391771058 -6.123246492985972 0 0 0
139 1 1 -1.6838294635449613 -2.2371458407234712 -6.068817635270541 0 0 0
140 1 1 -0.8194934207067954 -2.677399409761664 -6.0143887775551095 0 0 0
141 1 1 0.14318794867751078 -2.7963304025279045 -5.959959919839679 0 0 0
142 1 1 1.0886806011827406 -2.579665582913294 -5.905531062124248 0 0 0
143 1 1 1.9035133586529895 -2.0534074928534842 -5.851102204408817 0 0 0
144 1 1 2.489895896916892 -1.2807138156312683 -5.796673346693386 0 0 0
145 1 1 2.7774548320136505 -0.3543176483000207 -5.742244488977955 0 0 0
146 1 1 2.7316794238880933 0.6146016527828638 -5.6878156312625245 0 0 0
147 1 1 2.35806330538529 1.5097614128228836 -5.633386773547094 0 0 0
148 1 1 1.701445176237292 2.2237310427611536 -5.578957915831664 0 0 0
149 1 1 0.8406275871731178 2.67082508024959 -5.524529058116233 0 0 0
150 1 1 -0.12108037130337806 2.797386538059529 -5.470100200400802 0 0 0
151 1 1 -1.0682614774918562 2.588226426949457 -5.4156713426853695 0 0 0
152 1 1 -1.8872419172580375 2.0684466281111424 -5.361242484969939 0 0 0
153 1 1 -2.479733591650901 1.3004273472495564 -5.306813627254508 0 0 0
154 1 1 -2.7746299424515373 0.3763406942323868 -5.252384769539077 0 0 0
155 1 1 -2.7365396461308285 -0.5929111457587319 -5.197955911823646 0 0 0
156 1 1 -2.370034024092874 -1.4910055890187817 -5.143527054108215 0 0 0
157 1 1 -1.719098425798833 -2.21015984707027 -5.089098196392785 0 0 0
158 1 1 -0.8618534257939708 -2.664066236061073 -5.034669338677354 0 0 0
159 1 1 0.09882064167368049 -2.798250199689985 -4.980240480961923 0 0 0
160 1 1 1.0476306350122246 -2.5966079507913955 -4.925811623246492 0 0 0
161 1 1 1.8707072528527915 -2.0833391312005887 -4.871382765531061 0 0 0
162 1 1 2.469270802628244 -1.3200425460646306 -4.8169539078156305 0 0 0
163 1 1 2.771486023626373 -0.39832352152566675 -4.7625250501002 0 0 0
164 1 1 2.74108323454142 0.5711999028514149 -4.708096192384769 0 0 0
165 1 1 2.3817111578542565 1.4721725497711546 -4.653667334669338 0 0 0
166 1 1 1.736499026594867 2.1964662096051235 -4.599238476953907 0 0 0
167 1 1 0.8828805262609248 2.657156404733735 -4.544809619238476 0 0 0
168 1 1 -0.07669923511641023 2.7989544355910905 -4.4903807615230455 0 0 0
169 1 1 -1.0270784466340843 2.604842729825954 -4.435951903807615 0 0 0
170 1 1 -1.8541994807261555 2.098117168044756 -4.381523046092184 0 0 0
171 1 1 -2.4587972632883743 1.3395912809975075 -4.327094188376753 0 0 0
172 1 1 -2.768312348706889 0.42029785020493593 -4.272665330661322 0 0 0
173 1 1 -2.745598978834965 -0.5494361869563199 -4.218236472945891 0 0 0
174 1 1 -2.393383047768583 -1.453230376970312 -4.163807615230461 0 0 0
175 1 1 -1.7539349597858507 -2.1826178890482435 -4.10937875751503 0 0 0
176 1 1 -0.9039966416703082 -2.6500629183286177 -4.054949899799599 0 0 0
177 1 1 0.05442846735418239 -2.7994660989887423 -4.000521042084168 0 0 0
178 1 1 1.0063171293946562 -2.6128971436965953 -3.9460921843687373 0 0 0
179 1 1 1.8374305635692207 -2.1127467067932892 -3.8916633266533065 0 0 0
180 1 1 2.4480245568402674 -1.3590392201770791 -3.8372344689378757 0 0 0
181 1 1 2.7648200418265803 -0.442229195857813 -3.782805611222445 0 0 0
182 1 1 2.749797519571068 0.5276544692407653 -3.728376753507014 0 0 0
183 1 1 2.4047598843581963 1.4342133643417487 -3.673947895791583 0 0 0
184 1 1 1.7711160534037513 2.1686488587817854 -3.6195190380761524 0 0 0
185 1 1 0.9249113686140075 2.6428193254283903 -3.5650901803607216 0 0 0
186 1 1 -0.03229881440921727 2.7998182601913024 -3.5106613226452907 0 0 0
187 1 1 -0.9856370643895038 2.6208037883615267 -3.45623246492986 0 0 0
188 1 1 -1.820690631402631 2.1272599299064776 -3.401803607214429 0 0 0
189 1 1 -2.437242436213503 1.3784182430430763 -3.3473747494989983 0 0 0
190 1 1 -2.7612983980636776 0.4641492817470017 -3.2929458917835674 0 0 0
191 1 1 -2.753967668164248 -0.5058230170322522 -3.2385170340681366 0 0 0
192 1 1 -2.416130027607374 -1.415089605345566 -3.184088176352706 0 0 0
193 1 1 -1.7883303024134272 -2.1545268948072547 -3.129659318637275 0 0 0
194 1 1 -0.9459124672552846 -2.635392979083779 -3.0752304609218424 0 0 0
195 1 1 0.010022592522690891 -2.7999777945660194 -3.0208016032064116 0 0 0
196 1 1 0.9647504766978371 -2.628529064099978 -2.9663727454909807 0 0 0
197 1 1 1.8036916615175937 -2.141622822187645 -2.91194388777555 0 0 0
198 1 1 2.426162504023195 -1.397694028397263 -2.857515030060119 0 0 0
199 1 1 2.7574585634348066 -0.486023626871412 -2.8030861723446883 0 0 0
200 1 1 2.757820086908017 0.4839763057578759 -2.7486573146292574 0 0 0
201 1 1 2.4272036870147717 1.3958934051268914 -2.6942284569138266 0 0 0
202 1 1 1.8052875487881839 2.14028598771574 -2.639799599198396 0 0 0
203 1 1 0.966709541419207 2.6278174488104273 -2.585370741482965 0 0 0
204 1 1 0.012109721940235992 2.7999777945660194 -2.530941883767534 0 0 0
205 1 1 -0.9439477552932183 2.6361055875690793 -2.4765130260521033 0 0 0
206 1 1 -1.7867237984023892 2.1558675828659766 -2.4220841683366725 0 0 0
207 1 1 -2.4150745325197915 1.416898466505834 -2.3676553106212417 0 0 0
208 1 1 -2.753589854873616 0.507883958078311 -2.313226452905811 0 0 0
209 1 1 -2.7616436089838987 -0.4620826068324078 -2.25879759519038 0 0 0
210 1 1 -2.4382692416309504 -1.3765928684145976 -2.204368737474949 0 0 0
211 1 1 -1.8222758015702034 -2.1258939306066216 -2.1499398797595184 0 0 0
212 1 1 -0.987590358668085 -2.620060108533985 -2.0955110220440876 0 0 0
213 1 1 -0.034385812570909766 -2.799785157705343 -2.0410821643286567 0 0 0
214 1 1 0.9229411329684438 -2.643499779808817 -1.986653306613226 0 0 0
215 1 1 1.7694990336824112 -2.169960213627906 -1.932224448897795 0 0 0
216 1 1 2.403690143552845 -1.435997247149844 -1.8777955911823643 0 0 0
217 1 1 2.7494034402230194 -0.5296957981244745 -1.8233667334669335 0 0 0
218 1 1 2.7651489184841123 0.44017639959762644 -1.7689378757515026 0 0 0
219 1 1 2.4490369201096307 1.3572223114709965 -1.7145090180360718 0 0 0
220 1 1 1.839004916945277 2.1113847310566785 -1.660080160320641 0 0 0
221 1 1 1.0082645303912683 2.612154548585716 -1.6056513026052102 0 0 0
222 1 1 0.056515203012424124 2.79943299858454 -1.5512224448897793 0 0 0
223 1 1 -0.9020210062459336 2.6507442782975374 -1.4967935871743485 0 0 0
224 1 1 -1.7523075260456842 2.1839329306989628 -1.4423647294589177 0 0 0
225 1 1 -2.392299128519557 1.4550222717269814 -1.3879358717434869 0 0 0
226 1 1 -2.745188658212444 0.5514908777881202 -1.333507014028056 0 0 0
227 1 1 -2.7686248704192646 -0.4182259592098984 -1.2790781563126252 0 0 0
228 1 1 -2.45979512074392 -1.3377498499900307 -1.2246492985971944 0 0 0
229 1 1 -1.8557629183023994 -2.0967261990376747 -1.1702204408817636 0 0 0
230 1 1 -1.0290198318801094 -2.604068163646275 -1.1157915831663328 0 0 0
231 1 1 -0.0787855770401313 -2.7988882368643093 -1.061362725450902 0 0 0
232 1 1 0.8808996153018959 -2.6578055249556876 -1.006933867735471 0 0 0
233 1 1 1.7348612811822997 -2.1977517528738426 -0.9525050100200403 0 0 0
234 1 1 2.380613128327308 -1.4739392413013679 -0.8980761523046095 0 0 0
235 1 1 2.7406566984487686 -0.5732347239294596 -0.8436472945891786 0 0 0
236 1 1 2.771782170739661 0.3962657685792536 -0.789218436873746 0 0 0
237 1 1 2.470254091516485 1.3182098110460547 -0.7347895791583152 0 0 0
238 1 1 1.8722596763074633 2.0819523588845197 -0.6803607214428844 0 0 0
239 1 1 1.04956588241742 2.595834564739958 -0.6259318637274536 0 0 0
240 1 1 0.10090645865651264 2.798184009289706 -0.5715030060120228 0 0 0
241 1 1 -0.8598673638762314 2.664716178200009 -0.5170741482965919 0 0 0
242 1 1 -1.7174504717087733 2.2114489135974083 -0.4626452905811611 0 0 0
243 1 1 -2.368921953341093 1.492780068704465 -0.4082164328657303 0 0 0
244 1 1 -2.736096921392137 0.5949590716027264 -0.35378757515029946 0 0 0
245 1 1 -2.7749096963415667 -0.37426410625709633 -0.29935871743486864 0 0 0
246 1 1 -2.4807022501345677 -1.2985703209913282 -0.24492985971943781 0 0 0
247 1 1 -1.8887832289619457 -2.067031037211806 -0.190501002004007 0 0 0
248 1 1 -1.070190465351977 -2.5874211671771645 -0.13607214428857617 0 0 0
249 1 1 -0.12316553217202521 -2.79728725766239 -0.08164328657314535 0 0 0
250 1 1 0.8386364991965843 -2.67144270094584 -0.027214428857714523 0 0 0
251 1 1 1.6997871171066377 -2.224990448993654 0.0272144288577163 0 0 0
252 1 1 2.356937263344858 -1.5115104665841586 0.08164328657314712 0 0 0
253 1 1 2.731220538345529 -0.6166294521164579 0.13607214428857795 0 0 0
254 1 1 2.7777181750872004 0.35225545837471306 0.19050100200400877 0 0 0
255 1 1 2.490849864078768 1.27886571740444 0.2449298597194396 0 0 0
256 1 1 1.9050434616758003 2.0519962748808203 0.2993587174348704 0 0 0
257 1 1 1.0906032081871384 2.5788616025474758 0.35378757515030124 0 0 0
258 1 1 0.14527232229993875 2.79623114086343 0.40821643286573206 0 0 0
259 1 1 -0.8174974318874643 2.678017772660116 0.4626452905811629 0 0 0
260 1 1 -1.6821614036460522 2.2384086099455134 0.5170741482965937 0 0 0
261 1 1 -2.344948887487668 1.5301623595050726 0.5715030060120245 0 0 0
262 1 1 -2.7263169314292792 0.6382776051448932 0.6259318637274554 0 0 0
263 1 1 -2.780496505809611 -0.3302081065307798 0.6803607214428862 0 0 0
264 1 1 -2.500985370637005 -1.2590641369868274 0.734789579158317 0 0 0
265 1 1 -1.9213284273252473 -2.036815914915003 0.7892184368737478 0 0 0
266 1 1 -1.1110919026551649 -2.570123306660694 0.8436472945891786 0 0 0
267 1 1 -0.1675145142367797 -2.7949826228241754 0.8980761523046095 0 0 0
268 1 1 0.7961624158939002 -2.6844078773623234 0.9525050100200403 0 0 0
269 1 1 1.6642853643235413 -2.2516694501227317 1.006933867735471 0 0 0
270 1 1 2.332668504243838 -1.5487014719969472 1.061362725450902 0 0 0
271 1 1 2.7210973335692157 -0.6598690667883154 1.1157915831663328 0 0 0
272 1 1 2.7829554383312445 0.3081565397300341 1.1702204408817636 0 0 0
273 1 1 2.510819056952048 1.239199927510583 1.2246492985971944 0 0 0
274 1 1 1.9373480263244638 2.021524014466178 1.2790781563126252 0 0 0
275 1 1 1.131366184805309 2.5612399315386316 1.333507014028056 0 0 0
276 1 1 0.18960163375747022 2.7935748845476605 1.3879358717434869 0 0 0
277 1 1 -0.7749218683902921 2.690645715676129 1.4423647294589177 0 0 0
278 1 1 -1.6464491987846284 2.2648052380606654 1.4967935871743485 0 0 0
279 1 1 -2.3203859613581206 1.567159740653903 1.5512224448897811 0 0 0
280 1 1 -2.715851148469815 0.6814355816841474 1.605651302605212 0 0 0
281 1 1 -2.785383893467491 -0.2860690422702464 1.6600801603206428 0 0 0
282 1 1 -2.5206393800541638 -1.219241235714473 1.7145090180360736 0 0 0
283 1 1 -1.9533903266826964 -2.0060884327287463 1.7689378757515044 0 0 0
284 1 1 -1.151713855077267 -2.5521789333550053 1.8233667334669352 0 0 0
285 1 1 -0.21182136729570542 -2.791974912078077 1.877795591182366 0 0 0
286 1 1 0.753488049703654 -2.6966977928290055 1.9322244488977969 0 0 0
287 1 1 1.6283649532606987 -2.277782045187065 1.9866533066132277 0 0 0
288 1 1 2.3078129558044718 -1.5855029021823654 2.0410821643286585 0 0 0
289 1 1 2.7102896306010638 -0.7029426910666327 2.0955110220440893 0 0 0
290 1 1 2.787492643043858 0.2639801056807615 2.14993987975952 0 0 0
291 1 1 2.530156646907412 1.1992224192511172 2.204368737474951 0 0 0
292 1 1 1.9691652440749972 1.9905432429048917 2.258797595190382 0 0 0
293 1 1 1.171844558389052 2.5429739844257986 2.3132264529058126 0 0 0
294 1 1 0.23388324203865693 2.7902159085208087 2.3676553106212435 0 0 0
295 1 1 -0.732151383221911 2.7025968307025687 2.4220841683366725 0 0 0
296 1 1 -1.6103228404910892 2.2906321578995517 2.476513026052105 0 0 0
297 1 1 -2.295239353730073 1.6037629054995612 2.530941883767534 0 0 0
298 1 1 -2.7047022051701806 0.7244221448779574 2.5853707414829667 0 0 0
299 1 1 -2.7895706298981167 -0.2418580166094692 2.639799599198396 0 0 0
300 1 1 -2.539659334441117 -1.17911163458224 2.6942284569138284 0 0 0
301 1 1 -1.984960861898116 -1.9748563201180158 2.748657314629261 0 0 0
302 1 1 -1.192046104209887 -2.5335925611478833 2.80308617234469 0 0 0
303 1 1 -0.25607494600761904 -2.7882648820104956 2.8575150300601226 0 0 0
304 1 1 0.710624135316714 -2.708309355830881 2.9119438877755517 0 0 0
305 1 1 1.5920349196588397 -2.303321665591482 2.9663727454909843 0 0 0
306 1 1 2.282376870413141 -1.6219054997803717 3.0208016032064133 0 0 0
307 1 1 2.6988001481071286 -0.7458394898275593 3.075230460921846 0 0 0
308 1 1 2.7913286478960933 0.2197372687611984 3.129659318637275 0 0 0
309 1 1 2.548857769594925 1.1589432489252032 3.1840881763527076 0 0 0
310 1 1 2.0004871113405316 1.9590617533766923 3.2385170340681366 0 0 0
311 1 1 1.2120281466471832 2.5240683559882564 3.2929458917835692 0 0 0
312 1 1 0.2781060081525725 2.7861550577296805 3.3473747494989983 0 0 0
313 1 1 -0.6891967352517007 2.713868111449348 3.401803607214431 0 0 0
314 1 1 -1.5737914163119666 2.3158828727282943 3.45623246492986 0 0 0
315 1 1 -2.269515390205599 1.6399626465553405 3.5106613226452925 0 0 0
316 1 1 -2.692872906035029 0.7672264815027497 3.5650901803607216 0 0 0
317 1 1 -2.793055661932443 -0.1975861507843923 3.619519038076154 0 0 0
318 1 1 -2.5580404493488684 -1.1386854281479795 3.673947895791583 0 0 0
319 1 1 -2.016032091437363 -1.94312743348711 3.728376753507016 0 0 0
320 1 1 -1.2320785045191809 -2.514368865421245 3.782805611222445 0 0 0
321 1 1 -0.3002641184325609 -2.7838534658754908 3.8372344689378775 0 0 0
322 1 1 0.6675814551045949 -2.719239645491779 3.8916633266533065 0 0 0
323 1 1 1.5553044022987035 -2.328281886872034 3.946092184368739 0 0 0
324 1 1 2.2563666464897394 -1.6579001077567326 4.000521042084168 0 0 0
325 1 1 2.6866317762543304 -0.7885486724276684 4.054949899799601 0 0 0
326 1 1 2.794462487945058 0.17543915820933703 4.10937875751503 0 0 0
327 1 1 2.566917720767312 1.1183725487147695 4.163807615230462 0 0 0
328 1 1 2.0313057491391646 1.9270874650162908 4.218236472945891 0 0 0
329 1 1 1.2519068414413044 2.5045278019165 4.272665330661324 0 0 0
330 1 1 0.3222588079101331 2.7813933536769078 4.327094188376753 0 0 0
331 1 1 -0.6460687296751099 2.7244567226379317 4.381523046092186 0 0 0
332 1 1 -1.5368641156876819 2.340551030756764 4.435951903807615 0 0 0
333 1 1 -2.2432205416199595 1.67574985781545 4.490380761523047 0 0 0
334 1 1 -2.6803662267118327 0.809837824173694 4.544809619238476 0 0 0
335 1 1 -2.7958381129144234 -0.15326458133507898 4.599238476953909 0 0 0
336 1 1 -2.5757781010277525 -1.0979727855803936 4.653667334669338 0 0 0
337 1 1 -2.0465961993661006 -1.9109097542033011 4.708096192384771 0 0 0
338 1 1 -1.2718009858980595 -2.494512681875003 4.7625250501002 0 0 0
339 1 1 -0.3443777688317449 -2.7787417733600446 4.816953907815632 0 0 0
340 1 1 0.6243708364070457 -2.7294859123091344 4.871382765531061 0 0 0
341 1 1 1.518182640702385 -2.3526564303119333 4.925811623246494 0 0 0
342 1 1 2.2297888268780905 -1.6934776717065674 4.980240480961923 0 0 0
343 1 1 2.6737875759835057 -0.8310594954180597 5.0346693386773556 0 0 0
344 1 1 2.796893374876664 0.13109691716719252 5.089098196392788 0 0 0
345 1 1 2.5843319574633483 1.0775205241356636 5.143527054108217 0 0 0
346 1 1 2.061613405075711 1.8946284209215274 5.19795591182365 0 0 0
347 1 1 1.291470611328783 2.484357237615815 5.252384769539079 0 0 0
348 1 1 0.3663305347220973 2.7759319941640195 5.3068136272545114 0 0 0
349 1 1 -0.6027782152955072 2.734360000714574 5.3612424849699405 0 0 0
350 1 1 -1.4995502276408488 2.3646304267364355 5.415671342685373 0 0 0
351 1 1 -2.2163614224140282 1.7111155370453963 5.470100200400802 0 0 0
352 1 1 -2.667185313242276 0.8522454540535337 5.524529058116235 0 0 0
353 1 1 -2.7979172829215075 -0.10890445730460462 5.578957915831664 0 0 0
354 1 1 -2.5928678275905876 -1.056983948100887 5.633386773547096 0 0 0
355 1 1 -2.076645497315969 -1.8782113865890386 5.687815631262525 0 0 0
356 1 1 -1.3112035561990645 -2.4740290053107667 5.742244488977958 0 0 0
357 1 1 -0.38840480046402737 -2.7729310903048923 5.796673346693387 0 0 0
358 1 1 0.5810031488086759 -2.739045578845559 5.85110220440882 0 0 0
359 1 1 1.4806789728090464 -2.3764391645210203 5.905531062124249 0 0 0
360 1 1 2.202650097200032 -1.7286292421320641 5.959959919839681 0 0 0
361 1 1 2.6602707782394055 -0.8733612652469803 6.01438877755511 0 0 0
362 1 1 2.798620697203926 0.08672169987763811 6.068817635270543 0 0 0
363 1 1 2.6010960991505407 1.0363974514706844 6.123246492985972 0 0 0
364 1 1 2.0914024552920334 1.8616927861299093 6.177675350701405 0 0 0
365 1 1 1.330709504085901 2.463561736969935 6.232104208416834 0 0 0
366 1 1 0.4103101023930364 2.7697723529901204 6.286533066132266 0 0 0
367 1 1 -0.5593360817950592 2.743575454520366 6.340961923847695 0 0 0
368 1 1 -1.461859138439864 2.388115003521154 6.395390781563128 0 0 0
369 1 1 -2.188944788970226 1.7460507880467724 6.449819639278557 0 0 0
370 1 1 -2.6533334812709497 0.8944387035486314 6.5042484969939895 0 0 0
371 1 1 -2.799292648940721 -0.06451693743440813 6.558677354709419 0 0 0
372 1 1 -2.6093053301350886 -1.015729226407323 6.613106212424851 0 0 0
373 1 1 -2.106172426418421 -1.8450405558834895 6.66753507014028 0 0 0
374 1 1 -1.3502763037481658 -2.452922988375266 6.721963927855713 0 0 0
375 1 1 -0.43233413837696416 -2.766422878381107 6.776392785571142 0 0 0
376 1 1 0.5374893014045697 -2.7479162403772364 6.8308216432865745 0 0 0
377 1 1 1.4428028326258666 -2.399624106978174 6.8852505010020035 0 0 0
378 1 1 2.1749572841738183 -1.763345976693498 6.939679358717436 0 0 0
379 1 1 2.646084783157926 -0.915443340949851 6.994108216432865 0 0 0
380 1 1 2.7996440204207724 0.04232466887880565 7.048537074148298 0 0 0
381 1 1 2.6172059288270986 0.9950136751844851 7.102965931863727 0 0 0
382 1 1 2.120665406384596 1.828288845564937 7.157394789579159 0 0 0
383 1 1 1.3696136492114674 2.442146531064637 7.2118236472945885 0 0 0
384 1 1 0.454186447910172 2.7629159796062996 7.266252505010021 0 0 0
385 1 1 -0.5157532569957141 2.752100765917815 7.32068136272545 0 0 0
386 1 1 -1.4238003292375008 2.410998853590997 7.375110220440883 0 0 0
387 1 1 -2.1609775379132508 1.7805468228947081 7.429539078156315 0 0 0
388 1 1 -2.6388142152112732 0.936406958992505 7.483967935871744 0 0 0
389 1 1 -2.7999638650002243 -0.02011318735724281 7.538396793587177 0 0 0
390 1 1 -2.6250864738252306 -0.9742189980804145 7.592825651302606 0 0 0
391 1 1 -2.1351695592062323 -1.811405606173405 7.647254509018039 0 0 0
392 1 1 -1.3890093998377508 -2.4311999402643574 7.701683366733468 0 0 0
393 1 1 -0.47615473219305765 -2.759218774722364 7.7561122244489 0 0 0
394 1 1 0.4938402400561919 -2.756095665498812 7.810541082164329 0 0 0
395 1 1 1.4045637478551631 -2.422205425536063 7.864969939879762 0 0 0
396 1 1 2.1467173538967015 -1.7976191424337316 7.919398797595191 0 0 0
397 1 1 2.6312331592108156 -0.957295136825949 7.9738276553106235 0 0 0
398 1 1 2.7999630871113506 -0.0020830078039578612 8.028256513026053 0 0 0
399 1 1 2.632657394082742 0.9533796053213605 8.082685370741485 0 0 0
400 1 1 2.1493948972896613 1.7944250019517747 8.137114228456914 0 0 0
401 1 1 1.4081732604096626 2.4201170068719104 8.191543086172347 0 0 0
402 1 1 0.4979485342259901 2.7553645987259063 8.245971943887776 0 0 0
403 1 1 -0.47204070410996957 2.759933790374048 8.300400801603208 0 0 0
404 1 1 -1.385383373686339 2.4332762205380565 8.354829659318638 0 0 0
405 1 1 -2.132466704374921 1.8145949641488732 8.40925851703407 0 0 0
406 1 1 -2.6236311673689663 0.9781396633157589 8.4636873747495 0 0 0
407 1 1 -2.7999307622563414 0.02429562321148679 8.518116232464932 0 0 0
408 1 1 -2.640207288931266 -0.9324637049735165 8.57254509018036 0 0 0
409 1 1 -2.1636296014819236 -1.7773149982941108 8.626973947895793 0 0 0
410 1 1 -1.427393101199339 -2.4088653253873247 8.681402805611222 0 0 0
411 1 1 -0.5198555588889959 -2.7513205915132035 8.735831663326655 0 0 0
412 1 1 0.4500669446378512 -2.763581796684716 8.790260521042084 0 0 0
413 1 1 1.3659713374974014 -2.444177439888395 8.844689378757517 0 0 0
414 1 1 2.1179374100926607 -1.8314401179749134 8.899118236472946 0 0 0
415 1 1 2.6157196423081284 -0.9989061251009699 8.953547094188378 0 0 0
416 1 1 2.7995778170147796 -0.04649015946747466 9.007975951903807 0 0 0
417 1 1 2.6474466081180603 0.9115057148866458 9.06240480961924 0 0 0
418 1 1 2.177583701134648 1.760109773703914 9.116833667334669 0 0 0