Lammps data files by amirhsi

1000 atoms
1000 bonds

1 atom types
1 bond types

-4.499992025022385 4.499992025022385 xlo xhi
-4.5 4.5 ylo yhi
-22.04659708032985 22.04659708032985 zlo zhi

Atoms

1 1 1 0.0 -3.5 -19.002308858722383 0 0 0
2 1 1 0.9706222020004803 -3.362721002548939 -18.92443054372762 0 0 0
3 1 1 1.865103808118465 -2.9616528805621365 -18.846552228732854 0 0 0
4 1 1 2.613277082281787 -2.328257479580124 -18.76867391373809 0 0 0
5 1 1 3.1564514662065495 -1.5122215913954289 -18.69079559874333 0 0 0
6 1 1 3.4520175685405876 -0.5775592666446703 -18.612917283748565 0 0 0
7 1 1 3.4767896645930816 0.4024097764452618 -18.5350389687538 0 0 0
8 1 1 3.228824503786404 1.3508117277209588 -18.457160653759036 0 0 0
9 1 1 2.727573748222459 2.1932490620099863 -18.379282338764273 0 0 0
10 1 1 2.0123580842986204 2.863636663502894 -18.301404023769507 0 0 0
11 1 1 1.1392827059033255 3.3093858820073545 -18.223525708774744 0 0 0
12 1 1 0.1768361345481758 3.495529857048579 -18.14564739377998 0 0 0
13 1 1 -0.7994823723863422 3.4074664981835854 -18.06776907878522 0 0 0
14 1 1 -1.7130853715717198 3.052103948050751 -17.989890763790452 0 0 0
15 1 1 -2.492305146552846 2.457318672143725 -17.91201244879569 0 0 0
16 1 1 -3.0760156918991717 1.669768685534035 -17.834134133800926 0 0 0
17 1 1 -3.418427751343984 0.7512334582813232 -17.75625581880616 0 0 0
18 1 1 -3.4926807624668594 -0.2262323838311367 -17.678377503811397 0 0 0
19 1 1 -3.2929499373108437 -1.1859513946045637 -17.600499188816634 0 0 0
20 1 1 -2.8349031886973615 -2.0526382805339893 -17.52262087382187 0 0 0
21 1 1 -2.154472058589487 -2.7583056663026264 -17.444742558827105 0 0 0
22 1 1 -1.3050330632019 -3.2475973740520647 -17.366864243832342 0 0 0
23 1 1 -0.3532205646389761 -3.4821308465817484 -17.28898592883758 0 0 0
24 1 1 0.6263003710626543 -3.4435080724759133 -17.211107613842813 0 0 0
25 1 1 1.5566910855970257 -3.1347588207105748 -17.13322929884805 0 0 0
26 1 1 2.3649669478046738 -2.5801029699977955 -17.055350983853288 0 0 0
27 1 1 2.9877226433840196 -1.8230505769754188 -16.977472668858525 0 0 0
28 1 1 3.3761060137373153 -0.922988723661743 -16.89959435386376 0 0 0
29 1 1 3.4996502704595485 0.04947711059074377 -16.821716038868995 0 0 0
30 1 1 3.3486639668629112 1.0180617059068433 -16.743837723874233 0 0 0
31 1 1 2.9349912448825974 1.9067843067485377 -16.665959408879466 0 0 0
32 1 1 2.2910827196879264 2.645928943026886 -16.588081093884703 0 0 0
33 1 1 1.4674498865868502 3.1775133092335333 -16.51020277888994 0 0 0
34 1 1 0.5287027396341647 3.4598371945950475 -16.432324463895178 0 0 0
35 1 1 -0.45151856848801686 3.4707536620034753 -16.35444614890041 0 0 0
36 1 1 -1.3963204386601449 3.209406367629369 -16.27656783390565 0 0 0
37 1 1 -2.2315877545810316 2.696296736934566 -16.198689518910886 0 0 0
38 1 1 -2.8917978535459428 1.97167572745294 -16.12081120391612 0 0 0
39 1 1 -3.3251604609874716 1.0923863367351243 -16.042932888921356 0 0 0
40 1 1 -3.4976803858871333 0.12740454536803159 -15.965054573926594 0 0 0
41 1 1 -3.3958242783417525 -0.8475715135755303 -15.88717625893183 0 0 0
42 1 1 -3.027582255110238 -1.7560597052895455 -15.809297943937066 0 0 0
43 1 1 -2.421841113774636 -2.5267935451142085 -15.731419628942302 0 0 0
44 1 1 -1.6261183038191802 -3.0993127080022487 -15.653541313947539 0 0 0
45 1 1 -0.7028344135865149 -3.428705847266356 -15.575662998952774 0 0 0
46 1 1 0.27558342160116317 -3.4891336715205674 -15.49778468395801 0 0 0
47 1 1 1.2323830763136632 -3.2758559115467323 -15.419906368963247 0 0 0
48 1 1 2.09250826634504 -2.805603171383593 -15.342028053968482 0 0 0
49 1 1 2.7884863495410266 -2.115264493727288 -15.26414973897372 0 0 0
50 1 1 3.2657212267536115 -1.25899359376086 -15.186271423978955 0 0 0
51 1 1 3.4867761405585487 -0.3039607633093974 -15.108393108984192 0 0 0
52 1 1 3.434310406985108 0.6749163122001013 -15.030514793989427 0 0 0
53 1 1 3.1124397079221486 1.6008494821654817 -14.952636478994663 0 0 0
54 1 1 2.546413235870369 2.4012037881413137 -14.8747581639999 0 0 0
55 1 1 1.7806330174663656 3.0131953234247235 -14.796879849005137 0 0 0
56 1 1 0.8751707902246249 3.3888163254944352 -14.71900153401037 0 0 0
57 1 1 -0.0989443334059734 3.498601151730052 -14.641123219015608 0 0 0
58 1 1 -1.0652977548117395 3.333937715913881 -14.563244904020845 0 0 0
59 1 1 -1.948083743207561 2.9077430645520277 -14.48536658902608 0 0 0
60 1 1 -2.6780520269072334 2.2534500973347646 -14.407488274031316 0 0 0
61 1 1 -3.197940140677995 1.422384918592856 -14.329609959036553 0 0 0
62 1 1 -3.4669653879225932 0.4797405537858398 -14.251731644041788 0 0 0
63 1 1 -3.4640240450805937 -0.5005371265985 -14.173853329047024 0 0 0
64 1 1 -3.1893468462071493 -1.4415501013105678 -14.09597501405226 0 0 0
65 1 1 -2.6644808830074034 -2.2694804744892805 -14.018096699057498 0 0 0
66 1 1 -1.9305993401809358 -2.9193811309407574 -13.940218384062733 0 0 0
67 1 1 -1.045271659126048 -3.3402705217733306 -13.862340069067969 0 0 0
68 1 1 -0.07794749496896987 -3.4991319192091144 -13.784461754073206 0 0 0
69 1 1 0.8954912714527724 -3.383503418463161 -13.706583439078441 0 0 0
70 1 1 1.7986830984623816 -3.002455513626433 -13.628705124083677 0 0 0
71 1 1 2.56077697547823 -2.385879561474252 -13.550826809088914 0 0 0
72 1 1 3.121990340557274 -1.5821429497574089 -13.472948494094151 0 0 0
73 1 1 3.4382987319199834 -0.6542949106308504 -13.395070179099388 0 0 0
74 1 1 3.4848892930796964 0.3248793852778194 -13.317191864104624 0 0 0
75 1 1 3.258107220878312 1.2785684718702404 -13.239313549109859 0 0 0
76 1 1 2.775742467036796 2.1319600738964324 -13.161435234115096 0 0 0
77 1 1 2.0756342028769037 2.8181097664653803 -13.083556919120332 0 0 0
78 1 1 1.2127025201763955 3.2831924399215193 -13.005678604125567 0 0 0
79 1 1 0.25464021680378945 3.490724618182609 -12.927800289130804 0 0 0
80 1 1 -0.7233973743822707 3.424426410179789 -12.849921974136041 0 0 0
81 1 1 -1.6446879562460868 3.089498588214448 -12.772043659141277 0 0 0
82 1 1 -2.436960758822324 2.5122146126396374 -12.694165344146512 0 0 0
83 1 1 -3.038065830084995 1.7378596065476544 -12.61628702915175 0 0 0
84 1 1 -3.400849397722305 0.8271779578856283 -12.538408714156985 0 0 0
85 1 1 -3.4968528534731176 -0.14839178264618927 -12.46053039916222 0 0 0
86 1 1 -3.3185451926761176 -1.1123209088056503 -12.382652084167457 0 0 0
87 1 1 -2.879913784995341 -1.9889938639909897 -12.304773769172694 0 0 0
88 1 1 -2.2153671332290426 -2.709639914270628 -12.226895454177928 0 0 0
89 1 1 -1.377035693442345 -3.217727878330571 -12.149017139183165 0 0 0
90 1 1 -0.43068249396986974 -3.473400723986205 -12.071138824188402 0 0 0
91 1 1 0.5494556546408383 -3.456602158707769 -11.993260509193638 0 0 0
92 1 1 1.486491676729871 -3.1686499483238624 -11.915382194198873 0 0 0
93 1 1 2.3069196490470065 -2.6321325446946697 -11.83750387920411 0 0 0
94 1 1 2.9463809832948207 -1.8891371314117578 -11.759625564209346 0 0 0
95 1 1 3.3547130446880162 -0.9979480887301008 -11.681747249214581 0 0 0
96 1 1 3.499884166932191 -0.02847486711756824 -11.603868934219818 0 0 0
97 1 1 3.3705063808156304 0.9432320694723656 -11.525990619225055 0 0 0
98 1 1 2.976728745064345 1.8409470329989537 -11.44811230423029 0 0 0
99 1 1 2.349441201995231 2.5942486462109224 -11.370233989235526 0 0 0
100 1 1 1.5378514116231994 3.144044057542536 -11.292355674240763 0 0 0
101 1 1 0.6056246498132407 3.447204488210496 -11.214477359245999 0 0 0
102 1 1 -0.3741104232869873 3.4799484753639716 -11.136599044251234 0 0 0
103 1 1 -1.3244983513330388 3.2397074123006946 -11.058720729256471 0 0 0
104 1 1 -2.1709858189238886 2.7453270431829013 -10.980842414261708 0 0 0
105 1 1 -2.8471699969705453 2.0355891059717197 -10.902964099266944 0 0 0
106 1 1 -3.3000075220132867 1.1661690935090543 -10.825085784272181 0 0 0
107 1 1 -3.493975490368635 0.2052687816090306 -10.747207469277416 0 0 0
108 1 1 -3.4138580573317556 -0.7717338688894321 -10.669329154282652 0 0 0
109 1 1 -3.06594004626589 -1.6881977469192146 -10.591450839287889 0 0 0
110 1 1 -2.477513934744918 -2.472230713979736 -10.513572524293124 0 0 0
111 1 1 -1.6947388922908995 -3.062329193107203 -10.43569420929836 0 0 0
112 1 1 -0.7790198177940008 -3.412202825666171 -10.357815894303597 0 0 0
113 1 1 0.19780957646360045 -3.494405725078199 -10.279937579308832 0 0 0
114 1 1 1.1591217705251207 -3.302489473275382 -10.20205926431407 0 0 0
115 1 1 2.0295064933972777 -2.851508967767467 -10.124180949319305 0 0 0
116 1 1 2.7406862924214463 -2.176841438077929 -10.046302634324542 0 0 0
117 1 1 3.2368725677019077 -1.3314112739716668 -9.968424319329777 0 0 0
118 1 1 3.479141916713244 -0.3815383642163588 -9.890546004335015 0 0 0
119 1 1 3.448489486115239 0.5982643764696808 -9.81266768934025 0 0 0
120 1 1 3.1473198101604156 1.5311361835486101 -9.734789374345487 0 0 0
121 1 1 2.5992581866646267 2.3438977962054826 -9.656911059350723 0 0 0
122 1 1 1.8472973871792653 2.9727920148104308 -9.57903274435596 0 0 0
123 1 1 0.9504250829476135 3.3684851434590035 -9.501154429361193 0 0 0
124 1 1 -0.021003451306501785 3.4999369787230763 -9.42327611436643 0 0 0
125 1 1 -0.9907843668530018 3.35683576279801 -9.345397799371666 0 0 0
126 1 1 -1.8828430626442068 2.950407090801638 -9.267519484376903 0 0 0
127 1 1 -2.6272018681511176 2.312533317377995 -9.189641169382138 0 0 0
128 1 1 -3.165469451623006 1.4932525408789847 -9.111762854387376 0 0 0
129 1 1 -3.4554213363630044 0.5568333576639489 -9.033884539392611 0 0 0
130 1 1 -3.4743122057733418 -0.42326669702963277 -8.956006224397848 0 0 0
131 1 1 -3.220660162931943 -1.3701635358245339 -8.878127909403084 0 0 0
132 1 1 -2.714362978206042 -2.209577702309748 -8.80024959440832 0 0 0
133 1 1 -1.9951372058421941 -2.875661233501645 -8.722371279413556 0 0 0
134 1 1 -1.1194026132524661 -3.3161631126112523 -8.644492964418793 0 0 0
135 1 1 -0.15585632438189392 -3.496528107444607 -8.566614649424029 0 0 0
136 1 1 0.8199161358929472 -3.4026074604782695 -8.488736334429264 0 0 0
137 1 1 1.7313701589510728 -3.041768790143941 -8.4108580194345 0 0 0
138 1 1 2.5070066050734656 -2.442318136958823 -8.332979704439737 0 0 0
139 1 1 3.0859805635686017 -1.651279492174724 -8.255101389444972 0 0 0
140 1 1 3.4228743403950905 -0.7307059941350378 -8.17722307445021 0 0 0
141 1 1 3.4912602555927776 0.24718783893681812 -8.099344759455445 0 0 0
142 1 1 3.2857737663741737 1.205690987030789 -8.021466444460682 0 0 0
143 1 1 2.8225342894419563 2.069613535161672 -7.943588129465917 0 0 0
144 1 1 2.137880711066373 2.771184956882225 -7.865709814471154 0 0 0
145 1 1 1.2855207780135722 3.2553703828128957 -7.7878314994763915 0 0 0
146 1 1 0.33231798575610294 3.4841878187524573 -7.709953184481627 0 0 0
147 1 1 -0.6469535378839921 3.4396876485837176 -7.632074869486864 0 0 0
148 1 1 -1.575474699765132 3.125360694447917 -7.5541965544920995 0 0 0
149 1 1 -2.3804075260501594 2.5658643787082274 -7.476318239497335 0 0 0
150 1 1 -2.9986089473630897 1.8050884689660007 -7.39843992450257 0 0 0
151 1 1 -3.38158406579499 0.9027121390351542 -7.320561609507807 0 0 0
152 1 1 -3.499290344027574 -0.07047757228637092 -7.242683294513043 0 0 0
153 1 1 -3.3424942964211355 -1.0381386604843204 -7.16480497951828 0 0 0
154 1 1 -2.923495811101217 -1.92436281466714 -7.086926664523515 0 0 0
155 1 1 -2.2751632834953806 -2.6596300557473254 -7.0090483495287526 0 0 0
156 1 1 -1.4483552504063009 -3.186262241031096 -6.931170034533988 0 0 0
157 1 1 -0.5079307849007684 -3.4629476342777825 -6.853291719539225 0 0 0
158 1 1 0.4723383828480019 -3.4679816106906527 -6.7754134045444605 0 0 0
159 1 1 1.415554899365351 -3.2009692792781923 -6.697535089549698 0 0 0
160 1 1 2.2477280116416436 -2.6828564601337703 -6.619656774554933 0 0 0
161 1 1 2.903577782214624 -1.954286586616611 -6.54177845956017 0 0 0
162 1 1 3.3316559830941315 -1.0724124254749545 -6.463900144565404 0 0 0
163 1 1 3.498381959281612 -0.10641271997721297 -6.386021829570641 0 0 0
164 1 1 3.3906768679999204 0.867934546385988 -6.308143514575876 0 0 0
165 1 1 3.016989650364219 1.774196564531447 -6.230265199581114 0 0 0
166 1 1 2.4066342530015215 2.5412814822997887 -6.152386884586349 0 0 0
167 1 1 1.607490091362574 3.1090152148503782 -6.074508569591586 0 0 0
168 1 1 0.682246142206639 3.4328618092553853 -5.9966302545968215 0 0 0
169 1 1 -0.2965167020447369 3.4874170736246204 -5.918751939602059 0 0 0
170 1 1 -1.2520192516765483 3.2684014125304888 -5.840873624607294 0 0 0
171 1 1 -2.109306974074355 2.7929955404764413 -5.762995309612531 0 0 0
172 1 1 -2.8011298126335733 2.0984927383184817 -5.685116994617767 0 0 0
173 1 1 -3.2732176269593145 1.2393733765749668 -5.607238679623004 0 0 0
174 1 1 -3.488537421703273 0.28303119505785534 -5.529360364628237 0 0 0
175 1 1 -3.430198405120405 -0.6955134085763048 -5.451482049633475 0 0 0
176 1 1 -3.1027769896157307 -1.619498364528703 -5.37360373463871 0 0 0
177 1 1 -2.5319577944261162 -2.4164415422775773 -5.295725419643947 0 0 0
178 1 1 -1.7625188120323645 -3.023826621556207 -5.2178471046491826 0 0 0
179 1 1 -0.8548187922075028 -3.3940071939359386 -5.13996878965442 0 0 0
180 1 1 0.1199376086439727 -3.4979443920726876 -5.062090474659655 0 0 0
181 1 1 1.085285486826121 -3.327484847761833 -4.984212159664892 0 0 0
182 1 1 1.9654979915341466 -2.896000284059937 -4.906333844670128 0 0 0
183 1 1 2.69152672837369 -2.2373385685787524 -4.828455529675365 0 0 0
184 1 1 3.206418270422445 -1.4031685127243747 -4.7505772146806 0 0 0
185 1 1 3.4697818778584177 -0.45892670448047845 -4.672698899685837 0 0 0
186 1 1 3.4609579552565313 0.5213156739889264 -4.594820584691073 0 0 0
187 1 1 3.1806386964729896 1.460663370697917 -4.516942269696308 0 0 0
188 1 1 2.6508137854003806 2.285429122753822 -4.439063954701544 0 0 0
189 1 1 1.9130454121053386 2.9309140641142504 -4.361185639706781 0 0 0
190 1 1 1.0252079209519507 3.3464830372821823 -4.283307324712016 0 0 0
191 1 1 0.056947849474442945 3.4995366753957926 -4.205429009717253 0 0 0
192 1 1 -0.9157795041075237 3.378068664171375 -4.127550694722489 0 0 0
193 1 1 -1.8166684049980226 2.991607578925074 -4.049672379727726 0 0 0
194 1 1 -2.575048495980419 2.3704694141348845 -3.971794064732963 0 0 0
195 1 1 -3.1314285435822313 1.5633794409670563 -3.8939157497381984 0 0 0
196 1 1 -3.442163236296842 0.6336499464897407 -3.8160374347434356 0 0 0
197 1 1 -3.482876947216166 -0.3457863076384029 -3.738159119748671 0 0 0
198 1 1 -3.250375883530207 -1.2980973059694827 -3.660280804753908 0 0 0
199 1 1 -2.7628986240556115 -2.148578877582019 -3.5824024897591435 0 0 0
200 1 1 -2.058685391341401 -2.8305148753323137 -3.504524174764379 0 0 0
201 1 1 -1.1929782920040648 -3.2904107334506225 -3.4266458597696143 0 0 0
202 1 1 -0.23368784186263958 -3.4921898563173195 -3.3487675447748515 0 0 0
203 1 1 0.7439342840773265 -3.4200236521074463 -3.270889229780087 0 0 0
204 1 1 1.6631983799100654 -3.079573208914595 -3.193010914785324 0 0 0
205 1 1 2.45199264365354 -2.4975452098948927 -3.1151325997905595 0 0 0
206 1 1 3.0484399977523418 -1.7195969237305881 -3.0372542847957966 0 0 0
207 1 1 3.4057520451761882 -0.8067546137322124 -2.959375969801034 0 0 0
208 1 1 3.4958993918407932 0.16937367601600084 -2.8814976548062674 0 0 0
209 1 1 3.3118104163901574 1.1322154237995747 -2.8036193398115046 0 0 0
210 1 1 2.867926004533791 2.0062403725672673 -2.7257410248167417 0 0 0
211 1 1 2.199066731725311 2.7228855116252975 -2.647862709821979 0 0 0
212 1 1 1.3577013581972537 3.2259335117062364 -2.5699843948272125 0 0 0
213 1 1 0.4098309096455914 3.475922701312425 -2.4921060798324497 0 0 0
214 1 1 -0.570188782563536 3.4532426431165697 -2.4142277648376833 0 0 0
215 1 1 -1.5054799350994266 3.159672477490828 -2.3363494498429205 0 0 0
216 1 1 -2.322673501250647 2.618241357588727 -2.2584711348481576 0 0 0
217 1 1 -2.957664616168839 1.87142192416965 -2.180592819853395 0 0 0
218 1 1 -3.360641312056093 0.9777985332888877 -2.1027145048586284 0 0 0
219 1 1 -3.4999920250223844 0.007471598202997015 -2.0248361898638656 0 0 0
220 1 1 -3.364785368684804 -0.9634414474604401 -1.9469578748691028 0 0 0
221 1 1 -2.965627648318049 -1.8587771925466372 -1.8690795598743364 0 0 0
222 1 1 -2.3338308477374525 -2.6083008979312727 -1.7912012448795736 0 0 0
223 1 1 -1.5189563563009343 -3.153216070562401 -1.7133229298848107 0 0 0
224 1 1 -0.584927118713124 -3.450776762671553 -1.6354446148900479 0 0 0
225 1 1 0.39498680941125663 -3.4776407836910233 -1.5575662998952815 0 0 0
226 1 1 1.3439159414199262 -3.231700781693348 -1.4796879849005187 0 0 0
227 1 1 2.187421397373448 -2.7322495549112626 -1.4018096699057558 0 0 0
228 1 1 2.859334272507244 -2.0184666254524672 -1.323931354910993 0 0 0
229 1 1 3.306946266322653 -1.1463447961475917 -1.2460530399162266 0 0 0
230 1 1 3.495144392672157 -0.18429778721508833 -1.1681747249214638 0 0 0
231 1 1 3.4091654229229538 0.7922064876953218 -1.090296409926701 0 0 0
232 1 1 3.0557539895144976 1.7065660126599937 -1.0124180949319346 0 0 0
233 1 1 2.462633502313107 2.487053725452082 -0.9345397799371717 0 0 0
234 1 1 1.6763313818048917 3.072444157080174 -0.8566614649424054 0 0 0
235 1 1 0.7585292090167647 3.4168162723606317 -0.7787831499476461 0 0 0
236 1 1 -0.2187758948292666 3.4931557520158836 -0.7009048349528797 0 0 0
237 1 1 -1.1789190926702762 3.295474134769911 -0.6230265199581169 0 0 0
238 1 1 -2.04658181558694 2.839278583039865 -0.5451482049633505 0 0 0
239 1 1 -2.7537001385919746 2.160355421387541 -0.4672698899685912 0 0 0
240 1 1 -3.24480406485029 1.3119628732289026 -0.3893915749738248 0 0 0
241 1 1 -3.481368877424158 0.3606532119674757 -0.311513259979062 0 0 0
242 1 1 -3.4448372161408147 -0.6189479415033229 -0.23363494498429915 0 0 0
243 1 1 -3.1380748123352524 -1.549995636183234 -0.15575662998953632 0 0 0
244 1 1 -2.5851456861503586 -2.359453704012476 -0.07787831499476994 0 0 0
245 1 1 -1.829424441074187 -2.9838240924022985 -3.552713678800501e-15 0 0 0
246 1 1 -0.9301937370363051 -3.3741279779490334 0.07787831499475573 0 0 0
247 1 1 0.04200614623339148 -3.4997479171618373 0.1557566299895221 0 0 0
248 1 1 1.010910851422115 -3.3508296361463996 0.23363494498428494 0 0 0
249 1 1 1.9005145119276226 -2.939055050514112 0.3115132599790513 0 0 0
250 1 1 2.6410320428110614 -2.2967258758600764 0.3893915749738106 0 0 0
251 1 1 3.1743734416526515 -1.4742297151157622 0.467269889968577 0 0 0
252 1 1 3.4587006670054588 -0.5360873959122645 0.5451482049633398 0 0 0
253 1 1 3.4717096294726693 0.4441083748666993 0.6230265199581062 0 0 0
254 1 1 3.212379839154046 1.3894660013820508 0.7009048349528655 0 0 0
255 1 1 2.7010544581204914 2.2258267709476893 0.7787831499476319 0 0 0
256 1 1 1.977844478189036 2.887582244732977 0.8566614649423947 0 0 0
257 1 1 1.0994822084975207 3.322820921024396 0.9345397799371611 0 0 0
258 1 1 0.13487090149300626 3.497400440317131 1.012418094931924 0 0 0
259 1 1 -0.8403203724499544 3.397625887534643 1.0902964099266867 0 0 0
260 1 1 -1.7495925959542675 3.031324091578135 1.1681747249214531 0 0 0
261 1 1 -2.5216177808754576 2.4272296486267493 1.246053039916216 0 0 0
262 1 1 -3.09583430241763 1.6327308326770662 1.3239313549109788 0 0 0
263 1 1 -3.4271976643538005 0.7101522156888995 1.4018096699057416 0 0 0
264 1 1 -3.4897140209019026 -0.2681343922749872 1.479687984900508 0 0 0
265 1 1 -3.2784792676326795 -1.2253871599224013 1.5575662998952708 0 0 0
266 1 1 -2.810063744635048 -2.0865142585392635 1.6354446148900337 0 0 0
267 1 1 -2.121212373844839 -2.7839644511105996 1.7133229298847965 0 0 0
268 1 1 -1.265962198447578 -3.2630261586603586 1.791201244879563 0 0 0
269 1 1 -0.31140343938531223 -3.4861193178000947 1.8690795598743257 0 0 0
270 1 1 0.6675834065121697 -3.4357433541156137 1.9469578748690886 0 0 0
271 1 1 1.594201577689061 -3.115850017201359 2.024836189863855 0 0 0
272 1 1 2.395762380683111 -2.551533385104649 2.1027145048586178 0 0 0
273 1 1 3.009387264962245 -1.7870613558249921 2.180592819853384 0 0 0
274 1 1 3.3869403397121793 -0.8824030457961646 2.2584711348481434 0 0 0
275 1 1 3.4988044005979946 0.09147549593256207 2.33634944984291 0 0 0
276 1 1 3.3362042555458506 1.0581782294480253 2.4142277648376727 0 0 0
277 1 1 2.911895095926074 1.941872022127535 2.492106079832439 0 0 0
278 1 1 2.2591619137626564 2.6732353894493186 2.5699843948271983 0 0 0
279 1 1 1.4292084558272606 3.1948964286486436 2.6478627098219647 0 0 0
280 1 1 0.48714053848360095 3.465933365742323 2.7257410248167275 0 0 0
281 1 1 -0.4931411872834183 3.4650846698752833 2.803619339811494 0 0 0
282 1 1 -1.4347383828835263 3.1924169171148 2.881497654806253 0 0 0
283 1 1 -2.2637873231654573 2.6693195678815553 2.9593759698010196 0 0 0
284 1 1 -2.9152531467807994 1.9368270677023922 3.037254284795786 0 0 0
285 1 1 -3.338031525078288 1.0523998943289186 3.115132599790549 0 0 0
286 1 1 -3.4989575483913815 0.08541706243469595 3.1930109147853116 0 0 0
287 1 1 -3.385407352066176 -0.8882663230001935 3.2708892297800745 0 0 0
288 1 1 -3.006288397309483 -1.7922695311259353 3.348767544774841 0 0 0
289 1 1 -2.3913407241348428 -2.5556779024545024 3.4266458597696 0 0 0
290 1 1 -1.5888039897184583 -3.1186057593505963 3.5045241747643665 0 0 0
291 1 1 -0.6616333016707238 -3.436894146481718 3.5824024897591293 0 0 0
292 1 1 0.31743930428192135 -3.4855748863131617 3.6602808047538957 0 0 0
293 1 1 1.2716103391240607 -3.260829211325363 3.738159119748655 0 0 0
294 1 1 2.126029721107139 -2.780287327771916 3.8160374347434214 0 0 0
295 1 1 2.8136724009960443 -2.081645411657124 3.893915749738184 0 0 0
296 1 1 3.280596151533885 -1.2197085268788863 3.9717940647329506 0 0 0
297 1 1 3.4901730730863325 -0.262091434242148 4.049672379727713 0 0 0
298 1 1 3.4259628744079302 0.7160854580136036 4.127550694722476 0 0 0
299 1 1 3.093002533613367 1.6380889252605595 4.205429009717243 0 0 0
300 1 1 2.5174111717171006 2.431592275138646 4.2833073247120055 0 0 0
301 1 1 1.744341134491994 3.034349025164901 4.361185639706768 0 0 0
302 1 1 0.8344360103207675 3.3990758368533 4.439063954701531 0 0 0
303 1 1 -0.14092656466983036 3.4971616638883543 4.5169422696962975 0 0 0
304 1 1 -1.1052341353678015 3.320912149698903 4.59482058469106 0 0 0
305 1 1 -1.9828414580360674 2.884153212347327 4.672698899685823 0 0 0
306 1 1 -2.704904502153676 2.2211464684321864 4.750577214680586 0 0 0
307 1 1 -3.2147809301247605 1.38390157572935 4.828455529675352 0 0 0
308 1 1 -3.4724734134601944 0.43809632823398925 4.906333844670115 0 0 0
309 1 1 -3.457767228866906 -0.5420754476768685 4.984212159664878 0 0 0
310 1 1 -3.1718160050747812 -1.4797240384448225 5.0620904746596445 0 0 0
311 1 1 -2.6370512262678485 -2.3012954677831434 5.139968789654407 0 0 0
312 1 1 -1.8954225911356886 -2.9423414487466393 5.217847104649174 0 0 0
313 1 1 -1.0051072628279845 -3.352575038714337 5.295725419643933 0 0 0
314 1 1 -0.0359461531649119 -3.499815405713942 5.373603734638699 0 0 0
315 1 1 0.9360347575658466 -3.372512258336305 5.451482049633462 0 0 0
316 1 1 1.8345882893836107 -2.9806519099781705 5.5293603646282286 0 0 0
317 1 1 2.589227283428698 -2.354973901075858 5.607238679622988 0 0 0
318 1 1 3.140753977106975 -1.5445596315088388 5.685116994617754 0 0 0
319 1 1 3.4459037809465243 -0.6129821632465737 5.762995309612517 0 0 0
320 1 1 3.4807391754368746 0.36668077748775785 5.840873624607283 0 0 0
321 1 1 3.242527493131456 1.3175793927830826 5.918751939602043 0 0 0
322 1 1 2.749955283131947 2.1651203063051003 5.996630254596809 0 0 0
323 1 1 2.041662442101784 2.8428180512496715 6.0745085695915755 0 0 0
324 1 1 1.1732111021087617 3.2975105321876907 6.152386884586338 0 0 0
325 1 1 0.21272705131792446 3.493529333158315 6.230265199581101 0 0 0
326 1 1 -0.7644444030931861 3.4154977316021604 6.308143514575864 0 0 0
327 1 1 -1.681648908210842 3.0695369275369995 6.38602182957063 0 0 0
328 1 1 -2.466936226937638 2.482785865156859 6.463900144565393 0 0 0
329 1 1 -3.058704384516073 1.7012723145170352 6.541778459560156 0 0 0
330 1 1 -3.4105320441484763 0.7863022166040328 6.619656774554919 0 0 0
331 1 1 -3.4948200353263714 -0.19034946987417728 6.697535089549685 0 0 0
332 1 1 -3.3049563746634023 -1.1520691652725283 6.7754134045444445 0 0 0
333 1 1 -2.855834943867124 -2.023414632097796 6.853291719539211 0 0 0
334 1 1 -2.1826871370823935 -2.7360330519960945 6.931170034533977 0 0 0
335 1 1 -1.338318129195994 -3.234022972253805 7.00904834952874 0 0 0
336 1 1 -0.38896456642573 -3.47831950316029 7.0869266645235065 0 0 0
337 1 1 0.5909013767575314 -3.4497587688048643 7.164804979518266 0 0 0
338 1 1 1.524413977887329 -3.1505812200325405 7.242683294513032 0 0 0
339 1 1 2.3383437089685697 -2.6042558819607406 7.320561609507795 0 0 0
340 1 1 2.9688417371566658 -1.8536393229850812 7.398439924502558 0 0 0
341 1 1 3.366448555477446 -0.9576137652121646 7.476318239497321 0 0 0
342 1 1 3.4999738408459273 0.01353193977998832 7.554196554492087 0 0 0
343 1 1 3.3589431833708367 0.9836161298426278 7.63207486948685 0 0 0
344 1 1 2.954419752919615 1.876540413515894 7.709953184481613 0 0 0
345 1 1 2.318136447193866 2.622259219106952 7.7878314994763755 0 0 0
346 1 1 1.500006600082093 3.1622745294661185 7.865709814471142 0 0 0
347 1 1 0.5642085231249868 3.454224767213784 7.943588129465908 0 0 0
348 1 1 -0.4158489712079432 3.475207854667875 8.021466444460668 0 0 0
349 1 1 -1.363285134193313 3.22357777056604 8.099344759455434 0 0 0
350 1 1 -2.2037782020574928 2.719073672436303 8.177223074450197 0 0 0
351 1 1 -2.8713955772456967 2.0012714555936317 8.255101389444963 0 0 0
352 1 1 -3.3137659203597827 1.1264792164359185 8.332979704439722 0 0 0
353 1 1 -3.49618742728273 0.16332015586009407 8.410858019434489 0 0 0
354 1 1 -3.404350017109474 -0.8126505774357918 8.488736334429252 0 0 0
355 1 1 -3.045457888466905 -1.7248728212754418 8.566614649424018 0 0 0
356 1 1 -2.4476643851339546 -2.5017871727520755 8.644492964418777 0 0 0
357 1 1 -1.6578635030079398 -3.0824484757079462 8.722371279413544 0 0 0
358 1 1 -0.7380112839656103 -3.4213066721268106 8.800249594408307 0 0 0
359 1 1 0.23973433460273888 -3.4917799828758658 8.878127909403073 0 0 0
360 1 1 1.198673959394547 -3.288340119128403 8.956006224397836 0 0 0
361 1 1 2.0635834359484244 -2.8269459497626226 9.033884539392599 0 0 0
362 1 1 2.766614818077376 -2.143791605635839 9.111762854387365 0 0 0
363 1 1 3.2526187096012142 -1.292467225871563 9.189641169382128 0 0 0
364 1 1 3.4834704665281544 -0.3397550718181022 9.26751948437689 0 0 0
365 1 1 3.441060890143454 0.639609216885703 9.345397799371653 0 0 0
366 1 1 3.12871680566335 1.5687992701297777 9.42327611436642 0 0 0
367 1 1 2.5709400889605285 2.3749246427993524 9.501154429361183 0 0 0
368 1 1 1.811485613446708 2.9947487160487447 9.579032744355946 0 0 0
369 1 1 0.9099288928409427 3.3796493028083927 9.656911059350708 0 0 0
370 1 1 -0.06300732842832076 3.4994328221247977 9.734789374345475 0 0 0
371 1 1 -1.0310009309096546 3.344702838887698 9.812667689340238 0 0 0
372 1 1 -1.9181175195817142 2.927597168511012 9.890546004335 0 0 0
373 1 1 -2.654767108207124 2.280835724286514 9.968424319329767 0 0 0
374 1 1 -3.1831631156435853 1.4551537991587764 10.04630263432453 0 0 0
375 1 1 -3.4618554423721886 0.5153221284963978 10.124180949319296 0 0 0
376 1 1 -3.4689820294154434 -0.4649340594027428 10.202059264314055 0 0 0
377 1 1 -3.2039838306450177 -1.4087184292701225 10.279937579308822 0 0 0
378 1 1 -2.6876486672344537 -2.2419956827596397 10.357815894303585 0 0 0
379 1 1 -1.9604805240874486 -2.899399267895645 10.435694209298351 0 0 0
380 1 1 -1.0795222090153456 -3.3293590674847056 10.51357252429311 0 0 0
381 1 1 -0.11388062161184692 -3.4981468242515636 10.591450839287877 0 0 0
382 1 1 0.8606943472566866 -3.392521958749919 10.66932915428264 0 0 0
383 1 1 1.7677520263520154 -3.0207702284894733 10.747207469277406 0 0 0
384 1 1 2.5361381477789506 -2.4120537505164252 10.825085784272165 0 0 0
385 1 1 3.105576553591891 -1.6141233750182513 10.902964099266931 0 0 0
386 1 1 3.431397567527915 -0.6895728631286965 10.980842414261698 0 0 0
387 1 1 3.488042114077497 0.2890712895148675 11.058720729256457 0 0 0
388 1 1 3.2710667037769974 1.2450392039777258 11.136599044251223 0 0 0
389 1 1 2.7974920033679274 2.1033398420351626 11.214477359245986 0 0 0
390 1 1 2.104467647187534 2.796643688770696 11.292355674240753 0 0 0
391 1 1 1.246358028850541 3.2705644258934563 11.370233989235512 0 0 0
392 1 1 0.2904776787046347 3.487925274167204 11.448112304230278 0 0 0
393 1 1 -0.6881892340210233 3.431675331114171 11.525990619225041 0 0 0
394 1 1 -1.6128710449735264 3.106227131470911 11.603868934219808 0 0 0
395 1 1 -2.411030958742136 2.5371105052770124 11.681747249214567 0 0 0
396 1 1 -3.020057208030977 1.7689698867476917 11.759625564209333 0 0 0
397 1 1 -3.392174642597892 0.8620621753190806 11.837503879204096 0 0 0
398 1 1 -3.4981924576706858 -0.11247012534859416 11.915382194198862 0 0 0
399 1 1 -3.329794070754949 -1.0781796911300017 11.993260509193625 0 0 0
400 1 1 -2.900189517123938 -1.959311298585403 12.071138824188388 0 0 0
401 1 1 -2.2430791867335804 -2.6867444541754653 12.149017139183155 0 0 0
402 1 1 -1.4100101923671935 -3.203415561150415 12.226895454177917 0 0 0
403 1 1 -0.4663327490842262 -3.468794281466047 12.30477376917268 0 0 0
404 1 1 0.5139262326403872 -3.462062943882456 12.382652084167443 0 0 0
405 1 1 1.453870198376044 -3.1837495891282033 12.46053039916221 0 0 0
406 1 1 2.2797651108219252 -2.6556865476706952 12.538408714156972 0 0 0
407 1 1 2.9268235267892546 -1.919297799465448 12.616287029151735 0 0 0
408 1 1 3.344286857342976 -1.0323494639912592 12.694165344146498 0 0 0
409 1 1 3.499407132488236 -0.0644183288393851 12.772043659141264 0 0 0
410 1 1 3.3800159203071614 0.9085661112269898 12.849921974136027 0 0 0
411 1 1 2.9954788813212616 1.8102779542264558 12.92780028913079 0 0 0
412 1 1 2.3759610779276326 2.569982287132144 13.00567860412556 0 0 0
413 1 1 1.5700606718136045 3.1280839961267364 13.083556919120316 0 0 0
414 1 1 0.6409966342916261 3.440802713732191 13.161435234115086 0 0 0
415 1 1 -0.3383504748446725 3.4836071759273297 13.239313549109848 0 0 0
416 1 1 -1.291155633138772 3.253139580622697 13.317191864104611 0 0 0
417 1 1 -2.142675905221159 2.7674789909201998 13.395070179099374 0 0 0
418 1 1 -2.826113662942827 2.064723120451717 13.472948494094137 0 0 0
419 1 1 -3.2878565347607007 1.199999752846373 13.5508268090889 0 0 0