Lammps data files by amirhsi

307 atoms
306 bonds

3 atom types
2 bond types

-13.997574708534716 13.997574708534716 xlo xhi
-4.499810147501813 4.499810147501813 ylo yhi
-15.995149417069431 15.995149417069431 zlo zhi

Atoms

1 1 2 -9.372880199982427 1.996109034982033 -2.8500000000000005 0 0 0
2 1 1 -9.372880199982427 1.996109034982033 0.0 0 0 0
3 1 1 -8.46592446422291 1.713387805901335 0.07755102040816197 0 0 0
4 1 1 -7.791734814836237 1.0440834531141474 0.15510204081632573 0 0 0
5 1 1 -7.502425291465284 0.1392077712180799 0.23265306122448948 0 0 0
6 1 1 -7.663271355320621 -0.7970766640590669 0.31020408163265145 0 0 0
7 1 1 -8.23798211324489 -1.5535206770078867 0.3877551020408152 0 0 0
8 1 1 -9.096888450481426 -1.9594515872068012 0.46530612244897895 0 0 0
9 1 1 -10.046199624691235 -1.923281233042181 0.5428571428571409 0 0 0
10 1 1 -10.87172730219323 -1.453170550672418 0.6204081632653065 0 0 0
11 1 1 -11.387211800751022 -0.6551882628071903 0.6979591836734684 0 0 0
12 1 1 -11.47634693037751 0.2906208768539098 0.7755102040816322 0 0 0
13 1 1 -11.119021577450715 1.1708586811748465 0.8530612244897959 0 0 0
14 1 1 -10.395857274724754 1.7869214955557047 0.9306122448979579 0 0 0
15 1 1 -9.470017968002162 1.9998101475018126 1.0081632653061217 0 0 0
16 1 1 -8.550396150862229 1.7614916349178231 1.0857142857142854 0 0 0
17 1 1 -7.844481495797148 1.1257365722054997 1.1632653061224474 0 0 0
18 1 1 -7.511545996855983 0.23598719538930976 1.2408163265306111 0 0 0
19 1 1 -7.626708225987332 -0.7070067923865931 1.3183673469387749 0 0 0
20 1 1 -8.163984705243434 -1.490482372630271 1.3959183673469369 0 0 0
21 1 1 -9.002152428992133 -1.9376678675492431 1.4734693877551006 0 0 0
22 1 1 -9.952099804562623 -1.947667049852418 1.5510204081632644 0 0 0
23 1 1 -10.799494955341821 -1.5182238540326412 1.6285714285714281 0 0 0
24 1 1 -11.353144350435164 -0.7462314011467491 1.7061224489795919 0 0 0
25 1 1 -11.488130845074718 0.19412951162287823 1.7836734693877538 0 0 0
26 1 1 -11.173998111407434 1.0906899533325938 1.8612244897959176 0 0 0
27 1 1 -10.481622347466995 1.7411634743216406 1.9387755102040813 0 0 0
28 1 1 -9.567220834992458 1.99878698641687 2.0163265306122433 0 0 0
29 1 1 -8.637105415235894 1.8054341847017923 2.093877551020407 0 0 0
30 1 1 -7.901133379779875 1.2047302950633723 2.171428571428571 0 0 0
31 1 1 -7.525358419124169 0.33220913260127866 2.248979591836733 0 0 0
32 1 1 -7.594564758766717 -0.6152667154039786 2.3265306122448965 0 0 0
33 1 1 -8.093137718325668 -1.4239230107462106 2.4040816326530603 0 0 0
34 1 1 -8.908586773800538 -1.9113066767888316 2.481632653061224 0 0 0
35 1 1 -9.856926232049805 -1.9674517738809723 2.559183673469388 0 0 0
36 1 1 -10.724187002805982 -1.5796905644912176 2.6367346938775498 0 0 0
37 1 1 -11.314693374667202 -0.8355116714881334 2.7142857142857135 0 0 0
38 1 1 -11.49521234748228 0.09717954239446229 2.7918367346938773 0 0 0
39 1 1 -11.225014328009816 1.0079446220243058 2.8693877551020393 0 0 0
40 1 1 -10.56506274439328 1.691292196309917 2.946938775510203 0 0 0
41 1 1 -9.664259172686156 1.9930419688031025 3.0244897959183668 0 0 0
42 1 1 -8.725847418754865 1.8451116470850883 3.1020408163265287 0 0 0
43 1 1 -7.961556634580151 1.2808780099935004 3.1795918367346925 0 0 0
44 1 1 -7.543829928341436 0.4276462718971297 3.2571428571428562 0 0 0
45 1 1 -7.56691688813383 -0.5220731562960308 3.33469387755102 0 0 0
46 1 1 -8.025608518654174 -1.3539998285999002 3.4122448979591837 0 0 0
47 1 1 -8.816412520766313 -1.8804302895759164 3.4897959183673457 0 0 0
48 1 1 -9.7609037414937 -1.9825886664663668 3.5673469387755095 0 0 0
49 1 1 -10.645981349159715 -1.6374254754853428 3.644897959183673 0 0 0
50 1 1 -11.271949708534716 -0.9228181615979388 3.722448979591835 0 0 0
51 1 1 -11.497574708534716 2.4492935982947064e-16 3.799999999999999 0 0 0
52 1 2 -11.497574708534716 2.4492935982947064e-16 6.649999999999999 0 0 0
53 1 1 -11.497574708534716 -4.898587196589413e-16 9.5 0 0 0
54 1 1 -11.420023688126552 0.9228181615979386 9.725625 0 0 0
55 1 1 -11.34247266771839 1.6374254754853426 10.351593359374998 0 0 0
56 1 1 -11.264921647310226 1.9825886664663668 11.236670967041015 0 0 0
57 1 1 -11.187370626902062 1.8804302895759164 12.1811621877684 0 0 0
58 1 1 -11.109819606493899 1.3539998285999004 12.971966189880543 0 0 0
59 1 1 -11.032268586085735 0.522073156296031 13.430657820400885 0 0 0
60 1 1 -10.954717565677573 -0.4276462718971295 13.45374478019328 0 0 0
61 1 1 -10.877166545269409 -1.2808780099935002 13.036018073954565 0 0 0
62 1 1 -10.799615524861245 -1.8451116470850883 12.27172728977985 0 0 0
63 1 1 -10.722064504453083 -1.9930419688031025 11.333315535848559 0 0 0
64 1 1 -10.64451348404492 -1.6912921963099172 10.432511964141433 0 0 0
65 1 1 -10.566962463636756 -1.007944622024306 9.7725603805249 0 0 0
66 1 1 -10.489411443228594 -0.09717954239446254 9.502362361052434 0 0 0
67 1 1 -10.41186042282043 0.8355116714881332 9.682881333867513 0 0 0
68 1 1 -10.334309402412266 1.5796905644912174 10.273387705728734 0 0 0
69 1 1 -10.256758382004103 1.9674517738809723 11.140648476484909 0 0 0
70 1 1 -10.179207361595939 1.9113066767888316 12.088987934734178 0 0 0
71 1 1 -10.101656341187777 1.4239230107462109 12.904436990209046 0 0 0
72 1 1 -10.024105320779613 0.6152667154039788 13.403009949767998 0 0 0
73 1 1 -9.94655430037145 -0.33220913260127843 13.472216289410547 0 0 0
74 1 1 -9.869003279963287 -1.204730295063372 13.096441328754839 0 0 0
75 1 1 -9.791452259555124 -1.8054341847017923 12.360469293298824 0 0 0
76 1 1 -9.71390123914696 -1.99878698641687 11.430353873542256 0 0 0
77 1 1 -9.636350218738798 -1.7411634743216409 10.515952361067722 0 0 0
78 1 1 -9.558799198330634 -1.090689953332594 9.823576597127282 0 0 0
79 1 1 -9.48124817792247 -0.19412951162287848 9.509443863459996 0 0 0
80 1 1 -9.403697157514308 0.7462314011467489 9.644430358099552 0 0 0
81 1 1 -9.326146137106145 1.518223854032641 10.198079753192893 0 0 0
82 1 1 -9.248595116697981 1.947667049852418 11.045474903972092 0 0 0
83 1 1 -9.171044096289817 1.9376678675492431 11.99542227954258 0 0 0
84 1 1 -9.093493075881653 1.4904823726302712 12.833590003291281 0 0 0
85 1 1 -9.015942055473491 0.7070067923865934 13.370866482547385 0 0 0
86 1 1 -8.938391035065328 -0.2359871953893095 13.486028711678731 0 0 0
87 1 1 -8.860840014657164 -1.1257365722054995 13.153093212737566 0 0 0
88 1 1 -8.783288994249002 -1.761491634917823 12.447178557672487 0 0 0
89 1 1 -8.705737973840838 -1.9998101475018126 11.527556740532553 0 0 0
90 1 1 -8.628186953432674 -1.7869214955557047 10.60171743380996 0 0 0
91 1 1 -8.550635933024513 -1.1708586811748467 9.878553131084 0 0 0
92 1 1 -8.473084912616349 -0.29062087685391 9.521227778157208 0 0 0
93 1 1 -8.395533892208185 0.6551882628071901 9.610362907783692 0 0 0
94 1 1 -8.317982871800023 1.4531705506724177 10.125847406341485 0 0 0
95 1 1 -8.240431851391858 1.923281233042181 10.95137508384348 0 0 0
96 1 1 -8.162880830983696 1.9594515872068012 11.900686258053288 0 0 0
97 1 1 -8.085329810575532 1.5535206770078869 12.759592595289824 0 0 0
98 1 1 -8.007778790167368 0.7970766640590671 13.334303353214093 0 0 0
99 1 1 -7.930227769759204 -0.13920777121807965 13.495149417069431 0 0 0
100 1 1 -7.852676749351041 -1.0440834531141472 13.205839893698478 0 0 0
101 1 1 -7.775125728942879 -1.7133878059013348 12.531650244311805 0 0 0
102 1 1 -7.697574708534716 -1.996109034982033 11.624694508552288 0 0 0
103 1 2 -4.847574708534716 -1.996109034982033 11.624694508552288 0 0 0
104 1 1 -1.9975747085347155 -1.996109034982033 11.624694508552288 0 0 0
105 1 1 -1.9200236881265536 -1.7133878059013348 12.531650244311805 0 0 0
106 1 1 -1.8424726677183898 -1.0440834531141472 13.205839893698478 0 0 0
107 1 1 -1.764921647310226 -0.13920777121807965 13.495149417069431 0 0 0
108 1 1 -1.687370626902064 0.7970766640590671 13.334303353214093 0 0 0
109 1 1 -1.6098196064939003 1.5535206770078869 12.759592595289824 0 0 0
110 1 1 -1.5322685860857366 1.9594515872068012 11.900686258053288 0 0 0
111 1 1 -1.4547175656775746 1.923281233042181 10.951375083843477 0 0 0
112 1 1 -1.377166545269409 1.4531705506724177 10.125847406341485 0 0 0
113 1 1 -1.299615524861247 0.6551882628071901 9.610362907783692 0 0 0
114 1 1 -1.2220645044530833 -0.29062087685391 9.521227778157204 0 0 0
115 1 1 -1.1445134840449196 -1.1708586811748467 9.878553131083997 0 0 0
116 1 1 -1.0669624636367576 -1.7869214955557047 10.60171743380996 0 0 0
117 1 1 -0.9894114432285939 -1.9998101475018126 11.52755674053255 0 0 0
118 1 1 -0.9118604228204301 -1.761491634917823 12.447178557672487 0 0 0
119 1 1 -0.8343094024122681 -1.1257365722054995 13.153093212737566 0 0 0
120 1 1 -0.7567583820041044 -0.2359871953893095 13.486028711678731 0 0 0
121 1 1 -0.6792073615959406 0.7070067923865934 13.370866482547381 0 0 0
122 1 1 -0.6016563411877787 1.4904823726302712 12.833590003291278 0 0 0
123 1 1 -0.5241053207796149 1.9376678675492431 11.99542227954258 0 0 0
124 1 1 -0.44655430037145116 1.947667049852418 11.045474903972089 0 0 0
125 1 1 -0.3690032799632874 1.518223854032641 10.198079753192893 0 0 0
126 1 1 -0.29145225955512366 0.7462314011467489 9.644430358099548 0 0 0
127 1 1 -0.21390123914696169 -0.19412951162287848 9.509443863459996 0 0 0
128 1 1 -0.13635021873879793 -1.090689953332594 9.823576597127278 0 0 0
129 1 1 -0.058799198330634184 -1.7411634743216409 10.515952361067718 0 0 0
130 1 1 0.01875182207752779 -1.99878698641687 11.430353873542256 0 0 0
131 1 1 0.09630284248569154 -1.8054341847017923 12.36046929329882 0 0 0
132 1 1 0.1738538628938553 -1.204730295063372 13.096441328754839 0 0 0
133 1 1 0.25140488330201727 -0.33220913260127843 13.472216289410543 0 0 0
134 1 1 0.328955903710181 0.6152667154039788 13.403009949767995 0 0 0
135 1 1 0.40650692411834477 1.4239230107462109 12.904436990209046 0 0 0
136 1 1 0.4840579445265085 1.9113066767888316 12.088987934734174 0 0 0
137 1 1 0.5616089649346723 1.9674517738809723 11.140648476484909 0 0 0
138 1 1 0.6391599853428342 1.5796905644912174 10.27338770572873 0 0 0
139 1 1 0.716711005750998 0.8355116714881332 9.68288133386751 0 0 0
140 1 1 0.7942620261591617 -0.09717954239446254 9.502362361052434 0 0 0
141 1 1 0.8718130465673237 -1.007944622024306 9.772560380524897 0 0 0
142 1 1 0.9493640669754875 -1.6912921963099172 10.432511964141433 0 0 0
143 1 1 1.0269150873836512 -1.9930419688031025 11.333315535848556 0 0 0
144 1 1 1.1044661077918132 -1.8451116470850883 12.271727289779847 0 0 0
145 1 1 1.182017128199977 -1.2808780099935002 13.036018073954562 0 0 0
146 1 1 1.2595681486081407 -0.4276462718971295 13.453744780193276 0 0 0
147 1 1 1.3371191690163045 0.522073156296031 13.430657820400882 0 0 0
148 1 1 1.4146701894244682 1.3539998285999004 12.97196618988054 0 0 0
149 1 1 1.4922212098326302 1.8804302895759164 12.181162187768397 0 0 0
150 1 1 1.569772230240794 1.9825886664663668 11.236670967041011 0 0 0
151 1 1 1.6473232506489577 1.6374254754853426 10.351593359374995 0 0 0
152 1 1 1.7248742710571197 0.9228181615979386 9.725624999999997 0 0 0
153 1 1 1.8024252914652834 -4.898587196589417e-16 9.499999999999996 0 0 0
154 1 2 4.652425291465283 -4.898587196589418e-16 9.499999999999996 0 0 0
155 1 1 7.5024252914652845 0.0 9.5 0 0 0
156 1 1 7.728050291465285 0.9228181615979391 9.422448979591838 0 0 0
157 1 1 8.354018650840283 1.637425475485343 9.344897959183672 0 0 0
158 1 1 9.239096258506299 1.9825886664663668 9.26734693877551 0 0 0
159 1 1 10.183587479233685 1.8804302895759164 9.189795918367349 0 0 0
160 1 1 10.974391481345828 1.3539998285999 9.112244897959183 0 0 0
161 1 1 11.43308311186617 0.5220731562960306 9.034693877551021 0 0 0
162 1 1 11.456170071658564 -0.42764627189712995 8.957142857142856 0 0 0
163 1 1 11.03844336541985 -1.2808780099935007 8.879591836734694 0 0 0
164 1 1 10.274152581245135 -1.8451116470850883 8.802040816326532 0 0 0
165 1 1 9.335740827313844 -1.9930419688031025 8.724489795918366 0 0 0
166 1 1 8.434937255606718 -1.6912921963099168 8.646938775510204 0 0 0
167 1 1 7.774985671990185 -1.0079446220243056 8.569387755102042 0 0 0
168 1 1 7.504787652517718 -0.09717954239446204 8.491836734693877 0 0 0
169 1 1 7.685306625332798 0.8355116714881337 8.414285714285715 0 0 0
170 1 1 8.275812997194018 1.5796905644912178 8.336734693877553 0 0 0
171 1 1 9.143073767950193 1.9674517738809723 8.259183673469387 0 0 0
172 1 1 10.091413226199462 1.9113066767888316 8.181632653061225 0 0 0
173 1 1 10.90686228167433 1.4239230107462104 8.10408163265306 0 0 0
174 1 1 11.405435241233283 0.6152667154039784 8.026530612244898 0 0 0
175 1 1 11.474641580875831 -0.3322091326012789 7.948979591836736 0 0 0
176 1 1 11.098866620220123 -1.2047302950633725 7.87142857142857 0 0 0
177 1 1 10.362894584764105 -1.8054341847017923 7.793877551020408 0 0 0
178 1 1 9.43277916500754 -1.99878698641687 7.716326530612246 0 0 0
179 1 1 8.518377652533003 -1.7411634743216404 7.638775510204081 0 0 0
180 1 1 7.826001888592566 -1.0906899533325936 7.561224489795919 0 0 0
181 1 1 7.5118691549252805 -0.19412951162287798 7.483673469387757 0 0 0
182 1 1 7.646855649564836 0.7462314011467494 7.406122448979591 0 0 0
183 1 1 8.200505044658177 1.5182238540326414 7.328571428571429 0 0 0
184 1 1 9.047900195437377 1.947667049852418 7.251020408163264 0 0 0
185 1 1 9.997847571007865 1.9376678675492431 7.173469387755102 0 0 0
186 1 1 10.836015294756566 1.4904823726302707 7.09591836734694 0 0 0
187 1 1 11.373291774012669 0.7070067923865929 7.018367346938774 0 0 0
188 1 1 11.488454003144016 -0.23598719538931 6.940816326530612 0 0 0
189 1 1 11.15551850420285 -1.1257365722055 6.86326530612245 0 0 0
190 1 1 10.449603849137771 -1.7614916349178233 6.785714285714285 0 0 0
191 1 1 9.529982031997838 -1.9998101475018126 6.708163265306123 0 0 0
192 1 1 8.604142725275244 -1.7869214955557047 6.630612244897961 0 0 0
193 1 1 7.880978422549285 -1.1708586811748463 6.553061224489795 0 0 0
194 1 1 7.523653069622492 -0.2906208768539096 6.475510204081633 0 0 0
195 1 1 7.6127881992489765 0.6551882628071906 6.3979591836734695 0 0 0
196 1 1 8.12827269780677 1.4531705506724182 6.320408163265306 0 0 0
197 1 1 8.953800375308765 1.923281233042181 6.242857142857144 0 0 0
198 1 1 9.903111549518576 1.9594515872068012 6.16530612244898 0 0 0
199 1 1 10.762017886755109 1.5535206770078864 6.087755102040816 0 0 0
200 1 1 11.336728644679377 0.7970766640590666 6.0102040816326525 0 0 0
201 1 1 11.497574708534716 -0.13920777121808015 5.932653061224489 0 0 0
202 1 1 11.208265185163762 -1.0440834531141476 5.855102040816327 0 0 0
203 1 1 10.53407553577709 -1.7133878059013352 5.777551020408163 0 0 0
204 1 1 9.627119800017573 -1.996109034982033 5.699999999999999 0 0 0
205 1 2 9.627119800017573 -1.996109034982033 2.8500000000000014 0 0 0
206 1 1 9.627119800017573 -1.996109034982033 0.0 0 0 0
207 1 1 10.53407553577709 -1.7133878059013352 -0.07755102040816197 0 0 0
208 1 1 11.208265185163762 -1.0440834531141476 -0.15510204081632573 0 0 0
209 1 1 11.497574708534716 -0.13920777121808015 -0.23265306122448948 0 0 0
210 1 1 11.336728644679377 0.7970766640590666 -0.31020408163265145 0 0 0
211 1 1 10.762017886755109 1.5535206770078864 -0.3877551020408152 0 0 0
212 1 1 9.903111549518572 1.9594515872068012 -0.46530612244897895 0 0 0
213 1 1 8.953800375308765 1.923281233042181 -0.5428571428571409 0 0 0
214 1 1 8.12827269780677 1.4531705506724182 -0.6204081632653065 0 0 0
215 1 1 7.6127881992489765 0.6551882628071906 -0.6979591836734684 0 0 0
216 1 1 7.523653069622489 -0.2906208768539096 -0.7755102040816322 0 0 0
217 1 1 7.880978422549282 -1.1708586811748463 -0.8530612244897959 0 0 0
218 1 1 8.604142725275244 -1.7869214955557047 -0.9306122448979579 0 0 0
219 1 1 9.529982031997834 -1.9998101475018126 -1.0081632653061217 0 0 0
220 1 1 10.449603849137771 -1.7614916349178233 -1.0857142857142854 0 0 0
221 1 1 11.15551850420285 -1.1257365722055 -1.1632653061224474 0 0 0
222 1 1 11.488454003144016 -0.23598719538931 -1.2408163265306111 0 0 0
223 1 1 11.373291774012666 0.7070067923865929 -1.3183673469387749 0 0 0
224 1 1 10.836015294756566 1.4904823726302707 -1.3959183673469369 0 0 0
225 1 1 9.997847571007865 1.9376678675492431 -1.4734693877551006 0 0 0
226 1 1 9.047900195437377 1.947667049852418 -1.5510204081632644 0 0 0
227 1 1 8.200505044658177 1.5182238540326414 -1.6285714285714281 0 0 0
228 1 1 7.646855649564836 0.7462314011467494 -1.7061224489795919 0 0 0
229 1 1 7.5118691549252805 -0.19412951162287798 -1.7836734693877538 0 0 0
230 1 1 7.826001888592563 -1.0906899533325936 -1.8612244897959176 0 0 0
231 1 1 8.518377652533003 -1.7411634743216404 -1.9387755102040813 0 0 0
232 1 1 9.43277916500754 -1.99878698641687 -2.0163265306122433 0 0 0
233 1 1 10.362894584764105 -1.8054341847017923 -2.093877551020407 0 0 0
234 1 1 11.098866620220123 -1.2047302950633725 -2.171428571428571 0 0 0
235 1 1 11.474641580875831 -0.3322091326012789 -2.248979591836733 0 0 0
236 1 1 11.405435241233283 0.6152667154039784 -2.3265306122448965 0 0 0
237 1 1 10.90686228167433 1.4239230107462104 -2.4040816326530603 0 0 0
238 1 1 10.091413226199462 1.9113066767888316 -2.481632653061224 0 0 0
239 1 1 9.143073767950193 1.9674517738809723 -2.559183673469388 0 0 0
240 1 1 8.275812997194018 1.5796905644912178 -2.6367346938775498 0 0 0
241 1 1 7.685306625332798 0.8355116714881337 -2.7142857142857135 0 0 0
242 1 1 7.504787652517718 -0.09717954239446204 -2.7918367346938773 0 0 0
243 1 1 7.774985671990182 -1.0079446220243056 -2.8693877551020393 0 0 0
244 1 1 8.434937255606718 -1.6912921963099168 -2.946938775510203 0 0 0
245 1 1 9.33574082731384 -1.9930419688031025 -3.0244897959183668 0 0 0
246 1 1 10.274152581245135 -1.8451116470850883 -3.1020408163265287 0 0 0
247 1 1 11.038443365419846 -1.2808780099935007 -3.1795918367346925 0 0 0
248 1 1 11.456170071658564 -0.42764627189712995 -3.2571428571428562 0 0 0
249 1 1 11.43308311186617 0.5220731562960306 -3.33469387755102 0 0 0
250 1 1 10.974391481345824 1.3539998285999 -3.4122448979591837 0 0 0
251 1 1 10.183587479233685 1.8804302895759164 -3.4897959183673457 0 0 0
252 1 1 9.239096258506299 1.9825886664663668 -3.5673469387755095 0 0 0
253 1 1 8.354018650840283 1.637425475485343 -3.644897959183673 0 0 0
254 1 1 7.728050291465282 0.9228181615979391 -3.722448979591835 0 0 0
255 1 1 7.5024252914652845 1.9721522630525295e-31 -3.799999999999999 0 0 0
256 1 2 7.5024252914652845 1.9721522630525295e-31 -6.649999999999999 0 0 0
257 1 1 7.502425291465288 -4.898587196589413e-16 -9.5 0 0 0
258 1 1 7.4248742710571225 0.9228181615979386 -9.725625 0 0 0
259 1 1 7.3473232506489605 1.6374254754853426 -10.351593359374998 0 0 0
260 1 1 7.2697722302407985 1.9825886664663668 -11.236670967041015 0 0 0
261 1 1 7.192221209832633 1.8804302895759164 -12.1811621877684 0 0 0
262 1 1 7.114670189424471 1.3539998285999004 -12.971966189880543 0 0 0
263 1 1 7.0371191690163055 0.522073156296031 -13.430657820400885 0 0 0
264 1 1 6.9595681486081435 -0.4276462718971295 -13.45374478019328 0 0 0
265 1 1 6.882017128199982 -1.2808780099935002 -13.036018073954565 0 0 0
266 1 1 6.804466107791816 -1.8451116470850883 -12.27172728977985 0 0 0
267 1 1 6.726915087383654 -1.9930419688031025 -11.333315535848559 0 0 0
268 1 1 6.649364066975492 -1.6912921963099172 -10.432511964141433 0 0 0
269 1 1 6.571813046567327 -1.007944622024306 -9.7725603805249 0 0 0
270 1 1 6.494262026159165 -0.09717954239446254 -9.502362361052434 0 0 0
271 1 1 6.416711005751001 0.8355116714881332 -9.682881333867513 0 0 0
272 1 1 6.339159985342839 1.5796905644912174 -10.273387705728734 0 0 0
273 1 1 6.261608964934675 1.9674517738809723 -11.140648476484909 0 0 0
274 1 1 6.184057944526511 1.9113066767888316 -12.088987934734178 0 0 0
275 1 1 6.106506924118348 1.4239230107462109 -12.904436990209046 0 0 0
276 1 1 6.028955903710186 0.6152667154039788 -13.403009949767998 0 0 0
277 1 1 5.951404883302022 -0.33220913260127843 -13.472216289410547 0 0 0
278 1 1 5.873853862893858 -1.204730295063372 -13.096441328754839 0 0 0
279 1 1 5.796302842485694 -1.8054341847017923 -12.360469293298824 0 0 0
280 1 1 5.718751822077532 -1.99878698641687 -11.430353873542256 0 0 0
281 1 1 5.641200801669369 -1.7411634743216409 -10.515952361067722 0 0 0
282 1 1 5.563649781261205 -1.090689953332594 -9.823576597127282 0 0 0
283 1 1 5.486098760853043 -0.19412951162287848 -9.509443863459996 0 0 0
284 1 1 5.408547740444879 0.7462314011467489 -9.644430358099552 0 0 0
285 1 1 5.330996720036715 1.518223854032641 -10.198079753192893 0 0 0
286 1 1 5.253445699628552 1.947667049852418 -11.045474903972092 0 0 0
287 1 1 5.17589467922039 1.9376678675492431 -11.99542227954258 0 0 0
288 1 1 5.098343658812226 1.4904823726302712 -12.833590003291281 0 0 0
289 1 1 5.020792638404062 0.7070067923865934 -13.370866482547385 0 0 0
290 1 1 4.9432416179958985 -0.2359871953893095 -13.486028711678731 0 0 0
291 1 1 4.8656905975877365 -1.1257365722054995 -13.153093212737566 0 0 0
292 1 1 4.788139577179573 -1.761491634917823 -12.447178557672487 0 0 0
293 1 1 4.710588556771409 -1.9998101475018126 -11.527556740532553 0 0 0
294 1 1 4.633037536363245 -1.7869214955557047 -10.60171743380996 0 0 0
295 1 1 4.555486515955083 -1.1708586811748467 -9.878553131084 0 0 0
296 1 1 4.4779354955469195 -0.29062087685391 -9.521227778157208 0 0 0
297 1 1 4.4003844751387575 0.6551882628071901 -9.610362907783692 0 0 0
298 1 1 4.322833454730594 1.4531705506724177 -10.125847406341485 0 0 0
299 1 1 4.24528243432243 1.923281233042181 -10.95137508384348 0 0 0
300 1 1 4.167731413914266 1.9594515872068012 -11.900686258053288 0 0 0
301 1 1 4.0901803935061025 1.5535206770078869 -12.759592595289824 0 0 0
302 1 1 4.0126293730979405 0.7970766640590671 -13.334303353214093 0 0 0
303 1 1 3.935078352689777 -0.13920777121807965 -13.495149417069431 0 0 0
304 1 1 3.857527332281613 -1.0440834531141472 -13.205839893698478 0 0 0
305 1 1 3.7799763118734493 -1.7133878059013348 -12.531650244311805 0 0 0
306 1 1 3.7024252914652873 -1.996109034982033 -11.624694508552288 0 0 0
307 1 2 0.8524252914652877 -1.996109034982033 -11.624694508552288 0 0 0

Velocities

1 0.0 0.0 0.0
2 0.0 0.0 0.0
3 0.0 0.0 0.0
4 0.0 0.0 0.0
5 0.0 0.0 0.0
6 0.0 0.0 0.0
7 0.0 0.0 0.0
8 0.0 0.0 0.0
9 0.0 0.0 0.0
10 0.0 0.0 0.0
11 0.0 0.0 0.0
12 0.0 0.0 0.0
13 0.0 0.0 0.0
14 0.0 0.0 0.0
15 0.0 0.0 0.0
16 0.0 0.0 0.0
17 0.0 0.0 0.0
18 0.0 0.0 0.0
19 0.0 0.0 0.0
20 0.0 0.0 0.0
21 0.0 0.0 0.0
22 0.0 0.0 0.0
23 0.0 0.0 0.0
24 0.0 0.0 0.0
25 0.0 0.0 0.0
26 0.0 0.0 0.0
27 0.0 0.0 0.0
28 0.0 0.0 0.0
29 0.0 0.0 0.0
30 0.0 0.0 0.0
31 0.0 0.0 0.0
32 0.0 0.0 0.0
33 0.0 0.0 0.0
34 0.0 0.0 0.0
35 0.0 0.0 0.0
36 0.0 0.0 0.0
37 0.0 0.0 0.0
38 0.0 0.0 0.0
39 0.0 0.0 0.0
40 0.0 0.0 0.0
41 0.0 0.0 0.0
42 0.0 0.0 0.0
43 0.0 0.0 0.0
44 0.0 0.0 0.0
45 0.0 0.0 0.0
46 0.0 0.0 0.0
47 0.0 0.0 0.0
48 0.0 0.0 0.0
49 0.0 0.0 0.0
50 0.0 0.0 0.0
51 0.0 0.0 0.0
52 0.0 0.0 0.0
53 0.0 0.0 0.0
54 0.0 0.0 0.0
55 0.0 0.0 0.0
56 0.0 0.0 0.0
57 0.0 0.0 0.0
58 0.0 0.0 0.0
59 0.0 0.0 0.0
60 0.0 0.0 0.0
61 0.0 0.0 0.0
62 0.0 0.0 0.0
63 0.0 0.0 0.0
64 0.0 0.0 0.0
65 0.0 0.0 0.0
66 0.0 0.0 0.0
67 0.0 0.0 0.0
68 0.0 0.0 0.0
69 0.0 0.0 0.0
70 0.0 0.0 0.0
71 0.0 0.0 0.0
72 0.0 0.0 0.0
73 0.0 0.0 0.0
74 0.0 0.0 0.0
75 0.0 0.0 0.0
76 0.0 0.0 0.0
77 0.0 0.0 0.0
78 0.0 0.0 0.0
79 0.0 0.0 0.0
80 0.0 0.0 0.0
81 0.0 0.0 0.0
82 0.0 0.0 0.0
83 0.0 0.0 0.0
84 0.0 0.0 0.0
85 0.0 0.0 0.0
86 0.0 0.0 0.0
87 0.0 0.0 0.0
88 0.0 0.0 0.0
89 0.0 0.0 0.0
90 0.0 0.0 0.0
91 0.0 0.0 0.0
92 0.0 0.0 0.0
93 0.0 0.0 0.0
94 0.0 0.0 0.0
95 0.0 0.0 0.0
96 0.0 0.0 0.0
97 0.0 0.0 0.0
98 0.0 0.0 0.0
99 0.0 0.0 0.0
100 0.0 0.0 0.0
101 0.0 0.0 0.0
102 0.0 0.0 0.0
103 0.0 0.0 0.0
104 0.0 0.0 0.0
105 0.0 0.0 0.0
106 0.0 0.0 0.0
107 0.0 0.0 0.0
108 0.0 0.0 0.0
109 0.0 0.0 0.0
110 0.0 0.0 0.0
111 0.0 0.0 0.0
112 0.0 0.0 0.0
113 0.0 0.0 0.0
114 0.0 0.0 0.0
115 0.0 0.0 0.0
116 0.0 0.0 0.0
117 0.0 0.0 0.0
118 0.0 0.0 0.0
119 0.0 0.0 0.0
120 0.0 0.0 0.0
121 0.0 0.0 0.0
122 0.0 0.0 0.0
123 0.0 0.0 0.0
124 0.0 0.0 0.0
125 0.0 0.0 0.0
126 0.0 0.0 0.0
127 0.0 0.0 0.0
128 0.0 0.0 0.0
129 0.0 0.0 0.0
130 0.0 0.0 0.0
131 0.0 0.0 0.0
132 0.0 0.0 0.0
133 0.0 0.0 0.0
134 0.0 0.0 0.0
135 0.0 0.0 0.0
136 0.0 0.0 0.0
137 0.0 0.0 0.0
138 0.0 0.0 0.0
139 0.0 0.0 0.0
140 0.0 0.0 0.0
141 0.0 0.0 0.0
142 0.0 0.0 0.0
143 0.0 0.0 0.0
144 0.0 0.0 0.0
145 0.0 0.0 0.0
146 0.0 0.0 0.0
147 0.0 0.0 0.0
148 0.0 0.0 0.0
149 0.0 0.0 0.0
150 0.0 0.0 0.0
151 0.0 0.0 0.0
152 0.0 0.0 0.0
153 0.0 0.0 0.0
154 0.0 0.0 0.0
155 0.0 0.0 0.0
156 0.0 0.0 0.0
157 0.0 0.0 0.0
158 0.0 0.0 0.0
159 0.0 0.0 0.0
160 0.0 0.0 0.0
161 0.0 0.0 0.0
162 0.0 0.0 0.0
163 0.0 0.0 0.0
164 0.0 0.0 0.0
165 0.0 0.0 0.0
166 0.0 0.0 0.0
167 0.0 0.0 0.0
168 0.0 0.0 0.0
169 0.0 0.0 0.0
170 0.0 0.0 0.0
171 0.0 0.0 0.0
172 0.0 0.0 0.0
173 0.0 0.0 0.0
174 0.0 0.0 0.0
175 0.0 0.0 0.0
176 0.0 0.0 0.0
177 0.0 0.0 0.0
178 0.0 0.0 0.0
179 0.0 0.0 0.0
180 0.0 0.0 0.0
181 0.0 0.0 0.0
182 0.0 0.0 0.0
183 0.0 0.0 0.0
184 0.0 0.0 0.0
185 0.0 0.0 0.0
186 0.0 0.0 0.0
187 0.0 0.0 0.0
188 0.0 0.0 0.0
189 0.0 0.0 0.0
190 0.0 0.0 0.0
191 0.0 0.0 0.0
192 0.0 0.0 0.0
193 0.0 0.0 0.0
194 0.0 0.0 0.0
195 0.0 0.0 0.0
196 0.0 0.0 0.0
197 0.0 0.0 0.0
198 0.0 0.0 0.0
199 0.0 0.0 0.0
200 0.0 0.0 0.0
201 0.0 0.0 0.0
202 0.0 0.0 0.0
203 0.0 0.0 0.0
204 0.0 0.0 0.0
205 0.0 0.0 0.0
206 0.0 0.0 0.0
207 0.0 0.0 0.0
208 0.0 0.0 0.0
209 0.0 0.0 0.0
210 0.0 0.0 0.0
211 0.0 0.0 0.0
212 0.0 0.0 0.0
213 0.0 0.0 0.0
214 0.0 0.0 0.0
215 0.0 0.0 0.0
216 0.0 0.0 0.0
217 0.0 0.0 0.0
218 0.0 0.0 0.0
219 0.0 0.0 0.0
220 0.0 0.0 0.0
221 0.0 0.0 0.0
222 0.0 0.0 0.0
223 0.0 0.0 0.0
224 0.0 0.0 0.0
225 0.0 0.0 0.0
226 0.0 0.0 0.0
227 0.0 0.0 0.0
228 0.0 0.0 0.0
229 0.0 0.0 0.0
230 0.0 0.0 0.0
231 0.0 0.0 0.0
232 0.0 0.0 0.0
233 0.0 0.0 0.0
234 0.0 0.0 0.0
235 0.0 0.0 0.0
236 0.0 0.0 0.0
237 0.0 0.0 0.0
238 0.0 0.0 0.0
239 0.0 0.0 0.0
240 0.0 0.0 0.0
241 0.0 0.0 0.0
242 0.0 0.0 0.0
243 0.0 0.0 0.0
244 0.0 0.0 0.0
245 0.0 0.0 0.0
246 0.0 0.0 0.0
247 0.0 0.0 0.0
248 0.0 0.0 0.0
249 0.0 0.0 0.0
250 0.0 0.0 0.0
251 0.0 0.0 0.0
252 0.0 0.0 0.0
253 0.0 0.0 0.0
254 0.0 0.0 0.0
255 0.0 0.0 0.0
256 0.0 0.0 0.0
257 0.0 0.0 0.0
258 0.0 0.0 0.0
259 0.0 0.0 0.0
260 0.0 0.0 0.0
261 0.0 0.0 0.0
262 0.0 0.0 0.0
263 0.0 0.0 0.0
264 0.0 0.0 0.0
265 0.0 0.0 0.0
266 0.0 0.0 0.0
267 0.0 0.0 0.0
268 0.0 0.0 0.0
269 0.0 0.0 0.0
270 0.0 0.0 0.0
271 0.0 0.0 0.0
272 0.0 0.0 0.0
273 0.0 0.0 0.0
274 0.0 0.0 0.0
275 0.0 0.0 0.0
276 0.0 0.0 0.0
277 0.0 0.0 0.0
278 0.0 0.0 0.0
279 0.0 0.0 0.0
280 0.0 0.0 0.0
281 0.0 0.0 0.0
282 0.0 0.0 0.0
283 0.0 0.0 0.0
284 0.0 0.0 0.0
285 0.0 0.0 0.0
286 0.0 0.0 0.0
287 0.0 0.0 0.0
288 0.0 0.0 0.0
289 0.0 0.0 0.0
290 0.0 0.0 0.0
291 0.0 0.0 0.0
292 0.0 0.0 0.0
293 0.0 0.0 0.0
294 0.0 0.0 0.0
295 0.0 0.0 0.0
296 0.0 0.0 0.0
297 0.0 0.0 0.0
298 0.0 0.0 0.0
299 0.0 0.0 0.0
300 0.0 0.0 0.0
301 0.0 0.0 0.0
302 0.0 0.0 0.0
303 0.0 0.0 0.0
304 0.0 0.0 0.0
305 0.0 0.0 0.0
306 0.0 0.0 0.0
307 0.0 0.0 0.0

Bonds

1 2 1 2
2 1 2 3
3 1 3 4
4 1 4 5
5 1 5 6
6 1 6 7
7 1 7 8
8 1 8 9
9 1 9 10
10 1 10 11
11 1 11 12
12 1 12 13
13 1 13 14
14 1 14 15
15 1 15 16
16 1 16 17
17 1 17 18
18 1 18 19
19 1 19 20
20 1 20 21
21 1 21 22
22 1 22 23
23 1 23 24
24 1 24 25
25 1 25 26
26 1 26 27
27 1 27 28
28 1 28 29
29 1 29 30
30 1 30 31
31 1 31 32
32 1 32 33
33 1 33 34
34 1 34 35
35 1 35 36
36 1 36 37
37 1 37 38
38 1 38 39
39 1 39 40
40 1 40 41
41 1 41 42
42 1 42 43
43 1 43 44
44 1 44 45
45 1 45 46
46 1 46 47
47 1 47 48
48 1 48 49
49 1 49 50
50 1 50 51
51 2 51 52
52 2 52 53
53 1 53 54
54 1 54 55
55 1 55 56
56 1 56 57
57 1 57 58
58 1 58 59
59 1 59 60
60 1 60 61
61 1 61 62
62 1 62 63
63 1 63 64
64 1 64 65
65 1 65 66
66 1 66 67
67 1 67 68
68 1 68 69
69 1 69 70
70 1 70 71
71 1 71 72
72 1 72 73
73 1 73 74
74 1 74 75
75 1 75 76
76 1 76 77
77 1 77 78
78 1 78 79
79 1 79 80
80 1 80 81
81 1 81 82
82 1 82 83
83 1 83 84
84 1 84 85
85 1 85 86
86 1 86 87
87 1 87 88
88 1 88 89
89 1 89 90
90 1 90 91
91 1 91 92
92 1 92 93
93 1 93 94
94 1 94 95
95 1 95 96
96 1 96 97
97 1 97 98
98 1 98 99
99 1 99 100
100 1 100 101
101 1 101 102
102 2 102 103
103 2 103 104
104 1 104 105
105 1 105 106
106 1 106 107
107 1 107 108
108 1 108 109
109 1 109 110
110 1 110 111
111 1 111 112
112 1 112 113
113 1 113 114
114 1 114 115
115 1 115 116
116 1 116 117
117 1 117 118
118 1 118 119
119 1 119 120
120 1 120 121
121 1 121 122
122 1 122 123
123 1 123 124
124 1 124 125
125 1 125 126
126 1 126 127
127 1 127 128
128 1 128 129
129 1 129 130
130 1 130 131
131 1 131 132
132 1 132 133
133 1 133 134
134 1 134 135
135 1 135 136
136 1 136 137
137 1 137 138
138 1 138 139
139 1 139 140
140 1 140 141
141 1 141 142
142 1 142 143
143 1 143 144
144 1 144 145
145 1 145 146
146 1 146 147
147 1 147 148
148 1 148 149
149 1 149 150
150 1 150 151
151 1 151 152
152 1 152 153
153 2 153 154
154 2 154 155
155 1 155 156
156 1 156 157
157 1 157 158
158 1 158 159
159 1 159 160
160 1 160 161
161 1 161 162
162 1 162 163
163 1 163 164
164 1 164 165
165 1 165 166
166 1 166 167
167 1 167 168
168 1 168 169
169 1 169 170
170 1 170 171
171 1 171 172
172 1 172 173
173 1 173 174
174 1 174 175
175 1 175 176
176 1 176 177
177 1 177 178
178 1 178 179
179 1 179 180
180 1 180 181
181 1 181 182
182 1 182 183
183 1 183 184
184 1 184 185
185 1 185 186
186 1 186 187
187 1 187 188
188 1 188 189
189 1 189 190
190 1 190 191
191 1 191 192
192 1 192 193
193 1 193 194
194 1 194 195
195 1 195 196
196 1 196 197
197 1 197 198
198 1 198 199
199 1 199 200
200 1 200 201
201 1 201 202
202 1 202 203
203 1 203 204
204 2 204 205
205 2 205 206
206 1 206 207
207 1 207 208
208 1 208 209
209 1 209 210
210 1 210 211
211 1 211 212
212 1 212 213
213 1 213 214
214 1 214 215
215 1 215 216
216 1 216 217
217 1 217 218
218 1 218 219
219 1 219 220
220 1 220 221
221 1 221 222
222 1 222 223
223 1 223 224
224 1 224 225
225 1 225 226
226 1 226 227
227 1 227 228
228 1 228 229
229 1 229 230
230 1 230 231
231 1 231 232
232 1 232 233
233 1 233 234
234 1 234 235
235 1 235 236
236 1 236 237
237 1 237 238
238 1 238 239
239 1 239 240
240 1 240 241
241 1 241 242
242 1 242 243
243 1 243 244
244 1 244 245
245 1 245 246
246 1 246 247
247 1 247 248
248 1 248 249
249 1 249 250
250 1 250 251
251 1 251 252
252 1 252 253
253 1 253 254
254 1 254 255
255 2 255 256
256 2 256 257
257 1 257 258
258 1 258 259
259 1 259 260
260 1 260 261