LAMMPS data file via MDAnalysis

        2000  atoms
        1999  bonds
           0  angles
           0  dihedrals
           0  impropers

           1  atom types
           1  bond types
           0  angle types
           0  dihedral types
           0  improper types

-30.5 30.5 xlo xhi
-30.5 30.5 ylo yhi
-233.5 233.5 zlo zhi


Masses

1 1.000000

Atoms

1 0 1 -2.191058 24.925621 28.196106
2 0 1 -3.133449 25.038025 28.418213
3 0 1 -2.758578 24.193523 28.715698
4 0 1 -2.843389 23.289524 29.123505
5 0 1 -2.231368 23.753525 29.782898
6 0 1 -1.849418 23.239723 30.539307
7 0 1 -1.201198 22.666626 30.543213
8 0 1 -1.115107 21.921822 29.963501
9 0 1 -0.554328 21.981823 29.161987
10 0 1 -0.508700 21.041424 29.443695
11 0 1 -0.771438 20.570221 28.604095
12 0 1 -0.808589 19.918526 27.880798
13 0 1 -0.418899 19.142021 28.323486
14 0 1 -0.651309 18.205322 28.128784
15 0 1 -0.631038 17.376324 27.837402
16 0 1 -0.095111 16.619225 27.705414
17 0 1 -0.382499 15.669021 27.640106
18 0 1 -0.568480 15.563422 26.734589
19 0 1 -1.234149 15.219623 26.083710
20 0 1 -1.672999 15.967925 25.770691
21 0 1 -1.123340 16.653725 26.136597
22 0 1 -0.510718 16.885422 26.772491
23 0 1 -1.334498 17.146622 27.056793
24 0 1 -1.840690 17.370625 27.841095
25 0 1 -2.608668 16.912823 27.368500
26 0 1 -3.523002 16.977325 27.071899
27 0 1 -4.255618 17.556824 26.814209
28 0 1 -4.920253 16.869823 26.451202
29 0 1 -4.874707 16.436924 25.540314
30 0 1 -5.556539 15.821422 25.361389
31 0 1 -5.793630 15.911922 24.455811
32 0 1 -5.731568 16.350624 23.551514
33 0 1 -5.787129 17.278522 23.365112
34 0 1 -5.270268 17.895226 24.032715
35 0 1 -5.081904 18.715721 23.698303
36 0 1 -5.189187 18.841621 22.770813
37 0 1 -6.013770 19.269524 22.861908
38 0 1 -6.395280 18.405022 23.146088
39 0 1 -6.613929 18.208523 22.209503
40 0 1 -6.038579 17.474125 21.925003
41 0 1 -5.840739 16.540123 21.739197
42 0 1 -5.074344 16.880924 21.313004
43 0 1 -4.858274 16.855724 20.357605
44 0 1 -3.911563 16.964825 20.746704
45 0 1 -4.214492 17.694725 20.149292
46 0 1 -4.990438 18.211124 19.836594
47 0 1 -5.137126 17.456524 19.349396
48 0 1 -5.034919 16.554123 18.960800
49 0 1 -5.185338 17.076424 18.170502
50 0 1 -4.723178 16.623322 17.465103
51 0 1 -4.879397 15.864921 16.960602
52 0 1 -4.225421 15.289523 16.526093
53 0 1 -3.627517 15.196223 17.280701
54 0 1 -4.529599 15.195323 17.751404
55 0 1 -4.563760 14.382922 17.194595
56 0 1 -4.285060 13.421721 17.395096
57 0 1 -3.342677 13.372622 17.681107
58 0 1 -3.036759 13.480422 18.587906
59 0 1 -3.749179 13.325423 19.211792
60 0 1 -3.217439 12.503821 19.334702
61 0 1 -3.646167 11.599742 19.000305
62 0 1 -3.969415 12.232345 18.273102
63 0 1 -4.641669 12.491324 18.895798
64 0 1 -5.501309 12.720122 18.492706
65 0 1 -5.582358 12.657023 19.394501
66 0 1 -6.586259 12.579223 19.500092
67 0 1 -6.508460 11.569392 19.493805
68 0 1 -6.117518 10.815692 19.197296
69 0 1 -6.756989 10.466941 18.615799
70 0 1 -7.055419 10.278731 19.555801
71 0 1 -6.850329 9.519492 20.130997
72 0 1 -6.447089 8.868434 19.473602
73 0 1 -5.978240 8.123603 19.864899
74 0 1 -5.036710 8.377063 19.753693
75 0 1 -4.892619 7.647285 19.192307
76 0 1 -4.513400 7.522113 20.110596
77 0 1 -3.851640 8.253135 20.252304
78 0 1 -4.124768 9.175082 20.142395
79 0 1 -4.067361 9.820743 20.956207
80 0 1 -3.495400 10.319964 21.592697
81 0 1 -3.402638 9.364715 21.748901
82 0 1 -3.177100 8.396884 21.697098
83 0 1 -2.698211 7.582053 21.751099
84 0 1 -2.997649 6.669944 22.030899
85 0 1 -2.726130 6.299014 22.866791
86 0 1 -2.726558 5.846644 23.733795
87 0 1 -1.848719 6.140662 23.679901
88 0 1 -1.478827 5.264861 23.674896
89 0 1 -1.045157 4.370902 23.693695
90 0 1 -0.231238 4.405032 24.277496
91 0 1 0.343492 5.177222 24.253113
92 0 1 0.145940 5.989474 24.733002
93 0 1 0.183862 6.827224 25.226105
94 0 1 0.512250 6.970954 24.257812
95 0 1 0.940023 6.896014 23.398804
96 0 1 1.513909 7.746913 23.319092
97 0 1 1.889962 7.652972 22.432098
98 0 1 1.550031 8.444343 22.072800
99 0 1 1.859162 9.095572 21.387695
100 0 1 2.640752 9.695483 21.262604
101 0 1 3.677510 9.678454 21.242004
102 0 1 4.215123 9.240962 21.908707
103 0 1 3.322911 8.827312 21.864502
104 0 1 3.205380 8.076724 21.339096
105 0 1 2.746819 7.713504 20.553299
106 0 1 2.100392 7.881881 19.844406
107 0 1 1.211152 7.683963 19.916199
108 0 1 1.354062 6.712272 19.619003
109 0 1 1.665811 5.911944 19.130798
110 0 1 2.458840 5.335101 19.320496
111 0 1 2.534619 4.669124 18.627808
112 0 1 2.587659 3.715802 18.877594
113 0 1 3.295133 3.042077 18.780701
114 0 1 4.003041 2.533196 18.483398
115 0 1 4.603459 2.199677 19.261505
116 0 1 4.437230 1.481452 18.646301
117 0 1 4.811952 0.809123 19.189392
118 0 1 4.670781 1.294883 19.973297
119 0 1 5.493489 1.673110 20.496002
120 0 1 5.289083 1.046092 21.206100
121 0 1 4.914052 0.832402 22.023804
122 0 1 5.460160 1.443793 22.526703
123 0 1 5.896211 2.304809 22.587799
124 0 1 6.157510 1.941482 21.759094
125 0 1 6.849412 1.390523 22.130402
126 0 1 7.749909 0.986074 21.996002
127 0 1 8.538812 1.414742 21.565598
128 0 1 9.074311 2.214568 21.434692
129 0 1 9.066010 2.368941 20.458603
130 0 1 9.135610 1.744431 19.738708
131 0 1 8.280309 1.437722 19.270004
132 0 1 8.704312 1.733283 18.388794
133 0 1 7.979611 1.780766 17.829605
134 0 1 8.629910 1.547145 17.099304
135 0 1 8.337209 1.300763 16.181000
136 0 1 7.466413 1.728339 16.300293
137 0 1 7.191911 1.737901 15.352294
138 0 1 7.047212 0.775683 15.560195
139 0 1 6.402810 0.585073 14.919600
140 0 1 6.745610 -0.072537 14.300399
141 0 1 7.535211 -0.215747 13.809295
142 0 1 8.390309 -0.214677 13.316802
143 0 1 7.661710 -0.274728 12.675796
144 0 1 7.825910 -1.211377 12.448699
145 0 1 8.676610 -1.526227 12.060302
146 0 1 9.308011 -2.003148 11.521194
147 0 1 9.772210 -2.521047 12.195403
148 0 1 9.306409 -2.208117 13.021300
149 0 1 9.885510 -1.778707 13.711104
150 0 1 10.665612 -1.491647 13.183105
151 0 1 11.477612 -1.360417 12.502898
152 0 1 12.430509 -1.543797 12.701995
153 0 1 12.682912 -0.903398 12.067000
154 0 1 12.561212 -1.530967 11.367904
155 0 1 11.958810 -2.098657 10.866302
156 0 1 11.684609 -2.626838 11.701995
157 0 1 11.735112 -3.199607 10.952300
158 0 1 11.764913 -3.712148 10.145400
159 0 1 12.687512 -3.464486 10.418593
160 0 1 13.710111 -3.522147 10.430892
161 0 1 13.315312 -2.630288 10.119506
162 0 1 13.297311 -1.863418 10.682296
163 0 1 13.527612 -2.685037 11.133605
164 0 1 14.003911 -2.897817 11.999206
165 0 1 14.680112 -2.814967 11.338805
166 0 1 14.235311 -1.978017 11.572997
167 0 1 14.467912 -1.942407 12.545104
168 0 1 14.974011 -1.184207 12.731292
169 0 1 15.555810 -1.043458 13.546599
170 0 1 15.784711 -1.996087 13.783492
171 0 1 16.536711 -1.425517 14.012694
172 0 1 17.054510 -1.705018 14.726806
173 0 1 17.076311 -1.576217 15.673095
174 0 1 16.383711 -1.755036 16.270294
175 0 1 16.949812 -2.208247 16.883194
176 0 1 16.714212 -3.136586 17.155396
177 0 1 17.067812 -3.706397 18.003494
178 0 1 16.175314 -3.592618 18.550201
179 0 1 15.863408 -4.493428 18.381104
180 0 1 14.978711 -4.817508 18.167999
181 0 1 14.594811 -4.786937 17.259094
182 0 1 14.187612 -4.018558 16.833206
183 0 1 13.318311 -3.818597 17.194000
184 0 1 12.568410 -4.083987 17.680298
185 0 1 11.714009 -4.519748 17.853195
186 0 1 10.845811 -4.894237 18.191101
187 0 1 10.790212 -3.967727 18.535599
188 0 1 10.888711 -3.101148 18.204300
189 0 1 10.647912 -3.508367 17.392593
190 0 1 10.410710 -3.139197 16.500595
191 0 1 9.640210 -2.777938 16.919495
192 0 1 8.665811 -2.862887 17.015701
193 0 1 8.042310 -3.130927 16.297806
194 0 1 7.264913 -3.237237 15.683196
195 0 1 7.468709 -4.043607 15.298293
196 0 1 8.106412 -4.802617 15.126601
197 0 1 8.626912 -4.977326 15.869704
198 0 1 9.023011 -5.900447 15.898192
199 0 1 9.582311 -5.141957 15.584899
200 0 1 10.130311 -5.955728 15.524291
201 0 1 10.007413 -6.433097 14.682799
202 0 1 9.669011 -7.273606 15.017806
203 0 1 10.490613 -7.043878 15.578002
204 0 1 11.029111 -7.746877 15.189101
205 0 1 11.262410 -8.588878 14.701293
206 0 1 11.651509 -8.743878 15.476806
207 0 1 10.809510 -8.744077 15.976302
208 0 1 9.997811 -8.443776 16.367706
209 0 1 9.062409 -8.538178 16.375397
210 0 1 9.016309 -8.454177 17.303192
211 0 1 9.614911 -8.294976 18.098099
212 0 1 9.351811 -7.385007 18.360901
213 0 1 10.131513 -7.369126 17.805801
214 0 1 10.875512 -7.692079 18.386902
215 0 1 11.842412 -7.504077 18.483795
216 0 1 12.116612 -7.399947 19.416199
217 0 1 12.269010 -6.478658 19.581299
218 0 1 11.579412 -6.411637 20.222595
219 0 1 11.865312 -5.522946 20.070206
220 0 1 11.973512 -4.604808 20.036804
221 0 1 12.815610 -4.355517 20.352600
222 0 1 13.108609 -4.957028 19.584595
223 0 1 12.897313 -4.842477 18.680099
224 0 1 13.754712 -5.271256 18.427902
225 0 1 14.159513 -5.932258 18.997406
226 0 1 14.495412 -6.778487 19.196594
227 0 1 14.512811 -6.864636 20.180603
228 0 1 14.055612 -6.667016 21.017792
229 0 1 14.309308 -7.126067 21.880798
230 0 1 14.009110 -8.030976 21.644196
231 0 1 13.105412 -7.725078 22.022308
232 0 1 12.896211 -7.741277 21.126404
233 0 1 13.006009 -7.994176 20.209808
234 0 1 13.943311 -8.242578 20.005203
235 0 1 13.950212 -9.106177 20.446396
236 0 1 14.471810 -9.788577 20.118896
237 0 1 13.957608 -10.144578 20.819595
238 0 1 14.345609 -11.018678 20.785004
239 0 1 13.436910 -11.303079 20.638596
240 0 1 12.645211 -11.661878 20.931503
241 0 1 12.026711 -11.404977 21.626801
242 0 1 11.165311 -11.853177 21.668198
243 0 1 11.066010 -12.487877 20.961594
244 0 1 10.190911 -12.706877 20.617905
245 0 1 10.358911 -11.747077 20.540695
246 0 1 9.398709 -11.748477 20.473404
247 0 1 8.629510 -11.836778 20.998306
248 0 1 8.322209 -11.437177 20.203003
249 0 1 8.557511 -10.747678 20.781296
250 0 1 7.619412 -10.818776 20.847702
251 0 1 6.755109 -11.173078 20.908096
252 0 1 5.927411 -11.750878 20.929504
253 0 1 6.186612 -11.506978 20.094299
254 0 1 6.131310 -11.057677 19.277008
255 0 1 5.753510 -11.929479 18.947205
256 0 1 5.616818 -12.897178 19.130005
257 0 1 6.250512 -13.313478 19.785797
258 0 1 6.817910 -13.912477 19.221497
259 0 1 7.710412 -13.621278 19.440201
260 0 1 8.322713 -13.646377 20.229294
261 0 1 9.008210 -13.805177 20.928894
262 0 1 8.581910 -13.143477 21.630707
263 0 1 7.815011 -12.902277 22.132904
264 0 1 7.237309 -12.685078 22.838684
265 0 1 6.740209 -12.074078 22.212097
266 0 1 6.504209 -13.003377 22.094101
267 0 1 6.088910 -13.272078 22.894104
268 0 1 5.352231 -13.161777 23.524994
269 0 1 5.662030 -13.216777 24.388489
270 0 1 4.819882 -13.598777 24.505707
271 0 1 4.137952 -13.334977 25.144806
272 0 1 4.268910 -12.771478 25.935913
273 0 1 4.750569 -13.377977 26.433594
274 0 1 5.157773 -13.816176 27.235687
275 0 1 5.065732 -13.654477 28.123688
276 0 1 5.617372 -14.129977 28.866791
277 0 1 6.170712 -13.849378 29.673889
278 0 1 5.399972 -14.443677 29.810699
279 0 1 4.776330 -15.048676 29.486206
280 0 1 3.788041 -14.949576 29.571106
281 0 1 3.723771 -14.596778 30.478516
282 0 1 4.190511 -14.334977 31.268402
283 0 1 4.509191 -13.387278 31.167114
284 0 1 4.494840 -13.363378 30.178497
285 0 1 5.200719 -12.917277 29.617798
286 0 1 5.677892 -12.888977 30.403412
287 0 1 5.959210 -13.217278 31.368103
288 0 1 6.669110 -13.845878 31.252502
289 0 1 5.943112 -14.457377 31.441498
290 0 1 6.177411 -14.595977 32.365906
291 0 1 6.289311 -14.266276 33.338989
292 0 1 5.997609 -14.066577 34.279694
293 0 1 5.377412 -13.452377 34.735992
294 0 1 4.515569 -13.779178 35.003998
295 0 1 5.051419 -14.562377 34.981384
296 0 1 5.858811 -14.900777 35.323608
297 0 1 5.581113 -15.593377 35.934814
298 0 1 5.555379 -15.421178 36.872314
299 0 1 6.232812 -14.804177 37.073212
300 0 1 6.362309 -13.917577 37.525299
301 0 1 6.832112 -13.160077 37.121216
302 0 1 6.964211 -12.391177 37.669189
303 0 1 7.769711 -12.812878 37.352203
304 0 1 8.291612 -12.532077 38.129395
305 0 1 8.380509 -11.731677 38.682007
306 0 1 9.251611 -11.614678 39.049805
307 0 1 9.706311 -11.117578 39.716492
308 0 1 10.369710 -10.461877 39.882294
309 0 1 11.096013 -10.827977 40.389893
310 0 1 11.226510 -11.331376 41.241913
311 0 1 11.151410 -10.570477 41.829803
312 0 1 12.028508 -10.189977 41.940186
313 0 1 12.056813 -9.982976 42.872894
314 0 1 12.082112 -9.420577 43.683594
315 0 1 12.659108 -8.779178 43.992798
316 0 1 13.129910 -7.999677 44.331604
317 0 1 12.698712 -7.142417 44.316284
318 0 1 11.965611 -6.591878 44.619904
319 0 1 11.430509 -7.326047 44.322693
320 0 1 11.258412 -7.983777 44.999390
321 0 1 11.103909 -8.458077 45.836609
322 0 1 10.505109 -9.143178 45.587189
323 0 1 10.951512 -9.969977 45.999512
324 0 1 11.112912 -10.163377 46.922607
325 0 1 10.512410 -10.115376 47.648010
326 0 1 11.006112 -10.652877 48.306396
327 0 1 11.604413 -11.250878 48.841614
328 0 1 12.183610 -11.670577 49.574005
329 0 1 12.304811 -10.708777 49.788086
330 0 1 11.433610 -11.195777 50.097809
331 0 1 12.046109 -11.145877 50.882385
332 0 1 11.866910 -10.505477 51.666199
333 0 1 12.484811 -9.830876 51.901703
334 0 1 12.613408 -10.751878 52.332001
335 0 1 12.348813 -11.624177 52.545990
336 0 1 12.478810 -12.677777 52.631012
337 0 1 12.317609 -13.029078 53.509796
338 0 1 12.254910 -13.217978 54.411713
339 0 1 11.617211 -13.860177 54.726807
340 0 1 11.246011 -12.908577 55.040802
341 0 1 10.469510 -13.101977 55.496490
342 0 1 11.111913 -13.451577 56.049713
343 0 1 11.566213 -14.261878 56.150787
344 0 1 11.223710 -14.809478 55.473297
345 0 1 11.027509 -15.184278 54.637207
346 0 1 10.687211 -15.185878 53.733398
347 0 1 10.484010 -16.045876 54.131714
348 0 1 9.626912 -15.657077 54.383301
349 0 1 9.125913 -15.624578 53.540283
350 0 1 9.722611 -16.090977 52.927185
351 0 1 10.447011 -16.347576 52.359100
352 0 1 10.764913 -17.025476 51.832092
353 0 1 10.418412 -16.724476 50.956299
354 0 1 9.938012 -16.076077 50.460907
355 0 1 9.115109 -16.180576 50.013916
356 0 1 9.050111 -17.024376 49.456207
357 0 1 8.269910 -17.452375 49.178711
358 0 1 7.382710 -17.846975 49.320312
359 0 1 7.141912 -18.736576 49.536591
360 0 1 6.813210 -19.646677 49.477295
361 0 1 5.896008 -19.662977 49.464691
362 0 1 5.382680 -20.485876 49.556610
363 0 1 4.710122 -20.216877 48.899689
364 0 1 4.465112 -19.851376 48.028107
365 0 1 3.795491 -19.336176 47.569702
366 0 1 4.067201 -19.305277 46.648590
367 0 1 3.513089 -18.527876 46.866608
368 0 1 3.085469 -17.748377 47.406708
369 0 1 2.289243 -17.589176 46.834198
370 0 1 1.586511 -17.438677 47.531891
371 0 1 1.267491 -18.263176 47.896393
372 0 1 0.657991 -17.818275 47.295593
373 0 1 0.600331 -18.577375 46.752808
374 0 1 -0.364879 -18.833576 46.627594
375 0 1 -0.538928 -19.728577 46.665802
376 0 1 -0.172271 -19.536476 45.705597
377 0 1 0.511540 -20.233477 45.622498
378 0 1 1.027780 -20.681076 45.006500
379 0 1 0.715791 -20.103676 44.324799
380 0 1 0.432740 -20.134676 43.396606
381 0 1 -0.429431 -20.249277 43.083801
382 0 1 -1.150180 -20.636276 42.490295
383 0 1 -0.734618 -20.104376 41.776398
384 0 1 -1.230819 -19.274277 41.628906
385 0 1 -0.790099 -18.508377 41.880890
386 0 1 -0.950988 -18.522476 42.817902
387 0 1 -1.409350 -19.181877 43.440002
388 0 1 -1.600791 -18.407976 44.032715
389 0 1 -2.017669 -17.878277 44.690613
390 0 1 -2.518100 -18.721777 44.578491
391 0 1 -2.654387 -18.350977 43.722900
392 0 1 -3.192729 -17.549576 43.866913
393 0 1 -3.566211 -16.810776 43.377899
394 0 1 -3.887553 -15.911277 43.179108
395 0 1 -3.256200 -15.190177 43.455597
396 0 1 -2.781400 -14.340877 43.111084
397 0 1 -2.466258 -15.076877 42.580109
398 0 1 -2.212558 -14.347177 42.028809
399 0 1 -2.820109 -14.620677 41.393616
400 0 1 -3.676589 -14.620477 40.849915
401 0 1 -3.874736 -14.169078 40.084900
402 0 1 -4.793559 -14.507977 39.972687
403 0 1 -5.104962 -15.435777 39.676605
404 0 1 -5.643519 -14.864177 39.153290
405 0 1 -5.374049 -14.003577 38.872986
406 0 1 -5.468349 -14.225577 37.916290
407 0 1 -4.474299 -14.418578 37.947906
408 0 1 -4.748225 -15.322177 37.849304
409 0 1 -5.498519 -15.935777 38.055115
410 0 1 -5.456100 -16.445276 37.180695
411 0 1 -6.223880 -17.036177 37.439301
412 0 1 -7.002620 -17.200876 38.054596
413 0 1 -7.519330 -16.448776 37.672089
414 0 1 -7.774098 -15.676778 37.061096
415 0 1 -8.734960 -16.037977 36.865601
416 0 1 -8.236640 -16.834177 36.532104
417 0 1 -8.928870 -17.257477 36.033203
418 0 1 -9.596700 -17.689676 35.573303
419 0 1 -9.322639 -16.933077 35.054016
420 0 1 -9.782689 -16.147676 35.487213
421 0 1 -10.418960 -15.359076 35.599701
422 0 1 -10.574639 -15.711577 34.730896
423 0 1 -10.688289 -14.759276 34.618988
424 0 1 -9.790179 -14.957877 34.595490
425 0 1 -9.488519 -14.917577 33.640808
426 0 1 -9.557519 -15.875978 33.610291
427 0 1 -8.785708 -16.221577 34.033813
428 0 1 -8.381429 -16.860977 33.375793
429 0 1 -8.091729 -16.972376 32.468689
430 0 1 -7.388490 -16.466576 32.093903
431 0 1 -6.727349 -17.128777 32.013489
432 0 1 -6.127608 -16.358477 31.834412
433 0 1 -5.269519 -16.724777 32.140198
434 0 1 -4.432984 -16.451077 32.664703
435 0 1 -4.312936 -16.350876 31.730103
436 0 1 -3.676906 -15.713077 31.358002
437 0 1 -3.185630 -15.478778 32.122894
438 0 1 -3.338517 -14.585378 32.058716
439 0 1 -2.920640 -14.516578 32.933716
440 0 1 -3.300845 -14.243176 33.782410
441 0 1 -2.891149 -13.396977 33.850494
442 0 1 -3.457322 -12.643277 33.886688
443 0 1 -3.629291 -13.005577 34.767303
444 0 1 -3.716088 -13.234577 35.727783
445 0 1 -4.658214 -13.066378 35.710205
446 0 1 -5.314319 -12.353377 35.714905
447 0 1 -5.913369 -13.059477 35.455597
448 0 1 -5.538789 -12.865977 34.537415
449 0 1 -4.746608 -12.185778 34.525604
450 0 1 -5.058200 -11.335576 34.290283
451 0 1 -5.847999 -11.677978 34.694092
452 0 1 -6.768439 -12.003179 34.762299
453 0 1 -7.316989 -12.563777 35.280396
454 0 1 -7.849740 -13.378778 35.156708
455 0 1 -7.067479 -13.708676 34.668091
456 0 1 -7.077849 -13.489877 33.701294
457 0 1 -7.459460 -13.775277 32.858215
458 0 1 -6.494460 -13.844478 32.934692
459 0 1 -6.392200 -13.331778 32.075104
460 0 1 -6.341069 -12.354278 32.160706
461 0 1 -6.694810 -11.711377 32.832886
462 0 1 -7.011189 -10.882277 32.623993
463 0 1 -7.195849 -11.404277 31.777588
464 0 1 -7.808318 -12.015477 31.475098
465 0 1 -7.728499 -12.164277 30.457092
466 0 1 -7.221799 -12.843877 30.983490
467 0 1 -7.018209 -13.568877 30.326508
468 0 1 -6.235570 -13.438377 29.740387
469 0 1 -5.726989 -12.696477 29.933197
470 0 1 -4.801351 -12.542777 30.239014
471 0 1 -5.281280 -11.757478 30.464203
472 0 1 -5.043603 -11.096177 31.094788
473 0 1 -4.667785 -10.505877 30.465393
474 0 1 -4.860175 -9.519376 30.745087
475 0 1 -5.442079 -9.034577 30.150604
476 0 1 -4.735120 -8.304978 29.936707
477 0 1 -3.929061 -8.370677 30.480591
478 0 1 -4.567763 -7.882676 30.903198
479 0 1 -5.031171 -7.625379 31.710602
480 0 1 -5.367419 -6.669156 31.905792
481 0 1 -6.270160 -6.341958 32.216309
482 0 1 -7.072200 -6.105168 31.727386
483 0 1 -8.122739 -5.966517 31.672699
484 0 1 -8.845609 -5.464187 32.110687
485 0 1 -8.739739 -5.463197 33.051697
486 0 1 -7.987128 -4.971196 33.392792
487 0 1 -7.316949 -5.552098 33.705688
488 0 1 -7.505599 -5.425387 34.653107
489 0 1 -7.724700 -6.372506 35.000000
490 0 1 -8.375190 -6.830426 34.450989
491 0 1 -8.930089 -6.494718 35.220215
492 0 1 -9.190230 -6.852818 36.122711
493 0 1 -9.282269 -6.079587 36.687195
494 0 1 -10.134009 -5.805997 36.933990
495 0 1 -11.003079 -6.240888 36.767700
496 0 1 -11.150929 -5.851018 37.564392
497 0 1 -11.990920 -6.037778 37.006805
498 0 1 -12.004449 -6.819718 36.454407
499 0 1 -12.030330 -7.822377 36.340302
500 0 1 -12.907760 -8.285676 36.163788
501 0 1 -13.414319 -8.135476 36.983795
502 0 1 -13.579520 -7.183627 36.941711
503 0 1 -14.366590 -7.227498 36.432007
504 0 1 -13.962970 -7.792878 35.714600
505 0 1 -14.521789 -7.386308 35.068909
506 0 1 -15.411490 -7.083978 35.054810
507 0 1 -15.266789 -6.651378 34.211395
508 0 1 -14.393189 -6.652028 33.896088
509 0 1 -15.095689 -6.609927 33.189789
510 0 1 -14.871589 -7.547978 33.418488
511 0 1 -14.128530 -7.362767 32.874908
512 0 1 -14.492589 -7.655477 32.039185
513 0 1 -14.758689 -7.622977 31.108704
514 0 1 -15.355289 -7.406047 30.394501
515 0 1 -15.661490 -8.299378 30.528412
516 0 1 -16.570589 -8.088178 30.295715
517 0 1 -16.575689 -8.057576 29.386597
518 0 1 -17.346689 -8.250878 28.907288
519 0 1 -17.613688 -7.841777 29.772186
520 0 1 -18.499487 -7.659577 29.698212
521 0 1 -19.250389 -7.476628 30.221893
522 0 1 -19.219488 -8.051677 31.009003
523 0 1 -20.125090 -7.965377 31.316711
524 0 1 -19.557589 -8.714978 31.655090
525 0 1 -19.007889 -9.512177 31.439789
526 0 1 -19.780289 -9.522779 30.860809
527 0 1 -19.954288 -10.454476 30.677399
528 0 1 -19.287588 -10.822476 29.982605
529 0 1 -18.380789 -11.132977 30.026093
530 0 1 -17.415388 -11.000676 30.058716
531 0 1 -16.959589 -11.502177 29.422699
532 0 1 -16.268587 -10.790277 29.547607
533 0 1 -15.534190 -11.369277 29.499908
534 0 1 -14.883090 -11.091378 28.779510
535 0 1 -15.285289 -11.238477 27.891602
536 0 1 -15.093688 -11.306077 26.911194
537 0 1 -15.538890 -12.138877 26.753784
538 0 1 -16.433989 -12.555778 26.847198
539 0 1 -17.348389 -12.797977 26.481689
540 0 1 -17.906889 -12.020377 26.123688
541 0 1 -17.246788 -11.374078 26.393402
542 0 1 -17.765490 -10.928876 26.976593
543 0 1 -17.865789 -10.315578 27.661102
544 0 1 -17.086288 -9.798177 27.854614
545 0 1 -16.632387 -9.014077 27.473297
546 0 1 -15.795188 -9.164977 27.109711
547 0 1 -15.095988 -8.727376 26.471985
548 0 1 -14.991488 -9.044877 25.558105
549 0 1 -15.261489 -8.921477 24.634613
550 0 1 -15.863889 -9.353776 23.981903
551 0 1 -15.007091 -9.175977 23.617310
552 0 1 -14.494491 -8.354177 23.703094
553 0 1 -13.534289 -8.492177 23.840607
554 0 1 -12.933238 -8.168178 23.126007
555 0 1 -12.749110 -9.108678 23.337799
556 0 1 -13.273398 -9.731977 22.912689
557 0 1 -13.248149 -9.977878 22.036804
558 0 1 -12.398639 -9.551476 21.880295
559 0 1 -11.604110 -9.958177 21.718002
560 0 1 -11.381999 -9.532777 22.507507
561 0 1 -11.438750 -8.480277 22.532898
562 0 1 -11.347539 -7.802077 21.843094
563 0 1 -10.752599 -7.342248 22.464905
564 0 1 -10.892549 -6.819768 23.276489
565 0 1 -11.126349 -5.841329 23.330200
566 0 1 -11.960860 -5.392447 23.099487
567 0 1 -11.703149 -5.815518 22.240601
568 0 1 -10.893790 -6.003427 21.780197
569 0 1 -11.374049 -5.677846 20.936707
570 0 1 -12.193719 -6.287927 21.000092
571 0 1 -12.725539 -6.284247 20.202393
572 0 1 -12.752448 -5.470948 20.850204
573 0 1 -12.992740 -4.580157 20.588898
574 0 1 -13.270289 -4.489978 19.684998
575 0 1 -14.262691 -4.499066 19.779099
576 0 1 -15.187089 -4.613687 19.628601
577 0 1 -15.450889 -4.600327 20.548401
578 0 1 -14.964690 -3.874667 20.948303
579 0 1 -14.581790 -3.595288 21.804703
580 0 1 -15.222690 -2.980817 22.098495
581 0 1 -15.625789 -2.757016 22.989105
582 0 1 -16.381689 -2.967828 22.306198
583 0 1 -16.005289 -2.400138 21.632706
584 0 1 -16.516890 -2.162347 20.776703
585 0 1 -16.821388 -1.240947 20.771805
586 0 1 -17.723787 -0.854016 20.767700
587 0 1 -17.189888 -0.473687 21.438400
588 0 1 -16.795689 0.252572 20.909393
589 0 1 -16.165188 -0.125848 20.335999
590 0 1 -15.469790 -0.126058 19.628403
591 0 1 -15.696189 -1.121787 19.670502
592 0 1 -15.135289 -0.969787 18.958694
593 0 1 -15.718688 -1.161227 18.152100
594 0 1 -15.247291 -0.754687 17.364899
595 0 1 -14.867789 -0.037127 17.861694
596 0 1 -15.653489 0.473182 18.018097
597 0 1 -16.183788 1.078582 17.440994
598 0 1 -15.813388 1.968322 17.583298
599 0 1 -15.417689 2.543580 18.366104
600 0 1 -14.724790 2.158973 17.808304
601 0 1 -14.478789 3.078427 17.613998
602 0 1 -14.050330 3.901853 17.356705
603 0 1 -14.071208 3.597432 16.442703
604 0 1 -14.124330 2.732556 16.667297
605 0 1 -14.003348 2.125035 15.882705
606 0 1 -14.805888 1.982081 15.445403
607 0 1 -15.747088 1.840428 15.768996
608 0 1 -15.164588 1.754264 16.533005
609 0 1 -15.313689 2.718669 16.492401
610 0 1 -15.352189 3.058473 15.598693
611 0 1 -15.951489 3.347693 14.840102
612 0 1 -16.212389 3.466056 13.988402
613 0 1 -16.249487 2.568736 13.506194
614 0 1 -16.178488 3.105933 12.751006
615 0 1 -16.099489 4.080943 12.934798
616 0 1 -16.358189 4.936824 12.617202
617 0 1 -16.971888 5.361323 11.974105
618 0 1 -17.037188 5.755534 11.011397
619 0 1 -16.600088 6.323821 10.395507
620 0 1 -16.865988 5.687503 9.691009
621 0 1 -16.882689 4.814414 10.047896
622 0 1 -16.537687 4.095431 9.570174
623 0 1 -16.112989 3.450643 9.040313
624 0 1 -16.581688 3.735744 8.251098
625 0 1 -17.466688 3.979432 8.354064
626 0 1 -17.523489 4.625014 7.660476
627 0 1 -17.112888 4.842681 6.877563
628 0 1 -17.123690 4.127883 6.224929
629 0 1 -17.348888 4.152133 5.310668
630 0 1 -18.167988 4.025023 5.731308
631 0 1 -18.521589 4.910682 5.632766
632 0 1 -19.218189 4.963222 6.299942
633 0 1 -18.752188 5.801353 6.553176
634 0 1 -19.183588 5.708804 7.389572
635 0 1 -19.665289 5.189513 7.981277
636 0 1 -18.798088 5.027564 8.317931
637 0 1 -18.173588 5.479423 8.825896
638 0 1 -18.882689 5.819251 9.388732
639 0 1 -18.844589 6.490993 8.752975
640 0 1 -19.594790 7.133044 9.033736
641 0 1 -20.335388 7.163215 8.441817
642 0 1 -20.861088 7.386512 7.600402
643 0 1 -20.488289 8.150062 7.978317
644 0 1 -21.274189 8.593581 8.177520
645 0 1 -21.060589 9.335891 7.566757
646 0 1 -20.220589 9.587222 7.140975
647 0 1 -19.296589 9.465674 6.858734
648 0 1 -19.350689 10.013171 7.682144
649 0 1 -19.376888 10.670321 6.949478
650 0 1 -19.759588 10.367621 6.119354
651 0 1 -19.713989 10.305743 5.179382
652 0 1 -18.927889 9.888743 5.515777
653 0 1 -18.255388 10.530044 5.404663
654 0 1 -17.619787 10.592742 4.632537
655 0 1 -17.350489 10.043212 3.899383
656 0 1 -17.152088 9.128211 4.222091
657 0 1 -16.403889 8.569152 3.995864
658 0 1 -15.675090 9.064612 4.345886
659 0 1 -15.382388 9.034293 5.262176
660 0 1 -15.705188 9.869361 4.968215
661 0 1 -14.890189 10.350642 5.051086
662 0 1 -15.031789 10.220954 4.108215
663 0 1 -14.219279 9.753043 3.693130
664 0 1 -14.702788 9.415462 2.946258
665 0 1 -15.224389 10.196822 2.770782
666 0 1 -16.034689 9.758071 2.590866
667 0 1 -15.695090 8.894694 2.571136
668 0 1 -16.568190 8.666774 2.815094
669 0 1 -17.325388 8.227851 2.369125
670 0 1 -18.285589 8.028361 2.235565
671 0 1 -19.123289 8.471034 2.404907
672 0 1 -19.295189 8.593474 1.451873
673 0 1 -20.112488 9.000392 1.716247
674 0 1 -19.990288 9.980952 1.940826
675 0 1 -19.766388 10.282924 0.990112
676 0 1 -20.048588 11.108233 0.528335
677 0 1 -20.626188 11.492064 -0.106614
678 0 1 -20.653488 11.359752 -1.035996
679 0 1 -20.224689 11.370982 -1.943818
680 0 1 -19.386189 11.777991 -2.227845
681 0 1 -19.728689 12.588820 -2.524674
682 0 1 -20.302788 13.349723 -2.548417
683 0 1 -20.959188 12.885524 -2.990036
684 0 1 -21.580688 13.141623 -3.739396
685 0 1 -22.338089 13.382621 -3.169404
686 0 1 -21.919888 14.198924 -2.901886
687 0 1 -21.965288 14.846122 -2.095475
688 0 1 -22.911888 14.687224 -2.332535
689 0 1 -23.566488 14.173022 -1.798493
690 0 1 -22.973288 13.458522 -1.611130
691 0 1 -22.896488 12.875022 -2.402924
692 0 1 -23.603989 12.142352 -2.562455
693 0 1 -24.015388 12.837821 -2.006791
694 0 1 -24.850288 13.301024 -1.958268
695 0 1 -24.905388 12.327891 -1.822587
696 0 1 -25.121988 11.530292 -1.447739
697 0 1 -25.878288 12.128154 -1.459214
698 0 1 -26.315489 12.212733 -2.269516
699 0 1 -26.718388 12.263091 -3.145585
700 0 1 -26.226488 12.440604 -3.904770
701 0 1 -25.564487 13.174724 -3.873642
702 0 1 -25.654888 13.932124 -4.477921
703 0 1 -24.772488 13.719623 -4.334687
704 0 1 -25.130188 13.078223 -4.890564
705 0 1 -25.193388 13.280021 -5.899415
706 0 1 -26.171188 13.310122 -5.873307
707 0 1 -26.976088 12.838820 -5.638505
708 0 1 -27.852589 12.841823 -5.287690
709 0 1 -27.743088 12.092792 -4.689164
710 0 1 -27.841188 11.584495 -5.441529
711 0 1 -27.943588 12.002704 -6.254334
712 0 1 -27.732288 12.416373 -7.101685
713 0 1 -28.377388 12.862823 -6.584443
714 0 1 -29.307688 12.899123 -6.285187
715 0 1 -29.289888 13.775622 -6.712250
716 0 1 -28.885788 14.627723 -6.929154
717 0 1 -29.810287 14.972625 -7.035843
718 0 1 -30.431988 15.127524 -6.288544
719 0 1 -30.051489 14.908225 -5.418946
720 0 1 -29.892788 15.752124 -5.064957
721 0 1 -29.375088 16.275322 -5.676499
722 0 1 -28.672289 16.778625 -5.129853
723 0 1 -29.169689 17.592422 -4.993302
724 0 1 -28.320288 18.102623 -4.845276
725 0 1 -27.404789 17.734322 -4.896286
726 0 1 -27.318489 18.446922 -4.210618
727 0 1 -26.432388 18.063725 -4.369843
728 0 1 -25.807289 18.695122 -4.196137
729 0 1 -25.289087 18.044724 -3.719452
730 0 1 -24.538088 17.473724 -3.815247
731 0 1 -23.673388 17.593422 -3.376587
732 0 1 -23.239788 18.132423 -4.074494
733 0 1 -22.676188 17.407024 -4.410874
734 0 1 -22.121088 17.809525 -5.038849
735 0 1 -21.873888 18.443024 -5.765366
736 0 1 -21.182289 17.864223 -5.858948
737 0 1 -20.786488 18.586525 -5.339097
738 0 1 -20.133188 18.091125 -5.848099
739 0 1 -19.848989 19.019821 -5.624299
740 0 1 -19.873589 19.394024 -4.744675
741 0 1 -19.748188 19.019226 -3.840607
742 0 1 -18.757090 18.962425 -3.915574
743 0 1 -18.557989 18.009724 -3.824738
744 0 1 -17.610989 17.788525 -3.860993
745 0 1 -16.667189 17.902924 -3.934235
746 0 1 -16.621489 17.079124 -4.397400
747 0 1 -16.019888 16.319725 -4.353196
748 0 1 -15.443988 16.079926 -3.509659
749 0 1 -15.014989 15.605723 -4.272141
750 0 1 -14.329890 15.233321 -3.709321
751 0 1 -14.082919 14.584723 -2.972565
752 0 1 -14.166228 14.517024 -2.014206
753 0 1 -15.030189 14.128524 -2.026154
754 0 1 -15.425288 14.585525 -1.192246
755 0 1 -16.018488 14.286922 -0.442399
756 0 1 -16.021090 15.253222 -0.268418
757 0 1 -15.700589 16.148422 0.055725
758 0 1 -15.111388 16.976822 0.206375
759 0 1 -14.918490 17.340725 -0.681901
760 0 1 -14.102599 17.822323 -1.147751
761 0 1 -14.071658 17.724525 -2.106492
762 0 1 -13.186389 17.707523 -2.447785
763 0 1 -12.872951 18.224224 -1.713746
764 0 1 -12.388040 18.174423 -0.840027
765 0 1 -13.100478 18.576225 -0.167145
766 0 1 -13.151980 19.633926 0.116088
767 0 1 -13.915660 19.248825 -0.479950
768 0 1 -14.621890 18.870823 -0.013413
769 0 1 -14.535789 18.569626 0.923172
770 0 1 -14.807389 18.262024 1.833084
771 0 1 -13.814689 18.005722 1.653442
772 0 1 -13.169681 17.351223 1.946136
773 0 1 -13.860778 16.879124 1.548629
774 0 1 -13.597178 16.139423 0.990371
775 0 1 -13.962729 15.455222 0.322402
776 0 1 -13.785129 14.591022 -0.175171
777 0 1 -14.345988 13.893023 -0.442719
778 0 1 -14.890788 13.115123 -0.217392