LAMMPS data file via MDAnalysis

        2000  atoms
        1999  bonds
           0  angles
           0  dihedrals
           0  impropers

           1  atom types
           1  bond types
           0  angle types
           0  dihedral types
           0  improper types

-30.5 30.5 xlo xhi
-30.5 30.5 ylo yhi
-233.5 233.5 zlo zhi


Masses

1 1.000000

Atoms

1 0 1 -10.386782 10.376524 12.653703
2 0 1 -10.891481 10.494463 13.470399
3 0 1 -11.215212 10.235003 14.344499
4 0 1 -11.307753 10.587976 15.223100
5 0 1 -10.539001 11.121504 15.550706
6 0 1 -10.117952 11.292505 14.661500
7 0 1 -9.327751 10.604975 14.617600
8 0 1 -9.314621 10.486765 13.664796
9 0 1 -8.730791 10.414114 12.915696
10 0 1 -8.102102 9.765776 13.170304
11 0 1 -7.795073 10.338865 12.449204
12 0 1 -8.256041 9.692003 11.880494
13 0 1 -8.908852 9.292696 12.552598
14 0 1 -9.813063 9.430193 12.908998
15 0 1 -10.688171 9.275515 12.466798
16 0 1 -10.369411 8.455935 12.876496
17 0 1 -10.741522 8.680826 13.787797
18 0 1 -10.255272 7.863153 13.929902
19 0 1 -9.937891 8.194353 14.862794
20 0 1 -9.498022 7.352015 15.041505
21 0 1 -9.103701 8.027884 15.695695
22 0 1 -8.454592 7.579115 16.386002
23 0 1 -8.147202 8.449244 16.068207
24 0 1 -8.892321 8.644114 16.624100
25 0 1 -9.405993 8.038164 17.272705
26 0 1 -9.744362 8.811907 17.789795
27 0 1 -9.868483 9.629313 18.382996
28 0 1 -9.694832 10.506174 18.781403
29 0 1 -9.664541 11.478907 18.802505
30 0 1 -10.077042 11.465204 19.601700
31 0 1 -9.220922 11.171804 19.964294
32 0 1 -8.437162 11.242605 20.591492
33 0 1 -8.682013 11.771605 21.287094
34 0 1 -7.785810 12.107306 21.227692
35 0 1 -7.060051 11.555506 21.425095
36 0 1 -6.464382 11.577505 20.650696
37 0 1 -6.471663 11.017794 19.913803
38 0 1 -6.477262 11.649607 19.206894
39 0 1 -6.472401 12.236204 18.420197
40 0 1 -6.020761 13.038206 18.931503
41 0 1 -5.463282 12.948706 19.730499
42 0 1 -4.764151 13.541304 19.433807
43 0 1 -4.741192 14.270403 18.874496
44 0 1 -5.127522 15.023706 18.347504
45 0 1 -4.974562 14.846804 17.419205
46 0 1 -5.623220 15.228403 16.841492
47 0 1 -5.626841 14.573503 16.097198
48 0 1 -6.132061 13.982004 16.727402
49 0 1 -6.827251 14.252703 16.129196
50 0 1 -7.211252 14.689104 15.360703
51 0 1 -6.910810 15.327604 15.998796
52 0 1 -7.550701 15.036905 16.676208
53 0 1 -8.413702 15.526304 16.698898
54 0 1 -8.632782 15.461206 15.777604
55 0 1 -9.625071 15.396807 15.806703
56 0 1 -10.328691 15.927504 16.244705
57 0 1 -10.378311 16.544703 17.087799
58 0 1 -9.924532 16.873903 17.839096
59 0 1 -10.517363 17.436907 18.376999
60 0 1 -10.295992 18.404505 18.304199
61 0 1 -11.185362 18.266405 18.120499
62 0 1 -11.077572 19.202707 17.734406
63 0 1 -10.745031 19.324503 16.898804
64 0 1 -10.226522 20.095903 16.587204
65 0 1 -10.012300 19.987005 17.522995
66 0 1 -9.818632 20.210207 18.473602
67 0 1 -10.576971 20.790205 18.296692
68 0 1 -9.866442 21.295004 18.674896
69 0 1 -10.593601 21.730204 19.143402
70 0 1 -10.790722 21.121004 19.896896
71 0 1 -10.600290 20.816202 20.788101
72 0 1 -9.735861 20.521303 20.523193
73 0 1 -9.607641 19.525507 20.547699
74 0 1 -9.904791 18.643602 20.476501
75 0 1 -10.722511 18.595003 20.902298
76 0 1 -10.734081 19.157804 21.698303
77 0 1 -10.611841 18.331003 22.072098
78 0 1 -10.131292 17.541105 21.856400
79 0 1 -9.313581 18.007204 21.770706
80 0 1 -8.720892 18.685503 21.971893
81 0 1 -8.068882 19.012903 22.618591
82 0 1 -8.800673 18.988604 23.230591
83 0 1 -8.573561 18.046305 22.992004
84 0 1 -8.446642 17.342203 23.644897
85 0 1 -8.189501 16.426405 23.825989
86 0 1 -7.937922 16.382807 24.763214
87 0 1 -8.441532 16.351603 25.609894
88 0 1 -8.909191 17.147303 25.767303
89 0 1 -8.986052 17.671602 26.538605
90 0 1 -8.965570 16.636305 26.688904
91 0 1 -8.866791 16.542204 27.580902
92 0 1 -9.411631 15.719606 27.832886
93 0 1 -9.252581 14.784006 28.100891
94 0 1 -8.826172 14.001604 27.731812
95 0 1 -9.201702 13.165705 27.471191
96 0 1 -9.294472 12.289705 27.089600
97 0 1 -10.141411 12.588305 26.819885
98 0 1 -10.774601 12.608805 27.511688
99 0 1 -10.376921 11.788805 27.424591
100 0 1 -11.088591 11.102606 27.322510
101 0 1 -11.265882 10.295095 27.717712
102 0 1 -11.042192 10.703665 28.588104
103 0 1 -11.939962 10.398375 28.915009
104 0 1 -12.058863 10.721613 29.807190
105 0 1 -12.550882 11.485903 29.423492
106 0 1 -13.176821 12.251905 29.226990
107 0 1 -13.580961 11.630503 28.611908
108 0 1 -12.787992 11.830103 28.044098
109 0 1 -13.166212 11.099005 27.540894
110 0 1 -13.850363 11.070204 26.909210
111 0 1 -13.527552 10.386095 26.226898
112 0 1 -13.037573 10.512224 25.436005
113 0 1 -12.997082 9.557135 25.341888
114 0 1 -12.384951 10.045504 24.795013
115 0 1 -12.909552 10.000753 24.024109
116 0 1 -12.266710 9.632124 23.344513
117 0 1 -12.567812 8.977137 22.695404
118 0 1 -11.740572 9.224344 22.378006
119 0 1 -11.074102 8.543196 22.262207
120 0 1 -10.635412 8.754904 21.397003
121 0 1 -10.155581 9.233503 20.661407
122 0 1 -9.187521 9.091345 20.819305
123 0 1 -9.067982 8.989405 19.911499
124 0 1 -8.544792 8.213316 20.158005
125 0 1 -8.346811 7.620234 20.924301
126 0 1 -8.080992 6.749784 21.131699
127 0 1 -7.193602 6.744234 21.460098
128 0 1 -6.427031 6.183046 21.466599
129 0 1 -6.155811 5.938494 22.330795
130 0 1 -5.181091 6.288874 22.389801
131 0 1 -5.713261 7.096773 22.217194
132 0 1 -5.092571 7.485903 22.808990
133 0 1 -4.992012 7.481554 23.763489
134 0 1 -4.733561 8.447996 24.075195
135 0 1 -4.150934 9.085485 24.426514
136 0 1 -3.262017 9.480734 24.100891
137 0 1 -3.377444 9.328764 25.050903
138 0 1 -3.453291 9.416464 25.999695
139 0 1 -4.097416 8.671354 26.070892
140 0 1 -4.781122 8.959234 25.286713
141 0 1 -5.812851 8.758726 25.461212
142 0 1 -5.216562 8.652613 26.221985
143 0 1 -5.581032 8.813593 27.049988
144 0 1 -5.573292 8.450483 27.883789
145 0 1 -4.814022 8.089926 27.427490
146 0 1 -4.702402 8.065454 28.458588
147 0 1 -4.364410 7.513464 29.120209
148 0 1 -3.939165 7.152723 29.953705
149 0 1 -3.316180 7.032343 30.725494
150 0 1 -2.897330 7.862585 31.042389
151 0 1 -2.218731 8.353094 31.475403
152 0 1 -1.260382 8.575274 31.664612
153 0 1 -0.969031 9.362406 32.074493
154 0 1 -0.068861 9.246115 31.759186
155 0 1 0.359327 8.945086 32.637787
156 0 1 0.955316 8.234205 32.807404
157 0 1 1.808408 8.012625 33.232391
158 0 1 1.837358 8.806704 33.823700
159 0 1 2.452497 8.870314 34.569885
160 0 1 2.083490 8.855555 35.438812
161 0 1 2.255728 8.192656 36.145386
162 0 1 2.100557 7.302595 36.368805
163 0 1 2.970270 7.121195 36.004913
164 0 1 3.757089 6.929434 36.479187
165 0 1 4.234758 6.192366 35.983307
166 0 1 3.895380 5.744875 35.219208
167 0 1 3.381517 5.217306 34.560608
168 0 1 2.951288 4.447985 34.184814
169 0 1 1.977949 4.276815 33.970703
170 0 1 2.184328 5.167246 33.590210
171 0 1 1.654238 5.481066 34.308411
172 0 1 1.530397 5.987104 35.163300
173 0 1 0.646330 5.541704 35.075287
174 0 1 0.034849 4.715616 35.283508
175 0 1 -0.829451 4.328363 35.240204
176 0 1 -0.859541 4.773844 36.051392
177 0 1 -1.632231 4.990805 35.618195
178 0 1 -2.062033 4.462496 36.310608
179 0 1 -2.481131 3.801363 36.964813
180 0 1 -2.213341 2.919134 37.081909
181 0 1 -2.066592 1.982588 37.346100
182 0 1 -2.762221 1.679474 36.664093
183 0 1 -2.483601 0.748592 36.960693
184 0 1 -1.965002 0.182039 36.397888
185 0 1 -2.168722 -0.613356 36.805115
186 0 1 -1.327193 -1.053255 36.678589
187 0 1 -0.753000 -0.879425 37.469788
188 0 1 -1.379343 -0.099245 37.440491
189 0 1 -0.860861 0.419704 38.064087
190 0 1 -0.648142 1.081989 38.683716
191 0 1 -1.494150 0.695665 39.075684
192 0 1 -1.812731 -0.015215 39.681610
193 0 1 -1.873511 -0.431145 38.758087
194 0 1 -0.948542 -0.221665 38.862213
195 0 1 -0.195852 -0.536745 38.370087
196 0 1 0.783857 -0.215496 38.289795
197 0 1 1.184469 -1.061695 38.389099
198 0 1 0.369917 -1.641165 38.138184
199 0 1 0.707868 -2.328486 37.537994
200 0 1 1.183290 -3.129086 37.215790
201 0 1 1.623358 -2.648636 38.029114
202 0 1 2.493860 -2.224396 37.905396
203 0 1 2.945608 -2.054316 37.069305
204 0 1 3.228597 -1.114645 37.226410
205 0 1 2.985460 -0.858786 36.367188
206 0 1 3.622549 -1.028685 35.648315
207 0 1 3.188780 -0.264645 35.242188
208 0 1 3.902838 0.038095 34.748901
209 0 1 4.533449 -0.265715 34.038605
210 0 1 5.123388 -1.074305 33.783997
211 0 1 5.330328 -1.957205 33.402893
212 0 1 5.919329 -1.922556 32.579102
213 0 1 5.168398 -2.301556 32.080109
214 0 1 4.671247 -2.557705 32.808716
215 0 1 5.056566 -3.358166 32.382996
216 0 1 5.186426 -3.198336 31.508301
217 0 1 5.672449 -3.370405 30.729889
218 0 1 6.035387 -3.802447 31.553589
219 0 1 6.646139 -3.187746 32.050995
220 0 1 6.139948 -3.047476 32.918091
221 0 1 5.997290 -3.336375 33.802185
222 0 1 6.377367 -4.223375 33.585999
223 0 1 6.828440 -4.019936 32.774200
224 0 1 7.257837 -4.294226 31.972107
225 0 1 7.960138 -4.218895 32.652802
226 0 1 8.803740 -4.327076 32.185913
227 0 1 9.402140 -3.671156 32.524414
228 0 1 9.427137 -3.024145 31.838501
229 0 1 10.123739 -2.852455 32.529388
230 0 1 10.721937 -2.943085 33.357910
231 0 1 9.863237 -2.818676 33.701904
232 0 1 10.259039 -2.006865 33.500793
233 0 1 9.833239 -1.736265 32.671295
234 0 1 9.889238 -0.768616 32.573608
235 0 1 9.826838 0.144460 32.806793
236 0 1 9.128038 0.648968 32.420502
237 0 1 8.540537 0.412647 33.111694
238 0 1 8.063238 1.092499 32.549988
239 0 1 7.805140 2.001985 32.925995
240 0 1 8.791040 2.106054 33.128693
241 0 1 9.463339 2.762205 33.238586
242 0 1 9.628538 3.179483 34.069000
243 0 1 9.965937 4.019255 34.479095
244 0 1 10.224039 4.544443 33.659485
245 0 1 9.999941 5.419466 33.346100
246 0 1 10.839838 5.886053 33.225098
247 0 1 11.581438 6.544024 33.138489
248 0 1 11.762739 7.229074 33.796204
249 0 1 11.360640 8.103167 33.538513
250 0 1 11.498438 8.325045 34.596405
251 0 1 12.420237 8.155924 34.293793
252 0 1 12.776140 8.977255 34.269714
253 0 1 13.450640 9.612017 34.380798
254 0 1 13.706938 9.454317 35.356293
255 0 1 13.661139 10.014906 36.141113
256 0 1 14.573938 9.741983 36.041687
257 0 1 14.402941 8.802633 36.139099
258 0 1 13.897039 8.087576 36.361206
259 0 1 13.248140 7.464643 36.119812
260 0 1 13.717836 6.692373 35.657104
261 0 1 13.871538 6.208525 36.468811
262 0 1 13.443941 5.727114 37.186005
263 0 1 12.587236 5.485773 37.596191
264 0 1 11.779737 5.150896 37.172211
265 0 1 11.601137 5.513094 38.029602
266 0 1 10.626337 5.407267 37.852997
267 0 1 10.246138 5.515196 38.690796
268 0 1 9.352938 5.970625 38.930908
269 0 1 9.125338 5.076513 39.181305
270 0 1 9.449038 4.723475 39.989990
271 0 1 9.901537 3.924864 40.117004
272 0 1 9.452539 3.075685 40.087311
273 0 1 9.243540 3.354025 41.036713
274 0 1 8.519640 3.875456 40.601807
275 0 1 8.845140 4.109133 41.541809
276 0 1 7.996138 4.194433 42.038513
277 0 1 8.008738 3.220625 42.121307
278 0 1 8.157938 2.503084 42.662292
279 0 1 8.281939 1.718338 43.182800
280 0 1 9.221537 1.661663 43.362396
281 0 1 9.491339 0.759455 43.618591
282 0 1 10.093538 0.267448 44.235596
283 0 1 10.698839 -0.302815 44.730804
284 0 1 10.851740 -1.146246 44.375183
285 0 1 10.637537 -1.894995 43.792786
286 0 1 11.518938 -1.782265 43.263916
287 0 1 12.452139 -1.919365 43.310608
288 0 1 12.677839 -1.096676 43.752594
289 0 1 12.587038 -0.547766 44.562103
290 0 1 13.508036 -0.447405 44.290283
291 0 1 14.184839 0.078087 43.828796
292 0 1 13.376940 -0.123415 43.296906
293 0 1 13.873140 -0.986155 43.519196
294 0 1 14.393541 -1.738106 43.412598
295 0 1 14.926241 -2.460495 43.145996
296 0 1 15.488039 -2.785815 43.879211
297 0 1 16.020540 -3.013796 43.120300
298 0 1 16.188639 -2.109015 43.325897
299 0 1 16.406839 -1.222885 43.120911
300 0 1 17.049738 -0.573256 42.985687
301 0 1 17.627741 -0.007395 43.543304
302 0 1 17.976339 0.712322 44.067108
303 0 1 17.066637 0.973358 44.264191
304 0 1 16.518438 1.724954 44.423004
305 0 1 16.132441 2.598276 44.493713
306 0 1 16.410639 2.938135 45.377411
307 0 1 16.718340 3.831655 45.407806
308 0 1 16.518038 4.677694 45.819611
309 0 1 16.659239 4.664614 46.726593
310 0 1 16.052141 3.973135 46.735413
311 0 1 16.314837 3.713526 47.610107
312 0 1 16.079340 2.833215 47.434906
313 0 1 15.447336 2.630083 48.168488
314 0 1 16.113638 2.405405 48.875092
315 0 1 16.783838 2.684904 49.515106
316 0 1 16.360338 2.810674 50.300598
317 0 1 15.745138 3.293783 50.839996
318 0 1 15.869539 3.869695 50.035095
319 0 1 15.141939 3.334203 49.638702
320 0 1 15.025637 2.364204 49.680115
321 0 1 15.277639 2.015238 50.545990
322 0 1 14.860338 2.435135 51.310699
323 0 1 14.678736 3.174135 50.672485
324 0 1 13.747736 3.262666 50.515808
325 0 1 12.941736 3.074186 50.124908
326 0 1 12.952936 2.386394 50.866699
327 0 1 12.853739 2.318195 51.821503
328 0 1 12.493338 1.392689 52.010895
329 0 1 12.013536 1.822946 52.771393
330 0 1 12.831240 1.535429 53.121399
331 0 1 13.094538 1.371565 54.073792
332 0 1 13.430941 0.531849 54.482391
333 0 1 13.108538 0.831392 55.374390
334 0 1 13.981039 1.178455 55.053192
335 0 1 14.621836 1.314638 55.787415
336 0 1 14.319338 2.155855 55.449310
337 0 1 13.462938 2.096895 54.870789
338 0 1 12.799036 2.235454 55.544617
339 0 1 13.349237 2.415945 56.345093
340 0 1 13.610338 3.230196 55.884705
341 0 1 13.728136 4.201536 55.836914
342 0 1 13.019938 4.728773 55.512787
343 0 1 12.945738 5.775595 55.214813
344 0 1 12.798136 6.765944 55.284607
345 0 1 12.356638 7.567724 55.246796
346 0 1 11.416239 7.404814 55.561096
347 0 1 11.043539 7.034494 56.316406
348 0 1 11.199739 6.065996 56.202301
349 0 1 11.311640 5.631556 57.027405
350 0 1 11.522638 5.001833 57.778809
351 0 1 11.019136 4.093725 57.784210
352 0 1 10.261141 3.488306 57.996399
353 0 1 10.236738 2.938196 58.789001
354 0 1 9.988237 2.278015 59.426697
355 0 1 9.944536 1.345219 59.284302
356 0 1 9.830240 0.644752 58.597595
357 0 1 10.752439 0.248331 58.476196
358 0 1 10.689939 -0.465605 57.896393
359 0 1 10.169741 -1.309086 57.714203
360 0 1 10.268339 -2.297507 57.618896
361 0 1 11.171938 -2.283566 57.226013
362 0 1 11.662439 -2.558476 56.483307
363 0 1 11.386240 -2.545985 55.510315
364 0 1 10.549337 -2.389315 54.932495
365 0 1 10.234938 -1.766535 55.487305
366 0 1 10.931139 -1.182955 55.747192
367 0 1 10.669039 -0.642525 55.025696
368 0 1 10.501139 -0.130005 55.833588
369 0 1 9.624041 0.181131 55.417511
370 0 1 9.833941 1.102262 55.246399
371 0 1 8.912737 1.181290 55.329193
372 0 1 8.276339 1.902216 55.557800
373 0 1 8.216139 2.357345 54.692017
374 0 1 8.435438 1.493530 54.421997
375 0 1 8.082739 0.703319 54.000183
376 0 1 8.397139 0.280746 53.219696
377 0 1 8.346937 0.211946 52.177704
378 0 1 7.902338 -0.622845 52.166809
379 0 1 7.727240 -1.552235 52.409790
380 0 1 7.242540 -1.573946 51.572388
381 0 1 6.586939 -2.023775 50.993286
382 0 1 6.841440 -1.610516 50.171295
383 0 1 5.988207 -1.230765 49.871887
384 0 1 5.568930 -1.743666 49.183502
385 0 1 4.672220 -1.430885 49.222595
386 0 1 4.109617 -1.127365 48.571198
387 0 1 4.970110 -1.239025 48.204102
388 0 1 5.664919 -1.706635 47.641998
389 0 1 4.773619 -1.854855 47.260406
390 0 1 3.921739 -2.087965 47.598389
391 0 1 4.143057 -2.720305 46.880188
392 0 1 3.825918 -2.720846 46.007507
393 0 1 3.245310 -3.458855 46.033905
394 0 1 2.823217 -2.953156 46.787415
395 0 1 3.103628 -3.230206 47.685913
396 0 1 3.779440 -3.809166 47.291016
397 0 1 4.541201 -4.380716 47.577911
398 0 1 4.900038 -3.855166 46.816406
399 0 1 5.639448 -4.141886 46.262299
400 0 1 5.860800 -3.267866 45.841400
401 0 1 6.368647 -4.127476 45.455811
402 0 1 5.707937 -4.825186 45.080902
403 0 1 6.019350 -5.457624 44.392395
404 0 1 5.238600 -5.780525 44.832489
405 0 1 5.405947 -6.636976 44.467712
406 0 1 4.518007 -6.937065 44.758392
407 0 1 3.992498 -6.140924 44.567108
408 0 1 3.164320 -6.040045 45.101410
409 0 1 3.099378 -5.106815 45.288086
410 0 1 2.580347 -5.605715 45.854492
411 0 1 1.643167 -6.006836 46.070404
412 0 1 2.158888 -6.768854 45.608002
413 0 1 1.587148 -7.538555 45.667999
414 0 1 0.641558 -7.638247 45.875702
415 0 1 0.166910 -6.779886 46.148987
416 0 1 -0.643320 -7.301424 45.937683
417 0 1 -1.106081 -6.862146 45.247711
418 0 1 -0.658472 -6.136585 44.729614
419 0 1 0.248419 -6.365505 44.561188
420 0 1 0.957208 -5.708075 44.878387
421 0 1 0.165468 -5.167215 44.750000
422 0 1 0.448580 -4.332615 44.389008
423 0 1 0.448889 -3.553095 43.819702
424 0 1 1.329839 -3.218725 43.601807
425 0 1 2.246767 -3.641026 43.426788
426 0 1 3.174459 -3.457445 43.443207
427 0 1 3.143930 -3.995476 42.674011
428 0 1 2.678030 -3.239216 42.279388
429 0 1 2.084757 -2.889015 41.641510
430 0 1 1.126047 -2.809225 41.506104
431 0 1 0.208200 -2.882206 41.244293
432 0 1 0.011099 -3.537707 40.568298
433 0 1 0.494940 -3.984915 39.884003
434 0 1 1.238577 -4.231236 39.367798
435 0 1 2.205839 -4.251125 39.506989
436 0 1 2.994749 -3.931286 39.082886
437 0 1 2.498628 -4.411215 38.432800
438 0 1 2.609747 -5.379774 38.238190
439 0 1 2.938028 -6.097305 37.658813
440 0 1 2.627287 -6.908855 37.118805
441 0 1 3.269628 -7.548414 36.810089
442 0 1 3.566149 -8.406775 36.997009
443 0 1 3.900926 -8.662516 36.180908
444 0 1 3.028188 -8.986197 35.969116
445 0 1 2.515199 -9.721695 35.558807
446 0 1 1.774420 -9.755196 34.954498
447 0 1 1.810827 -10.584696 34.465210
448 0 1 1.758478 -11.297895 33.787292
449 0 1 2.359167 -10.622795 33.468903
450 0 1 2.935640 -10.670694 32.675293
451 0 1 3.785837 -10.381495 32.505493
452 0 1 4.131678 -10.590696 31.619904
453 0 1 4.520468 -10.161097 30.910614
454 0 1 4.791651 -9.636396 30.154602
455 0 1 5.192739 -9.574995 29.250000
456 0 1 4.928450 -8.917906 28.640015
457 0 1 5.484690 -8.371614 28.041016
458 0 1 5.292479 -9.117994 27.504211
459 0 1 5.879889 -8.639936 26.947693
460 0 1 6.789038 -8.254456 26.795105
461 0 1 6.793840 -8.463255 25.883606
462 0 1 6.534140 -7.652485 25.408203
463 0 1 5.932299 -7.349886 24.700195
464 0 1 5.680429 -6.683266 25.387512
465 0 1 4.897249 -6.209505 25.136993
466 0 1 4.152258 -6.672855 25.600891
467 0 1 3.224108 -6.547615 25.893005
468 0 1 2.914148 -6.399445 25.023499
469 0 1 3.661947 -6.512436 24.432098
470 0 1 3.282690 -7.382826 24.376495
471 0 1 3.765207 -8.172075 24.670105
472 0 1 3.756540 -9.035095 25.064606
473 0 1 4.445959 -9.018694 24.295013
474 0 1 4.827879 -9.272795 23.532990
475 0 1 5.227549 -10.130196 23.717194
476 0 1 5.622889 -11.069395 23.885712
477 0 1 5.503008 -11.017897 24.890289
478 0 1 4.703459 -11.499195 25.072296
479 0 1 4.663630 -12.030195 25.839691
480 0 1 4.558001 -12.322294 26.776184
481 0 1 4.310469 -13.171495 26.370087
482 0 1 3.447656 -13.571196 26.307892
483 0 1 2.701486 -13.348894 25.815887
484 0 1 1.874628 -12.787096 26.084991
485 0 1 2.125780 -12.884497 26.995209
486 0 1 2.123506 -13.043596 27.939697
487 0 1 1.419519 -12.317295 28.002197
488 0 1 1.412180 -11.369894 28.236908
489 0 1 1.408869 -10.562796 28.689911
490 0 1 0.775228 -10.809795 29.523895
491 0 1 0.081957 -10.462896 28.892700
492 0 1 -0.553431 -9.828295 28.592804
493 0 1 0.251657 -9.443396 28.181305
494 0 1 0.174127 -8.902876 28.970490
495 0 1 -0.313753 -8.137846 28.737396
496 0 1 -0.454653 -7.274004 29.196594
497 0 1 -1.286192 -6.823305 28.986084
498 0 1 -0.622782 -6.168036 29.234802
499 0 1 -0.566401 -5.244146 28.893402
500 0 1 -0.468920 -4.885506 29.781616
501 0 1 -0.998930 -4.291525 30.400299
502 0 1 -1.808920 -4.771275 30.661194
503 0 1 -2.158451 -4.696026 29.769104
504 0 1 -2.266672 -3.915426 29.195801
505 0 1 -2.987143 -4.118746 28.629211
506 0 1 -3.826090 -4.309925 28.264008
507 0 1 -3.682923 -5.252865 28.363190
508 0 1 -3.093880 -5.387094 29.191284
509 0 1 -3.842489 -4.843126 29.471497
510 0 1 -4.428429 -5.436865 29.978699
511 0 1 -4.617891 -6.107435 29.342102
512 0 1 -5.610062 -6.435995 29.363190
513 0 1 -5.216482 -7.076975 29.966705
514 0 1 -5.099072 -7.885454 30.361298
515 0 1 -4.617081 -8.627686 29.963287
516 0 1 -4.623611 -8.669577 30.923706
517 0 1 -4.553089 -8.901724 31.871002
518 0 1 -4.020998 -9.103695 32.663086
519 0 1 -3.904715 -8.924105 33.615997
520 0 1 -4.786331 -8.717075 33.444611
521 0 1 -4.880022 -7.751936 33.342987
522 0 1 -4.222347 -7.061255 33.254303
523 0 1 -4.112486 -6.256815 32.771088
524 0 1 -5.040321 -6.069176 32.475311
525 0 1 -4.890131 -5.240425 31.849304
526 0 1 -5.588232 -4.567396 31.581116
527 0 1 -4.888062 -4.405516 30.946594
528 0 1 -4.940722 -4.195755 30.038696
529 0 1 -5.289541 -4.518496 29.163300
530 0 1 -5.606731 -4.577995 28.271393
531 0 1 -6.517862 -4.820265 28.215210
532 0 1 -6.902040 -4.931805 27.320007
533 0 1 -7.629511 -5.450865 27.113892
534 0 1 -8.617002 -5.592236 27.191101
535 0 1 -8.750542 -6.559715 27.076599
536 0 1 -9.585371 -6.812235 26.622009
537 0 1 -10.336451 -6.672125 25.954712
538 0 1 -10.452221 -6.603386 25.010315
539 0 1 -9.528193 -6.692455 24.589813
540 0 1 -9.037043 -6.579765 25.382385
541 0 1 -8.894361 -7.595385 25.239807
542 0 1 -8.104921 -8.128305 25.152100
543 0 1 -8.095942 -7.750574 26.087006
544 0 1 -7.820642 -6.864315 26.398712
545 0 1 -7.305601 -6.342396 25.782196
546 0 1 -7.697821 -5.624544 25.300507
547 0 1 -7.426912 -5.021595 24.520294
548 0 1 -7.083832 -4.717325 25.393890
549 0 1 -6.448181 -4.224955 24.883606
550 0 1 -6.292402 -3.904116 25.819489
551 0 1 -6.811781 -3.420866 26.517303
552 0 1 -7.422232 -3.239226 27.229309
553 0 1 -7.676941 -2.629336 26.535889
554 0 1 -8.199081 -3.227846 25.954498
555 0 1 -9.146862 -3.308396 26.032196
556 0 1 -9.432491 -2.431916 26.359314
557 0 1 -9.462011 -1.746695 27.000488
558 0 1 -8.699932 -1.563545 26.367615
559 0 1 -8.537882 -1.012835 25.646790
560 0 1 -9.056961 -1.735085 25.161896
561 0 1 -8.806501 -1.208475 24.364288
562 0 1 -7.974432 -0.721405 24.529694
563 0 1 -7.198872 -0.525986 25.065094
564 0 1 -7.572212 0.373997 25.485992
565 0 1 -8.155972 0.266407 26.254700
566 0 1 -8.963852 -0.103565 25.985107
567 0 1 -9.310411 0.746918 25.505707
568 0 1 -10.159212 0.765192 26.049011
569 0 1 -10.300571 1.771540 25.906311
570 0 1 -10.109602 2.156994 26.809387
571 0 1 -10.706781 1.394319 27.001495
572 0 1 -10.437372 1.221260 27.911499
573 0 1 -10.450071 1.422544 28.842407
574 0 1 -9.856232 2.215164 28.793488
575 0 1 -9.921051 2.338764 29.783386
576 0 1 -10.862301 2.358215 29.546204
577 0 1 -11.492582 1.738220 29.756897
578 0 1 -11.903671 2.562673 29.540497
579 0 1 -12.166132 3.449163 29.573792
580 0 1 -12.498241 4.402796 29.702606
581 0 1 -12.299122 5.277407 29.927490
582 0 1 -13.208071 5.059996 30.226990
583 0 1 -13.325342 5.678606 29.498810
584 0 1 -14.103962 5.141455 29.541901
585 0 1 -13.632860 4.551924 28.854309
586 0 1 -13.021582 5.058615 28.299896
587 0 1 -13.731962 5.750826 28.287811
588 0 1 -14.592361 5.509024 27.885895
589 0 1 -14.578562 6.272406 28.332886
590 0 1 -15.494461 6.058996 28.401794
591 0 1 -15.991861 6.753786 28.885010
592 0 1 -16.499662 5.992483 29.169708
593 0 1 -17.058361 5.178873 29.437500
594 0 1 -17.044962 4.522974 28.778503
595 0 1 -18.098263 4.575773 28.519409
596 0 1 -18.717062 3.765966 28.524200
597 0 1 -18.379763 3.057043 27.963196
598 0 1 -19.294361 2.825346 28.136292
599 0 1 -19.981262 2.876703 28.776093
600 0 1 -20.191162 2.022171 29.131195
601 0 1 -19.459661 1.607185 28.589203
602 0 1 -19.528662 0.774675 29.125610
603 0 1 -20.419561 0.519987 29.202606
604 0 1 -19.985161 0.140102 29.945312
605 0 1 -20.125961 -0.631975 30.532990
606 0 1 -19.614861 -0.900715 29.682007
607 0 1 -18.957062 -1.009295 30.382812
608 0 1 -18.909163 -1.745785 31.027496
609 0 1 -19.281061 -2.488905 30.559692
610 0 1 -20.086262 -2.725945 30.059113
611 0 1 -20.697262 -3.296145 30.565704
612 0 1 -21.473162 -3.248436 30.035400
613 0 1 -21.951462 -4.097685 29.853699
614 0 1 -21.689362 -3.693035 29.032288
615 0 1 -20.872461 -4.150875 29.036011
616 0 1 -20.981661 -4.371286 28.107605
617 0 1 -20.920561 -4.425335 27.187500
618 0 1 -19.998262 -4.485346 27.059387
619 0 1 -19.273863 -3.836306 26.986206
620 0 1 -19.478262 -2.783236 26.992096
621 0 1 -18.684162 -2.791195 26.537292
622 0 1 -18.214062 -2.954226 25.688690
623 0 1 -18.175362 -3.866915 25.321198
624 0 1 -17.406961 -3.663006 24.721893
625 0 1 -16.839361 -3.604826 23.890015
626 0 1 -16.011263 -3.323565 23.464691
627 0 1 -15.216562 -3.788765 23.420410
628 0 1 -14.823261 -4.519514 23.899811
629 0 1 -14.388361 -5.111645 23.213898
630 0 1 -15.279362 -4.799835 22.892303
631 0 1 -15.878561 -5.522446 23.012787
632 0 1 -16.546862 -5.882746 23.605103
633 0 1 -16.272463 -6.739185 23.879395
634 0 1 -16.211262 -7.237886 24.701416
635 0 1 -16.361061 -8.225985 25.023712
636 0 1 -16.643263 -8.545576 25.833588
637 0 1 -16.004560 -7.983835 26.188293
638 0 1 -15.147362 -8.280664 25.956787
639 0 1 -14.335562 -8.037186 25.629486
640 0 1 -13.992163 -8.444815 26.427490
641 0 1 -14.272562 -9.286995 26.038300
642 0 1 -13.354261 -9.460196 26.190186
643 0 1 -13.552450 -10.214796 26.739990
644 0 1 -12.770182 -10.044195 27.228912
645 0 1 -12.420862 -9.803095 28.205292
646 0 1 -11.605013 -9.377096 28.598206
647 0 1 -11.352732 -10.089895 29.171906
648 0 1 -12.166330 -10.419395 29.501312
649 0 1 -12.047102 -11.369495 29.239014
650 0 1 -12.427782 -11.631697 28.336487
651 0 1 -11.792042 -12.246096 28.083984
652 0 1 -12.040552 -12.411394 29.022888
653 0 1 -12.499712 -13.217695 29.183502
654 0 1 -12.988871 -13.326895 28.348511
655 0 1 -12.641592 -13.548195 27.442413
656 0 1 -13.510262 -13.968596 27.208984
657 0 1 -14.376261 -14.446595 27.033691
658 0 1 -14.083662 -13.943195 26.182098
659 0 1 -13.388401 -13.578795 25.528290
660 0 1 -13.017481 -12.928295 24.889008
661 0 1 -12.932812 -12.096094 24.511597
662 0 1 -13.553291 -11.359594 24.469391
663 0 1 -14.162361 -10.622095 24.283295
664 0 1 -14.386862 -9.985596 23.608307
665 0 1 -14.932962 -9.538996 24.194885
666 0 1 -14.275862 -8.912325 24.060608
667 0 1 -14.796961 -8.923086 23.233093
668 0 1 -15.739363 -9.063196 22.953186
669 0 1 -15.449862 -10.003195 22.621307
670 0 1 -15.658060 -10.875395 22.782593
671 0 1 -15.637960 -11.682896 23.348602
672 0 1 -15.633760 -12.603895 23.094910
673 0 1 -15.072863 -12.294096 22.341003
674 0 1 -15.437361 -13.048096 21.905502
675 0 1 -16.059261 -13.677795 21.360596
676 0 1 -15.659061 -13.382095 20.506699
677 0 1 -16.153063 -12.624395 20.227203
678 0 1 -16.083563 -11.766695 19.847305
679 0 1 -16.470661 -10.811094 19.985306
680 0 1 -16.916861 -10.640295 19.121201
681 0 1 -16.308561 -9.907194 18.837906
682 0 1 -16.877260 -9.197895 19.025299
683 0 1 -16.929762 -8.238016 18.752396
684 0 1 -16.274261 -7.625095 18.506302
685 0 1 -15.627562 -8.078985 17.893204
686 0 1 -15.570162 -8.504034 18.782501
687 0 1 -15.067661 -9.194895 19.284897
688 0 1 -14.381662 -8.499674 19.344604
689 0 1 -13.616262 -8.276056 18.804001
690 0 1 -12.811293 -8.726595 18.693298
691 0 1 -11.869551 -8.663305 18.335999
692 0 1 -11.870371 -7.738337 18.030304
693 0 1 -11.869440 -6.794365 18.221405
694 0 1 -10.984352 -6.750965 17.960495
695 0 1 -10.283590 -7.421736 18.114899
696 0 1 -10.076962 -6.897726 17.349899
697 0 1 -9.909441 -7.457537 16.606995
698 0 1 -9.333200 -8.058735 16.893295
699 0 1 -9.718241 -8.881435 16.503494
700 0 1 -10.507822 -9.365295 16.832504
701 0 1 -9.750711 -9.903494 16.931107
702 0 1 -10.409462 -10.574095 16.967896
703 0 1 -10.515852 -11.547594 17.182297
704 0 1 -9.573502 -11.800394 17.281403
705 0 1 -9.974661 -12.541697 17.690598
706 0 1 -10.081532 -12.737394 16.727402
707 0 1 -10.513321 -13.504195 16.343094
708 0 1 -10.740561 -13.654995 15.406404
709 0 1 -10.196432 -14.135295 14.740098
710 0 1 -10.075281 -15.107494 14.887406
711 0 1 -9.857561 -15.493895 14.048600
712 0 1 -9.231812 -16.158396 14.065598
713 0 1 -9.167971 -16.851496 14.735307
714 0 1 -8.710550 -16.854996 15.645295
715 0 1 -8.263582 -16.418095 16.401306
716 0 1 -7.856991 -15.602196 16.243896
717 0 1 -7.857653 -14.603795 16.225708
718 0 1 -8.120581 -14.401595 15.352098
719 0 1 -7.699411 -13.582295 15.665605
720 0 1 -7.367373 -12.966295 16.303299
721 0 1 -6.544001 -12.814196 15.817002
722 0 1 -6.245272 -13.407095 15.072999
723 0 1 -5.951822 -14.301395 15.020402
724 0 1 -5.135262 -14.768496 14.845094
725 0 1 -5.709991 -15.471294 15.083207
726 0 1 -4.899302 -15.825195 15.534501
727 0 1 -5.220371 -15.330296 16.294907
728 0 1 -5.044022 -15.239895 17.356506
729 0 1 -5.922592 -14.688295 17.287796
730 0 1 -5.732721 -15.038496 18.159302
731 0 1 -6.565451 -15.434996 17.844208
732 0 1 -7.299452 -14.913296 18.009201
733 0 1 -8.171162 -15.121496 18.322693
734 0 1 -8.839922 -15.745895 18.585205
735 0 1 -9.501310 -16.364796 18.791306
736 0 1 -10.148130 -16.610695 19.545700
737 0 1 -10.407362 -16.973896 18.708801
738 0 1 -10.808661 -16.114895 18.438202
739 0 1 -11.172882 -15.321495 17.886002
740 0 1 -11.825953 -16.062096 18.022598
741 0 1 -12.682991 -16.394596 17.763199
742 0 1 -13.581001 -16.452995 17.986801
743 0 1 -13.414452 -17.069195 17.274994
744 0 1 -12.496492 -17.314495 17.202194
745 0 1 -11.714903 -17.520596 16.628998
746 0 1 -11.733980 -18.070896 15.865907
747 0 1 -11.917440 -18.799795 16.543106
748 0 1 -11.889622 -19.675995 16.240402
749 0 1 -12.281603 -20.163496 17.010101
750 0 1 -12.644171 -20.904696 16.428802
751 0 1 -12.244261 -20.654295 15.631700
752 0 1 -13.012102 -20.245596 15.146806
753 0 1 -12.458620 -20.367495 14.363008
754 0 1 -11.624792 -20.517195 13.948503
755 0 1 -10.932371 -21.166096 14.023805
756 0 1 -10.984612 -21.251995 13.048005
757 0 1 -10.571491 -21.360195 12.191697
758 0 1 -9.884581 -21.878595 12.496003
759 0 1 -9.761892 -21.929396 13.436707
760 0 1 -9.794291 -21.794994 14.412599
761 0 1 -9.567842 -21.857395 15.417603
762 0 1 -8.691813 -21.402296 15.334306
763 0 1 -9.161921 -20.609594 14.947907
764 0 1 -8.544281 -20.067396 14.410600
765 0 1 -8.904303 -19.418295 15.016496
766 0 1 -9.192381 -18.672495 14.441804
767 0 1 -10.047441 -18.321995 14.582704
768 0 1 -10.689661 -17.940395 13.888398
769 0 1 -10.709761 -18.460695 13.071595
770 0 1 -11.219042 -18.385895 12.301698
771 0 1 -11.807941 -18.417095 11.557405
772 0 1 -12.683241 -18.294695 11.862504
773 0 1 -12.426352 -17.456095 11.451997
774 0 1 -11.650061 -17.108095 11.889802
775 0 1 -12.376432 -16.638996 12.366807
776 0 1 -12.362143 -15.770096 11.940202
777 0 1 -11.627401 -15.483696 11.289506
778 0 1 -11.213781 -15.527296 10.383500
779 0 1 -10.504082 -14.822295 10.275605
780 0 1 -10.118113 -14.121895 9.679368
781 0 1 -9.362822 -14.227595 9.118867
782 0 1 -9.123211 -13.888295 9.927827
783 0 1 -8.817511 -12.956396 9.963563
784 0 1 -8.588501 -11.974695 9.984666
785 0 1 -8.980371 -11.275995 9.406541