LAMMPS data file via MDAnalysis

        2000  atoms
        1999  bonds
           0  angles
           0  dihedrals
           0  impropers

           1  atom types
           1  bond types
           0  angle types
           0  dihedral types
           0  improper types

-30.5 30.5 xlo xhi
-30.5 30.5 ylo yhi
-233.5 233.5 zlo zhi


Masses

1 1.000000

Atoms

1 0 1 7.281041 14.950202 67.723511
2 0 1 8.025220 14.913001 68.312195
3 0 1 7.668252 15.652801 68.874817
4 0 1 7.951180 16.502899 68.477997
5 0 1 7.750459 17.070202 69.206116
6 0 1 7.649102 18.037399 69.279785
7 0 1 7.132310 18.897102 69.230713
8 0 1 6.977460 19.788502 69.532806
9 0 1 7.417851 19.564701 70.405701
10 0 1 7.250119 19.144302 71.295898
11 0 1 6.778039 18.499001 71.802612
12 0 1 6.780351 17.640602 72.143494
13 0 1 5.957032 17.325203 71.832703
14 0 1 5.482831 16.708603 72.371216
15 0 1 5.407899 15.666999 72.419495
16 0 1 4.487901 15.733600 72.045410
17 0 1 3.692269 15.686599 72.543793
18 0 1 3.525449 15.029700 73.253204
19 0 1 2.777970 14.414100 73.092285
20 0 1 2.472960 14.803000 73.907104
21 0 1 2.005471 15.187400 73.115204
22 0 1 1.280507 15.658301 72.512390
23 0 1 1.947232 16.366802 72.740204
24 0 1 1.089860 16.884102 72.455017
25 0 1 1.429208 17.133102 71.531891
26 0 1 0.805658 16.365501 71.455109
27 0 1 0.221847 15.612700 71.158600
28 0 1 0.654887 14.983901 71.698303
29 0 1 1.416835 14.470302 71.412201
30 0 1 1.283582 13.560000 71.731201
31 0 1 2.051950 13.491599 71.139587
32 0 1 2.587680 14.252200 70.817200
33 0 1 2.504230 14.161902 69.878998
34 0 1 1.650001 14.522101 69.811584
35 0 1 1.725896 15.261298 69.131287
36 0 1 2.035945 15.836001 68.414185
37 0 1 1.880405 16.535801 67.797394
38 0 1 1.988139 17.540401 67.497894
39 0 1 1.678432 18.200203 66.861511
40 0 1 1.052364 18.331402 66.154602
41 0 1 0.386409 18.133202 66.777008
42 0 1 -0.019889 17.966400 65.938995
43 0 1 -0.304879 17.118603 66.414612
44 0 1 -0.988700 17.727802 66.812988
45 0 1 -1.047500 18.352802 67.563293
46 0 1 -0.175540 18.764099 67.876801
47 0 1 -0.334420 19.616802 67.315796
48 0 1 -0.232110 20.382500 67.834503
49 0 1 -1.083670 20.027401 68.200897
50 0 1 -1.856521 19.444000 67.905884
51 0 1 -2.378369 20.021103 67.276093
52 0 1 -2.870690 20.685303 67.743500
53 0 1 -2.209380 21.442101 67.889099
54 0 1 -2.289889 20.759201 68.669495
55 0 1 -2.452621 20.572403 69.636902
56 0 1 -1.876571 19.803402 69.451691
57 0 1 -1.836129 20.291603 70.309387
58 0 1 -1.394469 19.578602 70.710297
59 0 1 -1.859860 20.049599 71.343597
60 0 1 -1.585490 20.079002 72.241699
61 0 1 -0.694390 20.118904 72.512604
62 0 1 -0.121459 20.272102 71.729614
63 0 1 -0.122439 19.964104 70.739410
64 0 1 0.327382 20.642200 70.219788
65 0 1 0.714009 21.520500 69.875702
66 0 1 -0.080750 21.584702 70.449005
67 0 1 -0.185710 22.339401 69.846710
68 0 1 -0.586940 22.684799 68.970093
69 0 1 0.113080 23.341400 68.780090
70 0 1 0.727441 23.192604 68.034210
71 0 1 1.560983 23.481804 68.560486
72 0 1 2.017119 24.322201 68.457489
73 0 1 2.181691 25.217804 68.722412
74 0 1 3.147450 25.330299 68.917999
75 0 1 3.942422 24.762703 68.564301
76 0 1 4.585412 24.177803 69.050690
77 0 1 5.572351 24.376404 68.980011
78 0 1 5.246770 25.276001 68.911407
79 0 1 4.965379 25.537601 68.049896
80 0 1 4.554540 25.459000 67.146393
81 0 1 4.640210 25.457603 66.180603
82 0 1 4.431050 25.218704 65.235901
83 0 1 3.846921 25.307404 64.511810
84 0 1 2.999310 25.186802 63.961700
85 0 1 2.628449 24.470299 63.448212
86 0 1 2.006021 24.070404 62.718384
87 0 1 2.051341 23.089001 62.446594
88 0 1 2.762849 22.379700 62.329712
89 0 1 3.273339 22.472301 63.130005
90 0 1 2.420150 22.797104 63.551910
91 0 1 2.152410 22.148003 64.124908
92 0 1 1.548183 21.380302 64.111084
93 0 1 0.604669 21.118702 64.309601
94 0 1 0.192958 21.927601 64.042114
95 0 1 0.201377 21.985302 63.019196
96 0 1 -0.613799 21.721199 62.701202
97 0 1 -0.116269 21.451801 61.928192
98 0 1 -0.023709 21.192001 61.005798
99 0 1 -0.826671 20.582802 60.899292
100 0 1 -0.837649 20.123402 60.082397
101 0 1 -0.599980 19.408699 59.496613
102 0 1 -0.834069 20.047302 58.751709
103 0 1 -0.042840 20.500202 58.531006
104 0 1 -0.177720 21.172302 59.217590
105 0 1 0.606517 21.274200 59.782806
106 0 1 0.972142 20.513100 59.391907
107 0 1 1.467076 19.855499 59.940186
108 0 1 2.235730 20.373901 60.004791
109 0 1 2.415240 21.271202 59.870392
110 0 1 1.596624 21.629700 59.478210
111 0 1 1.211101 21.865402 58.673004
112 0 1 0.998046 22.435001 57.912689
113 0 1 0.415650 23.091702 57.442291
114 0 1 1.197852 23.497902 57.148590
115 0 1 1.159980 22.775902 56.545105
116 0 1 0.959542 21.814701 56.798584
117 0 1 1.695109 21.869904 57.520996
118 0 1 2.332150 21.152000 57.285187
119 0 1 2.907010 21.938801 57.338409
120 0 1 3.371972 21.115902 57.614502
121 0 1 3.946038 21.116104 58.411713
122 0 1 3.057271 21.003002 58.820312
123 0 1 3.626901 21.696301 59.165009
124 0 1 4.122922 22.509701 58.787994
125 0 1 4.538381 23.015900 58.060699
126 0 1 3.683099 23.545101 57.776184
127 0 1 2.918038 23.580200 57.197601
128 0 1 3.021550 24.518101 56.882507
129 0 1 2.184911 24.858002 56.476807
130 0 1 1.874339 25.029404 57.315796
131 0 1 0.955052 25.446404 57.331696
132 0 1 1.046538 26.447403 57.238098
133 0 1 1.411019 27.260803 57.760010
134 0 1 1.148643 27.608601 56.873108
135 0 1 1.750386 28.365303 57.214417
136 0 1 2.035039 29.201302 57.502991
137 0 1 2.933290 29.089104 57.744904
138 0 1 3.585778 28.890404 57.060486
139 0 1 3.178620 28.379902 56.385406
140 0 1 2.729878 27.882904 55.653198
141 0 1 2.274671 27.180504 55.175812
142 0 1 3.000878 26.555603 55.275299
143 0 1 2.434300 25.825203 55.569611
144 0 1 1.548009 25.672104 55.907410
145 0 1 0.710467 26.110901 56.014313
146 0 1 0.194587 26.710102 56.585602
147 0 1 -0.583440 27.172901 56.195312
148 0 1 -1.457320 27.057301 56.542114
149 0 1 -1.917609 26.348602 56.862793
150 0 1 -2.207419 26.031403 55.957306
151 0 1 -2.443900 26.371502 55.096008
152 0 1 -2.761359 25.913803 54.348206
153 0 1 -2.425860 25.116001 54.785095
154 0 1 -3.266669 24.889603 54.322906
155 0 1 -3.215560 23.987404 53.940796
156 0 1 -3.597470 23.377899 53.320099
157 0 1 -3.035991 23.264000 52.615784
158 0 1 -3.407199 23.571999 51.795410
159 0 1 -3.111709 24.554100 51.660095
160 0 1 -2.514340 25.122299 51.220001
161 0 1 -1.962470 24.529202 50.637909
162 0 1 -1.287789 24.347301 51.415009
163 0 1 -1.192849 23.417999 51.555206
164 0 1 -0.314370 23.139400 51.640411
165 0 1 0.009811 22.201900 51.616211
166 0 1 -0.788850 21.772400 51.377289
167 0 1 -1.215230 21.047203 51.914398
168 0 1 -0.739129 20.649002 51.180115
169 0 1 0.143108 20.600601 50.798889
170 0 1 -0.132790 19.667603 50.982788
171 0 1 -1.061389 19.384804 50.836090
172 0 1 -1.795409 19.749401 50.319092
173 0 1 -1.519500 19.395699 49.512787
174 0 1 -1.333140 18.448101 49.429199
175 0 1 -2.013459 18.313801 48.741211
176 0 1 -1.933980 17.535801 48.210907
177 0 1 -2.590909 16.972900 47.796387
178 0 1 -3.214190 17.012703 48.553711
179 0 1 -3.821000 17.680199 49.072296
180 0 1 -4.715920 17.734299 48.629089
181 0 1 -5.136640 17.008400 48.138092
182 0 1 -5.594951 16.625301 48.894501
183 0 1 -6.369260 16.611000 48.247314
184 0 1 -6.793521 15.877898 48.674713
185 0 1 -7.687079 15.982600 48.960297
186 0 1 -7.378631 16.148003 49.874207
187 0 1 -6.465949 16.305801 49.782196
188 0 1 -6.548739 17.173901 50.114014
189 0 1 -7.072850 16.960701 50.896393
190 0 1 -7.823039 16.493500 51.239288
191 0 1 -7.575900 15.897101 51.921387
192 0 1 -7.385680 15.363402 52.703705
193 0 1 -7.964780 14.890502 53.326508
194 0 1 -8.215360 14.081000 52.946411
195 0 1 -8.089480 13.206599 53.234009
196 0 1 -7.625979 13.788802 53.809906
197 0 1 -7.031230 14.564002 53.872314
198 0 1 -6.266009 14.477901 54.493713
199 0 1 -6.476850 15.339499 54.662292
200 0 1 -5.583810 15.523902 55.116791
201 0 1 -4.835340 15.679099 55.693390
202 0 1 -4.594010 14.721000 55.575684
203 0 1 -4.709630 13.886901 56.117310
204 0 1 -4.956510 12.956599 55.992310
205 0 1 -5.203099 12.545199 55.147003
206 0 1 -4.815370 11.837699 55.614197
207 0 1 -4.469169 11.961799 56.477692
208 0 1 -3.947471 11.145122 56.622803
209 0 1 -3.518409 11.261371 57.500183
210 0 1 -3.177051 11.371699 58.386292
211 0 1 -3.818759 11.978499 58.227783
212 0 1 -4.414479 11.641200 58.922699
213 0 1 -5.157161 11.028869 59.029114
214 0 1 -5.425590 10.110602 59.194794
215 0 1 -6.321219 9.764930 58.978699
216 0 1 -7.269120 9.612571 59.297699
217 0 1 -7.149791 10.557570 59.182892
218 0 1 -8.029340 10.669581 59.514099
219 0 1 -8.864440 10.729239 59.003998
220 0 1 -8.198791 10.271262 58.460815
221 0 1 -8.284381 10.659263 57.531708
222 0 1 -8.614980 11.286651 56.885315
223 0 1 -8.481059 10.476901 56.399292
224 0 1 -7.979869 10.753402 55.567505
225 0 1 -8.529120 10.941661 54.715515
226 0 1 -8.157580 10.737800 53.924408
227 0 1 -7.564290 9.977820 53.942413
228 0 1 -7.163270 9.060340 53.970215
229 0 1 -6.490119 8.314612 53.839203
230 0 1 -5.546119 8.160392 53.661896
231 0 1 -4.984191 8.606952 54.294189
232 0 1 -4.688769 8.144961 55.049194
233 0 1 -3.875979 8.034122 54.501709
234 0 1 -3.346419 8.329669 55.409485
235 0 1 -3.121850 7.356979 55.470703
236 0 1 -3.611960 6.559490 55.402191
237 0 1 -3.781030 5.720970 56.027191
238 0 1 -3.940320 4.804092 55.764313
239 0 1 -3.553470 4.831321 54.943512
240 0 1 -2.955699 5.342842 54.420197
241 0 1 -2.784419 5.572120 55.355103
242 0 1 -1.867549 5.750221 55.275787
243 0 1 -1.833390 4.872989 55.607605
244 0 1 -2.265149 4.281040 56.238495
245 0 1 -1.974580 3.715892 56.943207
246 0 1 -1.312030 3.046790 57.218689
247 0 1 -0.809279 2.245038 57.422089
248 0 1 -0.814071 1.305084 57.604492
249 0 1 -1.520190 0.796640 57.201202
250 0 1 -2.422490 1.110633 57.110687
251 0 1 -2.975770 0.527046 57.548584
252 0 1 -3.197129 0.751849 58.446503
253 0 1 -2.788739 0.026161 58.993896
254 0 1 -2.371760 0.365590 59.836487
255 0 1 -1.603360 0.897973 60.172699
256 0 1 -1.620879 0.951886 61.186890
257 0 1 -2.084571 1.303714 62.030609
258 0 1 -2.244660 0.608985 62.670197
259 0 1 -1.292420 0.709207 62.955109
260 0 1 -0.441230 0.777135 63.591187
261 0 1 0.282693 1.325664 63.843689
262 0 1 1.140672 1.278472 64.333801
263 0 1 1.664046 0.835368 63.612701
264 0 1 1.462354 0.619897 62.668610
265 0 1 0.929803 0.863603 61.896484
266 0 1 0.498195 0.007671 61.705109
267 0 1 0.073609 -0.484799 60.954102
268 0 1 0.721763 -1.157029 60.644287
269 0 1 -0.081290 -1.493190 60.951904
270 0 1 -0.672360 -1.754309 61.599609
271 0 1 -0.512420 -1.332928 62.391510
272 0 1 0.425214 -1.529950 62.381104
273 0 1 0.311227 -2.299670 62.966888
274 0 1 1.112916 -2.261130 63.543793
275 0 1 1.296661 -3.013360 63.008392
276 0 1 2.072961 -3.586989 62.883392
277 0 1 3.082189 -3.534739 62.784393
278 0 1 3.816869 -3.195449 63.285004
279 0 1 4.601930 -3.480328 62.871613
280 0 1 5.247060 -3.716309 62.249603
281 0 1 5.262681 -4.449608 62.821808
282 0 1 5.514981 -4.896069 63.659607
283 0 1 5.492551 -5.005949 64.581482
284 0 1 5.504251 -4.071049 64.832794
285 0 1 6.354341 -3.877089 64.336792
286 0 1 6.363511 -2.803769 64.383209
287 0 1 7.072961 -2.368840 64.896912
288 0 1 6.741910 -1.621258 65.367310
289 0 1 6.078420 -1.367900 66.162811
290 0 1 5.455449 -1.457129 65.387817
291 0 1 5.587110 -0.982459 64.573792
292 0 1 6.303922 -0.640979 63.957001
293 0 1 6.683091 0.167430 63.508209
294 0 1 7.288911 -0.332810 62.953186
295 0 1 8.254670 -0.418519 62.663086
296 0 1 7.691468 -0.155139 61.899200
297 0 1 7.279561 0.761142 62.079010
298 0 1 6.605409 0.090461 62.067200
299 0 1 6.872590 -0.629920 61.490387
300 0 1 7.273709 -1.363518 61.072998
301 0 1 6.449109 -1.149499 60.499908
302 0 1 6.005990 -1.993619 60.875183
303 0 1 6.172639 -1.997760 61.829590
304 0 1 6.275781 -2.792449 62.318207
305 0 1 6.419980 -3.028828 61.372314
306 0 1 6.963021 -3.131980 60.582092
307 0 1 6.813001 -3.119988 59.603394
308 0 1 7.165292 -4.054049 59.539917
309 0 1 7.635610 -4.657029 58.926086
310 0 1 8.275701 -5.212708 59.346313
311 0 1 7.759740 -5.787899 58.693207
312 0 1 8.402482 -5.484990 57.987091
313 0 1 8.357259 -5.374138 57.032410
314 0 1 8.244752 -5.728188 56.143402
315 0 1 8.207231 -5.411330 55.233002
316 0 1 7.506890 -4.726679 55.181702
317 0 1 7.981069 -4.100720 55.813416
318 0 1 8.657369 -3.692549 56.348297
319 0 1 9.341310 -3.392960 56.988312
320 0 1 10.228681 -3.795249 57.234009
321 0 1 10.830739 -3.316479 56.716614
322 0 1 10.934831 -2.311730 56.701691
323 0 1 11.342568 -1.535840 57.110901
324 0 1 11.975572 -2.129130 57.521393
325 0 1 11.875871 -3.091740 57.691711
326 0 1 12.806470 -3.174180 57.578400
327 0 1 13.671868 -3.294148 57.147003
328 0 1 13.837770 -4.024289 56.585205
329 0 1 13.858171 -3.587659 55.692017
330 0 1 12.979569 -3.380589 55.308716
331 0 1 13.393571 -4.080540 54.743988
332 0 1 13.306169 -5.096268 54.666992
333 0 1 12.906171 -5.727398 54.108490
334 0 1 12.951371 -5.941319 55.051300
335 0 1 12.277772 -6.682169 55.021790
336 0 1 12.876672 -6.841870 55.750793
337 0 1 13.330270 -7.335560 56.354889
338 0 1 12.606469 -7.934838 55.981995
339 0 1 11.910668 -7.277689 55.987701
340 0 1 11.265573 -7.073620 55.295105
341 0 1 10.881230 -6.481358 54.674408
342 0 1 10.108689 -6.582690 55.251404
343 0 1 9.131551 -6.521119 55.244293
344 0 1 8.317510 -6.862938 55.609589
345 0 1 8.437291 -7.625350 55.049896
346 0 1 8.956750 -8.312600 54.489685
347 0 1 9.290330 -8.732301 53.698914
348 0 1 8.627469 -9.422999 53.754608
349 0 1 7.899549 -8.746900 54.071991
350 0 1 7.430001 -8.059979 53.534393
351 0 1 7.343431 -8.988999 53.133698
352 0 1 6.596940 -8.592340 52.663513
353 0 1 5.887010 -9.253900 52.854614
354 0 1 5.248948 -8.581941 53.155396
355 0 1 4.827291 -9.164300 53.774506
356 0 1 5.130738 -10.052999 53.756592
357 0 1 5.065980 -10.101499 52.757202
358 0 1 5.355432 -11.083899 52.755188
359 0 1 4.593209 -11.290601 52.263489
360 0 1 4.606851 -10.532201 51.808807
361 0 1 5.160260 -11.052400 51.121490
362 0 1 4.271020 -11.348399 50.982788
363 0 1 4.050359 -11.216300 50.066010
364 0 1 4.250539 -10.840798 49.170197
365 0 1 4.340112 -10.106198 49.767212
366 0 1 4.419370 -9.111199 49.799591
367 0 1 5.108891 -8.691701 49.177002
368 0 1 5.731782 -8.123580 48.705292
369 0 1 6.583680 -7.927220 48.274689
370 0 1 7.375909 -7.782799 48.839417
371 0 1 7.815461 -8.521668 49.351593
372 0 1 7.569772 -9.067800 48.515503
373 0 1 7.752450 -8.752900 47.564606
374 0 1 8.458570 -8.314820 46.931702
375 0 1 9.322301 -7.939328 47.173401
376 0 1 9.525270 -7.079089 46.660004
377 0 1 9.051621 -6.585209 47.430115
378 0 1 9.649072 -5.828259 47.443115
379 0 1 9.459859 -5.613820 48.364685
380 0 1 9.933331 -6.428269 48.440491
381 0 1 9.286721 -7.115729 48.501892
382 0 1 8.636209 -7.820929 48.411316
383 0 1 8.783990 -8.648400 48.798187
384 0 1 9.402539 -9.259700 48.453705
385 0 1 9.887078 -10.100699 48.481995
386 0 1 10.362271 -10.906999 48.643097
387 0 1 10.866879 -11.475598 49.199585
388 0 1 10.897370 -12.449800 49.045593
389 0 1 11.315469 -12.843301 49.829712
390 0 1 10.557111 -13.263000 50.299500
391 0 1 9.836152 -13.329300 50.928101
392 0 1 9.862721 -14.263599 51.456512
393 0 1 10.712659 -13.997999 51.643890
394 0 1 10.232179 -13.504800 52.319794
395 0 1 11.122972 -13.558599 52.777802
396 0 1 12.032071 -13.851299 52.715698
397 0 1 12.412671 -13.622499 51.811798
398 0 1 13.219769 -13.570000 52.318115
399 0 1 12.817369 -12.892900 52.862793
400 0 1 12.103169 -12.541101 53.477997
401 0 1 12.586869 -11.936500 54.022583
402 0 1 13.259671 -12.093200 53.369598
403 0 1 14.249871 -12.036401 53.083313
404 0 1 15.063371 -12.086900 52.661896
405 0 1 15.287469 -12.254498 53.611298
406 0 1 15.659272 -13.038199 53.145294
407 0 1 15.883271 -13.412999 52.296814
408 0 1 15.894670 -12.955199 51.487000
409 0 1 15.953870 -12.987000 50.530396
410 0 1 15.353471 -13.666800 50.779388
411 0 1 14.633870 -13.206200 51.146698
412 0 1 14.853272 -12.514600 50.513611
413 0 1 14.698472 -11.666600 50.101410
414 0 1 13.795369 -11.288800 49.747894
415 0 1 13.901269 -11.053100 48.763702
416 0 1 14.405671 -11.803800 48.855286
417 0 1 13.741170 -12.352799 48.574402
418 0 1 12.985570 -12.433099 48.151306
419 0 1 12.571572 -11.541101 47.992310
420 0 1 12.337171 -11.147099 47.105194
421 0 1 12.651872 -11.912999 46.686584
422 0 1 12.290071 -11.922898 45.688293
423 0 1 12.762471 -12.689799 45.207489
424 0 1 12.879972 -12.935201 44.180389
425 0 1 11.956269 -12.857598 44.325195
426 0 1 12.327771 -13.627199 43.899689
427 0 1 11.603669 -14.220900 43.689209
428 0 1 12.443269 -14.689500 43.629913
429 0 1 12.729669 -15.365300 42.950806
430 0 1 13.043572 -15.440200 42.034210
431 0 1 13.608872 -16.050699 42.422607
432 0 1 13.710168 -16.460098 41.536407
433 0 1 13.767869 -17.381899 41.685303
434 0 1 13.025170 -17.682398 41.171600
435 0 1 13.319570 -18.377199 41.846497
436 0 1 14.184869 -18.667500 42.191010
437 0 1 14.687371 -18.723598 41.380890
438 0 1 15.035272 -17.882498 41.147583
439 0 1 15.270871 -17.369999 40.375793
440 0 1 15.004369 -18.031498 39.761505
441 0 1 14.807168 -17.617998 38.956207
442 0 1 14.438470 -16.659098 38.953613
443 0 1 13.509870 -16.582298 39.079498
444 0 1 13.231671 -16.639599 40.033386
445 0 1 12.332871 -16.791698 40.220612
446 0 1 11.678071 -16.138798 40.452209
447 0 1 11.096688 -16.013498 41.241211
448 0 1 10.378549 -16.734098 41.235199
449 0 1 10.191621 -15.951499 41.849701
450 0 1 10.281632 -15.129300 42.206512
451 0 1 10.298982 -14.431200 41.587006
452 0 1 9.407910 -14.443999 42.096405
453 0 1 9.101460 -14.228000 41.216614
454 0 1 8.931039 -13.995500 40.308105
455 0 1 8.014249 -14.136900 40.146301
456 0 1 7.560739 -14.474199 39.335297
457 0 1 8.044999 -13.648399 39.217407
458 0 1 7.312051 -13.446500 39.761108
459 0 1 7.428590 -12.547700 39.456696
460 0 1 7.043389 -12.727899 38.621613
461 0 1 6.412049 -13.391199 38.816284
462 0 1 6.182961 -13.862700 39.641785
463 0 1 5.495118 -14.458899 39.403503
464 0 1 4.856889 -13.817200 39.107483
465 0 1 4.096139 -13.391600 39.502014
466 0 1 3.436971 -12.963700 40.077087
467 0 1 3.012010 -13.546800 40.768097
468 0 1 2.115870 -13.824900 40.506195
469 0 1 1.488805 -13.774300 41.240112
470 0 1 1.825973 -12.941098 40.912506
471 0 1 1.366964 -12.749900 41.723511
472 0 1 1.525207 -12.604699 42.692993
473 0 1 1.345159 -12.051099 43.515106
474 0 1 0.918870 -12.677600 44.063202
475 0 1 0.772121 -12.209699 44.880188
476 0 1 1.349156 -12.746099 45.537598
477 0 1 0.642655 -12.314900 45.973083
478 0 1 -0.181100 -12.783799 45.961395
479 0 1 -1.113589 -12.877500 46.024109
480 0 1 -1.713549 -13.000400 45.164398
481 0 1 -1.060599 -13.132000 44.442596
482 0 1 -0.284280 -12.621999 44.493988
483 0 1 -0.767129 -11.786000 44.770203
484 0 1 -1.575320 -11.813100 44.267303
485 0 1 -2.090970 -11.014001 44.504395
486 0 1 -2.996810 -11.060599 44.231598
487 0 1 -2.806991 -11.931001 43.890411
488 0 1 -3.727530 -12.276399 43.661194
489 0 1 -4.722260 -12.402200 43.714294
490 0 1 -4.626130 -13.163400 43.107391
491 0 1 -3.968310 -13.927999 42.853790
492 0 1 -4.191239 -14.854600 42.919006
493 0 1 -4.209291 -15.409400 43.758789
494 0 1 -4.574790 -15.216199 44.670197
495 0 1 -5.556890 -15.228000 44.639709
496 0 1 -5.870440 -14.578500 45.227692
497 0 1 -5.898660 -13.813200 45.781616
498 0 1 -5.518510 -14.267799 46.583405
499 0 1 -6.097720 -14.423900 47.278412
500 0 1 -7.034579 -14.547299 47.430115
501 0 1 -7.626300 -13.904300 47.707886
502 0 1 -6.993150 -13.221200 47.829193
503 0 1 -6.974380 -12.814401 47.031616
504 0 1 -7.845340 -12.515100 46.639191
505 0 1 -7.617169 -11.930600 45.954193
506 0 1 -6.735019 -12.016599 45.485809
507 0 1 -6.503009 -11.114499 45.255188
508 0 1 -6.812419 -10.409699 44.614594
509 0 1 -7.443221 -10.304601 43.862396
510 0 1 -6.582749 -9.947999 43.673096
511 0 1 -5.796569 -10.446099 43.384888
512 0 1 -6.630069 -10.688800 42.922699
513 0 1 -6.888839 -11.590400 43.204285
514 0 1 -7.109509 -11.932099 42.349396
515 0 1 -6.512340 -11.754100 41.598511
516 0 1 -5.731400 -11.202399 41.845703
517 0 1 -5.256070 -11.676999 41.160583
518 0 1 -4.722280 -12.038699 40.514404
519 0 1 -5.304580 -12.637601 40.134399
520 0 1 -5.053420 -12.529901 39.232788
521 0 1 -4.892501 -11.641198 38.788086
522 0 1 -5.542041 -11.266599 38.200684
523 0 1 -6.356250 -11.170899 37.711700
524 0 1 -6.690869 -11.832601 38.376495
525 0 1 -7.341550 -11.128301 38.165405
526 0 1 -7.410331 -10.267800 38.624512
527 0 1 -8.127490 -10.793401 38.941284
528 0 1 -8.881330 -10.449399 38.509399
529 0 1 -8.368270 -9.635800 38.317200
530 0 1 -8.164859 -9.295800 39.199707
531 0 1 -8.673800 -8.494538 39.080017
532 0 1 -8.612969 -8.310250 38.177185
533 0 1 -8.341460 -8.407310 37.269714
534 0 1 -7.866920 -8.345410 36.429016
535 0 1 -7.062200 -7.836649 36.211914
536 0 1 -6.348189 -8.453900 36.442108
537 0 1 -6.275439 -7.829560 37.169006
538 0 1 -6.007520 -6.892788 37.189697
539 0 1 -5.661460 -6.396180 37.941589
540 0 1 -5.848079 -5.466938 37.808594
541 0 1 -5.164371 -4.896140 38.059998
542 0 1 -4.867410 -5.241549 38.971191
543 0 1 -4.433160 -5.882168 39.600403
544 0 1 -3.500590 -5.853098 39.955597
545 0 1 -2.893050 -5.377018 39.523987
546 0 1 -2.303590 -5.747759 38.786407
547 0 1 -1.852540 -5.483910 37.960693
548 0 1 -2.218770 -5.733069 37.128510
549 0 1 -3.134650 -5.434639 37.058197
550 0 1 -3.709920 -5.248478 36.345306
551 0 1 -4.347480 -6.075499 36.605804
552 0 1 -4.127629 -6.817910 36.041016
553 0 1 -3.462760 -7.515799 36.265411
554 0 1 -4.031100 -8.301530 36.058289
555 0 1 -3.697230 -9.075700 36.496796
556 0 1 -3.315989 -9.815200 36.981598
557 0 1 -3.631570 -10.212399 36.149506
558 0 1 -4.016940 -9.905400 35.383484
559 0 1 -4.709479 -10.505300 35.556793
560 0 1 -4.452260 -11.276898 35.100403
561 0 1 -5.350890 -11.350099 34.699585
562 0 1 -5.305760 -11.726399 33.790497
563 0 1 -4.412160 -11.988299 33.931610
564 0 1 -4.035470 -10.991799 33.932007
565 0 1 -3.120450 -10.942399 33.778198
566 0 1 -2.903810 -11.836499 33.710083
567 0 1 -2.025470 -12.183400 33.254913
568 0 1 -1.895499 -11.274098 33.019806
569 0 1 -2.631299 -11.579400 32.471405
570 0 1 -3.147510 -11.894898 31.658112
571 0 1 -3.830409 -12.447400 31.194305
572 0 1 -3.677649 -12.875699 32.048401
573 0 1 -3.663369 -13.750799 32.463196
574 0 1 -3.407409 -14.600599 32.663910
575 0 1 -4.090449 -14.960900 33.304504
576 0 1 -3.247670 -15.165799 33.845306
577 0 1 -2.376201 -14.879699 34.042694
578 0 1 -1.785890 -15.009200 33.246002
579 0 1 -0.823211 -15.300599 33.475006
580 0 1 0.002061 -15.885200 33.653595
581 0 1 0.511312 -15.142800 34.031616
582 0 1 1.087960 -15.813800 34.511108
583 0 1 1.626126 -16.621998 34.528809
584 0 1 1.782245 -16.283398 33.672089
585 0 1 1.505283 -15.898799 32.859314
586 0 1 0.788440 -15.314300 32.683289
587 0 1 0.043031 -15.300799 31.974304
588 0 1 -0.808049 -15.213300 32.435699
589 0 1 -0.695790 -14.993199 31.475800
590 0 1 -1.250350 -14.137500 31.311310
591 0 1 -0.575589 -14.044399 30.564697
592 0 1 -0.847390 -14.675300 29.889893
593 0 1 -1.174119 -15.414399 29.449493
594 0 1 -0.969170 -16.325399 29.380615
595 0 1 -0.404281 -16.013298 28.669800
596 0 1 0.374944 -16.100800 28.191406
597 0 1 0.408719 -15.274199 27.792297
598 0 1 1.127208 -14.729499 27.513916
599 0 1 1.036082 -14.348399 28.365509
600 0 1 0.259071 -13.873300 28.666992
601 0 1 -0.428889 -13.209700 28.403412
602 0 1 -1.119969 -12.932000 28.990601
603 0 1 -1.868140 -12.879399 29.583313
604 0 1 -1.375359 -13.309600 30.329407
605 0 1 -0.513690 -12.885098 30.189789
606 0 1 0.005321 -12.894601 31.021484
607 0 1 0.329570 -13.890900 31.160889
608 0 1 0.282148 -14.405800 30.358307
609 0 1 1.235898 -14.280399 30.572906
610 0 1 1.743030 -14.715899 29.894287
611 0 1 2.126531 -14.782899 30.805695
612 0 1 1.969564 -14.736300 31.780090
613 0 1 2.572579 -14.018499 31.579407
614 0 1 3.480470 -14.218499 31.837891
615 0 1 4.276139 -13.698500 31.833496
616 0 1 5.041268 -14.110499 32.185394
617 0 1 5.365472 -14.818999 31.551605
618 0 1 4.380399 -14.680699 31.227386
619 0 1 3.599919 -15.008000 30.758392
620 0 1 2.986691 -15.444900 30.158600
621 0 1 3.116101 -16.331999 30.049591
622 0 1 3.467938 -17.230499 30.201416
623 0 1 2.830529 -17.951899 30.403015
624 0 1 3.144040 -18.877298 30.462891
625 0 1 2.941751 -18.465998 29.571198
626 0 1 2.186240 -18.685898 29.009094
627 0 1 1.924205 -19.341198 28.411316
628 0 1 2.338309 -19.343699 27.547302
629 0 1 1.846627 -19.336498 26.736908
630 0 1 2.381431 -19.154799 25.973999
631 0 1 2.913991 -18.383198 25.872009
632 0 1 2.754041 -17.430599 25.904205
633 0 1 1.939088 -17.026098 26.278503
634 0 1 2.318971 -16.161299 26.147797
635 0 1 2.470950 -15.721999 25.227814
636 0 1 1.594066 -15.933999 24.915894
637 0 1 1.939628 -16.833498 24.754913
638 0 1 1.835086 -16.801498 23.811005
639 0 1 2.175771 -17.761299 24.149506
640 0 1 1.378514 -18.260298 24.045898
641 0 1 0.756196 -17.990698 24.758301
642 0 1 0.427261 -18.870699 24.331390
643 0 1 -0.066501 -19.670898 24.117798
644 0 1 -0.485209 -19.005499 23.607086
645 0 1 -0.264609 -19.042898 22.662415
646 0 1 0.022851 -19.017399 21.785004
647 0 1 -0.058419 -18.323898 21.032898
648 0 1 -0.456950 -19.099598 20.524902
649 0 1 0.426757 -19.523199 20.347107
650 0 1 0.420505 -19.883499 21.252502
651 0 1 0.431325 -20.798298 21.065399
652 0 1 0.712590 -21.374199 20.352402
653 0 1 0.729354 -22.280298 20.043594
654 0 1 0.999862 -23.191099 19.864807
655 0 1 0.947984 -22.887199 18.987000
656 0 1 1.654811 -23.359299 18.533798
657 0 1 2.313531 -22.695799 18.670502
658 0 1 3.177129 -23.007399 18.443802
659 0 1 2.675118 -23.737198 18.012100
660 0 1 1.887929 -24.210499 17.823395
661 0 1 1.299056 -23.919899 17.131897
662 0 1 0.499368 -23.827499 16.486801
663 0 1 -0.198110 -24.345198 16.888397
664 0 1 -0.396390 -24.584799 15.910797
665 0 1 0.155387 -24.954298 15.214294
666 0 1 -0.490340 -25.695898 15.068802
667 0 1 0.186645 -26.186098 15.570602
668 0 1 -0.624669 -26.005199 16.199493
669 0 1 -0.364100 -26.324499 17.147995
670 0 1 0.468576 -26.637999 16.780396
671 0 1 0.847861 -27.308599 16.256500
672 0 1 1.201657 -26.644999 15.636307
673 0 1 0.663688 -26.946499 14.806793
674 0 1 0.687701 -26.063099 14.589508
675 0 1 1.283860 -25.581099 14.027802
676 0 1 1.919128 -25.563398 13.332397
677 0 1 1.691915 -26.285599 12.835693
678 0 1 1.037551 -25.680099 12.338501
679 0 1 1.358560 -24.918200 11.943298
680 0 1 1.749629 -25.544899 11.378799
681 0 1 2.343301 -24.852398 10.957703
682 0 1 2.071317 -24.299999 10.155396
683 0 1 2.968999 -24.235298 10.175598
684 0 1 2.607150 -23.546000 9.538834
685 0 1 2.678639 -22.718998 9.126038
686 0 1 3.558702 -23.117498 9.244736
687 0 1 4.347001 -22.823498 9.694092
688 0 1 4.394212 -22.279598 8.854935
689 0 1 4.099690 -21.982498 7.992295
690 0 1 3.671430 -22.803598 8.202866
691 0 1 3.036641 -22.857899 7.390427
692 0 1 2.263881 -23.389399 7.411255
693 0 1 1.566762 -23.372698 8.113373
694 0 1 1.577249 -23.847698 8.911987
695 0 1 1.085275 -24.001898 9.758850
696 0 1 0.618743 -23.166298 9.603653
697 0 1 -0.025531 -22.551899 9.950592
698 0 1 -0.194089 -21.771999 10.481903
699 0 1 -0.655620 -21.528099 9.719574
700 0 1 -0.067279 -21.016998 9.182831
701 0 1 -0.387149 -20.159399 9.061829
702 0 1 -0.513760 -19.908798 9.919342
703 0 1 -0.524880 -19.239698 10.638596
704 0 1 -0.965489 -18.719398 11.368393
705 0 1 -1.143479 -17.777399 11.341095
706 0 1 -0.797719 -17.323999 10.521698
707 0 1 -0.894009 -16.465498 11.054199
708 0 1 -0.151851 -16.045898 11.547897
709 0 1 0.410915 -15.353799 11.782501
710 0 1 0.000911 -15.041699 12.572800
711 0 1 0.533670 -14.529400 13.191605
712 0 1 0.018331 -14.327200 13.980606
713 0 1 0.434724 -14.785399 14.767807
714 0 1 0.297780 -13.940700 15.172394
715 0 1 0.616435 -13.370399 15.925003
716 0 1 -0.152089 -13.294499 16.468704
717 0 1 0.150106 -13.538799 17.346298
718 0 1 0.320140 -14.487900 17.392792
719 0 1 -0.591899 -14.339000 17.089706
720 0 1 -1.472171 -14.682700 16.986908
721 0 1 -1.932200 -15.429200 17.384399
722 0 1 -2.080960 -15.789701 16.472000
723 0 1 -2.183869 -15.847899 15.533905
724 0 1 -1.322940 -15.328099 15.705002
725 0 1 -1.144050 -16.282398 15.775497
726 0 1 -1.131930 -16.035698 14.872299
727 0 1 -0.307820 -16.424999 14.843704
728 0 1 0.103200 -17.296499 15.241806
729 0 1 1.026914 -17.196999 14.916000
730 0 1 0.962875 -17.762999 14.131195
731 0 1 0.205995 -18.292299 13.768295
732 0 1 -0.472899 -18.955799 14.161194
733 0 1 -1.082890 -18.517298 13.558701
734 0 1 -1.773700 -19.085999 13.162994
735 0 1 -2.024550 -18.345198 12.572693
736 0 1 -2.532119 -19.049698 12.083801
737 0 1 -3.028340 -19.900099 12.233398
738 0 1 -3.354381 -20.746399 11.931793
739 0 1 -4.210479 -20.781298 12.407394
740 0 1 -4.791591 -20.446899 11.751404
741 0 1 -5.588140 -20.005798 11.539902
742 0 1 -5.007659 -19.227398 11.446198
743 0 1 -4.352220 -18.503199 11.643600
744 0 1 -4.988030 -17.859098 11.525696
745 0 1 -4.487300 -17.255699 10.977295
746 0 1 -4.291860 -16.927498 11.833603
747 0 1 -3.570621 -16.858099 12.423203
748 0 1 -3.715520 -15.881200 12.479492
749 0 1 -4.041480 -15.231999 13.131302
750 0 1 -4.922509 -15.298600 13.524506
751 0 1 -5.681359 -14.990500 14.103195
752 0 1 -6.361341 -14.877900 14.759705
753 0 1 -7.239829 -14.442300 14.802902
754 0 1 -7.471660 -15.355300 14.868896
755 0 1 -7.345489 -15.287000 15.817398
756 0 1 -8.075839 -15.812999 16.270401
757 0 1 -8.571479 -15.111400 16.735306
758 0 1 -8.205619 -15.156299 17.632706
759 0 1 -7.597781 -15.740899 17.116302
760 0 1 -6.669631 -15.760699 17.055801
761 0 1 -6.889869 -15.662700 18.000793
762 0 1 -7.242969 -16.128698 18.738098
763 0 1 -8.048720 -15.565499 18.841293
764 0 1 -8.592870 -15.121499 19.527802
765 0 1 -9.129130 -14.334299 19.468292
766 0 1 -8.391681 -13.775200 19.779602
767 0 1 -7.997930 -13.182699 20.462997
768 0 1 -8.835090 -13.112000 20.914597
769 0 1 -8.254199 -12.361400 20.969498
770 0 1 -8.461570 -11.898400 20.169601
771 0 1 -8.286880 -10.968301 20.135803
772 0 1 -9.153529 -11.201501 20.042496
773 0 1 -9.187530 -11.569400 19.185806
774 0 1 -10.010829 -11.617900 18.678497
775 0 1 -10.714829 -11.860299 19.287994
776 0 1 -11.447330 -11.378200 19.763397
777 0 1 -12.097730 -10.980300 20.379105
778 0 1 -11.641829 -10.148400 19.984695
779 0 1 -11.796130 -9.323300 19.527496
780 0 1 -10.859229 -9.366500 18.993103
781 0 1 -11.421630 -8.622510 18.783096
782 0 1 -11.165931 -9.059199 17.941605
783 0 1 -11.765330 -8.398519 17.546997