LAMMPS data file via MDAnalysis

        2000  atoms
        1999  bonds
           0  angles
           0  dihedrals
           0  impropers

           1  atom types
           1  bond types
           0  angle types
           0  dihedral types
           0  improper types

-30.5 30.5 xlo xhi
-30.5 30.5 ylo yhi
-233.5 233.5 zlo zhi


Masses

1 1.000000

Atoms

1 0 1 -8.125024 6.893998 9.550110
2 0 1 -7.293803 6.780229 9.942627
3 0 1 -6.597865 6.856889 10.606995
4 0 1 -6.029414 6.234559 11.159393
5 0 1 -5.687505 6.333890 10.289993
6 0 1 -5.307075 6.544789 9.487762
7 0 1 -4.516065 6.329808 9.010498
8 0 1 -3.875365 6.239930 9.673584
9 0 1 -3.935513 6.249078 10.691299
10 0 1 -4.156514 5.511250 11.243103
11 0 1 -3.806773 4.641801 11.261200
12 0 1 -2.922663 5.041368 11.127396
13 0 1 -2.166863 4.973611 11.771393
14 0 1 -2.025834 5.730348 11.215805
15 0 1 -2.125834 5.554009 10.271606
16 0 1 -1.797013 6.335340 9.714279
17 0 1 -2.299495 7.066720 10.114899
18 0 1 -2.601924 7.984609 10.208893
19 0 1 -3.451415 8.364530 10.263794
20 0 1 -3.349374 8.572438 9.309357
21 0 1 -3.707755 8.287499 8.463104
22 0 1 -4.247264 8.838910 9.088959
23 0 1 -5.096734 9.242040 9.231033
24 0 1 -4.561315 9.839139 8.686844
25 0 1 -4.822484 10.742040 8.791138
26 0 1 -4.114203 10.916841 9.398026
27 0 1 -4.807984 10.971139 10.068405
28 0 1 -4.391475 11.660939 10.675293
29 0 1 -4.714755 11.267938 11.520294
30 0 1 -5.161035 10.839238 12.234406
31 0 1 -5.560884 11.287141 12.979294
32 0 1 -5.413484 11.209741 13.941193
33 0 1 -4.862113 10.419541 14.083405
34 0 1 -4.444894 11.128938 13.573303
35 0 1 -4.035455 10.338140 13.315002
36 0 1 -3.517253 9.566941 12.991302
37 0 1 -2.860823 8.970918 13.481796
38 0 1 -2.826054 8.463910 12.696304
39 0 1 -2.517894 9.360742 12.556198
40 0 1 -2.820523 9.804540 11.783203
41 0 1 -1.928815 10.230340 11.838104
42 0 1 -2.328194 11.173539 11.971497
43 0 1 -2.099044 11.988641 11.614502
44 0 1 -2.548203 12.819741 11.340698
45 0 1 -2.392215 12.968640 12.290405
46 0 1 -3.132813 13.364839 12.729706
47 0 1 -3.574504 12.922738 12.005005
48 0 1 -3.654044 13.734841 11.530899
49 0 1 -3.009635 14.301438 11.907593
50 0 1 -2.815934 14.436440 10.986801
51 0 1 -2.028544 14.026139 10.709595
52 0 1 -2.763024 14.007039 10.039993
53 0 1 -2.420893 14.910737 9.929016
54 0 1 -1.646964 14.460839 9.657822
55 0 1 -1.758734 14.909940 8.796570
56 0 1 -1.893014 14.128037 8.262543
57 0 1 -2.800364 14.217938 8.592117
58 0 1 -3.262275 13.499940 9.047836
59 0 1 -3.031085 13.178239 8.171494
60 0 1 -3.565253 12.780839 7.402039
61 0 1 -4.194795 12.718041 6.629075
62 0 1 -5.168904 12.913239 6.575959
63 0 1 -5.500964 13.286839 5.743226
64 0 1 -6.077605 13.439240 4.995240
65 0 1 -6.593823 14.260339 5.351227
66 0 1 -6.400073 14.197038 4.402649
67 0 1 -6.521144 14.862439 3.745713
68 0 1 -6.255683 15.832437 3.974045
69 0 1 -5.537774 16.028336 3.364365
70 0 1 -5.004924 16.783539 3.832276
71 0 1 -5.364844 17.759941 3.726807
72 0 1 -4.695024 17.696236 3.109284
73 0 1 -4.232385 17.823936 2.287720
74 0 1 -3.992583 17.475136 1.343232
75 0 1 -3.458585 16.816139 0.931626
76 0 1 -2.873814 17.025337 0.209992
77 0 1 -2.328864 16.954739 -0.637649
78 0 1 -1.569773 17.487438 -0.637359
79 0 1 -1.730864 18.489037 -0.626236
80 0 1 -1.293624 19.355038 -0.462631
81 0 1 -1.228894 20.355038 -0.774185
82 0 1 -0.560914 20.914738 -1.214782
83 0 1 -0.765694 20.450638 -2.030593
84 0 1 -0.636514 21.184338 -2.647506
85 0 1 -1.642853 21.156738 -2.931793
86 0 1 -1.756404 20.174736 -3.249206
87 0 1 -2.607844 20.637138 -3.173126
88 0 1 -2.843484 21.081139 -4.016037
89 0 1 -3.423293 21.818336 -3.637451
90 0 1 -4.099704 21.113640 -3.532852
91 0 1 -4.084323 21.604240 -4.382354
92 0 1 -4.862723 21.844337 -3.865814
93 0 1 -4.784715 22.687939 -3.378433
94 0 1 -4.969165 22.661339 -2.439895
95 0 1 -5.436194 22.213837 -1.700042
96 0 1 -4.731275 22.920639 -1.358413
97 0 1 -4.310334 23.315536 -2.208236
98 0 1 -3.608615 22.683739 -2.141677
99 0 1 -3.038375 23.385738 -1.927749
100 0 1 -2.111514 23.425537 -1.905761
101 0 1 -1.652323 24.162041 -1.370025
102 0 1 -1.006194 24.857140 -1.086929
103 0 1 -0.290061 24.827339 -0.536102
104 0 1 -0.582314 24.572540 0.309418
105 0 1 0.185693 24.120438 0.611328
106 0 1 -0.115422 23.935837 1.495789
107 0 1 -0.103045 24.127136 2.495667
108 0 1 0.320544 24.975441 2.331803
109 0 1 1.304502 24.643639 2.357743
110 0 1 1.457673 24.759838 3.287735
111 0 1 0.911464 24.631638 4.102936
112 0 1 1.164996 24.527840 5.044556
113 0 1 0.431537 23.881638 5.133881
114 0 1 0.557794 23.601639 6.054337
115 0 1 -0.177846 23.055237 6.144013
116 0 1 -1.040484 23.338036 6.409684
117 0 1 -1.739524 23.298439 5.678864
118 0 1 -2.008834 22.906837 4.865326
119 0 1 -2.422324 23.796936 4.742569
120 0 1 -3.315524 23.551041 4.332428
121 0 1 -3.441283 22.858738 3.641297
122 0 1 -4.355494 22.787437 3.820649
123 0 1 -4.606044 23.011639 2.901551
124 0 1 -5.471925 22.563339 2.809098
125 0 1 -5.078454 22.168541 2.066926
126 0 1 -6.000665 22.366440 1.664658
127 0 1 -5.915595 21.623840 1.050171
128 0 1 -5.943395 21.100338 1.872086
129 0 1 -5.992043 20.932838 2.804978
130 0 1 -5.893085 20.889641 3.793091
131 0 1 -4.970714 20.678940 3.547028
132 0 1 -5.364533 20.231239 4.311905
133 0 1 -4.814395 19.720638 4.953446
134 0 1 -4.013555 19.278740 5.293168
135 0 1 -4.187364 19.918739 5.942200
136 0 1 -4.302245 20.093536 6.874329
137 0 1 -3.472373 19.672440 7.019166
138 0 1 -3.078463 19.065437 6.384980
139 0 1 -2.723723 18.583538 7.082856
140 0 1 -3.607234 18.201939 6.934647
141 0 1 -4.523345 17.940437 6.870865
142 0 1 -4.725215 17.383636 7.567246
143 0 1 -5.148654 16.608738 7.976670
144 0 1 -4.908784 15.800141 7.529023
145 0 1 -4.178964 16.072540 8.092285
146 0 1 -4.220145 15.449441 8.849518
147 0 1 -4.367213 15.853139 9.778320
148 0 1 -4.789544 16.703838 10.033798
149 0 1 -5.136144 16.308441 9.210052
150 0 1 -6.082015 16.193638 9.473404
151 0 1 -6.197093 16.836136 10.170898
152 0 1 -5.697955 16.373539 10.876801
153 0 1 -5.670625 17.188438 11.282700
154 0 1 -5.343074 16.370739 11.838196
155 0 1 -4.489993 16.689438 11.524902
156 0 1 -3.763533 17.301537 11.688400
157 0 1 -3.010443 17.059639 12.202301
158 0 1 -3.645423 16.591839 12.689697
159 0 1 -4.520604 16.165539 12.538406
160 0 1 -4.059745 15.701737 13.251495
161 0 1 -3.870394 16.020538 14.229294
162 0 1 -4.700793 16.346138 14.501892
163 0 1 -4.675263 16.358238 15.388702
164 0 1 -4.361064 15.567437 15.867798
165 0 1 -3.700894 15.732739 16.545395
166 0 1 -2.976334 15.380540 15.942001
167 0 1 -2.757684 15.484437 15.059006
168 0 1 -1.934914 15.810639 15.555206
169 0 1 -1.754304 16.522938 16.208405
170 0 1 -1.271113 17.378937 16.155106
171 0 1 -2.196833 17.476238 15.984894
172 0 1 -2.788794 17.057438 16.719696
173 0 1 -3.330874 17.728737 17.047195
174 0 1 -4.044524 17.233639 16.598801
175 0 1 -4.994374 17.426537 16.544708
176 0 1 -4.483594 18.232437 16.603699
177 0 1 -3.758204 18.093338 16.004807
178 0 1 -3.707814 18.282837 15.055496
179 0 1 -4.463513 18.393139 14.441803
180 0 1 -4.445434 18.110840 13.435303
181 0 1 -3.716023 17.515038 13.602997
182 0 1 -2.744303 17.291439 13.701202
183 0 1 -2.082404 17.108841 12.983398
184 0 1 -1.888903 16.567337 13.838303
185 0 1 -1.877013 16.443539 14.829102
186 0 1 -0.895175 16.364838 14.947800
187 0 1 -0.496995 15.580041 14.593796
188 0 1 0.009677 15.025041 14.039795
189 0 1 0.921813 14.682641 14.066498
190 0 1 1.610776 15.299241 14.211502
191 0 1 2.610788 15.170037 14.084396
192 0 1 3.397275 15.520440 14.666107
193 0 1 3.919145 15.926141 15.367706
194 0 1 4.181874 15.770242 16.304596
195 0 1 5.147786 15.773637 16.332504
196 0 1 5.064206 14.873239 16.586304
197 0 1 5.958634 15.011338 16.251495
198 0 1 6.777596 14.636941 16.666595
199 0 1 7.410127 14.626939 15.909103
200 0 1 7.376046 15.562737 16.022903
201 0 1 6.482907 15.922540 16.150101
202 0 1 6.390126 16.685638 16.702194
203 0 1 6.330136 16.045738 17.478302
204 0 1 5.612115 15.480039 17.733902
205 0 1 5.750447 15.127439 18.687592
206 0 1 5.110127 15.546639 19.367905
207 0 1 5.364617 15.720540 20.270401
208 0 1 4.574967 16.154839 20.639404
209 0 1 3.739915 16.370739 20.959106
210 0 1 3.580068 17.286636 20.792099
211 0 1 4.099755 17.707336 21.536896
212 0 1 4.981095 17.561039 21.309692
213 0 1 4.745057 16.712837 21.647797
214 0 1 4.814015 16.832939 22.580200
215 0 1 5.787644 16.471138 22.501099
216 0 1 6.687818 16.779339 22.472107
217 0 1 6.668336 16.686836 23.390106
218 0 1 7.556867 16.427238 23.742706
219 0 1 6.959565 16.084839 24.449005
220 0 1 6.984406 15.173139 24.586304
221 0 1 7.497994 15.424039 25.393311
222 0 1 8.402555 15.545136 25.674896
223 0 1 8.350896 14.678140 26.047485
224 0 1 7.920056 14.173242 25.366302
225 0 1 7.152326 14.184739 25.868195
226 0 1 7.357224 13.222440 25.834595
227 0 1 7.642835 13.472039 26.696411
228 0 1 8.032456 12.596139 26.661896
229 0 1 7.509854 11.737641 26.627014
230 0 1 6.581914 12.141038 26.525299
231 0 1 5.781156 12.712838 26.405609
232 0 1 5.326787 12.838239 27.242798
233 0 1 5.491227 11.900640 27.322296
234 0 1 5.434278 11.030641 26.906616
235 0 1 5.822186 10.415841 27.626099
236 0 1 6.366227 10.740739 28.300507
237 0 1 6.975686 10.864541 29.020996
238 0 1 6.366967 11.268540 29.666016
239 0 1 6.083245 10.527337 30.244385
240 0 1 5.277524 10.965241 30.494385
241 0 1 4.577985 10.206841 30.494202
242 0 1 4.876897 9.546540 31.140289
243 0 1 4.097955 9.609540 31.770996
244 0 1 4.181306 8.733491 32.070984
245 0 1 5.106114 8.932298 32.101501
246 0 1 5.350396 8.546041 31.223206
247 0 1 5.298078 7.966569 30.487396
248 0 1 6.223325 8.338300 30.777588
249 0 1 6.710027 9.142838 30.480103
250 0 1 7.194707 8.967629 31.318390
251 0 1 7.273328 8.051969 31.730988
252 0 1 7.381757 8.486947 32.601685
253 0 1 6.738286 7.908528 33.032104
254 0 1 6.804345 8.477838 33.869995
255 0 1 5.950616 8.678609 33.571716
256 0 1 5.376817 8.236360 34.128204
257 0 1 5.081437 7.566361 34.754089
258 0 1 5.881886 7.548619 35.268188
259 0 1 6.753606 7.410180 35.593689
260 0 1 7.331647 6.885240 35.015503
261 0 1 7.832097 6.521710 35.771393
262 0 1 7.795377 5.587640 35.379211
263 0 1 7.754266 4.674008 35.728394
264 0 1 8.484574 5.175271 36.073395
265 0 1 9.216657 5.460309 36.678192
266 0 1 9.691876 6.182851 37.027100
267 0 1 9.582776 6.541089 37.927399
268 0 1 9.816358 5.812169 38.558411
269 0 1 10.482518 5.271649 38.246887
270 0 1 11.425096 5.446500 37.907990
271 0 1 11.561597 6.155007 38.503998
272 0 1 10.732198 6.356328 38.883209
273 0 1 10.306676 7.240560 39.085999
274 0 1 10.787595 7.909909 39.586395
275 0 1 11.737596 8.143571 39.658112
276 0 1 11.601495 9.149041 39.601105
277 0 1 11.397897 10.078938 39.797302
278 0 1 11.298795 10.706338 38.995483
279 0 1 11.719396 11.572740 39.051697
280 0 1 11.272794 11.885041 38.289917
281 0 1 11.432096 11.592637 37.388184
282 0 1 11.927995 11.076039 37.925415
283 0 1 12.860494 11.171739 38.230713
284 0 1 13.118894 10.993840 37.332306
285 0 1 13.608998 11.841840 37.151489
286 0 1 13.046498 11.896939 36.357697
287 0 1 12.563897 12.529840 35.782104
288 0 1 12.359998 13.245038 35.167297
289 0 1 11.370095 13.011239 35.068695
290 0 1 11.343797 12.053338 35.024109
291 0 1 10.631997 11.834538 34.437805
292 0 1 9.613606 11.831437 34.470886
293 0 1 9.319104 12.686540 34.652802
294 0 1 8.961347 12.224938 35.396698
295 0 1 8.993718 12.220738 36.394409
296 0 1 9.586106 13.094541 36.385498
297 0 1 10.191827 13.874337 36.351593
298 0 1 10.780297 14.146939 37.127991
299 0 1 11.471295 14.744939 36.860687
300 0 1 12.275098 14.774640 37.388306
301 0 1 12.686498 15.257142 38.114594
302 0 1 12.543897 14.439340 38.591705
303 0 1 11.670094 14.071740 38.512085
304 0 1 11.110997 13.517140 37.989197
305 0 1 10.941495 13.109540 38.802307
306 0 1 11.293294 13.753640 39.443207
307 0 1 11.877496 14.307740 39.895294
308 0 1 11.578595 15.198037 40.000000
309 0 1 12.094895 15.508538 39.254913
310 0 1 12.642194 16.218338 39.609100
311 0 1 13.022195 16.628338 40.461700
312 0 1 12.582997 17.426739 40.860291
313 0 1 11.798997 17.929039 40.805695
314 0 1 11.790097 18.689041 41.407501
315 0 1 10.903497 19.083839 41.348389
316 0 1 10.312444 19.770439 41.470886
317 0 1 10.068086 20.577736 41.021301
318 0 1 9.201375 20.262337 41.380798
319 0 1 8.642064 21.019138 41.524902
320 0 1 8.762647 21.677139 42.206696
321 0 1 8.242005 22.231537 41.692688
322 0 1 7.765035 21.385536 41.759094
323 0 1 7.005876 21.204941 42.358398
324 0 1 6.982358 22.120338 42.480408
325 0 1 6.626615 22.381836 43.339203
326 0 1 7.007356 21.937340 44.074707
327 0 1 7.056565 22.510738 44.793091
328 0 1 6.775228 23.458939 44.857391
329 0 1 6.978787 23.447739 45.772797
330 0 1 7.773576 22.917038 45.906097
331 0 1 7.295617 22.120338 46.174896
332 0 1 7.239438 21.506538 45.346893
333 0 1 6.316476 21.281239 45.428894
334 0 1 5.811185 22.087837 45.795105
335 0 1 5.638387 22.670238 46.608795
336 0 1 5.402795 23.491837 47.047791
337 0 1 6.317784 23.439938 46.975006
338 0 1 6.429036 22.769836 47.686890
339 0 1 6.926766 22.918640 48.449707
340 0 1 7.695947 23.517036 48.466614
341 0 1 7.672956 23.962337 49.303711
342 0 1 8.494226 23.414139 49.343689
343 0 1 7.913796 22.920441 49.890198
344 0 1 8.137444 22.910339 50.934296
345 0 1 8.865438 23.530838 50.865692
346 0 1 8.920896 22.689838 50.290100
347 0 1 8.546716 21.863640 49.945587
348 0 1 9.374845 22.076836 49.399597
349 0 1 10.148488 22.241238 50.040405
350 0 1 9.564675 21.627937 50.437408
351 0 1 9.747567 21.769039 51.372101
352 0 1 10.650594 21.439739 51.480194
353 0 1 11.049397 20.888538 52.126495
354 0 1 10.378556 20.141239 52.233612
355 0 1 9.683816 20.586739 51.783997
356 0 1 8.956838 20.344738 52.367889
357 0 1 8.884347 19.430538 52.700989
358 0 1 8.697717 18.503136 52.713013
359 0 1 8.611867 17.697136 52.235107
360 0 1 9.583375 17.596741 52.153412
361 0 1 10.413106 17.036537 52.226410
362 0 1 10.477208 17.228241 53.182312
363 0 1 10.790795 16.552437 53.876404
364 0 1 9.981835 16.897938 54.252594
365 0 1 9.789105 16.078537 54.732605
366 0 1 10.206376 15.373338 54.189087
367 0 1 10.246816 14.558339 54.714203
368 0 1 10.856595 13.925939 55.170990
369 0 1 11.470796 14.147141 55.943298
370 0 1 11.212197 15.127038 55.904694
371 0 1 11.310994 14.827939 56.816406
372 0 1 11.934094 14.193440 57.265198
373 0 1 12.100095 13.716138 58.101196
374 0 1 11.737397 12.817040 58.112305
375 0 1 12.212396 12.047738 57.906891
376 0 1 12.330995 11.137139 58.152191
377 0 1 12.092595 10.732739 59.088806
378 0 1 12.593896 11.579938 59.282196
379 0 1 12.686894 12.444238 59.775208
380 0 1 11.921498 11.990541 60.123291
381 0 1 12.139195 11.011739 60.091095
382 0 1 12.484597 11.265840 60.958801
383 0 1 13.043096 12.092240 61.149414
384 0 1 12.541497 12.532739 61.817993
385 0 1 11.978498 13.224240 62.049988
386 0 1 12.334294 14.035039 62.513397
387 0 1 11.506997 14.475438 62.707214
388 0 1 11.683896 14.196240 61.720703
389 0 1 11.235696 13.562139 61.079285
390 0 1 10.365056 13.299138 61.446899
391 0 1 9.940606 13.150338 60.539917
392 0 1 9.032346 13.187840 60.063690
393 0 1 8.618775 12.481141 60.543488
394 0 1 8.769555 11.910840 61.233398
395 0 1 8.110826 11.270940 61.454010
396 0 1 7.122716 11.410840 61.591187
397 0 1 6.357274 10.764138 61.467590
398 0 1 5.901635 11.469838 61.872101
399 0 1 6.054837 11.907041 60.982391
400 0 1 5.164086 11.844239 60.729095
401 0 1 5.155705 11.065438 60.198212
402 0 1 5.844914 10.658738 59.600800
403 0 1 5.745694 10.634538 58.682495
404 0 1 5.050656 11.276139 58.817993
405 0 1 5.192815 12.165940 59.098389
406 0 1 5.775636 12.086240 58.376404
407 0 1 5.176835 12.518338 57.755615
408 0 1 4.413198 13.066739 57.769409
409 0 1 3.773015 12.876840 58.400208
410 0 1 3.158937 13.024838 59.259399
411 0 1 2.426076 13.350339 59.781189
412 0 1 1.711375 13.912438 59.748199
413 0 1 1.418361 14.281739 60.609406
414 0 1 2.321077 13.961141 60.624603
415 0 1 2.798227 13.628739 61.368713
416 0 1 3.701238 13.687840 61.583710
417 0 1 4.108296 14.343640 61.037598
418 0 1 4.014977 14.459237 60.077515
419 0 1 3.262456 14.714540 59.556213
420 0 1 3.168164 15.175241 58.706909
421 0 1 2.379815 14.675740 58.318207
422 0 1 2.077716 13.767140 58.247314
423 0 1 1.163337 14.081738 57.979706
424 0 1 0.567582 13.931539 57.241791
425 0 1 0.234489 14.897637 57.203186
426 0 1 -0.229625 14.417840 56.575592
427 0 1 -0.722125 13.797238 56.051208
428 0 1 -0.986403 13.321439 56.885498
429 0 1 -0.635533 12.456738 57.079193
430 0 1 -0.283784 11.530641 57.109192
431 0 1 -0.091767 10.691041 57.454193
432 0 1 -0.841544 10.416039 56.980804
433 0 1 -1.075614 11.094438 57.623596
434 0 1 -1.280133 10.866441 58.533905
435 0 1 -1.269503 10.823037 59.511414
436 0 1 -0.615125 10.750138 60.195312
437 0 1 -0.656964 9.851838 60.359100
438 0 1 -1.164523 9.645341 61.138397
439 0 1 -1.735064 9.029050 60.659607
440 0 1 -2.050404 9.720040 60.095795
441 0 1 -1.807593 9.766641 59.155609
442 0 1 -2.308373 10.553739 59.182190
443 0 1 -2.618684 11.375638 58.726898
444 0 1 -1.988234 11.963239 58.148315
445 0 1 -2.791863 12.383637 58.408600
446 0 1 -2.510283 13.118638 58.927399
447 0 1 -2.628854 13.363038 57.972900
448 0 1 -2.067973 13.295640 57.172211
449 0 1 -1.921134 13.781442 56.372498
450 0 1 -2.485783 13.066339 56.053589
451 0 1 -2.477895 12.357438 56.716095
452 0 1 -2.338355 11.425340 56.588593
453 0 1 -1.799254 11.265641 55.791290
454 0 1 -2.045045 11.681138 54.967712
455 0 1 -1.409304 12.232041 55.326294
456 0 1 -0.902015 12.000840 54.501801
457 0 1 -0.300025 11.960038 55.302002
458 0 1 0.315025 12.450837 55.901489
459 0 1 0.209125 13.211839 55.321808
460 0 1 -0.521785 13.788239 54.882385
461 0 1 -0.356284 14.735440 54.700409
462 0 1 -0.930995 15.000440 55.497009
463 0 1 -0.847264 15.794839 55.992706
464 0 1 -1.423613 15.874139 56.791901
465 0 1 -1.130543 15.979241 57.686707
466 0 1 -1.035924 16.518936 58.445404
467 0 1 -0.928883 17.478340 58.171387
468 0 1 -0.581815 17.664436 59.023499
469 0 1 -0.319192 18.136436 59.852905
470 0 1 -0.846293 18.064339 60.684692
471 0 1 -0.760625 17.525738 61.469604
472 0 1 -0.670314 18.284439 62.005707
473 0 1 -1.626643 18.134041 61.997711
474 0 1 -1.529824 18.971138 62.334900
475 0 1 -2.486773 18.783836 62.166901
476 0 1 -3.315215 19.289841 62.213806
477 0 1 -3.152003 20.047836 61.730103
478 0 1 -2.699673 20.075737 60.819611
479 0 1 -3.184714 19.718239 60.059814
480 0 1 -3.862494 19.094238 59.741608
481 0 1 -3.430344 18.680138 60.566101
482 0 1 -3.131104 17.767136 60.623199
483 0 1 -4.060233 17.628937 60.528809
484 0 1 -4.418004 17.164841 61.282013
485 0 1 -5.083613 17.258736 60.612701
486 0 1 -5.699994 17.823238 61.074310
487 0 1 -6.560744 17.519638 61.379089
488 0 1 -6.765273 18.385338 61.772705
489 0 1 -6.543694 18.253738 62.725311
490 0 1 -6.635144 17.480839 63.328796
491 0 1 -7.382443 17.116837 63.842010
492 0 1 -7.753493 16.482437 63.149292
493 0 1 -8.033725 15.611642 63.365784
494 0 1 -7.756213 14.730340 63.677307
495 0 1 -7.311923 14.091340 63.030792
496 0 1 -7.415683 13.326737 63.531403
497 0 1 -6.539254 13.040738 63.034790
498 0 1 -6.109164 12.650437 63.768494
499 0 1 -5.217854 12.965039 64.136505
500 0 1 -4.353175 12.574040 64.347198
501 0 1 -4.607385 12.117238 65.327087
502 0 1 -5.242755 11.476338 64.853210
503 0 1 -6.014554 10.959340 64.966003
504 0 1 -5.854125 11.185140 64.013000
505 0 1 -5.883004 11.268640 63.063507
506 0 1 -5.436553 10.390241 63.128784
507 0 1 -5.945634 9.925538 62.506714
508 0 1 -5.412234 10.517240 61.895905
509 0 1 -5.760425 10.695439 60.948303
510 0 1 -5.577445 9.757241 60.622589
511 0 1 -5.957355 8.962861 60.252014
512 0 1 -6.974944 9.077439 60.390106
513 0 1 -6.818274 8.174897 60.053497
514 0 1 -7.820193 8.054070 59.896301
515 0 1 -7.953513 8.528798 59.111084
516 0 1 -8.515353 8.225438 58.406799
517 0 1 -8.829505 9.174039 58.336212
518 0 1 -9.142934 9.835137 58.942017
519 0 1 -9.372174 9.147740 59.570312
520 0 1 -9.413905 8.273728 60.053711
521 0 1 -9.351794 7.418771 60.678406
522 0 1 -9.402545 6.626409 60.003296
523 0 1 -9.684505 5.669999 60.175995
524 0 1 -10.605105 5.425637 59.763794
525 0 1 -10.802505 5.499078 58.809296
526 0 1 -10.887603 5.919839 57.952789
527 0 1 -10.023404 6.174748 57.449402
528 0 1 -10.566405 5.614358 56.894592
529 0 1 -10.181605 5.554429 55.994293
530 0 1 -11.009303 5.066869 55.763794
531 0 1 -11.554704 5.300458 55.095490
532 0 1 -10.970603 4.672830 54.712708
533 0 1 -11.072005 3.836370 55.235809
534 0 1 -11.808703 3.573720 54.647888
535 0 1 -12.173705 3.782098 53.822998
536 0 1 -13.096503 4.151101 53.751892
537 0 1 -13.581805 3.494618 54.263184
538 0 1 -14.260204 4.157830 54.119598
539 0 1 -14.383504 4.240769 55.060211
540 0 1 -14.742105 3.348020 54.824890
541 0 1 -15.023504 2.553121 54.387390
542 0 1 -15.979403 2.817998 54.424316
543 0 1 -15.734504 3.729589 54.040710
544 0 1 -15.454804 4.626950 53.855591
545 0 1 -15.213404 4.095078 53.160309
546 0 1 -15.510203 3.506921 52.492096
547 0 1 -15.093404 2.718720 52.174011
548 0 1 -14.612504 3.537919 52.028992
549 0 1 -13.692405 3.555940 51.806793
550 0 1 -13.141303 2.848020 52.392883
551 0 1 -12.282104 2.403710 52.393188
552 0 1 -12.237905 1.901578 53.215302
553 0 1 -12.197005 1.119058 52.665497
554 0 1 -11.487105 0.524930 52.424805
555 0 1 -11.244304 0.407519 51.462097
556 0 1 -11.499804 1.019181 50.815399
557 0 1 -10.664405 1.237641 51.128296
558 0 1 -10.492604 1.393590 50.207397
559 0 1 -11.045005 2.059228 50.572693
560 0 1 -11.398604 2.661611 49.895111
561 0 1 -11.379905 3.390668 49.296204
562 0 1 -12.361804 3.235669 49.434998
563 0 1 -12.839604 3.986829 49.859802
564 0 1 -13.555903 3.255387 49.659088
565 0 1 -13.262305 2.323930 49.858490
566 0 1 -14.077504 2.148519 49.326202
567 0 1 -14.498504 2.367700 48.485596
568 0 1 -14.530604 2.973828 47.747498
569 0 1 -15.226504 3.530248 47.465088
570 0 1 -14.888404 3.253549 46.553406
571 0 1 -14.755704 4.189389 46.554016
572 0 1 -15.147704 5.031308 46.446106
573 0 1 -15.866303 4.399598 46.406311
574 0 1 -16.616604 4.195649 46.983093
575 0 1 -16.864403 3.700761 46.186493
576 0 1 -17.712204 3.739980 46.635010
577 0 1 -18.377502 3.206418 46.186188
578 0 1 -18.671904 2.866628 45.369690
579 0 1 -18.640903 1.934251 45.459991
580 0 1 -18.871803 1.834119 44.497101
581 0 1 -18.656603 2.667451 43.960815
582 0 1 -17.724804 2.977139 44.076111
583 0 1 -16.909504 2.846410 44.602692
584 0 1 -17.361303 1.975579 44.526794
585 0 1 -16.654903 1.931950 43.903809
586 0 1 -17.052902 1.123177 43.650696
587 0 1 -17.306303 1.912511 43.084106
588 0 1 -17.502403 1.306630 42.295898
589 0 1 -16.690002 0.820439 42.686401
590 0 1 -16.431704 1.681359 42.477905
591 0 1 -15.828004 0.984879 42.210693
592 0 1 -15.444304 1.850881 41.952301
593 0 1 -15.331404 2.052941 41.019989
594 0 1 -14.878104 1.350907 40.667603
595 0 1 -14.943104 1.219750 39.755310
596 0 1 -15.909104 1.220788 39.929016
597 0 1 -16.000402 0.595288 40.662994
598 0 1 -16.235903 0.152940 39.871216
599 0 1 -15.650905 -0.251689 39.256714
600 0 1 -14.736704 -0.207925 39.034912
601 0 1 -15.036404 -1.051099 38.718903
602 0 1 -15.875005 -1.209817 38.266998
603 0 1 -16.331404 -2.092210 38.019714
604 0 1 -16.968702 -2.369481 38.702698
605 0 1 -17.798903 -2.427991 39.233490
606 0 1 -17.437902 -2.524310 40.122314
607 0 1 -17.137503 -3.480601 40.130798
608 0 1 -16.151804 -3.332101 40.253998
609 0 1 -16.052603 -4.291800 40.234711
610 0 1 -15.941705 -4.363490 39.230499
611 0 1 -15.212204 -4.954381 39.370697
612 0 1 -14.371305 -4.771621 38.980286
613 0 1 -13.869504 -4.897431 38.160706
614 0 1 -13.365603 -5.536361 38.637085
615 0 1 -13.096305 -5.782561 39.523193
616 0 1 -13.776103 -5.138421 39.877686
617 0 1 -13.971604 -4.555202 40.572601
618 0 1 -14.882804 -4.582511 40.279510
619 0 1 -14.931705 -5.036811 41.164490
620 0 1 -15.133704 -5.019921 42.063293
621 0 1 -14.725404 -5.056491 42.978790
622 0 1 -13.897204 -5.509761 42.901917
623 0 1 -13.172305 -6.038621 43.133209
624 0 1 -13.662404 -5.833121 43.877411
625 0 1 -13.629203 -4.832021 43.948792
626 0 1 -13.362803 -3.989560 43.568909
627 0 1 -12.717803 -3.721271 44.307007
628 0 1 -11.997905 -3.613502 43.635193
629 0 1 -12.193305 -4.530070 43.703888
630 0 1 -12.716105 -4.992311 43.021484
631 0 1 -12.645104 -5.529931 42.236389
632 0 1 -12.455005 -6.512280 42.248810
633 0 1 -12.183404 -6.464480 41.346100
634 0 1 -11.303103 -6.698670 41.081207
635 0 1 -11.121505 -7.538671 41.495392
636 0 1 -10.907004 -8.481860 41.356598
637 0 1 -9.994304 -8.135871 41.366211
638 0 1 -9.183833 -8.658771 41.243896
639 0 1 -8.784133 -8.741521 40.405090
640 0 1 -8.479884 -7.839980 40.392090
641 0 1 -8.664973 -7.900870 39.481903
642 0 1 -8.875953 -8.743741 39.079895
643 0 1 -8.523635 -8.399331 38.200500
644 0 1 -8.339284 -7.588490 37.745911
645 0 1 -8.728494 -6.986171 37.050903
646 0 1 -8.770385 -6.133780 37.465698
647 0 1 -7.882844 -6.042581 37.320190
648 0 1 -7.089944 -5.537730 37.070892
649 0 1 -7.535314 -4.781190 37.468384
650 0 1 -7.138453 -4.349830 36.733002
651 0 1 -7.021735 -4.505021 35.715088
652 0 1 -6.493285 -5.134320 35.342194
653 0 1 -6.838655 -5.954991 35.032501
654 0 1 -7.697875 -5.726050 34.643005
655 0 1 -8.193315 -6.184590 35.416412
656 0 1 -7.859624 -7.099271 35.565704
657 0 1 -8.615573 -7.555171 35.880493
658 0 1 -9.410605 -7.032931 35.673187
659 0 1 -9.936805 -6.244891 35.846588
660 0 1 -10.673804 -6.357751 35.259705
661 0 1 -11.220904 -5.992101 34.548187
662 0 1 -11.397605 -6.577050 33.824890
663 0 1 -11.484904 -5.917630 33.103516
664 0 1 -11.074704 -6.390981 32.430115
665 0 1 -11.350005 -5.701961 31.775391
666 0 1 -11.050204 -6.520101 31.442902
667 0 1 -11.894404 -6.304521 31.036011
668 0 1 -12.460404 -7.069091 30.696198
669 0 1 -12.660304 -8.024371 30.743988
670 0 1 -13.066703 -8.546020 30.041016
671 0 1 -12.505704 -7.900210 29.642700
672 0 1 -12.687205 -8.588302 29.011810
673 0 1 -12.997405 -8.319520 28.053589
674 0 1 -13.500705 -7.507411 27.819305
675 0 1 -14.357404 -7.736171 27.403687
676 0 1 -14.502604 -7.081420 26.760406
677 0 1 -14.409304 -6.236920 27.159088
678 0 1 -14.838004 -6.537831 27.945404
679 0 1 -15.749104 -6.607162 27.862000
680 0 1 -16.275503 -6.240500 28.519287
681 0 1 -15.726005 -5.971740 29.200195
682 0 1 -16.356503 -5.173970 29.178711
683 0 1 -16.971804 -4.967851 29.886292
684 0 1 -17.908203 -5.021640 29.775787
685 0 1 -18.127304 -4.088601 29.955994
686 0 1 -18.327503 -3.177402 29.858215
687 0 1 -17.600603 -3.053531 30.502411
688 0 1 -17.486004 -3.972190 30.807495
689 0 1 -16.601503 -3.981700 31.109497
690 0 1 -16.236202 -4.597991 31.771301
691 0 1 -16.736603 -5.440400 31.566895
692 0 1 -16.931204 -5.660661 32.459503
693 0 1 -17.951704 -5.738990 32.451416
694 0 1 -18.885803 -5.777711 32.883698
695 0 1 -19.170004 -5.335860 33.684204
696 0 1 -18.578003 -5.905681 34.226288
697 0 1 -17.819803 -6.450610 34.087494
698 0 1 -18.125902 -6.683242 35.001801
699 0 1 -18.072504 -6.446280 35.945404
700 0 1 -17.130003 -6.611011 36.084808
701 0 1 -17.347504 -7.079532 36.839203
702 0 1 -16.752104 -7.822280 36.504395
703 0 1 -16.178303 -8.539231 36.623688
704 0 1 -16.710604 -8.695720 37.434998
705 0 1 -17.599604 -8.684711 37.144806
706 0 1 -17.976503 -9.563500 37.035004
707 0 1 -18.125504 -10.217170 37.770508
708 0 1 -17.313904 -9.863881 38.128204
709 0 1 -17.003704 -9.457862 38.976501
710 0 1 -17.245403 -8.488801 38.838593
711 0 1 -17.502104 -8.878171 39.683594
712 0 1 -16.767004 -9.405040 39.997986
713 0 1 -15.933503 -9.744361 40.356506
714 0 1 -16.464903 -9.677251 41.167603
715 0 1 -15.864003 -10.382022 41.258911
716 0 1 -15.564204 -10.747621 40.431793
717 0 1 -15.750804 -11.512761 39.853790
718 0 1 -15.254904 -12.135261 40.433899
719 0 1 -14.305604 -12.383761 40.492401
720 0 1 -13.789405 -12.568862 41.287506
721 0 1 -14.268504 -13.300059 40.971710
722 0 1 -13.504905 -13.354960 40.401306
723 0 1 -12.880603 -13.816062 40.967102
724 0 1 -12.620605 -13.609860 40.010498
725 0 1 -11.644103 -13.705562 40.000183
726 0 1 -11.055003 -13.073562 39.531708
727 0 1 -10.136304 -12.820060 39.133606
728 0 1 -9.454804 -13.113860 38.551086
729 0 1 -9.609204 -13.213759 37.618896
730 0 1 -8.679824 -13.369960 37.692291
731 0 1 -7.816695 -12.918361 37.890106
732 0 1 -7.526414 -12.148261 38.433594
733 0 1 -7.366673 -12.201060 39.409698
734 0 1 -6.720763 -11.924861 40.047394
735 0 1 -5.868474 -12.115760 40.595886
736 0 1 -5.338914 -12.475360 39.880310
737 0 1 -4.568994 -12.081962 40.380310
738 0 1 -3.853783 -12.694261 40.653015
739 0 1 -3.076134 -12.966262 40.137909
740 0 1 -2.344544 -12.315560 40.336792
741 0 1 -1.723914 -12.904059 40.664185
742 0 1 -1.700833 -13.268661 39.753510
743 0 1 -2.474894 -13.269259 39.244110
744 0 1 -1.659255 -13.181361 38.694489
745 0 1 -2.114613 -12.728061 37.987000
746 0 1 -1.569903 -11.878661 37.986603
747 0 1 -1.558083 -11.477561 37.089813
748 0 1 -2.104153 -11.092662 36.418610
749 0 1 -1.698495 -10.241881 36.305786
750 0 1 -1.552964 -9.530480 36.876404
751 0 1 -0.736174 -10.033980 37.091095
752 0 1 -0.058465 -9.899430 36.383301
753 0 1 0.849145 -9.462932 36.433289
754 0 1 1.047231 -9.450141 35.471191
755 0 1 1.453790 -10.220710 35.888000
756 0 1 2.067037 -10.941260 36.183899
757 0 1 1.750036 -10.396640 37.009491
758 0 1 0.811931 -10.853311 36.941589
759 0 1 0.686004 -11.842860 36.830292
760 0 1 -0.152919 -11.522561 37.336090
761 0 1 -0.337981 -12.479461 37.276093
762 0 1 0.002345 -13.054259 36.623901
763 0 1 0.881847 -13.374160 36.393311
764 0 1 1.326907 -13.763560 37.123505
765 0 1 1.625457 -14.741860 37.090393
766 0 1 2.495145 -15.099061 36.990692
767 0 1 2.304944 -15.550361 36.208008
768 0 1 1.615667 -15.364760 35.581909
769 0 1 1.909126 -15.994261 34.929413
770 0 1 1.715516 -16.546661 35.709808
771 0 1 2.679685 -16.583961 35.597900
772 0 1 3.144365 -17.284962 35.158997
773 0 1 3.945707 -16.777361 35.536316
774 0 1 3.588468 -16.380661 36.341614
775 0 1 4.001946 -15.863861 36.986511
776 0 1 4.833097 -16.318361 36.830994
777 0 1 5.523656 -15.598761 37.052002
778 0 1 5.473927 -15.052461 36.286804
779 0 1 5.639157 -14.211560 36.653809
780 0 1 5.980374 -13.289561 36.703491
781 0 1 6.708016 -13.315061 37.402496
782 0 1 7.196435 -14.057460 37.199585
783 0 1 7.567567 -14.470561 37.986603
784 0 1 8.339887 -15.018361 38.167786
785 0 1 8.544698 -14.499261 38.983490
786 0 1 8.949376 -13.721961 38.678192
787 0 1 8.215966 -13.416659 39.204895