LAMMPS data file via MDAnalysis

        2000  atoms
        1999  bonds
           0  angles
           0  dihedrals
           0  impropers

           1  atom types
           1  bond types
           0  angle types
           0  dihedral types
           0  improper types

-30.5 30.5 xlo xhi
-30.5 30.5 ylo yhi
-233.5 233.5 zlo zhi


Masses

1 1.000000

Atoms

1 0 1 14.731946 6.505850 48.879395
2 0 1 15.197347 5.942129 49.593384
3 0 1 15.584844 6.335527 50.397217
4 0 1 14.968946 5.781569 50.955505
5 0 1 15.586946 5.209917 50.481812
6 0 1 16.031246 4.433237 50.103516
7 0 1 15.096044 4.044916 50.000000
8 0 1 14.267945 3.535647 49.943115
9 0 1 14.370446 2.612969 50.241302
10 0 1 13.560845 2.937748 50.502594
11 0 1 13.099248 3.601259 51.152405
12 0 1 13.043447 4.366377 51.701996
13 0 1 12.351945 3.936720 52.285889
14 0 1 11.834046 4.017397 51.470612
15 0 1 12.136746 4.231730 50.532898
16 0 1 11.457845 4.830267 50.712585
17 0 1 10.738545 5.306898 51.060608
18 0 1 10.017247 5.262449 50.384003
19 0 1 10.833547 5.367987 49.697815
20 0 1 10.537145 4.573999 49.262512
21 0 1 10.446546 4.167898 48.367889
22 0 1 10.582345 3.690947 47.516296
23 0 1 10.641248 4.626997 47.517700
24 0 1 10.906446 5.364599 46.914612
25 0 1 10.094747 5.062918 46.393494
26 0 1 9.171445 4.856977 46.625610
27 0 1 9.430345 3.934538 46.767303
28 0 1 8.484044 3.808607 46.772308
29 0 1 8.221547 2.887839 47.010803
30 0 1 7.319664 2.601038 47.147308
31 0 1 7.150464 3.365748 46.550995
32 0 1 6.743153 3.295359 45.660400
33 0 1 7.301995 2.504820 45.852203
34 0 1 6.669293 2.026451 46.350403
35 0 1 5.899804 2.465052 46.123688
36 0 1 5.200497 2.557575 46.771606
37 0 1 5.429265 3.054268 47.630096
38 0 1 5.580315 3.700758 48.377502
39 0 1 6.046673 4.536608 48.588013
40 0 1 6.608864 4.961939 49.235809
41 0 1 6.428067 4.973467 50.169800
42 0 1 6.506497 4.361738 50.871704
43 0 1 7.298016 4.141779 51.431000
44 0 1 7.203793 3.461287 50.782990
45 0 1 7.218445 3.146189 49.889893
46 0 1 7.951645 2.472492 49.744202
47 0 1 8.234445 2.143709 50.614014
48 0 1 7.907414 1.708511 51.420898
49 0 1 8.442044 1.135323 50.869507
50 0 1 9.314046 0.769419 50.921112
51 0 1 9.327046 -0.223501 50.852112
52 0 1 9.462445 -1.151232 50.770508
53 0 1 8.854344 -1.836162 50.862610
54 0 1 9.645345 -2.249622 51.306885
55 0 1 10.242547 -1.553001 51.593201
56 0 1 10.654447 -2.273422 51.993713
57 0 1 10.733144 -3.167112 51.721405
58 0 1 11.571248 -2.897722 52.175995
59 0 1 12.419248 -2.539741 52.145905
60 0 1 12.943147 -3.130142 51.682098
61 0 1 13.975247 -3.155132 51.734192
62 0 1 14.042447 -3.142721 52.761902
63 0 1 14.599446 -2.417492 52.743103
64 0 1 15.272447 -2.963651 53.216309
65 0 1 15.172845 -3.876661 53.407288
66 0 1 15.952546 -3.986261 52.865387
67 0 1 15.632947 -4.866352 53.309509
68 0 1 15.412244 -5.429033 52.621216
69 0 1 15.997243 -5.962831 52.074188
70 0 1 15.818944 -6.842993 51.833893
71 0 1 15.175447 -6.711212 51.091614
72 0 1 15.529347 -7.191782 50.335510
73 0 1 16.043945 -7.759611 49.852509
74 0 1 15.205647 -7.905102 49.396912
75 0 1 14.525945 -8.242872 49.963013
76 0 1 15.379346 -8.470642 50.462799
77 0 1 15.315545 -9.031343 51.246613
78 0 1 15.405847 -9.646442 52.044891
79 0 1 16.244946 -9.675142 51.533600
80 0 1 16.384144 -8.960943 50.905212
81 0 1 17.275745 -9.064842 51.181702
82 0 1 17.309345 -9.969242 50.889191
83 0 1 18.250942 -10.267141 50.747711
84 0 1 19.044544 -9.685242 50.710907
85 0 1 19.848946 -10.180643 50.471802
86 0 1 20.371143 -9.323843 50.287903
87 0 1 20.388844 -8.594742 50.876190
88 0 1 20.758144 -7.717712 50.697998
89 0 1 19.961945 -7.621012 51.307190
90 0 1 19.329945 -7.924582 50.628998
91 0 1 18.621143 -7.392183 50.974213
92 0 1 18.280544 -8.172873 51.351410
93 0 1 18.306644 -8.365202 50.373413
94 0 1 18.916843 -8.473242 49.669403
95 0 1 19.388546 -9.208643 49.266205
96 0 1 19.609344 -8.413042 48.757202
97 0 1 19.193645 -7.502981 48.602295
98 0 1 18.729645 -6.965563 47.963287
99 0 1 18.552647 -7.785101 47.647217
100 0 1 19.256145 -8.457441 47.485596
101 0 1 19.422844 -9.195642 46.919403
102 0 1 19.904945 -9.465042 47.715210
103 0 1 19.152245 -10.091543 47.605591
104 0 1 18.725643 -10.480143 48.392303
105 0 1 18.242443 -11.195143 48.741089
106 0 1 18.015545 -12.067142 48.346802
107 0 1 17.460144 -12.087641 49.115692
108 0 1 16.826744 -12.803442 49.407593
109 0 1 16.249844 -13.438442 49.683594
110 0 1 15.789746 -13.177342 48.865295
111 0 1 15.200543 -12.960142 48.162811
112 0 1 14.434445 -12.517042 47.813293
113 0 1 14.145848 -12.439142 46.917297
114 0 1 13.253945 -12.339142 46.403015
115 0 1 12.536447 -12.601742 46.964111
116 0 1 12.548547 -11.719742 47.360901
117 0 1 12.534745 -12.319643 48.103790
118 0 1 11.535645 -12.288141 48.133789
119 0 1 10.697347 -12.197742 48.592407
120 0 1 9.820947 -11.893744 48.147705
121 0 1 8.948644 -11.681143 48.368195
122 0 1 8.023347 -11.658743 48.264008
123 0 1 8.098348 -12.029442 47.338684
124 0 1 8.959348 -11.723341 47.064789
125 0 1 9.734044 -11.456541 46.539001
126 0 1 10.330247 -10.967443 45.919098
127 0 1 10.932546 -10.499643 46.515900
128 0 1 11.177747 -9.680742 46.940887
129 0 1 12.096845 -9.630142 47.123505
130 0 1 11.893945 -10.156542 46.300690
131 0 1 12.337846 -10.912142 45.921204
132 0 1 12.085744 -11.111341 45.053101
133 0 1 12.194345 -11.991343 45.463104
134 0 1 11.640843 -12.716742 45.677399
135 0 1 12.494645 -13.061042 45.445099
136 0 1 12.650346 -13.648643 44.652893
137 0 1 12.472547 -12.945542 43.975891
138 0 1 12.114747 -12.099443 43.782715
139 0 1 11.554646 -12.816343 43.342407
140 0 1 11.497144 -12.146143 42.617310
141 0 1 12.160447 -12.370642 41.970215
142 0 1 12.162244 -13.264242 41.551086
143 0 1 12.395547 -14.190242 41.468201
144 0 1 12.290147 -14.822243 40.735504
145 0 1 13.071046 -14.593042 40.164398
146 0 1 13.843946 -14.852642 39.551910
147 0 1 14.253644 -15.506042 40.060211
148 0 1 14.807843 -15.193243 40.747589
149 0 1 14.919946 -14.723343 41.680389
150 0 1 14.766347 -13.758142 41.734894
151 0 1 14.427243 -13.076242 41.154114
152 0 1 13.940545 -12.282743 40.847412
153 0 1 13.731046 -11.824541 40.026306
154 0 1 13.592847 -11.774343 39.000610
155 0 1 13.274144 -10.969641 38.537506
156 0 1 13.223046 -10.102541 38.872803
157 0 1 12.350545 -10.334942 38.789703
158 0 1 11.377847 -10.088343 38.792786
159 0 1 11.316846 -10.445341 39.672913
160 0 1 11.472745 -11.060843 40.365112
161 0 1 11.509244 -10.527842 41.189789
162 0 1 11.107846 -9.805643 40.677704
163 0 1 11.389146 -9.548243 41.626709
164 0 1 11.562646 -8.710241 41.071411
165 0 1 11.962945 -8.156122 41.718292
166 0 1 12.150346 -7.174862 41.518402
167 0 1 13.089246 -7.060322 41.341095
168 0 1 13.033845 -7.722521 40.620911
169 0 1 13.593244 -7.492933 39.794098
170 0 1 13.705144 -6.549883 40.073303
171 0 1 14.024648 -6.590502 41.039490
172 0 1 13.483247 -5.787191 41.387512
173 0 1 13.111245 -4.931622 41.572388
174 0 1 13.559644 -4.168383 41.256592
175 0 1 13.776044 -3.291052 40.801514
176 0 1 13.412847 -2.748873 40.070587
177 0 1 12.671044 -2.114002 39.977112
178 0 1 12.471147 -1.904503 39.027100
179 0 1 12.449147 -2.810732 39.187805
180 0 1 11.831246 -2.559992 38.436401
181 0 1 11.768445 -2.142332 37.600586
182 0 1 11.440648 -1.592213 36.907410
183 0 1 11.034947 -0.911392 36.304810
184 0 1 10.456845 -0.264452 36.687500
185 0 1 10.590146 0.692379 36.791504
186 0 1 10.524346 1.559559 37.101196
187 0 1 11.039044 2.367804 37.340210
188 0 1 11.756948 2.202406 36.720795
189 0 1 12.354745 2.938458 36.720306
190 0 1 13.004247 2.594799 37.354492
191 0 1 12.735646 3.381888 37.721405
192 0 1 11.792047 3.181879 37.818207
193 0 1 11.350846 3.504896 37.084198
194 0 1 11.535146 4.413378 36.718292
195 0 1 11.777547 3.788477 36.057800
196 0 1 12.314446 3.308977 35.398010
197 0 1 13.147748 3.684389 34.949890
198 0 1 13.274648 4.649019 34.807404
199 0 1 12.703748 5.376169 34.437012
200 0 1 12.608346 4.715559 33.687195
201 0 1 11.863046 4.331499 33.186584
202 0 1 11.275647 4.334589 32.462799
203 0 1 10.555245 3.912928 31.945984
204 0 1 10.176145 3.973288 32.781494
205 0 1 10.356545 4.925589 32.591003
206 0 1 9.862947 5.563829 33.181213
207 0 1 9.069245 5.557009 32.691895
208 0 1 8.571145 6.002798 33.432495
209 0 1 8.999043 6.505888 34.128296
210 0 1 9.216245 6.831839 33.208710
211 0 1 9.127946 7.046000 32.163086
212 0 1 8.398244 6.771677 31.607391
213 0 1 8.088746 6.196547 32.278687
214 0 1 8.042047 7.174696 32.566895
215 0 1 8.014745 7.944387 33.172089
216 0 1 7.526085 8.457098 32.536011
217 0 1 6.871087 8.806749 33.208588
218 0 1 7.229935 9.708857 33.010315
219 0 1 7.628586 10.596319 32.911591
220 0 1 8.411447 10.377569 33.442413
221 0 1 8.806046 10.855536 32.786011
222 0 1 9.285848 11.612658 32.533905
223 0 1 8.827546 12.474459 32.315399
224 0 1 7.894894 12.186857 32.318512
225 0 1 6.961094 11.931158 32.424500
226 0 1 6.652634 12.831160 32.474304
227 0 1 6.764737 13.714258 32.840607
228 0 1 6.087483 14.345758 32.957703
229 0 1 5.342064 14.951357 32.957092
230 0 1 4.608155 15.456656 32.654510
231 0 1 4.025174 15.805059 33.343689
232 0 1 3.840035 15.656157 34.271301
233 0 1 3.382966 15.996157 35.070984
234 0 1 3.702557 15.135958 35.392792
235 0 1 3.690385 14.304457 35.839508
236 0 1 3.770257 13.649057 35.123108
237 0 1 2.963986 14.016657 34.804688
238 0 1 2.253537 13.444258 35.188599
239 0 1 2.897835 12.925158 35.694489
240 0 1 3.448075 12.430357 35.067688
241 0 1 3.151395 11.658957 35.487213
242 0 1 2.261494 11.572157 35.783691
243 0 1 2.032346 11.310747 36.643707
244 0 1 1.712327 10.475958 36.300812
245 0 1 0.904545 10.921259 36.590210
246 0 1 0.342557 11.612059 36.877686
247 0 1 -0.068736 12.267759 37.408600
248 0 1 0.167084 13.174856 37.179108
249 0 1 -0.747714 13.199858 37.581390
250 0 1 -1.318117 13.018259 36.797089
251 0 1 -1.350147 12.359056 36.098816
252 0 1 -1.914749 11.587557 35.971313
253 0 1 -2.867982 11.395987 35.900696
254 0 1 -2.670943 10.987959 36.859985
255 0 1 -2.372506 9.973700 37.008484
256 0 1 -1.697154 9.508127 36.490692
257 0 1 -1.420480 9.416677 35.545410
258 0 1 -1.256717 9.075788 34.671387
259 0 1 -1.179016 8.133829 34.467896
260 0 1 -1.324510 7.486670 35.178894
261 0 1 -1.897033 8.209990 35.458893
262 0 1 -2.890428 8.276628 35.633911
263 0 1 -2.515859 8.834299 34.898590
264 0 1 -2.390710 9.144426 33.999817
265 0 1 -1.760219 9.824389 34.048401
266 0 1 -2.153194 10.598467 33.554199
267 0 1 -1.437271 10.144808 33.036591
268 0 1 -0.571384 10.194349 32.641510
269 0 1 0.270997 9.837210 32.267609
270 0 1 1.007805 9.622686 31.671814
271 0 1 1.159455 10.222319 32.441589
272 0 1 1.011593 11.172407 32.715393
273 0 1 1.428876 11.420038 31.887604
274 0 1 0.959805 11.108507 31.147186
275 0 1 0.961217 11.431967 30.170990
276 0 1 1.855305 11.102709 30.556793
277 0 1 2.231457 11.688257 29.874512
278 0 1 1.854825 10.763060 29.666199
279 0 1 1.365265 10.541227 28.862915
280 0 1 0.419667 10.486090 28.841187
281 0 1 0.351536 9.709948 28.218994
282 0 1 0.964406 9.958227 27.506287
283 0 1 1.772317 10.259287 27.138306
284 0 1 2.088326 10.491560 28.106110
285 0 1 2.533555 11.254080 28.562500
286 0 1 3.141537 11.149778 29.297791
287 0 1 4.070736 11.435850 29.429901
288 0 1 4.840165 11.081869 29.868103
289 0 1 4.463334 10.412287 30.572906
290 0 1 4.585206 9.631186 31.076416
291 0 1 3.805295 9.114969 30.786591
292 0 1 4.154267 8.726439 29.981598
293 0 1 4.311985 8.462149 29.080811
294 0 1 4.656704 7.879839 28.281403
295 0 1 4.663617 7.255278 29.010712
296 0 1 3.968877 7.684637 29.590393
297 0 1 3.142384 7.192976 29.810394
298 0 1 2.497056 7.539148 30.396210
299 0 1 2.055547 8.100256 29.728790
300 0 1 1.591836 8.088156 28.868103
301 0 1 0.967217 7.388479 28.814392
302 0 1 1.606137 6.720137 29.003906
303 0 1 0.785527 6.458937 29.355988
304 0 1 0.306325 5.641287 29.548706
305 0 1 0.154977 4.694746 29.583008
306 0 1 -0.211994 3.911097 30.144897
307 0 1 -0.929035 4.365297 29.681793
308 0 1 -0.359825 3.826937 29.088013
309 0 1 -0.784114 3.267187 28.397003
310 0 1 -0.330314 4.009657 27.984192
311 0 1 0.266545 3.505778 27.345215
312 0 1 0.789876 4.241838 27.875397
313 0 1 1.454545 3.584887 27.628113
314 0 1 0.893765 2.849207 27.855408
315 0 1 1.582295 2.594816 28.474609
316 0 1 1.782555 3.109968 29.246094
317 0 1 2.522187 2.544039 29.162201
318 0 1 2.924817 3.458906 29.316803
319 0 1 2.726956 4.388968 29.292206
320 0 1 3.687314 4.688276 29.500000
321 0 1 4.354836 5.355799 29.267609
322 0 1 4.044796 6.268820 29.393402
323 0 1 4.553475 5.990778 30.167694
324 0 1 4.742417 6.535330 30.961395
325 0 1 4.686036 6.622107 31.894989
326 0 1 5.030995 6.877398 32.765503
327 0 1 5.834095 7.458818 32.773895
328 0 1 5.148884 8.043966 32.544617
329 0 1 4.154637 7.898779 32.747711
330 0 1 3.575085 8.142939 33.454895
331 0 1 2.636636 8.123747 33.007599
332 0 1 2.808545 7.395536 33.611084
333 0 1 2.735924 7.370298 34.545807
334 0 1 2.531247 6.652689 35.225189
335 0 1 3.211156 6.627157 35.940796
336 0 1 2.529134 6.650389 36.661407
337 0 1 3.009457 6.249029 37.404999
338 0 1 3.246255 6.394777 38.316101
339 0 1 3.766915 5.897367 38.912994
340 0 1 4.458104 5.227858 39.071716
341 0 1 5.142144 4.574568 39.384094
342 0 1 6.132756 4.489218 38.989410
343 0 1 5.934395 3.824877 38.334503
344 0 1 5.016976 3.509707 38.520508
345 0 1 4.100594 3.275278 38.465393
346 0 1 3.368687 2.912178 39.030792
347 0 1 2.451443 3.067549 38.801392
348 0 1 2.746655 3.079317 37.875092
349 0 1 3.394185 3.368799 37.143311
350 0 1 3.310006 2.903628 36.270813
351 0 1 4.105053 2.637238 35.725098
352 0 1 3.825627 1.970791 36.438110
353 0 1 3.660775 1.327879 37.161194
354 0 1 2.872685 0.842928 37.319397
355 0 1 3.080327 0.073248 37.813904
356 0 1 3.478764 -0.723673 37.407715
357 0 1 4.322705 -1.054102 36.967804
358 0 1 4.327725 -2.001302 37.021912
359 0 1 5.040757 -2.673212 36.820404
360 0 1 5.639615 -3.370132 37.197296
361 0 1 4.978985 -4.073162 36.869507
362 0 1 4.773835 -5.024872 36.982300
363 0 1 3.999116 -5.080393 37.654297
364 0 1 3.430936 -5.904161 37.814789
365 0 1 3.394387 -6.723581 38.281006
366 0 1 2.836144 -6.781931 37.458405
367 0 1 3.049527 -6.787111 36.546692
368 0 1 3.760815 -6.352152 35.979889
369 0 1 3.397416 -5.530031 36.235992
370 0 1 2.908726 -5.365782 35.380188
371 0 1 2.270257 -6.093212 35.182800
372 0 1 2.152825 -5.204561 34.760193
373 0 1 2.199784 -5.344791 33.785187
374 0 1 3.046025 -5.586283 34.254303
375 0 1 3.184094 -5.504063 33.316010
376 0 1 3.286404 -5.415401 32.392303
377 0 1 4.183564 -5.743212 32.691406
378 0 1 4.313115 -4.822262 32.813812
379 0 1 4.872227 -5.057302 32.113403
380 0 1 5.687554 -5.437332 32.319702
381 0 1 5.908005 -4.413773 32.487915
382 0 1 6.322537 -3.647352 32.925507
383 0 1 6.677006 -3.562502 33.757812
384 0 1 6.997967 -4.053621 34.431305
385 0 1 7.538865 -4.605711 35.067413
386 0 1 8.299047 -4.276472 34.655701
387 0 1 8.251447 -3.361671 34.874603
388 0 1 8.300244 -3.122102 35.833191
389 0 1 8.626447 -2.232561 35.921204
390 0 1 9.075948 -2.660461 36.608093
391 0 1 9.161145 -3.359482 37.262390
392 0 1 8.491246 -3.859213 36.769012
393 0 1 8.223645 -4.708971 37.141602
394 0 1 8.542645 -5.514982 36.777802
395 0 1 7.960248 -5.821321 37.473083
396 0 1 7.301236 -5.289682 37.809998
397 0 1 7.020676 -5.772423 36.946289
398 0 1 6.800324 -6.690382 37.100098
399 0 1 7.451676 -6.543892 36.407990
400 0 1 8.163945 -6.966913 36.957794
401 0 1 7.556866 -7.766142 37.064606
402 0 1 6.868824 -7.787352 37.712097
403 0 1 6.484395 -8.617243 37.953705
404 0 1 6.606564 -9.370241 37.355713
405 0 1 6.866955 -10.256042 37.458191
406 0 1 6.043366 -10.591341 37.853302
407 0 1 5.219517 -11.035643 37.354004
408 0 1 5.839497 -10.891842 36.639191
409 0 1 6.323147 -11.678143 36.433197
410 0 1 7.184895 -12.162443 36.353516
411 0 1 7.714734 -11.799143 35.635101
412 0 1 7.667664 -10.856443 35.819397
413 0 1 6.864945 -11.132742 35.320496
414 0 1 7.014317 -10.382143 34.688690
415 0 1 7.979645 -10.564342 34.493408
416 0 1 7.619675 -11.249243 33.868591
417 0 1 8.361947 -10.863443 33.338989
418 0 1 7.984345 -10.418642 32.511200
419 0 1 8.694943 -9.879042 32.208008
420 0 1 7.940545 -9.551542 31.761810
421 0 1 7.627015 -8.578642 31.575500
422 0 1 7.058476 -8.581743 32.321503
423 0 1 7.278424 -7.617693 32.427612
424 0 1 6.930085 -7.633102 31.499908
425 0 1 6.476315 -6.959902 31.939087
426 0 1 7.264885 -6.535803 31.462891
427 0 1 7.492077 -5.788242 30.861298
428 0 1 6.842637 -5.725191 30.202789
429 0 1 7.519364 -6.207142 29.703308
430 0 1 8.028245 -6.722742 29.085907
431 0 1 7.273346 -7.267612 28.706604
432 0 1 7.787434 -7.865852 28.132111
433 0 1 6.865334 -8.218863 27.964600
434 0 1 7.090825 -8.347942 28.890015
435 0 1 6.522694 -8.954542 29.393097
436 0 1 7.321274 -8.883741 29.915314
437 0 1 8.269948 -8.933142 29.738403
438 0 1 8.474248 -9.834341 29.857086
439 0 1 8.388146 -10.292742 29.002808
440 0 1 8.775247 -11.156542 28.734009
441 0 1 9.737947 -11.265442 28.615814
442 0 1 10.090444 -11.769541 27.800293
443 0 1 10.863446 -12.049242 27.163086
444 0 1 10.074147 -12.355642 26.797211
445 0 1 10.555745 -13.077743 27.137909
446 0 1 11.395844 -13.378042 27.467712
447 0 1 11.272046 -14.154742 28.126709
448 0 1 11.368146 -14.268142 29.052094
449 0 1 11.690545 -14.207542 29.957703
450 0 1 11.062848 -13.516242 30.222107
451 0 1 10.728444 -12.913342 30.860413
452 0 1 10.326947 -12.040342 31.011108
453 0 1 9.653146 -12.017742 31.655304
454 0 1 9.497746 -11.056143 31.605804
455 0 1 10.254945 -10.508142 31.965912
456 0 1 9.867745 -10.572342 32.917389
457 0 1 10.136144 -11.424543 33.385406
458 0 1 10.760846 -11.736042 34.069397
459 0 1 11.489644 -11.251442 34.569885
460 0 1 11.324746 -11.584442 35.430511
461 0 1 10.391248 -11.509043 35.734406
462 0 1 10.075246 -12.375143 35.924011
463 0 1 9.176847 -12.265842 35.686188
464 0 1 8.953046 -12.727142 36.528900
465 0 1 8.448644 -13.035742 35.812408
466 0 1 8.362145 -13.365542 34.930389
467 0 1 7.838055 -14.142242 34.568695
468 0 1 7.083287 -14.516943 35.006714
469 0 1 6.269543 -15.031242 34.857483
470 0 1 5.359795 -15.240042 34.894104
471 0 1 5.414795 -14.898441 35.761292
472 0 1 5.372433 -14.457743 36.667297
473 0 1 4.547837 -14.734142 37.225708
474 0 1 5.075745 -14.158342 37.830688
475 0 1 4.199395 -13.855642 38.029205
476 0 1 3.815724 -14.717342 38.108704
477 0 1 3.987553 -15.588642 37.779907
478 0 1 3.770455 -15.920942 38.617615
479 0 1 4.005177 -16.748343 39.039398
480 0 1 3.571736 -17.337742 39.680786
481 0 1 2.681615 -17.031443 39.605713
482 0 1 2.557656 -16.860641 40.512390
483 0 1 1.646565 -16.603642 40.592407
484 0 1 0.858727 -16.763943 41.123108
485 0 1 0.196854 -16.688643 40.377106
486 0 1 -0.270915 -15.843943 39.998108
487 0 1 0.068715 -16.532242 39.365692
488 0 1 -0.724765 -16.697042 38.903290
489 0 1 -1.719673 -16.924143 38.773499
490 0 1 -1.232351 -17.754742 38.944702
491 0 1 -0.831504 -17.833342 38.010986
492 0 1 -0.305274 -18.468443 38.414703
493 0 1 0.282044 -18.468742 37.564789
494 0 1 0.279946 -18.994041 36.681488
495 0 1 -0.492133 -18.260841 36.785492
496 0 1 -0.542766 -18.148743 35.813690
497 0 1 0.114617 -18.326443 35.085297
498 0 1 0.620747 -18.494442 34.347412
499 0 1 0.440556 -17.663643 33.915802
500 0 1 1.131497 -17.223742 33.344391
501 0 1 0.642247 -16.787842 32.687897
502 0 1 1.567013 -16.476442 32.736603
503 0 1 1.811265 -15.978441 31.879211
504 0 1 1.638466 -15.849342 30.921692
505 0 1 1.540627 -15.022142 30.521301
506 0 1 1.176015 -14.228742 30.126587
507 0 1 1.796254 -13.965242 29.424713
508 0 1 2.643075 -13.527942 29.266998
509 0 1 2.248914 -13.231742 30.097809
510 0 1 2.763257 -14.073842 30.196503
511 0 1 2.827214 -13.908542 31.174194
512 0 1 3.053548 -14.518843 31.927185
513 0 1 2.181416 -14.109343 31.990112
514 0 1 1.267167 -14.116942 31.775299
515 0 1 0.430897 -14.107442 31.335388
516 0 1 -0.142173 -14.856342 31.508392
517 0 1 -0.419856 -15.171143 32.395508
518 0 1 -1.118331 -15.513641 31.833893
519 0 1 -1.395189 -14.552341 31.682800
520 0 1 -1.466672 -14.432041 32.607697
521 0 1 -1.536966 -15.007341 33.279510
522 0 1 -2.456262 -15.119642 32.784698
523 0 1 -2.858892 -15.600243 32.078308
524 0 1 -3.000568 -15.093142 31.203491
525 0 1 -3.139005 -14.090042 31.169006
526 0 1 -3.239305 -14.393043 30.221008
527 0 1 -4.061225 -14.662842 30.774994
528 0 1 -4.887935 -14.994541 31.179504
529 0 1 -4.651485 -15.815243 30.791901
530 0 1 -4.286705 -16.384142 31.504486
531 0 1 -4.878854 -17.021442 31.864197
532 0 1 -4.645654 -16.797441 32.813202
533 0 1 -4.902915 -17.604942 33.287292
534 0 1 -5.752306 -17.319242 32.817017
535 0 1 -6.521974 -16.818243 32.989288
536 0 1 -5.765434 -16.237541 32.694702
537 0 1 -6.095905 -15.524841 32.132996
538 0 1 -5.977184 -14.499542 31.892487
539 0 1 -5.317144 -14.003842 31.490814
540 0 1 -5.874916 -13.510942 30.891602
541 0 1 -6.696365 -13.586742 30.283691
542 0 1 -7.516635 -13.983742 30.515289
543 0 1 -7.754995 -14.840141 30.139801
544 0 1 -7.943965 -15.461443 29.369904
545 0 1 -7.108715 -15.671041 29.740601
546 0 1 -6.631635 -16.201643 30.423492
547 0 1 -6.448326 -16.614742 29.576599
548 0 1 -7.342445 -17.065641 29.426300
549 0 1 -7.092975 -17.923443 28.977905
550 0 1 -7.648454 -18.006943 28.173096
551 0 1 -8.171985 -17.249342 27.708588
552 0 1 -8.697635 -16.579342 28.112396
553 0 1 -9.131204 -15.709742 27.966187
554 0 1 -9.646014 -16.273441 27.345215
555 0 1 -10.461383 -16.150442 27.841400
556 0 1 -10.637784 -15.157541 27.846008
557 0 1 -10.569785 -14.164642 27.705811
558 0 1 -10.525704 -14.169043 26.699493
559 0 1 -10.646205 -14.402943 25.841614
560 0 1 -11.181584 -13.832942 25.298096
561 0 1 -11.135814 -13.171442 24.605103
562 0 1 -10.503684 -13.261542 23.868805
563 0 1 -10.152663 -14.117642 23.550812
564 0 1 -9.717584 -14.901342 23.064209
565 0 1 -9.951154 -15.832441 23.286194
566 0 1 -10.050134 -15.977242 22.342499
567 0 1 -9.115144 -15.795242 22.076294
568 0 1 -8.986554 -16.761642 22.259598
569 0 1 -9.856954 -16.989243 22.781097
570 0 1 -9.953315 -17.793642 23.353394
571 0 1 -9.249244 -17.544641 23.909393
572 0 1 -8.861024 -16.693243 24.260712
573 0 1 -9.187003 -15.748743 24.349792
574 0 1 -8.374034 -15.583942 24.907593
575 0 1 -9.011125 -15.716242 25.629608
576 0 1 -9.105365 -16.529442 26.112305
577 0 1 -8.188205 -16.607243 25.881104
578 0 1 -7.431005 -17.253742 25.947388
579 0 1 -7.469764 -18.213741 25.787201
580 0 1 -6.712095 -17.862642 26.189209
581 0 1 -5.792015 -17.612741 26.274902
582 0 1 -5.744674 -16.967241 25.540405
583 0 1 -6.536745 -16.467142 25.619202
584 0 1 -6.327125 -16.356743 24.649902
585 0 1 -6.826904 -16.893042 24.100403
586 0 1 -6.790115 -16.518742 23.231903
587 0 1 -5.814765 -16.626842 23.048706
588 0 1 -6.107845 -15.844843 22.568512
589 0 1 -5.558885 -15.138243 22.730286
590 0 1 -5.106454 -15.067442 23.608490
591 0 1 -5.682556 -14.667042 24.225098
592 0 1 -5.068325 -14.680342 24.934113
593 0 1 -4.190654 -14.269242 24.920502
594 0 1 -3.359784 -13.843442 24.645111
595 0 1 -2.368642 -13.685742 24.732208
596 0 1 -2.361100 -14.581442 24.872498
597 0 1 -2.840009 -15.316143 25.372192
598 0 1 -2.948215 -14.638542 26.050201
599 0 1 -2.805030 -13.786542 26.473907
600 0 1 -3.241374 -14.471842 27.034485
601 0 1 -3.234304 -13.727542 27.645691
602 0 1 -3.775005 -13.261542 28.286713
603 0 1 -3.487014 -12.478441 28.841003
604 0 1 -3.329185 -11.633043 28.494202
605 0 1 -3.967054 -10.892641 28.344513
606 0 1 -3.722554 -10.268642 28.976593
607 0 1 -3.669015 -9.545242 28.323608
608 0 1 -4.440645 -9.757442 27.806213
609 0 1 -4.849115 -10.154543 27.072998
610 0 1 -4.681955 -10.996542 26.743805
611 0 1 -5.031425 -11.838642 27.036194
612 0 1 -5.863645 -11.811543 27.527588
613 0 1 -5.610004 -11.494143 28.371887
614 0 1 -5.841955 -10.948141 29.133789
615 0 1 -6.324474 -10.704943 28.332489
616 0 1 -6.450365 -9.762642 28.312103
617 0 1 -6.686374 -8.821442 28.120392
618 0 1 -5.863674 -8.633842 28.719116
619 0 1 -5.919755 -7.701502 28.392487
620 0 1 -6.144115 -6.783453 28.625092
621 0 1 -5.879604 -6.022821 28.089996
622 0 1 -5.966705 -6.219652 27.092804
623 0 1 -5.139324 -5.730341 27.313690
624 0 1 -5.394165 -5.294802 26.539795
625 0 1 -6.289375 -5.113913 26.817413
626 0 1 -7.161415 -5.278973 27.315704
627 0 1 -7.406944 -5.420732 28.213104
628 0 1 -7.840915 -6.273813 27.765900
629 0 1 -8.667005 -6.554041 27.338898
630 0 1 -9.391315 -6.073462 27.865295
631 0 1 -9.795875 -5.618643 27.136200
632 0 1 -10.491385 -4.914602 27.447998
633 0 1 -10.005164 -4.584711 28.246704
634 0 1 -10.738025 -4.129032 28.724487
635 0 1 -11.459395 -4.779001 28.908600
636 0 1 -12.144053 -4.598013 29.561005
637 0 1 -12.420653 -5.306322 30.174286
638 0 1 -13.057454 -6.017612 30.443787
639 0 1 -14.027854 -5.901062 30.632996
640 0 1 -13.744954 -5.027262 30.634003
641 0 1 -14.182954 -4.641073 31.372894
642 0 1 -15.029754 -4.291021 31.663696
643 0 1 -15.113654 -4.756783 32.435211
644 0 1 -15.302955 -5.517153 33.018311
645 0 1 -15.602155 -6.228052 32.432404
646 0 1 -16.301655 -5.567022 32.479187
647 0 1 -16.746855 -5.594473 31.645294
648 0 1 -16.423256 -4.666231 31.756409
649 0 1 -16.958454 -4.520462 30.963104
650 0 1 -17.661554 -4.494411 30.308716
651 0 1 -17.108755 -3.889532 29.898193
652 0 1 -16.758154 -2.966051 30.135803
653 0 1 -17.126554 -2.840502 29.277191
654 0 1 -16.513954 -2.620842 28.590790
655 0 1 -16.649355 -1.744552 28.832306
656 0 1 -16.456757 -1.196552 28.043701
657 0 1 -17.002455 -0.520662 27.600800
658 0 1 -17.895855 -0.250112 27.912506
659 0 1 -17.973255 0.416159 28.531311
660 0 1 -17.452955 0.012438 29.211914
661 0 1 -16.813955 0.679747 29.062988
662 0 1 -16.046656 0.847857 28.538513
663 0 1 -15.557555 0.216389 28.011810
664 0 1 -15.051055 -0.561602 28.083313
665 0 1 -14.103755 -0.499721 27.865906
666 0 1 -13.949254 -0.813291 26.862091
667 0 1 -13.407254 -1.588682 26.881012
668 0 1 -14.080855 -1.720772 26.230713
669 0 1 -13.523654 -2.440471 25.911804
670 0 1 -13.233754 -1.983482 25.094208
671 0 1 -12.469254 -2.002172 24.479614
672 0 1 -11.706813 -1.537151 24.851898
673 0 1 -11.999003 -1.125612 23.949097
674 0 1 -12.798755 -0.719532 23.591309
675 0 1 -12.585055 0.097109 23.218109
676 0 1 -12.362556 1.059061 23.284912
677 0 1 -12.149955 1.943955 23.611206
678 0 1 -11.245934 1.850754 23.230103
679 0 1 -11.535193 1.284357 22.546814
680 0 1 -11.798675 0.994616 21.668304
681 0 1 -12.504855 0.462238 21.388397
682 0 1 -13.088954 1.133700 21.591492
683 0 1 -13.684653 0.428568 21.207703
684 0 1 -13.734454 -0.422491 21.717606
685 0 1 -14.571754 -0.663622 21.245895
686 0 1 -15.075553 -0.701572 20.439499
687 0 1 -15.350654 -0.282902 19.593094
688 0 1 -15.601754 0.072508 18.760193
689 0 1 -15.839454 -0.574901 18.066895
690 0 1 -16.495855 0.003609 17.698395
691 0 1 -16.546055 0.631590 18.440994
692 0 1 -17.446856 0.247507 18.240402
693 0 1 -17.666056 0.973038 18.958893
694 0 1 -18.280254 1.308878 18.301208
695 0 1 -18.315855 2.304327 18.280396
696 0 1 -18.916454 2.996239 18.492798
697 0 1 -19.283655 2.587792 17.710205
698 0 1 -19.421755 3.278830 17.082001
699 0 1 -19.051355 4.203569 16.947601
700 0 1 -19.478455 5.019579 16.739807
701 0 1 -18.806156 5.122717 17.411407
702 0 1 -18.560856 6.088316 17.379608
703 0 1 -18.840755 6.242559 18.258499
704 0 1 -18.644655 5.557699 18.992905
705 0 1 -17.860455 5.915956 19.391693
706 0 1 -17.412556 5.400179 18.732300
707 0 1 -16.734955 5.574068 17.939392
708 0 1 -16.364655 6.398619 18.459595
709 0 1 -16.271755 6.584620 17.493607
710 0 1 -17.030754 6.958998 17.072998
711 0 1 -16.347454 7.481390 16.710907
712 0 1 -15.851153 6.850180 16.111908
713 0 1 -14.961354 7.211058 16.059692
714 0 1 -14.016654 7.328726 15.758698
715 0 1 -13.817153 6.448236 15.703705
716 0 1 -13.462054 5.497908 15.839096
717 0 1 -12.874454 5.788568 16.546295
718 0 1 -13.353154 5.254316 17.231796
719 0 1 -12.634555 4.646288 17.186295
720 0 1 -12.975253 3.768488 17.433594
721 0 1 -13.753554 3.212179 17.401901
722 0 1 -13.797954 3.202357 16.461197
723 0 1 -14.375854 2.564810 16.087204
724 0 1 -14.021955 2.645977 15.108704
725 0 1 -13.105853 3.129557 15.132507
726 0 1 -12.940654 4.056707 14.883698
727 0 1 -13.306354 4.906179 15.064301
728 0 1 -12.795054 5.640089 14.664703
729 0 1 -12.327655 5.041086 14.087601
730 0 1 -11.675384 5.345148 14.663300
731 0 1 -10.980224 5.604368 14.059296
732 0 1 -11.089934 4.664759 13.962906
733 0 1 -11.774425 4.088346 14.321594
734 0 1 -12.234654 3.505659 13.753494
735 0 1 -11.721814 2.873678 13.179108
736 0 1 -11.961013 2.122174 13.668106
737 0 1 -12.305055 1.895222 12.840698
738 0 1 -12.296954 1.291590 12.047394
739 0 1 -11.585845 0.559538 12.039597
740 0 1 -11.939654 -0.272362 12.233398
741 0 1 -12.784453 -0.300432 11.895996
742 0 1 -13.302154 0.426437 11.459793
743 0 1 -12.830653 -0.075182 10.742706
744 0 1 -13.594754 -0.165722 10.150497
745 0 1 -12.760354 0.300028 9.770447
746 0 1 -13.382054 0.976908 9.948044
747 0 1 -14.248355 1.398726 9.656357
748 0 1 -14.637755 0.638994 9.306076
749 0 1 -15.103154 0.385538 8.590637
750 0 1 -14.656554 0.378098 7.703644
751 0 1 -14.910155 0.828892 6.923599
752 0 1 -15.145154 1.152250 6.086349
753 0 1 -14.426955 0.579107 5.967667
754 0 1 -14.129855 -0.042452 6.651093
755 0 1 -13.853154 -1.021952 6.754364
756 0 1 -14.817355 -1.256912 6.727219
757 0 1 -15.673656 -1.765112 6.844223
758 0 1 -16.196856 -2.528991 7.208466
759 0 1 -16.764454 -2.368011 6.402420
760 0 1 -17.210855 -2.690943 5.581299
761 0 1 -16.400356 -3.142042 5.278656
762 0 1 -15.933955 -3.762903 4.721832
763 0 1 -15.053054 -3.411062 4.903625
764 0 1 -14.167954 -3.375223 5.099747
765 0 1 -13.240855 -3.575762 5.317703
766 0 1 -13.255654 -4.056803 4.505264
767 0 1 -13.046355 -4.631212 3.703705
768 0 1 -12.342254 -5.157772 3.990784
769 0 1 -12.567355 -6.027382 4.466599
770 0 1 -12.572055 -6.434393 5.365417
771 0 1 -12.006104 -5.844812 5.921936
772 0 1 -11.196195 -6.304771 6.054855
773 0 1 -11.261523 -7.295282 5.912750
774 0 1 -10.798265 -7.415941 5.081314
775 0 1 -10.555663 -8.087982 4.436844
776 0 1 -10.454616 -7.705751 3.578766
777 0 1 -10.965785 -8.392862 3.136581
778 0 1 -11.574153 -8.547441 3.853485
779 0 1 -12.164554 -8.387121 4.631134
780 0 1 -12.360053 -9.290642 4.924103
781 0 1 -12.737754 -10.264544 4.601883
782 0 1 -13.429854 -9.814642 5.152206
783 0 1 -13.789054 -10.647341 4.859619
784 0 1 -13.306853 -11.446842 5.166824
785 0 1 -12.897155 -11.647943 6.066605
786 0 1 -13.812255 -11.900343 6.076218