LAMMPS data file via MDAnalysis

        2000  atoms
        1999  bonds
           0  angles
           0  dihedrals
           0  impropers

           1  atom types
           1  bond types
           0  angle types
           0  dihedral types
           0  improper types

-30.5 30.5 xlo xhi
-30.5 30.5 ylo yhi
-233.5 233.5 zlo zhi


Masses

1 1.000000

Atoms

1 0 1 12.844336 -17.746738 118.321991
2 0 1 12.555696 -17.621838 117.406006
3 0 1 11.648127 -17.336439 117.015015
4 0 1 11.325747 -16.813938 116.333984
5 0 1 10.623476 -16.845339 115.716003
6 0 1 10.499285 -17.752638 115.492004
7 0 1 10.634558 -17.561438 114.518005
8 0 1 11.305677 -16.985239 114.916992
9 0 1 11.563387 -16.048038 114.699005
10 0 1 12.287195 -15.375739 114.458984
11 0 1 12.253553 -14.479139 114.768005
12 0 1 11.735785 -13.673339 114.554993
13 0 1 10.806067 -13.411239 114.544006
14 0 1 10.319925 -13.637240 115.325012
15 0 1 11.003786 -13.672439 115.988007
16 0 1 10.643145 -13.043439 116.651001
17 0 1 10.857325 -12.633540 115.713013
18 0 1 9.997107 -12.361838 115.364990
19 0 1 9.183825 -12.247138 114.851990
20 0 1 8.321745 -11.783038 114.750000
21 0 1 7.910985 -12.568038 115.002991
22 0 1 8.123594 -13.484538 114.722992
23 0 1 8.649588 -14.210739 115.177002
24 0 1 8.497995 -14.435140 114.231018
25 0 1 8.394636 -15.276639 114.617981
26 0 1 7.753164 -15.879239 115.036011
27 0 1 6.839944 -15.664439 115.388000
28 0 1 6.690767 -14.903639 114.796997
29 0 1 6.021314 -14.316839 114.511993
30 0 1 6.599725 -13.560039 114.485992
31 0 1 7.429025 -13.846539 114.010010
32 0 1 7.462556 -12.990439 113.597992
33 0 1 6.686864 -13.507140 113.320984
34 0 1 6.614984 -12.939839 112.510010
35 0 1 6.199434 -12.533740 113.263000
36 0 1 5.430067 -12.936240 112.851990
37 0 1 4.648015 -13.564340 112.919983
38 0 1 4.017765 -14.095840 113.429016
39 0 1 3.093635 -14.102940 113.362000
40 0 1 3.103139 -14.071639 112.423004
41 0 1 2.301092 -13.446738 112.304016
42 0 1 2.327558 -13.055339 113.145996
43 0 1 2.260396 -12.139739 113.407990
44 0 1 1.376676 -11.783538 113.248993
45 0 1 1.125406 -12.445739 113.867004
46 0 1 0.400936 -12.202939 113.234985
47 0 1 0.152006 -11.584540 113.877991
48 0 1 -0.749115 -11.138040 113.710999
49 0 1 -1.276774 -11.238139 112.876007
50 0 1 -2.168114 -11.396239 112.552002
51 0 1 -2.714695 -11.101439 111.850006
52 0 1 -3.630635 -10.960639 111.777008
53 0 1 -4.025685 -10.614240 112.627014
54 0 1 -3.724635 -9.710839 112.635010
55 0 1 -3.710265 -9.249858 113.437988
56 0 1 -4.465964 -8.726569 113.450989
57 0 1 -4.430674 -8.890309 112.503998
58 0 1 -5.279414 -9.236129 112.671997
59 0 1 -6.069876 -9.199719 113.346008
60 0 1 -6.469405 -8.360198 113.213989
61 0 1 -7.243365 -7.912829 113.433990
62 0 1 -7.247664 -7.001269 113.783997
63 0 1 -7.992266 -6.407938 113.911011
64 0 1 -7.827965 -6.596379 112.894989
65 0 1 -7.236565 -5.794308 112.567993
66 0 1 -7.383666 -5.292199 111.753998
67 0 1 -6.872944 -5.063618 110.955994
68 0 1 -7.276064 -5.694529 110.316010
69 0 1 -6.836894 -5.015549 109.694000
70 0 1 -7.436265 -5.318919 109.101013
71 0 1 -6.584094 -5.369439 108.737000
72 0 1 -7.132855 -5.510289 107.889008
73 0 1 -7.074255 -6.448269 107.902008
74 0 1 -8.000063 -6.260428 107.808990
75 0 1 -8.904863 -6.162779 107.731995
76 0 1 -8.984865 -5.323309 107.247986
77 0 1 -8.807064 -4.721779 107.958984
78 0 1 -8.187164 -4.146458 107.416016
79 0 1 -8.855564 -3.456078 107.229004
80 0 1 -9.707766 -3.767729 107.535004
81 0 1 -10.596264 -3.489310 107.342010
82 0 1 -11.499765 -3.048159 107.496002
83 0 1 -11.159266 -2.196728 107.694000
84 0 1 -10.886866 -1.900929 108.591003
85 0 1 -10.885466 -2.812930 108.976013
86 0 1 -10.898464 -3.707259 109.337006
87 0 1 -10.042265 -4.084708 109.167999
88 0 1 -10.203165 -4.027228 110.076996
89 0 1 -10.394665 -4.902720 110.385010
90 0 1 -9.911564 -5.518309 110.940002
91 0 1 -9.488964 -4.683970 111.194000
92 0 1 -9.650265 -3.762688 111.309998
93 0 1 -10.569365 -3.594269 111.585999
94 0 1 -10.810764 -2.800410 110.989990
95 0 1 -11.629364 -2.914380 111.399994
96 0 1 -12.209265 -3.657290 111.298004
97 0 1 -12.737965 -4.067828 112.018982
98 0 1 -13.283064 -4.847018 111.944000
99 0 1 -13.852964 -4.109988 112.226013
100 0 1 -14.176264 -4.940499 112.567993
101 0 1 -14.107565 -4.521868 113.411011
102 0 1 -13.361065 -4.826989 113.856995
103 0 1 -13.246464 -4.082758 114.626007
104 0 1 -13.819765 -3.698229 115.312012
105 0 1 -13.548864 -3.499119 116.130981
106 0 1 -13.226564 -4.258528 116.511993
107 0 1 -13.040064 -5.213238 116.431000
108 0 1 -12.259464 -4.874409 115.944000
109 0 1 -12.665364 -5.507109 115.378998
110 0 1 -12.191565 -4.937518 114.716003
111 0 1 -11.319265 -5.247729 114.592010
112 0 1 -10.866764 -4.535679 114.079010
113 0 1 -10.223364 -4.259619 113.475006
114 0 1 -9.584364 -4.826098 113.069000
115 0 1 -8.731863 -4.850159 112.709991
116 0 1 -8.266264 -4.191809 112.096008
117 0 1 -7.938864 -3.861748 111.273010
118 0 1 -8.271065 -4.095568 110.423004
119 0 1 -9.130365 -3.533148 110.285004
120 0 1 -9.310163 -2.746388 110.929016
121 0 1 -9.276365 -1.763829 111.253998
122 0 1 -8.890165 -1.841229 110.380005
123 0 1 -8.315464 -1.150809 109.875000
124 0 1 -8.476965 -1.527009 109.067993
125 0 1 -7.802865 -1.409888 108.380005
126 0 1 -7.999165 -2.338679 108.031982
127 0 1 -7.467566 -2.014658 107.277008
128 0 1 -6.787653 -2.465168 106.890991
129 0 1 -6.223696 -2.819708 106.187988
130 0 1 -5.686924 -2.287739 106.753998
131 0 1 -5.143626 -1.460019 106.613007
132 0 1 -4.919205 -0.762068 106.024994
133 0 1 -5.048686 0.158338 105.837006
134 0 1 -4.168854 0.356836 105.752014
135 0 1 -3.365645 -0.203415 105.744995
136 0 1 -3.073925 -0.527348 106.583008
137 0 1 -2.555195 -1.154509 107.063995
138 0 1 -1.949336 -1.882168 106.846985
139 0 1 -1.158625 -1.981280 107.354004
140 0 1 -0.814415 -2.926989 107.209991
141 0 1 -1.272305 -3.447699 106.520996
142 0 1 -2.036515 -3.208069 105.920990
143 0 1 -1.200194 -3.268420 105.424988
144 0 1 -1.001305 -2.627879 104.623993
145 0 1 -0.688944 -3.586098 104.609009
146 0 1 -0.212325 -4.384709 104.562012
147 0 1 0.242305 -3.710059 104.089996
148 0 1 0.882385 -3.095318 103.773987
149 0 1 0.767015 -2.572388 104.640991
150 0 1 1.539985 -2.377268 105.170990
151 0 1 1.123136 -1.589659 104.906982
152 0 1 1.988008 -1.030678 104.950989
153 0 1 1.184965 -0.421734 104.907990
154 0 1 1.404066 -0.043446 104.070007
155 0 1 1.619825 0.843297 104.000000
156 0 1 2.225305 0.476629 103.359985
157 0 1 3.063901 0.502653 103.690002
158 0 1 3.224826 0.991344 104.483002
159 0 1 3.645109 0.077177 104.785004
160 0 1 3.572296 -0.798428 105.157990
161 0 1 4.138114 -1.544280 105.523987
162 0 1 4.504217 -1.433598 104.662994
163 0 1 4.692483 -0.815659 103.890991
164 0 1 5.321504 -1.435799 103.585999
165 0 1 6.080194 -0.981009 103.209991
166 0 1 5.469823 -0.270060 102.985992
167 0 1 5.641305 0.680896 103.040009
168 0 1 6.100534 0.524442 102.075989
169 0 1 6.785604 0.262601 102.666016
170 0 1 7.126363 -0.345364 103.350006
171 0 1 7.862024 0.175769 103.127014
172 0 1 7.558916 1.072652 103.355011
173 0 1 8.080935 1.004137 104.132996
174 0 1 7.899545 0.142726 104.513000
175 0 1 8.512037 -0.589148 104.671997
176 0 1 8.303286 -0.917559 105.518982
177 0 1 7.513826 -1.446799 105.431000
178 0 1 6.797174 -0.944279 105.770996
179 0 1 6.382185 -1.391860 106.475006
180 0 1 5.585084 -0.809279 106.696991
181 0 1 5.582696 -1.568989 107.352997
182 0 1 5.949064 -1.122439 108.141998
183 0 1 6.349115 -1.219189 109.020996
184 0 1 7.143304 -1.745179 108.660004
185 0 1 7.294565 -2.418349 107.996002
186 0 1 8.034834 -2.707388 107.458008
187 0 1 8.118864 -3.328539 108.181000
188 0 1 7.741266 -3.900799 108.855011
189 0 1 8.271467 -4.615778 108.463989
190 0 1 8.194265 -5.271750 107.779999
191 0 1 7.810956 -5.296509 106.911011
192 0 1 7.250745 -4.524298 106.595001
193 0 1 7.439893 -3.929419 105.858002
194 0 1 7.104246 -4.115458 104.989990
195 0 1 7.893445 -4.677948 105.048004
196 0 1 7.750375 -5.583859 104.816010
197 0 1 7.252485 -6.425578 104.591003
198 0 1 7.060415 -7.313149 104.681000
199 0 1 6.733613 -7.186980 103.798004
200 0 1 7.038454 -7.691519 102.981018
201 0 1 6.827375 -6.841988 102.716003
202 0 1 6.682657 -6.613169 101.779999
203 0 1 6.867025 -7.458359 101.234009
204 0 1 7.257715 -8.259170 101.640991
205 0 1 7.233926 -8.694869 100.786987
206 0 1 8.004774 -9.063918 100.268982
207 0 1 7.896703 -9.556338 99.373596
208 0 1 8.778215 -9.286201 99.322296
209 0 1 9.557104 -9.828639 99.054016
210 0 1 10.207277 -10.433040 98.614014
211 0 1 9.533567 -10.362338 97.927307
212 0 1 8.872915 -10.359038 97.266205
213 0 1 9.246695 -9.958438 96.506805
214 0 1 9.247564 -9.177268 97.121887
215 0 1 9.475508 -8.239249 96.975494
216 0 1 10.395384 -8.117990 97.295197
217 0 1 10.062685 -8.083789 98.202606
218 0 1 10.797796 -7.960909 98.828003
219 0 1 11.499365 -8.087249 98.132202
220 0 1 11.092474 -7.432898 97.605103
221 0 1 11.689386 -7.599219 96.867706
222 0 1 12.628576 -7.847338 96.997192
223 0 1 12.411177 -7.125319 97.554993
224 0 1 12.891836 -6.330229 97.718384
225 0 1 13.664736 -6.904198 97.570496
226 0 1 13.621634 -6.620108 98.539001
227 0 1 13.777136 -5.762148 98.138092
228 0 1 14.591635 -5.370869 97.669983
229 0 1 14.922735 -4.512219 97.662689
230 0 1 14.317835 -4.334250 96.883484
231 0 1 13.457037 -4.034850 97.151611
232 0 1 12.570505 -3.881939 96.715088
233 0 1 12.386877 -3.642319 95.781982
234 0 1 12.571066 -2.860188 95.219391
235 0 1 12.038607 -2.038519 95.196503
236 0 1 11.282415 -1.812689 94.630890
237 0 1 10.775465 -2.349688 93.981812
238 0 1 11.062826 -2.864489 93.223907
239 0 1 11.360785 -3.342768 93.977600
240 0 1 12.220564 -2.914849 94.099182
241 0 1 12.542685 -3.766369 94.618286
242 0 1 11.830954 -4.447600 94.640015
243 0 1 11.799227 -4.689278 93.640106
244 0 1 11.411505 -4.850279 92.756714
245 0 1 11.848997 -3.997899 92.684906
246 0 1 10.991255 -3.632599 92.626099
247 0 1 10.315817 -4.278859 92.591614
248 0 1 10.093084 -4.102309 91.651001
249 0 1 10.104925 -4.974799 91.405701
250 0 1 10.670755 -4.549469 90.710907
251 0 1 11.380266 -4.778899 90.099915
252 0 1 10.786016 -4.949599 89.338684
253 0 1 10.636465 -5.926768 89.075806
254 0 1 9.826307 -5.375889 88.996399
255 0 1 9.879225 -4.719208 88.300201
256 0 1 9.833616 -4.708838 87.269409
257 0 1 9.376806 -5.378829 86.835388
258 0 1 8.424715 -5.057379 86.699799
259 0 1 8.737394 -5.501679 85.774414
260 0 1 9.058336 -5.933739 84.930695
261 0 1 8.801455 -6.633189 84.320984
262 0 1 8.344786 -6.072928 83.648895
263 0 1 8.579065 -5.903338 82.727997
264 0 1 8.135084 -5.109808 82.488495
265 0 1 8.260126 -4.244990 81.971313
266 0 1 8.204195 -4.521168 81.036804
267 0 1 7.312444 -4.806689 80.871490
268 0 1 7.847456 -5.608019 80.920410
269 0 1 8.066015 -6.506968 80.884705
270 0 1 8.359335 -7.243069 81.406494
271 0 1 9.259985 -7.625350 81.662994
272 0 1 10.376936 -7.574328 81.506409
273 0 1 11.196466 -7.078909 81.754791
274 0 1 11.206846 -7.465067 82.640900
275 0 1 11.707396 -8.184749 82.157196
276 0 1 12.108404 -7.287730 82.071503
277 0 1 12.088903 -6.294589 82.207794
278 0 1 12.867136 -6.258658 82.864685
279 0 1 12.435915 -5.933730 83.634888
280 0 1 12.198133 -5.327469 82.945618
281 0 1 12.561747 -4.904379 83.758209
282 0 1 13.303637 -4.846629 84.347504
283 0 1 13.992834 -5.088009 83.696594
284 0 1 13.412836 -4.776148 83.091614
285 0 1 13.649237 -4.204628 82.301208
286 0 1 13.557737 -3.455788 81.628601
287 0 1 13.697035 -2.716038 81.144989
288 0 1 14.606535 -2.531409 81.366791
289 0 1 14.890036 -2.904288 82.315491
290 0 1 15.613436 -2.718779 81.673492
291 0 1 16.131437 -3.512240 81.329803
292 0 1 16.004538 -2.726738 80.713684
293 0 1 15.362333 -2.561388 80.046082
294 0 1 15.187834 -2.419980 79.143494
295 0 1 15.981836 -2.539279 78.581482
296 0 1 15.952635 -3.290858 79.208801
297 0 1 15.147936 -3.771838 79.460510
298 0 1 15.178236 -4.512309 78.710999
299 0 1 15.663034 -3.815730 78.258209
300 0 1 14.958136 -4.265629 77.704193
301 0 1 14.159536 -4.479769 77.138916
302 0 1 14.379435 -3.560818 76.843689
303 0 1 14.590734 -3.643229 75.915802
304 0 1 15.452337 -3.333949 76.179108
305 0 1 15.782637 -2.790719 75.389404
306 0 1 16.326036 -2.025349 75.518402
307 0 1 15.688635 -1.438769 75.955383
308 0 1 14.790735 -1.611149 75.764404
309 0 1 14.739737 -2.200278 74.989410
310 0 1 14.073935 -1.595919 74.778503
311 0 1 14.017534 -2.282929 73.993103
312 0 1 14.877737 -2.493140 73.500092
313 0 1 14.583635 -1.594819 73.320709
314 0 1 14.045034 -1.373318 72.597992
315 0 1 13.524736 -0.701970 72.205902
316 0 1 13.978235 -1.253388 71.487610
317 0 1 14.824335 -0.915518 71.696899
318 0 1 15.322435 -0.774199 70.861084
319 0 1 15.761736 -1.420079 70.402588
320 0 1 16.335135 -2.000140 70.876007
321 0 1 16.694136 -1.788970 71.762604
322 0 1 17.525236 -1.931729 71.263702
323 0 1 18.241137 -2.183449 70.666901
324 0 1 19.048536 -2.615759 71.012207
325 0 1 18.262434 -2.769858 71.507507
326 0 1 17.940035 -3.353049 70.758789
327 0 1 18.678335 -3.671448 70.213898
328 0 1 19.162336 -3.234408 69.476898
329 0 1 19.766436 -3.828719 69.087494
330 0 1 19.403936 -4.312218 69.855896
331 0 1 19.497835 -5.227679 70.103699
332 0 1 18.650434 -5.122069 70.593597
333 0 1 18.372335 -5.892769 71.095490
334 0 1 17.872236 -5.395808 71.747803
335 0 1 16.936438 -5.317898 71.822205
336 0 1 16.358736 -5.170958 72.555786
337 0 1 15.781336 -5.814969 72.031311
338 0 1 15.680635 -6.499518 71.384094
339 0 1 14.924036 -7.067549 71.537292
340 0 1 14.821535 -6.817488 72.441589
341 0 1 14.175936 -6.215918 72.102600
342 0 1 13.270235 -6.101630 71.712585
343 0 1 12.674906 -6.021578 70.954407
344 0 1 12.610044 -5.408799 70.232208
345 0 1 12.477446 -4.589049 69.820709
346 0 1 11.635767 -4.751299 70.063995
347 0 1 11.294264 -5.536089 70.545197
348 0 1 11.740427 -6.295699 70.185394
349 0 1 12.513494 -6.539149 69.725891
350 0 1 13.278837 -6.602358 69.131195
351 0 1 12.490416 -6.565958 68.650299
352 0 1 11.815516 -6.205239 68.015808
353 0 1 11.453806 -7.139239 68.082794
354 0 1 12.197996 -7.460570 67.574097
355 0 1 13.117735 -7.202109 67.488281
356 0 1 13.486635 -7.367239 66.690918
357 0 1 13.968138 -7.445149 65.926605
358 0 1 14.450438 -6.736729 65.442108
359 0 1 15.161135 -6.597279 66.065918
360 0 1 15.658735 -7.376759 65.829407
361 0 1 15.464636 -8.239558 66.135498
362 0 1 15.801535 -8.405869 65.191101
363 0 1 16.438734 -8.088630 65.841797
364 0 1 17.127535 -8.022868 66.377899
365 0 1 17.234037 -8.933829 66.174896
366 0 1 17.219835 -8.989989 67.130615
367 0 1 17.481936 -8.156589 67.520294
368 0 1 17.550734 -7.258889 67.122803
369 0 1 18.386637 -6.835330 67.331696
370 0 1 18.861235 -7.485699 66.720703
371 0 1 19.592836 -7.198418 67.279602
372 0 1 19.642035 -6.605559 66.573303
373 0 1 19.162733 -6.625350 65.751007
374 0 1 19.645136 -5.769999 65.451111
375 0 1 19.501535 -4.937869 65.029205
376 0 1 19.124735 -5.209258 64.210083
377 0 1 18.974234 -4.486140 63.551910
378 0 1 18.216837 -4.005000 63.891907
379 0 1 18.988436 -3.866349 64.483093
380 0 1 18.320234 -3.655379 65.150818
381 0 1 19.118036 -3.104279 65.306000
382 0 1 20.041536 -2.964278 65.653595
383 0 1 20.571234 -2.923708 64.825012
384 0 1 21.241137 -3.055989 64.122498
385 0 1 20.890135 -2.340678 63.515594
386 0 1 20.952936 -2.306979 62.555511
387 0 1 21.630636 -2.999928 62.262787
388 0 1 22.056234 -2.336508 61.661591
389 0 1 22.773935 -1.677329 61.612000
390 0 1 23.352137 -2.002160 60.933807
391 0 1 23.659636 -2.361338 60.067413
392 0 1 23.912436 -2.015738 59.196106
393 0 1 24.176535 -2.134099 58.305695
394 0 1 25.094137 -1.852929 58.305908
395 0 1 26.049135 -1.616488 58.196106
396 0 1 26.467936 -2.114548 57.551514
397 0 1 25.754335 -2.105898 56.915283
398 0 1 24.898634 -2.194308 56.444305
399 0 1 23.960936 -2.227078 56.409698
400 0 1 23.529036 -2.173508 57.230591
401 0 1 22.740335 -1.870820 57.597687
402 0 1 21.949537 -1.325219 57.365692
403 0 1 21.695738 -2.252249 57.127289
404 0 1 21.747435 -2.666850 58.030609
405 0 1 20.926535 -2.970509 57.778503
406 0 1 21.335535 -3.764880 58.123901
407 0 1 21.404135 -3.290478 58.930206
408 0 1 21.932936 -4.075228 59.163788
409 0 1 22.048834 -5.023968 59.128693
410 0 1 22.820135 -5.556248 59.069885
411 0 1 23.516935 -5.681529 58.342590
412 0 1 24.121737 -5.607119 57.585693
413 0 1 24.365438 -5.990429 56.744995
414 0 1 23.440733 -6.302100 56.823792
415 0 1 22.810637 -6.594779 57.399506
416 0 1 22.304235 -7.439768 57.674591
417 0 1 22.337133 -8.166640 57.047485
418 0 1 21.436033 -8.332648 56.829193
419 0 1 21.102335 -9.108109 56.372803
420 0 1 21.683638 -9.551440 55.661407
421 0 1 22.016737 -9.413341 54.724091
422 0 1 21.436834 -9.676238 53.972504
423 0 1 20.839933 -8.957599 53.706787
424 0 1 20.264536 -8.206210 53.626190
425 0 1 20.363035 -8.509151 52.690186
426 0 1 19.575735 -8.825118 53.133911
427 0 1 18.946333 -8.137240 52.878113
428 0 1 18.040136 -8.353351 53.100403
429 0 1 17.434237 -7.653119 53.411011
430 0 1 16.740435 -7.121708 52.981384
431 0 1 16.996336 -6.590168 52.157898
432 0 1 17.917036 -6.365588 52.211304
433 0 1 18.333036 -5.804289 51.521484
434 0 1 18.191835 -5.612179 50.513611
435 0 1 17.645136 -5.382439 49.728210
436 0 1 18.032335 -6.043499 49.107300
437 0 1 18.112436 -5.171219 48.734497
438 0 1 17.328135 -5.081028 48.114410
439 0 1 17.458437 -4.544489 47.293610
440 0 1 17.010237 -3.733790 47.054688
441 0 1 17.238234 -3.063010 47.807312
442 0 1 16.780737 -2.206339 47.653687
443 0 1 16.133238 -1.606108 47.190887
444 0 1 15.178335 -1.514298 46.751404
445 0 1 14.804735 -2.264039 47.172089
446 0 1 14.601336 -3.077578 46.754395
447 0 1 14.138536 -3.091689 45.866608
448 0 1 14.704138 -2.376439 46.053192
449 0 1 14.495634 -1.450589 45.783508
450 0 1 14.723536 -0.590958 46.256897
451 0 1 13.925135 0.053747 46.406189
452 0 1 13.113234 0.579902 46.169617
453 0 1 12.374186 1.031192 45.849304
454 0 1 12.126226 0.095437 45.917999
455 0 1 12.361715 -0.503098 46.640198
456 0 1 11.492956 -0.740639 47.113190
457 0 1 11.438314 -1.331599 47.837891
458 0 1 10.687704 -1.759129 48.198486
459 0 1 10.373415 -0.866038 48.244385
460 0 1 10.050035 -0.712929 47.348297
461 0 1 10.105627 0.100410 47.777100
462 0 1 10.189054 0.966428 47.344116
463 0 1 10.508425 1.438880 46.488892
464 0 1 11.372286 1.144403 46.483612
465 0 1 11.287184 0.387741 47.016510
466 0 1 11.171396 0.762584 47.930786
467 0 1 12.087423 0.362453 47.947388
468 0 1 11.895124 1.146944 48.531403
469 0 1 12.167665 0.453317 49.148010
470 0 1 11.962416 0.064863 49.997589
471 0 1 12.361105 0.361875 50.814087
472 0 1 12.804544 -0.140643 51.481293
473 0 1 13.119837 -0.601088 52.266296
474 0 1 13.736536 -0.178183 52.811584
475 0 1 13.800936 0.681182 53.313904
476 0 1 14.711035 0.330795 53.392609
477 0 1 15.626936 0.720714 53.346588
478 0 1 16.327337 0.978849 53.966705
479 0 1 15.707537 1.399072 54.544891
480 0 1 15.236135 1.865140 53.823303
481 0 1 15.190737 2.570951 54.568787
482 0 1 14.584738 3.275880 54.920715
483 0 1 14.123037 3.866792 54.345490
484 0 1 13.212835 3.851461 54.114014
485 0 1 13.068434 3.412302 54.940796
486 0 1 12.115248 3.770082 54.829407
487 0 1 11.514868 3.190893 54.310913
488 0 1 11.964685 3.779943 53.562408
489 0 1 11.093725 4.046922 54.024506
490 0 1 10.359495 4.646963 54.224396
491 0 1 10.651014 5.199750 54.957092
492 0 1 9.866617 4.954610 55.471710
493 0 1 9.440516 4.256570 55.956207
494 0 1 8.614798 4.780431 56.031097
495 0 1 8.262026 4.109689 55.432404
496 0 1 8.717485 3.282083 55.810486
497 0 1 9.234015 2.799860 55.027893
498 0 1 9.018476 2.239881 54.278015
499 0 1 8.065947 2.447549 54.312195
500 0 1 7.786615 2.373510 55.195404
501 0 1 8.494635 1.631931 55.205017
502 0 1 8.874117 0.837680 55.506714
503 0 1 9.627985 1.461029 55.131805
504 0 1 9.361616 1.636171 56.033295
505 0 1 9.823927 2.500280 56.353699
506 0 1 10.206865 2.278230 57.213104
507 0 1 9.620497 1.491266 57.075012
508 0 1 9.504385 0.642999 56.632294
509 0 1 8.801756 0.113214 57.104309
510 0 1 7.844656 0.387449 57.179016
511 0 1 7.645124 0.088857 58.077393
512 0 1 7.439905 0.874546 58.737701
513 0 1 6.485437 0.993104 59.055511
514 0 1 6.012056 0.215389 58.595886
515 0 1 6.051244 -0.173787 59.431885
516 0 1 5.942865 -0.840258 58.782593
517 0 1 6.654054 -1.229319 58.221588
518 0 1 6.683187 -1.972819 58.914917
519 0 1 6.448984 -2.742119 58.348297
520 0 1 5.684484 -2.112639 58.193115
521 0 1 6.202905 -2.243548 57.367798
522 0 1 6.797925 -1.601868 56.948212
523 0 1 5.974935 -1.825848 56.539398
524 0 1 6.552244 -2.346770 55.995392
525 0 1 7.338235 -2.724349 56.470795
526 0 1 8.245054 -2.513369 56.574707
527 0 1 9.123705 -2.310408 56.193390
528 0 1 9.978456 -2.754448 56.234100
529 0 1 10.006796 -3.329739 56.958191
530 0 1 9.481737 -3.915118 57.485687
531 0 1 9.728704 -4.714518 57.948090
532 0 1 10.527666 -4.882359 58.440094
533 0 1 11.515806 -4.715930 58.439606
534 0 1 10.994215 -4.300589 57.699707
535 0 1 11.523054 -4.045260 56.971405
536 0 1 11.078848 -4.947409 56.953705
537 0 1 10.903147 -5.750199 57.500702
538 0 1 11.530455 -6.405058 57.751709
539 0 1 12.039186 -7.212458 57.547699
540 0 1 12.855635 -7.082819 57.039703
541 0 1 12.491755 -7.859370 56.544708
542 0 1 11.898893 -7.010819 56.464600
543 0 1 11.478094 -6.853838 55.619293
544 0 1 10.755865 -7.156159 56.108002
545 0 1 10.630747 -7.988139 55.533386
546 0 1 9.943316 -8.192260 54.917603
547 0 1 9.358595 -8.005050 55.646393
548 0 1 9.491877 -8.989390 55.696594
549 0 1 10.256495 -9.131450 56.263000
550 0 1 9.878057 -8.955489 57.183990
551 0 1 10.027594 -8.479110 57.997803
552 0 1 9.638765 -8.794848 58.801208
553 0 1 9.422136 -9.542838 58.101410
554 0 1 8.548864 -9.666539 57.773590
555 0 1 8.699106 -9.858439 56.910095
556 0 1 8.959394 -10.363441 56.131592
557 0 1 8.583708 -9.722539 55.477783
558 0 1 8.550154 -10.545341 55.013306
559 0 1 8.099546 -11.409640 54.844604
560 0 1 7.909944 -11.645740 55.831787
561 0 1 7.586015 -12.260039 55.147308
562 0 1 7.356977 -13.184739 54.913300
563 0 1 7.533445 -14.121639 55.111603
564 0 1 8.240206 -14.686440 55.335693
565 0 1 7.957956 -15.416140 54.711487
566 0 1 8.512705 -14.876040 54.054504
567 0 1 8.455015 -14.057439 53.596802
568 0 1 8.456514 -14.633239 52.891785
569 0 1 7.975847 -15.142539 52.240692
570 0 1 7.907827 -14.170639 52.107605
571 0 1 7.921686 -13.510638 52.845490
572 0 1 7.246404 -13.145438 52.296814
573 0 1 6.483545 -13.208339 52.937195
574 0 1 5.717985 -13.708339 52.920807
575 0 1 5.215253 -13.383338 52.177399
576 0 1 4.640844 -13.819438 52.814301
577 0 1 3.752136 -13.747039 52.608490
578 0 1 3.689224 -13.000640 51.960907
579 0 1 4.118425 -12.567639 52.665283
580 0 1 3.410909 -11.924039 52.707886
581 0 1 2.654844 -11.707438 53.162415
582 0 1 2.197443 -10.973939 52.733307
583 0 1 1.966203 -11.359839 51.907806
584 0 1 1.719366 -10.601239 51.338501
585 0 1 1.138845 -10.085540 50.671906
586 0 1 1.503086 -9.278350 50.167603
587 0 1 1.024625 -9.305808 49.362091
588 0 1 1.546674 -9.517039 48.609314
589 0 1 1.287115 -10.143741 47.847687
590 0 1 1.714876 -9.377231 47.394989
591 0 1 1.859779 -9.182990 46.475708
592 0 1 1.042905 -9.669440 46.321289
593 0 1 0.480196 -9.892739 45.504089
594 0 1 0.026136 -9.126960 45.578705
595 0 1 0.701105 -8.792338 45.002106
596 0 1 0.633676 -7.825949 45.257294
597 0 1 1.447246 -7.331089 45.352783
598 0 1 2.200254 -6.780608 45.184601
599 0 1 1.399265 -6.263369 44.935394
600 0 1 1.175134 -5.366858 45.189911
601 0 1 0.352155 -5.550629 44.717499
602 0 1 -0.448084 -5.994359 44.344604
603 0 1 -0.084155 -6.631999 44.999298
604 0 1 -0.757014 -7.288138 44.695496
605 0 1 -1.561425 -6.889300 44.419708
606 0 1 -1.768475 -7.599509 43.813507
607 0 1 -0.911095 -8.011159 43.698700
608 0 1 -0.541165 -7.620200 42.810486
609 0 1 -0.658234 -7.008990 42.141907
610 0 1 -0.408295 -7.658320 41.546814
611 0 1 -0.785065 -7.472779 40.692688
612 0 1 -0.338835 -6.888379 40.123993
613 0 1 -0.515194 -7.636328 39.453491
614 0 1 -1.232035 -7.654889 38.821991
615 0 1 -1.539715 -8.619349 38.739594
616 0 1 -1.093356 -9.058898 39.460602
617 0 1 -0.247414 -8.613269 39.747711
618 0 1 0.016605 -8.752189 40.675903
619 0 1 0.336715 -7.931880 40.977600
620 0 1 1.266805 -7.835108 40.879089
621 0 1 2.172590 -8.055160 40.751801
622 0 1 2.252244 -8.139579 39.763306
623 0 1 2.711763 -8.581611 39.058594
624 0 1 2.610540 -9.099509 38.274689
625 0 1 2.756891 -9.400508 37.356293
626 0 1 1.924718 -9.229178 36.938110
627 0 1 1.681625 -9.190169 36.018494
628 0 1 1.201274 -8.474429 35.774414
629 0 1 0.582225 -8.764270 36.404907
630 0 1 0.986125 -8.261809 37.126007
631 0 1 1.478075 -8.002440 37.877411
632 0 1 1.820796 -7.221509 37.466400
633 0 1 2.716049 -6.925028 37.267883
634 0 1 3.286289 -6.536509 37.950104
635 0 1 4.197105 -6.769858 38.277893
636 0 1 4.883546 -7.187829 37.834106
637 0 1 5.404684 -6.401438 38.005798
638 0 1 5.267145 -5.778149 37.275909
639 0 1 5.022035 -6.650639 36.855988
640 0 1 4.103065 -6.321919 36.968811
641 0 1 4.134256 -5.838450 36.161713
642 0 1 4.114446 -6.149689 35.267090
643 0 1 4.419965 -6.494959 34.438995
644 0 1 3.573022 -6.865809 34.334198
645 0 1 3.044065 -6.016469 34.412109
646 0 1 2.533439 -5.663939 33.723389
647 0 1 1.606864 -5.611838 34.097992
648 0 1 0.841566 -6.179400 34.278412
649 0 1 -0.013724 -5.864939 34.174316
650 0 1 -0.655735 -6.032429 33.487793
651 0 1 -0.041964 -6.674149 33.127411
652 0 1 0.241216 -7.435429 33.634399
653 0 1 -0.093174 -8.209449 34.084503
654 0 1 -0.467755 -8.499679 34.953308
655 0 1 -1.375685 -8.841399 35.224304
656 0 1 -1.355155 -9.754138 35.530212
657 0 1 -1.409955 -10.476138 34.796295
658 0 1 -1.116576 -9.698539 34.360687
659 0 1 -1.478295 -9.264831 33.564087
660 0 1 -1.268494 -8.532580 34.083984
661 0 1 -0.704314 -8.525538 33.256104
662 0 1 0.135145 -8.617660 32.600494
663 0 1 0.178575 -9.562140 32.596710
664 0 1 -0.633494 -10.131640 32.505005
665 0 1 -0.887055 -10.634940 31.726595
666 0 1 -1.364764 -11.424439 31.413210
667 0 1 -0.479485 -11.518741 30.940004
668 0 1 -0.326396 -12.479838 31.012209
669 0 1 -0.531775 -13.402240 30.980989
670 0 1 0.221715 -13.363339 30.324404
671 0 1 0.644306 -13.480939 29.466890
672 0 1 0.442976 -14.314240 29.007387
673 0 1 -0.349995 -14.138339 28.459108
674 0 1 -0.104495 -13.859038 27.575594
675 0 1 0.853426 -13.744739 27.676302
676 0 1 0.859954 -13.277141 26.872805
677 0 1 1.455326 -13.264338 26.125216
678 0 1 1.201715 -12.369739 25.957094
679 0 1 0.332006 -12.204539 26.324709
680 0 1 0.847326 -11.437739 26.158907
681 0 1 1.226686 -11.129840 26.979708
682 0 1 1.401405 -12.131640 26.911013
683 0 1 2.000616 -12.691840 27.428102
684 0 1 2.371715 -12.967940 26.611391
685 0 1 3.130599 -12.692340 27.224611
686 0 1 3.536317 -13.289439 26.568605
687 0 1 3.887744 -12.766540 25.713900
688 0 1 4.547327 -12.393939 25.139406
689 0 1 4.750116 -12.577338 24.195803
690 0 1 4.443624 -11.735938 23.765017
691 0 1 4.242645 -12.601539 23.374605
692 0 1 3.838605 -13.410640 23.185701
693 0 1 4.203985 -14.054739 23.793703
694 0 1 3.906965 -14.178140 24.675112
695 0 1 3.321594 -14.916840 24.248507
696 0 1 3.189987 -15.357140 23.416414
697 0 1 3.707153 -15.083639 22.659090
698 0 1 3.453466 -15.605939 21.906099
699 0 1 2.601264 -15.181239 22.386705
700 0 1 2.235710 -15.264139 21.504305
701 0 1 1.849340 -15.135539 20.575701
702 0 1 1.701765 -15.614440 19.698305
703 0 1 1.785295 -15.297839 18.716295
704 0 1 2.389637 -14.788739 19.173998
705 0 1 1.637334 -14.182139 19.048906
706 0 1 0.990585 -13.519740 18.858904
707 0 1 0.207885 -12.904439 19.073000
708 0 1 -0.294344 -12.805940 18.227907
709 0 1 0.360694 -12.247039 17.894304
710 0 1 1.078165 -12.175139 18.579805
711 0 1 1.654075 -12.127238 19.434694
712 0 1 2.081375 -12.469340 20.182497
713 0 1 1.424976 -12.127540 20.807802
714 0 1 2.145639 -11.521739 20.942400
715 0 1 2.040111 -11.910338 21.827303
716 0 1 2.372921 -11.544139 22.654116
717 0 1 1.525335 -11.122039 22.415407
718 0 1 1.444126 -10.531341 21.650209
719 0 1 0.661565 -11.033938 21.383104
720 0 1 -0.097275 -10.454339 21.211504
721 0 1 0.389965 -10.027640 20.502108
722 0 1 -0.050644 -9.361400 19.913210
723 0 1 0.331485 -8.868930 20.662600
724 0 1 1.041275 -8.394839 21.103197
725 0 1 0.579244 -8.117299 21.886797
726 0 1 0.634454 -7.363959 22.566500
727 0 1 0.480045 -7.402339 23.514803
728 0 1 1.021196 -6.668028 23.228518
729 0 1 0.799736 -5.768649 23.356997
730 0 1 1.510746 -5.214388 23.639315
731 0 1 2.188495 -5.803439 23.380892
732 0 1 2.648883 -6.628199 23.356813
733 0 1 3.628448 -6.726378 23.327700
734 0 1 4.345407 -6.003489 23.384401
735 0 1 4.972024 -5.684489 24.091799
736 0 1 5.851705 -5.382258 24.451998
737 0 1 6.223707 -6.176289 24.634615
738 0 1 6.995954 -5.978058 25.280092
739 0 1 7.160425 -6.537558 26.069399
740 0 1 6.440095 -7.222758 26.316011
741 0 1 6.645734 -7.914439 25.751314
742 0 1 7.100164 -8.450980 26.422487
743 0 1 6.574636 -9.168578 26.111300
744 0 1 6.340555 -8.865859 27.040194
745 0 1 5.922456 -8.647460 27.867800
746 0 1 6.219156 -7.763949 27.634005
747 0 1 5.679433 -6.995579 27.818300
748 0 1 6.163187 -6.281029 28.211794
749 0 1 6.551134 -5.973479 27.326906
750 0 1 5.729543 -6.369759 26.997713
751 0 1 5.501363 -5.367018 26.808718
752 0 1 5.369733 -4.407319 26.995394
753 0 1 5.165094 -3.497500 27.095217
754 0 1 4.953893 -2.461388 27.180391
755 0 1 4.517354 -1.975770 27.842501
756 0 1 4.611005 -2.032198 28.834505
757 0 1 3.993135 -2.176810 29.548708
758 0 1 4.697286 -2.601819 30.068605
759 0 1 5.036054 -3.532488 30.065889
760 0 1 5.767797 -3.098979 30.531710
761 0 1 5.593927 -2.178828 30.397799
762 0 1 6.325815 -1.582108 30.356905
763 0 1 5.908864 -1.115809 29.666994
764 0 1 6.593366 -0.439274 29.247988
765 0 1 7.487714 -0.745799 28.968599
766 0 1 7.783884 -1.340409 29.670412
767 0 1 7.778505 -0.487099 30.156893
768 0 1 7.489797 0.274131 30.626192
769 0 1 8.470797 0.454849 30.591402
770 0 1 8.490175 1.388578 30.440004
771 0 1 8.883196 2.269983 30.340700
772 0 1 9.670694 1.895782 29.914095
773 0 1 9.740477 2.529100 29.153597
774 0 1 9.562735 2.429132 28.175417
775 0 1 9.938906 1.666521 27.686007
776 0 1 9.068235 1.397508 27.418612
777 0 1 9.592924 1.012319 26.774904
778 0 1 9.907045 0.366270 27.437593
779 0 1 10.742624 0.741546 27.461092
780 0 1 11.727976 1.040987 27.646090
781 0 1 12.719446 0.842769 27.465792
782 0 1 12.463495 1.245899 28.382296
783 0 1 12.614916 0.426261 28.812410
784 0 1 13.611437 0.534666 28.688601