LAMMPS data file via MDAnalysis

        2000  atoms
        1999  bonds
           0  angles
           0  dihedrals
           0  impropers

           1  atom types
           1  bond types
           0  angle types
           0  dihedral types
           0  improper types

-30.5 30.5 xlo xhi
-30.5 30.5 ylo yhi
-233.5 233.5 zlo zhi


Masses

1 1.000000

Atoms

1 0 1 6.114462 9.593369 36.046509
2 0 1 5.478213 9.104253 36.579193
3 0 1 6.321482 8.615479 36.512695
4 0 1 6.536263 7.703741 36.601410
5 0 1 7.366621 7.899011 36.292511
6 0 1 7.494902 8.548722 37.002594
7 0 1 7.941439 8.998902 36.303497
8 0 1 8.343860 9.334149 37.132385
9 0 1 9.161790 8.848710 37.367889
10 0 1 9.959033 8.495671 37.059204
11 0 1 9.558537 8.419251 36.132812
12 0 1 10.213464 8.727750 35.527802
13 0 1 10.989152 9.212640 35.906616
14 0 1 11.277444 10.108663 35.925201
15 0 1 11.413701 10.239930 36.818909
16 0 1 11.335572 9.590371 37.495483
17 0 1 12.024262 9.442510 38.193390
18 0 1 11.226705 9.750600 38.656799
19 0 1 10.575631 8.997350 38.604492
20 0 1 10.167302 8.993489 39.456299
21 0 1 9.323855 8.736672 39.725891
22 0 1 8.821876 7.934282 40.123901
23 0 1 8.386128 7.965612 41.006287
24 0 1 7.807906 7.216230 41.230591
25 0 1 8.331016 7.203203 42.010315
26 0 1 9.022334 6.936801 41.424011
27 0 1 8.904447 6.343616 40.669312
28 0 1 8.552306 6.296043 39.782013
29 0 1 8.686334 5.449436 40.164612
30 0 1 8.567264 4.888681 40.972992
31 0 1 9.186503 4.438621 41.543091
32 0 1 8.652978 3.752231 42.035187
33 0 1 7.849175 3.894531 42.530396
34 0 1 7.222172 4.372652 43.186401
35 0 1 6.715252 5.153848 43.301605
36 0 1 7.037652 5.421379 44.220093
37 0 1 7.315182 6.349903 44.196198
38 0 1 8.048753 6.825311 44.650391
39 0 1 8.566733 6.042078 44.584503
40 0 1 8.716527 5.212142 45.186798
41 0 1 8.466607 4.379220 44.816895
42 0 1 7.612257 4.788099 45.119202
43 0 1 7.043013 5.586057 45.231598
44 0 1 7.603812 6.169733 45.664001
45 0 1 7.053652 6.712371 46.168701
46 0 1 6.258152 6.930692 45.698486
47 0 1 5.536662 6.382886 45.427185
48 0 1 4.755581 6.672592 44.900085
49 0 1 4.134722 6.670871 45.649597
50 0 1 3.542073 7.093261 46.266785
51 0 1 3.053252 6.252681 46.107483
52 0 1 2.508072 5.451585 46.139496
53 0 1 1.800593 5.862155 45.590088
54 0 1 2.191983 5.127166 45.137604
55 0 1 3.028162 5.229331 44.638000
56 0 1 2.285162 5.484073 44.120483
57 0 1 2.321803 4.548021 43.748688
58 0 1 2.673762 4.140211 42.917786
59 0 1 3.123692 3.344180 43.132202
60 0 1 3.677613 3.355962 43.890411
61 0 1 3.217803 2.535951 44.252594
62 0 1 2.274592 2.414380 44.089691
63 0 1 2.777352 1.942481 43.370911
64 0 1 3.230843 1.506131 44.163605
65 0 1 4.106162 1.802522 44.470215
66 0 1 4.334881 2.202321 43.625793
67 0 1 4.616202 2.925491 44.328613
68 0 1 4.836462 3.026241 45.204590
69 0 1 4.643462 3.692352 45.886810
70 0 1 4.611712 3.838321 46.818604
71 0 1 5.082602 4.059991 47.620300
72 0 1 5.933453 4.036821 48.178192
73 0 1 6.555232 3.764562 48.804199
74 0 1 6.170601 4.597251 49.245605
75 0 1 6.195063 4.677648 50.211395
76 0 1 6.640372 3.876262 50.618591
77 0 1 7.329281 3.661762 51.313904
78 0 1 8.129983 4.089221 51.493500
79 0 1 8.686263 4.218662 50.731506
80 0 1 9.218314 4.854585 51.126099
81 0 1 10.063752 4.924284 51.714600
82 0 1 10.816594 4.857330 51.141296
83 0 1 11.203584 4.443820 51.964203
84 0 1 12.129334 4.185102 52.291107
85 0 1 12.482461 3.811200 51.445099
86 0 1 12.720784 3.714631 50.532806
87 0 1 13.392114 3.040811 50.949799
88 0 1 13.181905 2.244031 51.368713
89 0 1 14.063912 2.516141 51.741211
90 0 1 14.996182 2.276740 51.409485
91 0 1 15.480054 2.529102 52.179108
92 0 1 15.465795 3.303701 51.673584
93 0 1 15.978742 4.212821 51.689514
94 0 1 15.879724 4.185171 52.584900
95 0 1 15.097543 3.686132 52.692688
96 0 1 15.016572 4.600780 53.032990
97 0 1 15.436814 4.338401 53.808411
98 0 1 15.085324 3.600480 54.223297
99 0 1 14.172204 3.397540 53.805298
100 0 1 13.218133 3.848201 53.893097
101 0 1 12.934083 4.692468 54.162598
102 0 1 12.866155 4.676393 53.223907
103 0 1 12.547784 5.521871 53.496094
104 0 1 12.469651 6.533031 53.438904
105 0 1 11.479173 6.559757 53.526001
106 0 1 11.562623 7.542303 53.424805
107 0 1 10.824853 7.647882 52.790009
108 0 1 10.804372 8.395322 52.124817
109 0 1 10.895581 8.892262 52.957001
110 0 1 11.362004 9.726872 52.767395
111 0 1 11.090222 9.827512 53.682404
112 0 1 11.694993 10.445092 54.028503
113 0 1 10.819394 10.805551 54.294983
114 0 1 10.097264 11.369542 54.079010
115 0 1 9.132390 11.325063 54.265503
116 0 1 8.407825 10.629231 54.018799
117 0 1 7.678362 10.330621 54.519287
118 0 1 6.802012 10.546220 54.098206
119 0 1 6.880892 11.312680 53.485107
120 0 1 5.961281 11.276639 53.253998
121 0 1 5.183163 11.782220 53.317993
122 0 1 5.469132 12.380399 52.641785
123 0 1 5.673913 12.939981 51.907104
124 0 1 6.088871 12.578691 51.092987
125 0 1 5.364993 11.998090 50.818298
126 0 1 5.316302 11.031182 50.797699
127 0 1 4.411702 11.230733 50.979401
128 0 1 4.028323 10.428220 50.583984
129 0 1 3.921572 9.576039 50.162506
130 0 1 3.512303 9.653161 51.026398
131 0 1 3.548962 8.742810 51.134888
132 0 1 2.689522 8.596620 51.607910
133 0 1 2.910422 8.422822 52.543701
134 0 1 2.815003 7.459463 52.586792
135 0 1 2.998202 6.437175 52.807312
136 0 1 2.775752 5.617883 53.286987
137 0 1 3.149012 4.709863 53.251495
138 0 1 3.446402 5.053499 54.087494
139 0 1 2.711903 4.635536 54.564087
140 0 1 3.551482 4.257812 54.760590
141 0 1 4.415892 3.975721 54.702515
142 0 1 4.698323 4.797998 55.121307
143 0 1 5.249423 5.573438 55.413605
144 0 1 5.332512 5.343938 56.372314
145 0 1 4.572941 6.018775 56.173492
146 0 1 4.099143 6.229047 55.375000
147 0 1 4.567322 7.100221 55.369110
148 0 1 4.958033 7.550600 54.576202
149 0 1 5.421292 7.979742 53.849609
150 0 1 6.139573 7.920820 53.235291
151 0 1 5.452511 7.927301 52.512787
152 0 1 6.397162 7.890813 52.209412
153 0 1 6.829772 7.505682 51.479401
154 0 1 7.438242 7.359212 50.787811
155 0 1 8.259500 7.403753 50.291412
156 0 1 8.772449 7.767030 51.002289
157 0 1 9.339822 7.741380 50.219696
158 0 1 10.136731 7.561021 49.757996
159 0 1 10.781095 6.915061 50.025696
160 0 1 11.684255 7.232450 49.995911
161 0 1 12.323094 7.863832 50.270111
162 0 1 12.160413 8.821980 50.087189
163 0 1 13.124452 8.564561 50.104095
164 0 1 13.759183 9.248612 50.402100
165 0 1 13.347142 9.368070 51.283295
166 0 1 12.469384 9.419332 51.768311
167 0 1 12.569531 10.374211 51.940308
168 0 1 11.638822 10.671041 52.043213
169 0 1 11.067594 11.451303 52.276794
170 0 1 11.868142 11.806851 51.951996
171 0 1 11.065972 12.206212 51.522217
172 0 1 11.004373 13.083760 51.028015
173 0 1 11.092462 13.907041 51.560211
174 0 1 11.147084 14.799970 51.982605
175 0 1 10.885571 15.307511 51.251801
176 0 1 11.284802 15.353169 50.394012
177 0 1 11.188382 15.277642 49.497009
178 0 1 12.119184 15.656411 49.436188
179 0 1 12.924161 15.716912 49.921814
180 0 1 13.574334 15.151982 49.484100
181 0 1 14.266652 15.471570 50.132111
182 0 1 14.793714 16.215712 50.602600
183 0 1 15.284795 15.413030 50.520111
184 0 1 16.142010 15.463292 51.000183
185 0 1 16.259663 15.676610 51.870392
186 0 1 15.470525 16.230711 51.784912
187 0 1 14.615113 16.390409 52.270294
188 0 1 13.986081 16.285612 51.586090
189 0 1 13.848683 17.205214 51.621887
190 0 1 13.433053 17.168512 52.513916
191 0 1 13.504792 16.618113 53.258789
192 0 1 12.897382 16.003313 53.746613
193 0 1 12.187364 15.623311 54.230896
194 0 1 12.069104 15.737111 55.230988
195 0 1 11.933064 15.369641 56.080902
196 0 1 11.784791 16.174612 56.665192
197 0 1 12.395303 16.139013 57.455994
198 0 1 12.926461 16.937910 57.560303
199 0 1 12.728051 17.907412 57.829193
200 0 1 12.977582 18.743212 57.434204
201 0 1 12.873822 18.714411 56.501709
202 0 1 12.349633 18.273512 55.855896
203 0 1 12.640893 18.144411 54.972992
204 0 1 12.124234 18.780512 54.418701
205 0 1 12.745572 18.261911 53.839203
206 0 1 13.644292 17.864412 54.196899
207 0 1 13.246224 16.984911 54.254700
208 0 1 13.945184 16.361311 54.576813
209 0 1 14.530252 16.384912 53.867401
210 0 1 15.039994 15.551793 53.854889
211 0 1 15.990724 15.558702 53.666199
212 0 1 16.640312 15.246812 53.062408
213 0 1 17.395100 15.558030 52.597809
214 0 1 18.197803 15.535672 53.021484
215 0 1 18.392441 14.927690 52.282990
216 0 1 18.013821 15.675313 51.701508
217 0 1 17.583920 16.163012 50.978607
218 0 1 17.895672 16.187010 50.110596
219 0 1 17.157513 16.643312 49.709808
220 0 1 16.535450 16.105513 49.173584
221 0 1 15.709344 15.620412 49.136292
222 0 1 16.082912 14.744981 48.926392
223 0 1 15.317613 14.922360 48.435394
224 0 1 14.565122 15.364049 48.061310
225 0 1 13.881284 16.003111 48.038513
226 0 1 13.243424 15.949613 47.293396
227 0 1 13.410043 15.015752 47.425903
228 0 1 14.193612 14.853101 46.826294
229 0 1 13.888883 13.970880 47.014404
230 0 1 13.143964 13.376390 46.683502
231 0 1 13.369214 13.834611 45.811096
232 0 1 13.872903 13.027131 45.650299
233 0 1 14.530194 13.236661 45.042511
234 0 1 15.292672 12.987920 44.478790
235 0 1 14.881734 12.260102 44.944305
236 0 1 15.107942 12.295152 45.871887
237 0 1 14.265782 12.278359 46.351990
238 0 1 14.333371 11.381921 46.035309
239 0 1 14.351502 10.925389 46.944092
240 0 1 15.302354 10.891759 47.243500
241 0 1 15.937234 10.251241 47.013306
242 0 1 15.975842 10.176389 47.934814
243 0 1 14.971562 10.111440 48.113403
244 0 1 15.272672 9.662923 49.016785
245 0 1 14.878934 8.717492 48.838898
246 0 1 15.536271 8.185281 48.423798
247 0 1 16.453743 8.474339 48.337311
248 0 1 17.382801 8.341519 48.234009
249 0 1 17.249310 7.383283 48.120483
250 0 1 17.621433 6.674831 47.607117
251 0 1 17.416252 6.949232 46.726410
252 0 1 16.454700 6.836792 46.621399
253 0 1 15.880914 6.634782 45.837799
254 0 1 16.505653 6.712642 45.073090
255 0 1 16.303371 7.592363 45.359192
256 0 1 17.133263 7.707250 44.784302
257 0 1 18.084614 7.631441 44.808807
258 0 1 18.402134 7.448053 43.961792
259 0 1 18.868420 7.452791 43.095215
260 0 1 19.704121 7.269571 43.664612
261 0 1 20.636623 7.443872 43.665802
262 0 1 20.970222 8.347402 43.460602
263 0 1 21.681122 8.612981 42.779510
264 0 1 22.316921 7.835493 42.786896
265 0 1 22.580521 8.658853 42.328003
266 0 1 22.721123 9.449872 41.800201
267 0 1 23.222622 10.394860 42.040588
268 0 1 22.626720 11.037950 41.724915
269 0 1 22.122921 11.644311 41.263184
270 0 1 21.340622 11.220853 40.983490
271 0 1 22.107723 10.841920 40.495789
272 0 1 22.619823 11.665841 40.289093
273 0 1 23.474922 11.525292 39.852600
274 0 1 23.383720 11.893250 38.901703
275 0 1 22.556820 11.383809 38.933899
276 0 1 22.696922 10.674993 38.277710
277 0 1 22.329823 10.064561 38.825500
278 0 1 21.503422 9.963822 38.370697
279 0 1 21.058121 9.248982 38.774414
280 0 1 20.615021 8.356160 38.583984
281 0 1 19.790321 8.765542 38.795288
282 0 1 19.118622 9.257310 38.382111
283 0 1 18.385303 9.134561 38.943207
284 0 1 18.360523 10.117711 38.833405
285 0 1 18.499790 11.055829 38.820312
286 0 1 17.665813 11.576253 38.574402
287 0 1 18.172901 12.318273 38.249084
288 0 1 17.477833 12.577031 37.643005
289 0 1 16.615963 12.701951 37.174408
290 0 1 16.913422 13.711640 37.126312
291 0 1 16.102734 14.124440 37.363708
292 0 1 15.296853 13.704473 37.012390
293 0 1 14.727792 13.079141 37.528107
294 0 1 14.045812 12.636491 37.022400
295 0 1 13.992124 12.854791 36.004517
296 0 1 13.488702 12.782102 35.205902
297 0 1 13.369031 12.819150 34.212311
298 0 1 12.985555 13.524602 33.709290
299 0 1 12.303994 14.167470 33.443115
300 0 1 11.710874 14.839440 33.868500
301 0 1 11.021863 15.138982 33.199493
302 0 1 11.344201 16.048212 33.428192
303 0 1 11.078862 16.775911 34.043091
304 0 1 10.133183 16.934210 33.955017
305 0 1 10.055953 17.594610 33.244110
306 0 1 9.528497 17.044714 32.507904
307 0 1 9.443919 17.264311 31.614014
308 0 1 8.432485 17.641912 31.500214
309 0 1 8.404574 16.891813 32.083405
310 0 1 7.683461 16.477213 31.608002
311 0 1 7.006003 17.180914 31.278595
312 0 1 6.046473 16.826811 31.286011
313 0 1 5.381712 17.057512 31.858704
314 0 1 4.869563 16.442411 31.256104
315 0 1 4.697613 15.538072 31.624695
316 0 1 4.660141 14.913350 32.386200
317 0 1 4.596161 14.390931 33.211792
318 0 1 5.037491 14.219472 34.074402
319 0 1 4.315201 14.315991 34.832611
320 0 1 3.396191 14.161622 35.119995
321 0 1 4.066151 13.466821 35.342194
322 0 1 3.994141 12.984231 36.127014
323 0 1 3.199023 12.539941 36.468109
324 0 1 3.856402 11.963532 36.882294
325 0 1 3.491032 11.218820 37.398804
326 0 1 2.919182 10.526540 37.339508
327 0 1 2.480732 9.891862 36.718994
328 0 1 2.677252 10.501630 35.953003
329 0 1 2.602313 9.596959 35.668793
330 0 1 2.462243 8.655820 35.783508
331 0 1 1.903412 8.759072 36.540894
332 0 1 1.601952 7.877309 36.518616
333 0 1 1.821282 7.315122 35.694611
334 0 1 1.852463 6.837852 36.543884
335 0 1 1.275813 6.029377 36.423584
336 0 1 1.946963 5.356510 36.709412
337 0 1 1.350842 5.010902 37.370605
338 0 1 0.473732 4.650083 37.241791
339 0 1 0.406872 3.728980 36.953888
340 0 1 -0.601348 3.699460 37.082001
341 0 1 -1.574378 3.920121 36.890991
342 0 1 -2.316577 3.354291 36.718689
343 0 1 -2.274578 2.652520 35.992493
344 0 1 -3.140079 2.317882 35.862000
345 0 1 -3.430877 1.776012 36.659088
346 0 1 -3.285377 0.851901 36.673096
347 0 1 -2.837978 -0.005789 36.445404
348 0 1 -3.669479 -0.365168 36.663696
349 0 1 -4.204277 0.031350 36.043304
350 0 1 -4.149377 -0.363158 35.182190
351 0 1 -4.907379 0.273771 35.140900
352 0 1 -5.655777 -0.254208 35.096497
353 0 1 -6.473578 -0.748488 35.058807
354 0 1 -6.750178 0.115651 35.333496
355 0 1 -7.482677 -0.172509 35.856506
356 0 1 -7.311978 0.068582 36.738586
357 0 1 -8.221578 -0.317378 36.720612
358 0 1 -8.871877 -0.189469 36.038788
359 0 1 -9.731778 -0.486809 36.106384
360 0 1 -9.641976 0.186071 36.769897
361 0 1 -10.651076 0.251851 36.767090
362 0 1 -11.017777 -0.451850 37.243011
363 0 1 -11.876178 -0.786078 36.997009
364 0 1 -12.850577 -0.995410 37.084808
365 0 1 -13.280276 -1.857129 36.791199
366 0 1 -13.960076 -1.358039 36.339203
367 0 1 -14.713878 -1.781338 36.803802
368 0 1 -14.479478 -1.229579 37.593201
369 0 1 -15.286977 -0.663668 37.342590
370 0 1 -15.808177 -0.156150 36.761200
371 0 1 -15.579377 -1.060359 36.421692
372 0 1 -16.205278 -1.333560 37.126709
373 0 1 -16.510878 -0.967169 37.959595
374 0 1 -17.304579 -0.482619 37.961304
375 0 1 -17.782778 0.122590 37.423584
376 0 1 -17.981079 0.870862 37.959290
377 0 1 -17.239079 1.002332 38.625793
378 0 1 -16.646778 1.088041 39.448303
379 0 1 -17.273977 1.394040 40.044891
380 0 1 -17.363079 2.332601 40.084290
381 0 1 -16.594278 2.391002 40.653198
382 0 1 -16.169178 2.248641 39.804810
383 0 1 -15.899978 2.993020 39.240204
384 0 1 -15.720077 3.795652 39.675293
385 0 1 -15.629178 3.874162 40.630096
386 0 1 -14.735877 4.111461 40.675690
387 0 1 -15.196977 4.893154 40.266388
388 0 1 -15.005477 5.828937 39.942596
389 0 1 -15.423978 6.398767 39.237488
390 0 1 -14.617177 6.902002 39.114807
391 0 1 -14.767478 7.096681 38.218201
392 0 1 -15.408677 7.534692 37.674408
393 0 1 -15.390178 8.490491 38.016296
394 0 1 -14.497478 8.421903 38.369904
395 0 1 -14.360578 8.437100 39.323212
396 0 1 -14.936378 7.883020 39.801086
397 0 1 -15.082177 7.792570 40.751007
398 0 1 -14.877276 7.149770 41.488586
399 0 1 -15.364778 7.238801 42.306000
400 0 1 -16.072678 7.204999 42.943298
401 0 1 -15.767978 8.085290 43.147491
402 0 1 -15.275376 7.555070 43.746216
403 0 1 -15.680278 7.213552 44.575592
404 0 1 -16.286579 7.880620 44.969604
405 0 1 -16.139578 8.441762 45.868195
406 0 1 -15.674977 9.316739 46.105804
407 0 1 -14.756877 9.142102 45.792786
408 0 1 -14.016377 9.664620 46.141205
409 0 1 -14.547877 10.507619 46.289093
410 0 1 -14.133878 10.947270 47.096313
411 0 1 -15.046977 11.263860 47.253387
412 0 1 -14.912778 12.177651 47.397217
413 0 1 -14.637076 12.952130 47.972290
414 0 1 -13.934278 12.708352 47.378296
415 0 1 -13.471477 12.292680 46.647888
416 0 1 -12.787978 11.860242 47.107117
417 0 1 -11.908578 11.645989 47.405487
418 0 1 -12.295777 11.088952 46.721893
419 0 1 -12.175076 11.146432 45.811707
420 0 1 -11.538678 11.437371 45.121002
421 0 1 -10.943877 11.985410 44.497192
422 0 1 -10.136777 12.296189 44.839417
423 0 1 -9.522677 11.612142 45.064514
424 0 1 -9.729177 10.920060 44.369690
425 0 1 -9.679078 9.964250 44.228607
426 0 1 -8.844777 9.802621 44.751190
427 0 1 -9.090676 10.312680 45.455688
428 0 1 -8.277778 9.959512 45.720306
429 0 1 -7.838777 9.592042 46.557404
430 0 1 -7.445577 9.265943 45.761505
431 0 1 -7.214978 8.289220 45.379517
432 0 1 -6.361778 8.656400 45.680298
433 0 1 -6.485278 7.978582 46.329193
434 0 1 -5.961378 8.417851 47.068298
435 0 1 -6.861278 8.753732 47.032501
436 0 1 -7.159778 9.394219 47.756714
437 0 1 -7.877378 9.216912 48.364410
438 0 1 -8.743077 9.411092 48.846802
439 0 1 -9.307977 8.843930 48.358002
440 0 1 -9.347278 8.351972 49.177795
441 0 1 -10.150376 8.310250 48.636688
442 0 1 -10.355777 9.178300 48.953613
443 0 1 -10.643077 9.385381 49.833405
444 0 1 -9.993577 9.705682 50.441010
445 0 1 -9.575276 8.876782 50.705200
446 0 1 -10.181577 8.372399 51.240601
447 0 1 -9.845576 7.696222 50.700897
448 0 1 -10.865777 7.735803 50.762787
449 0 1 -11.663077 7.345430 50.362701
450 0 1 -12.327077 6.707962 50.542511
451 0 1 -12.126477 5.778522 50.857391
452 0 1 -12.044978 5.524522 51.769592
453 0 1 -12.312177 5.215244 52.629211
454 0 1 -11.846978 4.917711 53.512695
455 0 1 -12.366178 5.345211 54.231384
456 0 1 -12.860877 5.251598 55.086914
457 0 1 -13.814178 5.405853 55.309998
458 0 1 -14.582177 5.398115 55.889709
459 0 1 -15.494178 5.585777 56.147003
460 0 1 -15.274777 5.475507 57.104492
461 0 1 -14.595677 6.123256 57.545593
462 0 1 -14.025678 5.721979 58.214203
463 0 1 -13.892978 6.321365 59.035095
464 0 1 -13.476277 5.471630 59.445007
465 0 1 -13.310178 5.084690 58.558411
466 0 1 -13.331878 4.383281 59.192810
467 0 1 -13.261277 3.696962 58.559204
468 0 1 -12.460776 3.118461 58.484406
469 0 1 -12.353677 2.159091 58.292694
470 0 1 -12.761477 1.760001 57.425903
471 0 1 -12.115678 1.906680 56.845490
472 0 1 -11.267478 1.527860 56.577698
473 0 1 -10.691577 1.816861 55.806213
474 0 1 -11.126178 1.651212 54.902588
475 0 1 -11.714578 0.908941 54.500305
476 0 1 -11.603278 -0.049149 54.491516
477 0 1 -12.465978 -0.476699 54.330902
478 0 1 -13.092877 0.123740 54.682587
479 0 1 -13.176476 -0.719659 55.191895
480 0 1 -13.469176 0.010301 55.697510
481 0 1 -14.042277 -0.655558 56.033112
482 0 1 -14.459376 -0.541529 55.150909
483 0 1 -14.301177 -1.270409 54.474091
484 0 1 -14.182677 -2.020459 53.940308
485 0 1 -14.091376 -1.993069 52.999512
486 0 1 -14.675776 -2.712958 53.239899
487 0 1 -15.542777 -2.973649 53.234711
488 0 1 -16.397179 -3.304188 53.455811
489 0 1 -16.499279 -3.873790 52.681091
490 0 1 -16.372377 -2.993329 52.331512
491 0 1 -15.450677 -3.163680 51.962311
492 0 1 -15.634078 -4.072810 51.638489
493 0 1 -15.668178 -5.027888 51.464508
494 0 1 -15.543878 -5.342288 52.382507
495 0 1 -14.753078 -5.670989 52.787292
496 0 1 -14.560378 -6.255488 53.546204
497 0 1 -15.014176 -6.858689 54.255615
498 0 1 -14.791577 -7.435988 55.060089
499 0 1 -14.393277 -8.028489 55.711700
500 0 1 -14.045278 -8.030789 56.658386
501 0 1 -14.919078 -8.262189 56.979401
502 0 1 -14.116277 -8.959589 57.175995
503 0 1 -13.253278 -8.824790 57.541199
504 0 1 -12.339477 -8.508990 57.318390
505 0 1 -11.625278 -8.104789 57.885010
506 0 1 -12.106778 -8.855189 58.274414
507 0 1 -12.647977 -8.086490 58.221588
508 0 1 -13.319676 -8.259490 58.857483
509 0 1 -13.240577 -7.316788 58.821106
510 0 1 -13.722377 -7.526488 57.967804
511 0 1 -14.088378 -8.377990 58.142517
512 0 1 -14.432677 -9.055089 58.801697
513 0 1 -14.918578 -9.620090 59.373810
514 0 1 -15.588677 -10.311889 59.791504
515 0 1 -15.307477 -10.715989 60.712585
516 0 1 -15.100677 -9.781189 60.590912
517 0 1 -14.411977 -10.385289 60.214294
518 0 1 -13.454278 -10.199889 60.362213
519 0 1 -12.854377 -10.131589 61.092712
520 0 1 -12.871778 -9.763089 62.033997
521 0 1 -11.932178 -9.754989 62.034790
522 0 1 -11.213477 -10.373989 62.349396
523 0 1 -10.890677 -10.766189 61.536011
524 0 1 -11.766778 -10.638789 61.270599
525 0 1 -11.419278 -10.244289 60.453491
526 0 1 -11.420177 -10.969789 59.821198
527 0 1 -11.672976 -11.497190 59.033508
528 0 1 -11.478078 -12.395089 59.137085
529 0 1 -10.598977 -12.782390 59.176392
530 0 1 -10.376777 -13.686790 59.276917
531 0 1 -10.659978 -13.848489 58.340515
532 0 1 -9.922177 -13.551389 57.763092
533 0 1 -10.803378 -13.292890 57.425812
534 0 1 -11.355378 -13.821090 56.879395
535 0 1 -11.439677 -14.153689 55.971802
536 0 1 -10.787477 -13.845988 55.313110
537 0 1 -10.506778 -14.217389 54.452789
538 0 1 -9.770078 -13.606589 54.489899
539 0 1 -9.109378 -14.052489 55.044708
540 0 1 -8.838378 -13.078090 55.029999
541 0 1 -8.149478 -12.434390 55.185394
542 0 1 -8.260077 -11.544490 54.822815
543 0 1 -8.108277 -11.179290 53.926086
544 0 1 -8.014876 -10.240689 54.229187
545 0 1 -7.137778 -10.354089 53.790009
546 0 1 -6.935678 -9.404989 53.774597
547 0 1 -6.232277 -9.063689 53.193909
548 0 1 -6.134878 -8.613790 52.348907
549 0 1 -5.508876 -8.335288 52.987213
550 0 1 -5.200576 -9.248389 53.018402
551 0 1 -5.254676 -10.108989 53.455505
552 0 1 -4.308378 -10.104489 53.261414
553 0 1 -3.537578 -9.708989 52.801788
554 0 1 -3.351778 -8.764789 53.023804
555 0 1 -4.073379 -8.146091 53.332306
556 0 1 -3.275077 -7.488188 53.502014
557 0 1 -2.660179 -6.759287 53.753296
558 0 1 -2.067878 -6.579188 54.467804
559 0 1 -1.431697 -6.138487 53.875610
560 0 1 -0.911666 -5.744090 54.580200
561 0 1 -0.179718 -6.175389 55.144592
562 0 1 0.746853 -6.202990 55.345093
563 0 1 1.031312 -5.592589 54.614105
564 0 1 0.850201 -4.637690 54.698090
565 0 1 0.593201 -4.284728 53.799988
566 0 1 -0.168508 -3.675200 53.960693
567 0 1 -0.241168 -4.027937 53.070587
568 0 1 -0.763149 -4.540690 52.432587
569 0 1 -1.396038 -4.519389 51.717987
570 0 1 -1.742378 -5.321688 52.143005
571 0 1 -0.941078 -5.826489 51.906708
572 0 1 -1.168258 -5.559588 50.967712
573 0 1 -2.002578 -5.173689 51.063416
574 0 1 -2.480377 -5.707690 50.453094
575 0 1 -3.479377 -5.619589 50.535889
576 0 1 -3.344078 -5.144589 49.709717
577 0 1 -3.295478 -5.590989 48.905396
578 0 1 -2.929378 -5.949389 48.112793
579 0 1 -3.882679 -5.813689 48.096497
580 0 1 -3.633876 -6.495989 47.351898
581 0 1 -4.271078 -6.802187 46.687805
582 0 1 -5.096178 -7.401087 46.574310
583 0 1 -4.415779 -8.122088 46.620392
584 0 1 -4.946678 -8.856090 46.299500
585 0 1 -3.970378 -8.990389 45.970612
586 0 1 -4.424778 -8.922489 45.078491
587 0 1 -3.477178 -9.184690 45.001892
588 0 1 -2.884378 -9.341089 44.237701
589 0 1 -2.759378 -9.973389 44.938202
590 0 1 -3.196777 -10.593989 45.536987
591 0 1 -2.890178 -11.486789 45.592712
592 0 1 -2.646278 -11.915389 44.714203
593 0 1 -1.923679 -12.446589 45.196106
594 0 1 -2.377079 -12.934690 44.432800
595 0 1 -3.152977 -12.634589 43.986816
596 0 1 -3.236179 -13.248590 43.300293
597 0 1 -4.076578 -13.391589 43.750092
598 0 1 -3.849178 -13.082189 44.633087
599 0 1 -4.594478 -12.669589 44.934906
600 0 1 -4.168777 -11.956889 45.415894
601 0 1 -3.803379 -11.386289 46.089111
602 0 1 -4.174377 -10.577489 46.590210
603 0 1 -4.635879 -9.774189 46.588409
604 0 1 -5.304677 -10.450589 46.402191
605 0 1 -5.684478 -11.184890 46.879517
606 0 1 -6.638278 -11.067288 46.601898
607 0 1 -6.643878 -10.835090 47.557404
608 0 1 -6.900678 -10.521588 48.449585
609 0 1 -6.996778 -11.144488 49.133606
610 0 1 -6.900578 -12.080190 49.381897
611 0 1 -6.698778 -12.193089 50.289093
612 0 1 -6.640578 -13.108489 50.170898
613 0 1 -7.006578 -14.003690 50.065704
614 0 1 -7.444778 -14.610789 50.652100
615 0 1 -8.138278 -14.800689 51.313904
616 0 1 -8.780976 -14.145490 51.447906
617 0 1 -9.404277 -13.955089 50.739014
618 0 1 -9.321177 -14.824090 50.197388
619 0 1 -9.809077 -15.328589 49.593597
620 0 1 -9.412278 -15.928988 48.936096
621 0 1 -8.601178 -16.004488 48.449310
622 0 1 -7.786378 -15.953488 47.914185
623 0 1 -8.446477 -15.884589 47.228088
624 0 1 -7.583778 -15.949689 46.772400
625 0 1 -7.096578 -15.496989 45.987396
626 0 1 -6.867877 -14.594890 46.079285
627 0 1 -7.711677 -14.132789 46.274292
628 0 1 -7.055878 -13.426490 46.241913
629 0 1 -6.785677 -12.524890 46.405090
630 0 1 -6.059978 -13.127189 46.612213
631 0 1 -5.317176 -12.491988 46.647308
632 0 1 -5.228778 -12.910989 47.514496
633 0 1 -4.534177 -13.214490 48.176788
634 0 1 -4.063278 -13.642589 49.047791
635 0 1 -3.537979 -12.822888 49.174591
636 0 1 -3.964677 -11.961989 49.354889
637 0 1 -4.047378 -12.337390 50.219299
638 0 1 -4.054977 -13.264390 50.532806
639 0 1 -4.887878 -13.679090 50.359100
640 0 1 -5.403678 -13.437890 51.186493
641 0 1 -4.936779 -12.575290 50.950500
642 0 1 -4.245479 -13.041690 51.460999
643 0 1 -4.047279 -12.841489 52.395905
644 0 1 -4.187778 -12.385989 53.220795
645 0 1 -4.121578 -13.162889 53.829407
646 0 1 -3.839077 -14.062690 53.637695
647 0 1 -3.301078 -14.816689 53.353790
648 0 1 -2.523479 -15.469089 53.277191
649 0 1 -3.059177 -16.038288 52.697296
650 0 1 -3.611179 -16.369589 52.032013
651 0 1 -2.693077 -16.639288 51.566284
652 0 1 -1.942277 -17.106989 51.888702
653 0 1 -1.582677 -17.093887 50.973389
654 0 1 -0.940269 -16.839289 50.333588
655 0 1 -0.322618 -16.918488 51.011597
656 0 1 0.555302 -16.637989 50.801208
657 0 1 -0.080358 -16.219389 50.252808
658 0 1 -0.133708 -15.371089 49.729706
659 0 1 -0.089859 -15.451989 48.816101
660 0 1 -0.781158 -15.315188 48.154785
661 0 1 -1.440378 -15.472690 47.431793
662 0 1 -1.502479 -16.396288 47.224487
663 0 1 -2.393777 -16.219389 47.524109
664 0 1 -2.313978 -17.182589 47.736908
665 0 1 -2.449378 -17.261688 46.793884
666 0 1 -2.309577 -17.540188 45.890503
667 0 1 -3.186178 -17.560287 45.464996
668 0 1 -3.979578 -18.123487 45.122894
669 0 1 -4.123779 -17.599789 44.240295
670 0 1 -5.110279 -17.542889 44.431610
671 0 1 -5.621177 -17.545988 43.602600
672 0 1 -5.941978 -16.939688 42.981506
673 0 1 -5.099777 -17.083689 42.519287
674 0 1 -5.148078 -18.134989 42.304199
675 0 1 -4.386978 -18.318188 41.735504
676 0 1 -4.508277 -18.007587 40.837799
677 0 1 -4.109478 -17.886889 40.007690
678 0 1 -4.177577 -18.282087 39.159790
679 0 1 -3.741577 -17.674587 38.549988
680 0 1 -4.241779 -17.099388 37.932587
681 0 1 -3.887878 -16.937689 37.058105
682 0 1 -3.257476 -16.456188 37.630615
683 0 1 -3.171978 -16.111588 38.516388
684 0 1 -2.568477 -16.596687 39.074890
685 0 1 -2.809778 -15.754390 39.513000
686 0 1 -3.315078 -14.928288 39.660797
687 0 1 -3.454479 -14.051990 39.956207
688 0 1 -3.933677 -14.050488 40.782104
689 0 1 -4.103677 -14.946689 41.204285
690 0 1 -4.699878 -15.301888 40.487000
691 0 1 -4.725276 -14.931390 39.578613
692 0 1 -5.516178 -15.318089 39.098511
693 0 1 -5.015876 -14.853688 38.393402
694 0 1 -5.112079 -14.360290 37.565186
695 0 1 -5.313579 -13.440888 37.637695
696 0 1 -5.833278 -12.616590 37.614014
697 0 1 -6.182778 -12.817389 36.756287
698 0 1 -6.474678 -13.718490 36.837097
699 0 1 -7.127878 -14.028989 37.438904
700 0 1 -7.197978 -14.517589 36.648895
701 0 1 -6.640778 -14.606389 35.889008
702 0 1 -6.551278 -14.052690 35.100189
703 0 1 -6.396278 -13.288690 34.555206
704 0 1 -7.110578 -12.760489 34.285004
705 0 1 -7.463378 -12.164889 35.014313
706 0 1 -8.333676 -12.582789 34.999512
707 0 1 -8.355977 -12.888089 34.104309
708 0 1 -9.317878 -12.643289 34.349915
709 0 1 -9.532777 -13.592189 34.363403
710 0 1 -10.007176 -14.181289 33.826508
711 0 1 -9.644177 -15.015889 33.907593
712 0 1 -8.931478 -14.796988 33.286804
713 0 1 -8.906377 -13.899589 32.976105
714 0 1 -8.103677 -13.834390 33.469604
715 0 1 -7.111278 -13.631490 33.532593
716 0 1 -6.869877 -14.457290 33.152802
717 0 1 -6.281778 -15.106189 33.512390
718 0 1 -6.427978 -15.289189 32.613708
719 0 1 -6.443178 -14.920789 31.799988
720 0 1 -6.714178 -14.044490 31.925507
721 0 1 -5.792078 -13.906388 32.169495
722 0 1 -4.947177 -13.775189 32.396301
723 0 1 -4.793478 -14.690490 32.705505
724 0 1 -4.643978 -15.578889 32.339417
725 0 1 -3.797178 -15.740390 32.799805
726 0 1 -3.356777 -15.217790 33.509308
727 0 1 -2.918878 -16.164087 33.621002
728 0 1 -2.107578 -15.578090 33.371094
729 0 1 -1.882278 -15.833388 32.450012
730 0 1 -2.368679 -16.634489 32.185699
731 0 1 -3.288978 -16.697689 31.902191
732 0 1 -2.807579 -17.502989 31.780609
733 0 1 -2.783678 -17.333588 32.752594
734 0 1 -3.126678 -18.063688 33.284607
735 0 1 -2.276279 -18.375288 33.467804
736 0 1 -2.149078 -17.428688 33.554810
737 0 1 -2.409177 -16.929989 34.331207
738 0 1 -1.648777 -16.771088 34.863800
739 0 1 -0.942398 -16.823889 35.540405
740 0 1 -0.370798 -17.484287 35.095093
741 0 1 -0.717277 -18.253988 35.573303
742 0 1 -0.719467 -19.193989 35.807098
743 0 1 -1.242708 -18.620989 36.414917
744 0 1 -1.983278 -18.483889 37.011597
745 0 1 -1.496879 -18.011787 37.661194
746 0 1 -1.382308 -17.061089 37.596405
747 0 1 -0.466659 -16.861288 37.352295
748 0 1 0.344883 -17.262089 37.719696
749 0 1 1.034573 -17.210289 37.070007
750 0 1 1.252373 -16.861288 36.182800
751 0 1 0.565243 -16.499887 35.631104
752 0 1 0.116103 -16.421288 34.804596
753 0 1 -0.462669 -16.441889 34.027496
754 0 1 -0.162387 -16.720589 33.123199
755 0 1 0.355092 -17.268688 32.541504
756 0 1 0.715802 -16.355087 32.378510
757 0 1 1.461133 -15.766688 32.134399
758 0 1 0.703822 -15.183089 31.903992
759 0 1 1.449723 -14.750588 31.370087
760 0 1 1.572333 -14.868690 30.414398
761 0 1 1.083663 -14.416188 29.710510
762 0 1 0.682831 -15.272689 29.456909
763 0 1 1.269463 -15.959390 29.158691
764 0 1 0.964283 -15.497390 28.380096
765 0 1 1.609522 -16.196289 28.123413
766 0 1 2.094502 -16.993288 28.247894
767 0 1 2.705021 -17.162588 27.472107
768 0 1 2.655993 -16.986088 26.544006
769 0 1 2.117821 -17.853788 26.424103
770 0 1 2.040892 -18.792288 26.203003
771 0 1 1.326252 -18.588089 25.521912
772 0 1 0.418221 -18.457188 25.703400
773 0 1 -0.044357 -19.250288 25.444092
774 0 1 -0.726198 -18.597387 25.574188
775 0 1 -1.074089 -17.878387 25.090210
776 0 1 -1.176898 -17.006689 24.629303
777 0 1 -0.340497 -17.432487 24.379913
778 0 1 0.569352 -17.441288 24.113007
779 0 1 1.067763 -17.707788 23.357208
780 0 1 1.298712 -17.660288 22.412796
781 0 1 2.093792 -17.164389 22.701996
782 0 1 2.759282 -16.434088 22.945709
783 0 1 3.189272 -16.253588 23.822510
784 0 1 2.997452 -16.417189 24.715790
785 0 1 2.296122 -15.692889 24.958405