LAMMPS data file via MDAnalysis

        2000  atoms
        1999  bonds
           0  angles
           0  dihedrals
           0  impropers

           1  atom types
           1  bond types
           0  angle types
           0  dihedral types
           0  improper types

-30.5 30.5 xlo xhi
-30.5 30.5 ylo yhi
-233.5 233.5 zlo zhi


Masses

1 1.000000

Atoms

1 0 1 -7.325301 2.637054 49.826111
2 0 1 -6.607481 2.028404 50.114594
3 0 1 -6.245892 2.247463 50.954712
4 0 1 -6.252753 1.690113 51.755798
5 0 1 -6.922251 2.331003 52.010315
6 0 1 -7.810801 2.656523 51.836090
7 0 1 -7.110083 3.186823 51.447815
8 0 1 -6.762312 4.041695 51.145996
9 0 1 -5.904421 3.702133 51.529297
10 0 1 -5.962931 3.746534 50.586914
11 0 1 -5.470942 3.055113 50.039917
12 0 1 -4.622712 3.480213 49.884491
13 0 1 -4.455872 4.311554 49.363892
14 0 1 -4.336482 4.316023 48.409698
15 0 1 -4.334181 3.719373 47.644897
16 0 1 -4.647051 2.800384 47.576202
17 0 1 -3.978671 2.084003 47.598907
18 0 1 -4.109871 2.311834 46.686005
19 0 1 -4.369631 2.746023 45.850800
20 0 1 -5.248122 2.829813 45.464813
21 0 1 -5.114192 2.460724 44.546997
22 0 1 -6.055010 2.478513 44.370789
23 0 1 -6.537722 2.303484 45.112091
24 0 1 -7.396002 2.122944 44.714996
25 0 1 -7.663203 3.045053 44.629395
26 0 1 -8.619301 3.214332 44.629608
27 0 1 -9.265202 2.748213 45.254517
28 0 1 -9.373602 2.196594 44.406403
29 0 1 -10.346601 2.186174 44.578705
30 0 1 -9.979700 3.115213 44.435089
31 0 1 -10.929502 3.216913 44.697601
32 0 1 -11.880001 3.069593 44.606812
33 0 1 -12.293201 2.669603 43.859711
34 0 1 -13.086001 2.182493 43.700409
35 0 1 -13.383501 2.308273 42.795105
36 0 1 -13.562002 2.408783 41.859894
37 0 1 -14.325802 2.167063 42.434906
38 0 1 -14.820902 2.824194 42.977600
39 0 1 -14.407801 2.362354 43.680298
40 0 1 -14.554201 1.419504 43.812408
41 0 1 -15.219501 0.979812 44.376099
42 0 1 -15.905201 1.594574 44.590088
43 0 1 -15.990101 1.462112 45.507599
44 0 1 -15.081701 1.771143 45.553284
45 0 1 -15.237402 1.069153 46.164612
46 0 1 -15.195402 0.932792 47.102997
47 0 1 -15.081902 1.486713 47.886902
48 0 1 -15.513601 2.097624 47.300995
49 0 1 -14.612600 2.306854 47.166016
50 0 1 -14.745701 3.037224 46.500397
51 0 1 -14.718700 3.201273 45.501099
52 0 1 -15.329502 3.777693 45.027008
53 0 1 -16.095602 3.458643 45.467407
54 0 1 -16.727402 3.517673 44.750305
55 0 1 -16.898802 4.010983 43.870605
56 0 1 -17.749302 4.385313 43.573792
57 0 1 -17.791601 4.868984 42.730011
58 0 1 -17.108501 5.293932 42.150513
59 0 1 -17.324001 4.874773 41.341400
60 0 1 -17.980902 5.224848 40.751892
61 0 1 -18.725502 4.769974 40.322113
62 0 1 -18.309702 4.223034 40.891907
63 0 1 -17.961901 3.875253 41.657715
64 0 1 -17.355301 3.114664 41.442902
65 0 1 -17.006502 2.186693 41.329407
66 0 1 -16.113102 2.319174 41.493591
67 0 1 -15.904800 1.752502 42.275787
68 0 1 -15.192902 1.251423 41.871216
69 0 1 -14.206800 1.095314 41.565002
70 0 1 -14.669302 0.342893 41.142090
71 0 1 -14.359800 0.453804 40.233093
72 0 1 -15.025402 0.109064 39.577515
73 0 1 -15.817701 0.125353 40.056396
74 0 1 -15.960300 -0.763836 39.733795
75 0 1 -15.487402 -1.651676 39.580292
76 0 1 -15.944101 -2.197506 40.136200
77 0 1 -15.781301 -1.997288 41.066193
78 0 1 -14.872501 -1.567776 40.949310
79 0 1 -14.575901 -2.451218 41.203613
80 0 1 -13.689201 -2.411198 41.469391
81 0 1 -14.077801 -2.177098 42.321289
82 0 1 -14.448502 -2.431465 43.206299
83 0 1 -15.371601 -2.354447 42.957703
84 0 1 -16.206800 -2.210797 42.470398
85 0 1 -16.851801 -2.643357 43.018005
86 0 1 -16.888601 -2.594527 43.950989
87 0 1 -17.818102 -2.790877 43.831390
88 0 1 -17.781601 -2.037047 44.385590
89 0 1 -18.573101 -1.623516 44.847900
90 0 1 -19.373602 -1.809696 44.330811
91 0 1 -18.895201 -2.308466 43.688202
92 0 1 -19.328201 -2.576197 42.913605
93 0 1 -19.689201 -3.011517 42.173706
94 0 1 -19.311102 -2.970165 41.207397
95 0 1 -20.215200 -3.118717 41.017303
96 0 1 -21.164301 -3.034456 41.171997
97 0 1 -20.856802 -2.231808 41.583405
98 0 1 -20.236900 -1.870476 40.914093
99 0 1 -20.607401 -1.443667 40.165405
100 0 1 -20.899601 -0.518196 39.892517
101 0 1 -20.228302 -0.396298 39.232788
102 0 1 -20.240501 -0.338486 38.192505
103 0 1 -19.293800 -0.638987 38.278198
104 0 1 -18.619301 0.013412 38.002411
105 0 1 -19.110201 0.757833 38.226593
106 0 1 -19.214201 0.605053 39.163910
107 0 1 -18.987402 -0.294176 39.388916
108 0 1 -18.329401 0.251263 39.793396
109 0 1 -17.800402 1.033373 39.767090
110 0 1 -18.403801 1.540083 40.262909
111 0 1 -19.162701 1.456394 39.762787
112 0 1 -19.403801 2.250404 39.276306
113 0 1 -19.969002 1.689854 38.756409
114 0 1 -20.364201 2.511093 38.253510
115 0 1 -20.673700 3.174373 38.890900
116 0 1 -20.699402 3.892614 38.335205
117 0 1 -21.283501 3.217464 38.010986
118 0 1 -21.702101 2.583084 37.386993
119 0 1 -22.599001 2.905763 37.431396
120 0 1 -22.782600 3.862863 37.188202
121 0 1 -23.330400 4.540693 37.551605
122 0 1 -22.402000 4.767633 37.554810
123 0 1 -22.465900 5.744461 37.329010
124 0 1 -23.369001 5.606144 37.118500
125 0 1 -22.804602 5.541950 36.313690
126 0 1 -23.344301 5.734898 35.558807
127 0 1 -23.114700 6.550928 35.137390
128 0 1 -22.290501 6.156296 35.382690
129 0 1 -22.369701 6.112492 34.439087
130 0 1 -21.520502 6.625795 34.653015
131 0 1 -20.937601 7.414494 34.702698
132 0 1 -21.719301 7.424654 35.260712
133 0 1 -21.491402 8.317554 35.144012
134 0 1 -21.785601 8.157913 34.155701
135 0 1 -22.301901 8.892475 34.577301
136 0 1 -22.631201 8.914722 33.679596
137 0 1 -22.113102 9.734863 33.803406
138 0 1 -22.096500 10.364662 34.478394
139 0 1 -21.206001 10.230865 34.838989
140 0 1 -20.454000 10.186554 34.102112
141 0 1 -19.769402 10.115395 33.508789
142 0 1 -18.992201 10.539925 33.840698
143 0 1 -18.880301 9.951344 33.097198
144 0 1 -19.112402 9.963745 32.140900
145 0 1 -18.664902 9.146824 32.423492
146 0 1 -18.874502 8.617825 33.182190
147 0 1 -19.803402 8.173752 33.067993
148 0 1 -20.300701 8.229004 32.188293
149 0 1 -20.266602 9.169754 32.475586
150 0 1 -19.690302 8.937565 31.694092
151 0 1 -19.655302 8.180073 31.123688
152 0 1 -19.719601 8.474983 30.217712
153 0 1 -20.713701 8.384945 30.028015
154 0 1 -21.559702 8.722065 29.581909
155 0 1 -21.879501 9.554714 29.077209
156 0 1 -21.048201 9.966335 28.839905
157 0 1 -20.633902 10.771942 28.630798
158 0 1 -21.115902 11.437893 29.160095
159 0 1 -21.849001 10.902802 28.868591
160 0 1 -22.557602 10.803474 28.199402
161 0 1 -23.286402 10.389122 27.806396
162 0 1 -24.076900 10.358002 27.199005
163 0 1 -24.095501 9.802555 27.956299
164 0 1 -23.857000 9.028744 27.388397
165 0 1 -22.995201 8.907333 26.986206
166 0 1 -22.339001 8.642365 27.640594
167 0 1 -21.934301 8.218502 26.875397
168 0 1 -22.069401 8.133183 25.962402
169 0 1 -22.178501 7.999485 25.020996
170 0 1 -21.782402 8.849453 25.191711
171 0 1 -21.048401 9.354404 25.384796
172 0 1 -20.106501 9.360264 25.047302
173 0 1 -19.569002 10.110794 24.856689
174 0 1 -19.781101 10.913975 25.346802
175 0 1 -18.980701 10.905254 25.895386
176 0 1 -17.965200 10.451515 26.088104
177 0 1 -17.552900 9.633995 25.780884
178 0 1 -17.369001 8.832844 25.278900
179 0 1 -17.184702 7.991943 24.903687
180 0 1 -17.769001 8.564713 24.229797
181 0 1 -16.972502 9.059093 24.105011
182 0 1 -16.703701 8.125412 23.967194
183 0 1 -17.303801 7.360933 24.075409
184 0 1 -18.288601 7.510313 23.950012
185 0 1 -18.563902 6.608677 23.693787
186 0 1 -19.135101 5.906319 23.491608
187 0 1 -18.582802 6.133223 22.710907
188 0 1 -18.559601 5.314943 22.158295
189 0 1 -18.633801 4.402813 21.835999
190 0 1 -19.125202 3.764644 22.374100
191 0 1 -18.337301 3.295164 22.812500
192 0 1 -17.356901 3.348762 22.980103
193 0 1 -16.806202 2.970884 22.307205
194 0 1 -15.914902 2.701423 22.185501
195 0 1 -15.190201 2.780224 21.587906
196 0 1 -15.350302 2.394394 20.740494
197 0 1 -15.071402 3.190204 20.403702
198 0 1 -14.300901 3.379854 20.988098
199 0 1 -13.436102 3.811542 20.977005
200 0 1 -13.579601 3.597214 20.028595
201 0 1 -13.616901 2.702593 20.156006
202 0 1 -13.127401 2.629883 19.308395
203 0 1 -14.008501 2.674043 18.831497
204 0 1 -14.178902 3.632463 18.532303
205 0 1 -15.008801 3.198623 18.192307
206 0 1 -15.234201 3.808683 17.415298
207 0 1 -14.897301 4.144943 16.607697
208 0 1 -15.304401 4.851143 15.996796
209 0 1 -16.299801 5.073360 16.006897
210 0 1 -15.886501 5.848476 15.650299
211 0 1 -15.193701 5.541676 15.128494
212 0 1 -15.639601 4.909224 14.636902
213 0 1 -15.858501 5.877731 14.454193
214 0 1 -16.375101 6.711966 14.478302
215 0 1 -15.948400 7.203743 13.738205
216 0 1 -15.975302 8.148933 14.032501
217 0 1 -16.461802 8.467983 14.796005
218 0 1 -16.570601 9.354214 14.393799
219 0 1 -15.767801 9.796005 14.131699
220 0 1 -14.914801 9.997242 13.975708
221 0 1 -14.070702 10.440804 13.740692
222 0 1 -14.339201 11.159264 13.132507
223 0 1 -13.996302 12.073612 12.931000
224 0 1 -14.778601 12.727684 12.820297
225 0 1 -15.675602 12.529385 12.646194
226 0 1 -15.294401 13.032604 11.936798
227 0 1 -15.323202 12.056522 11.585297
228 0 1 -14.933701 11.232563 11.194199
229 0 1 -14.518402 10.916512 11.973801
230 0 1 -14.330702 10.129414 11.458496
231 0 1 -14.868702 9.381763 11.705704
232 0 1 -13.991402 9.211613 12.127899
233 0 1 -13.172401 8.883335 12.434204
234 0 1 -13.048401 9.742634 11.912796
235 0 1 -12.142402 9.767815 11.699799
236 0 1 -11.939901 8.876472 11.378006
237 0 1 -11.859901 8.736233 10.431793
238 0 1 -12.359801 9.419865 9.880920
239 0 1 -12.789901 9.385525 9.066788
240 0 1 -13.492500 9.013824 8.579926
241 0 1 -14.001902 9.755512 8.325638
242 0 1 -14.595402 10.358452 7.806305
243 0 1 -15.060701 10.757462 8.536850
244 0 1 -14.713501 11.364632 9.233170
245 0 1 -13.956902 11.576805 8.652252
246 0 1 -13.193501 12.132923 8.975098
247 0 1 -12.456902 12.661972 8.599670
248 0 1 -12.106701 12.955555 7.787796
249 0 1 -11.372501 12.761784 7.219055
250 0 1 -10.673002 12.180466 7.727997
251 0 1 -9.987101 11.497604 7.681671
252 0 1 -9.343102 10.834991 7.550247
253 0 1 -8.865801 10.801334 8.391647
254 0 1 -8.258902 10.256813 7.763626
255 0 1 -8.895300 9.692825 8.110062
256 0 1 -9.087801 8.919254 7.605255
257 0 1 -9.279600 9.496304 6.863861
258 0 1 -9.866001 9.173405 6.162979
259 0 1 -10.693401 9.501495 5.770416
260 0 1 -9.958200 9.486423 5.078415
261 0 1 -9.650501 8.941925 4.327744
262 0 1 -9.797300 8.287674 3.606918
263 0 1 -9.557802 7.844532 4.422745
264 0 1 -8.762800 7.473524 4.069504
265 0 1 -8.087400 6.833023 4.347168
266 0 1 -8.435602 6.521856 5.136734
267 0 1 -7.566302 6.270941 5.577179
268 0 1 -6.625033 6.396051 5.704727
269 0 1 -5.954892 5.825256 5.263519
270 0 1 -5.993742 5.657608 4.253525
271 0 1 -5.321782 4.918634 4.234543
272 0 1 -5.632342 4.074274 3.848755
273 0 1 -4.816092 3.692074 4.017944
274 0 1 -4.218691 3.056274 4.363556
275 0 1 -4.540291 2.489584 5.023026
276 0 1 -4.643702 2.264143 5.952118
277 0 1 -4.235812 2.710663 6.700531
278 0 1 -4.499821 2.632963 7.595413
279 0 1 -5.305163 2.514164 8.092194
280 0 1 -5.196341 1.613705 7.777924
281 0 1 -5.161072 1.948093 6.857956
282 0 1 -5.990431 1.703474 6.414642
283 0 1 -6.481902 1.252264 5.742737
284 0 1 -6.434363 0.713154 6.536682
285 0 1 -6.012312 0.124454 7.146057
286 0 1 -5.294161 0.715303 7.028275
287 0 1 -4.788142 0.649534 7.769821
288 0 1 -4.038043 0.604433 8.322021
289 0 1 -4.261921 -0.130766 8.925674
290 0 1 -3.605202 -0.749487 8.997314
291 0 1 -2.831902 -1.336866 9.123611
292 0 1 -2.853562 -2.274977 9.021164
293 0 1 -2.417832 -3.061898 9.394196
294 0 1 -3.015011 -3.632576 8.904572
295 0 1 -2.255032 -3.872658 8.434418
296 0 1 -2.450602 -3.112137 7.818207
297 0 1 -1.773833 -2.543205 8.237122
298 0 1 -1.547751 -2.860718 7.377487
299 0 1 -1.379881 -3.739956 7.136414
300 0 1 -0.466582 -3.960167 7.379974
301 0 1 -0.072892 -3.191597 7.778412
302 0 1 0.086488 -2.222016 7.514389
303 0 1 0.292509 -1.224497 7.503235
304 0 1 0.514518 -0.275627 7.611786
305 0 1 1.183729 -0.042616 6.973969
306 0 1 1.959955 -0.657517 6.648285
307 0 1 2.429586 -0.984856 5.882614
308 0 1 2.728359 -0.093136 5.599030
309 0 1 3.389938 0.510713 5.764847
310 0 1 3.597719 1.146114 6.570526
311 0 1 2.883035 1.578234 7.121124
312 0 1 2.676301 0.894203 7.704330
313 0 1 2.950714 1.285593 8.542847
314 0 1 3.932319 1.548643 8.592346
315 0 1 4.314138 0.998253 9.170975
316 0 1 4.649450 0.767624 8.296707
317 0 1 4.459688 -0.113938 8.279907
318 0 1 5.332719 -0.129116 7.719055
319 0 1 5.556219 -0.192856 6.749573
320 0 1 6.342309 0.049743 7.342453
321 0 1 6.501459 -0.484627 8.135391
322 0 1 7.140989 -0.827696 7.534073
323 0 1 7.498449 -0.425867 6.705963
324 0 1 8.104040 0.301483 6.950577
325 0 1 8.569288 1.131664 7.314056
326 0 1 7.903379 0.930492 8.105392
327 0 1 8.243109 0.048523 8.037277
328 0 1 8.525869 -0.102427 8.919235
329 0 1 9.202478 0.412573 9.267807
330 0 1 8.911867 1.320022 9.169540
331 0 1 9.281248 1.740524 8.351471
332 0 1 9.208467 2.698913 8.569946
333 0 1 8.341497 2.784263 8.869034
334 0 1 8.908850 3.560104 8.941376
335 0 1 9.117460 4.336733 8.334778
336 0 1 10.028269 4.312094 8.500153
337 0 1 10.582590 4.853954 9.073273
338 0 1 11.349249 4.492014 9.490906
339 0 1 11.553038 5.178095 10.182404
340 0 1 10.752970 5.432121 10.777206
341 0 1 11.068937 6.059198 11.553894
342 0 1 11.396620 6.335163 12.465607
343 0 1 11.740149 7.024837 12.969696
344 0 1 12.085939 6.484348 13.687500
345 0 1 12.759001 5.916739 13.315308
346 0 1 12.939100 5.134325 12.715195
347 0 1 13.365999 5.167946 11.878403
348 0 1 12.843397 5.479250 11.096207
349 0 1 12.989698 6.509483 11.104004
350 0 1 12.456480 6.398537 11.951996
351 0 1 13.330999 6.283934 12.336792
352 0 1 14.128500 6.436821 11.912704
353 0 1 14.809599 6.381224 12.612198
354 0 1 15.603598 5.827377 12.869904
355 0 1 16.545000 5.683928 12.691803
356 0 1 16.830198 6.597193 12.558304
357 0 1 17.419699 5.925180 13.005905
358 0 1 17.252298 5.034994 13.301498
359 0 1 17.721998 4.737253 14.084793
360 0 1 18.639498 4.753794 14.368698
361 0 1 18.929499 5.245838 15.218903
362 0 1 18.429197 6.010668 14.949402
363 0 1 18.468199 6.755968 14.293396
364 0 1 18.705000 7.444084 13.683899
365 0 1 19.369299 8.019932 13.301102
366 0 1 19.506498 8.766483 12.724396
367 0 1 18.463400 8.696224 12.639694
368 0 1 18.401400 9.607964 12.846405
369 0 1 18.563498 9.897575 13.748901
370 0 1 18.486998 10.824184 14.072495
371 0 1 18.388098 11.789955 14.403198
372 0 1 19.007299 11.730042 15.088501
373 0 1 18.235800 11.544724 15.529205
374 0 1 19.038801 11.835602 16.129807
375 0 1 19.724096 12.334785 16.673203
376 0 1 20.032301 11.438194 16.529297
377 0 1 19.430399 10.788105 17.010406
378 0 1 19.301298 11.555973 17.580597
379 0 1 19.625998 12.515614 17.851395
380 0 1 20.306700 11.824875 17.971802
381 0 1 20.776297 12.552814 17.525208
382 0 1 21.414900 12.389454 18.302307
383 0 1 22.304197 12.087654 18.643600
384 0 1 23.032400 11.479385 18.741196
385 0 1 22.799696 10.603115 19.022491
386 0 1 22.337500 10.237614 18.289795
387 0 1 22.120497 10.735394 17.497803
388 0 1 23.041601 10.972324 17.574997
389 0 1 23.395800 10.072254 17.489899
390 0 1 24.214796 10.552563 17.431503
391 0 1 24.139799 10.406353 18.383194
392 0 1 23.929899 10.223412 19.340607
393 0 1 23.678801 10.050575 20.247803
394 0 1 22.743299 10.286545 20.084198
395 0 1 23.071798 11.213543 19.949097
396 0 1 23.598501 10.987122 20.786697
397 0 1 22.924696 11.152016 21.470795
398 0 1 22.698698 10.205204 21.228607
399 0 1 23.373800 10.223434 21.909698
400 0 1 23.786200 9.635475 22.549591
401 0 1 23.764502 9.903793 23.507202
402 0 1 24.132597 8.983292 23.526398
403 0 1 24.468000 8.084164 23.437408
404 0 1 24.380400 7.174614 23.679810
405 0 1 25.225996 7.311163 23.253784
406 0 1 26.110998 6.833517 23.153015
407 0 1 26.257399 6.132172 22.495804
408 0 1 27.154200 5.870260 22.279602
409 0 1 27.535101 6.010468 21.408905
410 0 1 28.404097 6.325407 21.143906
411 0 1 28.184896 6.746584 20.375305
412 0 1 27.298300 7.119043 20.524506
413 0 1 27.377096 6.745787 19.604706
414 0 1 27.083998 6.772724 18.740005
415 0 1 26.630499 6.004551 18.996704
416 0 1 26.386599 5.045544 19.199402
417 0 1 27.281401 4.681784 18.942505
418 0 1 28.249498 4.722343 18.964508
419 0 1 27.989199 3.817114 19.197495
420 0 1 27.789999 3.489424 18.162994
421 0 1 28.098898 2.985054 17.426392
422 0 1 28.821798 2.306993 17.424698
423 0 1 29.708799 2.072994 17.150696
424 0 1 29.927801 1.255663 16.674500
425 0 1 28.931299 1.288593 16.589798
426 0 1 29.029699 0.496033 17.102798
427 0 1 28.966497 -0.564697 17.135895
428 0 1 28.450598 -0.387047 17.982895
429 0 1 27.499098 -0.121336 17.843597
430 0 1 27.106596 0.798324 17.967804
431 0 1 26.336996 1.023014 18.383102
432 0 1 25.939798 0.525783 17.620499
433 0 1 25.007696 0.545112 17.539200
434 0 1 24.406401 0.633394 18.266006
435 0 1 24.330698 0.112583 19.116104
436 0 1 23.488298 0.430803 19.405899
437 0 1 24.074301 1.218933 19.552200
438 0 1 23.843496 1.100294 20.460205
439 0 1 23.341597 1.614954 21.203506
440 0 1 22.832899 0.982054 21.703705
441 0 1 21.872698 1.297563 21.798401
442 0 1 21.156401 1.570503 22.325500
443 0 1 20.198896 1.898794 22.347900
444 0 1 20.036398 1.112713 21.771500
445 0 1 19.380899 1.791904 21.692902
446 0 1 19.099199 2.244453 22.530487
447 0 1 18.587400 2.628923 23.213104
448 0 1 18.344801 2.073234 23.991608
449 0 1 18.627798 2.848463 24.428497
450 0 1 18.652800 2.161203 25.083801
451 0 1 18.849600 2.567573 25.939911
452 0 1 19.316000 3.071003 26.670410
453 0 1 18.974798 3.890632 27.008789
454 0 1 18.072897 3.569904 27.081390
455 0 1 17.930799 4.364294 27.860992
456 0 1 18.266699 5.023094 27.263611
457 0 1 17.482100 5.502436 27.082092
458 0 1 17.265097 6.426519 27.077301
459 0 1 17.669500 6.594971 28.020111
460 0 1 18.204496 7.308464 27.794586
461 0 1 18.988401 7.954422 27.718201
462 0 1 19.770697 8.151802 28.232208
463 0 1 20.078299 8.641312 29.049194
464 0 1 20.857397 9.041382 29.488892
465 0 1 21.741999 9.033764 29.877197
466 0 1 22.441298 8.546284 30.327515
467 0 1 23.403898 8.368546 30.498901
468 0 1 24.178499 8.180172 31.038300
469 0 1 24.044401 8.344765 31.898895
470 0 1 23.260099 7.788395 31.967010
471 0 1 23.677698 7.227474 32.671692
472 0 1 23.434599 6.355253 33.056396
473 0 1 23.564100 6.244387 34.001312
474 0 1 22.687799 5.883068 33.989899
475 0 1 22.549101 6.728607 34.453888
476 0 1 23.365698 6.882469 34.968597
477 0 1 23.271898 7.628624 35.493988
478 0 1 24.010900 8.029263 35.907806
479 0 1 24.356901 7.134323 36.119812
480 0 1 24.638700 7.177383 37.030609
481 0 1 25.339201 7.608822 37.499908
482 0 1 25.464598 8.146564 38.282013
483 0 1 25.780199 8.802124 38.904297
484 0 1 25.574301 9.785412 38.926392
485 0 1 26.294096 10.195602 39.359100
486 0 1 26.870298 10.040443 40.144196
487 0 1 27.556196 9.873142 40.838898
488 0 1 27.057699 10.582993 41.210388
489 0 1 27.382399 11.503136 41.333099
490 0 1 28.359800 11.746925 41.465210
491 0 1 28.051001 11.612122 42.357300
492 0 1 27.507101 11.767464 43.120483
493 0 1 27.306299 12.599613 43.582397
494 0 1 26.482199 11.986885 43.700592
495 0 1 25.984999 12.130905 42.881714
496 0 1 25.564699 12.826233 43.356995
497 0 1 24.696402 12.417694 43.104706
498 0 1 24.683096 13.376293 42.972198
499 0 1 23.801798 13.215065 42.603394
500 0 1 23.350401 13.891064 42.163910
501 0 1 22.427599 14.114735 42.316284
502 0 1 21.824301 14.578606 42.970215
503 0 1 22.092199 15.489082 43.131104
504 0 1 21.972300 16.407036 43.021790
505 0 1 22.194601 17.189335 42.351685
506 0 1 21.975199 17.712833 43.144714
507 0 1 22.055399 18.180935 43.996613
508 0 1 22.638296 18.432236 44.769501
509 0 1 22.030401 18.815834 45.456512
510 0 1 21.357599 19.075233 44.748596
511 0 1 20.699499 19.729534 44.956696
512 0 1 20.140600 19.222832 45.562317
513 0 1 20.308599 18.819733 46.408600
514 0 1 19.928297 17.953533 46.308716
515 0 1 20.631201 17.245434 46.216492
516 0 1 20.991098 16.373032 45.991302
517 0 1 21.729597 16.931633 46.169495
518 0 1 21.741499 17.465332 46.970703
519 0 1 22.351198 16.840733 47.488098
520 0 1 23.215300 16.610332 46.929901
521 0 1 23.809599 16.040234 46.506989
522 0 1 24.144598 15.089874 46.473206
523 0 1 23.677599 15.338646 47.295410
524 0 1 22.863699 15.776302 47.429413
525 0 1 22.745497 15.879082 48.417297
526 0 1 23.359900 16.002743 49.243195
527 0 1 22.829000 15.915192 50.033905
528 0 1 21.879099 15.731014 50.303894
529 0 1 21.472197 15.028664 50.827515
530 0 1 20.735601 14.729454 51.423096
531 0 1 21.374399 14.070522 51.875397
532 0 1 22.274496 14.049911 52.367096
533 0 1 21.740797 14.287884 53.084595
534 0 1 21.820898 14.799675 53.851898
535 0 1 21.354898 14.939026 54.640503
536 0 1 21.784101 14.661224 55.408386
537 0 1 21.199400 14.592262 56.176086
538 0 1 21.437300 14.878876 57.059998
539 0 1 20.973898 14.052261 57.207703
540 0 1 21.168501 13.542603 57.953400
541 0 1 21.335897 13.461063 58.924011
542 0 1 20.722399 13.301094 59.660889
543 0 1 19.803801 13.385925 59.579102
544 0 1 19.116400 13.974033 59.741913
545 0 1 18.595198 13.986465 60.592285
546 0 1 17.669397 13.755035 60.357605
547 0 1 17.943296 13.358505 61.212891
548 0 1 17.703199 12.438385 61.498291
549 0 1 18.148497 11.726715 61.066803
550 0 1 18.271101 11.999596 60.097290
551 0 1 18.426001 11.076942 60.254913
552 0 1 19.312597 11.236744 60.706207
553 0 1 19.037901 10.474625 61.225800
554 0 1 18.298998 9.827492 61.032501
555 0 1 18.196299 9.013672 60.455109
556 0 1 17.333899 8.888023 60.123688
557 0 1 17.055098 7.972424 60.285889
558 0 1 16.172800 7.512743 60.088501
559 0 1 16.296698 6.559958 59.904785
560 0 1 16.077497 6.409180 60.765991
561 0 1 15.710997 6.534874 61.649414
562 0 1 14.929998 6.061750 61.299988
563 0 1 15.153700 5.496134 62.030090
564 0 1 15.992098 5.198212 62.308899
565 0 1 15.342299 4.425724 62.081909
566 0 1 15.328699 4.177633 62.963409
567 0 1 15.580698 4.859234 63.562805
568 0 1 15.237600 5.816505 63.647095
569 0 1 15.224699 5.719488 64.625702
570 0 1 14.296900 5.903141 64.746216
571 0 1 13.852797 5.036243 64.499390
572 0 1 13.738298 4.436043 65.236694
573 0 1 14.655500 4.084894 65.405518
574 0 1 15.424398 4.206264 64.800293
575 0 1 15.909399 3.369373 64.528198
576 0 1 15.069498 3.482603 64.101807
577 0 1 14.200201 3.000892 63.823090
578 0 1 13.329199 2.710132 63.455109
579 0 1 12.526930 2.654014 62.967285
580 0 1 11.649920 2.574743 63.340607
581 0 1 12.002619 1.747713 63.079803
582 0 1 12.794600 1.528564 62.640594
583 0 1 12.655668 0.847303 63.367706
584 0 1 12.350267 -0.083756 63.461700
585 0 1 12.211988 -0.914177 63.147491
586 0 1 12.900499 -1.495457 63.579498
587 0 1 12.860701 -2.315678 64.002594
588 0 1 11.962507 -2.680355 64.172699
589 0 1 11.507040 -2.760517 65.004211
590 0 1 11.991968 -3.507508 65.447998
591 0 1 11.069548 -3.764138 65.466492
592 0 1 10.941580 -4.164566 66.307495
593 0 1 10.100859 -4.470066 66.095306
594 0 1 10.073797 -5.409065 65.818604
595 0 1 10.810507 -5.949467 65.768616
596 0 1 11.624968 -5.634167 65.512909
597 0 1 11.834169 -5.554867 66.465698
598 0 1 11.257708 -6.372166 66.622589
599 0 1 10.961470 -7.329765 66.734802
600 0 1 10.048128 -7.330067 66.527893
601 0 1 9.747007 -6.793966 65.840393
602 0 1 9.401159 -6.332268 66.626495
603 0 1 8.527300 -6.548965 66.315491
604 0 1 8.115339 -5.800167 65.958496
605 0 1 7.675237 -5.780167 65.111206
606 0 1 6.752328 -5.555065 64.894806
607 0 1 5.838277 -5.197166 65.065308
608 0 1 5.846399 -5.410267 64.172089
609 0 1 5.619070 -5.597866 63.217102
610 0 1 4.672437 -5.658667 63.532806
611 0 1 4.134128 -5.892366 64.330383
612 0 1 4.215038 -6.300966 65.188507
613 0 1 4.481508 -5.933765 66.094391
614 0 1 3.767297 -6.105967 66.764587
615 0 1 3.194519 -6.251366 67.470093
616 0 1 4.118629 -6.400267 67.727997
617 0 1 4.481939 -5.774366 68.417114
618 0 1 4.242197 -5.044968 68.963318
619 0 1 4.879819 -4.573868 68.403687
620 0 1 5.607557 -4.921766 69.090698
621 0 1 6.222410 -5.256065 69.691193
622 0 1 6.119508 -5.838367 68.944794
623 0 1 5.288759 -6.352367 68.790588
624 0 1 4.818799 -6.758167 69.514008
625 0 1 4.238149 -7.535566 69.399109
626 0 1 3.633882 -8.016365 68.758484
627 0 1 2.978708 -7.338066 68.912598
628 0 1 2.964818 -6.764465 69.715881
629 0 1 3.422678 -7.346268 70.316406
630 0 1 4.280637 -7.031265 70.630707
631 0 1 4.814138 -6.680267 71.318909
632 0 1 5.156148 -7.285767 71.933105
633 0 1 4.909349 -7.869467 72.622101
634 0 1 4.185808 -7.288467 72.995117
635 0 1 4.089328 -7.707565 73.829102
636 0 1 3.784469 -8.343567 73.177307
637 0 1 4.093788 -9.069667 73.780212
638 0 1 3.185590 -9.436167 73.583618
639 0 1 2.955673 -9.694166 72.664185
640 0 1 3.831409 -9.405167 72.731995
641 0 1 3.847469 -9.451066 71.755615
642 0 1 3.298313 -9.143367 71.026703
643 0 1 3.054323 -9.136967 70.125793
644 0 1 3.534778 -8.348066 69.806000
645 0 1 4.313558 -8.674967 69.322510
646 0 1 5.038747 -8.615867 69.942902
647 0 1 5.881010 -8.402466 69.576996
648 0 1 6.743787 -8.128567 69.990997
649 0 1 7.232339 -8.296766 69.185303
650 0 1 8.162317 -8.326166 69.256897
651 0 1 8.061857 -9.180866 69.701782
652 0 1 8.452658 -9.396767 68.870117
653 0 1 9.180880 -9.041266 68.451691
654 0 1 9.274248 -8.085667 68.478699
655 0 1 9.901079 -7.479166 68.828186
656 0 1 10.216467 -7.070566 69.714294
657 0 1 10.890848 -7.485867 70.194519
658 0 1 10.758448 -7.765467 71.090790
659 0 1 10.417219 -6.919867 71.417206
660 0 1 9.660971 -6.880867 72.135101
661 0 1 9.810480 -6.087366 72.577606
662 0 1 10.465300 -6.420265 73.199005
663 0 1 10.265409 -7.294466 72.994690
664 0 1 10.426268 -8.138268 72.552704
665 0 1 9.663488 -8.690666 72.887909
666 0 1 8.983488 -8.039967 72.950592
667 0 1 8.136969 -8.170567 72.407410
668 0 1 8.844980 -8.021267 71.843994
669 0 1 8.197138 -7.908066 71.047394
670 0 1 7.875188 -8.764366 70.744690
671 0 1 7.306428 -9.529166 71.005188
672 0 1 7.716959 -10.303667 71.474701
673 0 1 7.055170 -10.995466 71.502014
674 0 1 6.989057 -11.923367 71.675110
675 0 1 6.394987 -11.707766 70.926697
676 0 1 5.462476 -11.559866 70.621216
677 0 1 4.949468 -11.651766 69.829193
678 0 1 4.532110 -11.258467 69.057404
679 0 1 5.231519 -10.808367 68.503204
680 0 1 5.030817 -11.373266 67.712402
681 0 1 5.507738 -11.739466 66.964203
682 0 1 5.039747 -11.856766 66.144196
683 0 1 4.623388 -11.029566 66.487396
684 0 1 4.159038 -10.966467 65.664398
685 0 1 4.068479 -11.842066 65.282501
686 0 1 3.204822 -12.031666 65.665802
687 0 1 2.540443 -12.021267 64.980286
688 0 1 2.437608 -11.232567 65.441803
689 0 1 1.768964 -11.123566 64.734985
690 0 1 2.392417 -11.438766 64.040894
691 0 1 3.248092 -11.439867 64.387512
692 0 1 3.837499 -12.007267 63.823486
693 0 1 4.230299 -11.223566 63.345612
694 0 1 4.954629 -11.385967 63.929291
695 0 1 5.253808 -11.173466 63.039703
696 0 1 4.916280 -11.992767 62.656189
697 0 1 4.402608 -12.866766 62.507294
698 0 1 4.098897 -13.430067 63.259308
699 0 1 4.366270 -13.867867 62.286804
700 0 1 4.038578 -13.315367 61.567291
701 0 1 3.470005 -12.810566 61.026093
702 0 1 3.911188 -13.290966 60.293610
703 0 1 4.331857 -14.053766 60.796295
704 0 1 4.664770 -14.307167 59.953796
705 0 1 4.490407 -14.009466 59.065887
706 0 1 4.535009 -13.635067 58.194885
707 0 1 4.649549 -14.487766 57.802094
708 0 1 4.233697 -15.255766 58.202606
709 0 1 4.156269 -15.491966 59.110992
710 0 1 3.226993 -15.779766 58.923584
711 0 1 2.685541 -15.323866 59.584595
712 0 1 2.199377 -14.634666 59.217499
713 0 1 1.962381 -14.757666 60.165283
714 0 1 1.013359 -14.624767 60.085907
715 0 1 0.779998 -15.353466 59.516113
716 0 1 1.100818 -15.824966 60.305603
717 0 1 1.207967 -16.684566 59.898499
718 0 1 0.979417 -17.651266 60.097992
719 0 1 0.488369 -17.022266 60.673401
720 0 1 -0.390942 -16.529867 60.930511
721 0 1 -0.806702 -16.203966 60.185089
722 0 1 -0.847752 -15.763266 59.320801
723 0 1 -0.266981 -15.599766 58.608215
724 0 1 -0.124401 -16.528067 58.667114
725 0 1 0.104158 -16.925167 57.822113
726 0 1 0.795238 -17.259266 58.475586
727 0 1 0.212999 -17.968866 58.562317
728 0 1 -0.463282 -18.233467 58.020111
729 0 1 -0.184731 -18.372866 56.994995
730 0 1 -1.040112 -18.084066 56.484985
731 0 1 -1.481202 -17.409866 56.922791
732 0 1 -0.751192 -16.807066 56.864899
733 0 1 -0.974882 -15.886866 57.084290
734 0 1 -0.663601 -15.806166 56.201691
735 0 1 0.242038 -15.472767 56.179016
736 0 1 1.168928 -15.741966 55.963593
737 0 1 1.694559 -16.603466 55.943298
738 0 1 2.597251 -16.294367 56.000305
739 0 1 2.519678 -15.288267 56.191589
740 0 1 3.407903 -15.305166 56.619385
741 0 1 3.444379 -14.321667 56.358398
742 0 1 3.162462 -13.411366 56.664307
743 0 1 2.368520 -12.863367 56.562805
744 0 1 1.712528 -13.528267 56.219208
745 0 1 1.576578 -13.670366 55.258789
746 0 1 1.950761 -12.772566 55.360992
747 0 1 2.091489 -11.928867 55.898987
748 0 1 1.634798 -11.138567 56.142303
749 0 1 1.826833 -11.060667 55.206207
750 0 1 1.128338 -11.178566 54.614685
751 0 1 1.810444 -10.999966 53.931213
752 0 1 1.694908 -11.847466 53.556396
753 0 1 2.487457 -12.420567 53.457214
754 0 1 2.356451 -11.931967 52.626312
755 0 1 2.948328 -12.575567 52.305603
756 0 1 3.890829 -12.565466 52.506287
757 0 1 4.388639 -13.294167 52.182190
758 0 1 4.922018 -12.420267 52.252686
759 0 1 5.643938 -12.447966 52.863800
760 0 1 6.191499 -12.363966 53.630005
761 0 1 6.093668 -11.666166 54.247101
762 0 1 5.391340 -11.091467 54.380188
763 0 1 6.206190 -10.565367 54.653290
764 0 1 6.507699 -9.836866 54.143890
765 0 1 7.454237 -10.280567 54.014008
766 0 1 8.076990 -10.824766 53.463409
767 0 1 8.342699 -9.914766 53.237610
768 0 1 8.767149 -9.150566 52.868713
769 0 1 9.482660 -8.872867 52.330994
770 0 1 9.903067 -8.563466 51.565704
771 0 1 10.788931 -8.165466 51.758911
772 0 1 10.985220 -7.655067 51.001709
773 0 1 10.293108 -7.250067 50.466888
774 0 1 10.824568 -6.751865 49.835693
775 0 1 10.965879 -6.238966 50.594391
776 0 1 11.019987 -5.384567 50.265411
777 0 1 10.082029 -5.550667 50.037415
778 0 1 9.743128 -5.501667 49.126495
779 0 1 9.187628 -5.821568 48.393188
780 0 1 9.788839 -6.485966 48.023987
781 0 1 9.778170 -5.743567 47.381714
782 0 1 9.346411 -6.092966 46.627899
783 0 1 9.621908 -6.609667 45.843506
784 0 1 9.202368 -6.338566 45.002502
785 0 1 9.529428 -6.861166 44.273315
786 0 1 8.704500 -6.792866 43.808594
787 0 1 8.135107 -6.264067 43.321991
788 0 1 7.192567 -6.223267 43.349792
789 0 1 7.451307 -5.759266 44.083496
790 0 1 6.614397 -5.813667 44.558990
791 0 1 5.720270 -6.348167 44.470886
792 0 1 5.351419 -7.107265 44.117188