LAMMPS data file via MDAnalysis

        2000  atoms
        1999  bonds
           0  angles
           0  dihedrals
           0  impropers

           1  atom types
           1  bond types
           0  angle types
           0  dihedral types
           0  improper types

-30.5 30.5 xlo xhi
-30.5 30.5 ylo yhi
-233.5 233.5 zlo zhi


Masses

1 1.000000

Atoms

1 0 1 -9.080070 7.843305 46.038513
2 0 1 -9.539969 7.481103 45.274689
3 0 1 -9.958869 7.070703 46.045593
4 0 1 -9.578269 6.357102 46.594299
5 0 1 -9.412169 5.525403 46.107697
6 0 1 -9.293469 4.518434 45.829498
7 0 1 -8.749869 4.676045 45.007202
8 0 1 -8.049069 5.274335 44.913300
9 0 1 -8.239169 6.178105 44.735107
10 0 1 -8.196769 6.214002 43.726196
11 0 1 -8.912969 5.618505 43.484100
12 0 1 -9.217269 6.328004 42.891510
13 0 1 -9.176669 7.133904 43.454010
14 0 1 -8.855168 7.977506 43.809296
15 0 1 -8.468770 8.958703 43.830505
16 0 1 -9.346269 9.333203 44.027008
17 0 1 -8.659471 9.574903 44.750183
18 0 1 -7.998269 9.783002 45.437683
19 0 1 -7.591769 10.036801 46.367615
20 0 1 -7.519071 10.998303 46.309509
21 0 1 -6.858869 10.716306 45.655701
22 0 1 -6.424668 11.510804 46.088501
23 0 1 -6.109571 12.396104 46.207397
24 0 1 -5.496669 13.000203 45.707886
25 0 1 -4.842790 13.477304 45.173187
26 0 1 -5.680869 13.395204 44.721802
27 0 1 -6.286769 13.995404 44.365601
28 0 1 -6.611770 14.834302 44.664093
29 0 1 -6.203670 15.249303 43.919708
30 0 1 -6.302770 15.611005 42.998413
31 0 1 -6.014970 15.415402 42.062500
32 0 1 -6.261468 14.952504 41.244293
33 0 1 -7.041869 15.285104 40.788086
34 0 1 -7.120370 15.674504 39.877197
35 0 1 -7.678269 15.438306 39.171204
36 0 1 -7.569669 15.649205 38.245789
37 0 1 -7.330270 15.714803 37.317688
38 0 1 -7.259269 16.662601 37.318115
39 0 1 -7.114068 16.315002 36.394897
40 0 1 -6.733769 15.473302 36.461700
41 0 1 -7.671969 15.370603 36.314209
42 0 1 -7.347970 14.482003 36.417603
43 0 1 -6.681169 13.929502 35.934509
44 0 1 -6.823569 14.606702 35.296387
45 0 1 -5.938569 14.429204 34.985809
46 0 1 -5.548970 15.327901 35.127411
47 0 1 -5.548570 14.778302 35.899414
48 0 1 -5.030271 15.642804 35.944611
49 0 1 -4.232120 15.919805 35.559601
50 0 1 -3.581830 15.598203 36.219910
51 0 1 -3.658929 14.672406 36.442810
52 0 1 -3.490979 14.218804 35.603516
53 0 1 -3.014050 13.674405 36.279999
54 0 1 -3.337949 13.713704 37.175903
55 0 1 -4.096738 14.065602 37.760315
56 0 1 -4.383180 14.963101 37.706207
57 0 1 -3.678010 15.542104 37.367889
58 0 1 -3.796208 16.474903 37.208588
59 0 1 -3.029799 16.901005 36.837097
60 0 1 -3.421269 17.791302 36.545990
61 0 1 -2.751409 18.357105 36.898407
62 0 1 -3.276879 19.188900 36.826813
63 0 1 -3.241260 19.286503 35.867889
64 0 1 -3.967740 19.708603 36.320801
65 0 1 -4.633969 19.024105 36.435913
66 0 1 -4.462029 19.315701 37.407990
67 0 1 -4.080171 19.721500 38.135986
68 0 1 -3.792319 20.671001 38.220001
69 0 1 -4.349099 21.040802 37.649994
70 0 1 -5.035668 20.417004 38.043304
71 0 1 -5.520070 20.138103 37.238403
72 0 1 -5.620370 20.991604 36.780090
73 0 1 -5.367269 21.112804 35.882599
74 0 1 -6.217969 21.158203 35.521790
75 0 1 -6.313069 21.813801 34.849609
76 0 1 -6.816070 21.735603 34.079102
77 0 1 -6.496169 21.147102 33.385498
78 0 1 -6.847470 20.266502 33.144012
79 0 1 -6.010770 20.227505 32.738098
80 0 1 -6.178470 19.653400 31.985413
81 0 1 -6.747468 19.023003 31.463104
82 0 1 -6.236169 18.375301 30.924713
83 0 1 -5.695970 18.109905 30.131104
84 0 1 -5.126569 17.395504 29.753601
85 0 1 -4.970069 16.975605 28.892792
86 0 1 -4.515821 16.467003 28.217285
87 0 1 -4.812749 16.692703 27.340790
88 0 1 -5.491570 16.246601 26.795593
89 0 1 -6.354369 15.898206 27.005890
90 0 1 -6.089869 15.398305 27.789490
91 0 1 -6.512969 14.652501 28.292603
92 0 1 -7.304469 15.005002 27.934296
93 0 1 -7.579669 15.598203 28.613190
94 0 1 -8.558469 15.317006 28.857605
95 0 1 -8.984368 14.844804 28.152710
96 0 1 -9.013768 15.827802 28.069000
97 0 1 -8.984868 16.677402 28.564514
98 0 1 -9.750469 17.078205 28.919098
99 0 1 -10.021070 17.915703 28.502289
100 0 1 -10.573669 17.967701 27.607788
101 0 1 -9.970069 17.482304 27.046600
102 0 1 -10.360669 16.955303 26.335602
103 0 1 -10.272769 17.882103 26.031708
104 0 1 -9.329169 17.889103 26.216095
105 0 1 -8.823369 17.141903 26.444214
106 0 1 -7.922669 17.302402 26.620514
107 0 1 -8.354470 18.168705 26.899506
108 0 1 -8.207669 17.997204 27.822296
109 0 1 -7.938169 18.501400 28.531311
110 0 1 -8.270768 17.984203 29.256897
111 0 1 -8.275369 18.762104 29.892700
112 0 1 -7.820668 18.184101 30.517395
113 0 1 -7.091371 17.485302 30.708008
114 0 1 -6.517468 16.727901 30.763214
115 0 1 -6.212569 16.300903 29.859009
116 0 1 -6.349168 15.505204 30.389404
117 0 1 -5.597669 15.052701 29.783813
118 0 1 -5.413770 15.278302 30.691406
119 0 1 -5.438668 15.532704 31.615204
120 0 1 -5.968968 14.988103 32.124603
121 0 1 -5.718869 15.355405 33.031189
122 0 1 -6.216569 14.543401 33.185791
123 0 1 -6.591969 13.971005 32.450104
124 0 1 -6.875070 13.090104 32.306610
125 0 1 -7.463368 13.366605 32.969513
126 0 1 -8.206069 13.601102 32.444000
127 0 1 -8.579270 14.428803 32.709412
128 0 1 -8.985269 14.822103 31.865509
129 0 1 -9.757969 15.345105 31.727905
130 0 1 -10.558469 15.367406 32.271912
131 0 1 -10.671969 15.944905 32.994507
132 0 1 -10.218869 16.673901 33.389893
133 0 1 -9.490970 16.114605 33.123505
134 0 1 -9.087670 16.271103 33.965393
135 0 1 -9.475669 15.452703 34.370300
136 0 1 -10.267570 15.146802 34.753998
137 0 1 -10.093470 14.376302 35.253113
138 0 1 -10.581969 13.518704 35.305389
139 0 1 -9.653069 13.406304 35.536011
140 0 1 -8.805869 13.048406 35.335297
141 0 1 -9.443368 12.513906 34.759399
142 0 1 -8.533769 12.138204 34.708984
143 0 1 -8.905169 11.217504 34.645905
144 0 1 -9.799270 11.410802 34.933899
145 0 1 -10.252769 10.654103 35.411987
146 0 1 -11.077470 10.535302 35.876099
147 0 1 -11.860068 11.098004 36.157806
148 0 1 -12.613870 10.371003 36.177612
149 0 1 -13.038970 9.597703 35.759491
150 0 1 -13.341769 8.611905 35.777496
151 0 1 -12.792369 8.625203 34.994995
152 0 1 -12.135869 9.033605 34.437012
153 0 1 -11.338870 9.099103 33.883209
154 0 1 -11.186570 9.296502 34.876709
155 0 1 -10.278369 9.373204 34.559814
156 0 1 -10.572769 8.524205 34.135193
157 0 1 -11.377069 8.250104 34.644409
158 0 1 -12.111669 7.750703 35.021088
159 0 1 -12.476769 6.928903 35.227905
160 0 1 -13.015870 6.981904 35.991608
161 0 1 -12.659869 6.688905 36.832489
162 0 1 -12.924270 6.047105 37.514313
163 0 1 -13.596068 5.360501 37.467407
164 0 1 -13.893569 4.740415 36.810211
165 0 1 -14.088170 5.642201 36.515106
166 0 1 -13.723969 5.394403 35.633606
167 0 1 -14.269670 4.680844 35.475403
168 0 1 -14.834868 3.808545 35.408905
169 0 1 -15.439870 3.266183 34.922394
170 0 1 -15.369870 3.982323 34.306305
171 0 1 -15.519969 4.812432 33.784485
172 0 1 -14.675569 4.418862 33.573486
173 0 1 -15.394370 3.979363 32.945190
174 0 1 -15.168670 4.809663 32.464508
175 0 1 -14.894370 5.543603 31.888794
176 0 1 -14.119470 4.917806 31.948090
177 0 1 -14.440869 4.026593 31.704498
178 0 1 -13.459069 3.889424 31.483307
179 0 1 -13.735869 3.818852 30.576813
180 0 1 -13.936669 4.721951 30.284088
181 0 1 -13.267770 5.112424 29.691193
182 0 1 -13.763669 5.626805 29.060486
183 0 1 -14.561769 6.269704 29.094116
184 0 1 -14.220769 6.604703 28.233002
185 0 1 -14.654069 7.319104 27.852600
186 0 1 -15.398768 7.975804 28.099792
187 0 1 -15.023570 8.882203 28.063812
188 0 1 -14.959168 9.825105 27.984589
189 0 1 -14.053769 9.978303 28.220001
190 0 1 -14.140870 10.912503 28.017212
191 0 1 -14.850968 10.944505 27.444702
192 0 1 -14.517270 10.189004 27.049011
193 0 1 -14.342870 10.328305 26.045502
194 0 1 -13.769170 10.911603 26.454987
195 0 1 -13.103469 10.290704 26.419586
196 0 1 -12.833770 11.031804 26.945099
197 0 1 -12.217870 11.768704 26.763000
198 0 1 -11.950469 12.666501 26.485596
199 0 1 -12.297669 12.468205 25.620789
200 0 1 -11.804069 11.793706 25.116608
201 0 1 -11.127669 11.244203 24.743988
202 0 1 -10.937669 11.041005 25.616302
203 0 1 -10.571969 11.964303 25.672211
204 0 1 -10.316369 12.046506 26.641205
205 0 1 -9.752170 11.294103 26.730408
206 0 1 -9.595469 11.306104 27.660309
207 0 1 -10.022269 11.711404 28.457611
208 0 1 -10.796869 11.976003 29.009613
209 0 1 -10.451969 11.378705 29.688293
210 0 1 -10.886270 10.597005 30.127808
211 0 1 -10.214970 9.985204 30.063507
212 0 1 -9.428569 9.490605 29.765594
213 0 1 -9.835869 8.626004 29.645905
214 0 1 -10.280569 8.047002 30.268311
215 0 1 -10.326469 7.101804 29.924103
216 0 1 -9.884870 7.279702 29.072693
217 0 1 -10.123569 6.700402 28.343597
218 0 1 -9.215070 6.506902 28.188293
219 0 1 -8.980168 6.458802 27.294403
220 0 1 -8.153069 6.489602 26.778687
221 0 1 -7.927369 7.356404 26.996307
222 0 1 -7.083070 7.894803 27.081787
223 0 1 -6.306668 7.375806 27.028809
224 0 1 -5.357570 7.236104 26.910492
225 0 1 -5.516870 8.026902 26.436096
226 0 1 -5.760570 8.862405 26.231995
227 0 1 -5.774770 9.481004 25.519501
228 0 1 -5.039569 10.025002 25.731384
229 0 1 -5.698171 10.134404 26.497192
230 0 1 -6.559369 9.805005 26.271393
231 0 1 -6.721070 10.304605 25.456604
232 0 1 -7.065370 11.060903 25.975586
233 0 1 -6.834470 11.925305 26.193787
234 0 1 -6.130170 12.583203 26.596191
235 0 1 -6.653769 12.446004 27.311707
236 0 1 -7.642671 12.487504 27.350006
237 0 1 -8.287469 12.091901 27.851288
238 0 1 -9.046769 12.520802 27.472809
239 0 1 -9.100369 13.191701 26.799408
240 0 1 -9.098168 13.673203 27.655396
241 0 1 -8.286168 13.702703 28.180298
242 0 1 -8.528470 13.131101 28.856384
243 0 1 -8.341371 13.070504 29.848389
244 0 1 -7.531169 13.303403 29.420898
245 0 1 -7.207768 12.426602 29.844391
246 0 1 -6.592469 13.150903 29.864990
247 0 1 -5.736970 12.935002 30.189911
248 0 1 -5.394570 12.138906 30.505096
249 0 1 -5.980769 11.588204 31.079407
250 0 1 -5.891068 11.771703 32.027100
251 0 1 -5.246869 12.482602 32.173187
252 0 1 -4.571059 12.490304 31.443512
253 0 1 -4.569619 13.312104 31.933411
254 0 1 -4.123469 13.609502 31.093903
255 0 1 -4.914809 13.683503 30.619385
256 0 1 -4.295539 14.092206 30.003510
257 0 1 -4.080689 15.011003 29.769104
258 0 1 -3.882470 14.294805 29.099792
259 0 1 -3.251929 13.932904 29.812012
260 0 1 -2.314919 13.861005 29.688904
261 0 1 -1.964889 13.043103 29.393005
262 0 1 -1.183509 13.232701 28.736694
263 0 1 -0.791919 13.581204 27.962585
264 0 1 -0.437770 12.799104 27.457092
265 0 1 -1.473519 12.697003 27.627808
266 0 1 -1.340760 12.204701 28.387299
267 0 1 -1.258470 11.622903 29.141205
268 0 1 -0.503299 11.545903 28.603607
269 0 1 0.212520 12.188104 28.365601
270 0 1 0.768031 11.787602 29.079590
271 0 1 1.410691 11.973302 28.273804
272 0 1 1.042211 12.143102 27.420898
273 0 1 1.094401 11.368405 26.903900
274 0 1 0.783891 10.528203 26.530701
275 0 1 0.958652 9.680402 26.183289
276 0 1 1.769361 9.579003 25.643005
277 0 1 2.656531 9.482205 26.144592
278 0 1 3.201270 9.788602 26.886810
279 0 1 4.006101 10.034104 26.426697
280 0 1 4.758847 9.593205 25.905609
281 0 1 5.631812 9.483205 26.212006
282 0 1 5.899282 9.163804 25.362091
283 0 1 6.908462 9.383702 25.295807
284 0 1 6.503350 8.820504 24.580505
285 0 1 6.927291 9.563703 23.979401
286 0 1 7.224620 10.186303 24.688995
287 0 1 6.751903 10.293805 25.560486
288 0 1 5.963431 10.441304 25.041901
289 0 1 5.299027 11.221204 25.427887
290 0 1 4.858829 10.630506 24.784485
291 0 1 3.937251 10.655705 24.634613
292 0 1 3.125010 10.325902 24.119110
293 0 1 2.358911 10.536702 23.511505
294 0 1 2.106400 9.817803 24.033295
295 0 1 1.269780 9.559705 23.668304
296 0 1 1.734891 8.803601 24.205414
297 0 1 1.794641 7.834401 24.106689
298 0 1 2.470841 7.479203 23.430389
299 0 1 2.789531 6.922605 22.694000
300 0 1 3.318860 6.417905 22.042694
301 0 1 3.214860 6.668702 21.174408
302 0 1 2.410081 6.230004 20.743896
303 0 1 1.621661 5.917504 21.291397
304 0 1 0.991570 5.285424 21.733093
305 0 1 0.498311 6.081704 21.428696
306 0 1 0.488021 6.670304 20.717407
307 0 1 -0.501679 6.705403 20.951706
308 0 1 -1.353879 6.699403 20.518204
309 0 1 -1.397429 5.840901 20.067703
310 0 1 -1.535560 5.208234 19.227097
311 0 1 -1.016820 5.806603 18.723999
312 0 1 -0.230060 5.329816 18.855606
313 0 1 0.518420 4.827123 18.363800
314 0 1 0.481780 4.464742 17.520798
315 0 1 1.326690 4.649526 17.883392
316 0 1 1.964332 4.765954 18.582504
317 0 1 2.808021 4.312333 18.339294
318 0 1 3.100661 3.716855 19.024094
319 0 1 2.334771 3.476842 19.550705
320 0 1 2.158751 2.553433 19.361099
321 0 1 1.202420 2.524625 19.425797
322 0 1 0.732982 2.948983 20.159805
323 0 1 1.590692 3.329953 20.420898
324 0 1 2.285460 2.822621 20.734100
325 0 1 1.848140 2.995782 21.625793
326 0 1 1.002751 3.069543 22.061707
327 0 1 0.388202 2.831555 22.775604
328 0 1 0.938750 2.649873 23.520813
329 0 1 0.412360 3.504712 23.728302
330 0 1 -0.463939 3.876504 24.021698
331 0 1 -1.320409 4.207593 23.928314
332 0 1 -1.441689 3.233834 23.964203
333 0 1 -0.999360 2.646203 23.468384
334 0 1 -0.886390 3.553311 23.068787
335 0 1 -1.836728 3.375085 22.842590
336 0 1 -2.594659 2.791573 22.820709
337 0 1 -3.448010 2.673634 23.227600
338 0 1 -2.958940 1.719033 23.133392
339 0 1 -2.703189 1.292203 23.965088
340 0 1 -2.185330 0.724652 23.442413
341 0 1 -1.793389 -0.071758 23.811188
342 0 1 -2.500089 -0.656757 24.246002
343 0 1 -1.821450 -0.496398 24.882385
344 0 1 -1.081340 -0.746097 25.398193
345 0 1 -0.875779 -0.868228 26.316101
346 0 1 -0.076610 -0.604377 26.722198
347 0 1 -0.040929 0.196725 27.290588
348 0 1 0.603290 0.007973 27.985413
349 0 1 0.113971 0.625882 28.495789
350 0 1 -0.505948 0.006642 28.896484
351 0 1 -0.525390 -0.915366 29.213989
352 0 1 -1.383790 -0.601459 29.586700
353 0 1 -1.845769 -0.472995 28.771301
354 0 1 -2.403720 0.265763 28.480286
355 0 1 -2.806069 0.697873 27.771790
356 0 1 -1.831090 0.513005 27.651306
357 0 1 -1.788890 1.506482 27.598206
358 0 1 -1.854690 1.861684 26.660095
359 0 1 -2.365590 2.714494 26.621490
360 0 1 -2.161880 2.919774 27.507294
361 0 1 -2.052789 2.266732 28.257904
362 0 1 -1.738599 1.627862 29.049408
363 0 1 -2.260480 0.866563 29.477814
364 0 1 -2.751660 1.700505 29.377594
365 0 1 -3.412339 1.655621 30.119812
366 0 1 -3.559049 1.028062 30.888489
367 0 1 -2.703740 1.425732 31.284912
368 0 1 -3.120809 1.806935 32.124390
369 0 1 -4.039910 2.016862 32.139404
370 0 1 -4.529210 2.800393 32.337585
371 0 1 -5.365468 2.858044 32.792999
372 0 1 -6.131869 3.091214 33.243286
373 0 1 -6.479070 2.256612 32.911896
374 0 1 -6.235869 1.571965 33.639008
375 0 1 -7.055470 1.473862 34.273407
376 0 1 -6.622170 2.305512 34.412109
377 0 1 -7.252170 2.314873 35.118896
378 0 1 -6.620069 1.851903 35.649689
379 0 1 -6.339869 0.940274 35.841003
380 0 1 -5.508168 1.407632 35.626709
381 0 1 -4.930610 1.088464 34.839996
382 0 1 -4.803041 0.354134 35.522705
383 0 1 -4.721478 -0.574477 35.510590
384 0 1 -4.089679 -0.155898 36.093292
385 0 1 -5.010968 -0.049709 36.519196
386 0 1 -5.948270 0.170934 36.645294
387 0 1 -6.688270 -0.454135 36.885406
388 0 1 -6.594869 -0.208186 37.882599
389 0 1 -6.413369 0.652615 38.263397
390 0 1 -6.082870 1.156415 37.582214
391 0 1 -6.624169 1.891213 37.877899
392 0 1 -7.500970 1.912003 38.406097
393 0 1 -7.935769 2.236562 37.651184
394 0 1 -8.245469 2.545865 36.773987
395 0 1 -8.897470 2.928662 37.345093
396 0 1 -9.453568 3.033623 36.516907
397 0 1 -10.221369 2.592934 37.046814
398 0 1 -10.645370 1.665715 37.136200
399 0 1 -10.060569 1.731953 37.876495
400 0 1 -9.541169 2.540314 38.114899
401 0 1 -9.248269 1.889165 38.750000
402 0 1 -9.039868 1.097535 39.306885
403 0 1 -8.359170 1.732842 39.553406
404 0 1 -7.984969 0.914742 39.955994
405 0 1 -7.772969 0.272565 39.318115
406 0 1 -7.869969 -0.144618 40.184387
407 0 1 -7.035668 -0.635387 39.886292
408 0 1 -6.983769 -0.951366 40.828186
409 0 1 -7.520471 -0.479549 41.554688
410 0 1 -8.319369 -0.415847 42.135315
411 0 1 -9.056169 0.231564 42.141113
412 0 1 -9.951269 0.317944 41.806305
413 0 1 -10.047669 -0.417728 41.214508
414 0 1 -10.960469 -0.566348 41.435608
415 0 1 -11.828170 -0.479556 40.942505
416 0 1 -11.379069 0.320313 41.232910
417 0 1 -11.760869 0.952504 41.932098
418 0 1 -11.966769 0.805474 42.933289
419 0 1 -12.037169 1.424172 43.654205
420 0 1 -12.107469 2.198514 44.257507
421 0 1 -12.088769 2.342805 45.181610
422 0 1 -11.325469 2.379971 45.835297
423 0 1 -11.387870 1.718102 46.566589
424 0 1 -12.230868 1.970044 46.967499
425 0 1 -12.632470 1.035191 46.785309
426 0 1 -11.954070 0.665093 47.380890
427 0 1 -11.049970 0.724622 47.615295
428 0 1 -10.286269 0.108563 47.798584
429 0 1 -9.393468 0.367493 48.067810
430 0 1 -9.253369 1.267712 48.399109
431 0 1 -9.366769 2.225262 48.271210
432 0 1 -9.014970 2.341634 47.410889
433 0 1 -8.575570 2.924363 48.048309
434 0 1 -8.154269 3.401425 48.760193
435 0 1 -8.691270 4.078103 48.271606
436 0 1 -8.779168 4.323293 49.170807
437 0 1 -9.084970 4.437863 50.094299
438 0 1 -9.741469 3.841283 50.448914
439 0 1 -10.304569 3.096642 50.841187
440 0 1 -11.240270 3.175324 51.011505
441 0 1 -10.728669 4.002332 51.020905
442 0 1 -11.311469 3.983563 51.802094
443 0 1 -12.169169 3.723805 51.369202
444 0 1 -12.837569 4.199082 50.809998
445 0 1 -13.807370 4.067864 50.554016
446 0 1 -14.514470 3.577012 50.996399
447 0 1 -14.845870 4.401143 51.346008
448 0 1 -14.846969 3.851144 52.186096
449 0 1 -15.396169 3.905194 53.013489
450 0 1 -16.110870 4.463063 53.308502
451 0 1 -16.753670 5.114964 53.053802
452 0 1 -16.637371 5.342553 52.128693
453 0 1 -17.551470 5.690904 51.839417
454 0 1 -17.695471 5.343583 50.926910
455 0 1 -17.695169 4.445024 51.201599
456 0 1 -16.824570 4.336484 50.789093
457 0 1 -15.921969 4.401605 50.483887
458 0 1 -16.125370 3.469193 50.744202
459 0 1 -16.206970 2.562493 50.982910
460 0 1 -17.063570 2.665112 51.427002
461 0 1 -17.442770 1.800263 51.413513
462 0 1 -17.402370 1.025883 50.800110
463 0 1 -16.931271 0.227834 50.372101
464 0 1 -16.056070 0.239053 50.817413
465 0 1 -15.945670 0.840382 50.103699
466 0 1 -14.920569 0.898022 49.746490
467 0 1 -14.609269 0.358243 49.045197
468 0 1 -14.023469 -0.376525 49.210510
469 0 1 -13.200170 -0.855266 49.244904
470 0 1 -12.556869 -0.230495 49.001587
471 0 1 -11.897870 -1.035606 49.061096
472 0 1 -11.170569 -0.595416 49.450012
473 0 1 -10.329069 -0.854297 49.051300
474 0 1 -9.719170 -1.124408 48.394592
475 0 1 -10.407469 -1.707717 48.123199
476 0 1 -10.114669 -1.418807 47.292206
477 0 1 -10.794270 -1.488197 46.602783
478 0 1 -10.588969 -1.060619 45.713104
479 0 1 -11.521970 -1.092056 45.579193
480 0 1 -12.123769 -1.593498 46.150391
481 0 1 -12.619870 -0.963538 45.586914
482 0 1 -13.202069 -1.498435 46.204010
483 0 1 -13.763770 -2.325767 45.938904
484 0 1 -13.310870 -2.012866 45.171906
485 0 1 -13.797170 -2.832797 44.937103
486 0 1 -13.815469 -3.785434 44.786102
487 0 1 -13.515670 -3.583606 45.671204
488 0 1 -13.382770 -4.513146 45.879608
489 0 1 -14.182769 -5.053063 45.665894
490 0 1 -14.135970 -5.957557 45.891510
491 0 1 -14.272069 -5.750777 46.861511
492 0 1 -14.919370 -6.440976 46.696503
493 0 1 -14.466168 -7.330247 46.614807
494 0 1 -13.610768 -7.730416 46.443909
495 0 1 -13.851369 -8.666677 46.620483
496 0 1 -13.334270 -8.589147 47.412506
497 0 1 -12.756169 -7.910897 46.967590
498 0 1 -11.839869 -8.070476 46.640686
499 0 1 -11.418969 -7.962237 45.816284
500 0 1 -11.516170 -8.924247 45.715393
501 0 1 -10.563569 -8.902896 45.515198
502 0 1 -10.437669 -9.678145 46.133392
503 0 1 -9.615369 -9.235547 46.622589
504 0 1 -9.423268 -10.081717 46.275513
505 0 1 -9.553069 -11.035956 46.429016
506 0 1 -9.720269 -11.266137 47.404694
507 0 1 -9.387670 -10.406287 47.682587
508 0 1 -9.929070 -10.328536 48.456696
509 0 1 -9.522470 -9.462256 48.687683
510 0 1 -8.885570 -10.107846 48.733612
511 0 1 -9.479969 -10.492757 49.393402
512 0 1 -8.747869 -11.159787 49.173492
513 0 1 -7.856170 -11.177697 48.770386
514 0 1 -8.270970 -12.017806 48.551697
515 0 1 -9.185069 -12.115417 48.493896
516 0 1 -8.681668 -12.974486 48.717712
517 0 1 -8.677070 -13.993728 48.960815
518 0 1 -8.361669 -14.872596 49.334595
519 0 1 -9.100869 -15.561496 49.481995
520 0 1 -9.587469 -14.729596 49.223206
521 0 1 -9.575970 -15.409896 48.552887
522 0 1 -9.317470 -14.982097 47.756989
523 0 1 -8.946370 -14.951198 46.837708
524 0 1 -8.431470 -15.145198 45.991394
525 0 1 -7.970269 -16.013897 45.989288
526 0 1 -8.465768 -15.860597 45.208496
527 0 1 -7.855969 -15.274196 44.775909
528 0 1 -8.533669 -14.539996 44.891907
529 0 1 -9.434670 -14.809897 44.592987
530 0 1 -10.159470 -14.711295 43.980713
531 0 1 -10.007070 -13.760818 43.932007
532 0 1 -10.915669 -13.535365 44.170807
533 0 1 -11.772670 -13.523417 43.616394
534 0 1 -12.364070 -13.215476 44.365112
535 0 1 -13.027968 -13.405795 45.097687
536 0 1 -13.269469 -12.407336 45.120483
537 0 1 -13.069869 -11.927007 45.919800
538 0 1 -12.257470 -11.398356 45.742706
539 0 1 -11.459168 -11.432166 45.091187
540 0 1 -11.192369 -11.411227 44.148102
541 0 1 -10.786269 -10.549067 44.424713
542 0 1 -10.031369 -10.141376 43.902100
543 0 1 -9.297368 -10.250546 43.280884
544 0 1 -10.209869 -10.242406 42.872406
545 0 1 -10.464170 -10.179446 41.981506
546 0 1 -10.707170 -9.479236 41.394012
547 0 1 -11.000369 -9.647967 40.524902
548 0 1 -11.824870 -9.235467 40.743896
549 0 1 -12.208070 -8.514117 40.267090
550 0 1 -11.720069 -7.648017 40.226196
551 0 1 -12.247470 -7.958066 39.402710
552 0 1 -11.695670 -8.286716 38.676086
553 0 1 -11.495570 -9.095866 37.993103
554 0 1 -10.669069 -9.638227 37.775696
555 0 1 -10.476669 -10.020337 36.889404
556 0 1 -10.058669 -10.885797 37.109314
557 0 1 -9.945970 -11.703786 37.699493
558 0 1 -9.136868 -11.169026 37.580688
559 0 1 -8.229268 -10.981536 37.845398
560 0 1 -7.353971 -11.007466 38.059113
561 0 1 -6.476869 -11.037137 38.393402
562 0 1 -7.054368 -11.776246 38.664703
563 0 1 -7.568070 -12.347756 39.161987
564 0 1 -7.879769 -12.674176 40.037292
565 0 1 -7.232770 -12.084317 40.457214
566 0 1 -6.717269 -11.289317 40.577209
567 0 1 -5.979369 -11.897897 40.804016
568 0 1 -5.701570 -11.631988 41.646698
569 0 1 -4.833409 -11.135537 41.621887
570 0 1 -4.032859 -10.539065 41.381500
571 0 1 -3.650399 -9.956006 40.620300
572 0 1 -3.455270 -9.062066 40.351288
573 0 1 -3.505540 -8.217927 40.821808
574 0 1 -4.296809 -8.717717 40.960205
575 0 1 -4.708108 -8.758256 41.895996
576 0 1 -4.687280 -7.826797 42.058105
577 0 1 -5.387969 -7.262277 41.784607
578 0 1 -4.899068 -6.451657 41.954498
579 0 1 -3.920320 -6.652917 41.975494
580 0 1 -3.111669 -7.094487 41.774109
581 0 1 -2.595288 -7.807706 41.259216
582 0 1 -1.850389 -8.193757 40.868011
583 0 1 -1.278749 -8.856767 40.442017
584 0 1 -1.347039 -8.316337 39.586395
585 0 1 -1.889789 -8.961497 39.085297
586 0 1 -1.797389 -8.753066 38.202515
587 0 1 -1.277389 -8.158246 37.696991
588 0 1 -2.013268 -7.552556 37.345398
589 0 1 -2.330628 -8.430596 37.328796
590 0 1 -2.743930 -8.875876 36.563293
591 0 1 -3.013869 -8.952416 35.680511
592 0 1 -3.342568 -8.336596 34.956207
593 0 1 -3.201570 -8.617087 34.034088
594 0 1 -2.530799 -8.103776 33.530396
595 0 1 -1.925149 -8.623357 34.070892
596 0 1 -1.080190 -9.117537 34.052704
597 0 1 -0.763669 -9.901067 33.429901
598 0 1 -1.428819 -9.466598 33.009003
599 0 1 -2.048459 -10.063148 33.364594
600 0 1 -2.079019 -10.150376 32.368500
601 0 1 -3.011600 -9.722777 32.300110
602 0 1 -3.510459 -9.903987 31.545715
603 0 1 -4.159688 -10.202527 30.932190
604 0 1 -3.619218 -10.033977 30.094208
605 0 1 -4.493279 -9.684257 29.888000
606 0 1 -4.148080 -8.888057 30.186096
607 0 1 -4.696679 -8.809157 29.425812
608 0 1 -4.998570 -9.519227 28.868195
609 0 1 -4.153619 -9.372756 28.445496
610 0 1 -4.370259 -10.012647 27.744293
611 0 1 -4.897630 -10.623647 27.209198
612 0 1 -5.828771 -10.881337 27.071594
613 0 1 -6.492970 -10.717866 26.323700
614 0 1 -6.472869 -10.523376 25.370392
615 0 1 -5.478971 -10.642287 25.502014
616 0 1 -5.635671 -10.722966 24.506897
617 0 1 -6.400769 -10.132476 24.362915
618 0 1 -7.081969 -9.628306 24.895691
619 0 1 -7.725669 -10.317357 24.684601
620 0 1 -8.569369 -10.268617 24.160187
621 0 1 -8.552770 -10.093356 23.223511
622 0 1 -9.481170 -10.433026 23.352509
623 0 1 -9.561369 -9.528296 22.956787
624 0 1 -10.363669 -9.093066 22.595703
625 0 1 -10.697569 -8.310996 23.125214
626 0 1 -11.163468 -7.952386 22.353897
627 0 1 -11.398370 -7.451917 21.485794
628 0 1 -10.785369 -8.157086 21.229904
629 0 1 -10.805969 -8.923396 20.607208
630 0 1 -11.747470 -9.134376 20.657303
631 0 1 -11.406270 -8.794156 19.832397
632 0 1 -12.172870 -8.254897 19.725296
633 0 1 -12.818669 -7.571837 19.403107
634 0 1 -12.132070 -6.769816 19.614700
635 0 1 -11.525569 -6.333377 18.934692
636 0 1 -11.078969 -6.840026 18.267105
637 0 1 -11.756370 -6.295257 17.864594
638 0 1 -12.246369 -5.887006 17.159607
639 0 1 -11.362769 -6.048177 16.840805
640 0 1 -11.498370 -5.472631 16.096497
641 0 1 -12.246070 -5.048491 16.442200
642 0 1 -12.635169 -4.809718 17.304108
643 0 1 -13.281770 -4.062490 17.489395
644 0 1 -13.300170 -3.125919 17.433304
645 0 1 -13.466868 -3.142856 16.454193
646 0 1 -12.858470 -2.458347 16.680405
647 0 1 -12.092769 -1.976405 16.326706
648 0 1 -12.115169 -2.105205 15.320999
649 0 1 -11.815770 -1.969196 14.422394
650 0 1 -11.640269 -1.993839 13.426407
651 0 1 -12.372369 -2.320468 12.895996
652 0 1 -12.924369 -1.594547 13.122604
653 0 1 -13.702069 -1.045516 13.243301
654 0 1 -14.078769 -0.970126 14.167801
655 0 1 -14.668870 -0.466468 13.481400
656 0 1 -14.361869 0.039223 12.680206
657 0 1 -13.798869 0.724404 12.257599
658 0 1 -13.470469 1.413743 12.867096
659 0 1 -14.244269 1.339993 13.405106
660 0 1 -15.030570 0.939874 13.009399
661 0 1 -15.065169 0.999944 13.956696
662 0 1 -14.327868 0.527463 14.404404
663 0 1 -14.049470 1.439343 14.689301
664 0 1 -13.728768 0.963635 15.449799
665 0 1 -12.917270 0.738152 16.005798
666 0 1 -11.940370 0.944493 15.995193
667 0 1 -11.631169 0.676934 16.841293
668 0 1 -11.068969 -0.035117 17.113403
669 0 1 -10.266170 0.047711 16.712402
670 0 1 -10.248569 -0.804977 16.307892
671 0 1 -9.550269 -1.504615 16.155899
672 0 1 -8.662869 -1.478008 15.740005
673 0 1 -8.159768 -2.263416 15.942307
674 0 1 -7.517968 -2.908668 16.252396
675 0 1 -7.307670 -2.849006 17.195206
676 0 1 -6.587968 -3.190547 17.807404
677 0 1 -5.816569 -3.161697 17.139694
678 0 1 -6.393769 -3.708787 16.616302
679 0 1 -6.389369 -4.398196 15.977798
680 0 1 -6.481669 -5.173713 16.610001
681 0 1 -7.211568 -5.756707 16.492294
682 0 1 -6.897269 -5.889066 17.375702
683 0 1 -6.675670 -6.843856 17.759399
684 0 1 -6.536870 -6.767797 18.671906
685 0 1 -6.920770 -6.365577 19.421600
686 0 1 -6.021668 -6.419276 19.577393
687 0 1 -5.308469 -5.842196 19.179794
688 0 1 -5.670468 -5.487817 18.333694
689 0 1 -5.189370 -6.259656 17.928101
690 0 1 -4.366128 -6.593806 17.504501
691 0 1 -4.168479 -6.139106 16.667694
692 0 1 -4.664418 -5.458301 17.133499
693 0 1 -4.244779 -4.970708 16.389297
694 0 1 -4.846150 -5.118140 15.691895
695 0 1 -5.504670 -5.078721 15.005402
696 0 1 -4.664010 -5.070754 14.502304
697 0 1 -5.063270 -4.206971 14.088104
698 0 1 -5.265969 -3.417886 13.560303
699 0 1 -5.370370 -2.468005 13.519897
700 0 1 -4.880929 -1.685935 13.132996
701 0 1 -4.455689 -0.825187 13.435898
702 0 1 -3.641568 -0.486896 12.989594
703 0 1 -2.831220 -0.001266 12.804901
704 0 1 -3.396340 0.148225 12.000305
705 0 1 -3.220519 0.854962 11.401901
706 0 1 -2.410930 1.263192 10.897598
707 0 1 -2.494760 1.366692 9.963821
708 0 1 -2.242028 2.246342 10.513306
709 0 1 -1.343879 1.934384 10.864807
710 0 1 -1.156669 2.714093 10.300797
711 0 1 -1.288699 3.635354 9.841873
712 0 1 -1.867230 4.450734 9.818863
713 0 1 -2.505158 3.802663 10.114304
714 0 1 -3.165608 4.422902 10.371307
715 0 1 -2.785289 4.594834 11.242203
716 0 1 -2.186250 5.099004 11.756805
717 0 1 -2.763230 4.748334 12.445801
718 0 1 -2.476239 4.942754 13.299698
719 0 1 -2.471869 5.669003 13.931702
720 0 1 -1.536939 5.763703 13.983200
721 0 1 -1.017888 5.209954 14.563293
722 0 1 -0.917739 4.684674 15.394104
723 0 1 -0.788419 3.820824 14.954895
724 0 1 0.109271 4.267331 14.751099
725 0 1 -0.472020 4.295453 14.014893
726 0 1 -1.397429 4.208646 13.691605
727 0 1 -1.641610 3.434884 13.206604
728 0 1 -1.507319 4.248822 12.712799
729 0 1 -0.831239 4.352254 12.067398
730 0 1 -0.857228 4.095311 11.165207
731 0 1 -0.217189 4.593495 10.625107
732 0 1 -0.884349 5.306935 10.795197
733 0 1 -0.269769 5.600904 11.465805
734 0 1 0.239730 5.956304 10.582703
735 0 1 0.815400 6.466203 11.178894
736 0 1 1.140761 7.298104 11.266998
737 0 1 0.882560 8.048406 11.847504
738 0 1 0.234981 8.413903 12.427597
739 0 1 -0.221509 9.306302 12.565002
740 0 1 0.487580 9.849004 12.190704
741 0 1 0.290021 10.438203 11.414795
742 0 1 0.164870 10.426003 10.462799
743 0 1 -0.331330 11.095902 9.984207
744 0 1 -0.094529 10.524102 9.269485
745 0 1 0.391391 9.721604 9.120575
746 0 1 1.066751 10.347302 8.889816
747 0 1 1.012980 11.230405 9.422607
748 0 1 0.958941 11.500104 10.350906
749 0 1 1.821551 11.069402 10.405197
750 0 1 1.973611 10.064103 10.244400
751 0 1 2.240090 9.405404 10.915604
752 0 1 3.214570 9.113904 10.847504
753 0 1 3.238791 9.452405 11.770508
754 0 1 3.654342 10.023103 11.108597
755 0 1 4.610021 9.834302 11.356201
756 0 1 5.404675 9.602704 10.868805
757 0 1 5.760056 8.983106 10.239700
758 0 1 5.195449 8.514302 9.627899
759 0 1 5.578584 7.780503 10.150497
760 0 1 5.910745 7.967202 11.049408
761 0 1 5.110356 7.986505 11.595093
762 0 1 5.573760 7.206803 11.876801
763 0 1 6.073171 6.384702 11.901398
764 0 1 5.788213 5.996102 12.746201
765 0 1 5.489118 5.277913 13.370407
766 0 1 5.000148 4.856805 14.091797
767 0 1 4.588775 5.706403 14.053894
768 0 1 4.325469 5.733602 14.963898
769 0 1 3.825980 6.374402 15.391006
770 0 1 3.624541 6.232602 16.343994
771 0 1 3.184541 7.090802 16.435699
772 0 1 3.353190 7.358003 17.366898
773 0 1 3.486032 6.791905 18.113403
774 0 1 4.290984 7.265004 18.190308
775 0 1 4.346093 8.102002 17.648697
776 0 1 3.703940 8.499104 17.049896
777 0 1 4.385249 8.274304 16.415695
778 0 1 4.951407 7.597604 16.754700
779 0 1 5.470876 6.900502 16.177200
780 0 1 5.766765 6.160005 15.652603
781 0 1 5.512071 5.308034 15.289307
782 0 1 5.896649 4.926175 16.027496
783 0 1 5.858560 4.606954 16.941605
784 0 1 5.685241 3.930402 17.588898
785 0 1 4.999373 3.291432 17.800003
786 0 1 4.591306 3.461564 18.666504