LAMMPS data file via MDAnalysis

        2000  atoms
        1999  bonds
           0  angles
           0  dihedrals
           0  impropers

           1  atom types
           1  bond types
           0  angle types
           0  dihedral types
           0  improper types

-30.5 30.5 xlo xhi
-30.5 30.5 ylo yhi
-233.5 233.5 zlo zhi


Masses

1 1.000000

Atoms

1 0 1 9.524729 16.492107 25.123413
2 0 1 10.392668 16.813007 24.798096
3 0 1 10.802660 16.406906 25.537689
4 0 1 11.210447 17.245407 25.174011
5 0 1 10.781988 17.943810 25.715210
6 0 1 10.757830 18.874008 25.543091
7 0 1 10.790510 19.827106 25.768402
8 0 1 11.352491 19.516308 26.507202
9 0 1 10.830610 19.553108 27.338013
10 0 1 11.158689 18.672806 27.130798
11 0 1 11.644041 18.649208 27.999207
12 0 1 11.862238 19.292606 28.696899
13 0 1 11.897337 20.297207 28.688812
14 0 1 12.746210 19.961609 28.879700
15 0 1 13.541807 19.498108 28.693298
16 0 1 13.284609 18.729908 29.187500
17 0 1 12.665110 17.964607 29.411713
18 0 1 12.623808 18.108208 30.353210
19 0 1 12.294210 18.338608 31.255615
20 0 1 11.715399 17.573410 31.530090
21 0 1 12.490110 17.066505 31.761505
22 0 1 12.291609 16.500008 31.027802
23 0 1 12.007109 15.732907 31.549591
24 0 1 11.684038 14.977410 30.959106
25 0 1 11.947149 15.663911 30.264404
26 0 1 11.625257 15.031610 29.651306
27 0 1 10.817450 15.613008 29.400513
28 0 1 10.423861 16.595909 29.360687
29 0 1 9.797350 16.113907 28.889008
30 0 1 9.593641 15.560105 29.726501
31 0 1 8.745619 15.962308 29.514893
32 0 1 8.262571 16.668610 29.007507
33 0 1 7.378218 16.869606 28.600891
34 0 1 6.580130 16.344807 28.302490
35 0 1 6.819151 15.491609 28.862000
36 0 1 6.262690 14.866609 28.384003
37 0 1 6.649310 14.125810 28.046814
38 0 1 7.652041 14.300408 28.001495
39 0 1 7.587828 15.166108 27.570892
40 0 1 8.357481 15.593507 27.954590
41 0 1 9.112551 15.232907 27.616516
42 0 1 9.334509 14.556207 28.200287
43 0 1 9.982378 13.793607 28.178497
44 0 1 10.269491 14.118207 27.316010
45 0 1 10.811708 13.242009 27.390411
46 0 1 11.552671 12.744107 27.116211
47 0 1 12.498907 13.060510 27.054016
48 0 1 13.154509 13.797109 27.076599
49 0 1 13.759710 14.575009 27.091705
50 0 1 14.733809 14.525208 26.962097
51 0 1 14.619207 14.191506 26.059113
52 0 1 13.952208 14.992509 26.019501
53 0 1 14.278410 14.698007 25.183105
54 0 1 14.009809 13.801408 25.169189
55 0 1 13.081110 13.630906 24.895996
56 0 1 12.950609 12.818910 24.489014
57 0 1 12.535410 12.369008 25.252991
58 0 1 11.613760 12.321710 25.124908
59 0 1 11.510168 12.173409 26.083710
60 0 1 12.061209 11.553407 25.705292
61 0 1 12.565210 11.323407 26.516510
62 0 1 13.332312 10.782208 26.721405
63 0 1 13.282507 9.977509 27.276489
64 0 1 13.745909 10.432710 28.007294
65 0 1 14.321711 10.888207 28.618500
66 0 1 13.553308 10.459008 29.052795
67 0 1 14.251108 10.525506 29.834290
68 0 1 15.035307 10.618707 30.369507
69 0 1 15.329611 9.956609 30.990997
70 0 1 15.742609 9.738309 31.923096
71 0 1 15.775209 10.307809 32.664185
72 0 1 16.778410 10.438809 32.619385
73 0 1 16.663408 10.283109 31.731384
74 0 1 16.317907 11.016507 31.154297
75 0 1 16.262110 11.406407 30.246216
76 0 1 16.794210 12.146310 30.695190
77 0 1 15.840109 12.235909 30.911194
78 0 1 15.586908 12.395509 30.042694
79 0 1 15.171408 11.932206 29.252502
80 0 1 14.470110 12.591107 29.049500
81 0 1 13.789110 12.982709 29.689911
82 0 1 12.877211 12.853909 29.469604
83 0 1 11.993769 13.216008 29.380615
84 0 1 10.992159 13.148210 29.478394
85 0 1 10.100950 13.089910 29.985809
86 0 1 9.324190 12.550908 30.072906
87 0 1 9.213018 11.681409 29.713409
88 0 1 8.974859 10.786908 30.047302
89 0 1 9.707010 10.887609 30.663788
90 0 1 10.022478 10.295407 31.318695
91 0 1 10.359060 9.448106 30.822388
92 0 1 10.233839 9.248849 29.844788
93 0 1 9.438540 8.784268 29.628906
94 0 1 8.811968 8.476129 29.020691
95 0 1 8.486361 7.862767 29.664185
96 0 1 9.135061 7.225549 29.998596
97 0 1 9.611361 6.398698 30.335388
98 0 1 9.499868 5.619737 29.772491
99 0 1 10.436598 5.380239 29.979706
100 0 1 10.728048 5.036920 29.125305
101 0 1 10.650888 5.391210 28.183014
102 0 1 10.702749 5.651998 27.239197
103 0 1 10.360220 5.418157 26.411011
104 0 1 10.793737 4.937497 25.720795
105 0 1 11.657888 4.484406 25.668304
106 0 1 12.415209 3.974808 25.713196
107 0 1 12.543707 3.488656 26.526184
108 0 1 11.774290 3.008958 26.433594
109 0 1 12.451509 2.420438 26.424805
110 0 1 12.588408 2.365628 27.400208
111 0 1 11.976068 1.632947 27.673492
112 0 1 12.347609 0.865777 27.338104
113 0 1 13.073908 0.788628 26.607788
114 0 1 13.298510 1.091866 25.782104
115 0 1 13.210009 1.917199 25.341187
116 0 1 14.080610 1.932896 24.847107
117 0 1 14.322309 2.811276 24.628510
118 0 1 14.356810 3.299199 23.853088
119 0 1 14.584909 3.150277 22.957886
120 0 1 14.999010 2.391267 23.381012
121 0 1 15.676809 2.734109 22.825012
122 0 1 15.854307 1.952809 22.306396
123 0 1 16.661509 2.194657 22.627106
124 0 1 16.616110 1.254498 22.780609
125 0 1 15.811209 0.747578 22.530487
126 0 1 16.502710 0.067290 22.612213
127 0 1 16.642611 -0.702972 23.250397
128 0 1 17.449209 -0.394925 23.606384
129 0 1 18.387907 -0.723010 23.363190
130 0 1 18.315512 -0.332494 24.224915
131 0 1 18.376509 -1.178334 24.662415
132 0 1 17.558008 -1.395061 25.006592
133 0 1 16.990610 -1.582698 24.250305
134 0 1 16.176107 -1.391393 23.798401
135 0 1 15.572008 -0.724651 23.568695
136 0 1 14.647909 -1.110608 23.597809
137 0 1 14.959509 -0.771859 24.434204
138 0 1 14.296209 -0.859584 25.105804
139 0 1 13.722609 -1.512529 25.503784
140 0 1 13.043909 -2.177861 25.585602
141 0 1 12.113710 -2.265971 25.297089
142 0 1 12.035109 -2.062343 24.293396
143 0 1 12.154707 -3.011611 23.958984
144 0 1 12.289511 -2.743602 23.041016
145 0 1 11.526518 -3.234233 22.595886
146 0 1 11.207659 -3.801091 21.928192
147 0 1 10.338461 -3.807502 21.474792
148 0 1 9.787798 -4.483161 21.099106
149 0 1 10.285769 -5.225852 21.473907
150 0 1 11.240839 -5.409692 21.745895
151 0 1 11.921228 -6.138942 21.681702
152 0 1 12.881411 -5.961211 21.464996
153 0 1 13.158812 -5.736093 22.360992
154 0 1 12.762609 -6.629703 22.273605
155 0 1 12.211309 -7.284322 21.765808
156 0 1 12.138311 -7.897992 20.990494
157 0 1 12.935610 -7.927342 20.466095
158 0 1 12.999411 -7.130162 21.094406
159 0 1 13.944708 -7.271222 21.192596
160 0 1 14.817511 -7.097953 21.675705
161 0 1 15.747808 -6.914182 21.520508
162 0 1 16.280111 -6.918042 20.799408
163 0 1 16.755709 -6.110602 20.940399
164 0 1 17.074209 -5.436942 21.572098
165 0 1 17.302710 -6.263282 22.089996
166 0 1 17.574808 -6.584422 22.972107
167 0 1 18.110708 -7.210042 22.464798
168 0 1 18.524210 -7.723861 21.723907
169 0 1 18.761309 -6.798011 21.434296
170 0 1 19.532812 -6.445392 20.956299
171 0 1 19.022207 -6.342912 20.153702
172 0 1 18.287611 -6.167682 19.608795
173 0 1 17.331411 -6.133372 19.594101
174 0 1 16.942610 -6.999782 19.471207
175 0 1 16.485510 -7.859851 19.287201
176 0 1 15.671610 -8.349292 18.940308
177 0 1 15.069109 -7.768363 18.354996
178 0 1 15.560911 -8.417243 17.834396
179 0 1 14.721510 -8.259761 17.350006
180 0 1 14.195410 -8.053172 16.591492
181 0 1 13.604811 -7.310372 16.606995
182 0 1 13.881010 -6.558702 17.123596
183 0 1 13.363710 -6.041961 17.785706
184 0 1 14.167707 -5.600472 18.053299
185 0 1 14.823408 -5.214412 18.623596
186 0 1 15.003611 -4.298871 18.370697
187 0 1 14.565508 -4.126502 17.566193
188 0 1 14.678808 -3.139373 17.406006
189 0 1 15.345808 -2.558122 16.772400
190 0 1 15.724607 -3.410182 16.777405
191 0 1 15.924910 -2.802793 17.561203
192 0 1 15.549109 -3.172632 18.297302
193 0 1 16.312609 -3.674571 17.992798
194 0 1 17.184309 -3.291433 18.099197
195 0 1 17.172110 -2.484412 17.543106
196 0 1 17.820810 -2.382612 18.277802
197 0 1 18.605410 -2.332853 18.864899
198 0 1 19.174410 -2.716703 19.549194
199 0 1 19.826910 -2.083383 20.054108
200 0 1 19.427412 -1.129808 20.042999
201 0 1 19.323507 -0.295291 20.605804
202 0 1 19.153509 0.710658 20.580597
203 0 1 19.820807 0.917298 19.905899
204 0 1 19.652010 1.525597 19.101501
205 0 1 20.533110 1.740849 18.755295
206 0 1 20.368410 2.482178 19.358505
207 0 1 20.933607 1.728127 19.696396
208 0 1 21.717810 1.336610 19.536301
209 0 1 21.692007 0.574958 19.033707
210 0 1 21.711210 0.283131 18.187408
211 0 1 22.309408 0.653437 17.589996
212 0 1 23.204409 0.701869 17.215195
213 0 1 23.789907 0.419667 16.450806
214 0 1 23.814409 1.323617 16.282501
215 0 1 24.639910 1.348519 15.761094
216 0 1 24.215509 1.180627 14.880403
217 0 1 23.764212 1.614819 14.160401
218 0 1 22.857809 2.093739 14.059999
219 0 1 22.030508 1.580640 13.836793
220 0 1 22.111311 0.635709 13.983308
221 0 1 22.285509 0.025231 14.682694
222 0 1 22.127008 -0.726632 14.137803
223 0 1 21.945108 -1.610311 14.409394
224 0 1 22.565710 -1.185926 15.080003
225 0 1 23.101210 -1.260076 15.897004
226 0 1 23.933710 -1.659192 15.530000
227 0 1 24.223707 -1.894592 16.386292
228 0 1 24.608309 -2.833232 16.269302
229 0 1 24.895510 -3.540262 16.807800
230 0 1 24.628710 -4.056912 17.560104
231 0 1 24.126509 -3.715183 18.270401
232 0 1 24.139009 -4.591863 18.574097
233 0 1 24.042109 -4.365071 19.548004
234 0 1 23.927511 -3.423202 19.719406
235 0 1 23.200609 -3.271352 20.369797
236 0 1 22.658609 -3.298553 21.144104
237 0 1 22.043009 -4.007672 21.056793
238 0 1 21.825209 -4.824903 20.579498
239 0 1 22.478308 -5.498572 20.431503
240 0 1 22.440512 -6.185302 19.724701
241 0 1 22.688410 -6.731732 20.493698
242 0 1 21.817411 -6.948932 20.885605
243 0 1 21.807909 -7.815482 20.524796
244 0 1 21.569807 -8.727801 20.339996
245 0 1 21.792410 -9.071671 21.224701
246 0 1 22.721109 -8.565492 21.459808
247 0 1 22.785307 -7.550912 21.467499
248 0 1 22.429007 -7.784671 22.445404
249 0 1 21.936708 -8.586883 22.589508
250 0 1 21.457312 -8.089622 23.295593
251 0 1 21.115507 -8.218152 24.164490
252 0 1 21.900309 -7.917701 24.561401
253 0 1 22.462210 -8.545552 24.960388
254 0 1 23.369711 -8.778461 24.895996
255 0 1 23.266706 -7.792453 24.818390
256 0 1 24.145010 -7.564631 24.475586
257 0 1 24.155111 -6.722062 23.987610
258 0 1 23.557508 -6.185493 23.390503
259 0 1 23.527807 -5.852792 24.292603
260 0 1 22.645510 -6.153003 24.156403
261 0 1 22.331308 -5.346011 23.668610
262 0 1 21.907507 -4.561893 23.424805
263 0 1 21.733412 -3.558303 23.664093
264 0 1 21.590811 -2.628642 23.864594
265 0 1 21.201509 -1.786323 23.866516
266 0 1 21.343008 -1.845903 24.791290
267 0 1 21.521410 -0.911189 24.873291
268 0 1 21.287512 -0.630529 25.767395
269 0 1 22.267210 -0.512059 25.932190
270 0 1 22.666311 -0.648593 25.035309
271 0 1 23.241812 -0.408687 24.221893
272 0 1 23.991911 -1.097846 24.347595
273 0 1 24.912809 -1.181184 24.481689
274 0 1 25.698408 -1.564849 24.910004
275 0 1 25.426512 -2.384202 24.429901
276 0 1 25.289007 -1.785022 23.620514
277 0 1 26.216208 -1.803102 23.916504
278 0 1 26.616209 -0.997901 23.700195
279 0 1 27.474909 -0.526458 23.596405
280 0 1 28.364012 -0.196214 23.969116
281 0 1 27.876608 0.701758 24.101288
282 0 1 27.825708 1.606057 24.559814
283 0 1 27.576109 2.488839 24.924194
284 0 1 27.998209 3.214577 25.401794
285 0 1 27.737410 3.539189 26.257812
286 0 1 28.167608 4.454606 26.194489
287 0 1 28.577810 5.179620 26.613007
288 0 1 29.434309 5.462869 26.869385
289 0 1 29.524809 4.722199 27.420898
290 0 1 30.201406 5.135907 27.945312
291 0 1 29.507010 5.293759 28.600098
292 0 1 30.050810 4.915696 29.323303
293 0 1 30.565107 5.608129 29.646301
294 0 1 30.173208 6.494687 29.461487
295 0 1 29.363909 6.822667 29.869293
296 0 1 28.704107 7.489739 29.593201
297 0 1 29.369909 8.234647 29.751801
298 0 1 28.732107 8.911668 29.524597
299 0 1 28.352407 9.839009 29.538605
300 0 1 28.061609 9.485707 30.345093
301 0 1 27.185610 9.642610 30.588104
302 0 1 26.355307 9.735707 30.040405
303 0 1 26.668009 10.378709 29.395294
304 0 1 25.751810 10.877610 29.663086
305 0 1 25.810011 11.821008 29.426788
306 0 1 26.218409 11.762807 28.586304
307 0 1 25.971510 11.116006 27.890991
308 0 1 24.977610 10.996209 27.971008
309 0 1 25.487009 10.410008 27.469513
310 0 1 26.309607 10.100209 27.092987
311 0 1 25.851110 9.515309 26.481812
312 0 1 25.740309 8.810117 27.092010
313 0 1 24.932909 8.919580 27.673889
314 0 1 24.180410 8.299119 27.830994
315 0 1 23.902807 8.545358 28.703888
316 0 1 23.075308 8.515279 29.292603
317 0 1 22.684607 7.600747 29.285187
318 0 1 21.921110 7.193467 28.921204
319 0 1 21.627909 6.380410 29.360413
320 0 1 21.841810 5.515470 29.860199
321 0 1 21.657011 4.600480 30.063110
322 0 1 21.144911 4.107038 30.686188
323 0 1 20.768011 3.893960 31.606689
324 0 1 19.974707 3.414407 31.956787
325 0 1 20.358309 2.577107 32.150696
326 0 1 20.525412 1.611058 31.909302
327 0 1 20.676710 2.052258 30.959900
328 0 1 20.047812 1.742860 30.240692
329 0 1 19.190512 1.700768 29.878113
330 0 1 19.195211 0.871518 30.412689
331 0 1 18.250608 0.925839 30.729492
332 0 1 17.740011 0.166241 30.377197
333 0 1 17.065908 -0.238715 30.995514
334 0 1 17.326208 -0.992622 31.598999
335 0 1 17.426710 -1.470145 30.757294
336 0 1 17.363607 -2.451463 30.931396
337 0 1 16.959410 -2.448821 30.115601
338 0 1 16.546408 -3.039972 30.680603
339 0 1 17.355310 -3.531142 30.762604
340 0 1 16.672812 -4.227822 30.766510
341 0 1 16.152109 -3.902522 31.492310
342 0 1 16.152910 -4.852162 31.577209
343 0 1 15.859709 -5.234443 30.699005
344 0 1 16.599409 -5.516051 30.125214
345 0 1 17.397509 -5.693591 30.702606
346 0 1 17.131411 -6.603843 30.452698
347 0 1 16.745710 -6.969102 31.263489
348 0 1 17.227011 -6.566222 32.065491
349 0 1 17.235312 -5.630452 32.158203
350 0 1 17.338209 -4.967652 32.803406
351 0 1 17.871008 -4.281041 33.106598
352 0 1 18.309507 -4.900952 33.658813
353 0 1 19.133410 -4.411653 33.790192
354 0 1 19.424810 -3.645131 33.290497
355 0 1 18.870310 -3.248681 34.012207
356 0 1 18.613810 -2.471952 33.513916
357 0 1 18.437307 -1.582582 33.442993
358 0 1 19.059210 -1.638355 34.169891
359 0 1 18.254808 -1.345140 34.563690
360 0 1 17.984808 -2.083812 35.115784
361 0 1 17.378408 -2.559213 35.641113
362 0 1 16.974211 -1.848092 36.070801
363 0 1 16.180609 -2.243222 36.508698
364 0 1 16.562410 -1.482396 37.034210
365 0 1 17.333311 -1.861913 37.462585
366 0 1 17.365507 -2.629722 38.096405
367 0 1 17.654608 -2.441142 38.957214
368 0 1 18.021509 -3.276782 39.373993
369 0 1 17.569708 -3.907462 38.760895
370 0 1 16.958807 -4.355771 39.372498
371 0 1 16.464911 -3.496331 39.596710
372 0 1 15.639410 -3.687932 39.121307
373 0 1 15.355108 -3.238523 38.264801
374 0 1 14.420809 -3.257512 38.492615
375 0 1 14.333010 -2.349782 38.203796
376 0 1 13.886309 -1.494355 38.109497
377 0 1 13.484007 -0.973476 37.478790
378 0 1 13.159708 -0.099879 37.053009
379 0 1 13.151907 0.857278 37.294006
380 0 1 12.679209 1.088246 36.521484
381 0 1 11.852720 1.421036 36.149597
382 0 1 11.879099 2.236588 35.675995
383 0 1 12.100409 2.929868 36.342194
384 0 1 12.040609 2.789300 37.246002
385 0 1 11.406939 2.845868 38.015991
386 0 1 11.252249 1.914597 37.852295
387 0 1 11.954481 1.273698 37.971588
388 0 1 11.580629 1.246167 38.853210
389 0 1 11.681639 2.192219 39.017792
390 0 1 11.154940 2.555009 39.826202
391 0 1 11.195688 1.571877 39.737305
392 0 1 11.772429 0.774968 40.047913
393 0 1 12.523508 0.394498 40.515991
394 0 1 12.146509 -0.448348 40.691498
395 0 1 11.481798 0.255578 41.011200
396 0 1 10.539747 0.303408 41.035187
397 0 1 10.538340 0.959748 41.718201
398 0 1 11.393408 1.373597 41.541016
399 0 1 11.627638 1.620137 42.471710
400 0 1 12.290308 1.035168 42.251892
401 0 1 11.885458 0.147105 42.287506
402 0 1 11.353830 -0.600881 41.980988
403 0 1 10.946531 -1.399390 42.248199
404 0 1 10.926619 -2.221353 41.701904
405 0 1 11.692610 -1.679282 41.438293
406 0 1 11.851610 -2.006961 40.533508
407 0 1 12.315809 -2.856952 40.734009
408 0 1 11.938189 -3.620033 41.139801
409 0 1 11.228701 -3.891612 40.527313
410 0 1 11.051458 -3.956573 39.602203
411 0 1 11.083620 -4.130733 38.665283
412 0 1 10.706919 -3.220422 38.645691
413 0 1 10.680067 -2.245982 38.385193
414 0 1 10.070280 -2.539762 37.712311
415 0 1 10.557199 -1.856933 37.237213
416 0 1 10.572790 -2.042222 36.311401
417 0 1 9.996580 -1.719213 35.531616
418 0 1 9.701151 -0.768645 35.709808
419 0 1 10.594038 -0.409545 35.695099
420 0 1 10.667097 -0.517713 34.750793
421 0 1 10.955080 0.357058 34.193604
422 0 1 11.426210 -0.126540 33.509888
423 0 1 11.747488 -0.558757 32.667114
424 0 1 10.865568 -1.009282 32.668488
425 0 1 10.637732 -0.940461 33.647888
426 0 1 9.817949 -1.297458 34.049805
427 0 1 9.452551 -1.961593 34.569000
428 0 1 10.151869 -2.238471 33.968292
429 0 1 10.223410 -1.843263 33.153809
430 0 1 9.532221 -1.425029 32.564911
431 0 1 8.791258 -1.175649 32.042511
432 0 1 7.884890 -1.194818 32.294617
433 0 1 7.438738 -1.942163 31.862000
434 0 1 7.321761 -1.307880 31.139709
435 0 1 7.155749 -0.944266 30.216187
436 0 1 6.703959 -0.105336 30.063416
437 0 1 6.132048 0.596589 30.357300
438 0 1 5.757140 0.489379 31.186584
439 0 1 5.482501 0.885186 32.021088
440 0 1 5.180060 1.822636 32.217987
441 0 1 4.617980 2.412457 32.730713
442 0 1 4.607539 3.100907 33.402588
443 0 1 4.076079 3.321439 34.135803
444 0 1 3.656008 3.906228 34.803497
445 0 1 4.574049 4.179406 34.890198
446 0 1 4.109038 4.779290 35.480103
447 0 1 3.660330 5.462190 36.062103
448 0 1 3.055060 6.133939 35.964691
449 0 1 3.039709 7.029668 35.508087
450 0 1 3.053839 7.073289 36.419708
451 0 1 2.116060 6.942647 36.309998
452 0 1 2.132231 7.611169 35.535400
453 0 1 1.833376 8.312699 36.083893
454 0 1 1.574179 8.091676 36.994385
455 0 1 0.728850 8.398690 37.210083
456 0 1 0.121510 7.735726 37.401489
457 0 1 -0.602230 7.237470 36.979797
458 0 1 -0.987161 8.237519 37.191406
459 0 1 -1.650650 8.686860 37.756897
460 0 1 -2.092729 8.865819 36.968109
461 0 1 -2.107530 7.891088 36.994202
462 0 1 -3.029270 7.907166 36.546509
463 0 1 -3.385700 8.275376 37.329712
464 0 1 -3.933090 7.587190 36.809387
465 0 1 -4.028371 7.352647 37.694000
466 0 1 -4.206001 6.487958 37.870300
467 0 1 -3.669340 6.878449 38.519196
468 0 1 -3.928951 6.232388 39.204712
469 0 1 -3.491281 6.503278 39.992493
470 0 1 -2.935911 7.140267 40.518494
471 0 1 -2.436041 6.335927 40.661102
472 0 1 -1.904571 6.480798 41.461700
473 0 1 -2.007271 6.550988 42.436493
474 0 1 -2.638750 7.182557 42.735596
475 0 1 -2.983690 8.039460 42.470001
476 0 1 -3.111891 8.454579 41.576202
477 0 1 -3.418560 8.538667 40.678802
478 0 1 -2.734180 8.200440 40.180511
479 0 1 -1.851200 8.179910 40.587585
480 0 1 -1.707000 9.068200 40.208313
481 0 1 -1.158710 9.247849 39.446503
482 0 1 -0.609920 9.770108 40.045990
483 0 1 -0.280971 8.983197 40.408997
484 0 1 0.012560 8.488358 39.596893
485 0 1 0.585230 8.377366 38.831116
486 0 1 -0.110660 8.924008 38.426208
487 0 1 0.712029 9.377908 38.987213
488 0 1 0.592829 10.287709 39.186310
489 0 1 0.044869 10.790708 38.535797
490 0 1 0.487459 11.574109 39.032288
491 0 1 1.248719 12.128308 39.288696
492 0 1 1.775707 12.377809 38.533295
493 0 1 2.390427 12.075410 37.902405
494 0 1 3.320799 11.991410 38.164398
495 0 1 3.248650 11.356507 38.875488
496 0 1 3.763968 10.606709 38.877014
497 0 1 3.540419 10.378106 37.979614
498 0 1 2.964419 10.651307 37.247803
499 0 1 2.757523 10.717008 36.262695
500 0 1 2.666508 10.580010 35.336609
501 0 1 2.688967 11.566609 35.225403
502 0 1 3.181179 12.405210 34.917999
503 0 1 3.603888 12.763406 34.145386
504 0 1 4.151412 13.401509 33.766205
505 0 1 4.966940 13.911408 33.540802
506 0 1 5.600840 14.519006 33.895386
507 0 1 5.126769 15.100907 33.200012
508 0 1 5.424281 15.938008 33.472900
509 0 1 5.871588 15.953507 32.575806
510 0 1 5.876601 16.428909 31.658813
511 0 1 5.337660 16.279709 30.869812
512 0 1 4.530409 15.847508 30.602295
513 0 1 4.167521 15.516709 29.777008
514 0 1 4.361128 16.470009 29.700806
515 0 1 4.407080 16.410908 28.757812
516 0 1 4.833418 17.174908 28.293304
517 0 1 5.233920 16.441910 27.808990
518 0 1 4.893919 17.043205 27.154907
519 0 1 5.751761 17.405708 27.178314
520 0 1 5.949820 17.326008 28.076813
521 0 1 5.895159 17.889008 28.875214
522 0 1 5.067080 18.246605 29.068298
523 0 1 4.516589 18.260406 29.904694
524 0 1 4.955370 19.068108 29.782013
525 0 1 4.230361 19.079407 29.141785
526 0 1 4.060320 19.497707 28.243713
527 0 1 3.881811 19.656006 27.329285
528 0 1 3.723528 19.695808 26.389801
529 0 1 3.989329 20.607010 26.128510
530 0 1 4.740969 20.159508 26.589996
531 0 1 4.727789 21.160507 26.718903
532 0 1 4.151728 21.923904 26.929688
533 0 1 3.236580 21.597305 26.810913
534 0 1 2.894545 21.631207 25.930908
535 0 1 1.986344 21.650909 26.082886
536 0 1 1.485329 21.001808 25.572510
537 0 1 0.585169 21.388405 25.700897
538 0 1 0.894039 21.652008 26.563110
539 0 1 0.537630 21.033409 27.181488
540 0 1 -0.300331 21.650608 27.403595
541 0 1 -0.578371 21.825607 28.332489
542 0 1 -0.416631 20.994606 28.779510
543 0 1 -0.735780 20.665607 29.580597
544 0 1 -0.737440 19.824005 30.148804
545 0 1 -1.284910 19.692909 30.835907
546 0 1 -1.435680 18.912907 30.305115
547 0 1 -1.946201 18.107109 30.583099
548 0 1 -2.915910 18.101707 30.474304
549 0 1 -3.412700 17.599007 29.825104
550 0 1 -3.776161 18.551807 29.875305
551 0 1 -3.713600 19.165207 29.075806
552 0 1 -4.053380 18.551506 28.409698
553 0 1 -3.952791 18.042007 27.577087
554 0 1 -4.582031 17.456207 27.044189
555 0 1 -4.501779 16.830505 26.274902
556 0 1 -4.088480 17.330406 25.563995
557 0 1 -3.900881 17.415810 24.611786
558 0 1 -4.802650 17.678406 24.567505
559 0 1 -4.467250 18.527508 24.267700
560 0 1 -4.658050 19.383507 24.686188
561 0 1 -5.437749 19.195808 24.156311
562 0 1 -5.867900 19.835106 23.577698
563 0 1 -6.457971 19.372009 24.178406
564 0 1 -6.862081 18.496708 23.765289
565 0 1 -6.494760 17.586510 23.778503
566 0 1 -6.735691 16.656208 23.518402
567 0 1 -6.978590 17.295509 22.881805
568 0 1 -7.679290 17.103004 23.528595
569 0 1 -8.399290 17.357906 24.139496
570 0 1 -7.663450 17.114609 24.663513
571 0 1 -8.042292 16.816208 25.464813
572 0 1 -7.978631 15.934510 25.786987
573 0 1 -8.392290 16.081909 26.668884
574 0 1 -8.927492 16.072006 27.439087
575 0 1 -9.452591 16.847008 27.640106
576 0 1 -10.269791 16.661407 27.274414
577 0 1 -9.898491 16.827606 26.349091
578 0 1 -9.357389 17.625507 26.420105
579 0 1 -8.793791 18.383804 26.582489
580 0 1 -8.026991 17.813408 26.854095
581 0 1 -7.207281 18.058105 26.392487
582 0 1 -6.470911 18.123306 27.039886
583 0 1 -6.996091 18.913708 26.935303
584 0 1 -7.883760 18.887405 26.713196
585 0 1 -8.412090 19.509808 26.236206
586 0 1 -8.943590 19.999405 25.669312
587 0 1 -9.024391 20.670807 25.021606
588 0 1 -9.732290 21.233009 25.355194
589 0 1 -10.427092 20.612610 25.686890
590 0 1 -11.310690 20.223007 25.691986
591 0 1 -11.668692 20.453808 26.529510
592 0 1 -12.393190 20.897408 26.912994
593 0 1 -13.110190 21.578907 26.554291
594 0 1 -13.570391 22.210308 26.037811
595 0 1 -12.883091 21.780006 25.492096
596 0 1 -12.869091 21.581306 24.574585
597 0 1 -12.361589 20.795105 24.503784
598 0 1 -12.602091 20.077805 23.797485
599 0 1 -13.286991 19.535408 23.513306
600 0 1 -14.236891 19.684807 23.586090
601 0 1 -14.789091 20.450607 23.652191
602 0 1 -15.122490 20.000008 22.847412
603 0 1 -15.359791 19.554607 23.692596
604 0 1 -15.020491 19.141907 24.535400
605 0 1 -15.071890 18.933105 25.476410
606 0 1 -15.541691 18.255707 24.960297
607 0 1 -15.763990 17.955109 24.035492
608 0 1 -15.254591 17.294407 23.551605
609 0 1 -15.113091 16.628906 24.208099
610 0 1 -15.962091 16.960106 24.557007
611 0 1 -16.224691 16.636009 25.425110
612 0 1 -15.287392 16.284706 25.409485
613 0 1 -15.780491 15.434209 25.586090
614 0 1 -15.932791 14.833108 24.909790
615 0 1 -15.536190 14.179109 25.557587
616 0 1 -15.287191 14.532208 26.458313
617 0 1 -15.016491 15.314309 27.097290
618 0 1 -14.437990 15.807908 27.701508
619 0 1 -13.655090 16.222507 27.419891
620 0 1 -13.935990 17.005108 27.985809
621 0 1 -14.189991 16.865208 28.883301
622 0 1 -14.005491 16.189808 29.536407
623 0 1 -14.811892 15.816808 29.854401
624 0 1 -15.081991 15.040807 30.459290
625 0 1 -15.451391 14.703908 29.653107
626 0 1 -15.706291 14.454209 28.726013
627 0 1 -15.670891 13.471910 28.836700
628 0 1 -15.001492 13.757707 28.236786
629 0 1 -14.061390 14.061509 28.295288
630 0 1 -13.244290 13.486608 28.182495
631 0 1 -12.397291 13.341706 27.606293
632 0 1 -12.643691 12.673608 26.868805
633 0 1 -12.381189 12.575608 25.934113
634 0 1 -11.839190 12.414910 25.173798
635 0 1 -12.445089 12.132707 24.413788
636 0 1 -13.318191 11.674008 24.333099
637 0 1 -13.334291 12.593308 23.959503
638 0 1 -13.779091 11.916707 23.415100
639 0 1 -12.874391 12.108109 23.127899
640 0 1 -12.632391 11.179910 23.042908
641 0 1 -12.940691 10.495908 23.580200
642 0 1 -12.060591 10.366410 23.786896
643 0 1 -12.264891 10.137406 22.909698
644 0 1 -12.155291 9.908307 21.946198
645 0 1 -11.262991 9.694409 21.836594
646 0 1 -11.775391 8.898717 21.923492
647 0 1 -11.574791 8.222497 21.317505
648 0 1 -10.923590 7.734838 20.672806
649 0 1 -11.413891 8.427197 20.231400
650 0 1 -11.250792 8.048348 19.333603
651 0 1 -11.711390 7.174256 19.517105
652 0 1 -11.210091 7.143388 18.628296
653 0 1 -10.376989 7.114038 19.090195
654 0 1 -10.748491 6.210767 19.328705
655 0 1 -9.802191 5.855256 19.361801
656 0 1 -8.962290 6.364007 19.430099
657 0 1 -8.636591 5.423387 19.689499
658 0 1 -9.200590 4.801167 19.254898
659 0 1 -10.186790 4.689347 19.078308
660 0 1 -10.066992 3.719067 19.414505
661 0 1 -10.287592 2.765729 19.530106
662 0 1 -9.784290 2.023568 19.218704
663 0 1 -9.320089 1.170857 19.303802
664 0 1 -9.047190 1.679009 18.569702
665 0 1 -8.236490 2.013188 18.970901
666 0 1 -7.547571 2.310929 19.504303
667 0 1 -6.807741 2.537827 18.813995
668 0 1 -6.346769 3.368687 18.978897
669 0 1 -6.367820 3.442609 19.956894
670 0 1 -6.482961 3.214539 20.890198
671 0 1 -5.751241 2.736069 21.337997
672 0 1 -5.956451 2.409756 20.371597
673 0 1 -5.958009 1.564488 19.851105
674 0 1 -5.439439 1.146878 20.537399
675 0 1 -5.762041 0.975118 21.372406
676 0 1 -5.211391 0.155696 21.161697
677 0 1 -5.126800 -0.689592 21.582397
678 0 1 -5.633171 -0.788730 22.416107
679 0 1 -6.530851 -1.088390 22.204803
680 0 1 -6.563840 -1.114459 23.171295
681 0 1 -6.604249 -0.074737 23.025696
682 0 1 -6.561370 0.526439 23.783997
683 0 1 -5.740121 0.631808 23.362915
684 0 1 -5.601659 1.426408 23.827911
685 0 1 -6.125219 1.877797 23.181000
686 0 1 -6.137830 2.895207 23.007599
687 0 1 -6.343771 3.341237 22.189697
688 0 1 -7.036489 3.810296 22.806305
689 0 1 -7.481431 4.569077 22.488602
690 0 1 -7.364330 5.349309 21.935806
691 0 1 -6.506761 5.190629 21.523605
692 0 1 -6.751131 4.523580 20.825104
693 0 1 -7.288681 4.763238 20.065308
694 0 1 -6.648672 5.491429 19.982300
695 0 1 -6.082691 5.347898 19.236099
696 0 1 -5.217241 5.344590 19.708694
697 0 1 -4.625410 6.171166 19.951294
698 0 1 -3.695480 6.554307 19.940002
699 0 1 -3.695930 7.275868 19.386200
700 0 1 -3.692680 6.739240 18.632904
701 0 1 -3.793430 5.820718 18.806000
702 0 1 -3.752510 4.940728 18.336700
703 0 1 -4.193891 4.010488 18.401596
704 0 1 -4.412549 3.103646 17.922302
705 0 1 -4.281551 2.399647 18.541901
706 0 1 -3.355190 2.240876 18.526794
707 0 1 -2.480301 2.446267 18.233505
708 0 1 -1.608461 2.236657 17.958099
709 0 1 -0.959240 2.894799 18.268295
710 0 1 -0.514791 2.321236 18.877899
711 0 1 0.233540 2.601956 19.448608
712 0 1 0.471089 1.602727 19.268494
713 0 1 1.037918 1.113938 19.810608
714 0 1 0.619019 1.370007 20.646805
715 0 1 0.511860 2.342187 20.662399
716 0 1 0.014220 3.140637 20.423904
717 0 1 -0.524280 2.503888 20.929901
718 0 1 -0.695541 2.498227 21.884201
719 0 1 -1.596641 2.811959 22.096008
720 0 1 -2.167730 3.545968 21.949493
721 0 1 -2.361561 4.229817 21.209503
722 0 1 -1.714130 3.804997 20.611404
723 0 1 -2.027931 3.324906 19.819702
724 0 1 -2.662620 4.019017 19.475800
725 0 1 -2.873760 5.045907 19.431595
726 0 1 -2.622381 4.849050 18.559906
727 0 1 -1.755300 4.614339 18.237793
728 0 1 -1.566622 4.936379 17.350800
729 0 1 -0.670940 4.584359 17.101501
730 0 1 -0.552711 4.114167 17.924606
731 0 1 0.344090 3.921510 18.079300
732 0 1 0.205639 2.992528 18.071198
733 0 1 0.760250 2.418957 17.469803
734 0 1 0.574679 1.523778 17.354004
735 0 1 0.814429 0.631577 17.602402
736 0 1 1.558888 0.742028 18.261597
737 0 1 1.415026 -0.155051 18.734100
738 0 1 1.580940 -0.998958 19.188400
739 0 1 1.829403 -1.026492 18.321701
740 0 1 1.191118 -1.611337 17.974304
741 0 1 0.610380 -1.810111 17.228104
742 0 1 0.367699 -0.931596 16.813705
743 0 1 -0.194961 -1.171540 17.526001
744 0 1 -0.907671 -1.489171 17.016403
745 0 1 -1.780941 -1.534786 16.600494
746 0 1 -1.329950 -2.144613 16.038895
747 0 1 -1.177690 -1.262037 15.655305
748 0 1 -0.319330 -1.185840 15.230805
749 0 1 0.490940 -1.464641 15.683595
750 0 1 0.183520 -2.254642 15.235993
751 0 1 -0.611871 -2.456132 14.708802
752 0 1 -1.249000 -1.875543 14.384995
753 0 1 -2.118421 -2.023973 14.785798
754 0 1 -2.862001 -1.495019 14.722795
755 0 1 -3.365791 -0.769853 15.108003
756 0 1 -2.889570 -0.506290 15.933000
757 0 1 -3.678781 -0.029254 15.734696
758 0 1 -3.707700 0.919148 15.530396
759 0 1 -3.519741 1.104348 14.584504
760 0 1 -3.548580 2.000558 14.848603
761 0 1 -2.946260 2.740258 15.017900
762 0 1 -3.538181 3.525956 14.844499
763 0 1 -4.036960 3.145497 15.561296
764 0 1 -4.985349 2.903279 15.713304
765 0 1 -5.793920 3.092789 15.134797
766 0 1 -6.495649 2.718529 14.548295
767 0 1 -6.896980 2.082940 14.006898
768 0 1 -7.664320 1.585927 14.459001
769 0 1 -7.780031 1.404099 13.544297
770 0 1 -8.352091 2.029748 13.024705
771 0 1 -9.068689 2.588158 13.386506
772 0 1 -9.040291 2.502236 12.382508
773 0 1 -8.592890 2.418629 11.489808
774 0 1 -8.498291 3.370198 11.431108
775 0 1 -8.462191 3.701909 10.527604
776 0 1 -8.435492 4.628556 10.937104
777 0 1 -8.847691 5.336610 10.425202
778 0 1 -8.813990 4.603127 9.831620
779 0 1 -8.551991 5.328847 9.222474
780 0 1 -8.275890 6.117017 9.697038
781 0 1 -7.464090 5.851697 9.271714
782 0 1 -7.392030 5.802796 10.221803
783 0 1 -7.395391 6.561399 10.732194
784 0 1 -7.985370 7.042848 11.329698
785 0 1 -7.329870 7.788857 11.569001
786 0 1 -7.779119 7.597550 12.421006
787 0 1 -6.898469 7.203420 12.601106
788 0 1 -6.534250 7.381379 13.489396
789 0 1 -6.948070 8.295297 13.398499
790 0 1 -7.342760 9.087930 12.811097
791 0 1 -6.938920 9.977509 12.982499
792 0 1 -6.791730 10.612107 12.259599