LAMMPS data file via MDAnalysis

        2000  atoms
        1999  bonds
           0  angles
           0  dihedrals
           0  impropers

           1  atom types
           1  bond types
           0  angle types
           0  dihedral types
           0  improper types

-30.5 30.5 xlo xhi
-30.5 30.5 ylo yhi
-233.5 233.5 zlo zhi


Masses

1 1.000000

Atoms

1 0 1 -20.383701 -8.962996 64.793396
2 0 1 -19.752201 -9.298797 65.407104
3 0 1 -19.037901 -8.691997 65.147797
4 0 1 -18.696800 -9.244697 65.897217
5 0 1 -17.743002 -9.230897 65.837708
6 0 1 -17.858301 -8.831098 64.971710
7 0 1 -18.459501 -8.799695 64.224792
8 0 1 -18.514301 -9.346597 63.447205
9 0 1 -18.972301 -8.895597 62.555908
10 0 1 -19.480103 -9.703996 62.809387
11 0 1 -20.362001 -9.740096 62.412292
12 0 1 -20.809002 -9.930797 61.573700
13 0 1 -21.771101 -9.828797 61.236206
14 0 1 -21.361702 -8.895795 61.438599
15 0 1 -22.088301 -8.266696 61.543396
16 0 1 -22.165001 -7.708898 60.806091
17 0 1 -22.721502 -8.078095 60.069000
18 0 1 -22.643801 -8.157697 59.138702
19 0 1 -22.425201 -7.821696 58.184906
20 0 1 -21.580601 -7.393497 57.984894
21 0 1 -20.678202 -7.588496 58.076508
22 0 1 -21.149302 -8.383697 58.177307
23 0 1 -21.266901 -8.725698 57.292603
24 0 1 -21.409201 -8.629996 56.347290
25 0 1 -21.026402 -7.902596 55.907196
26 0 1 -21.736601 -8.196197 55.254608
27 0 1 -22.528301 -8.197696 55.853302
28 0 1 -23.387802 -7.797097 55.713806
29 0 1 -24.189501 -8.229295 55.475189
30 0 1 -24.898302 -7.918096 54.866394
31 0 1 -25.437702 -8.352197 54.088409
32 0 1 -25.892002 -9.114697 54.424988
33 0 1 -26.636101 -9.256696 53.696991
34 0 1 -25.896702 -9.970296 53.603790
35 0 1 -25.061302 -9.904595 53.122009
36 0 1 -24.688402 -9.739596 54.014587
37 0 1 -23.836502 -9.362596 53.778198
38 0 1 -22.850101 -9.462096 53.761292
39 0 1 -22.713902 -9.265397 52.781494
40 0 1 -22.792101 -9.260396 51.794403
41 0 1 -21.951002 -9.711995 51.558807
42 0 1 -21.035902 -9.766297 51.283295
43 0 1 -21.006702 -10.238996 52.111816
44 0 1 -20.689302 -9.928197 52.971893
45 0 1 -20.648901 -9.815095 53.904205
46 0 1 -20.761202 -10.321397 54.746704
47 0 1 -20.811401 -10.980695 54.077789
48 0 1 -21.715801 -11.260697 54.252411
49 0 1 -21.326702 -12.039996 54.664093
50 0 1 -20.857502 -11.300496 55.090393
51 0 1 -21.332302 -11.404798 55.917908
52 0 1 -21.116501 -12.125896 56.461914
53 0 1 -21.365602 -12.722197 57.149109
54 0 1 -20.664902 -13.369395 57.543304
55 0 1 -20.678602 -14.316895 57.083191
56 0 1 -20.066801 -14.212996 56.358795
57 0 1 -20.238701 -14.751996 55.552094
58 0 1 -20.845201 -14.553496 54.763702
59 0 1 -21.574402 -14.276095 54.142090
60 0 1 -21.742102 -13.972297 53.206787
61 0 1 -21.586201 -13.053796 53.309998
62 0 1 -21.248302 -12.721196 52.494507
63 0 1 -20.946602 -12.113696 51.777191
64 0 1 -21.027102 -12.941096 51.278198
65 0 1 -20.990602 -12.752996 50.274292
66 0 1 -21.880802 -12.326496 49.977203
67 0 1 -22.354801 -12.103196 49.185211
68 0 1 -22.589302 -12.252196 48.307098
69 0 1 -21.739702 -11.970696 47.980896
70 0 1 -20.854301 -11.566495 47.848389
71 0 1 -19.986301 -11.487996 47.396484
72 0 1 -20.096601 -10.852895 48.180298
73 0 1 -19.296001 -11.328496 48.634705
74 0 1 -18.460201 -11.533296 48.147095
75 0 1 -18.175701 -11.469996 49.092010
76 0 1 -18.909000 -11.987296 49.441101
77 0 1 -18.418201 -11.437696 50.142792
78 0 1 -17.569700 -11.354897 50.531097
79 0 1 -17.436502 -12.270196 50.739288
80 0 1 -16.864202 -12.000696 50.013092
81 0 1 -16.990501 -11.691096 49.092010
82 0 1 -17.165701 -11.672096 48.089905
83 0 1 -16.311602 -11.775597 47.667694
84 0 1 -16.641602 -12.622196 47.562592
85 0 1 -16.668201 -13.378097 47.020508
86 0 1 -17.213202 -13.265296 46.233490
87 0 1 -17.120401 -13.347997 45.221313
88 0 1 -17.702402 -12.631496 45.455902
89 0 1 -17.285402 -11.809396 45.565887
90 0 1 -18.039801 -11.142198 45.415710
91 0 1 -18.107201 -10.201997 45.459900
92 0 1 -17.833200 -9.309297 45.229614
93 0 1 -16.878101 -9.465396 45.291992
94 0 1 -15.939802 -9.498097 45.308105
95 0 1 -15.156702 -9.381097 45.800690
96 0 1 -14.898102 -8.980996 46.637512
97 0 1 -14.700102 -8.290097 47.282104
98 0 1 -13.837801 -8.511996 46.783112
99 0 1 -13.780802 -7.780896 46.151489
100 0 1 -14.429102 -7.135797 45.868713
101 0 1 -13.945303 -6.742106 45.087097
102 0 1 -13.003782 -6.447797 45.049591
103 0 1 -12.284082 -6.972396 45.554993
104 0 1 -11.765451 -7.808297 45.913086
105 0 1 -11.072311 -8.261197 45.388489
106 0 1 -10.848452 -8.507997 44.421204
107 0 1 -11.606062 -9.068496 44.576599
108 0 1 -12.447001 -8.550996 44.874817
109 0 1 -12.606413 -9.510196 44.820007
110 0 1 -13.591600 -9.275096 44.634888
111 0 1 -14.326502 -9.925197 44.523895
112 0 1 -13.745401 -10.678996 44.631287
113 0 1 -13.661802 -11.446095 45.126099
114 0 1 -12.647482 -11.381097 45.290802
115 0 1 -11.716251 -11.367795 45.555298
116 0 1 -11.781893 -12.349297 45.777893
117 0 1 -11.757822 -12.927396 46.641113
118 0 1 -11.508772 -13.541696 47.310211
119 0 1 -10.848883 -14.062896 46.751892
120 0 1 -11.092710 -14.971896 46.685394
121 0 1 -10.556150 -15.158095 45.904999
122 0 1 -9.822342 -15.840196 45.999603
123 0 1 -9.355461 -16.678497 45.881409
124 0 1 -9.247522 -17.623096 45.942902
125 0 1 -10.110781 -17.332598 46.331696
126 0 1 -9.542292 -17.333696 47.095612
127 0 1 -9.769352 -16.545696 47.695892
128 0 1 -9.948532 -15.619697 47.362000
129 0 1 -9.367712 -15.259097 46.708893
130 0 1 -8.901812 -15.027696 47.532898
131 0 1 -8.203722 -14.307897 47.563110
132 0 1 -7.824152 -14.082797 48.424591
133 0 1 -6.920261 -13.712596 48.387390
134 0 1 -6.311471 -14.449897 48.395599
135 0 1 -5.711132 -14.556697 47.676208
136 0 1 -5.855390 -14.316697 46.763611
137 0 1 -6.207811 -13.462596 47.060394
138 0 1 -5.625061 -13.056196 46.420105
139 0 1 -5.246992 -12.107896 46.438110
140 0 1 -5.506851 -12.185596 45.505188
141 0 1 -5.045600 -11.537797 45.027893
142 0 1 -5.175642 -10.720996 44.451904
143 0 1 -5.261892 -11.425397 43.820312
144 0 1 -4.962162 -12.334196 43.684814
145 0 1 -5.718521 -12.381496 43.101288
146 0 1 -5.683351 -11.692096 42.463684
147 0 1 -5.682661 -10.757396 42.885498
148 0 1 -5.072702 -10.068097 43.083191
149 0 1 -4.445920 -9.675595 43.724304
150 0 1 -4.828182 -8.912297 43.343109
151 0 1 -4.192138 -8.284896 43.684601
152 0 1 -3.271763 -8.063897 43.768402
153 0 1 -2.504190 -8.112397 44.277802
154 0 1 -2.697107 -7.208097 44.563507
155 0 1 -3.503305 -6.907376 44.966309
156 0 1 -3.936493 -6.180926 44.498688
157 0 1 -3.526058 -5.397367 44.029907
158 0 1 -3.567556 -4.683026 43.461090
159 0 1 -3.316263 -4.045587 44.110992
160 0 1 -3.773971 -3.542636 43.504303
161 0 1 -2.910839 -3.527047 43.166199
162 0 1 -2.127371 -3.944146 43.457397
163 0 1 -2.379061 -4.459586 42.652802
164 0 1 -2.635574 -3.562207 42.100189
165 0 1 -3.556589 -3.284177 42.262787
166 0 1 -3.686901 -4.227796 41.837311
167 0 1 -3.229236 -4.387027 41.043793
168 0 1 -3.367660 -5.344016 41.131195
169 0 1 -2.949066 -6.227487 41.202087
170 0 1 -2.809835 -5.619237 41.935394
171 0 1 -2.471777 -6.160028 42.577301
172 0 1 -1.727293 -5.751456 42.075287
173 0 1 -1.392221 -5.334546 41.215607
174 0 1 -1.745000 -4.573945 41.619812
175 0 1 -1.994941 -3.928437 40.968109
176 0 1 -2.490400 -3.816146 40.118286
177 0 1 -2.822666 -3.189515 39.416901
178 0 1 -2.469400 -2.257667 39.504700
179 0 1 -3.341434 -1.948907 39.714691
180 0 1 -3.362983 -2.420936 38.858612
181 0 1 -3.567959 -1.519107 38.807983
182 0 1 -2.845398 -1.464727 38.213806
183 0 1 -3.453768 -0.731706 38.080383
184 0 1 -3.249340 -0.115796 37.337891
185 0 1 -3.019434 -0.703946 36.559814
186 0 1 -3.454872 0.109254 36.081207
187 0 1 -4.335472 0.228703 35.736603
188 0 1 -4.533901 -0.457696 34.986816
189 0 1 -4.269058 -0.964126 34.249695
190 0 1 -3.600351 -0.702766 33.570801
191 0 1 -3.674551 -1.482476 33.059601
192 0 1 -3.650890 -2.347036 33.506500
193 0 1 -3.919634 -2.114606 34.412201
194 0 1 -3.889141 -3.030668 34.700195
195 0 1 -4.300722 -3.816297 34.281616
196 0 1 -3.678928 -4.244456 33.669708
197 0 1 -3.398031 -3.645746 32.906403
198 0 1 -2.733318 -2.945657 32.653992
199 0 1 -2.068651 -2.216436 32.566589
200 0 1 -1.563562 -2.572236 31.880188
201 0 1 -0.755472 -2.151635 31.819000
202 0 1 -1.023870 -2.293348 32.741394
203 0 1 -0.879812 -1.518827 33.297089
204 0 1 -1.492773 -1.454076 34.072815
205 0 1 -1.102922 -2.375827 34.062805
206 0 1 -0.792291 -3.090936 33.513092
207 0 1 -0.900171 -3.934057 33.013397
208 0 1 -0.106603 -3.755197 32.552307
209 0 1 0.044447 -4.668107 32.552307
210 0 1 -0.456712 -5.468566 32.490906
211 0 1 -0.449453 -6.438416 32.309113
212 0 1 0.329928 -6.995847 31.960602
213 0 1 0.567629 -7.423696 31.041687
214 0 1 -0.232790 -7.032907 30.630615
215 0 1 -0.990152 -7.398095 31.142700
216 0 1 -1.896772 -7.501496 30.908112
217 0 1 -2.765892 -7.414197 31.461304
218 0 1 -3.096119 -6.561036 31.005188
219 0 1 -3.938635 -6.155046 30.986908
220 0 1 -4.135400 -6.856706 30.310699
221 0 1 -4.607952 -7.457498 29.758789
222 0 1 -5.069730 -7.615996 28.907715
223 0 1 -5.589611 -8.465695 28.592010
224 0 1 -5.926891 -9.170096 28.090607
225 0 1 -6.603471 -9.890296 28.065491
226 0 1 -6.902101 -9.130395 28.676605
227 0 1 -6.929910 -9.168397 29.650787
228 0 1 -7.054971 -10.145196 29.802185
229 0 1 -7.870491 -10.693295 29.753601
230 0 1 -7.510841 -11.647596 29.837708
231 0 1 -7.645921 -11.631796 28.885986
232 0 1 -7.545101 -12.541596 28.596191
233 0 1 -7.249351 -13.236695 29.214691
234 0 1 -7.069412 -13.897397 28.549713
235 0 1 -6.323461 -13.504096 28.010010
236 0 1 -6.007242 -13.665397 27.129608
237 0 1 -5.087162 -13.660195 26.896698
238 0 1 -4.406890 -12.990196 27.064697
239 0 1 -3.963844 -13.336495 26.275208
240 0 1 -4.525060 -13.832295 25.690094
241 0 1 -4.999200 -14.582597 25.619598
242 0 1 -4.767231 -14.968396 26.437012
243 0 1 -5.652742 -15.285396 26.483215
244 0 1 -6.582872 -15.235295 26.279694
245 0 1 -7.221351 -15.364596 25.539703
246 0 1 -7.704542 -15.933196 26.167999
247 0 1 -8.405571 -16.169697 25.577087
248 0 1 -9.037521 -17.018698 25.579407
249 0 1 -9.729252 -17.479797 26.082489
250 0 1 -10.571701 -17.312897 25.601410
251 0 1 -10.195230 -16.473597 26.133392
252 0 1 -10.004751 -16.557096 27.100708
253 0 1 -10.743502 -17.145397 27.397308
254 0 1 -10.642851 -17.941498 26.823914
255 0 1 -9.762632 -17.880198 27.214294
256 0 1 -9.531921 -18.470497 26.500488
257 0 1 -9.502951 -19.416798 26.407990
258 0 1 -9.032631 -19.761698 25.694305
259 0 1 -8.255590 -19.736097 26.234497
260 0 1 -7.874040 -19.068598 25.690308
261 0 1 -7.392911 -18.282198 25.330292
262 0 1 -7.489141 -18.218897 24.344788
263 0 1 -7.019302 -17.421497 24.161804
264 0 1 -6.214111 -17.568996 24.701904
265 0 1 -5.397340 -18.068497 24.569794
266 0 1 -4.470851 -17.863197 24.717987
267 0 1 -4.082721 -17.506298 23.926605
268 0 1 -3.302023 -17.158398 23.493591
269 0 1 -2.288582 -17.401398 23.327301
270 0 1 -1.691610 -17.255598 24.002991
271 0 1 -1.665521 -18.178698 24.197693
272 0 1 -1.090803 -17.855297 24.956512
273 0 1 -0.732141 -17.838097 25.882111
274 0 1 -0.800211 -18.562597 26.491089
275 0 1 0.040320 -19.086397 26.339508
276 0 1 0.576910 -18.449497 25.826202
277 0 1 0.696169 -17.722696 25.203400
278 0 1 0.334448 -16.880997 24.980804
279 0 1 0.091418 -16.414797 24.059906
280 0 1 -0.360502 -17.220398 23.638000
281 0 1 -0.186262 -18.072798 23.282593
282 0 1 -0.071470 -18.983498 23.502197
283 0 1 0.573901 -19.650497 23.872589
284 0 1 0.776797 -20.101896 24.666016
285 0 1 1.111330 -20.355997 25.544708
286 0 1 2.098307 -20.110697 25.667511
287 0 1 1.713717 -19.480198 26.256012
288 0 1 1.610480 -18.628597 25.778992
289 0 1 2.212279 -18.181297 26.407898
290 0 1 2.983160 -17.762497 26.410889
291 0 1 2.833239 -16.768898 26.443512
292 0 1 2.440867 -17.127197 25.684387
293 0 1 1.990198 -16.287897 25.776886
294 0 1 1.259409 -16.044497 25.182312
295 0 1 1.852648 -15.717996 24.444489
296 0 1 1.580519 -14.734496 24.492401
297 0 1 1.729548 -13.808396 24.678589
298 0 1 1.936098 -13.609496 23.772888
299 0 1 1.793379 -13.448096 22.852600
300 0 1 2.620230 -13.517797 22.401596
301 0 1 3.068739 -14.079396 21.755402
302 0 1 3.355120 -14.375196 22.606201
303 0 1 3.451060 -14.693696 23.496704
304 0 1 4.413699 -14.554196 23.690002
305 0 1 4.931700 -13.712596 24.072510
306 0 1 4.997149 -12.911097 24.612213
307 0 1 4.575140 -12.679796 23.802002
308 0 1 4.045908 -11.872497 23.749390
309 0 1 3.207979 -11.574096 24.029694
310 0 1 2.611387 -11.242696 24.664093
311 0 1 3.090677 -10.440797 24.388489
312 0 1 2.776037 -10.419396 25.325714
313 0 1 2.125651 -9.927197 24.768188
314 0 1 2.671488 -9.136697 24.705109
315 0 1 2.975050 -8.599595 25.460693
316 0 1 3.790377 -8.968196 25.511108
317 0 1 4.092837 -8.961698 26.430786
318 0 1 4.134791 -9.856297 26.799500
319 0 1 3.915308 -10.681497 26.399597
320 0 1 3.675719 -11.620296 26.099487
321 0 1 4.624228 -11.859197 25.912201
322 0 1 5.474238 -11.372996 25.989899
323 0 1 6.276228 -11.332997 26.663300
324 0 1 6.761000 -11.198997 25.787506
325 0 1 6.592848 -10.823297 24.861389
326 0 1 7.006598 -9.973897 24.694611
327 0 1 6.371378 -10.043195 23.949188
328 0 1 5.644907 -9.724298 23.324005
329 0 1 6.414298 -10.029996 22.818207
330 0 1 6.337718 -10.553296 22.001892
331 0 1 5.801009 -10.231397 21.274506
332 0 1 5.199290 -9.575896 20.877106
333 0 1 4.468169 -9.016297 21.224304
334 0 1 3.895399 -8.282395 20.945007
335 0 1 2.989798 -8.313596 21.263199
336 0 1 2.501948 -7.622996 20.850494
337 0 1 1.839529 -6.861577 20.731598
338 0 1 1.307810 -6.163327 20.419708
339 0 1 1.587218 -5.378106 20.888596
340 0 1 1.768420 -4.473447 20.592407
341 0 1 1.269961 -3.718107 20.956406
342 0 1 1.364828 -2.763875 21.251297
343 0 1 0.693339 -2.497506 21.924408
344 0 1 0.088999 -2.124437 21.173203
345 0 1 0.132120 -1.511037 21.906296
346 0 1 0.185419 -0.526616 21.729095
347 0 1 1.083479 -0.448976 21.586197
348 0 1 1.248099 0.077844 20.745804
349 0 1 1.930750 0.712174 20.568893
350 0 1 2.601908 0.465644 19.852203
351 0 1 1.778120 -0.023456 19.634903
352 0 1 1.118258 -0.676166 19.604996
353 0 1 0.369318 -0.245586 20.013596
354 0 1 -0.277773 0.053643 19.366394
355 0 1 -0.546632 -0.576287 18.645508
356 0 1 -1.380670 -0.083776 18.657394
357 0 1 -1.106092 0.568774 18.019302
358 0 1 -1.718202 1.008393 17.532898
359 0 1 -1.274801 1.278733 16.750305
360 0 1 -1.185953 1.422713 15.768493
361 0 1 -2.154911 1.445384 15.809600
362 0 1 -1.806020 2.301417 15.808806
363 0 1 -2.457594 2.961119 15.806899
364 0 1 -3.266052 3.222905 15.402099
365 0 1 -4.157127 3.341674 14.907592
366 0 1 -4.509912 4.189914 14.820495
367 0 1 -3.539469 4.265424 14.885604
368 0 1 -3.437601 5.194175 14.517898
369 0 1 -3.056711 5.917476 15.111693
370 0 1 -3.317518 5.686152 16.017197
371 0 1 -4.044525 5.161426 15.633193
372 0 1 -4.677541 5.230685 16.339508
373 0 1 -4.680542 4.303964 15.956695
374 0 1 -4.189889 3.791701 16.604294
375 0 1 -3.657648 4.256154 16.000793
376 0 1 -3.448086 4.875274 16.720703
377 0 1 -2.573448 4.806125 17.118103
378 0 1 -2.204141 5.071864 17.930908
379 0 1 -1.423299 5.659286 17.810898
380 0 1 -2.113411 6.297774 18.170502
381 0 1 -2.350591 7.085402 17.741501
382 0 1 -1.619402 7.672984 17.655502
383 0 1 -1.091890 6.909415 17.493500
384 0 1 -0.136022 7.100074 17.556305
385 0 1 0.591429 7.543216 17.995605
386 0 1 0.439410 7.492373 18.943405
387 0 1 1.335848 7.758124 18.890594
388 0 1 2.154307 7.453784 18.464706
389 0 1 1.753477 6.912154 17.777100
390 0 1 2.492419 6.337283 17.436798
391 0 1 3.406000 6.442103 17.285400
392 0 1 3.907168 6.968112 17.968704
393 0 1 4.287829 7.665614 17.480804
394 0 1 3.465609 7.975566 17.044495
395 0 1 3.232588 8.666064 17.727005
396 0 1 3.871699 9.321403 17.506592
397 0 1 3.604239 10.077704 18.065994
398 0 1 4.484900 10.027255 17.695801
399 0 1 4.275561 10.936763 17.789795
400 0 1 4.669928 10.828372 16.968704
401 0 1 4.536849 11.682635 16.561005
402 0 1 5.082778 11.705363 17.401794
403 0 1 5.851939 11.940593 16.856598
404 0 1 6.773699 11.615504 16.913101
405 0 1 6.845099 11.983142 17.846100
406 0 1 6.781100 12.791392 17.320099
407 0 1 6.177550 13.051906 16.605408
408 0 1 7.025298 13.396106 16.171799
409 0 1 7.957900 13.370704 16.404907
410 0 1 8.263399 13.820403 17.238297
411 0 1 8.194998 14.738303 17.046692
412 0 1 8.032698 14.940803 18.110992
413 0 1 8.527998 15.078704 18.976700
414 0 1 9.494097 15.385203 18.900604
415 0 1 9.604998 16.272802 18.637207
416 0 1 8.633398 16.168203 19.025101
417 0 1 8.962500 15.895404 19.892105
418 0 1 8.161200 15.863902 20.477295
419 0 1 7.898600 15.354705 21.254105
420 0 1 8.029596 16.260805 21.507202
421 0 1 7.821700 16.677401 22.410995
422 0 1 8.233999 17.556101 22.512604
423 0 1 8.277399 18.488302 22.557098
424 0 1 7.444697 18.951403 22.561096
425 0 1 7.723898 19.745703 22.994690
426 0 1 8.270800 20.438601 23.583313
427 0 1 7.440398 20.000704 23.897095
428 0 1 6.872099 20.459604 24.492004
429 0 1 7.199000 21.233904 24.130005
430 0 1 7.812399 21.682100 24.690796
431 0 1 7.143298 21.632502 25.359009
432 0 1 7.365199 21.695402 26.361084
433 0 1 7.893198 21.994905 27.048492
434 0 1 8.787798 22.427805 27.121613
435 0 1 8.526499 22.841204 27.915009
436 0 1 9.217299 23.573900 27.896606
437 0 1 9.121199 24.287104 28.472198
438 0 1 8.392199 24.967802 28.414490
439 0 1 8.239199 24.302103 29.117401
440 0 1 7.641299 23.776003 29.606598
441 0 1 7.144400 23.754503 30.406494
442 0 1 7.168299 23.135805 31.159607
443 0 1 6.470667 22.598505 31.523010
444 0 1 6.750098 21.740305 31.117798
445 0 1 7.272898 21.053904 31.508484
446 0 1 7.707301 21.525602 32.279785
447 0 1 6.824000 21.778605 32.114807
448 0 1 6.157950 21.813803 32.845795
449 0 1 6.163260 21.618303 33.799103
450 0 1 7.002200 21.911600 34.101013
451 0 1 7.178999 22.019003 35.097504
452 0 1 7.147601 21.359903 35.806091
453 0 1 7.554598 20.573702 35.394989
454 0 1 6.887499 20.027803 35.756989
455 0 1 6.094531 19.622904 35.480194
456 0 1 6.107459 19.325304 36.423798
457 0 1 5.815951 19.493303 37.309998
458 0 1 6.686099 19.540403 37.768799
459 0 1 7.176898 20.317404 38.009003
460 0 1 7.841498 20.297403 37.308807
461 0 1 8.358698 19.580400 37.652802
462 0 1 9.057299 19.121603 37.172211
463 0 1 9.214197 18.192904 36.905396
464 0 1 9.778498 18.063902 37.683105
465 0 1 9.551199 17.169504 37.625305
466 0 1 9.627600 16.630701 36.783691
467 0 1 10.011599 17.346003 36.178284
468 0 1 10.638597 16.878702 35.638916
469 0 1 11.230497 16.959803 36.343506
470 0 1 10.946596 16.223803 36.866516
471 0 1 11.146196 16.646402 37.674713
472 0 1 11.339598 16.634104 38.636505
473 0 1 11.758200 15.745906 38.427795
474 0 1 12.231798 16.228701 39.179901
475 0 1 11.990797 16.915804 39.764313
476 0 1 11.098700 16.486803 39.826111
477 0 1 10.252897 16.787004 40.221313
478 0 1 9.713198 17.047503 40.979095
479 0 1 9.790098 16.697603 41.827911
480 0 1 8.850599 16.729704 42.124390
481 0 1 8.188601 16.303102 41.536011
482 0 1 7.256400 16.341604 41.227112
483 0 1 7.224398 15.633105 40.551514
484 0 1 7.068400 14.924106 41.158508
485 0 1 6.290209 14.372905 40.881897
486 0 1 6.960101 13.948604 41.476807
487 0 1 7.238200 13.243705 40.934296
488 0 1 6.744898 12.498355 40.543793
489 0 1 6.048308 11.881194 40.445984
490 0 1 6.673098 11.124763 40.482300
491 0 1 7.395598 10.636405 40.800995
492 0 1 8.080797 11.280215 40.990112
493 0 1 8.715300 11.624694 41.647400
494 0 1 8.547400 12.242274 40.813599
495 0 1 9.225000 12.279872 40.208710
496 0 1 9.001398 12.391273 39.250702
497 0 1 8.716398 12.302936 38.280884
498 0 1 8.748301 12.316573 37.325409
499 0 1 8.037298 12.485755 36.732605
500 0 1 8.511297 13.361903 36.569214
501 0 1 7.549098 13.571704 36.563110
502 0 1 7.316798 13.751101 35.649200
503 0 1 6.534678 14.156505 36.001007
504 0 1 6.481688 13.928905 35.067200
505 0 1 5.524539 13.907405 35.217194
506 0 1 5.071467 14.467303 34.662415
507 0 1 5.799387 15.044105 34.383392
508 0 1 6.463137 15.615504 34.044983
509 0 1 7.258700 15.780002 33.468903
510 0 1 7.230498 14.833903 33.070007
511 0 1 7.126700 15.461902 32.352203
512 0 1 7.453398 14.633704 31.895691
513 0 1 7.272799 13.796203 31.404114
514 0 1 7.965098 13.293002 31.044800
515 0 1 7.338698 13.025104 30.317993
516 0 1 6.574378 12.376525 30.297302
517 0 1 6.065299 11.948794 29.598907
518 0 1 5.859328 11.509562 28.815186
519 0 1 5.394770 10.893542 28.106598
520 0 1 5.050730 11.775165 28.270691
521 0 1 4.371737 11.467174 28.788208
522 0 1 3.932089 11.198104 27.997498
523 0 1 3.629359 11.330615 27.054688
524 0 1 3.476198 11.888202 26.283203
525 0 1 2.920950 11.695575 25.437592
526 0 1 3.222319 10.745852 25.209808
527 0 1 2.333857 10.234912 25.381287
528 0 1 1.805479 10.321464 24.561401
529 0 1 1.429598 9.503406 25.005188
530 0 1 1.625750 9.323726 25.929199
531 0 1 2.116778 8.968993 26.661987
532 0 1 1.571558 8.267154 27.036713
533 0 1 0.991221 8.738235 26.461792
534 0 1 0.272047 8.405635 25.932190
535 0 1 -0.564592 7.859714 25.834412
536 0 1 -1.110033 8.263213 26.482086
537 0 1 -2.065481 8.097953 26.399506
538 0 1 -2.235611 7.383285 25.785614
539 0 1 -1.883890 7.503943 24.832886
540 0 1 -2.078851 6.592162 24.587311
541 0 1 -2.281181 6.228595 23.671814
542 0 1 -2.460195 5.697883 22.911987
543 0 1 -1.597440 5.556354 22.322906
544 0 1 -1.742563 5.129695 21.475098
545 0 1 -2.300621 5.844985 21.247101
546 0 1 -2.925581 6.337344 21.744095
547 0 1 -3.616998 6.916034 22.168198
548 0 1 -2.840982 7.547973 22.227600
549 0 1 -2.327902 8.381522 22.337402
550 0 1 -1.954412 9.234344 22.669403
551 0 1 -1.288671 9.458003 23.308899
552 0 1 -1.212110 10.262256 23.766785
553 0 1 -0.883753 9.648334 24.444794
554 0 1 -0.318891 9.002833 23.988800
555 0 1 0.384428 8.929084 24.656616
556 0 1 1.100920 8.434684 24.233490
557 0 1 1.405711 7.615325 23.827698
558 0 1 2.287169 7.769114 23.517914
559 0 1 2.426459 7.139682 24.210907
560 0 1 1.998610 6.689635 25.004791
561 0 1 2.766310 6.397792 25.367798
562 0 1 2.945757 7.376235 25.531708
563 0 1 3.213728 7.207194 26.425110
564 0 1 3.687838 6.379054 26.675201
565 0 1 4.601130 6.403193 26.385315
566 0 1 5.058280 5.583552 26.650085
567 0 1 6.004847 5.465785 26.692993
568 0 1 6.021227 5.186175 27.633087
569 0 1 6.595198 5.640433 28.364685
570 0 1 6.935397 5.850993 29.247101
571 0 1 6.366641 5.007503 29.333893
572 0 1 6.699397 5.211413 30.187103
573 0 1 6.525588 4.224374 30.404694
574 0 1 6.489748 3.547293 29.719513
575 0 1 6.348429 3.405949 28.796997
576 0 1 5.705389 3.885403 28.332794
577 0 1 5.019419 3.999943 27.694611
578 0 1 4.314349 3.419497 27.977692
579 0 1 3.624258 4.081594 28.084991
580 0 1 3.592631 4.081794 29.036987
581 0 1 4.318800 3.472241 29.351013
582 0 1 4.133280 2.656865 28.680511
583 0 1 4.319628 1.739144 28.908112
584 0 1 3.978518 1.211514 28.147705
585 0 1 3.608858 0.301904 28.263611
586 0 1 3.910097 -0.443267 28.864410
587 0 1 3.104750 -0.818006 28.400787
588 0 1 2.992789 -1.387607 27.600189
589 0 1 3.340479 -2.124627 27.026489
590 0 1 4.152987 -2.033777 26.539398
591 0 1 3.624987 -1.697356 25.729614
592 0 1 3.977499 -0.849836 25.542908
593 0 1 4.282000 -0.144687 26.098694
594 0 1 3.931700 0.749194 25.903687
595 0 1 4.774298 0.917844 25.441895
596 0 1 5.285719 0.238904 24.963104
597 0 1 6.162409 0.233783 24.487396
598 0 1 5.514498 0.721673 23.944489
599 0 1 4.940661 0.733344 23.169708
600 0 1 4.186808 0.187804 23.527100
601 0 1 3.995928 -0.744546 23.199188
602 0 1 3.056238 -0.715047 23.230011
603 0 1 2.276057 -0.712476 23.756989
604 0 1 2.123648 0.019454 24.357086
605 0 1 2.176478 -0.261886 25.249298
606 0 1 1.515597 -0.811816 25.687103
607 0 1 1.410151 -0.852876 26.655396
608 0 1 1.325961 -0.683046 27.574097
609 0 1 1.876337 -1.309186 27.945099
610 0 1 1.545409 -2.120866 27.545105
611 0 1 1.314330 -3.003177 27.055695
612 0 1 1.147890 -3.917287 26.691101
613 0 1 1.965861 -3.587026 26.398987
614 0 1 2.797129 -4.107116 26.535187
615 0 1 2.777670 -5.098027 26.661896
616 0 1 2.662138 -5.595576 25.822693
617 0 1 2.335078 -4.656386 25.765900
618 0 1 1.715300 -4.416556 25.126801
619 0 1 0.954867 -4.445027 24.595306
620 0 1 0.987398 -4.781716 23.722290
621 0 1 1.287127 -4.760045 22.820190
622 0 1 0.598570 -4.014047 22.819702
623 0 1 0.130930 -4.831546 22.751587
624 0 1 -0.833582 -4.947896 22.948212
625 0 1 -1.379690 -5.775086 22.655396
626 0 1 -2.086181 -6.303727 22.436096
627 0 1 -2.259731 -7.101796 22.934113
628 0 1 -3.004417 -7.293195 22.360596
629 0 1 -3.400358 -6.553967 22.722687
630 0 1 -4.113758 -6.739427 23.357788
631 0 1 -3.389667 -6.318446 23.760712
632 0 1 -3.052118 -7.183597 23.998810
633 0 1 -3.589874 -7.730296 23.438812
634 0 1 -3.832031 -8.403596 24.150696
635 0 1 -3.779514 -9.120095 23.461090
636 0 1 -2.989490 -9.102996 22.887695
637 0 1 -3.775768 -9.391297 22.423004
638 0 1 -3.661871 -10.312797 22.102798
639 0 1 -3.514839 -11.108296 22.547699
640 0 1 -4.487861 -11.071296 22.298294
641 0 1 -5.081121 -11.166896 21.493195
642 0 1 -5.589662 -11.970797 21.769897
643 0 1 -6.356472 -12.272596 22.312592
644 0 1 -7.005472 -12.950096 22.332901
645 0 1 -7.339891 -12.491796 23.102295
646 0 1 -7.977590 -11.795897 23.076294
647 0 1 -8.222181 -10.813996 22.991302
648 0 1 -7.775161 -10.523297 22.212006
649 0 1 -7.441211 -10.176995 21.352798
650 0 1 -6.704622 -10.041997 20.721695
651 0 1 -6.824562 -10.892896 20.311996
652 0 1 -6.976282 -11.060996 19.346100
653 0 1 -7.498111 -11.777596 18.921600
654 0 1 -7.593961 -12.483996 18.311005
655 0 1 -7.533792 -13.360597 18.565994
656 0 1 -7.425151 -14.241897 18.687195
657 0 1 -7.254011 -14.470296 19.663406
658 0 1 -7.713911 -14.810397 20.457504
659 0 1 -7.376211 -15.667895 20.359497
660 0 1 -7.891962 -16.382498 19.957504
661 0 1 -7.271242 -15.919995 19.386292
662 0 1 -6.703781 -16.700598 19.244705
663 0 1 -6.473670 -16.797598 18.311996
664 0 1 -6.496511 -17.700098 17.843506
665 0 1 -6.332172 -17.587397 16.885193
666 0 1 -7.124700 -18.130398 16.746704
667 0 1 -7.198331 -18.779898 17.435501
668 0 1 -7.195112 -19.264597 16.625504
669 0 1 -6.969190 -20.212797 16.813004
670 0 1 -7.101661 -21.156298 17.044800
671 0 1 -6.368951 -21.677097 17.252304
672 0 1 -6.541221 -22.414497 16.534698
673 0 1 -6.353832 -21.610598 16.028000
674 0 1 -7.122961 -21.188498 15.645003
675 0 1 -7.798551 -20.530598 15.455306
676 0 1 -8.432753 -20.313698 16.177094
677 0 1 -8.553791 -19.399197 16.262604
678 0 1 -9.257872 -18.853996 15.844604
679 0 1 -10.016182 -18.383898 15.485991
680 0 1 -9.372271 -18.375196 14.778594
681 0 1 -10.135551 -17.747297 14.693404
682 0 1 -10.055002 -16.754396 15.024795
683 0 1 -9.125021 -16.758297 15.233993
684 0 1 -8.221561 -16.469196 15.301299
685 0 1 -8.540352 -15.885196 14.612105
686 0 1 -9.101152 -16.095097 13.844405
687 0 1 -8.323351 -16.307596 13.220901
688 0 1 -7.649442 -16.943897 13.567397
689 0 1 -7.547391 -17.430298 14.439498
690 0 1 -6.805591 -17.947798 14.089797
691 0 1 -6.675182 -18.391598 13.247603
692 0 1 -6.442941 -19.335096 12.951797
693 0 1 -5.600391 -18.893597 12.727401
694 0 1 -5.059131 -19.639196 12.644591
695 0 1 -4.269836 -19.981598 12.268004
696 0 1 -3.367038 -20.307198 12.240691
697 0 1 -3.340769 -19.709396 11.507705
698 0 1 -3.060671 -19.227596 10.674605
699 0 1 -3.541681 -18.521597 10.263091
700 0 1 -4.167539 -19.150997 9.957168
701 0 1 -4.850122 -19.849497 9.866500
702 0 1 -5.458101 -20.488297 9.485946
703 0 1 -5.971431 -20.530497 8.638900
704 0 1 -6.299671 -21.380497 8.401763
705 0 1 -5.565351 -21.980198 8.541717
706 0 1 -6.370950 -22.189198 9.068954
707 0 1 -6.645452 -21.266697 9.374557
708 0 1 -6.192352 -21.389597 10.154403
709 0 1 -5.873922 -21.846098 10.882598
710 0 1 -6.764452 -21.635897 11.104705
711 0 1 -6.624332 -22.383596 10.461898
712 0 1 -7.206941 -23.085598 10.292998
713 0 1 -7.630811 -23.728598 10.792403
714 0 1 -8.328251 -23.832098 10.165694
715 0 1 -8.863993 -23.187998 9.713195
716 0 1 -9.512371 -22.531097 9.961226
717 0 1 -9.290491 -22.392097 9.054366
718 0 1 -8.317322 -22.356197 9.081222
719 0 1 -8.722902 -22.749697 8.318755
720 0 1 -8.987261 -22.605797 7.413635
721 0 1 -9.532732 -22.058296 7.922195
722 0 1 -10.408010 -22.346996 7.561004
723 0 1 -11.260082 -22.054398 7.226669
724 0 1 -10.423071 -21.451998 7.064468
725 0 1 -11.105711 -21.057096 7.568710
726 0 1 -11.199553 -20.567997 6.701080
727 0 1 -11.836031 -20.399097 7.434844
728 0 1 -12.614573 -19.707697 7.132980
729 0 1 -12.729061 -18.716396 7.001800
730 0 1 -12.459482 -18.995897 7.871612
731 0 1 -11.572311 -18.545498 7.745529
732 0 1 -10.919371 -18.393898 8.438430
733 0 1 -11.105152 -17.774998 9.157943
734 0 1 -10.273232 -17.413097 9.393264
735 0 1 -9.526602 -17.962797 8.924987
736 0 1 -8.929031 -18.519096 8.420287
737 0 1 -8.894831 -19.205097 7.682174
738 0 1 -8.943872 -18.443598 7.072494
739 0 1 -9.348101 -17.599598 7.209335
740 0 1 -9.273811 -16.890297 7.753128
741 0 1 -9.452791 -16.658997 8.686873
742 0 1 -8.608942 -16.194498 8.915084
743 0 1 -7.719362 -16.554497 8.884887
744 0 1 -7.351341 -16.121397 8.124907
745 0 1 -7.255302 -16.677896 7.264617
746 0 1 -7.322521 -17.589296 6.934066
747 0 1 -8.302111 -17.805798 6.600265
748 0 1 -7.695911 -18.259197 5.976470
749 0 1 -7.245121 -19.095997 5.783523
750 0 1 -8.083731 -19.354998 5.505371
751 0 1 -8.250563 -19.654398 6.379409
752 0 1 -7.638502 -20.470797 6.543334
753 0 1 -7.440801 -21.351997 6.117157
754 0 1 -7.174011 -21.350697 5.219253
755 0 1 -6.994010 -21.614397 4.331161
756 0 1 -6.216812 -22.199697 4.136215
757 0 1 -6.142332 -23.040997 4.505737
758 0 1 -5.169811 -23.052696 4.646484
759 0 1 -5.294900 -23.998997 4.787765
760 0 1 -4.760770 -23.824297 4.023574
761 0 1 -4.269897 -24.040497 3.203414
762 0 1 -3.685560 -23.473597 3.802352
763 0 1 -3.914593 -22.929398 2.965896
764 0 1 -4.370822 -22.331398 3.603256
765 0 1 -4.397312 -21.787098 2.794311
766 0 1 -4.062873 -21.966198 1.889236
767 0 1 -3.516268 -22.528597 1.422759
768 0 1 -3.016954 -22.511597 2.344848
769 0 1 -2.503818 -22.187298 1.586624
770 0 1 -3.021753 -21.690697 0.930160
771 0 1 -3.790945 -21.158096 1.305908
772 0 1 -3.870003 -21.003897 2.294525
773 0 1 -3.898666 -20.187098 1.891143
774 0 1 -3.300985 -19.379498 1.761520
775 0 1 -3.113798 -18.592697 1.274780
776 0 1 -3.717220 -18.048098 1.865814
777 0 1 -4.346246 -18.035498 1.158157
778 0 1 -3.466627 -17.676098 0.909652
779 0 1 -2.659939 -17.641996 1.584487
780 0 1 -2.698461 -17.260098 2.453964
781 0 1 -2.475551 -17.889297 3.106430
782 0 1 -1.734052 -18.422697 3.298278