LAMMPS data file via MDAnalysis

        2000  atoms
        1999  bonds
           0  angles
           0  dihedrals
           0  impropers

           1  atom types
           1  bond types
           0  angle types
           0  dihedral types
           0  improper types

-30.5 30.5 xlo xhi
-30.5 30.5 ylo yhi
-233.5 233.5 zlo zhi


Masses

1 1.000000

Atoms

1 0 1 6.834855 1.976216 98.040894
2 0 1 7.310627 1.161877 97.800293
3 0 1 7.619236 1.669385 96.930298
4 0 1 7.979565 0.758755 96.923401
5 0 1 7.865227 0.088635 96.257202
6 0 1 8.263885 0.418977 95.374817
7 0 1 8.010548 0.963986 94.664490
8 0 1 7.042855 0.852124 94.556213
9 0 1 6.691494 1.190026 93.696503
10 0 1 6.372715 1.005444 92.727112
11 0 1 6.084477 1.753625 92.159210
12 0 1 5.280884 1.186696 92.159607
13 0 1 4.668217 0.546925 91.836304
14 0 1 4.582345 0.905415 90.957489
15 0 1 3.735947 0.845895 91.301208
16 0 1 3.619557 1.426854 92.072296
17 0 1 3.580857 2.092114 91.350311
18 0 1 4.151017 2.845025 91.508484
19 0 1 4.896557 2.769887 90.811218
20 0 1 4.347966 3.009797 90.073914
21 0 1 3.901825 2.206586 89.675690
22 0 1 3.306218 1.864815 90.339508
23 0 1 2.665150 1.156964 90.490112
24 0 1 2.042790 1.972127 90.561493
25 0 1 1.224995 1.530396 90.365204
26 0 1 0.908905 1.404637 91.251282
27 0 1 0.999674 2.425027 91.117096
28 0 1 0.814913 3.199036 90.630890
29 0 1 1.452381 3.573205 91.268982
30 0 1 0.651816 4.018785 91.323181
31 0 1 0.015356 3.324555 91.434296
32 0 1 -0.186384 3.273515 92.479492
33 0 1 -0.204164 3.987553 93.134399
34 0 1 -0.066925 4.719556 93.868195
35 0 1 -0.359943 5.621396 94.107391
36 0 1 0.491496 5.444535 94.494904
37 0 1 0.060486 6.004064 95.123810
38 0 1 -0.212524 5.369306 95.849609
39 0 1 0.311436 4.774335 95.328400
40 0 1 0.012625 4.497895 96.232910
41 0 1 0.421727 5.173085 96.786804
42 0 1 1.107380 5.443437 96.233093
43 0 1 1.926617 5.066346 96.569397
44 0 1 2.546389 5.754987 96.534607
45 0 1 3.327836 5.270226 96.813782
46 0 1 4.225518 5.436524 96.384003
47 0 1 5.157845 5.840756 96.244507
48 0 1 4.957306 6.802983 96.251801
49 0 1 5.889336 6.953786 95.757111
50 0 1 6.652478 7.148187 96.218597
51 0 1 7.204545 7.315385 95.455200
52 0 1 7.269227 6.361787 95.057983
53 0 1 7.467885 5.876004 95.802612
54 0 1 8.224957 6.035527 96.440308
55 0 1 8.362354 6.115087 95.469604
56 0 1 8.928337 5.645474 94.899414
57 0 1 9.296787 6.337785 94.329193
58 0 1 10.081585 6.763886 94.815094
59 0 1 9.940575 6.721185 95.752197
60 0 1 9.547935 5.896214 96.112183
61 0 1 10.269497 5.268384 96.179291
62 0 1 10.278095 4.490655 96.735992
63 0 1 11.026615 4.610837 97.301392
64 0 1 11.747437 5.269486 97.433716
65 0 1 12.185837 5.160836 96.582092
66 0 1 11.843334 4.931874 95.705017
67 0 1 12.649136 5.243096 95.313202
68 0 1 13.409737 5.694745 95.560699
69 0 1 13.000637 6.026288 94.778687
70 0 1 13.895237 6.348886 94.844696
71 0 1 14.144836 6.531686 93.897705
72 0 1 14.524334 5.593823 93.873901
73 0 1 14.691135 5.285634 93.022400
74 0 1 14.255634 5.816594 92.376587
75 0 1 14.342434 4.817304 92.129395
76 0 1 14.251335 4.148328 92.822693
77 0 1 14.163437 4.062104 93.803802
78 0 1 14.925835 3.474225 93.488708
79 0 1 15.812935 3.073506 93.411194
80 0 1 16.414135 3.808934 92.975403
81 0 1 17.369038 3.541314 92.946198
82 0 1 18.235535 3.695115 92.520813
83 0 1 18.967636 3.660374 91.900299
84 0 1 19.411137 2.832177 92.221100
85 0 1 20.009838 2.117326 91.783813
86 0 1 20.009838 1.612595 92.615204
87 0 1 20.632835 1.092084 92.147308
88 0 1 21.392036 1.751817 92.261902
89 0 1 22.254436 1.490166 91.871490
90 0 1 21.618038 0.818925 91.442200
91 0 1 21.482433 0.110474 92.133606
92 0 1 21.097736 -0.734214 91.798706
93 0 1 21.060535 -0.206283 90.950195
94 0 1 21.283237 0.261414 90.119598
95 0 1 22.100735 -0.165435 90.448181
96 0 1 21.995838 -0.089816 89.529419
97 0 1 21.683537 0.193417 88.679596
98 0 1 22.369236 0.775277 88.893311
99 0 1 22.232838 1.634557 89.273987
100 0 1 23.011837 2.122136 89.004883
101 0 1 23.187935 1.764664 88.105103
102 0 1 22.609535 1.085625 87.653290
103 0 1 22.833435 1.763787 86.997894
104 0 1 23.127735 2.572064 86.497894
105 0 1 23.731037 2.789506 85.738892
106 0 1 23.045834 3.363377 85.454803
107 0 1 22.630733 4.236875 85.505096
108 0 1 23.304935 4.597295 84.895508
109 0 1 23.449337 4.999333 85.774506
110 0 1 24.223335 4.366673 85.670593
111 0 1 24.806034 4.265306 84.917206
112 0 1 24.108536 3.641995 84.624817
113 0 1 23.207535 3.520745 84.345306
114 0 1 23.133736 3.542477 83.372101
115 0 1 23.225235 3.251736 82.515015
116 0 1 22.558834 2.551705 82.528595
117 0 1 21.620636 3.059106 82.582489
118 0 1 22.276936 3.628644 82.151703
119 0 1 21.982735 4.205956 82.794708
120 0 1 21.888233 5.026486 83.204803
121 0 1 21.495037 5.807126 83.681702
122 0 1 21.277538 5.775655 82.694092
123 0 1 21.254337 4.792386 82.367981
124 0 1 20.293934 4.906014 82.385010
125 0 1 20.159534 5.787175 81.917999
126 0 1 20.555538 6.018395 81.043091
127 0 1 19.949734 5.682626 80.342712
128 0 1 19.183537 5.152226 80.007019
129 0 1 19.209934 5.995297 79.496796
130 0 1 19.074833 6.908185 79.887604
131 0 1 19.569736 6.784986 80.650085
132 0 1 18.887737 7.488286 80.734802
133 0 1 19.427334 7.610887 81.554016
134 0 1 18.914635 7.656484 82.330109
135 0 1 17.986435 7.665387 82.112000
136 0 1 18.255634 8.540685 81.995209
137 0 1 18.813835 9.294385 82.208191
138 0 1 18.716736 9.072785 83.176819
139 0 1 18.092335 8.313085 83.013489
140 0 1 17.380035 8.845284 82.867493
141 0 1 16.884537 8.056386 82.515594
142 0 1 16.536335 7.839986 81.541992
143 0 1 16.677635 7.088185 80.947693
144 0 1 15.943035 6.589387 80.642517
145 0 1 15.938038 6.843488 79.696991
146 0 1 15.271935 6.421285 79.118713
147 0 1 14.452637 5.999055 79.165802
148 0 1 14.918236 5.162015 78.827087
149 0 1 14.729736 5.628926 78.023895
150 0 1 13.918835 5.308476 77.600311
151 0 1 14.007435 4.723977 78.313904
152 0 1 13.567635 4.704545 79.129517
153 0 1 13.004833 4.298764 79.802399
154 0 1 12.469135 4.405705 80.595703
155 0 1 12.031338 5.045026 81.096008
156 0 1 12.008636 5.624745 81.941193
157 0 1 11.060574 5.762116 81.790710
158 0 1 10.953434 6.568288 81.339996
159 0 1 10.981197 6.028047 80.529907
160 0 1 11.241955 6.228986 79.609802
161 0 1 11.518387 6.913186 80.224792
162 0 1 11.573597 7.329587 79.392609
163 0 1 11.191715 7.912084 78.700104
164 0 1 10.902737 8.332486 77.940918
165 0 1 11.660786 8.678586 77.394897
166 0 1 12.140335 9.363484 76.918091
167 0 1 11.777737 9.257485 76.043518
168 0 1 11.852936 10.075685 75.502686
169 0 1 12.469234 10.633485 75.011200
170 0 1 13.098736 10.056787 75.488495
171 0 1 13.334835 9.313687 74.859497
172 0 1 12.913837 9.774983 74.160797
173 0 1 12.032635 9.593686 74.225311
174 0 1 11.490166 10.322988 74.314392
175 0 1 10.569244 10.471086 74.064911
176 0 1 10.486416 11.088788 74.752014
177 0 1 10.632835 11.610784 75.539185
178 0 1 9.793278 11.861287 75.191284
179 0 1 8.872295 12.011685 75.208099
180 0 1 8.649235 12.360188 76.211700
181 0 1 8.077297 12.315385 77.038818
182 0 1 7.514176 11.731687 76.558899
183 0 1 6.630585 11.454083 76.268799
184 0 1 5.854496 10.967687 75.985809
185 0 1 5.359257 10.250485 76.308990
186 0 1 5.213517 9.882585 75.374817
187 0 1 4.420186 9.464986 75.045197
188 0 1 3.521695 9.499085 74.744995
189 0 1 2.865515 10.090585 75.145599
190 0 1 2.367852 10.355184 74.401398
191 0 1 3.035336 10.397084 73.701782
192 0 1 2.331885 10.935487 73.446503
193 0 1 1.907753 10.127584 73.209991
194 0 1 1.936787 9.843884 72.288818
195 0 1 1.951054 8.849584 72.246002
196 0 1 1.401127 8.922685 73.023682
197 0 1 0.679966 8.376287 72.540497
198 0 1 -0.044344 8.886388 72.201202
199 0 1 0.167656 9.547383 72.916107
200 0 1 -0.551614 10.173585 73.121704
201 0 1 -1.097225 10.025784 73.881287
202 0 1 -1.565645 9.205586 73.680115
203 0 1 -2.386104 8.884084 73.287811
204 0 1 -3.184383 9.451886 73.417206
205 0 1 -3.711105 10.232785 73.297211
206 0 1 -3.761425 11.197286 73.284485
207 0 1 -3.012464 10.998086 73.800110
208 0 1 -2.269125 10.555184 74.162109
209 0 1 -2.025333 11.331388 74.697601
210 0 1 -1.274253 11.707685 74.312897
211 0 1 -1.807535 11.803185 73.542786
212 0 1 -2.339405 11.297086 72.981995
213 0 1 -2.311624 11.311887 72.027710
214 0 1 -3.047115 12.089986 71.898102
215 0 1 -3.207134 11.704083 71.036316
216 0 1 -2.785974 11.131986 70.396210
217 0 1 -3.208423 10.240888 70.487305
218 0 1 -2.290044 10.028485 70.368713
219 0 1 -1.383854 10.337987 70.415192
220 0 1 -0.365163 10.313184 70.155304
221 0 1 -0.610414 11.268987 70.112000
222 0 1 -0.830515 11.751985 69.329285
223 0 1 -1.376344 12.188283 68.651917
224 0 1 -2.013414 12.853887 68.896484
225 0 1 -2.234733 13.789186 68.546600
226 0 1 -2.176624 13.218984 67.806305
227 0 1 -2.900774 13.448785 67.191498
228 0 1 -3.196683 14.183583 66.615784
229 0 1 -3.755224 13.954984 65.813202
230 0 1 -3.948965 12.988786 65.936310
231 0 1 -4.686994 12.350785 66.110992
232 0 1 -5.405384 13.031888 65.997406
233 0 1 -5.182794 13.784886 65.502686
234 0 1 -4.370714 14.268586 65.140289
235 0 1 -3.785545 14.850286 64.700409
236 0 1 -4.298305 15.221585 63.916687
237 0 1 -4.481473 15.549085 63.080688
238 0 1 -3.900783 16.167583 62.710205
239 0 1 -3.615144 15.703385 61.909302
240 0 1 -2.816984 16.268482 61.733887
241 0 1 -2.814193 15.559087 61.082397
242 0 1 -3.265903 15.475888 60.213898
243 0 1 -3.828125 14.665387 59.988495
244 0 1 -4.011693 14.691686 60.939911
245 0 1 -3.165565 14.501088 61.455597
246 0 1 -2.498153 13.811185 61.590302
247 0 1 -1.632925 13.719388 61.169006
248 0 1 -1.262304 13.357488 60.385010
249 0 1 -1.008665 12.550385 59.948792
250 0 1 -1.736704 11.962087 59.494110
251 0 1 -2.015754 11.810685 58.535706
252 0 1 -1.368194 12.553784 58.770386
253 0 1 -1.617204 13.488687 58.766693
254 0 1 -2.248384 14.095883 58.398010
255 0 1 -1.800754 13.586686 57.749512
256 0 1 -2.332035 14.293988 57.358612
257 0 1 -2.595884 14.887784 56.579193
258 0 1 -1.780744 14.553185 56.164398
259 0 1 -1.075575 14.399884 55.486816
260 0 1 -1.845754 14.753583 55.098816
261 0 1 -2.089223 14.355786 54.260406
262 0 1 -2.128324 13.359986 54.393890
263 0 1 -3.084804 13.202588 54.438690
264 0 1 -3.673713 12.484986 53.974792
265 0 1 -4.390504 12.405087 54.639801
266 0 1 -4.233333 12.210088 55.636505
267 0 1 -4.139604 11.232285 55.552887
268 0 1 -3.881244 10.305287 55.679596
269 0 1 -4.143724 9.421185 55.802887
270 0 1 -3.389043 9.265187 56.477295
271 0 1 -2.511114 8.951486 56.583984
272 0 1 -1.927093 9.530385 56.018494
273 0 1 -1.729444 9.701688 55.054108
274 0 1 -1.770303 10.666287 54.792694
275 0 1 -0.854734 10.930184 54.847900
276 0 1 -0.156725 11.112485 55.471313
277 0 1 -0.242023 10.457387 56.278809
278 0 1 0.633767 10.698888 56.562317
279 0 1 1.220898 9.926187 56.551514
280 0 1 1.411913 9.467286 57.393311
281 0 1 2.023152 9.116284 58.069702
282 0 1 2.219910 8.737287 58.898315
283 0 1 2.889395 9.504487 58.696289
284 0 1 3.793225 9.478086 58.787415
285 0 1 3.769658 9.861985 57.839508
286 0 1 4.119515 9.461186 57.017609
287 0 1 3.870457 10.127687 56.392395
288 0 1 4.255627 10.569085 55.670410
289 0 1 5.005745 11.163285 55.489014
290 0 1 5.780587 10.912587 55.000702
291 0 1 5.548275 10.332486 54.180786
292 0 1 6.457844 9.876985 54.390686
293 0 1 6.738827 10.226888 55.229095
294 0 1 7.186116 10.736287 55.953705
295 0 1 6.674237 9.959188 56.335510
296 0 1 6.055157 9.502484 56.950287
297 0 1 5.553345 10.217385 57.355194
298 0 1 5.011155 10.101384 58.143402
299 0 1 5.145405 9.329286 58.667603
300 0 1 5.942215 8.948186 58.292908
301 0 1 6.717144 8.577985 58.827301
302 0 1 7.662407 8.734487 58.847290
303 0 1 8.522778 8.438687 59.013702
304 0 1 9.176586 9.213685 58.946991
305 0 1 9.603077 8.379586 58.689392
306 0 1 9.148376 7.567784 59.129211
307 0 1 8.669815 6.997186 58.506195
308 0 1 8.982994 6.759885 57.659698
309 0 1 9.435017 5.921105 57.362915
310 0 1 9.166214 5.149766 56.805786
311 0 1 9.776707 4.647016 56.308502
312 0 1 10.219025 4.105397 55.644501
313 0 1 9.482784 4.464684 55.153809
314 0 1 8.802753 4.766454 54.568909
315 0 1 9.320877 5.513917 54.616608
316 0 1 8.797047 6.357488 54.519714
317 0 1 8.179367 6.977487 55.007294
318 0 1 7.315495 7.230084 55.367096
319 0 1 6.409005 7.304685 55.632111
320 0 1 6.485455 7.592187 54.725494
321 0 1 6.388287 7.244485 53.896606
322 0 1 6.054856 6.468884 54.343201
323 0 1 5.345894 5.874635 54.203613
324 0 1 5.710015 5.033937 53.851501
325 0 1 5.711266 5.585805 53.065002
326 0 1 4.772274 5.669286 53.279297
327 0 1 3.874615 5.828366 52.779297
328 0 1 3.382805 6.486287 53.345215
329 0 1 3.124716 7.343587 53.687012
330 0 1 3.525177 7.747388 52.937195
331 0 1 3.114617 7.390286 52.145691
332 0 1 2.229153 7.257287 51.867706
333 0 1 2.733016 7.544385 51.076294
334 0 1 2.686850 6.658887 50.899689
335 0 1 2.305451 5.888608 50.268188
336 0 1 1.311270 5.789124 50.052795
337 0 1 0.304686 5.900865 50.305603
338 0 1 -0.738775 5.659616 50.424713
339 0 1 -0.924224 4.939996 51.089111
340 0 1 -1.798133 4.779706 51.444885
341 0 1 -2.203144 3.925717 51.223206
342 0 1 -2.308984 3.225217 51.889709
343 0 1 -1.455944 3.735196 52.112701
344 0 1 -0.466884 3.597405 52.289795
345 0 1 -0.856224 3.666425 53.225311
346 0 1 -0.275434 4.225434 53.832092
347 0 1 0.289256 5.061357 53.956207
348 0 1 0.912676 4.331967 53.803894
349 0 1 0.553526 3.516274 54.171997
350 0 1 0.234927 3.029374 55.010193
351 0 1 -0.312564 3.675824 55.525604
352 0 1 -1.141855 3.399205 55.982910
353 0 1 -1.807394 3.088696 55.252991
354 0 1 -1.002103 2.816273 54.742096
355 0 1 -0.716804 1.989606 55.191284
356 0 1 -0.451124 2.422295 56.026794
357 0 1 0.438687 2.268075 56.405487
358 0 1 0.533606 1.461877 55.850586
359 0 1 1.444083 1.027554 55.692108
360 0 1 1.463507 0.975167 56.684509
361 0 1 1.181980 1.229115 57.551392
362 0 1 0.830086 1.965214 58.013306
363 0 1 1.068564 1.755917 58.934204
364 0 1 1.345133 1.372517 59.726105
365 0 1 0.514555 1.246365 60.242615
366 0 1 0.666247 2.165566 60.320099
367 0 1 0.300967 3.024197 60.023193
368 0 1 1.129389 3.037946 60.539917
369 0 1 1.616032 2.321065 60.852692
370 0 1 2.474913 2.549626 61.223389
371 0 1 2.621287 2.749364 62.076111
372 0 1 3.004736 3.677987 62.100494
373 0 1 3.313626 4.014787 61.235901
374 0 1 3.741837 4.244946 60.401917
375 0 1 2.835267 4.607915 60.527496
376 0 1 2.606612 4.375806 59.609314
377 0 1 3.362736 3.845345 59.432404
378 0 1 3.633217 4.537404 58.862305
379 0 1 3.170287 4.445275 58.005615
380 0 1 3.744015 5.226007 57.924500
381 0 1 3.123166 5.681985 58.563110
382 0 1 3.196616 6.598786 58.340698
383 0 1 2.486779 6.536286 59.027588
384 0 1 1.814471 6.246785 59.689789
385 0 1 2.258807 6.848485 60.314789
386 0 1 2.227637 6.889886 61.299011
387 0 1 3.076127 6.983586 61.772888
388 0 1 3.910187 7.510686 62.008392
389 0 1 4.519707 7.589787 61.239410
390 0 1 5.066887 7.259084 60.493805
391 0 1 5.774777 7.568486 60.987396
392 0 1 6.670495 7.765885 60.563995
393 0 1 6.176594 8.231687 59.915802
394 0 1 6.917946 7.793885 59.534302
395 0 1 6.341244 7.158284 59.088684
396 0 1 6.562897 7.657086 58.343903
397 0 1 7.015667 6.818784 57.999603
398 0 1 7.165726 6.088586 57.313690
399 0 1 6.688866 5.778287 56.451691
400 0 1 5.682816 5.606915 56.337311
401 0 1 6.190808 5.242166 57.066101
402 0 1 6.633046 4.920426 57.844299
403 0 1 6.540555 4.007657 57.466888
404 0 1 6.350514 4.213307 56.507690
405 0 1 6.201386 3.199414 56.472809
406 0 1 6.216275 2.433495 57.092987
407 0 1 6.873227 1.779896 57.440308
408 0 1 6.921746 2.131078 58.342194
409 0 1 6.241238 1.771867 58.955383
410 0 1 6.702374 1.005135 58.570709
411 0 1 5.812397 0.611966 58.398193
412 0 1 5.765915 1.393616 57.787994
413 0 1 5.861744 1.085957 56.876495
414 0 1 5.699585 0.922757 55.931702
415 0 1 5.154065 0.243184 55.519989
416 0 1 4.614136 0.558957 56.255707
417 0 1 3.713295 0.616395 55.898499
418 0 1 2.675683 0.661954 55.899200
419 0 1 2.596871 1.009564 56.772797
420 0 1 2.915495 0.113675 56.685791
421 0 1 2.953625 -0.034736 57.624603
422 0 1 2.643780 -0.955924 57.596985
423 0 1 2.080582 -1.425643 58.196411
424 0 1 1.659802 -2.135066 58.823914
425 0 1 1.544962 -3.139198 58.883484
426 0 1 0.799622 -3.644935 58.504089
427 0 1 1.528967 -3.785066 57.842102
428 0 1 2.295563 -4.287684 58.055298
429 0 1 1.673424 -4.514632 58.827393
430 0 1 0.691286 -4.529172 59.018494
431 0 1 1.165215 -5.333474 59.454285
432 0 1 0.675375 -4.959884 60.217194
433 0 1 1.232149 -4.506377 60.907288
434 0 1 0.696757 -3.865365 60.405609
435 0 1 0.552197 -3.379037 59.555389
436 0 1 -0.353855 -3.528854 59.485596
437 0 1 -1.122755 -3.212163 59.924896
438 0 1 -2.010383 -2.833024 59.877502
439 0 1 -2.524854 -2.022933 59.767700
440 0 1 -2.106414 -1.305534 59.264496
441 0 1 -1.386474 -1.104106 59.891113
442 0 1 -1.923124 -1.591464 60.554993
443 0 1 -2.543474 -1.030406 61.090790
444 0 1 -3.270324 -0.683254 60.625610
445 0 1 -4.014934 -0.684295 59.966705
446 0 1 -4.887825 -0.702514 60.312012
447 0 1 -5.029554 -1.636073 59.969208
448 0 1 -5.967693 -1.378555 60.319794
449 0 1 -6.505554 -0.557513 60.160095
450 0 1 -5.938003 0.032487 59.700897
451 0 1 -5.943754 -0.070495 58.648193
452 0 1 -5.364133 0.734524 58.844391
453 0 1 -6.090494 1.469155 58.461395
454 0 1 -5.448154 2.276696 58.383301
455 0 1 -6.274475 2.724477 58.657806
456 0 1 -6.956375 3.085377 58.082611
457 0 1 -6.746643 2.921326 57.180786
458 0 1 -6.289814 2.631894 56.416504
459 0 1 -5.961555 3.072434 55.609802
460 0 1 -5.284084 2.698167 56.180389
461 0 1 -4.967403 2.658635 55.223389
462 0 1 -4.367923 2.077805 55.659302
463 0 1 -4.418954 2.119107 56.703613
464 0 1 -5.066173 1.623097 57.152802
465 0 1 -4.768203 0.830994 57.570892
466 0 1 -5.412694 0.109597 57.612610
467 0 1 -5.717454 -0.784114 57.693298
468 0 1 -6.516845 -0.195403 57.759094
469 0 1 -7.309345 -0.122936 57.214813
470 0 1 -7.925064 -0.196925 57.943207
471 0 1 -7.389724 0.187054 58.623901
472 0 1 -8.156963 0.089524 59.213409
473 0 1 -7.924095 0.642247 59.958496
474 0 1 -7.296764 1.086674 60.609009
475 0 1 -7.018745 1.781335 60.081604
476 0 1 -8.044155 1.679696 60.059998
477 0 1 -7.899004 2.175927 59.187012
478 0 1 -8.071465 3.137955 59.199707
479 0 1 -8.087904 3.005757 60.153015
480 0 1 -8.300465 3.515866 60.913300
481 0 1 -7.673175 4.119325 61.372314
482 0 1 -7.379564 3.297715 61.754517
483 0 1 -7.893344 2.591035 61.289398
484 0 1 -8.548565 1.840867 61.401794
485 0 1 -8.408066 2.212975 62.259308
486 0 1 -7.757864 2.554204 62.873199
487 0 1 -7.683444 2.063336 63.689392
488 0 1 -8.143623 2.768506 64.269989
489 0 1 -7.943664 3.433224 64.975189
490 0 1 -8.168114 3.949383 65.794983
491 0 1 -8.257755 4.457128 66.561584
492 0 1 -9.087265 4.399175 67.177490
493 0 1 -9.124464 3.880917 68.034302
494 0 1 -9.125965 3.853226 68.963013
495 0 1 -8.579464 4.594815 69.370605
496 0 1 -9.493565 4.750115 69.499512
497 0 1 -10.431364 5.079144 69.658081
498 0 1 -10.083864 4.434815 70.287292
499 0 1 -10.716164 3.752957 70.512695
500 0 1 -11.218563 2.934933 70.252594
501 0 1 -11.616364 2.372956 69.518707
502 0 1 -12.222763 2.570584 68.784119
503 0 1 -11.649565 1.929795 68.297485
504 0 1 -11.920164 1.222985 67.756714
505 0 1 -12.644264 0.552426 67.787506
506 0 1 -13.036264 0.627316 66.874390
507 0 1 -12.089565 0.539746 66.787598
508 0 1 -11.217365 0.375596 67.259888
509 0 1 -11.274765 1.260686 66.981689
510 0 1 -11.675764 1.521386 66.201416
511 0 1 -10.812763 1.222966 65.904999
512 0 1 -10.092665 1.855065 65.640503
513 0 1 -10.256464 1.268277 64.840881
514 0 1 -11.084663 1.035924 64.456909
515 0 1 -10.846066 0.136765 64.494690
516 0 1 -11.746565 0.091904 64.297211
517 0 1 -12.102764 0.295327 65.250092
518 0 1 -11.398766 -0.392665 65.324005
519 0 1 -10.812664 -0.957233 64.835693
520 0 1 -9.951763 -1.251796 65.060913
521 0 1 -9.050964 -1.615306 65.253418
522 0 1 -8.686565 -2.262824 64.661987
523 0 1 -8.779564 -3.203128 64.665894
524 0 1 -9.685965 -3.497640 64.440918
525 0 1 -9.072563 -3.714473 63.671906
526 0 1 -8.473366 -2.992519 63.310089
527 0 1 -8.694065 -3.533885 62.589691
528 0 1 -7.821374 -3.840158 62.157410
529 0 1 -7.235015 -3.159019 61.773102
530 0 1 -6.470354 -2.814464 62.267883
531 0 1 -5.652004 -3.309020 62.359497
532 0 1 -5.933605 -4.138366 61.836212
533 0 1 -6.603195 -4.694325 62.268311
534 0 1 -5.979194 -5.332345 61.757996
535 0 1 -6.658023 -5.347825 61.038208
536 0 1 -6.391735 -6.236424 60.773590
537 0 1 -7.038164 -6.754174 60.313995
538 0 1 -6.560014 -7.256534 60.950684
539 0 1 -6.610805 -7.900615 60.307892
540 0 1 -6.032215 -8.248374 60.955597
541 0 1 -5.302104 -8.151275 60.396484
542 0 1 -5.381664 -7.394944 59.882599
543 0 1 -4.520374 -7.096244 59.649597
544 0 1 -3.621635 -7.301274 59.909607
545 0 1 -3.045753 -6.630874 59.605103
546 0 1 -2.868064 -7.242864 58.871490
547 0 1 -2.323354 -8.113885 58.833801
548 0 1 -1.816944 -7.328074 58.484314
549 0 1 -2.002683 -7.319955 57.574585
550 0 1 -1.877304 -7.392924 56.652405
551 0 1 -2.311985 -7.072783 55.849609
552 0 1 -2.925745 -6.964864 55.149597
553 0 1 -2.084714 -7.026855 54.706299
554 0 1 -1.917425 -7.884734 54.351593
555 0 1 -1.719404 -8.345315 53.477783
556 0 1 -2.385654 -7.630004 53.442200
557 0 1 -3.355955 -7.699145 53.427490
558 0 1 -3.673275 -7.901214 52.508209
559 0 1 -4.236804 -7.460994 51.839691
560 0 1 -4.598533 -7.025434 51.080505
561 0 1 -4.985414 -7.147803 50.221710
562 0 1 -4.810274 -7.462314 49.264313
563 0 1 -5.430595 -8.221873 49.110413
564 0 1 -6.117393 -8.067174 48.400513
565 0 1 -6.903354 -8.087245 49.007385
566 0 1 -7.056873 -8.407884 49.928711
567 0 1 -7.396755 -7.465755 49.934509
568 0 1 -8.206955 -7.014184 49.801208
569 0 1 -8.939865 -6.521174 50.080383
570 0 1 -9.446665 -6.633544 49.221497
571 0 1 -9.913464 -6.092864 48.564911
572 0 1 -10.145264 -5.538875 47.875488
573 0 1 -10.788265 -5.015525 47.460815
574 0 1 -10.877264 -4.810708 46.517303
575 0 1 -10.729565 -5.432075 45.788513
576 0 1 -11.515366 -5.925944 45.806091
577 0 1 -11.867464 -6.595595 45.262085
578 0 1 -11.415363 -6.359014 44.492889
579 0 1 -12.283566 -5.877664 44.475403
580 0 1 -11.701065 -5.045915 44.179901
581 0 1 -11.904465 -5.780824 43.544891
582 0 1 -12.735565 -5.915654 43.014404
583 0 1 -13.308064 -5.925275 43.919708
584 0 1 -13.650165 -6.443704 44.666809
585 0 1 -14.499365 -6.059575 44.572693
586 0 1 -15.292065 -5.562804 44.464508
587 0 1 -14.393564 -5.013164 44.468506
588 0 1 -13.410065 -4.803544 44.437408
589 0 1 -13.219665 -3.808566 44.304993
590 0 1 -12.756865 -3.575317 45.134705
591 0 1 -11.828163 -3.608129 45.023407
592 0 1 -11.843864 -2.658275 44.810089
593 0 1 -12.118263 -2.663015 43.920502
594 0 1 -12.201365 -1.767913 44.234497
595 0 1 -13.031164 -2.283225 44.419983
596 0 1 -13.207564 -1.373763 44.419098
597 0 1 -13.187664 -1.087253 43.499512
598 0 1 -14.102964 -0.683673 43.208588
599 0 1 -14.970865 -0.414325 43.477997
600 0 1 -15.486364 -0.476104 42.677612
601 0 1 -15.542364 -1.152286 42.014587
602 0 1 -14.887564 -0.922466 41.343994
603 0 1 -14.697264 -0.986614 40.299896
604 0 1 -14.563265 -1.798465 39.727692
605 0 1 -15.388664 -1.823066 39.240295
606 0 1 -15.559565 -0.894466 39.187408
607 0 1 -15.006065 -0.135406 39.150085
608 0 1 -14.950764 -0.377155 38.151794
609 0 1 -14.345465 -0.337806 37.363892
610 0 1 -14.313665 0.577046 37.142792
611 0 1 -13.758864 1.345147 37.078705
612 0 1 -12.872865 1.689336 36.911316
613 0 1 -12.654465 2.310055 36.238007
614 0 1 -12.939565 3.139386 36.746002
615 0 1 -13.009065 3.967965 37.253113
616 0 1 -13.123864 4.136655 36.340210
617 0 1 -12.682264 4.969125 36.030487
618 0 1 -12.410965 5.783566 36.544800
619 0 1 -12.356163 6.725186 36.475800
620 0 1 -12.674465 7.422185 35.921387
621 0 1 -13.282564 8.091084 35.744904
622 0 1 -14.006664 7.549485 35.426086
623 0 1 -14.141865 6.633286 35.474609
624 0 1 -14.765564 6.322587 36.109009
625 0 1 -15.707464 6.504888 35.939697
626 0 1 -16.564365 6.939485 35.702301
627 0 1 -16.597065 5.991067 35.736694
628 0 1 -17.324064 6.138288 36.387299
629 0 1 -18.220364 6.571984 36.473907
630 0 1 -17.565165 6.780187 37.183502
631 0 1 -16.652964 6.489587 37.267303
632 0 1 -15.727564 6.347886 37.518097
633 0 1 -14.947264 6.195584 38.141510
634 0 1 -14.220365 5.851827 38.655090
635 0 1 -14.077664 5.689565 39.575409
636 0 1 -13.667765 6.505185 39.190796
637 0 1 -13.370865 6.802983 38.344788
638 0 1 -13.146165 7.072385 37.426910
639 0 1 -13.172065 8.048284 37.320099
640 0 1 -12.535664 8.635186 37.802795
641 0 1 -13.225365 9.277783 37.594299
642 0 1 -12.967264 10.058286 37.137787
643 0 1 -12.579865 10.758485 37.649109
644 0 1 -11.611465 10.830285 37.358002
645 0 1 -10.809666 10.467286 37.105499
646 0 1 -10.389164 9.707986 37.468811
647 0 1 -11.150764 9.053884 37.530701
648 0 1 -11.586266 8.366284 37.046692
649 0 1 -11.012165 8.902585 36.455688
650 0 1 -10.366566 8.753087 35.800690
651 0 1 -9.517864 9.245984 35.843109
652 0 1 -9.462564 10.218587 35.858398
653 0 1 -8.950363 10.592286 36.573090
654 0 1 -8.134315 10.521386 37.081787
655 0 1 -7.296924 10.899186 37.244995
656 0 1 -6.612705 10.100385 37.150696
657 0 1 -7.210834 9.663186 37.783112
658 0 1 -7.552284 9.174085 37.005310
659 0 1 -7.755905 8.224187 37.345703
660 0 1 -7.563625 8.151887 36.397217
661 0 1 -6.751384 8.049184 35.867706
662 0 1 -6.002273 7.735887 36.421692
663 0 1 -5.068134 7.522786 36.698212
664 0 1 -4.741415 6.654286 37.068695
665 0 1 -5.361574 7.022485 37.649689
666 0 1 -5.531644 6.069135 37.493103
667 0 1 -5.700195 5.142606 37.211395
668 0 1 -5.632904 5.391004 36.275391
669 0 1 -4.815174 5.795575 36.511414
670 0 1 -4.028255 5.823354 35.899109
671 0 1 -4.045173 6.520585 35.217407
672 0 1 -4.481964 7.433087 34.972107
673 0 1 -4.409355 8.348485 34.642395
674 0 1 -3.547864 7.969987 34.449310
675 0 1 -3.154474 8.608388 33.854187
676 0 1 -2.315143 8.301286 34.101196
677 0 1 -1.653934 8.099088 34.702911
678 0 1 -2.001684 7.391583 35.261108
679 0 1 -1.961395 6.444085 35.288391
680 0 1 -2.308185 6.598584 34.427002
681 0 1 -2.550834 7.073987 33.610687
682 0 1 -3.348024 6.709188 33.346985
683 0 1 -3.982223 7.275685 33.889404
684 0 1 -4.588304 6.483186 33.885315
685 0 1 -4.837804 5.907926 33.119385
686 0 1 -3.988315 5.407666 33.007202
687 0 1 -4.753574 4.867566 33.278290
688 0 1 -5.403734 5.065465 33.957794
689 0 1 -5.666214 4.158616 34.186584
690 0 1 -5.510894 3.244935 33.935303
691 0 1 -4.692283 2.770264 33.973816
692 0 1 -3.806203 2.397866 33.723511
693 0 1 -4.161655 1.778027 34.332214
694 0 1 -4.144603 1.159787 35.165497
695 0 1 -4.117673 1.952786 35.766907
696 0 1 -4.334674 2.869244 36.058197
697 0 1 -4.590044 2.260197 36.729187
698 0 1 -4.492954 1.774476 37.700287
699 0 1 -3.919315 2.492837 37.417694
700 0 1 -3.857584 2.958764 38.244690
701 0 1 -3.066064 3.461175 38.046814
702 0 1 -2.294263 3.691697 37.467987
703 0 1 -2.191215 2.705304 37.416412
704 0 1 -1.700254 2.181344 36.814789
705 0 1 -0.844955 1.686364 36.512390
706 0 1 0.102576 1.751694 36.654388
707 0 1 0.761380 1.980576 35.953308
708 0 1 1.615233 2.358636 36.054688
709 0 1 2.412407 1.925587 35.737610
710 0 1 2.449948 0.995274 35.625488
711 0 1 2.047776 0.278744 35.094910
712 0 1 1.180876 -0.258586 35.310608
713 0 1 1.245690 -0.144313 36.297791
714 0 1 0.400376 -0.195136 36.743195
715 0 1 0.332186 -0.944953 36.063507
716 0 1 0.098256 -1.036544 35.157501
717 0 1 -0.698164 -0.607154 34.832794
718 0 1 -0.326105 -1.114646 34.090790
719 0 1 0.380097 -0.525615 33.927887
720 0 1 -0.105014 -0.397063 33.127014
721 0 1 0.005825 0.005635 32.318695
722 0 1 -0.652355 0.744706 32.347992
723 0 1 -1.224884 0.208405 31.812897
724 0 1 -1.319845 -0.376136 31.054291
725 0 1 -1.440014 -0.700076 30.076111
726 0 1 -1.030685 -1.490356 29.648407
727 0 1 -1.327175 -2.336726 29.330994
728 0 1 -0.692344 -3.062232 29.165497
729 0 1 -0.206245 -2.227756 28.979797
730 0 1 -0.603084 -1.971084 28.097809
731 0 1 -1.057693 -1.535365 27.424805
732 0 1 -1.922084 -1.130634 27.563202
733 0 1 -2.732143 -0.792396 27.959412
734 0 1 -3.152944 -1.676955 27.737610
735 0 1 -3.894994 -1.501415 28.298584
736 0 1 -4.566734 -2.300975 28.446991
737 0 1 -5.086383 -2.516034 27.673706
738 0 1 -5.352615 -1.769305 27.131714
739 0 1 -6.106843 -1.673595 26.563690
740 0 1 -5.916975 -0.717555 26.720886
741 0 1 -6.108253 0.140786 26.947998
742 0 1 -6.702014 -0.424365 27.556091
743 0 1 -6.912265 -0.357875 28.463684
744 0 1 -7.652805 -1.022876 28.710510
745 0 1 -8.528065 -1.335994 29.037811
746 0 1 -8.913164 -1.524966 28.164490
747 0 1 -8.355265 -2.282653 28.087891
748 0 1 -9.093563 -2.800004 28.332794
749 0 1 -9.267265 -3.424588 29.126587
750 0 1 -9.889565 -2.744174 29.174896
751 0 1 -10.652664 -2.408313 29.648407
752 0 1 -11.023563 -1.901996 28.855713
753 0 1 -10.118965 -1.339576 28.793793
754 0 1 -9.733265 -0.833263 29.526489
755 0 1 -9.571865 -0.732974 30.469208
756 0 1 -9.043465 0.032914 30.363708
757 0 1 -8.178844 0.106934 30.767303
758 0 1 -8.505964 0.969586 31.035492
759 0 1 -8.154835 1.789136 30.691010
760 0 1 -9.047066 1.832616 30.463013
761 0 1 -9.548264 2.743165 30.309204
762 0 1 -9.544865 3.486844 30.892487
763 0 1 -9.592163 3.756814 31.814392
764 0 1 -10.246664 4.032666 32.512787
765 0 1 -10.286564 3.046017 32.670898
766 0 1 -10.939163 2.427537 32.352692
767 0 1 -11.627766 1.748486 32.533386
768 0 1 -12.118065 1.636357 31.756012
769 0 1 -12.396965 2.547227 31.758606
770 0 1 -12.812764 2.926026 32.493591
771 0 1 -13.159465 2.660786 33.287903
772 0 1 -13.263464 1.962437 32.626587
773 0 1 -13.522465 2.224385 31.639099
774 0 1 -13.874965 1.995167 30.758606
775 0 1 -13.906264 2.662175 30.001190
776 0 1 -13.380964 3.190243 29.436584
777 0 1 -13.990364 3.197934 28.630707
778 0 1 -13.619864 3.830884 28.029205
779 0 1 -13.174765 3.093907 27.508209
780 0 1 -13.075165 3.430375 26.588898
781 0 1 -12.872564 2.640645 26.185303
782 0 1 -13.512465 2.001134 25.945984
783 0 1 -13.049564 1.185937 26.231995
784 0 1 -13.751164 0.643105 25.747101
785 0 1 -14.589064 0.746594 25.188110
786 0 1 -15.295864 1.137475 25.691895
787 0 1 -15.336864 1.710686 26.434814
788 0 1 -15.686264 2.320237 25.776611
789 0 1 -15.864664 2.801217 24.874512
790 0 1 -15.411665 3.577607 24.921509
791 0 1 -14.752064 3.612065 24.190796
792 0 1 -14.927265 3.680615 23.136597
793 0 1 -14.055264 4.087476 23.252411
794 0 1 -13.078465 4.144406 23.046204
795 0 1 -13.314864 3.493737 23.664795
796 0 1 -12.508764 3.649037 24.083710
797 0 1 -12.092163 4.181195 24.780487
798 0 1 -12.083364 3.823525 25.681305