LAMMPS data file via MDAnalysis

        2000  atoms
        1999  bonds
           0  angles
           0  dihedrals
           0  impropers

           1  atom types
           1  bond types
           0  angle types
           0  dihedral types
           0  improper types

-30.5 30.5 xlo xhi
-30.5 30.5 ylo yhi
-233.5 233.5 zlo zhi


Masses

1 1.000000

Atoms

1 0 1 -27.366842 -1.917885 75.799011
2 0 1 -27.850742 -1.034997 75.826996
3 0 1 -28.393343 -0.527005 76.391907
4 0 1 -28.634342 0.206745 76.921082
5 0 1 -28.703543 0.820903 76.132690
6 0 1 -28.477543 1.358035 75.377808
7 0 1 -28.760141 2.210635 75.790588
8 0 1 -27.863241 2.316425 76.125488
9 0 1 -26.940542 2.653415 75.916687
10 0 1 -26.551641 2.782916 75.062012
11 0 1 -26.449442 3.591575 74.589111
12 0 1 -26.833342 3.897044 75.383911
13 0 1 -26.221642 4.128513 76.090088
14 0 1 -25.612343 4.284675 76.872986
15 0 1 -25.118841 3.449363 76.802704
16 0 1 -25.734842 2.962325 77.360596
17 0 1 -25.097942 3.489604 77.927307
18 0 1 -24.494242 4.140003 77.499084
19 0 1 -23.861042 4.438186 78.091400
20 0 1 -24.130941 5.303806 77.765900
21 0 1 -24.010242 5.594665 78.666290
22 0 1 -23.686441 6.484287 78.302704
23 0 1 -23.167742 7.320434 78.275909
24 0 1 -22.398441 6.830135 78.591797
25 0 1 -22.282742 6.039264 79.169495
26 0 1 -21.733242 5.485424 78.523499
27 0 1 -21.939642 4.576503 78.585388
28 0 1 -21.974543 3.596614 78.388397
29 0 1 -21.372341 3.019435 78.890106
30 0 1 -22.048243 2.598605 79.379395
31 0 1 -21.966541 3.443897 79.816193
32 0 1 -22.645342 3.226024 80.509399
33 0 1 -22.708542 3.064376 81.460815
34 0 1 -22.255842 2.218604 81.712585
35 0 1 -21.812742 1.375774 81.530396
36 0 1 -22.153742 0.510146 81.172485
37 0 1 -22.288342 0.134036 82.047913
38 0 1 -21.396341 -0.304055 81.945190
39 0 1 -20.729141 0.345325 81.749603
40 0 1 -19.806942 0.301894 81.386597
41 0 1 -19.200842 0.584285 80.731293
42 0 1 -19.033142 1.552043 80.718811
43 0 1 -18.179543 1.911285 81.071198
44 0 1 -18.181242 1.903945 82.097290
45 0 1 -17.904442 2.697173 82.573181
46 0 1 -17.860842 3.026233 83.502289
47 0 1 -17.059742 2.951385 84.086182
48 0 1 -16.460043 3.566455 83.501495
49 0 1 -16.807343 4.459655 83.410706
50 0 1 -17.195642 4.511764 82.538208
51 0 1 -18.151442 4.411167 82.535004
52 0 1 -18.229942 5.150127 81.982788
53 0 1 -17.389242 4.796566 81.533203
54 0 1 -17.067543 5.611034 81.057190
55 0 1 -16.212143 5.215904 80.931000
56 0 1 -16.392742 5.444286 81.828400
57 0 1 -15.523342 5.358634 82.308289
58 0 1 -15.302343 4.614437 81.759796
59 0 1 -15.802042 3.770065 81.836700
60 0 1 -16.134842 3.393253 80.992188
61 0 1 -15.338442 3.156806 80.462585
62 0 1 -14.814642 3.533283 81.145386
63 0 1 -14.229841 3.961314 81.736511
64 0 1 -13.834742 4.804134 81.756409
65 0 1 -13.446342 5.050594 82.586304
66 0 1 -13.426641 5.537254 83.458984
67 0 1 -13.661642 6.508075 83.266693
68 0 1 -13.172441 7.148536 83.832001
69 0 1 -13.587141 7.654537 83.151001
70 0 1 -13.072142 7.689334 82.256592
71 0 1 -12.397043 8.111133 82.756500
72 0 1 -13.078842 8.627833 83.274200
73 0 1 -13.426842 9.371837 83.826508
74 0 1 -12.827042 9.868136 83.356689
75 0 1 -12.953043 10.634833 82.812012
76 0 1 -12.231642 10.775435 82.222290
77 0 1 -12.180342 10.700133 81.246399
78 0 1 -12.842443 11.356235 81.082489
79 0 1 -13.587042 10.710032 81.095490
80 0 1 -14.464342 10.975932 81.275513
81 0 1 -14.484442 10.879233 80.345093
82 0 1 -14.263643 11.589534 79.695892
83 0 1 -14.190641 11.090835 78.867493
84 0 1 -13.533743 11.744735 78.928894
85 0 1 -13.594641 12.528132 78.301300
86 0 1 -13.810843 13.451632 78.533905
87 0 1 -14.374542 14.105834 78.060303
88 0 1 -14.058542 13.646335 77.271301
89 0 1 -14.982443 13.341136 77.563110
90 0 1 -14.710943 12.719935 78.223206
91 0 1 -15.279242 12.172034 77.669617
92 0 1 -14.916941 11.302432 77.445312
93 0 1 -14.062943 11.731235 77.321899
94 0 1 -14.020042 12.341834 76.509216
95 0 1 -14.189342 12.252536 75.600586
96 0 1 -14.781742 11.779834 74.989014
97 0 1 -14.610842 11.189734 74.203308
98 0 1 -14.217741 10.992435 73.339417
99 0 1 -14.652243 10.213634 73.718903
100 0 1 -15.042643 9.429034 73.999298
101 0 1 -15.828942 9.634734 73.460083
102 0 1 -15.936642 10.113635 72.632111
103 0 1 -16.697142 10.772735 72.572815
104 0 1 -17.250542 11.269134 73.228302
105 0 1 -18.116642 11.018336 72.865601
106 0 1 -18.295742 11.985335 72.753204
107 0 1 -19.185242 11.774734 73.012299
108 0 1 -19.635742 12.091933 72.181702
109 0 1 -18.833942 12.484233 71.829895
110 0 1 -19.107542 13.156634 71.244019
111 0 1 -18.717941 13.844333 70.726807
112 0 1 -19.142443 14.739635 70.873199
113 0 1 -18.328543 14.815837 71.347900
114 0 1 -17.594942 15.047935 70.673309
115 0 1 -17.196941 15.049335 69.739410
116 0 1 -17.250341 15.111636 68.807892
117 0 1 -17.118542 14.320933 68.277191
118 0 1 -17.176542 13.416335 68.488007
119 0 1 -16.778343 12.594634 68.220703
120 0 1 -16.635643 11.687835 67.955109
121 0 1 -17.092941 10.860034 68.087799
122 0 1 -16.552443 10.046634 67.986206
123 0 1 -15.702642 9.582534 67.930908
124 0 1 -15.232042 8.794932 67.670593
125 0 1 -15.965942 8.980533 67.049591
126 0 1 -16.573442 9.739036 66.917603
127 0 1 -16.430443 10.650634 66.564911
128 0 1 -16.990643 11.445235 66.909790
129 0 1 -16.803942 11.511836 66.017517
130 0 1 -15.914442 11.423835 65.818787
131 0 1 -15.103941 11.269732 66.455688
132 0 1 -15.369143 11.657134 67.359009
133 0 1 -15.436942 11.649634 68.282715
134 0 1 -15.423243 12.119735 69.125702
135 0 1 -14.437143 12.313735 68.984406
136 0 1 -13.707941 12.629336 69.525085
137 0 1 -12.923841 12.082435 69.815186
138 0 1 -12.996641 11.987132 70.759003
139 0 1 -13.306643 12.355735 71.590515
140 0 1 -12.954542 12.838634 72.306519
141 0 1 -12.825842 11.953334 72.695984
142 0 1 -12.211241 12.499534 73.290100
143 0 1 -12.834942 12.634734 74.019501
144 0 1 -12.186941 13.188632 74.597595
145 0 1 -12.669342 13.826533 74.049103
146 0 1 -12.920343 14.036136 74.965302
147 0 1 -12.943941 14.946235 75.360413
148 0 1 -12.576143 15.794032 75.194000
149 0 1 -12.181543 16.279934 75.905212
150 0 1 -11.615042 16.852535 75.425507
151 0 1 -10.917442 16.629936 74.740112
152 0 1 -10.605682 16.814533 75.619110
153 0 1 -10.729753 17.381336 76.338196
154 0 1 -10.236341 16.842735 76.919189
155 0 1 -9.341722 17.166534 76.894714
156 0 1 -8.584753 16.648235 76.762085
157 0 1 -8.529871 15.830935 77.296295
158 0 1 -7.539032 15.905635 77.328491
159 0 1 -7.708862 15.795535 76.396301
160 0 1 -7.503363 14.918132 76.044403
161 0 1 -8.307423 14.342235 76.106018
162 0 1 -8.280432 13.431933 75.658295
163 0 1 -8.615862 12.845836 74.922699
164 0 1 -8.309633 11.940833 74.619904
165 0 1 -7.760172 11.404334 74.047485
166 0 1 -8.654882 11.112235 74.006592
167 0 1 -8.546852 10.725734 73.110413
168 0 1 -9.144941 10.405833 72.408386
169 0 1 -9.372721 9.611735 71.948303
170 0 1 -9.556812 9.425036 72.889191
171 0 1 -9.678843 8.777534 73.587311
172 0 1 -9.558393 8.380336 74.471802
173 0 1 -9.849173 8.349635 75.383301
174 0 1 -9.501451 7.427536 75.656311
175 0 1 -9.675432 6.501274 75.445984
176 0 1 -10.377001 6.204986 74.873810
177 0 1 -10.665022 6.546253 75.684814
178 0 1 -11.139841 6.551345 76.510193
179 0 1 -11.088642 6.476974 77.417511
180 0 1 -10.432531 5.809223 77.815308
181 0 1 -9.755383 5.210395 77.543091
182 0 1 -10.390261 4.498565 77.480408
183 0 1 -11.314741 4.825794 77.299500
184 0 1 -10.654501 4.588047 76.514191
185 0 1 -11.274942 3.944854 76.794891
186 0 1 -11.406242 3.135677 76.261200
187 0 1 -12.280342 2.947353 75.867401
188 0 1 -12.479643 2.445655 75.004211
189 0 1 -11.924841 1.610973 74.744690
190 0 1 -11.150541 2.159354 74.846985
191 0 1 -10.227062 2.294055 74.516785
192 0 1 -9.527212 1.791835 74.972290
193 0 1 -8.921812 2.400234 74.673492
194 0 1 -8.805132 2.834846 73.786591
195 0 1 -9.300322 3.035693 72.972290
196 0 1 -8.751732 2.870784 72.145691
197 0 1 -7.951712 3.345004 71.899597
198 0 1 -7.899221 3.329227 70.977112
199 0 1 -8.498571 3.990093 70.749817
200 0 1 -8.511372 3.450656 69.939514
201 0 1 -8.684702 3.550075 69.002899
202 0 1 -8.148712 4.007625 68.348816
203 0 1 -8.620123 4.814186 68.477112
204 0 1 -8.227772 4.652004 69.313690
205 0 1 -7.351662 4.779785 68.966492
206 0 1 -6.535042 5.023925 69.343597
207 0 1 -6.221123 4.433727 68.680908
208 0 1 -5.388792 3.806484 68.593903
209 0 1 -5.434662 2.871124 68.412109
210 0 1 -5.142843 2.809383 67.530518
211 0 1 -4.213781 2.533794 67.416992
212 0 1 -3.879822 2.049876 68.154297
213 0 1 -4.621092 1.412013 68.111206
214 0 1 -4.083363 1.471633 67.316895
215 0 1 -4.113503 0.541766 67.096497
216 0 1 -5.050673 0.742534 67.431213
217 0 1 -4.659212 0.076095 68.008392
218 0 1 -4.685143 -0.590985 68.738586
219 0 1 -4.942883 -1.485776 68.347809
220 0 1 -4.628141 -2.124886 68.970093
221 0 1 -4.436472 -1.440926 69.630890
222 0 1 -4.533281 -1.304604 70.545288
223 0 1 -5.374071 -1.342896 69.960205
224 0 1 -6.276672 -1.698895 70.161011
225 0 1 -6.581383 -1.114377 69.429108
226 0 1 -7.360392 -1.014916 68.801697
227 0 1 -7.997452 -0.383847 69.162506
228 0 1 -8.219141 -0.301377 70.085907
229 0 1 -8.844242 0.408523 69.986389
230 0 1 -9.397093 1.206886 69.890900
231 0 1 -8.781641 1.643894 69.305481
232 0 1 -9.227402 2.368293 69.848907
233 0 1 -9.539152 2.254825 70.788818
234 0 1 -9.605652 1.300754 71.097595
235 0 1 -10.461493 0.905364 70.942810
236 0 1 -10.788122 0.455463 70.179108
237 0 1 -9.895521 -0.045296 69.867493
238 0 1 -10.166323 -0.830605 70.317993
239 0 1 -9.343132 -1.431054 70.285583
240 0 1 -9.355473 -2.227305 70.790802
241 0 1 -9.442242 -3.173312 70.648315
242 0 1 -9.863503 -3.405379 69.846313
243 0 1 -10.234381 -3.898289 69.110992
244 0 1 -11.140341 -3.945218 68.734589
245 0 1 -10.905741 -3.613568 67.833008
246 0 1 -10.624342 -3.174214 67.082611
247 0 1 -9.757292 -2.881955 66.771912
248 0 1 -9.262201 -2.173516 67.260895
249 0 1 -9.805382 -1.499455 66.870209
250 0 1 -10.724302 -1.786873 66.816498
251 0 1 -10.819441 -2.030514 65.877899
252 0 1 -10.447561 -2.635628 65.262817
253 0 1 -9.792973 -3.297389 65.126709
254 0 1 -10.041941 -3.176833 64.238800
255 0 1 -9.697073 -4.025034 64.360413
256 0 1 -10.113472 -4.107926 63.504791
257 0 1 -9.914772 -3.612403 62.691589
258 0 1 -10.636072 -4.249068 62.616699
259 0 1 -9.963251 -4.755875 62.104401
260 0 1 -9.122482 -5.085745 61.828094
261 0 1 -9.525232 -5.910645 61.597809
262 0 1 -9.009542 -6.426926 60.933807
263 0 1 -8.096693 -6.200045 61.103607
264 0 1 -7.524832 -5.736485 61.705200
265 0 1 -7.024082 -6.452786 62.023102
266 0 1 -6.481762 -6.593115 61.213684
267 0 1 -6.126051 -7.418366 60.777405
268 0 1 -6.906082 -7.131815 60.366089
269 0 1 -6.792242 -7.002755 59.377686
270 0 1 -5.867361 -6.893095 59.578796
271 0 1 -5.179842 -6.213765 59.616699
272 0 1 -4.450413 -6.328385 60.221405
273 0 1 -4.224722 -6.093995 61.129089
274 0 1 -3.852003 -5.525536 61.820709
275 0 1 -3.791431 -6.293906 62.359009
276 0 1 -3.531242 -7.079834 62.008789
277 0 1 -3.339293 -6.734814 61.128784
278 0 1 -2.840822 -7.531815 61.067017
279 0 1 -3.683123 -7.910605 60.686584
280 0 1 -3.755781 -7.853976 59.757202
281 0 1 -3.375631 -8.724616 59.504395
282 0 1 -2.931812 -9.505145 59.063812
283 0 1 -2.811953 -10.447646 59.209595
284 0 1 -3.147223 -11.293216 59.502014
285 0 1 -3.032352 -11.499757 60.504517
286 0 1 -3.541292 -10.685117 60.468109
287 0 1 -4.498442 -10.275376 60.537811
288 0 1 -4.327362 -10.589736 59.652405
289 0 1 -4.499613 -11.551785 59.695709
290 0 1 -4.521393 -12.145576 60.416595
291 0 1 -3.981052 -12.831685 60.836395
292 0 1 -3.921602 -13.041156 59.896484
293 0 1 -4.749462 -13.354735 59.481812
294 0 1 -5.012722 -13.776465 60.278687
295 0 1 -5.856943 -14.127564 60.457794
296 0 1 -5.896852 -14.144166 59.500183
297 0 1 -5.733652 -13.484965 58.845093
298 0 1 -6.666101 -13.163636 59.073395
299 0 1 -6.814531 -12.260316 59.539917
300 0 1 -6.986671 -12.376046 60.506714
301 0 1 -6.486782 -12.907487 61.220612
302 0 1 -7.327332 -12.595277 61.469910
303 0 1 -7.509512 -11.835267 61.999207
304 0 1 -7.924372 -11.195395 62.575195
305 0 1 -7.264862 -10.564157 62.806702
306 0 1 -6.654152 -10.469565 63.521484
307 0 1 -6.346542 -11.185845 64.109009
308 0 1 -5.587072 -11.815326 64.296600
309 0 1 -4.985342 -12.253436 63.647888
310 0 1 -4.102161 -12.458316 63.927094
311 0 1 -4.503181 -12.878964 64.642090
312 0 1 -5.155802 -13.474866 64.991211
313 0 1 -6.026463 -13.907865 65.158997
314 0 1 -5.300873 -14.247167 65.644897
315 0 1 -5.599833 -13.628366 66.367188
316 0 1 -5.396912 -12.862506 66.882111
317 0 1 -5.921572 -12.215787 67.364014
318 0 1 -6.520412 -12.929086 67.217712
319 0 1 -6.642832 -12.213937 66.511810
320 0 1 -7.381432 -12.325395 67.061401
321 0 1 -8.252872 -11.998574 67.271912
322 0 1 -8.936392 -12.541345 67.806305
323 0 1 -8.429502 -13.376855 67.630188
324 0 1 -7.938662 -14.104966 67.213593
325 0 1 -8.589231 -14.690665 67.620697
326 0 1 -8.922672 -15.526666 67.338989
327 0 1 -8.285471 -16.207664 67.053406
328 0 1 -7.355871 -16.378765 66.962006
329 0 1 -7.007572 -16.395864 66.106293
330 0 1 -6.757942 -17.206364 66.496094
331 0 1 -7.456692 -17.610966 65.976990
332 0 1 -8.022522 -18.239666 65.626587
333 0 1 -7.334412 -18.762066 65.227905
334 0 1 -7.683792 -18.581366 64.349304
335 0 1 -8.094772 -19.495665 64.288513
336 0 1 -8.979422 -19.165165 64.518799
337 0 1 -9.646471 -18.498566 64.293701
338 0 1 -10.083261 -19.030565 63.681610
339 0 1 -10.871542 -19.732464 63.889099
340 0 1 -11.795042 -19.655464 64.274994
341 0 1 -11.989843 -20.151365 65.046600
342 0 1 -12.581541 -20.876364 65.524414
343 0 1 -13.026442 -21.568066 65.054901
344 0 1 -12.064142 -21.612665 64.867096
345 0 1 -11.178143 -21.578764 64.406097
346 0 1 -11.141943 -21.679865 63.462189
347 0 1 -11.088642 -22.627264 63.335693
348 0 1 -11.887743 -22.650265 62.824188
349 0 1 -11.963942 -23.624065 62.748108
350 0 1 -11.371843 -23.661465 61.950897
351 0 1 -10.436934 -23.837164 61.845490
352 0 1 -10.047712 -24.717064 62.141388
353 0 1 -9.092733 -24.640165 62.110199
354 0 1 -9.195772 -24.094164 62.947815
355 0 1 -8.513512 -23.709064 63.580994
356 0 1 -8.718632 -22.993065 64.170807
357 0 1 -9.385393 -22.325766 64.329803
358 0 1 -9.967962 -21.642466 63.992493
359 0 1 -9.658293 -21.856764 63.083496
360 0 1 -8.730593 -21.605665 63.168884
361 0 1 -8.120481 -21.120264 63.733704
362 0 1 -7.577332 -21.827465 63.291595
363 0 1 -6.817223 -21.237965 63.181091
364 0 1 -6.315851 -21.411865 62.410095
365 0 1 -6.069803 -20.849264 61.638306
366 0 1 -6.754242 -20.128065 61.574493
367 0 1 -6.577852 -19.685764 60.691589
368 0 1 -7.164452 -19.958364 59.998901
369 0 1 -6.892153 -20.825464 59.715607
370 0 1 -6.762201 -21.359264 58.882812
371 0 1 -7.788591 -21.425964 58.896393
372 0 1 -8.619102 -20.979265 58.658386
373 0 1 -9.307364 -20.296564 58.623291
374 0 1 -10.149462 -20.450464 58.212402
375 0 1 -10.468832 -20.619064 57.332703
376 0 1 -11.329241 -20.358965 57.050201
377 0 1 -11.214941 -19.795965 56.298004
378 0 1 -10.845041 -18.976665 55.840698
379 0 1 -11.388542 -19.386564 55.123688
380 0 1 -11.667042 -20.102264 54.549103
381 0 1 -12.315943 -19.497564 54.780090
382 0 1 -12.026243 -18.521265 54.638489
383 0 1 -12.553642 -17.693665 54.400299
384 0 1 -11.871342 -16.943764 54.606903
385 0 1 -11.417143 -16.604965 53.867004
386 0 1 -11.951643 -15.895665 54.267090
387 0 1 -11.964142 -15.405465 55.199097
388 0 1 -12.278143 -15.782966 55.993988
389 0 1 -12.691442 -15.327367 56.719208
390 0 1 -12.277542 -15.324567 57.588104
391 0 1 -12.049742 -15.599065 58.628296
392 0 1 -12.728842 -16.284864 58.416992
393 0 1 -13.049143 -15.864366 59.231506
394 0 1 -13.080641 -15.020265 59.600311
395 0 1 -13.175442 -14.414567 58.815308
396 0 1 -12.999441 -14.478566 57.768890
397 0 1 -12.273142 -13.843064 57.542297
398 0 1 -11.931341 -13.403035 56.741608
399 0 1 -11.188442 -13.151246 57.340210
400 0 1 -10.248201 -13.066035 57.368011
401 0 1 -10.790213 -12.301507 57.569305
402 0 1 -10.053961 -12.121335 58.141998
403 0 1 -9.705923 -11.319406 58.467804
404 0 1 -10.517401 -11.359876 59.096710
405 0 1 -10.429853 -10.589665 58.585602
406 0 1 -10.971542 -10.535966 57.798401
407 0 1 -11.759542 -10.309596 57.172699
408 0 1 -12.587641 -10.649936 56.701996
409 0 1 -12.295843 -11.480105 57.024200
410 0 1 -11.362143 -11.413945 56.863586
411 0 1 -11.612442 -11.161756 55.912506
412 0 1 -11.423841 -10.275855 55.495392
413 0 1 -11.148943 -9.370976 55.293091
414 0 1 -11.238142 -9.274465 54.247498
415 0 1 -11.231741 -9.983666 53.554016
416 0 1 -10.551302 -9.271497 53.447388
417 0 1 -10.388123 -8.989375 52.564514
418 0 1 -9.416273 -9.042295 52.359009
419 0 1 -9.317904 -8.993056 53.304688
420 0 1 -9.110941 -9.187245 54.244598
421 0 1 -8.311522 -9.288106 53.761597
422 0 1 -7.388182 -9.073016 54.104309
423 0 1 -6.837233 -8.270597 54.354095
424 0 1 -7.016502 -8.914065 55.009613
425 0 1 -6.179613 -9.246335 55.325409
426 0 1 -6.657183 -9.939866 55.703705
427 0 1 -7.404343 -10.586686 55.677887
428 0 1 -8.216843 -11.031705 55.271790
429 0 1 -7.990541 -11.903026 55.735291
430 0 1 -8.929052 -11.990815 55.945892
431 0 1 -9.670931 -11.312856 56.094116
432 0 1 -9.940712 -10.391416 56.179199
433 0 1 -9.325972 -10.149137 55.485413
434 0 1 -9.934912 -9.401336 55.629211
435 0 1 -10.305662 -8.599206 55.932587
436 0 1 -10.356462 -7.737015 55.527008
437 0 1 -11.237741 -8.087966 55.161011
438 0 1 -11.893141 -7.468655 54.817413
439 0 1 -11.860441 -8.015136 53.973602
440 0 1 -12.099342 -7.298275 53.360413
441 0 1 -12.122843 -6.334755 53.453705
442 0 1 -12.494741 -6.133795 52.622894
443 0 1 -12.751942 -5.796006 51.785187
444 0 1 -11.945642 -5.371266 52.088989
445 0 1 -11.865141 -5.042105 51.220306
446 0 1 -12.261042 -4.205658 51.633209
447 0 1 -12.397341 -4.365056 52.524200
448 0 1 -12.991541 -4.044079 53.205505
449 0 1 -13.415442 -3.606599 52.449402
450 0 1 -13.489843 -3.706691 51.447296
451 0 1 -13.243042 -4.006981 50.544983
452 0 1 -12.539242 -3.823472 49.866394
453 0 1 -13.051142 -3.109067 50.143402
454 0 1 -13.627842 -3.279736 49.407196
455 0 1 -13.199343 -3.026734 48.577911
456 0 1 -12.673042 -3.851983 48.441895
457 0 1 -12.204042 -2.858454 48.199890
458 0 1 -11.667341 -2.272906 48.755005
459 0 1 -11.007942 -1.589654 48.556213
460 0 1 -11.041143 -2.276835 47.796295
461 0 1 -10.617252 -3.077468 48.173889
462 0 1 -11.143942 -3.451426 47.452515
463 0 1 -10.407053 -3.383670 46.755707
464 0 1 -9.750834 -3.784985 46.172791
465 0 1 -9.099653 -3.253896 46.674194
466 0 1 -8.640972 -4.086363 46.825195
467 0 1 -9.199793 -4.817786 46.912415
468 0 1 -9.749212 -5.591086 46.895599
469 0 1 -9.820353 -6.192675 46.102295
470 0 1 -10.351511 -6.399374 45.286713
471 0 1 -11.063742 -6.451315 45.911987
472 0 1 -11.301142 -5.920516 45.153503
473 0 1 -11.160143 -6.671866 44.574707
474 0 1 -12.037741 -6.608145 44.888306
475 0 1 -12.651142 -5.884976 45.015106
476 0 1 -12.965942 -5.700554 44.127502
477 0 1 -12.417242 -4.932326 44.260406
478 0 1 -12.841942 -4.718655 43.408600
479 0 1 -13.741243 -4.189232 43.255188
480 0 1 -14.617542 -4.063839 42.823914
481 0 1 -13.946943 -3.544051 42.455292
482 0 1 -13.551342 -2.976111 41.860107
483 0 1 -13.511442 -3.604470 41.114288
484 0 1 -12.739742 -4.269185 41.290405
485 0 1 -12.387342 -3.500874 41.714203
486 0 1 -11.663042 -2.988824 41.513397
487 0 1 -11.747742 -2.123376 42.011688
488 0 1 -12.248041 -1.487836 42.559509
489 0 1 -12.089243 -0.646775 43.127594
490 0 1 -12.821043 -0.209534 43.650909
491 0 1 -12.582542 0.451633 42.936188
492 0 1 -13.513742 0.190173 42.735291
493 0 1 -13.298542 -0.007046 41.772095
494 0 1 -12.910643 0.217037 40.926605
495 0 1 -13.462042 -0.544717 40.653900
496 0 1 -13.579042 -1.442185 41.057709
497 0 1 -14.337141 -0.817696 41.134216
498 0 1 -14.873842 -0.298135 41.680786
499 0 1 -15.688842 0.139934 42.014801
500 0 1 -16.583242 0.036064 42.353088
501 0 1 -16.805042 -0.986096 42.217804
502 0 1 -16.588142 -1.842915 42.622192
503 0 1 -16.429943 -2.484273 41.904602
504 0 1 -16.433643 -2.393655 40.933899
505 0 1 -16.986341 -1.812195 40.339691
506 0 1 -17.331242 -0.940236 39.862396
507 0 1 -16.492243 -0.714135 39.484589
508 0 1 -15.885942 -1.231663 38.851288
509 0 1 -15.433743 -1.446595 38.001587
510 0 1 -15.454242 -2.372706 38.353210
511 0 1 -16.238243 -2.760871 38.735687
512 0 1 -16.004442 -3.171002 37.938995
513 0 1 -16.906242 -2.754328 37.972595
514 0 1 -17.181143 -3.676488 37.974487
515 0 1 -17.251942 -4.466444 37.415009
516 0 1 -17.066242 -5.385136 37.126587
517 0 1 -16.294542 -5.847756 37.161011
518 0 1 -16.207943 -6.505585 36.493500
519 0 1 -15.649242 -7.180356 37.014587
520 0 1 -15.538342 -8.064897 37.502991
521 0 1 -16.440742 -7.935635 37.826904
522 0 1 -16.040243 -7.999035 38.717499
523 0 1 -15.560542 -8.700517 38.301788
524 0 1 -14.889542 -8.681556 38.978088
525 0 1 -14.151941 -8.542806 39.594604
526 0 1 -14.137941 -7.886715 38.896790
527 0 1 -13.327642 -7.450745 38.994690
528 0 1 -12.513941 -7.618084 39.440887
529 0 1 -12.839842 -8.081515 40.217285
530 0 1 -12.573742 -8.850276 40.702209
531 0 1 -11.850342 -8.290875 41.156097
532 0 1 -11.585543 -7.373656 41.217010
533 0 1 -12.040041 -7.654875 42.017212
534 0 1 -11.655542 -7.642235 42.878601
535 0 1 -11.733141 -6.846375 43.465210
536 0 1 -11.305342 -7.607415 43.904907
537 0 1 -10.819223 -8.441966 44.133301
538 0 1 -10.129591 -8.023416 43.659393
539 0 1 -9.330362 -7.615006 44.090912
540 0 1 -9.738573 -6.844485 43.631012
541 0 1 -8.914942 -6.437516 43.960815
542 0 1 -8.098932 -6.020186 43.608612
543 0 1 -8.200453 -6.786955 43.023193
544 0 1 -7.394302 -6.614726 42.593994
545 0 1 -6.791773 -7.336455 42.330994
546 0 1 -6.518911 -8.206635 42.315491
547 0 1 -5.882042 -7.742606 41.782013
548 0 1 -5.022812 -7.493735 42.221313
549 0 1 -5.197512 -6.602046 41.915497
550 0 1 -4.635193 -6.078536 41.337006
551 0 1 -4.153223 -6.853205 41.371307
552 0 1 -4.668352 -7.527236 40.962402
553 0 1 -5.263983 -7.680375 40.192902
554 0 1 -5.752213 -8.235915 40.861694
555 0 1 -5.073702 -8.862605 40.657990
556 0 1 -5.361942 -9.706697 40.318115
557 0 1 -4.883661 -9.989575 39.540588
558 0 1 -5.123981 -10.904656 39.606812
559 0 1 -4.782352 -11.169927 40.502197
560 0 1 -5.343792 -11.335265 41.235504
561 0 1 -4.865902 -11.324117 42.071991
562 0 1 -4.272173 -11.386865 42.789307
563 0 1 -5.035803 -11.389735 43.398895
564 0 1 -5.456562 -10.623786 43.703308
565 0 1 -5.284363 -10.649356 44.676300
566 0 1 -4.615622 -11.320445 44.567413
567 0 1 -3.905243 -10.882176 45.043213
568 0 1 -3.372643 -10.705035 45.836304
569 0 1 -2.833782 -10.635186 45.054504
570 0 1 -2.987053 -11.211755 44.361389
571 0 1 -2.997372 -12.183825 44.359192
572 0 1 -3.739363 -12.415416 44.891510
573 0 1 -4.611002 -12.990436 44.977417
574 0 1 -3.874573 -13.602765 45.248505
575 0 1 -3.630463 -13.967965 44.393402
576 0 1 -2.761002 -13.605765 44.146698
577 0 1 -2.829243 -13.532266 43.201904
578 0 1 -2.694841 -14.479466 43.177704
579 0 1 -1.924402 -14.619466 43.706299
580 0 1 -1.359877 -15.322267 43.979401
581 0 1 -0.904854 -16.038666 44.269592
582 0 1 -1.028566 -16.898865 44.750488
583 0 1 -0.478432 -17.604364 45.068390
584 0 1 -0.000210 -17.951666 45.820007
585 0 1 -0.897705 -17.652065 46.010986
586 0 1 -1.156296 -17.590263 46.939789
587 0 1 -0.306198 -17.985266 46.865204
588 0 1 -0.244085 -17.288963 47.482117
589 0 1 0.372627 -16.581665 47.421387
590 0 1 -0.516119 -16.212765 47.474609
591 0 1 -1.344578 -15.848165 47.775299
592 0 1 -1.702814 -15.160466 47.246796
593 0 1 -1.880583 -15.833165 46.578308
594 0 1 -2.267733 -16.251764 47.342010
595 0 1 -3.012302 -15.696465 47.622894
596 0 1 -3.501623 -15.043666 48.263611
597 0 1 -4.139153 -14.670964 47.706390
598 0 1 -4.357122 -15.561566 47.452209
599 0 1 -5.208782 -15.283067 47.288513
600 0 1 -5.783432 -16.025364 47.033386
601 0 1 -5.315012 -16.835064 46.904388
602 0 1 -5.738462 -17.508163 46.353912
603 0 1 -5.586212 -18.482666 46.417114
604 0 1 -5.959312 -18.974766 45.670990
605 0 1 -6.515303 -19.302166 44.957794
606 0 1 -6.731123 -19.882465 44.226013
607 0 1 -7.562572 -19.336266 44.103302
608 0 1 -8.030521 -19.247866 43.308502
609 0 1 -8.700722 -18.864164 42.749298
610 0 1 -8.636892 -17.973965 42.358215
611 0 1 -8.375322 -17.011765 42.168793
612 0 1 -8.106392 -16.452164 41.456909
613 0 1 -9.031322 -16.315464 41.230988
614 0 1 -8.682112 -16.179764 40.363586
615 0 1 -8.751223 -17.106865 40.045197
616 0 1 -8.664522 -17.399464 39.168091
617 0 1 -8.320143 -18.145164 39.616302
618 0 1 -7.436583 -18.518166 39.418884
619 0 1 -7.732092 -17.852863 38.819000
620 0 1 -7.640112 -17.802265 37.890106
621 0 1 -7.389021 -18.352165 37.154785
622 0 1 -7.445032 -17.833965 36.304504
623 0 1 -6.725471 -17.312864 36.523010
624 0 1 -6.193953 -18.021465 36.153290
625 0 1 -5.803143 -18.876865 36.383209
626 0 1 -5.659012 -19.745365 35.981506
627 0 1 -6.219412 -19.942764 36.753784
628 0 1 -5.459093 -19.849665 37.280487
629 0 1 -4.611052 -20.060865 37.632996
630 0 1 -4.636793 -20.540165 36.786407
631 0 1 -5.180273 -21.329565 36.764008
632 0 1 -4.591843 -21.756065 36.059906
633 0 1 -4.312712 -22.497465 35.426788
634 0 1 -3.799252 -22.501564 34.604492
635 0 1 -4.572943 -22.725664 34.078094
636 0 1 -5.515182 -22.923664 33.914917
637 0 1 -5.138222 -23.527266 33.302399
638 0 1 -5.120241 -24.461664 33.228607
639 0 1 -4.303041 -24.687664 32.854401
640 0 1 -3.587301 -24.281065 33.251709
641 0 1 -3.723013 -23.956665 34.153107
642 0 1 -3.902342 -24.167364 35.077698
643 0 1 -4.381811 -24.909464 35.537109
644 0 1 -5.318132 -25.206964 35.484589
645 0 1 -5.150513 -25.586966 34.590515
646 0 1 -4.131613 -25.556765 34.493805
647 0 1 -3.096573 -25.270864 34.286987
648 0 1 -2.368292 -24.519764 34.337097
649 0 1 -1.667419 -25.154865 34.062012
650 0 1 -1.037895 -25.202364 33.252808
651 0 1 -0.386301 -24.500565 33.523193
652 0 1 0.461369 -24.966465 33.403107
653 0 1 0.794519 -25.139065 32.549713
654 0 1 0.738577 -25.808765 31.854187
655 0 1 1.298578 -25.994764 31.093597
656 0 1 0.914247 -26.875565 31.419891
657 0 1 1.593287 -26.682564 32.067291
658 0 1 1.084459 -26.970264 32.798798
659 0 1 0.489458 -26.214066 33.072815
660 0 1 -0.164270 -26.696165 33.526794
661 0 1 -0.103506 -27.543764 33.042999
662 0 1 -0.831331 -27.162766 32.645386
663 0 1 -1.597700 -27.842665 32.727417
664 0 1 -0.793928 -28.262064 32.470215
665 0 1 -1.144152 -28.856764 33.117493
666 0 1 -0.546639 -29.336864 33.777802
667 0 1 -0.081209 -29.505465 34.620911
668 0 1 0.145576 -29.782764 35.470306
669 0 1 0.245228 -30.087065 36.335510
670 0 1 0.690458 -29.439865 36.900696
671 0 1 0.924467 -28.611065 36.505188
672 0 1 0.132551 -28.015764 36.640900
673 0 1 -0.103199 -27.013464 36.631989
674 0 1 -1.051151 -26.613064 36.359985
675 0 1 -0.674732 -25.795364 35.912903
676 0 1 0.120321 -25.469465 36.313690
677 0 1 0.865927 -25.387365 36.906311
678 0 1 1.547186 -25.226164 36.251099
679 0 1 1.630159 -26.000565 35.673187
680 0 1 2.405279 -25.782665 35.078705
681 0 1 2.554148 -24.815365 35.242798
682 0 1 2.671087 -24.446566 34.327789
683 0 1 3.198889 -23.753765 34.724701
684 0 1 2.514647 -23.097265 34.832489
685 0 1 1.531649 -23.273565 34.920990
686 0 1 1.110777 -23.047764 35.696594
687 0 1 0.514797 -23.776865 35.460815
688 0 1 -0.241161 -24.290464 35.884705
689 0 1 -0.994236 -23.633064 35.706512
690 0 1 -0.823454 -23.203264 34.878693
691 0 1 -0.175842 -22.561964 34.591705
692 0 1 -0.597336 -22.472664 33.769714
693 0 1 -0.340778 -21.879665 33.086212
694 0 1 -0.845028 -22.070465 32.281006
695 0 1 -1.041422 -21.161264 32.451202
696 0 1 -1.191566 -20.307064 32.817810
697 0 1 -0.531580 -19.642065 33.069305
698 0 1 0.189049 -19.754164 32.434296
699 0 1 0.819029 -20.277565 32.987305
700 0 1 1.152906 -19.444565 33.274597
701 0 1 1.933378 -19.728264 32.775604
702 0 1 2.870649 -19.806564 32.547485
703 0 1 3.805616 -20.068964 32.813812
704 0 1 3.402246 -20.628265 32.104797
705 0 1 2.915148 -21.246664 31.523895
706 0 1 2.324766 -20.914265 30.783691
707 0 1 2.434187 -19.948164 30.907104
708 0 1 3.134939 -19.318766 30.967804
709 0 1 3.731867 -19.706264 31.653198
710 0 1 3.904879 -20.423065 31.076691
711 0 1 4.583807 -19.869465 30.753998
712 0 1 5.454458 -19.776764 30.365204
713 0 1 6.255999 -20.321165 30.484985
714 0 1 6.304178 -21.238565 30.258789
715 0 1 6.808828 -21.542864 31.096497
716 0 1 7.652807 -21.165665 31.275299
717 0 1 8.398649 -20.552465 31.303314
718 0 1 9.234659 -20.463764 31.810699
719 0 1 9.621656 -20.004364 31.125305
720 0 1 9.797159 -19.761166 30.206390
721 0 1 9.134306 -19.127665 30.392212
722 0 1 9.722059 -18.806166 31.095001
723 0 1 10.044657 -17.934666 31.425995
724 0 1 10.885656 -18.107365 31.086395
725 0 1 11.488657 -18.792366 30.795502
726 0 1 10.802259 -19.306665 31.316498
727 0 1 10.283457 -19.764465 31.966888
728 0 1 10.266657 -20.682064 32.334717
729 0 1 11.068258 -21.174765 32.032593
730 0 1 11.263556 -20.571264 32.771088
731 0 1 11.779860 -19.973564 33.362915
732 0 1 12.418257 -19.481565 33.849792
733 0 1 11.844358 -18.774965 33.961212
734 0 1 12.295759 -18.758764 34.782501
735 0 1 12.298357 -19.707766 34.849701
736 0 1 11.566458 -19.723665 35.490784
737 0 1 10.638659 -19.981764 35.337585
738 0 1 10.389559 -19.032665 35.479889
739 0 1 10.345358 -18.172066 35.836487
740 0 1 9.577658 -17.691565 36.238403
741 0 1 9.352259 -16.870665 36.706299
742 0 1 8.544157 -16.288166 36.923706
743 0 1 8.435549 -17.226665 36.744293
744 0 1 8.250990 -17.917366 37.343903
745 0 1 7.560709 -18.175964 36.636414
746 0 1 7.377748 -18.816666 37.348083
747 0 1 6.488176 -18.914965 37.557587
748 0 1 5.576128 -18.920965 38.015015
749 0 1 5.625807 -19.089865 38.993408
750 0 1 4.679419 -19.294266 39.223694
751 0 1 4.874617 -18.882866 40.024200
752 0 1 5.533030 -18.126265 40.060486
753 0 1 5.714888 -17.493664 40.804504
754 0 1 6.201368 -17.253065 41.617493
755 0 1 5.639277 -16.529064 41.903198
756 0 1 6.439707 -16.150566 41.473297
757 0 1 6.014116 -15.318067 41.165283
758 0 1 5.504797 -15.431966 40.253204
759 0 1 4.570349 -14.978765 40.383484
760 0 1 4.143229 -15.354066 39.566193
761 0 1 4.067827 -15.117665 38.633911
762 0 1 4.760710 -14.496266 38.391907
763 0 1 4.342627 -14.370866 37.496399
764 0 1 4.406630 -14.569865 36.431885
765 0 1 4.475496 -13.985066 35.617310
766 0 1 5.017508 -14.083066 34.882904
767 0 1 5.765749 -14.561765 34.609100
768 0 1 6.549128 -14.828666 33.996613
769 0 1 6.215288 -13.953265 33.713104
770 0 1 6.735006 -13.513066 33.059204