LAMMPS data file via MDAnalysis

        2000  atoms
        1999  bonds
           0  angles
           0  dihedrals
           0  impropers

           1  atom types
           1  bond types
           0  angle types
           0  dihedral types
           0  improper types

-30.5 30.5 xlo xhi
-30.5 30.5 ylo yhi
-233.5 233.5 zlo zhi


Masses

1 1.000000

Atoms

1 0 1 -11.544324 -7.483970 50.665405
2 0 1 -10.699822 -7.442510 50.179810
3 0 1 -10.688622 -6.749061 49.589203
4 0 1 -10.567822 -6.073051 48.848816
5 0 1 -10.161822 -6.826791 48.489807
6 0 1 -10.447423 -7.761941 48.593811
7 0 1 -11.326423 -7.318391 48.341095
8 0 1 -11.738923 -7.225261 47.547089
9 0 1 -12.170922 -7.418211 46.627594
10 0 1 -12.879123 -6.834041 46.812683
11 0 1 -13.470922 -7.112201 47.489899
12 0 1 -13.795222 -7.959640 46.985809
13 0 1 -14.387723 -8.106130 46.261108
14 0 1 -15.315322 -8.084210 46.322601
15 0 1 -15.068122 -8.969769 46.229401
16 0 1 -15.170623 -9.808200 45.714203
17 0 1 -14.872023 -10.677011 45.960205
18 0 1 -15.596822 -10.587550 46.618500
19 0 1 -15.722423 -11.556241 46.698700
20 0 1 -16.369024 -12.243211 46.734589
21 0 1 -17.212524 -12.115609 47.199707
22 0 1 -16.624023 -12.421010 47.878906
23 0 1 -16.285223 -11.935260 48.638794
24 0 1 -16.126423 -12.074800 49.565887
25 0 1 -16.252823 -11.995629 50.473694
26 0 1 -17.248224 -11.921741 50.670502
27 0 1 -17.022224 -11.786740 49.769409
28 0 1 -17.862724 -11.345601 49.461609
29 0 1 -18.061625 -11.251990 50.390808
30 0 1 -19.018623 -11.195230 50.409607
31 0 1 -19.913324 -11.214280 50.121002
32 0 1 -20.133823 -12.145909 50.114197
33 0 1 -20.893524 -11.840631 49.587708
34 0 1 -20.490524 -12.049550 48.754517
35 0 1 -20.142124 -12.969811 48.592285
36 0 1 -20.030924 -13.673810 47.993408
37 0 1 -20.202024 -13.239110 47.074707
38 0 1 -19.708523 -12.512210 47.445587
39 0 1 -19.920824 -12.005429 46.673401
40 0 1 -19.661823 -11.326421 47.320496
41 0 1 -19.624424 -11.640199 48.311890
42 0 1 -18.704824 -11.425271 48.025299
43 0 1 -18.298723 -10.908151 47.309509
44 0 1 -18.157024 -10.090590 47.723694
45 0 1 -18.627424 -9.299649 47.404999
46 0 1 -17.809624 -8.785241 47.578491
47 0 1 -18.423923 -8.071481 47.119385
48 0 1 -18.733223 -8.064620 46.230591
49 0 1 -18.716524 -8.996049 45.972687
50 0 1 -18.586124 -9.581410 45.211487
51 0 1 -17.656223 -9.182330 45.320709
52 0 1 -17.043924 -9.836789 45.579712
53 0 1 -16.931725 -10.383590 44.865509
54 0 1 -16.487024 -11.130101 45.085083
55 0 1 -15.879724 -10.392941 44.937592
56 0 1 -15.366323 -11.269000 44.668793
57 0 1 -15.714623 -11.774419 43.932587
58 0 1 -15.481923 -12.726811 44.276306
59 0 1 -14.813023 -13.221711 43.724091
60 0 1 -14.252323 -12.469010 43.990295
61 0 1 -13.648522 -12.090590 44.540100
62 0 1 -12.838023 -12.660611 44.219788
63 0 1 -12.797822 -13.157609 45.026917
64 0 1 -13.005723 -13.573510 45.845215
65 0 1 -12.765924 -14.235509 45.191711
66 0 1 -11.862323 -14.243810 45.040192
67 0 1 -11.380124 -13.486909 44.719391
68 0 1 -11.349023 -12.543410 44.365601
69 0 1 -10.577123 -12.043460 44.502411
70 0 1 -9.773122 -11.699029 44.132812
71 0 1 -8.922322 -12.025681 44.463104
72 0 1 -9.206822 -11.480561 45.154999
73 0 1 -8.274194 -11.144610 44.991394
74 0 1 -7.375543 -10.774419 45.123688
75 0 1 -6.706893 -10.115840 45.303009
76 0 1 -6.958692 -9.996039 46.206604
77 0 1 -6.286134 -9.959889 46.925507
78 0 1 -5.995732 -9.899041 47.831299
79 0 1 -5.285722 -10.133061 47.192413
80 0 1 -4.870343 -10.306550 47.990112
81 0 1 -4.197412 -10.660760 48.662109
82 0 1 -3.777642 -10.074920 48.015015
83 0 1 -4.136573 -9.613000 48.777405
84 0 1 -3.353143 -10.057090 49.189606
85 0 1 -3.177644 -11.047299 49.272003
86 0 1 -2.889592 -11.648570 49.943207
87 0 1 -2.211423 -12.366210 49.889801
88 0 1 -1.802163 -11.854321 50.556885
89 0 1 -0.998202 -12.071191 50.056091
90 0 1 -0.711423 -11.212369 50.317596
91 0 1 -0.398763 -10.345479 50.236084
92 0 1 -0.494412 -10.360909 51.204590
93 0 1 -0.411902 -11.144639 51.805298
94 0 1 0.314118 -11.645850 52.175415
95 0 1 0.015326 -12.342309 51.624603
96 0 1 0.414552 -12.875611 52.343689
97 0 1 0.881185 -13.679311 52.149994
98 0 1 0.311637 -14.483209 52.100800
99 0 1 -0.461984 -14.498610 51.576202
100 0 1 -0.048923 -14.061009 50.779694
101 0 1 -0.266093 -13.594811 49.979889
102 0 1 -0.989493 -14.146111 50.272705
103 0 1 -1.366304 -13.622609 49.492798
104 0 1 -1.150594 -13.719609 48.538605
105 0 1 -0.180072 -13.409610 48.398102
106 0 1 0.428260 -12.693810 48.888702
107 0 1 0.043797 -12.232709 48.113708
108 0 1 0.619994 -11.459991 47.834595
109 0 1 1.185805 -11.540811 47.036804
110 0 1 0.978581 -10.801431 46.457397
111 0 1 1.892640 -10.479489 46.260315
112 0 1 2.718856 -11.039941 45.940094
113 0 1 2.300187 -11.366719 45.197693
114 0 1 2.032594 -10.742850 44.522583
115 0 1 1.679604 -11.517390 44.150085
116 0 1 1.349717 -11.506551 43.298798
117 0 1 0.501353 -11.056220 43.220490
118 0 1 0.897826 -10.809070 44.100494
119 0 1 0.452905 -10.038100 43.866913
120 0 1 0.359021 -9.955590 42.841003
121 0 1 0.572164 -8.935929 42.862488
122 0 1 1.322654 -8.529321 43.239197
123 0 1 1.457667 -7.832590 42.480286
124 0 1 1.798406 -7.049850 41.961609
125 0 1 2.232768 -6.579221 42.647583
126 0 1 2.504987 -7.462501 42.618195
127 0 1 3.471469 -7.141302 42.799500
128 0 1 3.956897 -6.727800 43.575806
129 0 1 4.179248 -7.539390 44.174103
130 0 1 4.942317 -7.912410 43.777893
131 0 1 4.977157 -8.657609 44.386200
132 0 1 5.375636 -8.492440 45.245087
133 0 1 5.409728 -9.420899 45.707703
134 0 1 6.056266 -9.952130 46.279602
135 0 1 6.795897 -10.399600 46.735199
136 0 1 6.937419 -9.776629 47.447998
137 0 1 7.648429 -9.974441 48.101288
138 0 1 8.308566 -10.089250 47.372314
139 0 1 8.371448 -11.022660 47.649994
140 0 1 8.312816 -11.475801 46.807983
141 0 1 8.022758 -11.093919 46.045990
142 0 1 8.716605 -11.843141 45.873108
143 0 1 8.808307 -12.605910 45.250305
144 0 1 9.018497 -12.879609 44.379517
145 0 1 9.725158 -13.309609 44.909302
146 0 1 9.523768 -14.048810 45.540588
147 0 1 8.843387 -13.877011 44.893188
148 0 1 8.224875 -14.587310 45.023499
149 0 1 7.691447 -13.740510 45.071289
150 0 1 7.719447 -13.403710 44.198914
151 0 1 7.472556 -12.853509 43.481293
152 0 1 7.714858 -12.872010 42.503510
153 0 1 6.859359 -13.107709 42.372803
154 0 1 6.545398 -13.783610 41.794312
155 0 1 6.728358 -14.216510 42.569489
156 0 1 6.949187 -15.151811 42.398193
157 0 1 6.885406 -15.458211 41.458984
158 0 1 6.678977 -14.826610 40.786011
159 0 1 7.443778 -14.213609 40.699493
160 0 1 8.296996 -14.321710 41.140106
161 0 1 8.312789 -13.778310 42.031189
162 0 1 9.002898 -13.979611 42.765594
163 0 1 8.632648 -13.599809 43.555908
164 0 1 9.165496 -14.394811 43.750610
165 0 1 9.602687 -15.204310 43.693207
166 0 1 10.386989 -15.595109 43.438507
167 0 1 9.860068 -16.432911 43.296600
168 0 1 8.951228 -16.047510 43.384399
169 0 1 8.720458 -17.018610 43.267212
170 0 1 8.174716 -17.046410 44.124603
171 0 1 8.182448 -16.428610 44.862488
172 0 1 7.363708 -16.651310 45.269806
173 0 1 7.097617 -16.708511 46.188812
174 0 1 7.776328 -15.996911 46.328186
175 0 1 8.584117 -16.482012 46.115387
176 0 1 8.690936 -17.433910 46.097687
177 0 1 9.571536 -17.043510 45.905304
178 0 1 10.080436 -17.847010 45.780212
179 0 1 10.014827 -17.947010 44.821289
180 0 1 10.172587 -18.926210 44.847290
181 0 1 11.026217 -18.650810 44.529785
182 0 1 11.406077 -17.847111 44.823486
183 0 1 11.639777 -18.168411 45.662598
184 0 1 12.529777 -18.610010 45.667999
185 0 1 12.691978 -18.210112 44.765900
186 0 1 13.236579 -17.599310 44.345795
187 0 1 12.295978 -17.405710 44.256500
188 0 1 11.586577 -16.792410 44.699707
189 0 1 11.961078 -16.365211 45.509491
190 0 1 11.377078 -15.729009 45.961914
191 0 1 11.063796 -14.733209 46.038696
192 0 1 11.309379 -14.709910 45.128998
193 0 1 10.816367 -14.025210 44.631989
194 0 1 11.619277 -13.682111 44.920288
195 0 1 12.419978 -13.361009 45.289185
196 0 1 11.993575 -13.548711 46.188904
197 0 1 11.635879 -13.783210 47.051788
198 0 1 12.136878 -14.752309 47.260590
199 0 1 13.094378 -14.739209 47.191010
200 0 1 12.912978 -15.375110 47.840515
201 0 1 13.114478 -14.905511 48.633789
202 0 1 12.873778 -14.488309 49.445892
203 0 1 11.937278 -14.829610 49.521088
204 0 1 11.598075 -14.985509 50.374908
205 0 1 10.654208 -14.810109 50.586792
206 0 1 10.835219 -14.402711 51.419983
207 0 1 11.107017 -13.829011 52.077606
208 0 1 11.239577 -13.209710 52.836212
209 0 1 10.414248 -13.101010 53.383392
210 0 1 10.525538 -13.625611 54.212708
211 0 1 11.214576 -14.177711 54.597595
212 0 1 11.058349 -14.747310 55.368591
213 0 1 11.447078 -15.519509 54.968689
214 0 1 11.633777 -16.331312 55.432312
215 0 1 12.675879 -16.299711 55.476593
216 0 1 13.206176 -15.657010 55.933807
217 0 1 13.766177 -15.349410 55.217712
218 0 1 14.227077 -15.788810 54.516693
219 0 1 15.194076 -15.879609 54.646606
220 0 1 15.028480 -16.812611 54.496613
221 0 1 15.137679 -17.785210 54.472504
222 0 1 14.803077 -17.421711 53.646301
223 0 1 14.265677 -17.772211 52.906891
224 0 1 13.752875 -18.163610 53.651398
225 0 1 14.021476 -19.044111 53.705109
226 0 1 13.158877 -19.019510 53.367706
227 0 1 12.891978 -19.825512 53.837799
228 0 1 13.109378 -19.187012 54.520599
229 0 1 12.872077 -18.749512 55.322388
230 0 1 13.667876 -18.986311 55.750092
231 0 1 14.600776 -18.743212 55.970886
232 0 1 15.184978 -19.424810 55.614685
233 0 1 15.895377 -18.875111 55.821594
234 0 1 16.030977 -19.781111 56.093109
235 0 1 16.591875 -19.337311 56.666901
236 0 1 17.335875 -19.863611 56.881714
237 0 1 17.870977 -20.020012 56.046509
238 0 1 17.192778 -19.670610 55.406708
239 0 1 16.993876 -20.434410 54.825592
240 0 1 16.577375 -20.328911 53.977295
241 0 1 16.709478 -21.151411 53.485413
242 0 1 17.604078 -21.130711 53.639496
243 0 1 18.037374 -20.892311 52.769409
244 0 1 18.812277 -21.373911 52.856201
245 0 1 19.098177 -20.962511 51.977692
246 0 1 19.179777 -21.493912 51.120605
247 0 1 19.288076 -22.069212 50.339600
248 0 1 18.414076 -21.654510 49.952606
249 0 1 18.192175 -20.983711 49.305695
250 0 1 18.963877 -20.316610 49.139099
251 0 1 19.608076 -19.633711 49.453613
252 0 1 20.191877 -19.298811 50.225189
253 0 1 20.732275 -19.000410 49.398804
254 0 1 20.976377 -18.328611 48.832214
255 0 1 20.654776 -17.424511 49.169006
256 0 1 19.754576 -17.061010 49.212006
257 0 1 20.010977 -16.782310 48.375610
258 0 1 19.923574 -15.787011 48.170593
259 0 1 20.698477 -15.709310 47.642609
260 0 1 21.177477 -15.871011 46.791504
261 0 1 20.607878 -15.599610 46.107910
262 0 1 21.293776 -15.910909 45.444092
263 0 1 20.848379 -16.767210 45.288391
264 0 1 20.008978 -17.208311 45.463593
265 0 1 19.998274 -17.212711 44.507904
266 0 1 19.446775 -17.871111 44.246887
267 0 1 19.653677 -17.598110 43.365204
268 0 1 20.289877 -17.865711 42.737091
269 0 1 21.041479 -18.453312 42.507904
270 0 1 20.758879 -18.459511 41.570496
271 0 1 19.970476 -17.938511 41.367401
272 0 1 19.855375 -17.827311 40.357117
273 0 1 20.438276 -18.600111 40.427002
274 0 1 20.513975 -19.536011 40.671600
275 0 1 20.446875 -20.139610 39.783600
276 0 1 19.599176 -19.615810 39.966400
277 0 1 19.281076 -20.472610 39.586609
278 0 1 18.510477 -21.042711 39.768616
279 0 1 17.547575 -21.119612 39.753204
280 0 1 17.674978 -22.091711 39.864899
281 0 1 17.107176 -22.131712 40.621002
282 0 1 17.873075 -21.836712 41.008698
283 0 1 18.237478 -21.838112 41.905396
284 0 1 18.835073 -22.083912 42.629395
285 0 1 18.404676 -21.824411 43.472412
286 0 1 18.400679 -22.753311 43.684814
287 0 1 18.294577 -23.568111 43.220398
288 0 1 17.594076 -23.520411 42.587311
289 0 1 16.910978 -23.022612 42.992889
290 0 1 16.333178 -23.385311 42.293488
291 0 1 16.683977 -22.515612 42.096497
292 0 1 16.833876 -21.658312 42.444794
293 0 1 15.926177 -21.304312 42.044495
294 0 1 15.475978 -21.647411 41.319397
295 0 1 14.869777 -20.930611 41.342102
296 0 1 13.983977 -20.563610 41.289917
297 0 1 13.196177 -20.215811 41.756500
298 0 1 12.502776 -20.835211 42.118591
299 0 1 11.848075 -20.671810 41.488586
300 0 1 11.176978 -20.022211 41.368195
301 0 1 11.096137 -19.148111 40.960693
302 0 1 11.071197 -19.522612 40.044800
303 0 1 10.137458 -19.216911 39.950806
304 0 1 9.950469 -18.476610 40.568207
305 0 1 10.098075 -17.639511 41.099701
306 0 1 10.059836 -16.875511 41.688416
307 0 1 10.527007 -16.511412 42.443695
308 0 1 10.506705 -15.608710 41.981689
309 0 1 10.270568 -15.230409 41.105499
310 0 1 11.191676 -14.767411 41.108307
311 0 1 12.001876 -14.325210 41.339294
312 0 1 12.827079 -14.075311 41.007599
313 0 1 12.385879 -14.563111 40.363892
314 0 1 11.704879 -15.151010 40.092896
315 0 1 11.429778 -14.757211 39.205902
316 0 1 12.172076 -15.265410 38.654694
317 0 1 12.909179 -15.235509 39.219116
318 0 1 13.290576 -15.968911 38.610901
319 0 1 13.654975 -16.285511 37.686584
320 0 1 14.432479 -15.949510 38.190308
321 0 1 14.738578 -15.117909 37.824310
322 0 1 14.382575 -14.286710 37.528687
323 0 1 15.266776 -14.169410 37.848297
324 0 1 14.766978 -13.814511 38.554108
325 0 1 14.336379 -13.037709 38.864288
326 0 1 13.730979 -13.242810 38.154999
327 0 1 13.057776 -13.785611 37.701416
328 0 1 13.247176 -13.404809 36.896484
329 0 1 12.732276 -13.177510 36.147705
330 0 1 13.092978 -12.860711 35.288513
331 0 1 12.976878 -11.939439 35.513306
332 0 1 12.135577 -11.958009 35.138489
333 0 1 11.571479 -12.743110 35.453308
334 0 1 11.165175 -12.017171 35.132690
335 0 1 10.720885 -11.374040 35.695801
336 0 1 11.488276 -10.829110 36.090790
337 0 1 10.932036 -10.090199 36.147095
338 0 1 11.422778 -9.717549 36.818909
339 0 1 11.553077 -9.532071 37.793884
340 0 1 11.270080 -9.389930 38.681213
341 0 1 10.421039 -9.516829 39.171997
342 0 1 9.657508 -8.884780 39.235199
343 0 1 8.898696 -8.253449 39.246887
344 0 1 8.136706 -8.528279 38.645386
345 0 1 7.386939 -8.122880 38.122711
346 0 1 7.216437 -9.098500 38.295105
347 0 1 7.338256 -9.420751 37.405609
348 0 1 7.889548 -9.484509 36.579498
349 0 1 8.401378 -10.155309 36.120209
350 0 1 8.349738 -10.248651 35.138184
351 0 1 8.090636 -11.057790 34.774109
352 0 1 7.676349 -11.745500 34.233093
353 0 1 7.360038 -11.217969 33.492706
354 0 1 6.585479 -11.150470 34.112091
355 0 1 6.288768 -10.435710 34.667389
356 0 1 6.421729 -9.865890 33.869598
357 0 1 6.556727 -8.954410 33.943604
358 0 1 5.937919 -8.433841 34.317596
359 0 1 5.551299 -7.815761 34.906799
360 0 1 5.478808 -7.733720 35.851990
361 0 1 5.569827 -6.797740 35.977600
362 0 1 4.972888 -6.908140 35.238007
363 0 1 4.310538 -6.512102 34.716095
364 0 1 4.233039 -5.585441 35.061890
365 0 1 3.875907 -5.676500 34.190704
366 0 1 3.065917 -5.176111 34.098816
367 0 1 2.774638 -5.191190 35.001495
368 0 1 3.267589 -4.940740 35.777802
369 0 1 2.945167 -4.309141 36.472412
370 0 1 2.363677 -4.629751 37.232208
371 0 1 2.571267 -3.885831 37.809601
372 0 1 3.127498 -3.150220 37.413696
373 0 1 2.842036 -2.806688 38.276398
374 0 1 2.377687 -1.964719 38.495605
375 0 1 3.088546 -1.701980 37.857605
376 0 1 3.404418 -1.239099 37.098816
377 0 1 3.347075 -2.007821 36.484894
378 0 1 4.216586 -1.645948 36.217102
379 0 1 5.198707 -1.747650 36.041595
380 0 1 6.104297 -2.042171 36.123901
381 0 1 6.951987 -1.875663 36.658386
382 0 1 7.494887 -2.630580 36.502106
383 0 1 6.808768 -3.334769 36.622498
384 0 1 6.664336 -3.214999 37.584808
385 0 1 6.175948 -2.394035 37.531006
386 0 1 5.482318 -2.900834 37.159302
387 0 1 4.953456 -2.593576 37.953888
388 0 1 4.498157 -2.017810 38.605011
389 0 1 5.365157 -2.146106 38.942596
390 0 1 6.215407 -1.713840 38.695801
391 0 1 6.908179 -2.265620 38.970703
392 0 1 6.366965 -2.981847 39.289307
393 0 1 6.051196 -3.458881 40.062805
394 0 1 5.420016 -3.939470 40.603516
395 0 1 4.792396 -3.970340 41.360687
396 0 1 4.844028 -2.992120 41.126709
397 0 1 4.060668 -2.762330 41.696411
398 0 1 3.804667 -3.263360 40.821503
399 0 1 3.607467 -4.160532 41.223694
400 0 1 3.411216 -5.067880 41.035583
401 0 1 3.194697 -5.653751 40.303497
402 0 1 2.768996 -5.011890 39.747498
403 0 1 3.725638 -4.884210 40.011597
404 0 1 3.614467 -3.963731 40.038696
405 0 1 3.299968 -3.124971 39.902008
406 0 1 2.351577 -2.935966 40.058411
407 0 1 1.553544 -2.613132 40.452209
408 0 1 0.912757 -2.465554 41.148590
409 0 1 0.634553 -3.350930 40.887695
410 0 1 -0.051642 -3.672900 41.450409
411 0 1 -0.757943 -3.285690 40.883087
412 0 1 -1.529443 -3.849870 40.455200
413 0 1 -1.253204 -4.305671 39.654785
414 0 1 -0.618043 -4.476320 40.342499
415 0 1 0.090947 -5.061811 40.196991
416 0 1 0.696382 -4.370851 40.402893
417 0 1 0.942000 -4.244331 41.303802
418 0 1 1.150512 -4.941091 42.056091
419 0 1 1.008674 -4.158180 42.643890
420 0 1 0.023047 -4.339530 42.670807
421 0 1 -0.467584 -3.490781 42.481689
422 0 1 -0.703733 -3.614160 43.427490
423 0 1 -0.417153 -2.662942 43.531799
424 0 1 -0.136163 -1.992992 44.221710
425 0 1 0.328990 -1.138921 44.512909
426 0 1 0.421882 -0.361940 43.971710
427 0 1 -0.374574 0.278529 44.179291
428 0 1 -0.776982 0.181349 43.300995
429 0 1 -1.420142 0.935320 43.537109
430 0 1 -1.894893 1.662959 43.090393
431 0 1 -2.333694 2.371630 43.670288
432 0 1 -1.885533 2.779929 44.327789
433 0 1 -1.024892 2.940581 43.989288
434 0 1 -0.154443 3.280219 43.934509
435 0 1 0.462146 2.559291 44.093903
436 0 1 1.220002 2.968119 44.563995
437 0 1 1.247960 3.320128 45.488007
438 0 1 0.689219 3.955279 44.967194
439 0 1 0.461694 4.201960 44.088196
440 0 1 -0.331014 4.587210 43.622314
441 0 1 0.174294 5.323889 43.203888
442 0 1 0.181487 6.069510 42.625793
443 0 1 -0.776742 6.052107 42.629700
444 0 1 -0.449643 6.896250 42.978790
445 0 1 -0.252673 7.374690 42.096588
446 0 1 0.032737 7.725729 41.253784
447 0 1 -0.368743 8.549491 40.809601
448 0 1 -0.382873 9.518592 40.931305
449 0 1 -0.684323 10.205089 40.349396
450 0 1 -0.708694 11.195388 40.560303
451 0 1 -1.392404 11.847991 40.733215
452 0 1 -0.861053 12.361190 40.128906
453 0 1 -0.129293 12.697391 40.677094
454 0 1 0.499450 13.340789 40.974609
455 0 1 -0.158582 14.005191 40.746002
456 0 1 -0.866283 14.451987 41.255096
457 0 1 -0.477822 15.246291 41.597595
458 0 1 0.484300 15.143088 41.506500
459 0 1 1.102923 15.831389 41.247894
460 0 1 1.266248 16.709188 41.663696
461 0 1 0.541512 16.892591 41.088989
462 0 1 0.917003 17.347891 40.341187
463 0 1 1.833108 17.247587 40.496094
464 0 1 1.792903 18.222589 40.399689
465 0 1 1.984530 17.727690 39.607208
466 0 1 2.835757 17.170286 39.727417
467 0 1 2.970519 17.579390 38.841888
468 0 1 3.634387 17.967089 38.185211
469 0 1 2.965388 18.487490 37.727905
470 0 1 2.341237 19.107191 37.456207
471 0 1 3.082358 19.496389 38.056000
472 0 1 2.659858 19.887487 38.775513
473 0 1 1.801286 20.368589 38.957794
474 0 1 1.756762 21.293890 38.712189
475 0 1 2.368417 21.320089 39.552795
476 0 1 2.085259 21.498487 40.452393
477 0 1 1.467975 21.987490 40.863098
478 0 1 1.088464 21.143789 40.967590
479 0 1 0.607249 20.480291 40.531311
480 0 1 -0.334033 20.265589 40.457703
481 0 1 0.159083 19.651487 39.950806
482 0 1 0.687036 20.208590 39.411713
483 0 1 0.666438 19.290289 39.002594
484 0 1 1.262370 19.208990 38.224304
485 0 1 0.652469 19.896490 37.971985
486 0 1 0.484248 20.834688 37.685486
487 0 1 -0.255763 20.227289 37.362488
488 0 1 -0.919242 19.530287 37.453796
489 0 1 -1.011403 19.233992 36.546692
490 0 1 -1.676602 18.824987 36.006195
491 0 1 -2.674672 18.874788 35.745392
492 0 1 -2.978662 18.223791 36.343811
493 0 1 -2.427762 17.444689 36.224915
494 0 1 -2.040082 17.265589 35.353516
495 0 1 -2.163222 16.420790 34.921814
496 0 1 -1.870322 15.691993 35.413208
497 0 1 -2.832023 15.528289 35.676697
498 0 1 -3.804473 15.487990 35.796112
499 0 1 -3.850324 14.513190 35.780884
500 0 1 -3.979373 14.631591 34.813293
501 0 1 -4.454593 14.482787 34.003113
502 0 1 -4.300853 14.091990 33.073608
503 0 1 -4.277213 14.613288 32.264008
504 0 1 -4.824063 15.197089 32.835602
505 0 1 -5.487792 14.765693 32.191284
506 0 1 -5.931142 13.954490 31.958986
507 0 1 -5.589913 13.070792 31.847292
508 0 1 -5.444932 12.196589 31.481997
509 0 1 -4.496432 12.220889 31.242006
510 0 1 -4.405503 12.727191 32.046997
511 0 1 -3.946794 12.321891 32.869812
512 0 1 -4.779462 12.057792 32.679413
513 0 1 -5.216582 11.132392 32.612701
514 0 1 -5.351003 10.553588 31.895296
515 0 1 -5.255082 9.648490 32.192596
516 0 1 -5.356753 9.482490 31.268618
517 0 1 -6.179812 9.043288 31.631899
518 0 1 -7.077024 8.514689 31.627291
519 0 1 -7.792453 7.806387 31.379793
520 0 1 -8.018123 8.663791 30.889009
521 0 1 -8.107152 9.501891 31.438814
522 0 1 -7.775262 10.423392 31.451693
523 0 1 -8.199761 10.805789 32.255310
524 0 1 -7.613461 10.704089 33.028809
525 0 1 -8.091292 11.519389 33.103607
526 0 1 -8.260373 12.456290 32.814087
527 0 1 -8.033282 13.127589 33.550598
528 0 1 -8.705144 13.852592 33.418396
529 0 1 -9.390523 13.397090 33.967194
530 0 1 -9.346124 13.539092 34.899506
531 0 1 -10.353623 13.762992 34.882385
532 0 1 -10.835322 13.211589 34.268799
533 0 1 -10.951524 12.648292 33.433411
534 0 1 -11.475823 13.428992 33.334595
535 0 1 -11.469922 12.853389 32.577911
536 0 1 -10.897622 12.096992 32.274811
537 0 1 -10.042623 11.763389 32.584991
538 0 1 -9.378522 12.344790 32.279694
539 0 1 -9.210622 12.588691 31.368288
540 0 1 -10.135022 12.867888 31.297701
541 0 1 -10.022721 13.754691 31.034212
542 0 1 -10.326423 13.604190 30.005617
543 0 1 -10.811923 12.849990 30.521090
544 0 1 -11.566623 12.457992 30.031801
545 0 1 -10.963323 11.745090 29.845308
546 0 1 -10.051923 12.045890 29.584810
547 0 1 -10.174722 12.015288 28.496401
548 0 1 -10.090423 12.345790 27.596895
549 0 1 -9.363923 12.746989 28.225008
550 0 1 -9.894422 13.347991 28.710817
551 0 1 -9.683122 14.221587 29.115908
552 0 1 -8.979722 14.835692 29.032290
553 0 1 -8.870942 15.773688 29.227510
554 0 1 -8.831502 16.569689 28.668795
555 0 1 -8.629403 16.752989 27.729708
556 0 1 -8.512662 16.885290 26.743715
557 0 1 -9.399623 17.161489 26.224092
558 0 1 -8.775733 17.556688 25.657595
559 0 1 -9.353623 17.656790 24.883913
560 0 1 -9.862523 17.121389 24.183107
561 0 1 -10.315621 17.931589 24.199892
562 0 1 -10.752223 18.769190 24.189302
563 0 1 -10.101823 18.763487 23.563204
564 0 1 -9.735923 19.347288 24.172609
565 0 1 -8.848853 19.070288 24.228395
566 0 1 -7.944764 19.212088 23.980288
567 0 1 -7.340953 18.456190 23.923494
568 0 1 -6.534142 18.186491 24.421297
569 0 1 -6.532662 17.697691 23.532808
570 0 1 -5.912513 17.159391 23.107302
571 0 1 -6.228892 17.075392 22.125307
572 0 1 -5.680083 17.109190 21.353502
573 0 1 -6.399783 17.789991 21.304003
574 0 1 -5.998282 18.630888 21.068605
575 0 1 -5.353803 19.114889 20.627901
576 0 1 -5.555472 18.682287 19.857409
577 0 1 -5.376563 18.884489 18.906008
578 0 1 -5.430223 19.082487 17.949099
579 0 1 -5.478162 18.228086 17.495897
580 0 1 -5.065223 17.335989 17.436907
581 0 1 -5.120133 16.750090 16.688097
582 0 1 -5.323804 16.968088 15.794802
583 0 1 -5.920962 17.081789 15.054399
584 0 1 -6.176112 16.302988 14.564806
585 0 1 -6.575532 16.958891 13.899996
586 0 1 -7.326882 16.987188 14.472902
587 0 1 -7.867463 17.471991 15.104006
588 0 1 -8.262422 18.325087 15.029497
589 0 1 -8.553662 18.591490 14.084002
590 0 1 -9.412023 18.468687 13.646395
591 0 1 -9.883323 17.580488 13.428698
592 0 1 -10.652923 17.039888 13.242998
593 0 1 -11.082723 16.898588 14.087801
594 0 1 -11.822423 17.506689 14.177004
595 0 1 -12.656222 16.868490 14.210695
596 0 1 -13.053123 17.671988 14.029802
597 0 1 -13.070024 17.554487 15.001696
598 0 1 -13.050822 17.618887 15.960497
599 0 1 -13.130921 16.857088 16.540300
600 0 1 -13.373422 15.921790 16.420595
601 0 1 -14.066923 15.536490 15.728106
602 0 1 -14.971822 15.528590 15.662905
603 0 1 -15.284522 16.357389 15.378695
604 0 1 -14.955022 16.121191 14.535295
605 0 1 -14.542623 15.513488 14.006197
606 0 1 -14.640323 14.979888 14.777498
607 0 1 -15.469823 14.873790 14.213594
608 0 1 -16.157124 14.543792 14.848406
609 0 1 -16.586824 14.813293 14.045305
610 0 1 -16.154924 14.024688 13.733599
611 0 1 -16.069124 13.047290 13.500505
612 0 1 -16.092123 12.201289 13.162798
613 0 1 -16.825823 12.698291 12.833605
614 0 1 -17.808125 12.789989 12.582705
615 0 1 -18.045124 13.154391 11.760500
616 0 1 -17.800924 14.024093 11.407808
617 0 1 -18.375824 14.136992 12.220400
618 0 1 -18.941023 13.347388 12.441698
619 0 1 -19.070524 12.614692 11.791704
620 0 1 -18.614223 11.733890 11.669802
621 0 1 -19.373323 11.418189 11.091005
622 0 1 -18.682623 11.445189 10.370302
623 0 1 -17.862423 10.984992 10.016008
624 0 1 -17.111124 11.533591 9.614168
625 0 1 -17.297523 10.741889 9.095858
626 0 1 -16.682224 10.181090 8.572313
627 0 1 -16.299423 10.338389 7.655016
628 0 1 -16.576023 9.434188 7.567293
629 0 1 -16.064425 8.673991 7.935488
630 0 1 -16.162924 8.369391 6.991106
631 0 1 -15.238223 8.404288 6.684206
632 0 1 -14.778422 7.626360 6.345369
633 0 1 -14.801223 7.342490 5.434969
634 0 1 -14.995122 6.445490 5.697008
635 0 1 -14.037923 6.440939 5.938646
636 0 1 -13.138923 6.324320 5.590258
637 0 1 -13.301621 5.854109 4.789156
638 0 1 -12.633023 5.169539 4.960466
639 0 1 -11.943124 5.745261 4.581682
640 0 1 -11.724423 6.270079 5.404467
641 0 1 -11.846023 7.206328 5.275972
642 0 1 -11.699323 6.998457 6.157991
643 0 1 -11.054023 7.717249 6.490389
644 0 1 -11.025224 8.422690 7.159517
645 0 1 -11.395822 8.979690 6.502916
646 0 1 -10.812922 9.753692 6.372240
647 0 1 -10.724423 10.475188 6.925554
648 0 1 -10.473722 9.691089 7.342867
649 0 1 -9.952424 9.667789 8.226091
650 0 1 -10.499623 10.409591 8.472094
651 0 1 -10.666022 11.086390 9.140108
652 0 1 -10.500024 12.056190 9.264788
653 0 1 -11.300523 11.758189 8.754488
654 0 1 -11.924623 12.554191 8.837099
655 0 1 -12.753324 12.089190 8.775408
656 0 1 -13.126924 12.018489 7.884569
657 0 1 -13.820723 12.119391 8.560686
658 0 1 -13.791022 11.890391 9.476351
659 0 1 -14.073123 11.648890 10.339006
660 0 1 -13.162023 11.954291 10.357805
661 0 1 -12.515924 12.522990 10.890001
662 0 1 -11.964124 12.180388 10.229708
663 0 1 -11.217223 12.455489 10.822206
664 0 1 -10.332322 12.229491 10.559603
665 0 1 -9.669324 12.927192 10.445299
666 0 1 -9.827523 13.263789 9.544802
667 0 1 -9.842923 14.211791 9.532351
668 0 1 -10.616822 14.424392 9.962618
669 0 1 -11.187524 15.121291 10.466204
670 0 1 -11.399423 15.680591 9.706514
671 0 1 -10.679223 16.069990 10.245195
672 0 1 -10.095223 16.866087 10.275103
673 0 1 -9.215222 17.198790 10.604799
674 0 1 -8.395503 17.725790 10.542208
675 0 1 -8.031941 17.693991 11.545000
676 0 1 -8.610372 18.538290 11.472704
677 0 1 -8.701383 19.229689 10.788698
678 0 1 -7.764771 19.390989 10.831408
679 0 1 -7.280332 19.255987 9.992067
680 0 1 -6.597192 19.577188 10.520998
681 0 1 -5.971623 20.258188 10.727205
682 0 1 -6.886912 20.658689 10.790300
683 0 1 -7.465203 21.286489 10.348497
684 0 1 -7.758264 22.232786 10.236803
685 0 1 -8.330361 22.991491 10.133608
686 0 1 -7.869163 23.697287 9.721178
687 0 1 -7.350013 23.176489 9.057207
688 0 1 -7.995072 23.277891 8.336275
689 0 1 -7.780663 23.347486 7.392962
690 0 1 -7.491132 23.435888 6.485796
691 0 1 -6.621392 23.384489 6.032442
692 0 1 -5.835313 23.587088 6.587786
693 0 1 -5.645682 24.255888 5.948839
694 0 1 -5.090392 24.594290 6.703524
695 0 1 -5.979352 24.980089 6.775499
696 0 1 -6.014932 24.938391 7.714968
697 0 1 -5.254552 25.251692 8.116732
698 0 1 -4.797372 24.444891 7.873278
699 0 1 -5.577132 23.874891 8.084536
700 0 1 -6.472993 24.059488 8.434420
701 0 1 -6.586963 23.125387 8.323320
702 0 1 -6.076903 22.726290 7.596743
703 0 1 -6.202413 22.285990 6.708040
704 0 1 -5.281663 22.371389 6.776674
705 0 1 -5.133782 22.431486 5.790316
706 0 1 -5.695342 22.427092 5.015306
707 0 1 -6.232013 21.728289 5.369661
708 0 1 -5.978963 20.855886 5.564089
709 0 1 -6.028592 20.354090 6.382158
710 0 1 -5.768933 19.477987 6.097811
711 0 1 -5.077773 18.996191 6.513659
712 0 1 -4.263734 19.133390 5.881197
713 0 1 -3.332643 19.514688 5.959536
714 0 1 -3.024262 20.034491 5.146166
715 0 1 -3.272412 20.293287 4.184359
716 0 1 -2.787534 21.098890 3.838808
717 0 1 -2.350642 21.947989 3.874269
718 0 1 -2.097013 22.240488 4.719393
719 0 1 -1.939702 23.080091 5.210634
720 0 1 -1.793693 22.837488 6.219439
721 0 1 -0.918363 22.443090 6.410997
722 0 1 -0.879623 21.526690 6.393923
723 0 1 -1.155603 20.931288 5.640261
724 0 1 -1.264173 21.233789 4.749514
725 0 1 -0.702992 20.496687 4.542253
726 0 1 -0.828023 20.724989 3.612276
727 0 1 -0.750373 20.115889 2.810946
728 0 1 -0.853864 20.271090 1.857668
729 0 1 -0.338893 19.770391 1.066759
730 0 1 0.550900 19.506392 1.100481
731 0 1 0.954907 18.676390 1.101198
732 0 1 1.577344 18.312887 0.488497
733 0 1 1.836882 19.155588 0.024614
734 0 1 1.065846 19.143789 -0.678160
735 0 1 0.154437 18.891588 -0.713820
736 0 1 -0.504632 18.235689 -0.553831
737 0 1 -0.422423 18.201986 0.394228
738 0 1 -1.043063 17.434187 0.314882
739 0 1 -0.394834 16.972189 0.859682
740 0 1 -0.796403 17.593088 1.466982
741 0 1 -0.167314 16.818487 1.866396
742 0 1 0.140387 15.947890 2.083498
743 0 1 -0.698873 15.511790 2.438814
744 0 1 -1.509812 16.007990 1.979494
745 0 1 -2.217982 16.646589 1.991228
746 0 1 -2.725673 16.084188 2.558107
747 0 1 -3.599902 15.991790 2.900728
748 0 1 -3.940173 15.185988 2.416033
749 0 1 -3.620923 14.328589 2.398531
750 0 1 -4.347093 13.702590 2.383425
751 0 1 -4.681123 12.839492 2.622408
752 0 1 -3.927842 13.023990 3.204134
753 0 1 -3.205672 12.561988 3.581957
754 0 1 -3.544562 11.759189 4.012453
755 0 1 -4.292554 11.179591 4.116030
756 0 1 -4.282443 11.313888 5.117907
757 0 1 -4.760703 11.139892 5.945925
758 0 1 -4.296863 10.332191 6.158480
759 0 1 -4.443923 10.086291 7.073595
760 0 1 -4.257382 9.793189 8.045259
761 0 1 -5.080434 9.198890 8.003069
762 0 1 -4.501353 8.582488 7.568743
763 0 1 -4.497724 8.529288 8.523577
764 0 1 -4.905282 7.979392 9.153200
765 0 1 -5.705022 8.271789 9.498629
766 0 1 -5.565333 9.205489 9.869799
767 0 1 -5.951373 10.069190 9.891253
768 0 1 -6.254823 9.652389 10.694506
769 0 1 -6.834792 9.242389 11.348909
770 0 1 -6.786693 10.162688 11.623201
771 0 1 -7.300563 10.072288 10.803896
772 0 1 -6.966903 10.388488 9.948381
773 0 1 -7.619523 11.029391 9.828508
774 0 1 -8.496753 11.339690 9.837633
775 0 1 -8.677552 11.034888 8.934404
776 0 1 -9.329522 10.884189 8.153658
777 0 1 -8.863751 10.078490 8.335695
778 0 1 -8.094972 9.699191 8.619844
779 0 1 -7.974301 9.323890 9.485781
780 0 1 -8.864102 9.226691 9.525393