LAMMPS data file via MDAnalysis

        2000  atoms
        1999  bonds
           0  angles
           0  dihedrals
           0  impropers

           1  atom types
           1  bond types
           0  angle types
           0  dihedral types
           0  improper types

-30.5 30.5 xlo xhi
-30.5 30.5 ylo yhi
-233.5 233.5 zlo zhi


Masses

1 1.000000

Atoms

1 0 1 14.401389 -21.770987 44.564701
2 0 1 13.477790 -21.679588 44.678501
3 0 1 12.603988 -21.163288 44.797916
4 0 1 11.709991 -21.465187 44.964817
5 0 1 11.886588 -22.070187 44.206120
6 0 1 12.093291 -22.355087 43.290806
7 0 1 11.083289 -22.070187 43.338413
8 0 1 10.422191 -22.656687 43.830296
9 0 1 10.558589 -23.269087 43.094303
10 0 1 10.314891 -22.680187 42.430515
11 0 1 10.438190 -21.710487 42.475101
12 0 1 10.589492 -20.710888 42.729496
13 0 1 9.900802 -20.044088 42.721104
14 0 1 9.067321 -19.738087 42.285587
15 0 1 8.667739 -19.369287 43.100590
16 0 1 8.218169 -18.740187 43.717899
17 0 1 7.853851 -19.430288 44.272800
18 0 1 7.866920 -20.239588 44.861912
19 0 1 7.632572 -21.149088 45.043217
20 0 1 6.858089 -20.563187 45.273899
21 0 1 6.693099 -20.283688 46.133305
22 0 1 7.448371 -20.867588 46.350895
23 0 1 6.650932 -21.271587 46.672703
24 0 1 6.156951 -20.659388 47.217197
25 0 1 5.369140 -20.197987 47.477207
26 0 1 5.452720 -20.611588 48.303501
27 0 1 5.796329 -20.106287 49.038609
28 0 1 5.097461 -19.510687 49.394199
29 0 1 4.723030 -19.666988 48.487003
30 0 1 3.887561 -19.759987 49.018101
31 0 1 3.418159 -19.360287 48.289097
32 0 1 2.889999 -19.110287 47.533909
33 0 1 2.013091 -18.764887 47.113712
34 0 1 2.426151 -17.966288 47.618717
35 0 1 1.980010 -17.245987 47.183994
36 0 1 2.361999 -16.681587 46.486607
37 0 1 3.347690 -16.487587 46.463596
38 0 1 4.288459 -16.706488 46.251011
39 0 1 4.373821 -16.039587 45.521610
40 0 1 4.931121 -15.689788 46.266514
41 0 1 4.872890 -14.731488 46.464207
42 0 1 4.159568 -14.711789 45.820713
43 0 1 4.645118 -14.150189 45.169804
44 0 1 5.464080 -13.952888 45.576908
45 0 1 6.041442 -13.829288 44.854191
46 0 1 6.421409 -14.652089 44.502903
47 0 1 6.891559 -14.067788 43.979801
48 0 1 6.715259 -13.369288 43.404209
49 0 1 5.982322 -12.811989 43.190495
50 0 1 5.653800 -13.202989 44.027897
51 0 1 4.876480 -13.347589 43.418003
52 0 1 4.821952 -14.210488 42.965519
53 0 1 4.798912 -15.018088 43.401188
54 0 1 5.631000 -14.747788 43.017216
55 0 1 6.386600 -15.080888 42.426304
56 0 1 6.887630 -15.378188 41.656406
57 0 1 7.634948 -16.136488 41.598301
58 0 1 7.794849 -15.485888 42.288609
59 0 1 8.264472 -16.287687 42.687901
60 0 1 9.037650 -15.733188 42.554691
61 0 1 8.985400 -14.921788 42.163303
62 0 1 9.119159 -14.626588 43.013309
63 0 1 9.516791 -14.332889 43.855289
64 0 1 8.912810 -13.636489 43.972813
65 0 1 9.304458 -13.146588 43.149601
66 0 1 10.156760 -13.390189 42.907291
67 0 1 10.971591 -13.768888 43.249088
68 0 1 11.799888 -14.308589 43.337009
69 0 1 11.491790 -15.191289 43.147007
70 0 1 10.908790 -15.966989 43.118412
71 0 1 10.101661 -15.953588 43.575901
72 0 1 10.146369 -16.090887 44.526310
73 0 1 9.259559 -15.811688 44.211796
74 0 1 8.708320 -16.622087 44.382603
75 0 1 7.753742 -16.728588 44.378696
76 0 1 7.382782 -17.358688 43.612003
77 0 1 6.509002 -17.321388 44.103001
78 0 1 5.804451 -17.593487 44.804600
79 0 1 5.715072 -17.644287 45.800114
80 0 1 6.455310 -17.230087 46.257694
81 0 1 6.904850 -18.089088 46.380711
82 0 1 7.544940 -17.389387 46.624302
83 0 1 8.524749 -17.265688 46.567814
84 0 1 9.324309 -16.820988 47.020817
85 0 1 9.462432 -17.233688 47.834293
86 0 1 8.908492 -17.079687 48.575016
87 0 1 8.491450 -16.367088 49.052494
88 0 1 7.716251 -16.424887 49.710819
89 0 1 7.747051 -16.584288 50.661808
90 0 1 7.836349 -17.054787 51.491306
91 0 1 8.760329 -17.053188 51.682316
92 0 1 8.287921 -17.493288 52.466099
93 0 1 8.289748 -18.467787 52.498600
94 0 1 8.364028 -18.374588 53.482792
95 0 1 9.269248 -18.037487 53.481815
96 0 1 9.352000 -17.792088 54.419315
97 0 1 10.236281 -17.375488 54.571507
98 0 1 10.244479 -16.902588 55.436008
99 0 1 11.105788 -16.584187 55.287418
100 0 1 11.943889 -16.758888 55.627018
101 0 1 12.794391 -16.349588 55.654209
102 0 1 13.165587 -15.475989 55.681889
103 0 1 14.052890 -15.745488 55.444004
104 0 1 14.660888 -15.158189 54.958012
105 0 1 15.451888 -14.782689 54.624088
106 0 1 15.528991 -14.361688 53.749821
107 0 1 15.154590 -14.242888 52.812016
108 0 1 15.297591 -13.321788 52.507511
109 0 1 14.877688 -13.054889 53.298710
110 0 1 13.950988 -13.058888 53.739201
111 0 1 14.216491 -12.715689 54.566288
112 0 1 14.618392 -12.107388 55.267704
113 0 1 14.202590 -11.589789 54.515903
114 0 1 14.762588 -11.051288 53.936314
115 0 1 15.014689 -10.140788 54.185917
116 0 1 14.490989 -9.777589 54.875309
117 0 1 13.724589 -9.308089 55.312412
118 0 1 13.809989 -8.638688 55.965611
119 0 1 14.543689 -8.947389 56.526920
120 0 1 15.447692 -8.578090 56.411594
121 0 1 14.890792 -8.009688 56.979191
122 0 1 14.070590 -8.190787 57.614201
123 0 1 13.863891 -9.054290 57.907902
124 0 1 13.494288 -8.680589 58.674107
125 0 1 13.394191 -9.466689 59.253513
126 0 1 12.752990 -9.325389 59.967411
127 0 1 11.836188 -9.106090 60.308292
128 0 1 11.825389 -8.326589 60.836796
129 0 1 12.707591 -8.532989 60.691013
130 0 1 13.092589 -7.889487 61.380894
131 0 1 13.739890 -8.643390 61.648319
132 0 1 13.502288 -9.536988 62.156193
133 0 1 13.841090 -8.864490 62.785404
134 0 1 14.102290 -8.008189 63.166599
135 0 1 13.511489 -8.498288 63.763309
136 0 1 13.470191 -9.353587 64.143982
137 0 1 12.788089 -9.778190 64.590210
138 0 1 11.975287 -10.215188 64.797394
139 0 1 11.855990 -9.349090 65.180115
140 0 1 11.022590 -9.608687 64.739410
141 0 1 10.070678 -9.585589 64.503784
142 0 1 9.398189 -9.422688 63.847111
143 0 1 8.731959 -9.496989 64.529114
144 0 1 8.241199 -8.794787 63.993107
145 0 1 8.674148 -8.539989 63.186314
146 0 1 8.785270 -7.631789 63.095615
147 0 1 8.017741 -6.976607 63.073795
148 0 1 8.214709 -6.970689 62.117496
149 0 1 7.415679 -6.847487 61.593906
150 0 1 6.955989 -6.770209 62.415104
151 0 1 6.700580 -7.688388 62.479618
152 0 1 7.395839 -7.911788 61.820499
153 0 1 8.010139 -7.678687 61.215092
154 0 1 7.457790 -8.128888 60.476994
155 0 1 6.523830 -8.025989 60.100407
156 0 1 5.502868 -7.975688 60.060398
157 0 1 4.710330 -8.217889 59.583103
158 0 1 4.024631 -8.769689 59.122196
159 0 1 4.131790 -8.546390 58.193607
160 0 1 4.847591 -7.964087 58.272007
161 0 1 5.827159 -7.990687 58.198307
162 0 1 6.667518 -7.686488 58.617619
163 0 1 7.659881 -7.509189 58.600010
164 0 1 8.163711 -7.330388 57.758915
165 0 1 8.647071 -7.874587 57.133091
166 0 1 8.326659 -7.188800 56.461613
167 0 1 8.926398 -6.570409 56.101017
168 0 1 8.882758 -7.318088 55.496311
169 0 1 8.515578 -7.794787 54.781193
170 0 1 8.794459 -8.442588 54.132694
171 0 1 9.608409 -8.529489 53.505009
172 0 1 8.657470 -8.478189 53.102512
173 0 1 8.683600 -7.641389 52.670200
174 0 1 8.719951 -6.682548 52.561100
175 0 1 8.915980 -5.752498 52.720310
176 0 1 8.884768 -6.335988 53.545994
177 0 1 9.433249 -5.927468 54.258793
178 0 1 10.032470 -5.569139 53.616306
179 0 1 10.438289 -4.656779 53.273808
180 0 1 10.888892 -3.853579 53.515507
181 0 1 11.843688 -3.704308 53.572514
182 0 1 12.833892 -3.935399 53.363407
183 0 1 13.116488 -3.237939 52.672916
184 0 1 13.378291 -2.396668 53.068607
185 0 1 13.472991 -1.523618 53.431309
186 0 1 14.122588 -1.125508 52.773808
187 0 1 14.447089 -0.227298 52.657810
188 0 1 13.547088 -0.229428 52.571415
189 0 1 12.563491 -0.503459 52.768620
190 0 1 12.070891 -1.297398 52.532200
191 0 1 11.522891 -0.592109 52.139011
192 0 1 10.914790 -0.116168 52.714909
193 0 1 11.537890 0.399011 53.318699
194 0 1 11.288089 1.001731 54.004704
195 0 1 10.721889 1.752391 53.742496
196 0 1 11.142890 2.598193 53.867405
197 0 1 11.082789 2.350494 54.774906
198 0 1 10.592391 3.145931 55.068394
199 0 1 10.597190 4.015132 54.815189
200 0 1 11.577392 4.049691 54.569096
201 0 1 11.676391 4.943742 54.747196
202 0 1 12.480392 5.093240 55.310307
203 0 1 13.333789 4.569680 55.257908
204 0 1 13.065989 3.740548 55.769413
205 0 1 13.504291 3.145803 56.342503
206 0 1 13.989989 2.833442 57.117191
207 0 1 14.780890 2.720849 56.603611
208 0 1 14.771289 1.906142 56.086094
209 0 1 15.227691 2.620145 55.610813
210 0 1 15.961490 2.398626 56.197392
211 0 1 16.335491 3.214488 56.498905
212 0 1 16.382092 3.841361 57.304508
213 0 1 15.784190 3.689689 58.111912
214 0 1 16.223190 2.870857 58.474705
215 0 1 16.208290 2.558578 59.406406
216 0 1 16.506393 3.396890 59.842197
217 0 1 16.289688 4.223552 59.467808
218 0 1 15.732490 4.839353 59.043613
219 0 1 15.560592 5.662900 58.643314
220 0 1 14.653590 6.001172 58.448795
221 0 1 15.223289 6.617913 58.048313
222 0 1 16.125992 6.596150 57.634617
223 0 1 16.556892 5.998723 57.048100
224 0 1 16.674191 6.320661 56.116001
225 0 1 15.844790 6.712220 55.877110
226 0 1 15.743091 7.601533 55.713902
227 0 1 14.808692 7.623841 55.607609
228 0 1 14.607688 8.559800 55.545994
229 0 1 15.219390 8.984963 54.943516
230 0 1 15.011989 9.704022 54.383793
231 0 1 15.356090 10.402890 54.907993
232 0 1 14.373191 10.627942 54.937412
233 0 1 13.662189 9.964662 54.543613
234 0 1 13.778388 9.440961 53.787418
235 0 1 13.588489 10.406491 53.494114
236 0 1 14.366191 10.960851 53.529606
237 0 1 14.910190 10.278382 53.023411
238 0 1 14.126689 10.454442 52.519718
239 0 1 14.401290 9.884862 51.825993
240 0 1 14.479690 9.928891 50.904911
241 0 1 13.755389 9.425622 50.526920
242 0 1 13.186492 8.630971 50.549198
243 0 1 12.682689 7.795293 50.669804
244 0 1 12.858191 8.185441 51.511600
245 0 1 13.558490 7.510713 51.797092
246 0 1 12.836692 7.640222 52.476994
247 0 1 13.496192 8.256650 52.888798
248 0 1 13.301890 9.056870 52.419987
249 0 1 14.021590 8.479062 51.905216
250 0 1 14.972487 8.119802 51.633610
251 0 1 14.939788 8.597711 50.777592
252 0 1 15.707488 8.761804 51.228611
253 0 1 16.342590 8.127652 50.812992
254 0 1 17.172989 7.939523 50.493504
255 0 1 17.754490 7.638772 49.803806
256 0 1 17.692093 7.607362 48.821201
257 0 1 17.902092 6.723523 48.544407
258 0 1 17.032593 6.444112 48.639805
259 0 1 17.485588 6.635091 49.587101
260 0 1 18.016891 5.916200 49.859989
261 0 1 18.197590 5.105821 49.377018
262 0 1 18.290092 4.383561 48.745487
263 0 1 18.453392 4.514562 47.803593
264 0 1 18.173592 5.081773 46.999607
265 0 1 19.102188 5.266393 47.221714
266 0 1 19.643089 6.050641 46.907505
267 0 1 20.355690 6.654222 47.240604
268 0 1 20.139389 7.593423 47.551792
269 0 1 20.956490 8.041272 47.275608
270 0 1 21.062290 7.838632 46.311405
271 0 1 20.746090 8.528260 45.743809
272 0 1 19.957993 8.526372 45.317020
273 0 1 19.457489 8.392850 44.541904
274 0 1 20.244888 7.744203 44.512699
275 0 1 20.715790 7.019433 44.905003
276 0 1 21.332291 7.632871 44.493290
277 0 1 22.036491 7.207143 43.945408
278 0 1 22.745789 7.355451 43.406712
279 0 1 23.299889 6.612081 43.682102
280 0 1 23.616890 7.229611 44.388309
281 0 1 24.024689 7.866662 45.007908
282 0 1 24.761890 8.246652 44.534794
283 0 1 25.697590 8.318673 44.606388
284 0 1 26.089088 9.078893 44.163792
285 0 1 26.644592 9.579190 43.525303
286 0 1 26.330490 9.688760 42.665012
287 0 1 27.105492 9.339791 42.221592
288 0 1 27.168190 10.245210 41.709812
289 0 1 27.028389 10.854840 42.429813
290 0 1 27.135788 11.864781 42.346897
291 0 1 26.390892 11.517011 41.817509
292 0 1 25.442192 11.603520 41.511417
293 0 1 24.858688 11.548680 42.317204
294 0 1 24.951290 10.625180 42.055607
295 0 1 24.137791 10.378621 41.539799
296 0 1 24.140591 9.510102 41.764103
297 0 1 24.588593 8.713471 41.982792
298 0 1 23.631889 8.433141 42.191410
299 0 1 22.908390 8.622830 41.584110
300 0 1 23.302094 8.001412 40.883701
301 0 1 22.389389 7.798001 40.852421
302 0 1 22.588989 7.310941 39.968204
303 0 1 23.017189 6.481450 39.864109
304 0 1 22.997490 6.498731 38.916996
305 0 1 23.221291 7.308282 38.450687
306 0 1 23.624092 7.889791 39.128788
307 0 1 24.390991 8.520791 39.051090
308 0 1 25.182693 8.611711 39.513798
309 0 1 25.817390 7.961083 39.654209
310 0 1 25.919491 7.977712 38.639194
311 0 1 25.702991 8.971292 38.377689
312 0 1 24.783592 9.181302 38.140202
313 0 1 24.189789 9.100053 37.368504
314 0 1 25.047791 9.469934 37.096195
315 0 1 25.633492 8.875863 36.622715
316 0 1 25.095692 8.971311 35.778294
317 0 1 24.810989 9.700391 35.113010
318 0 1 24.047791 9.248143 34.808292
319 0 1 24.051891 8.332303 34.608616
320 0 1 23.338188 8.187390 35.321598
321 0 1 23.499691 7.910993 36.311802
322 0 1 22.852089 7.518411 36.945713
323 0 1 22.156792 7.628201 37.563602
324 0 1 21.757492 6.792832 37.734898
325 0 1 21.455391 7.240861 36.935398
326 0 1 21.959290 6.599332 36.449589
327 0 1 22.319790 6.239930 35.660709
328 0 1 22.276291 5.463311 36.204197
329 0 1 22.580490 4.944432 36.932407
330 0 1 22.217194 4.133302 36.449894
331 0 1 22.720890 3.459886 35.977787
332 0 1 22.769089 2.694419 35.375187
333 0 1 23.701691 2.727966 35.377995
334 0 1 23.684090 2.422137 34.509007
335 0 1 24.234390 1.857684 35.080387
336 0 1 24.592392 1.692002 34.184513
337 0 1 23.750591 1.339381 34.119907
338 0 1 24.004189 0.606841 33.518406
339 0 1 24.457092 -0.044848 32.984501
340 0 1 24.891090 -0.838877 33.297489
341 0 1 24.880989 -1.534028 32.570499
342 0 1 24.179993 -2.084649 32.172398
343 0 1 24.370789 -2.013469 31.288790
344 0 1 24.020493 -2.110158 30.374208
345 0 1 23.587791 -1.313619 30.618196
346 0 1 24.240990 -0.636489 30.898989
347 0 1 24.684391 -0.757848 29.995302
348 0 1 25.006088 0.123592 29.760897
349 0 1 24.291092 0.039302 29.167208
350 0 1 24.594688 -0.005048 28.202089
351 0 1 23.908493 0.428802 27.631105
352 0 1 23.099892 0.922952 27.755098
353 0 1 22.753189 1.685851 28.212801
354 0 1 23.012390 2.500482 27.735811
355 0 1 22.462791 3.142524 28.164400
356 0 1 21.731194 3.468711 28.762392
357 0 1 21.573891 3.100717 29.699892
358 0 1 20.682388 2.710279 29.862490
359 0 1 20.770191 1.787770 29.660189
360 0 1 20.410492 1.620341 28.825197
361 0 1 20.295090 0.881662 28.128206
362 0 1 20.156090 0.032293 27.763308
363 0 1 20.122589 -0.261668 26.849703
364 0 1 20.147293 -0.115548 25.916811
365 0 1 19.699089 0.295011 25.128298
366 0 1 18.936089 -0.129149 24.662813
367 0 1 19.428791 -0.842358 25.015688
368 0 1 19.277893 -1.786149 24.891207
369 0 1 18.570290 -2.349547 24.928896
370 0 1 18.597488 -3.303588 24.821413
371 0 1 18.927990 -3.344477 25.736300
372 0 1 18.415894 -3.875788 26.383394
373 0 1 17.481590 -4.038249 26.169405
374 0 1 17.156693 -4.470138 25.261507
375 0 1 17.186493 -5.435687 25.155489
376 0 1 17.900993 -6.213717 24.919100
377 0 1 18.191589 -5.608729 24.091188
378 0 1 17.334290 -5.769988 23.641207
379 0 1 16.629391 -5.429679 23.048586
380 0 1 16.080193 -4.791808 23.530794
381 0 1 15.255191 -4.243030 23.661501
382 0 1 14.877589 -4.307979 22.755312
383 0 1 15.561088 -4.457368 22.109499
384 0 1 15.663989 -5.422290 22.251101
385 0 1 16.182289 -6.179248 21.901796
386 0 1 15.414290 -6.851418 21.722399
387 0 1 15.210792 -6.302157 20.817995
388 0 1 14.165587 -6.298858 20.873003
389 0 1 13.552489 -7.062928 20.828402
390 0 1 14.082690 -7.093448 21.591097
391 0 1 14.046088 -7.658488 22.359896
392 0 1 13.653590 -8.517287 22.544100
393 0 1 12.708591 -8.484488 22.296206
394 0 1 12.716990 -8.762889 23.187807
395 0 1 12.318290 -7.878188 23.379610
396 0 1 11.471091 -8.011889 22.937014
397 0 1 10.836490 -8.400088 22.238405
398 0 1 9.914931 -8.732188 22.197100
399 0 1 8.958838 -8.529689 22.198305
400 0 1 8.213901 -7.920089 22.168200
401 0 1 7.583622 -8.304189 22.792604
402 0 1 7.418922 -8.580688 23.644106
403 0 1 7.781562 -8.040488 24.458406
404 0 1 7.820270 -7.212758 24.847597
405 0 1 6.881858 -7.146459 25.231386
406 0 1 6.452442 -7.778487 24.591402
407 0 1 6.127868 -8.410989 23.951204
408 0 1 5.296779 -8.096290 23.728609
409 0 1 5.754760 -7.189609 23.634493
410 0 1 5.565711 -7.638488 22.799196
411 0 1 6.127349 -7.744088 22.043703
412 0 1 5.215160 -7.845988 21.792208
413 0 1 5.246452 -8.823989 22.123796
414 0 1 4.519699 -8.269588 22.409609
415 0 1 4.028961 -8.496287 23.153109
416 0 1 3.347720 -9.113889 22.936190
417 0 1 2.637481 -9.042588 23.620913
418 0 1 2.633300 -9.899789 23.279390
419 0 1 2.474139 -10.461589 24.092104
420 0 1 2.451610 -11.355788 23.790407
421 0 1 2.160541 -12.269789 23.645205
422 0 1 2.157569 -13.038988 24.281618
423 0 1 1.343410 -13.613889 24.165804
424 0 1 1.522880 -14.548289 24.429506
425 0 1 1.459890 -15.417588 24.813601
426 0 1 0.864387 -16.164188 25.098696
427 0 1 0.031867 -16.561487 24.961000
428 0 1 0.580081 -17.157587 24.545015
429 0 1 0.889663 -18.103388 24.583101
430 0 1 1.852378 -17.791187 24.686098
431 0 1 2.745200 -18.002188 24.700594
432 0 1 3.601230 -18.438887 24.833101
433 0 1 4.413181 -18.669888 25.418215
434 0 1 4.810241 -18.809387 26.333986
435 0 1 4.356559 -19.359787 27.040712
436 0 1 4.133209 -18.366888 27.142305
437 0 1 3.383231 -18.835287 27.514193
438 0 1 3.430228 -18.832388 28.525301
439 0 1 2.987800 -18.645788 29.410402
440 0 1 2.627029 -19.483187 29.220491
441 0 1 1.597711 -19.481688 29.031496
442 0 1 1.518951 -19.198587 29.984194
443 0 1 2.400440 -19.366087 30.353212
444 0 1 3.400981 -19.476288 30.519411
445 0 1 3.656471 -20.410988 30.225588
446 0 1 3.107009 -21.000187 29.727205
447 0 1 3.577789 -21.758787 29.306398
448 0 1 2.813911 -21.821388 28.668001
449 0 1 1.974231 -21.474588 28.378908
450 0 1 1.492391 -20.671787 28.481600
451 0 1 1.680240 -20.201988 27.603518
452 0 1 1.975490 -20.888088 26.952394
453 0 1 2.116962 -20.046387 26.513613
454 0 1 2.776092 -19.500387 26.006197
455 0 1 2.091899 -19.015387 26.550814
456 0 1 2.435729 -18.244488 27.003786
457 0 1 2.977760 -17.509787 26.637697
458 0 1 2.488349 -16.905188 26.029696
459 0 1 2.633300 -16.171888 26.542910
460 0 1 3.481620 -16.445288 26.818911
461 0 1 3.772411 -16.572187 27.687716
462 0 1 4.100749 -15.926589 28.255709
463 0 1 5.056819 -15.649089 28.326998
464 0 1 4.747859 -14.934789 28.856905
465 0 1 4.759292 -15.069488 29.831606
466 0 1 3.939151 -15.540189 30.092409
467 0 1 3.558521 -15.715388 29.281801
468 0 1 3.279670 -14.829389 29.019808
469 0 1 3.783881 -14.368588 29.724703
470 0 1 3.820251 -14.427089 30.689791
471 0 1 4.763679 -14.485888 30.688906
472 0 1 5.721981 -14.751988 30.768892
473 0 1 6.066398 -14.979888 29.795504
474 0 1 6.876312 -14.776389 30.199190
475 0 1 7.084949 -14.554389 31.247316
476 0 1 7.633102 -14.922189 32.005192
477 0 1 8.450068 -14.426288 31.888491
478 0 1 9.014270 -14.319188 32.603611
479 0 1 9.568839 -14.958488 32.238712
480 0 1 10.031749 -14.159789 31.988405
481 0 1 10.184939 -13.345288 32.445408
482 0 1 9.384490 -13.116988 32.892216
483 0 1 9.116271 -12.222089 33.048313
484 0 1 8.214469 -11.890388 33.378513
485 0 1 7.610832 -11.160289 33.054600
486 0 1 6.682449 -11.079688 32.885807
487 0 1 5.870582 -11.513988 33.112309
488 0 1 5.842510 -11.178187 32.206608
489 0 1 5.165191 -10.506587 32.076420
490 0 1 4.368530 -10.080388 31.682405
491 0 1 3.689449 -9.417689 31.461702
492 0 1 3.184230 -10.041289 31.876314
493 0 1 2.401561 -9.695289 32.302006
494 0 1 1.640769 -9.223088 31.903902
495 0 1 1.707050 -10.118388 31.781893
496 0 1 1.705220 -10.060988 30.796114
497 0 1 1.468551 -10.481387 29.966799
498 0 1 0.998655 -10.128989 29.189211
499 0 1 1.158794 -9.908689 28.305696
500 0 1 0.294277 -10.018889 27.794710
501 0 1 0.624307 -9.084088 27.623903
502 0 1 0.114639 -8.665088 26.882113
503 0 1 -0.517394 -8.228587 26.371614
504 0 1 -1.279870 -8.586989 26.813601
505 0 1 -2.065730 -8.401288 26.210390
506 0 1 -2.694899 -9.123288 26.259493
507 0 1 -2.380299 -9.980887 25.934511
508 0 1 -2.052930 -10.731589 26.483400
509 0 1 -1.069560 -10.851289 26.479799
510 0 1 -1.529969 -11.654788 26.834902
511 0 1 -1.592881 -12.620289 26.851015
512 0 1 -1.545790 -13.236388 27.674410
513 0 1 -1.781350 -13.643888 28.544313
514 0 1 -1.346841 -13.363389 29.310305
515 0 1 -1.563090 -13.789788 30.213991
516 0 1 -2.564521 -13.791289 30.266390
517 0 1 -2.471150 -14.247489 31.116304
518 0 1 -1.548600 -14.150088 31.398714
519 0 1 -1.125550 -14.584689 32.220798
520 0 1 -0.279280 -14.913688 32.614414
521 0 1 0.352989 -15.569789 32.854313
522 0 1 0.166259 -15.299388 33.771702
523 0 1 -0.060120 -15.851089 34.504795
524 0 1 -0.801310 -15.301888 34.973606
525 0 1 -0.583529 -14.538888 34.464207
526 0 1 -1.449811 -14.236688 34.223209
527 0 1 -2.085860 -13.736989 34.686893
528 0 1 -1.711690 -14.098289 35.523716
529 0 1 -1.106999 -13.313788 35.467716
530 0 1 -1.438359 -12.755589 36.125614
531 0 1 -1.067139 -11.837688 35.935398
532 0 1 -1.364199 -11.440989 35.172489
533 0 1 -1.880130 -11.761989 34.450291
534 0 1 -2.673520 -11.691688 35.139408
535 0 1 -3.326951 -11.736588 34.391911
536 0 1 -4.241971 -11.397689 34.553013
537 0 1 -4.375039 -12.245089 34.365604
538 0 1 -4.321789 -13.219789 34.587894
539 0 1 -4.853730 -14.030889 34.932407
540 0 1 -4.870169 -14.894088 35.274693
541 0 1 -4.279969 -15.187488 35.982212
542 0 1 -3.691510 -15.186389 36.726810
543 0 1 -3.331530 -15.444688 37.523991
544 0 1 -2.609620 -16.118187 37.567204
545 0 1 -2.662471 -16.017687 38.556705
546 0 1 -2.344620 -15.341689 39.134007
547 0 1 -3.034840 -14.752288 39.187595
548 0 1 -2.956860 -14.102288 38.485111
549 0 1 -2.606839 -13.237888 38.560307
550 0 1 -2.571231 -12.309388 38.590305
551 0 1 -3.359280 -12.204988 38.056095
552 0 1 -3.659060 -11.356488 37.824497
553 0 1 -4.592829 -11.396689 37.585209
554 0 1 -5.339900 -11.423188 38.051792
555 0 1 -6.082539 -11.266889 37.502018
556 0 1 -6.484700 -10.453189 37.699497
557 0 1 -6.311390 -9.936389 36.981388
558 0 1 -6.975770 -9.201789 37.062687
559 0 1 -7.110169 -8.522088 36.266117
560 0 1 -7.458600 -8.046088 35.479008
561 0 1 -7.874501 -7.334088 35.007206
562 0 1 -7.995209 -6.434348 34.635197
563 0 1 -8.809690 -5.939849 34.730595
564 0 1 -9.466380 -6.353038 35.339207
565 0 1 -8.898780 -7.139298 35.591496
566 0 1 -9.453321 -7.491790 34.785404
567 0 1 -9.711680 -6.663768 34.327610
568 0 1 -9.797311 -5.906419 33.792393
569 0 1 -9.919610 -5.031478 34.243107
570 0 1 -10.288810 -4.527858 33.491306
571 0 1 -11.134610 -4.160728 33.158115
572 0 1 -11.301209 -3.315358 33.453007
573 0 1 -10.593411 -2.895938 33.910496
574 0 1 -10.835710 -2.278338 34.646214
575 0 1 -11.672509 -2.407159 35.250095
576 0 1 -11.001611 -3.063908 35.517612
577 0 1 -11.055211 -2.470488 36.204716
578 0 1 -10.735211 -3.017129 36.868809
579 0 1 -11.439410 -2.372788 37.375614
580 0 1 -12.098510 -2.287108 36.656803
581 0 1 -12.495709 -1.670218 37.200596
582 0 1 -11.897111 -0.926959 37.320988
583 0 1 -11.078309 -1.341008 37.516209
584 0 1 -10.642110 -1.690389 38.281406
585 0 1 -9.974511 -2.385949 38.234989
586 0 1 -10.450610 -3.229598 38.249821
587 0 1 -10.766210 -4.173009 38.391788
588 0 1 -11.321710 -4.674329 38.991703
589 0 1 -10.386811 -4.949538 39.150791
590 0 1 -10.099210 -4.441018 39.976688
591 0 1 -9.180409 -4.577918 39.731388
592 0 1 -8.734220 -3.762217 40.135593
593 0 1 -7.855931 -3.705378 40.517399
594 0 1 -7.746171 -4.610299 40.348515
595 0 1 -7.980999 -5.024318 39.543705
596 0 1 -7.324320 -5.748088 39.825108
597 0 1 -6.620440 -5.283549 40.340916
598 0 1 -5.970570 -5.749518 40.908207
599 0 1 -5.193760 -5.853580 40.304203
600 0 1 -5.231190 -6.709308 39.857121
601 0 1 -4.952570 -7.570189 40.044498
602 0 1 -3.940890 -7.684489 40.013493
603 0 1 -3.194850 -7.475589 40.498600
604 0 1 -3.029900 -8.207889 41.035404
605 0 1 -2.443579 -7.734588 41.631199
606 0 1 -1.838450 -7.594588 42.373112
607 0 1 -2.139210 -7.184409 43.192997
608 0 1 -2.611769 -7.508788 43.971897
609 0 1 -1.923159 -6.761767 44.297489
610 0 1 -2.583621 -6.373919 44.888309
611 0 1 -2.047959 -5.613639 44.728214
612 0 1 -2.443120 -4.956199 45.405704
613 0 1 -2.025920 -4.193639 44.833805
614 0 1 -1.272259 -4.728389 44.599918
615 0 1 -1.365069 -4.356889 45.483311
616 0 1 -1.807780 -4.491488 46.344120
617 0 1 -1.448680 -5.107238 47.017521
618 0 1 -1.970460 -5.813008 47.308720
619 0 1 -2.878541 -6.070909 47.646488
620 0 1 -3.096579 -5.998500 48.665409
621 0 1 -2.321231 -6.297399 49.126102
622 0 1 -2.836911 -6.445899 49.910099
623 0 1 -2.087991 -7.015227 50.213108
624 0 1 -2.377410 -7.538188 50.942020
625 0 1 -1.392380 -7.578689 51.169315
626 0 1 -1.886889 -6.725598 51.247898
627 0 1 -1.002490 -6.428748 51.344395
628 0 1 -1.254189 -5.964099 50.455021
629 0 1 -0.882741 -5.381799 51.192814
630 0 1 -0.348496 -4.646548 51.108402
631 0 1 -0.576882 -3.740298 50.933201
632 0 1 -0.691378 -3.266938 51.738895
633 0 1 -1.606431 -3.334079 51.633488
634 0 1 -1.645289 -3.349707 52.572208
635 0 1 -2.634391 -3.322158 52.536320
636 0 1 -2.938620 -3.649468 53.344517
637 0 1 -3.203900 -3.311007 54.219303
638 0 1 -3.374760 -3.059218 55.134007
639 0 1 -2.497060 -2.586238 55.284489
640 0 1 -2.588940 -2.536349 56.257114
641 0 1 -3.070550 -1.753238 55.975193
642 0 1 -3.980580 -1.912047 55.669498
643 0 1 -4.258330 -1.075667 55.994114
644 0 1 -4.932560 -0.696408 56.566410
645 0 1 -5.858120 -0.873507 56.738010
646 0 1 -6.711560 -0.971938 56.160404
647 0 1 -7.074509 -0.176928 55.740391
648 0 1 -7.231169 0.540351 55.086308
649 0 1 -6.317750 0.390151 54.771091
650 0 1 -5.503239 -0.024119 54.890415
651 0 1 -5.494519 -0.421679 54.038395
652 0 1 -5.151370 -0.242139 53.153690
653 0 1 -5.705941 -0.816397 52.533390
654 0 1 -6.497740 -0.289578 52.809605
655 0 1 -6.026230 0.530502 52.697697
656 0 1 -5.488120 1.268642 52.442204
657 0 1 -4.861399 1.456622 53.163914
658 0 1 -4.690920 2.147279 52.464909
659 0 1 -5.213311 2.881223 52.262699
660 0 1 -4.690060 2.801933 51.508091
661 0 1 -5.157990 3.548547 51.016392
662 0 1 -5.871939 3.846872 50.481998
663 0 1 -6.101510 4.764401 50.470890
664 0 1 -5.138760 4.628800 50.421604
665 0 1 -4.880059 5.406743 50.867619
666 0 1 -4.140709 6.044110 51.185612
667 0 1 -3.685019 6.879083 51.193119
668 0 1 -3.754651 6.470273 52.057194
669 0 1 -3.684819 5.509652 52.280094
670 0 1 -2.717160 5.490350 52.382694
671 0 1 -2.258210 6.322011 52.290897
672 0 1 -1.629760 5.643052 52.129612
673 0 1 -1.783459 5.240842 52.998203
674 0 1 -1.096850 5.354260 53.644108
675 0 1 -1.452620 6.155412 54.011997
676 0 1 -1.508790 5.740453 54.891788
677 0 1 -2.092120 5.051961 54.591709
678 0 1 -2.973550 5.290002 54.824497
679 0 1 -2.614011 6.002702 54.302708
680 0 1 -2.288739 6.729611 54.893803
681 0 1 -2.359799 7.584943 54.562107
682 0 1 -2.404990 8.548322 54.443394
683 0 1 -3.164321 8.996263 54.761417
684 0 1 -3.215270 9.066972 55.674320
685 0 1 -2.850091 8.624543 56.417301
686 0 1 -3.553090 8.707940 57.099094
687 0 1 -2.736609 9.272042 57.221806
688 0 1 -2.652459 10.238332 57.104710
689 0 1 -2.066500 10.959580 56.742619
690 0 1 -1.198060 10.621480 56.966709
691 0 1 -0.290627 10.979253 57.063602
692 0 1 0.552678 10.716771 56.649418
693 0 1 0.484203 11.750672 56.534306
694 0 1 0.561988 12.710622 56.497318
695 0 1 0.495572 12.821511 57.444492
696 0 1 -0.484437 12.659570 57.480106
697 0 1 -0.804030 13.527310 57.650089
698 0 1 -1.456549 13.820210 56.958408
699 0 1 -0.989480 14.178811 56.191410
700 0 1 -0.424174 13.492711 55.897587
701 0 1 0.324609 14.048211 55.733311
702 0 1 1.079835 14.048310 55.128391
703 0 1 1.994350 14.000012 54.876804
704 0 1 1.789031 14.822011 55.400394
705 0 1 2.411128 15.284013 54.751713
706 0 1 1.575710 15.753411 54.810795
707 0 1 0.682479 15.602914 55.177799
708 0 1 -0.049582 15.070611 55.497318
709 0 1 -1.029361 15.131211 55.810917
710 0 1 -0.684813 15.591012 56.586613
711 0 1 -1.003720 15.509110 57.480198
712 0 1 -0.425660 16.157812 57.957005
713 0 1 0.201991 16.026613 57.279392
714 0 1 0.869209 16.592611 56.869511
715 0 1 0.931463 17.468813 56.512913
716 0 1 1.141080 17.824511 55.610600
717 0 1 0.823114 18.720213 55.323215
718 0 1 0.350400 18.601713 54.517521
719 0 1 0.141460 19.428011 54.026096
720 0 1 0.755912 19.920713 54.569614
721 0 1 0.406865 20.563715 53.854191
722 0 1 0.576734 20.124514 53.034397
723 0 1 0.561090 20.763613 52.296299
724 0 1 1.035039 20.022112 51.861698
725 0 1 1.218374 19.297312 51.302402
726 0 1 1.717160 19.462511 50.503391
727 0 1 1.086032 19.689112 49.785709
728 0 1 1.398610 20.536112 49.952702
729 0 1 2.283279 20.169413 49.803593
730 0 1 3.063232 19.781313 50.173100
731 0 1 3.993350 19.450815 50.045200
732 0 1 3.605239 18.949812 49.323795
733 0 1 4.023502 18.688814 48.509892
734 0 1 3.129070 18.624212 48.215397
735 0 1 2.998092 18.675211 47.284702
736 0 1 3.906390 18.846113 47.208897
737 0 1 4.516441 19.350512 46.587498
738 0 1 3.855201 20.012213 46.390903
739 0 1 3.026901 20.362711 45.971989
740 0 1 2.129649 20.391012 45.468601
741 0 1 2.365100 20.915113 44.685398
742 0 1 2.532581 20.401712 43.885807
743 0 1 3.460151 20.360212 43.649296
744 0 1 2.915031 20.377012 42.831394
745 0 1 2.984809 20.635813 41.919010
746 0 1 3.235862 19.882113 41.437504
747 0 1 2.326629 19.840311 41.092991
748 0 1 1.502731 19.737112 41.515110
749 0 1 0.749614 19.604612 40.820194
750 0 1 0.419277 18.982813 40.205906
751 0 1 0.131534 19.634310 39.543491
752 0 1 -0.706742 19.191111 39.721806
753 0 1 -1.442300 18.857012 39.127506
754 0 1 -2.223050 19.188311 38.644016
755 0 1 -2.433610 20.015314 39.124699
756 0 1 -3.181849 19.423212 39.063511
757 0 1 -3.110230 19.469912 40.022892
758 0 1 -3.909590 18.858110 40.170292
759 0 1 -4.701161 18.561213 40.629704
760 0 1 -5.005021 19.433313 40.811100
761 0 1 -4.871850 20.236414 41.241306
762 0 1 -4.577460 20.850912 41.885990
763 0 1 -5.385340 21.062410 42.372013
764 0 1 -4.979170 20.238012 42.718998
765 0 1 -5.470450 19.785410 43.338291
766 0 1 -6.151650 19.168112 43.297916
767 0 1 -6.320269 18.396013 43.837406
768 0 1 -7.209870 18.097914 43.703190
769 0 1 -6.930029 17.199411 43.683201
770 0 1 -6.461739 17.083811 44.568119
771 0 1 -5.883040 16.902414 45.275089
772 0 1 -6.541039 17.460913 45.593693
773 0 1 -7.429770 17.124311 45.298801
774 0 1 -7.810021 16.534613 45.924412
775 0 1 -8.548230 16.334414 45.358402
776 0 1 -8.560689 15.392911 45.439518
777 0 1 -8.646800 15.492913 46.378910
778 0 1 -9.016521 15.587609 47.207005
779 0 1 -9.161700 15.218812 48.088810
780 0 1 -9.366830 16.095613 48.289799
781 0 1 -8.660550 16.813013 48.053104
782 0 1 -8.436450 16.738611 47.057713
783 0 1 -9.055451 16.835711 46.287998
784 0 1 -8.894380 17.478014 45.609196
785 0 1 -9.735669 17.882814 45.474918
786 0 1 -9.527761 17.119814 44.846195
787 0 1 -10.426610 16.814211 45.110691