LAMMPS data file via MDAnalysis

        2000  atoms
        1999  bonds
           0  angles
           0  dihedrals
           0  impropers

           1  atom types
           1  bond types
           0  angle types
           0  dihedral types
           0  improper types

-30.5 30.5 xlo xhi
-30.5 30.5 ylo yhi
-233.5 233.5 zlo zhi


Masses

1 1.000000

Atoms

1 0 1 -15.445374 1.643767 70.337708
2 0 1 -15.121875 1.512100 69.398193
3 0 1 -14.575175 0.884173 69.920288
4 0 1 -13.711976 1.364687 69.793793
5 0 1 -13.200675 2.071635 69.335602
6 0 1 -13.057374 2.939715 69.759583
7 0 1 -13.507474 3.554846 69.152802
8 0 1 -13.486276 3.869246 70.066803
9 0 1 -13.107175 4.630328 70.411407
10 0 1 -13.912875 4.566676 71.001495
11 0 1 -13.269675 4.889086 71.592194
12 0 1 -13.249175 5.788146 70.995697
13 0 1 -13.492574 6.004477 70.104706
14 0 1 -12.778665 5.941767 69.454895
15 0 1 -11.790006 6.185286 69.625702
16 0 1 -11.657956 6.176478 70.541290
17 0 1 -11.347156 6.583178 71.344391
18 0 1 -11.782435 5.880457 71.789795
19 0 1 -12.367066 6.466895 72.202301
20 0 1 -12.599095 6.702387 73.074097
21 0 1 -12.556115 7.683157 72.884216
22 0 1 -12.881705 7.801245 73.780212
23 0 1 -12.067864 8.130648 74.145294
24 0 1 -11.372136 8.737497 73.907104
25 0 1 -10.726954 9.232134 73.332703
26 0 1 -10.171445 8.852976 72.627991
27 0 1 -10.058316 8.757334 71.742493
28 0 1 -9.861806 8.964025 70.781097
29 0 1 -10.442445 9.095957 70.037415
30 0 1 -11.367005 8.831366 70.202515
31 0 1 -11.785375 9.575434 70.696289
32 0 1 -11.257306 9.142405 71.350006
33 0 1 -11.870084 9.893126 71.739899
34 0 1 -12.808125 9.983786 71.661011
35 0 1 -13.292676 10.039816 72.561310
36 0 1 -14.228475 10.320936 72.273102
37 0 1 -14.653975 9.499365 72.309814
38 0 1 -14.439775 9.861925 73.168091
39 0 1 -13.580976 9.866415 73.686401
40 0 1 -12.841207 10.357645 73.446289
41 0 1 -13.382474 10.772505 74.147705
42 0 1 -13.989175 10.206186 74.588409
43 0 1 -14.879674 10.348005 74.451416
44 0 1 -15.699174 10.842905 74.274200
45 0 1 -15.956174 10.049387 73.753418
46 0 1 -16.686573 9.608847 74.226196
47 0 1 -16.522175 8.876024 74.826202
48 0 1 -16.459074 7.971995 75.251404
49 0 1 -17.038475 7.612116 75.946899
50 0 1 -17.358274 7.299044 76.779999
51 0 1 -17.502975 8.250875 76.746796
52 0 1 -18.032875 8.503855 77.506287
53 0 1 -18.804674 7.937258 77.893005
54 0 1 -19.272875 7.348517 78.533813
55 0 1 -19.165575 6.957476 79.421204
56 0 1 -19.968575 6.527167 79.749603
57 0 1 -20.498573 7.237818 79.985809
58 0 1 -20.397074 8.106207 80.457092
59 0 1 -21.302673 8.352114 80.519501
60 0 1 -21.932674 7.717326 80.846100
61 0 1 -22.406174 7.623976 79.962494
62 0 1 -22.952175 6.857615 79.717804
63 0 1 -23.813574 6.983157 80.154510
64 0 1 -24.768574 6.977606 80.083710
65 0 1 -24.516575 7.913897 80.346893
66 0 1 -24.811874 8.624643 79.784302
67 0 1 -25.170074 9.031847 80.527496
68 0 1 -25.401375 8.427114 81.335083
69 0 1 -26.155874 8.571436 80.686890
70 0 1 -26.955975 8.892214 80.247101
71 0 1 -27.635874 8.804567 80.953796
72 0 1 -28.143074 8.000715 80.930298
73 0 1 -28.281475 7.281687 80.267212
74 0 1 -28.707575 6.499625 80.615417
75 0 1 -28.734274 6.069705 81.521210
76 0 1 -28.509773 6.988566 81.488403
77 0 1 -27.563475 7.036097 81.501801
78 0 1 -28.004873 7.524107 82.252686
79 0 1 -28.276875 8.247786 82.897705
80 0 1 -28.345074 8.525797 83.838806
81 0 1 -28.274174 7.893126 84.583008
82 0 1 -28.228874 7.163615 83.970581
83 0 1 -29.138374 7.240576 84.377899
84 0 1 -29.469275 7.775797 85.063507
85 0 1 -29.951475 8.362757 84.554108
86 0 1 -30.779274 8.285856 84.972412
87 0 1 -30.463175 8.145475 85.867889
88 0 1 -30.750874 7.783225 86.706390
89 0 1 -30.516474 6.915877 86.420105
90 0 1 -30.167074 6.070986 86.791199
91 0 1 -30.527075 5.700305 85.965088
92 0 1 -30.546274 4.890734 85.420715
93 0 1 -29.943474 4.803816 86.169800
94 0 1 -30.552074 4.663245 86.978302
95 0 1 -30.290474 4.693888 87.893616
96 0 1 -30.113773 4.332728 88.804688
97 0 1 -29.473475 4.599436 89.515991
98 0 1 -30.266474 4.779517 90.087494
99 0 1 -30.807974 5.620745 90.169800
100 0 1 -31.570974 6.118796 90.300507
101 0 1 -31.453875 6.774325 90.964203
102 0 1 -30.814474 6.356116 91.508911
103 0 1 -31.269674 5.755255 92.042511
104 0 1 -31.375275 5.030287 92.647308
105 0 1 -30.724674 4.770377 92.007690
106 0 1 -30.124674 4.619647 92.775696
107 0 1 -29.626675 3.858958 92.432800
108 0 1 -28.934275 3.977988 91.775604
109 0 1 -29.229574 3.141585 91.382019
110 0 1 -28.674274 2.467898 90.954193
111 0 1 -28.748074 1.880137 90.222412
112 0 1 -28.875275 1.068682 89.634583
113 0 1 -28.534575 0.506768 88.957214
114 0 1 -28.549173 -0.308420 89.447083
115 0 1 -28.961473 -0.328500 90.339783
116 0 1 -28.274975 0.059321 90.858398
117 0 1 -27.693773 0.324021 90.190613
118 0 1 -26.838474 0.581131 90.603210
119 0 1 -26.204174 1.335337 90.377106
120 0 1 -25.267475 1.246479 90.230896
121 0 1 -25.592875 1.999285 89.622894
122 0 1 -25.044174 2.680895 89.238190
123 0 1 -25.319775 3.056708 88.390411
124 0 1 -25.107374 3.975065 88.424896
125 0 1 -25.362574 4.398516 89.302795
126 0 1 -24.570374 4.906836 89.063599
127 0 1 -24.562473 5.656985 88.488892
128 0 1 -24.702675 6.440657 89.173798
129 0 1 -24.340174 7.245986 89.656982
130 0 1 -24.494175 8.176596 89.485718
131 0 1 -25.024475 8.909876 89.057007
132 0 1 -24.120174 9.238817 89.073303
133 0 1 -23.445873 8.989084 89.696503
134 0 1 -22.811974 8.819666 90.395508
135 0 1 -22.121674 8.284925 90.572205
136 0 1 -22.058075 8.304575 89.609711
137 0 1 -21.486874 7.537638 89.763489
138 0 1 -21.705574 7.507025 88.774811
139 0 1 -22.517374 7.698695 88.346893
140 0 1 -22.194674 7.474886 87.517883
141 0 1 -22.479874 6.645148 87.952515
142 0 1 -23.307573 7.120455 87.932190
143 0 1 -23.238474 7.100836 86.998291
144 0 1 -22.521275 6.532717 86.671509
145 0 1 -21.815075 6.085948 86.118408
146 0 1 -21.575674 5.700346 85.294983
147 0 1 -21.240873 5.743346 84.444305
148 0 1 -21.072575 5.262076 83.650818
149 0 1 -20.155674 4.875475 83.469910
150 0 1 -19.268675 5.113398 83.794098
151 0 1 -19.230774 4.329276 83.286896
152 0 1 -18.829674 4.799098 82.460083
153 0 1 -17.895975 4.485674 82.247711
154 0 1 -18.303074 5.169497 81.576294
155 0 1 -17.987074 5.849516 80.984894
156 0 1 -18.244576 6.647536 81.364807
157 0 1 -17.977375 7.058577 80.501190
158 0 1 -18.780174 7.550738 80.802094
159 0 1 -18.465275 7.836558 79.938690
160 0 1 -18.639574 8.772406 79.889801
161 0 1 -18.068575 9.279985 80.479797
162 0 1 -17.497574 9.630846 81.197906
163 0 1 -16.861675 9.051565 80.756592
164 0 1 -16.424873 9.103815 81.623413
165 0 1 -15.481576 8.937456 81.956390
166 0 1 -14.784175 8.316416 81.643616
167 0 1 -14.086774 8.615065 81.129883
168 0 1 -14.355975 7.929247 80.477600
169 0 1 -13.802476 7.210948 80.699097
170 0 1 -13.983377 7.193896 79.750488
171 0 1 -14.701276 7.673537 79.273682
172 0 1 -15.594775 7.342375 79.510986
173 0 1 -16.171474 7.029906 78.726898
174 0 1 -16.140774 6.083457 78.497009
175 0 1 -15.472177 6.372237 79.122314
176 0 1 -14.938676 5.692255 78.753204
177 0 1 -14.362576 6.396845 78.442383
178 0 1 -13.812375 5.751875 78.032898
179 0 1 -13.277276 6.547915 77.703918
180 0 1 -13.224977 5.996745 76.945496
181 0 1 -13.831376 6.447028 76.258484
182 0 1 -14.110475 6.498335 75.316406
183 0 1 -13.937776 5.622675 75.595490
184 0 1 -14.780875 5.690058 76.084412
185 0 1 -14.640975 4.769297 76.072601
186 0 1 -15.235974 4.648554 75.243286
187 0 1 -15.586976 3.777086 75.135986
188 0 1 -16.372074 4.322836 75.072998
189 0 1 -16.943174 4.103426 74.347504
190 0 1 -16.169273 3.620684 74.116608
191 0 1 -16.561573 3.187124 73.321106
192 0 1 -17.087475 2.405306 73.208893
193 0 1 -16.568974 2.112585 72.382996
194 0 1 -15.594174 2.212176 72.256714
195 0 1 -15.146474 1.354595 72.367981
196 0 1 -14.306375 1.625145 71.960083
197 0 1 -13.686574 0.965624 72.306091
198 0 1 -12.954804 0.381233 72.270203
199 0 1 -12.371896 -0.249277 72.639404
200 0 1 -11.660415 -0.946985 72.592896
201 0 1 -11.669215 -1.872934 72.830200
202 0 1 -10.938886 -1.430923 73.137695
203 0 1 -10.782296 -1.912704 73.978302
204 0 1 -11.623376 -1.661104 74.403290
205 0 1 -11.973725 -0.935785 73.790009
206 0 1 -12.722554 -1.183454 73.142212
207 0 1 -13.481675 -1.438404 72.644104
208 0 1 -12.910134 -1.255995 71.937683
209 0 1 -13.008874 -0.949125 71.043793
210 0 1 -13.905175 -1.038105 71.358093
211 0 1 -14.583875 -1.615104 71.149292
212 0 1 -15.332675 -0.953924 70.998413
213 0 1 -15.192475 -1.023914 70.060394
214 0 1 -15.760175 -0.304434 69.778503
215 0 1 -16.670975 -0.345785 69.409912
216 0 1 -16.833374 0.334696 68.736298
217 0 1 -16.375175 1.006109 68.262604
218 0 1 -15.669675 1.691376 68.405396
219 0 1 -15.006675 1.734535 67.753418
220 0 1 -15.061175 0.865454 67.306793
221 0 1 -15.827874 0.502283 66.812195
222 0 1 -15.002275 0.411108 66.394104
223 0 1 -14.241075 1.007637 66.181885
224 0 1 -14.122476 1.577936 65.450592
225 0 1 -13.377475 2.086146 65.216095
226 0 1 -12.860915 2.373038 64.412598
227 0 1 -12.401937 1.780546 63.808411
228 0 1 -12.144975 1.208342 64.548584
229 0 1 -11.391736 0.812378 64.145294
230 0 1 -11.431176 0.921105 63.207611
231 0 1 -11.350005 1.844256 63.323486
232 0 1 -10.473756 1.413965 63.503113
233 0 1 -9.897935 0.739146 63.909912
234 0 1 -8.828496 0.631258 63.972595
235 0 1 -8.161685 0.532105 64.753296
236 0 1 -8.647105 -0.292446 64.548889
237 0 1 -9.189485 -0.721933 65.192596
238 0 1 -9.184815 -0.666584 66.167908
239 0 1 -8.750306 -1.504715 65.875183
240 0 1 -8.210795 -2.014805 66.515198
241 0 1 -8.652545 -2.576664 65.868805
242 0 1 -7.747595 -2.784664 65.544891
243 0 1 -7.213614 -3.096445 64.837799
244 0 1 -6.509415 -3.057495 64.176392
245 0 1 -5.805394 -3.618013 63.980194
246 0 1 -5.709435 -3.970424 64.935699
247 0 1 -4.998045 -4.525573 65.256897
248 0 1 -5.263724 -5.369073 64.885010
249 0 1 -5.019684 -6.077714 65.514404
250 0 1 -5.618565 -6.337394 66.196106
251 0 1 -6.157704 -6.533794 66.959503
252 0 1 -6.387125 -6.786394 67.914185
253 0 1 -7.179986 -6.600543 68.411987
254 0 1 -7.083184 -5.637474 68.601105
255 0 1 -7.352025 -4.813114 68.976105
256 0 1 -6.582665 -4.689634 69.491211
257 0 1 -7.030205 -3.870264 69.655396
258 0 1 -7.769024 -4.051084 70.217590
259 0 1 -8.354535 -3.571434 69.601196
260 0 1 -8.443616 -2.907045 70.317291
261 0 1 -9.239995 -2.384695 70.470795
262 0 1 -8.405156 -1.740625 70.649689
263 0 1 -8.484475 -2.415693 71.424103
264 0 1 -9.038716 -2.200775 72.175781
265 0 1 -8.967984 -1.349973 71.823486
266 0 1 -9.388474 -0.767004 72.394989
267 0 1 -9.395234 -0.872425 73.341797
268 0 1 -9.472785 -1.794704 73.167786
269 0 1 -9.308114 -1.839365 74.066284
270 0 1 -9.877675 -1.270124 74.623718
271 0 1 -9.828795 -2.202894 75.154999
272 0 1 -9.594655 -2.447445 76.035583
273 0 1 -8.728154 -2.425514 76.387512
274 0 1 -7.989535 -2.794134 76.957611
275 0 1 -7.387345 -2.593494 76.268707
276 0 1 -6.651774 -3.139333 76.554993
277 0 1 -6.600844 -3.308935 75.580811
278 0 1 -6.865525 -2.548914 74.994598
279 0 1 -6.297894 -1.992834 74.429199
280 0 1 -5.465725 -2.365055 74.671600
281 0 1 -5.706975 -3.281885 74.399597
282 0 1 -5.719796 -4.118284 74.889404
283 0 1 -5.100115 -4.526704 74.230591
284 0 1 -4.414744 -4.961614 73.677704
285 0 1 -3.862635 -4.648424 72.902008
286 0 1 -3.097872 -4.532714 73.452515
287 0 1 -2.190411 -4.810834 73.390289
288 0 1 -2.559147 -5.304313 74.153107
289 0 1 -1.653744 -5.484745 74.213989
290 0 1 -1.191716 -6.116014 74.783905
291 0 1 -0.591645 -5.464874 75.241882
292 0 1 -0.449513 -4.760934 75.875793
293 0 1 -0.399094 -5.389743 76.701202
294 0 1 -0.228203 -6.113834 76.102997
295 0 1 0.530567 -6.718145 76.240295
296 0 1 0.932605 -7.383893 76.811401
297 0 1 1.595725 -7.044014 76.199707
298 0 1 1.973956 -7.670095 75.605103
299 0 1 1.152984 -8.037806 75.963806
300 0 1 1.584377 -8.856754 75.680115
301 0 1 0.694885 -9.058683 75.384216
302 0 1 -0.241406 -9.361586 75.559296
303 0 1 -0.751465 -10.138695 75.555389
304 0 1 0.019767 -10.714396 75.574402
305 0 1 0.598167 -11.042694 76.308289
306 0 1 -0.042115 -11.750395 76.030884
307 0 1 0.883624 -11.995394 75.727692
308 0 1 0.513824 -12.598795 76.386597
309 0 1 0.679626 -13.526394 76.750916
310 0 1 0.651313 -13.183294 77.621887
311 0 1 -0.179295 -12.726595 77.787994
312 0 1 -0.186955 -13.008696 78.751709
313 0 1 -0.160515 -12.122395 79.073486
314 0 1 -0.304825 -12.058695 80.039917
315 0 1 -0.478894 -11.627094 80.879395
316 0 1 0.384876 -11.380693 81.192017
317 0 1 1.232234 -11.494894 80.685699
318 0 1 1.277877 -11.870995 81.625305
319 0 1 2.004844 -11.738794 82.234894
320 0 1 2.098266 -11.303194 83.070709
321 0 1 2.318775 -10.410994 82.866791
322 0 1 2.868156 -9.879395 82.148407
323 0 1 3.134754 -8.941423 82.340698
324 0 1 2.219997 -9.023165 82.662903
325 0 1 1.547286 -8.416315 82.531891
326 0 1 1.264816 -9.043385 83.188782
327 0 1 0.715434 -9.254965 82.464111
328 0 1 0.182784 -9.906994 81.991791
329 0 1 -0.528946 -10.280695 81.555298
330 0 1 -0.265294 -10.442894 80.613098
331 0 1 -1.275235 -10.635595 80.524109
332 0 1 -2.006573 -10.089396 80.730194
333 0 1 -2.435658 -10.287794 79.874603
334 0 1 -2.324620 -10.862394 79.154205
335 0 1 -1.965125 -10.051495 78.865295
336 0 1 -2.878397 -9.543095 78.614319
337 0 1 -2.490246 -8.889565 79.243591
338 0 1 -2.299256 -8.248425 78.548584
339 0 1 -1.645215 -7.852212 77.952393
340 0 1 -1.419354 -6.989334 78.364319
341 0 1 -1.473553 -6.026624 78.090515
342 0 1 -2.434712 -5.920074 78.257690
343 0 1 -2.427657 -4.979543 77.994904
344 0 1 -1.450024 -4.660314 78.016510
345 0 1 -0.682446 -5.108024 78.343292
346 0 1 -0.016953 -4.506004 78.669891
347 0 1 -0.615746 -3.769584 78.966919
348 0 1 -1.036343 -2.865394 79.133606
349 0 1 -0.586403 -2.077444 79.339996
350 0 1 -0.199105 -1.439794 78.643494
351 0 1 -0.546876 -0.836975 77.979492
352 0 1 -1.073353 -0.045685 77.907593
353 0 1 -0.164994 0.459875 78.135315
354 0 1 0.167976 1.359839 78.444305
355 0 1 0.182964 1.609677 77.485199
356 0 1 0.062637 2.504305 77.185486
357 0 1 -0.122826 1.909506 76.485718
358 0 1 0.801326 1.699736 76.297791
359 0 1 1.530937 2.322367 76.443604
360 0 1 1.416187 2.064856 75.494110
361 0 1 1.620384 2.128527 74.524689
362 0 1 0.703536 1.735216 74.373291
363 0 1 0.705104 2.340327 73.595398
364 0 1 0.968616 2.998095 72.995300
365 0 1 1.700767 2.465315 73.403809
366 0 1 2.078147 2.422278 72.475006
367 0 1 2.233356 3.410284 72.640106
368 0 1 2.393604 4.431345 72.703003
369 0 1 3.035057 4.819697 73.226990
370 0 1 3.872665 4.392855 73.288086
371 0 1 4.812637 4.390597 73.315308
372 0 1 4.599067 3.441244 73.207489
373 0 1 5.459854 3.153235 72.822906
374 0 1 5.042366 2.336375 72.930695
375 0 1 5.833866 1.922896 73.181396
376 0 1 6.253776 1.119782 73.537415
377 0 1 6.153934 0.361656 72.967712
378 0 1 6.427516 0.063183 72.127411
379 0 1 6.071094 0.671396 71.482117
380 0 1 5.555053 -0.119034 71.210297
381 0 1 5.428627 -0.989025 70.801697
382 0 1 5.732765 -0.723474 69.921997
383 0 1 5.750038 -1.253134 69.181793
384 0 1 5.513385 -2.243173 69.187683
385 0 1 6.407875 -2.419063 68.779419
386 0 1 5.584445 -2.900734 68.492889
387 0 1 4.740837 -3.319013 68.193390
388 0 1 4.129356 -2.644563 68.333710
389 0 1 3.161075 -2.713773 68.254089
390 0 1 2.385574 -2.773405 67.710510
391 0 1 1.688346 -2.896974 68.434814
392 0 1 1.499866 -3.717325 68.806519
393 0 1 1.153156 -3.763963 67.912994
394 0 1 1.152236 -4.722555 67.813202
395 0 1 0.607566 -5.419904 67.275696
396 0 1 0.140987 -4.796613 67.844208
397 0 1 -0.804246 -4.873224 67.639496
398 0 1 -0.545044 -4.810504 66.665283
399 0 1 -0.685624 -4.682775 65.751709
400 0 1 0.000125 -5.240345 65.476685
401 0 1 0.795806 -5.760494 65.350708
402 0 1 1.180286 -4.984563 65.674316
403 0 1 2.081985 -4.766603 65.513702
404 0 1 1.833545 -5.442714 64.876892
405 0 1 2.594184 -5.855623 64.442505
406 0 1 3.142524 -6.385293 63.855194
407 0 1 3.112297 -6.386453 62.924805
408 0 1 2.315265 -6.666114 62.442993
409 0 1 2.460544 -6.753213 61.498901
410 0 1 1.652107 -7.293005 61.581787
411 0 1 1.603156 -6.457553 60.932709
412 0 1 1.094985 -6.473623 60.127014
413 0 1 1.600597 -6.664814 59.366089
414 0 1 1.430034 -5.918413 58.786102
415 0 1 1.107276 -5.401704 58.017517
416 0 1 0.818473 -4.630683 58.473907
417 0 1 1.328296 -3.935564 57.989410
418 0 1 1.311065 -3.184885 58.607605
419 0 1 0.330707 -2.833925 58.454285
420 0 1 -0.337834 -2.550325 59.084198
421 0 1 -0.086495 -2.411733 59.968109
422 0 1 -0.442395 -1.639154 60.442291
423 0 1 0.279037 -1.282194 59.940887
424 0 1 0.837966 -0.507704 59.840790
425 0 1 0.454486 -0.211521 58.937317
426 0 1 1.094676 -0.227199 58.213501
427 0 1 1.040656 -0.039837 57.295410
428 0 1 0.369266 -0.576404 56.879395
429 0 1 0.149345 0.347000 56.898315
430 0 1 -0.059876 1.063486 57.601105
431 0 1 0.836074 1.339222 57.368195
432 0 1 1.658714 0.870501 57.473694
433 0 1 1.429565 1.520155 58.244690
434 0 1 2.290206 1.535885 58.677490
435 0 1 2.252845 2.393748 58.334412
436 0 1 2.545005 2.590056 57.346405
437 0 1 2.743865 3.515856 57.101898
438 0 1 2.640506 3.278647 56.137390
439 0 1 3.520275 3.341696 55.745789
440 0 1 3.289165 3.769594 54.849396
441 0 1 2.735294 3.296225 54.206696
442 0 1 3.023834 2.694247 53.620300
443 0 1 3.491966 1.823946 53.602783
444 0 1 3.888725 1.536606 54.543213
445 0 1 3.364547 2.343836 54.655609
446 0 1 2.647445 1.862116 54.304291
447 0 1 2.090705 1.120804 54.780090
448 0 1 2.276176 0.371434 54.193909
449 0 1 1.439666 0.180741 53.764587
450 0 1 0.812286 0.897446 53.646393
451 0 1 0.462875 1.476549 52.970490
452 0 1 0.878387 0.788786 52.461914
453 0 1 0.810584 1.231034 51.639404
454 0 1 0.403675 0.830853 50.891296
455 0 1 0.296894 1.275505 49.942108
456 0 1 -0.059636 0.537152 49.349396
457 0 1 -0.974633 0.254921 48.978302
458 0 1 -1.848654 0.295899 49.260712
459 0 1 -2.617892 0.730107 49.617401
460 0 1 -2.954316 1.563076 49.969696
461 0 1 -2.143322 2.020426 50.249390
462 0 1 -2.238381 2.090166 51.185394
463 0 1 -1.430886 1.614805 51.414612
464 0 1 -1.799605 1.069641 52.121307
465 0 1 -2.495581 0.474058 52.272705
466 0 1 -1.966624 -0.362875 52.219513
467 0 1 -1.520785 -0.732115 53.071198
468 0 1 -2.485810 -0.560335 53.226990
469 0 1 -2.385552 -1.439144 53.550995
470 0 1 -1.533644 -1.838585 53.222198
471 0 1 -1.329075 -2.760254 53.045593
472 0 1 -0.632584 -2.515545 52.456299
473 0 1 -0.071854 -2.960314 51.888092
474 0 1 0.584194 -2.499704 52.317993
475 0 1 0.117107 -2.872064 53.132904
476 0 1 0.897537 -3.222093 53.605103
477 0 1 0.556514 -3.650654 54.399414
478 0 1 -0.399434 -3.504934 54.329895
479 0 1 -0.445496 -4.382564 54.669495
480 0 1 -1.010304 -4.342865 53.908295
481 0 1 -1.633755 -5.053594 54.116302
482 0 1 -2.199936 -4.699163 54.775604
483 0 1 -2.212628 -4.279905 55.603516
484 0 1 -2.424151 -3.359773 55.330505
485 0 1 -2.546814 -2.437605 55.355896
486 0 1 -3.470120 -2.179313 55.142792
487 0 1 -4.119915 -2.821295 55.226685
488 0 1 -4.343276 -3.061224 56.167908
489 0 1 -4.530684 -2.495485 56.902405
490 0 1 -4.958395 -2.225275 57.684387
491 0 1 -4.157395 -2.196884 58.177094
492 0 1 -4.663224 -1.410925 58.366211
493 0 1 -4.498034 -0.895324 57.608490
494 0 1 -4.909924 -0.028694 57.292389
495 0 1 -4.269555 0.483685 57.803711
496 0 1 -4.925324 0.861573 58.415100
497 0 1 -4.958874 1.780525 58.336914
498 0 1 -5.689724 1.502871 58.796387
499 0 1 -5.249175 2.299185 59.223206
500 0 1 -5.806096 2.716734 60.078094
501 0 1 -5.838814 3.512137 59.542297
502 0 1 -5.139725 4.200716 59.398987
503 0 1 -4.852475 5.027068 59.653198
504 0 1 -5.266484 5.782145 59.970703
505 0 1 -4.870924 6.706507 60.004211
506 0 1 -4.212475 7.293604 60.459503
507 0 1 -4.403025 7.538016 61.414093
508 0 1 -5.265795 7.136157 61.412811
509 0 1 -5.895125 7.393015 60.723694
510 0 1 -6.801964 7.153018 60.510315
511 0 1 -7.172795 7.116988 59.602905
512 0 1 -8.061776 7.400847 59.396790
513 0 1 -7.981684 8.227495 58.899811
514 0 1 -8.615335 8.360426 58.242188
515 0 1 -9.215146 8.897276 58.753998
516 0 1 -9.333446 9.019735 59.717987
517 0 1 -9.780625 9.630964 59.087494
518 0 1 -10.648665 9.304438 59.253204
519 0 1 -11.093274 8.924715 58.463989
520 0 1 -11.152675 8.051165 58.808899
521 0 1 -10.448926 8.199224 58.162598
522 0 1 -9.771735 8.599108 57.612305
523 0 1 -9.362575 8.945635 56.861511
524 0 1 -8.835105 8.220747 56.487305
525 0 1 -8.879575 7.503146 57.150696
526 0 1 -9.180655 7.024966 57.863495
527 0 1 -9.290105 6.354666 58.592712
528 0 1 -9.205115 5.698084 57.949890
529 0 1 -9.057925 5.890467 56.995605
530 0 1 -9.882655 6.378825 57.273804
531 0 1 -10.472545 6.445284 56.509399
532 0 1 -10.115165 5.758074 55.952301
533 0 1 -9.565946 6.440066 55.484100
534 0 1 -9.454036 6.071246 54.547913
535 0 1 -9.385995 6.959414 54.160004
536 0 1 -8.820115 7.072577 53.434906
537 0 1 -8.878055 7.175356 52.480499
538 0 1 -9.686355 7.549456 52.143890
539 0 1 -10.237096 6.866416 51.962189
540 0 1 -10.197606 6.310275 51.184113
541 0 1 -9.964444 5.723677 50.328400
542 0 1 -10.377385 6.196078 49.526489
543 0 1 -11.137494 5.690566 49.823486
544 0 1 -11.149655 6.193087 50.624512
545 0 1 -11.828835 6.569094 51.159790
546 0 1 -12.207604 5.679514 50.943512
547 0 1 -13.202874 5.440928 50.942688
548 0 1 -13.340276 5.368575 49.997009
549 0 1 -13.644675 5.697875 49.118286
550 0 1 -14.296975 6.334525 48.750610
551 0 1 -14.580375 7.153117 49.169983
552 0 1 -13.687076 7.605437 49.027405
553 0 1 -13.498275 8.455717 49.378906
554 0 1 -12.765676 8.076677 49.804016
555 0 1 -12.165734 7.407156 50.086792
556 0 1 -11.447194 7.234885 49.441498
557 0 1 -11.964055 7.593565 48.697510
558 0 1 -12.858356 7.477927 48.343109
559 0 1 -12.432855 8.317026 48.281189
560 0 1 -11.801095 8.602655 47.537903
561 0 1 -11.603147 9.115816 48.291107
562 0 1 -12.022975 9.400225 49.155090
563 0 1 -11.455115 9.622034 49.935913
564 0 1 -10.917134 8.862745 49.480591
565 0 1 -10.301625 8.256575 49.035706
566 0 1 -9.877425 7.541964 48.522003
567 0 1 -9.202945 8.202726 48.620483
568 0 1 -8.800626 7.647006 47.878296
569 0 1 -9.514504 7.915186 47.256989
570 0 1 -10.121936 7.167216 47.349304
571 0 1 -10.587335 6.339755 46.956512
572 0 1 -11.381814 5.917456 46.692596
573 0 1 -11.134555 5.079478 46.988312
574 0 1 -10.705005 4.952425 46.161499
575 0 1 -10.707955 3.995978 45.978302
576 0 1 -11.008725 4.345076 45.167908
577 0 1 -10.679006 4.009627 44.263184
578 0 1 -10.155286 3.413626 43.737213
579 0 1 -10.720315 3.919935 43.147491
580 0 1 -10.283776 4.493178 42.511597
581 0 1 -9.448325 4.919474 42.890106
582 0 1 -9.281884 5.213625 41.952393
583 0 1 -9.489934 4.292685 41.652802
584 0 1 -9.360286 3.298476 41.690399
585 0 1 -8.666675 3.320166 42.402802
586 0 1 -7.859925 3.262884 41.769287
587 0 1 -6.982934 2.938967 41.492798
588 0 1 -6.012255 2.746058 41.550690
589 0 1 -5.802304 3.547995 41.101410
590 0 1 -5.012324 3.852465 40.655609
591 0 1 -4.644305 3.870737 39.739594
592 0 1 -3.823111 4.037436 40.071716
593 0 1 -3.781767 4.606486 40.863495
594 0 1 -2.914402 4.583697 41.263000
595 0 1 -2.419943 5.210474 41.865784
596 0 1 -1.934226 5.770884 41.317505
597 0 1 -2.147217 6.408186 40.639893
598 0 1 -1.259614 6.598185 40.865692
599 0 1 -0.922314 5.850955 41.313599
600 0 1 -0.466984 6.589755 41.698303
601 0 1 -0.482564 7.545935 41.575592
602 0 1 -0.362046 8.088976 40.756989
603 0 1 -0.062493 9.023546 40.904999
604 0 1 0.834926 9.042665 41.366394
605 0 1 0.204666 8.972963 42.088593
606 0 1 0.378025 9.419046 42.938995
607 0 1 0.796524 9.517607 43.759094
608 0 1 1.288654 9.843477 43.008484
609 0 1 1.993354 9.194788 42.624695
610 0 1 2.589965 9.927477 42.677094
611 0 1 3.081554 9.238646 42.182983
612 0 1 3.672744 8.606836 41.640808
613 0 1 4.308315 8.854506 40.939087
614 0 1 4.193614 9.864595 40.762390
615 0 1 4.658546 9.896345 41.598206
616 0 1 4.808994 10.748804 41.090607
617 0 1 5.294864 11.196306 41.788391
618 0 1 5.703605 11.865805 42.333405
619 0 1 6.378665 11.360106 42.913788
620 0 1 6.064315 10.777006 43.612610
621 0 1 6.426494 10.893606 44.496490
622 0 1 6.712085 11.719904 44.978699
623 0 1 5.923553 11.867304 44.456909
624 0 1 5.088974 11.721006 44.993500
625 0 1 4.968254 12.647406 44.762787
626 0 1 5.635154 12.683004 45.565002
627 0 1 5.692264 12.157305 46.375183
628 0 1 5.085067 11.445208 46.046509
629 0 1 4.811767 11.422304 46.977112
630 0 1 4.030754 11.208704 46.465912
631 0 1 3.494567 11.301905 47.283203
632 0 1 3.443397 10.604006 47.955811
633 0 1 4.422725 10.451735 47.729187
634 0 1 4.248153 9.616068 48.113892
635 0 1 3.617237 9.106264 47.569000
636 0 1 3.895645 8.827085 46.621094
637 0 1 4.105575 9.317896 45.775909
638 0 1 4.908817 8.971525 46.207397
639 0 1 5.889816 8.894835 46.345215
640 0 1 6.786117 8.668676 46.634094
641 0 1 6.129726 8.127295 47.095886
642 0 1 6.338195 8.350428 48.014404
643 0 1 7.300426 8.402937 47.921997
644 0 1 8.065524 8.931017 47.552399
645 0 1 8.853126 8.651438 47.092987
646 0 1 9.734527 8.289724 47.148407
647 0 1 10.042224 9.210505 47.203613
648 0 1 10.916324 9.050245 47.528809
649 0 1 10.826724 8.933428 48.464691
650 0 1 10.769126 8.042986 48.837799
651 0 1 10.600024 8.819647 49.415405
652 0 1 10.571025 9.081827 50.407715
653 0 1 11.262527 8.628923 50.897003
654 0 1 11.704326 7.846236 51.305511
655 0 1 12.535026 7.313258 51.581116
656 0 1 13.266128 7.716925 51.904785
657 0 1 14.011226 7.169547 51.775604
658 0 1 14.380324 7.479475 52.646484
659 0 1 15.216125 7.325247 52.247009
660 0 1 15.126925 7.780898 51.411499
661 0 1 16.017426 8.329947 51.267303
662 0 1 16.289925 8.687025 50.425415
663 0 1 15.859122 8.351168 49.704285
664 0 1 15.953628 7.715525 48.961212
665 0 1 15.875525 8.371675 48.342102
666 0 1 16.662426 7.747744 48.054413
667 0 1 16.000923 7.028864 47.959991
668 0 1 16.404327 6.142966 47.873291
669 0 1 17.321026 5.867007 47.577606
670 0 1 17.434624 5.358614 48.393402
671 0 1 17.237823 5.715567 49.236298
672 0 1 17.491627 6.367537 49.875793
673 0 1 17.387226 6.023448 50.726898
674 0 1 16.667725 6.220355 51.351807
675 0 1 16.146423 6.219798 52.173309
676 0 1 16.977325 5.971976 52.670288
677 0 1 17.065926 5.015868 52.290192
678 0 1 16.444626 4.386355 52.658905
679 0 1 15.706122 3.851076 52.761688
680 0 1 15.292125 4.104136 51.939911
681 0 1 15.708125 4.471278 51.170898
682 0 1 16.665825 4.222918 51.351196
683 0 1 16.558426 3.279417 51.597992
684 0 1 17.220325 3.399256 50.932983
685 0 1 16.492828 3.795557 50.450684
686 0 1 16.578426 2.875155 50.167389
687 0 1 15.981627 2.428805 50.791992
688 0 1 15.541724 2.987246 50.175995
689 0 1 15.387725 2.095484 49.776398
690 0 1 14.985126 1.478884 50.473816
691 0 1 15.715827 0.919258 50.181702
692 0 1 16.620026 1.185408 49.968903
693 0 1 17.224926 1.250941 50.661591
694 0 1 17.752525 1.462103 51.330017
695 0 1 18.494926 1.389902 50.714111
696 0 1 18.658627 2.324995 50.536591
697 0 1 18.286324 2.150194 49.668396
698 0 1 18.974125 2.737536 49.440796
699 0 1 18.513924 3.200217 48.670715
700 0 1 18.120926 4.043578 48.732788
701 0 1 17.748226 4.305716 47.911316
702 0 1 16.809727 4.239085 48.244385
703 0 1 16.478226 3.602797 47.674591
704 0 1 15.829925 3.457804 46.967590
705 0 1 16.071823 2.560404 47.237305
706 0 1 15.075522 2.607527 47.243195
707 0 1 14.293822 2.230925 47.662903
708 0 1 13.784423 1.750937 46.966614
709 0 1 13.523124 2.647738 46.611603
710 0 1 13.103225 1.887085 46.101196
711 0 1 12.864924 1.273649 45.486298
712 0 1 12.069324 0.974053 45.994293
713 0 1 12.677627 0.322783 46.353302
714 0 1 12.355426 -0.156910 45.563690
715 0 1 11.764625 -0.460268 46.346405
716 0 1 12.631324 -0.863674 46.567993
717 0 1 13.540923 -1.136934 46.498596
718 0 1 13.867827 -1.832575 47.110199
719 0 1 14.601726 -1.329984 46.788513
720 0 1 15.024627 -0.945234 45.955994
721 0 1 15.217727 -0.601564 45.071716
722 0 1 15.838126 0.031267 45.482300
723 0 1 15.743728 0.179440 44.490784
724 0 1 16.249023 -0.571314 44.236084
725 0 1 15.915526 -0.466854 43.312897
726 0 1 16.799126 -0.035755 43.322693
727 0 1 16.754028 0.782168 43.916809
728 0 1 16.306526 1.503815 44.379517
729 0 1 17.129929 1.949276 44.072113
730 0 1 18.080326 1.936096 44.171906
731 0 1 18.691727 1.783526 44.949493
732 0 1 17.921524 1.890757 45.584198
733 0 1 17.883026 2.009917 46.643097
734 0 1 18.748123 1.699236 46.206787
735 0 1 18.807327 0.728508 46.470398
736 0 1 18.996426 -0.134758 46.138794
737 0 1 18.067326 -0.000419 46.052307
738 0 1 17.898727 0.794586 45.466492
739 0 1 17.992828 0.101244 44.829193
740 0 1 18.158424 -0.131998 43.864990
741 0 1 18.427425 -1.015564 43.697113
742 0 1 18.584328 -1.636335 42.980591
743 0 1 18.748825 -2.117794 42.136902
744 0 1 18.350426 -1.981024 41.253601
745 0 1 18.904526 -2.129625 40.525513
746 0 1 19.457127 -1.953884 41.275909
747 0 1 20.429825 -2.255983 41.307098
748 0 1 20.751823 -2.398485 42.193390
749 0 1 21.677628 -2.730184 42.331390
750 0 1 21.610725 -2.432045 43.237000
751 0 1 22.462826 -2.224485 43.677612
752 0 1 22.530426 -1.286724 43.277191
753 0 1 21.929127 -0.524065 43.005188
754 0 1 21.589424 0.344597 43.047211
755 0 1 21.061726 0.407652 42.214813
756 0 1 20.733223 -0.514105 42.119385
757 0 1 19.805428 -0.378442 41.705292
758 0 1 19.485428 -0.435426 40.812408
759 0 1 20.405525 -0.430357 40.428894
760 0 1 20.220226 0.355049 39.948395
761 0 1 20.295128 0.153471 39.045898
762 0 1 19.997627 -0.317651 38.302490
763 0 1 19.055527 -0.396406 37.946106
764 0 1 19.184727 0.057322 37.109497
765 0 1 19.734123 -0.501255 36.498993
766 0 1 20.370926 -0.357654 35.770294
767 0 1 19.738625 -0.129503 35.015991
768 0 1 19.043327 -0.320991 34.387085
769 0 1 18.376228 -0.662645 33.782104
770 0 1 17.875824 -0.631103 32.926300
771 0 1 17.306229 -0.934984 33.615295
772 0 1 16.757027 -0.156158 33.456207
773 0 1 16.060425 -0.438167 32.848389
774 0 1 16.017624 -1.226345 32.262207
775 0 1 15.611022 -1.861454 32.932098
776 0 1 14.908027 -1.141384 32.791687
777 0 1 14.075027 -1.509523 32.524414
778 0 1 13.482326 -1.124414 33.220703
779 0 1 12.726825 -0.626043 32.903107
780 0 1 12.281226 0.271445 33.224396
781 0 1 11.414123 -0.051969 32.924316
782 0 1 11.393924 0.812678 32.428101
783 0 1 11.132125 0.938189 31.533112
784 0 1 10.684623 1.849125 31.371887
785 0 1 11.212726 2.416895 30.782104
786 0 1 10.320025 2.821577 30.727295
787 0 1 9.670825 2.493307 31.334412
788 0 1 9.222724 1.648216 31.269287
789 0 1 8.572326 1.001719 31.340698
790 0 1 8.635325 0.609278 30.501709
791 0 1 7.792026 0.558602 30.012299
792 0 1 8.103526 -0.078756 29.338501