LAMMPS data file via MDAnalysis

        1000  atoms
        1000  bonds
        1000  angles
           0  dihedrals
           0  impropers

           1  atom types
           1  bond types
           1  angle types
           0  dihedral types
           0  improper types

0.000000 16.000000 xlo xhi
0.000000 16.000000 ylo yhi
0.000000 1257.000000 zlo zhi


Masses

1 1.000000

Atoms

1 0 1 7.849683 10.836370 475.410004
2 0 1 8.256885 10.238170 475.987000
3 0 1 8.236764 9.519260 476.666016
4 0 1 8.299038 8.955037 477.471985
5 0 1 8.286270 8.428670 478.289978
6 0 1 8.403888 8.036000 479.210999
7 0 1 8.523171 7.490270 480.005981
8 0 1 8.610762 6.775760 480.686005
9 0 1 8.588078 6.023010 481.270996
10 0 1 8.484169 5.209560 481.822998
11 0 1 8.279361 4.515820 482.529999
12 0 1 7.633755 4.080460 483.078003
13 0 1 7.031186 3.589930 483.661011
14 0 1 6.468860 2.979850 484.121002
15 0 1 6.170200 2.539260 484.979980
16 0 1 5.833800 2.246430 485.880005
17 0 1 5.956270 2.177400 486.832001
18 0 1 6.374230 2.044550 487.700989
19 0 1 6.738360 1.834290 488.548004
20 0 1 7.127535 1.777660 489.575012
21 0 1 7.416067 1.663570 490.515015
22 0 1 7.371149 1.753970 491.575012
23 0 1 7.284691 2.198070 492.432983
24 0 1 7.533001 2.738800 493.227997
25 0 1 7.584156 3.174910 494.072998
26 0 1 7.645192 3.888350 494.791992
27 0 1 8.043333 4.456360 495.515991
28 0 1 8.428150 4.897030 496.298004
29 0 1 8.783489 5.396840 497.050995
30 0 1 9.151390 5.754620 497.953003
31 0 1 9.324150 6.440270 498.583984
32 0 1 9.483820 7.183217 499.175995
33 0 1 9.452040 7.711426 500.007996
34 0 1 9.561069 8.178414 500.782990
35 0 1 9.899680 8.504691 501.656982
36 0 1 10.229720 8.403169 502.598999
37 0 1 10.585890 8.319819 503.466003
38 0 1 10.973520 8.486033 504.391998
39 0 1 11.194340 8.412379 505.285004
40 0 1 11.251550 8.210712 506.227997
41 0 1 11.179970 8.229478 507.205994
42 0 1 11.228640 8.382266 508.161011
43 0 1 11.323441 8.585545 509.104004
44 0 1 11.054990 8.577962 510.035004
45 0 1 10.806170 8.532792 510.904999
46 0 1 10.745680 8.667658 511.859985
47 0 1 10.695760 8.616615 512.856995
48 0 1 10.779170 8.417215 513.796021
49 0 1 10.770220 8.393260 514.773987
50 0 1 10.649460 8.530216 515.792969
51 0 1 10.718560 8.211339 516.689026
52 0 1 10.499180 7.590649 517.471985
53 0 1 10.142509 7.147571 518.252991
54 0 1 9.521400 7.118589 518.992981
55 0 1 8.653610 7.052525 519.468994
56 0 1 7.789442 7.077685 519.916016
57 0 1 6.966440 7.342324 520.516968
58 0 1 6.162730 7.745489 520.835022
59 0 1 5.322840 7.961853 521.223999
60 0 1 4.926760 8.091085 522.112000
61 0 1 4.574300 8.316986 522.971985
62 0 1 4.203320 8.382921 523.877991
63 0 1 3.995010 8.624306 524.884033
64 0 1 3.979520 8.735306 525.851990
65 0 1 3.929720 8.699617 526.804016
66 0 1 3.780400 8.601451 527.711975
67 0 1 3.708670 8.343839 528.672729
68 0 1 3.438070 8.357735 529.638794
69 0 1 3.400770 8.301609 530.606079
70 0 1 3.309700 8.469569 531.594788
71 0 1 3.085070 8.543335 532.553589
72 0 1 2.994360 8.707547 533.504822
73 0 1 2.667670 8.761277 534.436279
74 0 1 2.282190 8.968151 535.288208
75 0 1 1.905110 9.398510 536.060120
76 0 1 1.843670 9.799140 536.957275
77 0 1 2.016050 10.067890 537.886902
78 0 1 2.311190 10.413361 538.770386
79 0 1 2.650510 10.756730 539.684387
80 0 1 2.742040 10.836520 540.666199
81 0 1 2.957870 10.732930 541.592224
82 0 1 3.104750 10.474230 542.485596
83 0 1 3.038980 9.934361 543.312195
84 0 1 3.014630 9.611620 544.208191
85 0 1 3.178480 9.280310 545.151367
86 0 1 3.013850 8.803450 545.965881
87 0 1 2.852830 8.361116 546.825684
88 0 1 2.994910 7.872999 547.633606
89 0 1 3.125440 7.279290 548.410706
90 0 1 3.059860 7.005432 549.325684
91 0 1 3.092330 6.458540 550.128296
92 0 1 3.131590 5.926140 550.890625
93 0 1 3.324500 5.293200 551.638000
94 0 1 3.551160 4.658940 552.271179
95 0 1 3.932550 3.944730 552.935913
96 0 1 4.323510 3.481450 553.678589
97 0 1 5.014330 3.287960 554.382568
98 0 1 5.434370 3.330200 555.269104
99 0 1 5.760250 3.367360 556.210083
100 0 1 6.480670 3.146610 556.936890
101 0 1 7.113602 3.201290 557.629517
102 0 1 7.566500 3.463850 558.427612
103 0 1 7.925554 3.657870 559.289185
104 0 1 8.159256 4.119310 560.128784
105 0 1 8.606851 4.497880 560.892517
106 0 1 8.872593 4.910510 561.714233
107 0 1 9.124680 5.372070 562.473083
108 0 1 9.601620 5.654210 563.267700
109 0 1 10.131340 6.017930 564.039307
110 0 1 10.770550 6.546650 564.516113
111 0 1 11.278250 7.100533 565.137878
112 0 1 11.481210 7.908389 565.600586
113 0 1 11.923980 8.242672 566.448914
114 0 1 12.049440 8.884742 567.213196
115 0 1 11.833360 9.242610 568.120422
116 0 1 11.533800 9.262830 568.984497
117 0 1 11.402640 9.558500 569.906006
118 0 1 11.298640 9.668300 570.845520
119 0 1 11.209930 9.916010 571.758118
120 0 1 11.057700 10.165280 572.708130
121 0 1 10.837749 10.566520 573.554382
122 0 1 10.628050 10.894970 574.444397
123 0 1 10.349530 11.186060 575.369385
124 0 1 10.252430 11.272600 576.368103
125 0 1 10.017050 11.228730 577.284973
126 0 1 9.924330 10.967840 578.187805
127 0 1 9.972190 10.795580 579.203369
128 0 1 10.058200 10.847720 580.106873
129 0 1 9.649500 11.043180 580.948792
130 0 1 9.496000 11.303130 581.987000
131 0 1 9.352190 11.594680 582.844116
132 0 1 8.879933 11.830160 583.682312
133 0 1 8.482214 12.180400 584.471313
134 0 1 8.070848 12.460711 585.323792
135 0 1 7.481291 12.782320 586.021423
136 0 1 7.267021 13.009050 586.992798
137 0 1 7.057098 13.360910 587.883118
138 0 1 6.806020 13.449420 588.866699
139 0 1 6.512150 13.214300 589.762329
140 0 1 6.185070 12.950291 590.612610
141 0 1 5.777250 12.461201 591.437073
142 0 1 5.547090 12.110760 592.271912
143 0 1 5.491420 11.893250 593.221313
144 0 1 5.385040 11.400909 594.041016
145 0 1 5.483930 10.825270 594.798279
146 0 1 5.558540 10.503090 595.709778
147 0 1 5.582880 10.201910 596.645203
148 0 1 5.512620 9.818700 597.520020
149 0 1 5.485620 9.653060 598.486572
150 0 1 5.457320 10.056650 599.315918
151 0 1 5.519540 10.454130 600.184387
152 0 1 5.369680 10.911060 601.012512
153 0 1 5.178290 11.232870 601.921509
154 0 1 5.080440 11.624720 602.843628
155 0 1 5.102770 11.503839 603.767517
156 0 1 5.241320 11.221849 604.677490
157 0 1 5.285700 11.115020 605.641174
158 0 1 5.337390 10.980730 606.587891
159 0 1 5.148160 10.714860 607.528992
160 0 1 5.266130 10.332439 608.358826
161 0 1 5.515640 10.162220 609.301697
162 0 1 5.764450 10.098480 610.287109
163 0 1 6.017370 10.296190 611.219421
164 0 1 6.309900 10.704530 612.051514
165 0 1 6.714350 11.079670 612.827698
166 0 1 7.280157 11.347760 613.544983
167 0 1 7.791265 11.646620 614.244873
168 0 1 8.259772 12.116449 614.926270
169 0 1 8.683449 12.425000 615.651917
170 0 1 9.029780 12.759040 616.527771
171 0 1 9.170010 12.875560 617.484680
172 0 1 9.426660 13.013580 618.388428
173 0 1 9.977859 13.202730 619.138367
174 0 1 10.446400 13.183610 620.013062
175 0 1 10.748340 13.255760 620.935547
176 0 1 10.802640 13.248381 621.930115
177 0 1 10.818570 13.387590 622.842834
178 0 1 10.845230 13.508460 623.796692
179 0 1 10.562890 13.415950 624.718262
180 0 1 10.345540 13.360350 625.666199
181 0 1 10.095960 13.157869 626.529968
182 0 1 10.003720 13.243959 627.470154
183 0 1 9.638870 13.171240 628.414612
184 0 1 9.517520 12.862511 629.366333
185 0 1 9.684980 12.312620 630.138062
186 0 1 10.082251 11.836160 630.844360
187 0 1 10.509390 11.331280 631.690186
188 0 1 10.848690 11.204260 632.567383
189 0 1 10.966030 10.823350 633.477722
190 0 1 10.860519 10.418400 634.374878
191 0 1 10.543221 10.047040 635.208313
192 0 1 10.343300 9.513870 636.043945
193 0 1 10.163750 8.977435 636.889832
194 0 1 10.034000 8.735665 637.772095
195 0 1 9.909180 8.533595 638.718079
196 0 1 10.113860 8.281395 639.584290
197 0 1 9.945380 8.254330 640.551270
198 0 1 9.604350 8.124739 641.413086
199 0 1 9.463100 7.990858 642.393311
200 0 1 9.420820 7.927482 643.318176
201 0 1 9.536980 7.864848 644.268799
202 0 1 9.689380 7.787850 645.288391
203 0 1 9.831330 7.775866 646.244873
204 0 1 10.132560 7.738907 647.204224
205 0 1 10.270750 7.795516 648.194214
206 0 1 10.481830 7.933031 649.149170
207 0 1 10.721280 8.170431 650.056885
208 0 1 10.932000 8.454994 650.955017
209 0 1 11.371770 8.890825 651.742493
210 0 1 11.592080 9.464860 652.468079
211 0 1 11.544400 10.124170 653.252319
212 0 1 11.527990 10.837049 653.924011
213 0 1 11.533250 11.335930 654.770691
214 0 1 11.500590 11.510469 655.706116
215 0 1 11.254641 12.021920 656.554993
216 0 1 10.850400 12.499229 657.185669
217 0 1 10.597770 12.903590 658.015015
218 0 1 10.565320 13.158720 658.902100
219 0 1 10.136880 13.461290 659.761780
220 0 1 9.704990 13.757980 660.593689
221 0 1 9.402630 13.763920 661.543579
222 0 1 9.223310 13.654420 662.531799
223 0 1 9.119810 13.686740 663.468018
224 0 1 9.170520 13.553090 664.394775
225 0 1 9.116000 13.272730 665.361328
226 0 1 8.830075 13.001511 666.182373
227 0 1 8.460990 12.981091 667.070679
228 0 1 8.064352 12.833241 667.966125
229 0 1 7.667467 13.005390 668.860596
230 0 1 7.564695 12.993250 669.821289
231 0 1 7.241516 12.915590 670.731079
232 0 1 7.069782 12.673280 671.657715
233 0 1 6.967380 12.323561 672.571289
234 0 1 7.007234 12.011490 673.442322
235 0 1 6.953810 11.657570 674.364685
236 0 1 6.886590 11.295190 675.258179
237 0 1 6.748750 10.960760 676.203613
238 0 1 6.562490 10.825650 677.104675
239 0 1 6.498460 10.772060 678.051880
240 0 1 6.452080 10.767930 678.982788
241 0 1 6.447310 10.907910 679.897278
242 0 1 6.357380 11.039640 680.828369
243 0 1 6.252520 11.263680 681.705994
244 0 1 6.365240 11.382580 682.634827
245 0 1 6.398180 11.449900 683.604980
246 0 1 6.594950 11.373050 684.594482
247 0 1 6.821100 11.055201 685.450623
248 0 1 7.226225 10.911530 686.353088
249 0 1 7.762302 10.675920 687.098999
250 0 1 8.437430 10.546061 687.789124
251 0 1 9.045580 10.706870 688.504272
252 0 1 9.710460 10.899490 689.195679
253 0 1 10.251300 11.016020 689.984131
254 0 1 10.613150 11.145411 690.853516
255 0 1 10.986390 11.083360 691.735413
256 0 1 11.082570 10.934660 692.687134
257 0 1 11.338360 10.842421 693.611328
258 0 1 11.374900 10.522100 694.510132
259 0 1 11.737100 10.546250 695.451782
260 0 1 11.981960 10.648670 696.401123
261 0 1 12.280001 10.609870 697.314880
262 0 1 12.136800 10.689800 698.287415
263 0 1 11.736390 10.764980 699.200806
264 0 1 11.274840 11.151850 699.939575
265 0 1 10.916600 11.194070 700.774475
266 0 1 10.385810 11.415970 701.518311
267 0 1 9.845400 11.529520 702.381409
268 0 1 9.596850 11.440331 703.319580
269 0 1 9.577080 11.614180 704.257019
270 0 1 9.582100 11.774940 705.224976
271 0 1 9.511670 12.072280 706.072998
272 0 1 9.729980 12.125760 706.973022
273 0 1 9.684220 12.046450 707.979187
274 0 1 9.670140 11.991080 708.983887
275 0 1 9.762990 11.838500 709.959106
276 0 1 9.845340 11.478550 710.876099
277 0 1 9.941060 10.901279 711.666321
278 0 1 9.963500 10.696430 712.619202
279 0 1 10.242410 10.389740 713.507507
280 0 1 10.434270 10.024179 714.353577
281 0 1 10.415240 9.511350 715.118774
282 0 1 10.577560 9.210070 716.031372
283 0 1 10.725050 8.970607 716.911682
284 0 1 11.236300 8.717421 717.716003
285 0 1 11.617460 8.193189 718.369995
286 0 1 12.132580 7.738611 719.044922
287 0 1 12.534040 7.073441 719.672607
288 0 1 12.939301 6.618910 720.398376
289 0 1 13.495150 6.401290 721.212708
290 0 1 13.918510 6.376670 722.106201
291 0 1 14.289141 6.215840 722.989197
292 0 1 14.481020 6.436690 723.891724
293 0 1 14.432920 6.562810 724.864014
294 0 1 14.283550 6.524830 725.794312
295 0 1 14.121400 6.258110 726.721008
296 0 1 14.052361 5.846820 727.620178
297 0 1 14.075991 5.248080 728.445068
298 0 1 13.907560 4.812270 729.288025
299 0 1 13.760110 4.424330 730.189026
300 0 1 13.309330 4.110700 731.009033
301 0 1 12.864400 3.807600 731.853027
302 0 1 12.227990 3.466470 732.442993
303 0 1 11.647530 3.154320 733.291992
304 0 1 11.388190 2.920210 734.177002
305 0 1 11.194970 2.782590 735.104004
306 0 1 11.112680 2.649370 736.036011
307 0 1 10.753150 2.615380 736.900024
308 0 1 10.498470 2.688270 737.806030
309 0 1 10.665400 3.110090 738.656006
310 0 1 10.955920 3.271530 739.645996
311 0 1 10.952610 3.165710 740.619995
312 0 1 10.949511 3.009790 741.565002
313 0 1 10.742599 2.804660 742.440979
314 0 1 10.412310 2.689960 743.406982
315 0 1 10.112400 2.679990 744.317993
316 0 1 9.995740 2.845090 745.304993
317 0 1 9.825100 2.952300 746.229980
318 0 1 9.848860 3.233710 747.171021
319 0 1 10.055901 3.125770 748.132996
320 0 1 10.166030 3.138180 749.088013
321 0 1 10.062600 3.095060 750.109009
322 0 1 10.015590 3.356030 751.059021
323 0 1 9.884510 3.715440 751.937988
324 0 1 9.758400 3.584490 752.885010
325 0 1 9.563800 3.494670 753.856018
326 0 1 9.160400 3.742550 754.734009
327 0 1 8.648483 3.754300 755.520996
328 0 1 8.399432 3.627710 756.432983
329 0 1 8.294658 3.469620 757.338989
330 0 1 8.293489 3.446400 758.335022
331 0 1 8.141766 3.452740 759.299988
332 0 1 8.057199 3.417350 760.195984
333 0 1 7.850817 3.825260 761.085999
334 0 1 7.945801 4.367460 761.903992
335 0 1 7.990888 4.791410 762.719971
336 0 1 8.206885 5.449890 763.401978
337 0 1 8.237754 5.991940 764.156982
338 0 1 8.435244 6.630630 764.919983
339 0 1 8.601087 7.211535 765.627991
340 0 1 8.859887 7.849823 766.343994
341 0 1 9.074440 8.217823 767.228027
342 0 1 9.549170 8.629224 767.968994
343 0 1 9.828370 9.007090 768.833008
344 0 1 10.306400 9.450970 769.516968
345 0 1 10.701100 9.842180 770.234009
346 0 1 10.975660 10.129000 771.080994
347 0 1 11.241090 10.611430 771.874023
348 0 1 11.302959 11.327690 772.494995
349 0 1 11.356390 12.093290 773.067017
350 0 1 11.393590 12.404790 773.989014
351 0 1 11.084320 12.498110 774.934998
352 0 1 10.957360 12.546141 775.870972
353 0 1 10.925060 12.409639 776.877014
354 0 1 11.254320 12.144091 777.719971
355 0 1 11.446620 12.031330 778.729980
356 0 1 11.738550 11.737640 779.559021
357 0 1 11.820630 11.170731 780.393982
358 0 1 11.941360 10.524570 781.134033
359 0 1 12.031150 10.159650 782.036011
360 0 1 12.089740 9.839300 782.960999
361 0 1 12.237690 9.753290 783.912964
362 0 1 12.362010 9.491500 784.796997
363 0 1 12.132210 9.258810 785.705994
364 0 1 11.799740 8.816182 786.457031
365 0 1 11.441540 8.574516 787.283997
366 0 1 11.165160 8.596967 788.187988
367 0 1 10.904020 8.832373 789.062012
368 0 1 10.662360 9.065420 789.963989
369 0 1 10.588140 9.250550 790.921997
370 0 1 10.325750 9.525810 791.893982
371 0 1 10.414920 9.789940 792.809998
372 0 1 10.475680 9.966311 793.766968
373 0 1 10.336380 10.044830 794.723022
374 0 1 10.352620 9.923200 795.708008
375 0 1 10.083580 10.207800 796.629028
376 0 1 9.590840 10.721570 797.280029
377 0 1 9.062720 11.349570 797.817017
378 0 1 8.690518 11.957090 798.460999
379 0 1 8.219827 12.329630 799.197998
380 0 1 7.800467 12.599860 800.009033
381 0 1 7.443774 12.635981 800.927979
382 0 1 7.352464 12.380859 801.817017
383 0 1 7.235923 12.015050 802.735962
384 0 1 7.210574 11.841480 803.634033
385 0 1 6.885190 11.229170 804.338989
386 0 1 6.410000 10.764970 805.009033
387 0 1 5.968820 10.702660 805.870972
388 0 1 5.677830 10.655530 806.820984
389 0 1 5.514530 10.658390 807.796021
390 0 1 5.539780 10.813790 808.750000
391 0 1 5.850000 10.783950 809.645020
392 0 1 6.244480 10.756940 810.541016
393 0 1 6.522380 10.691920 811.442993
394 0 1 7.259590 10.824360 811.992004
395 0 1 8.226968 10.938610 812.301025
396 0 1 9.169100 11.145380 812.643005
397 0 1 9.974010 11.276450 813.166016
398 0 1 10.788080 11.670770 813.549011
399 0 1 11.290540 11.877300 814.338013
400 0 1 11.754470 11.736080 815.166016
401 0 1 12.077150 11.434000 816.002014
402 0 1 12.316090 10.906740 816.789978
403 0 1 12.178070 10.198350 817.596008
404 0 1 12.430550 9.611730 818.286011
405 0 1 12.816700 9.100490 818.971008
406 0 1 13.245430 8.956080 819.875000
407 0 1 13.703569 9.028980 820.684021
408 0 1 14.170740 8.969669 821.500000
409 0 1 14.236731 9.030560 822.434998
410 0 1 14.013870 8.798062 823.302002
411 0 1 13.829950 8.495743 824.212036
412 0 1 13.486310 8.390337 825.075012
413 0 1 13.014600 7.827782 825.669006
414 0 1 12.645121 7.307673 826.438965
415 0 1 12.137270 6.799010 827.078979
416 0 1 11.757920 6.104230 827.617981
417 0 1 11.381840 5.292560 828.062988
418 0 1 10.781720 4.728940 828.514038
419 0 1 10.142900 4.476690 829.181030
420 0 1 9.471340 4.301730 829.848999
421 0 1 8.974362 3.897720 830.610962
422 0 1 8.349209 3.589100 831.338989
423 0 1 7.839847 3.409160 832.172974
424 0 1 7.056992 3.336080 832.889038
425 0 1 6.304030 3.178780 833.500000
426 0 1 5.570000 2.960800 833.992981
427 0 1 5.012420 2.996540 834.768982
428 0 1 4.849690 3.278010 835.684021
429 0 1 4.295280 3.855060 836.278992
430 0 1 3.751350 4.526360 836.708984
431 0 1 3.255770 5.123710 837.297974
432 0 1 2.883790 5.915690 837.687012
433 0 1 2.593170 6.807770 837.846985
434 0 1 2.462290 7.733827 837.901001
435 0 1 2.526250 8.678938 837.723999
436 0 1 2.894520 9.432890 837.330017
437 0 1 3.094100 10.140511 836.710999
438 0 1 3.033610 10.749550 835.953003
439 0 1 2.830100 11.209780 835.070007
440 0 1 2.964960 11.469500 834.192993
441 0 1 3.196460 11.650030 833.294983
442 0 1 3.211790 11.723800 832.341980
443 0 1 3.450520 11.723249 831.365967
444 0 1 3.916970 11.444790 830.562012
445 0 1 4.400750 11.436310 829.733032
446 0 1 4.608970 11.332640 828.813965
447 0 1 5.115850 11.255460 828.013000
448 0 1 5.458110 11.464630 827.148010
449 0 1 6.111660 11.586990 826.408997
450 0 1 6.959000 11.455940 826.110962
451 0 1 7.697672 11.018800 825.766968
452 0 1 8.336554 10.305400 825.453003
453 0 1 8.726414 9.605700 824.924011
454 0 1 9.034540 8.836875 824.494995
455 0 1 9.169020 8.114704 823.848999
456 0 1 9.166950 7.566675 823.122986
457 0 1 9.204160 7.110193 822.301025
458 0 1 9.315050 6.561790 821.511963
459 0 1 9.535340 6.266960 820.609985
460 0 1 9.567820 6.038340 819.676025
461 0 1 9.185330 5.458550 818.914001
462 0 1 8.884098 5.011180 818.083984
463 0 1 8.817917 4.560660 817.109009
464 0 1 8.417304 4.101180 816.391968
465 0 1 8.042044 3.674150 815.589966
466 0 1 7.576915 3.418050 814.799988
467 0 1 7.040200 3.217690 813.987000
468 0 1 6.528810 2.933770 813.270996
469 0 1 6.304410 3.017640 812.333984
470 0 1 6.179660 3.230020 811.412964
471 0 1 6.331920 3.341400 810.518005
472 0 1 6.909920 3.447190 809.690002
473 0 1 7.167610 3.483440 808.765991
474 0 1 7.181828 3.424370 807.797974
475 0 1 7.009014 3.099870 806.893005
476 0 1 6.840440 3.057950 805.912964
477 0 1 6.740530 3.183380 804.968994
478 0 1 7.003280 3.304280 804.046021
479 0 1 7.567081 3.393110 803.257019
480 0 1 8.139421 3.742740 802.640015
481 0 1 8.849474 3.897140 801.964966
482 0 1 9.167640 3.627450 801.035034
483 0 1 9.392550 3.468240 800.134033
484 0 1 9.567590 3.277360 799.212036
485 0 1 9.646030 3.069540 798.260010
486 0 1 9.521310 2.727150 797.391968
487 0 1 9.326180 2.757530 796.386963
488 0 1 8.989527 2.769150 795.464966
489 0 1 8.529099 2.537870 794.606018
490 0 1 8.096589 2.551310 793.778015
491 0 1 8.008383 2.568570 792.833984
492 0 1 7.677932 2.575210 791.973022
493 0 1 7.277717 2.606630 791.093018
494 0 1 6.793320 2.485660 790.263000
495 0 1 6.324520 2.359710 789.457031
496 0 1 5.804530 2.392800 788.690979
497 0 1 5.388160 2.547910 787.755981
498 0 1 5.174810 2.721380 786.820007
499 0 1 4.994670 2.852760 785.839966
500 0 1 4.865380 3.188890 784.974976
501 0 1 4.785790 3.692080 784.158997
502 0 1 4.888260 4.167840 783.306030
503 0 1 4.740350 4.580700 782.450989
504 0 1 4.452420 5.019860 781.598022
505 0 1 3.935720 5.271350 780.856995
506 0 1 3.558010 5.813320 780.057007
507 0 1 3.274530 5.834430 779.156006
508 0 1 2.793830 5.985010 778.312988
509 0 1 2.702230 6.306540 777.437988
510 0 1 2.749810 6.611690 776.481018
511 0 1 2.996820 6.740960 775.565979
512 0 1 3.310400 6.828640 774.624023
513 0 1 3.219020 7.233763 773.781006
514 0 1 3.263470 7.703274 772.905029
515 0 1 3.259210 8.002336 772.007996
516 0 1 3.244820 8.285545 771.125000
517 0 1 3.390830 8.426595 770.130005
518 0 1 3.567030 8.477779 769.166016
519 0 1 3.545300 8.160574 768.197021
520 0 1 3.563190 7.871866 767.318970
521 0 1 3.384680 7.264607 766.469971
522 0 1 3.075330 6.619740 765.731018
523 0 1 2.673690 6.103220 765.010010
524 0 1 2.366800 5.892940 764.089966
525 0 1 2.387600 5.551210 763.197021
526 0 1 2.674210 5.190950 762.339966
527 0 1 2.852140 5.081040 761.335999
528 0 1 3.365030 5.374200 760.577026
529 0 1 3.762380 5.583630 759.729004
530 0 1 4.226800 5.613380 758.888000
531 0 1 4.660820 5.964960 758.062012
532 0 1 5.070480 6.610390 757.427002
533 0 1 5.489810 7.255776 756.773010
534 0 1 5.877750 7.738905 756.091980
535 0 1 6.183750 8.308029 755.339966
536 0 1 6.836070 8.433375 754.646973
537 0 1 7.519651 8.768768 754.007019
538 0 1 8.100736 9.078410 753.276978
539 0 1 8.384620 9.303820 752.375000
540 0 1 8.738525 9.261810 751.455994
541 0 1 9.063510 9.259200 750.526978
542 0 1 9.248180 9.333650 749.619995
543 0 1 9.320890 9.609040 748.728027
544 0 1 9.292970 9.845980 747.789001
545 0 1 9.308490 10.184870 746.820007
546 0 1 9.237370 10.817720 746.098022
547 0 1 9.117710 11.600810 745.523010
548 0 1 9.041170 11.963440 744.643982
549 0 1 9.136170 12.398970 743.836975
550 0 1 9.288410 12.516211 742.932983
551 0 1 9.082200 12.565210 741.979004
552 0 1 8.785149 12.373660 741.062988
553 0 1 8.583233 12.079161 740.184021
554 0 1 8.178247 12.038190 739.280029
555 0 1 8.087246 11.596380 738.367004
556 0 1 7.725018 11.364850 737.489990
557 0 1 7.322871 11.085780 736.742004
558 0 1 7.057842 10.751610 735.895020
559 0 1 6.734290 10.182190 735.164001
560 0 1 6.742880 9.753901 734.330017
561 0 1 6.909390 9.328310 733.385986
562 0 1 6.907620 8.866969 732.551025
563 0 1 6.875640 8.242891 731.862000
564 0 1 6.947090 7.950511 730.932007
565 0 1 7.049727 7.885882 730.013000
566 0 1 6.941400 8.109472 729.062012
567 0 1 6.838440 8.539943 728.227905
568 0 1 6.616260 8.706224 727.284119
569 0 1 6.343950 8.910509 726.369385
570 0 1 5.995170 9.111990 725.490784
571 0 1 5.658480 9.347100 724.639404
572 0 1 5.147450 9.357070 723.890686
573 0 1 4.816160 9.494790 722.974121
574 0 1 4.643990 9.522141 721.985779
575 0 1 4.406350 9.564440 721.009888
576 0 1 4.501110 9.812950 720.143066
577 0 1 4.767090 10.153690 719.297974
578 0 1 5.029630 10.729990 718.557373
579 0 1 5.254170 11.155650 717.702209
580 0 1 5.377880 11.450620 716.827698
581 0 1 5.553360 11.539430 715.916077
582 0 1 5.812420 11.714550 715.060974
583 0 1 6.013350 11.894670 714.113281
584 0 1 6.312480 11.710950 713.198181
585 0 1 6.990520 11.434470 712.504822
586 0 1 7.674596 11.160820 711.882019
587 0 1 8.324365 10.828230 711.321594
588 0 1 8.773300 10.434980 710.593811
589 0 1 9.124240 10.120780 709.730408
590 0 1 9.233810 9.632210 708.910278
591 0 1 9.191650 9.177750 707.942200
592 0 1 9.380760 8.672573 707.131470
593 0 1 9.836890 8.396240 706.299377
594 0 1 10.327860 8.008515 705.556885
595 0 1 10.721550 7.588002 704.869507
596 0 1 10.861950 7.474308 703.947021
597 0 1 11.071800 7.107089 703.076904
598 0 1 11.124510 7.025834 702.070007
599 0 1 11.261840 7.067938 701.122314
600 0 1 11.308030 7.030151 700.212402
601 0 1 11.444571 6.694140 699.307922
602 0 1 11.893209 6.445210 698.505188
603 0 1 12.314220 6.236950 697.611511
604 0 1 12.849840 6.089580 696.850098
605 0 1 13.427280 5.869300 696.067200
606 0 1 13.725969 6.029060 695.126709
607 0 1 13.675840 6.234300 694.249878
608 0 1 13.470050 6.467190 693.311584
609 0 1 13.087440 6.265560 692.405029
610 0 1 12.767651 6.301890 691.554199
611 0 1 12.350800 6.274220 690.695984
612 0 1 12.155530 6.552020 689.721985
613 0 1 11.934020 6.993230 688.871216
614 0 1 11.579950 7.385426 688.096375
615 0 1 11.249310 7.609731 687.170410
616 0 1 11.130600 7.974020 686.269775
617 0 1 10.924910 8.312666 685.435181
618 0 1 10.662120 8.554316 684.508728
619 0 1 10.201281 8.820442 683.688782
620 0 1 9.845750 9.214750 682.867981
621 0 1 9.846460 9.650080 682.082581
622 0 1 10.049789 9.816860 681.149414
623 0 1 10.123980 10.226540 680.335571
624 0 1 10.296420 10.799960 679.650696
625 0 1 10.396430 11.326660 678.878906
626 0 1 10.506390 11.919530 678.077698
627 0 1 10.313180 12.564470 677.398193
628 0 1 10.259520 13.036039 676.577393
629 0 1 10.243770 13.437960 675.696716
630 0 1 9.935330 13.638840 674.763306
631 0 1 9.617310 13.762290 673.870605
632 0 1 9.549670 13.752649 672.933289
633 0 1 9.797570 13.498000 672.037781
634 0 1 10.069310 13.349740 671.105408
635 0 1 10.283570 13.018850 670.224609
636 0 1 10.424140 12.502460 669.394287
637 0 1 10.453090 12.039650 668.586304
638 0 1 10.659730 11.656000 667.676697
639 0 1 10.412130 11.260450 666.802307
640 0 1 10.177790 11.168119 665.908875
641 0 1 9.946100 10.762280 664.968323
642 0 1 9.728610 10.422990 664.035217
643 0 1 9.625940 10.055759 663.093323
644 0 1 9.695070 9.970550 662.155273
645 0 1 9.997760 9.941270 661.217773
646 0 1 10.379220 10.077030 660.384827
647 0 1 10.454830 10.338560 659.437500
648 0 1 10.572080 10.678050 658.444702
649 0 1 10.259180 11.079120 657.581482
650 0 1 9.853380 11.273990 656.750610
651 0 1 9.514860 11.537120 655.873901
652 0 1 9.614850 11.340000 654.834717
653 0 1 9.534480 11.294880 653.887085
654 0 1 9.588010 11.131010 652.953979
655 0 1 9.376780 10.807961 652.039795
656 0 1 9.267720 10.296250 651.141907
657 0 1 9.349960 10.049710 650.162109
658 0 1 9.357630 9.761180 649.231323
659 0 1 9.576210 9.604430 648.310425
660 0 1 10.234740 9.818380 647.633118
661 0 1 10.815870 9.627439 646.824219
662 0 1 11.239950 9.437200 645.988586
663 0 1 11.899600 9.316070 645.289185
664 0 1 12.243020 9.127650 644.404114
665 0 1 12.532420 8.859641 643.539307
666 0 1 12.946880 8.572491 642.646973
667 0 1 13.443060 8.292131 641.862122
668 0 1 13.948830 8.010858 641.062378
669 0 1 14.398000 7.797871 640.223328
670 0 1 14.486860 7.484760 639.316223
671 0 1 14.626260 7.081517 638.429321
672 0 1 14.273510 6.676300 637.602478
673 0 1 13.862870 6.418480 636.773743
674 0 1 13.315320 6.037370 636.020020
675 0 1 13.009370 5.560230 635.298706
676 0 1 12.794260 4.892770 634.629089
677 0 1 12.421590 4.491290 633.733826
678 0 1 12.516689 4.085410 632.812988
679 0 1 12.510321 3.819360 631.897156
680 0 1 12.410030 3.981600 630.961182
681 0 1 12.055230 3.860720 630.031677
682 0 1 11.500290 3.891390 629.222656
683 0 1 11.036390 4.105180 628.405457
684 0 1 10.703820 4.310640 627.539978
685 0 1 9.970700 4.458810 627.003540
686 0 1 9.566339 4.149050 626.173706
687 0 1 9.347090 3.991890 625.250977
688 0 1 9.288200 4.025880 624.270691
689 0 1 9.083140 4.060180 623.262634
690 0 1 8.669317 4.112050 622.374512
691 0 1 8.023091 4.200770 621.679810
692 0 1 7.499819 4.137960 620.913330
693 0 1 6.950200 4.324630 620.056824
694 0 1 6.672650 4.266590 619.194092
695 0 1 6.635740 4.190640 618.312683
696 0 1 6.763440 3.771620 617.446594
697 0 1 6.587740 3.346670 616.624878
698 0 1 6.586890 2.854740 615.760071
699 0 1 6.552460 2.774620 614.840393
700 0 1 6.487490 2.782100 613.867188
701 0 1 6.178570 2.898260 612.963623
702 0 1 6.062550 2.623340 612.080627
703 0 1 6.162000 2.631760 611.172974
704 0 1 6.531960 2.522590 610.248901
705 0 1 6.630560 2.371950 609.292175
706 0 1 6.907920 2.439650 608.371277
707 0 1 7.181779 2.736020 607.456299
708 0 1 7.208357 3.001350 606.548889
709 0 1 6.960130 3.212100 605.686279
710 0 1 6.925850 3.443190 604.746887
711 0 1 6.464540 3.216100 604.003113
712 0 1 5.906280 3.126540 603.260376
713 0 1 5.589580 3.199140 602.360229
714 0 1 5.629100 3.154640 601.374329
715 0 1 5.655860 3.092570 600.420593
716 0 1 5.729720 3.006660 599.415222
717 0 1 5.618680 2.952320 598.456482
718 0 1 5.616760 3.201160 597.538208
719 0 1 5.542830 3.642000 596.575195
720 0 1 5.561490 4.142670 595.734131
721 0 1 5.736990 4.449860 594.868713
722 0 1 6.154500 4.606910 593.945007
723 0 1 6.652070 4.859380 593.173401
724 0 1 7.151429 4.797640 592.322998
725 0 1 7.568002 4.764340 591.455322
726 0 1 7.788645 4.542760 590.560669
727 0 1 7.835531 4.306260 589.644775
728 0 1 7.886189 4.196720 588.655884
729 0 1 8.097733 4.108820 587.708679
730 0 1 8.111249 4.055710 586.696289
731 0 1 8.323801 4.138590 585.776611
732 0 1 8.505829 4.366790 584.841797
733 0 1 8.380061 4.826500 584.038330
734 0 1 8.375709 5.405570 583.234375
735 0 1 8.212787 5.858600 582.378784
736 0 1 8.348165 6.321350 581.525879
737 0 1 8.496475 6.764750 580.695068
738 0 1 8.420791 6.973110 579.757874
739 0 1 8.231781 7.013689 578.828613
740 0 1 7.773740 7.008945 577.979919
741 0 1 7.750709 6.839370 577.055603
742 0 1 7.758628 6.852070 576.075073
743 0 1 8.010559 7.024147 575.119385
744 0 1 8.490485 6.897330 574.275818
745 0 1 8.732710 6.912440 573.331177
746 0 1 8.849463 7.011424 572.311768
747 0 1 8.976763 6.978450 571.310791
748 0 1 8.665724 7.017285 570.426697
749 0 1 8.523853 7.157490 569.526001
750 0 1 8.126166 7.175494 568.578308
751 0 1 7.925550 7.254325 567.644531
752 0 1 7.690211 7.325406 566.722107
753 0 1 7.605392 7.371669 565.758179
754 0 1 7.498459 7.623853 564.827209
755 0 1 7.549515 7.223547 563.864014
756 0 1 7.880851 7.059706 562.960815
757 0 1 7.878135 6.988980 561.968384
758 0 1 7.830585 7.212081 560.995728
759 0 1 7.642411 7.263626 560.031677
760 0 1 7.497124 7.056253 559.072327
761 0 1 7.341336 7.070939 558.100098
762 0 1 7.272796 7.068879 557.168213
763 0 1 6.993020 6.735700 556.307190
764 0 1 6.716380 6.352550 555.518921
765 0 1 6.369580 5.938330 554.727173
766 0 1 6.283100 5.232660 554.104614
767 0 1 6.239010 4.909690 553.250122
768 0 1 6.398490 4.672190 552.313904
769 0 1 6.598850 4.344490 551.418091
770 0 1 6.683710 4.345050 550.469299
771 0 1 6.918690 4.529770 549.546814
772 0 1 6.961680 4.829250 548.637329
773 0 1 6.668990 5.143030 547.808472
774 0 1 6.309310 5.146880 546.931580
775 0 1 6.079070 5.363480 546.030029
776 0 1 5.815700 5.485140 545.097107
777 0 1 5.675600 5.473280 544.176392
778 0 1 5.686460 5.697270 543.139099
779 0 1 5.593420 5.932990 542.162292
780 0 1 5.527360 5.932840 541.183472
781 0 1 5.466030 5.898800 540.220398
782 0 1 5.049690 5.939170 539.367432
783 0 1 4.655330 5.851830 538.439697
784 0 1 4.202150 5.985470 537.617798
785 0 1 4.059760 6.085360 536.657227
786 0 1 4.085310 5.886040 535.699402
787 0 1 3.892820 5.862870 534.783203
788 0 1 3.615480 6.057500 533.889709
789 0 1 3.558960 6.263680 532.959778