LAMMPS data file via MDAnalysis

        1000  atoms
        1000  bonds
        1000  angles
           0  dihedrals
           0  impropers

           1  atom types
           1  bond types
           1  angle types
           0  dihedral types
           0  improper types

0.000000 16.000000 xlo xhi
0.000000 16.000000 ylo yhi
0.000000 1257.000000 zlo zhi


Masses

1 1.000000

Atoms

1 0 1 11.136720 7.616804 447.398010
2 0 1 11.630410 7.532147 448.338013
3 0 1 12.192619 7.590874 449.179993
4 0 1 12.718451 7.601635 450.015991
5 0 1 12.982430 7.859702 450.955017
6 0 1 12.913890 8.139556 451.885986
7 0 1 12.870530 8.315441 452.789001
8 0 1 12.535590 8.231795 453.794006
9 0 1 12.235291 8.070477 454.673004
10 0 1 11.891780 7.962440 455.609985
11 0 1 11.669200 7.923716 456.596985
12 0 1 11.642250 7.847179 457.531006
13 0 1 11.267820 8.164635 458.362000
14 0 1 11.261610 8.441820 459.283997
15 0 1 11.224830 8.477774 460.201996
16 0 1 11.244610 8.718832 461.145020
17 0 1 11.604280 9.109420 461.937988
18 0 1 11.497290 9.564870 462.746002
19 0 1 11.673370 9.911040 463.621002
20 0 1 11.878640 10.205450 464.502991
21 0 1 11.928180 10.245510 465.453003
22 0 1 11.965530 10.121810 466.445984
23 0 1 11.938340 10.038460 467.380981
24 0 1 11.842900 9.836180 468.343994
25 0 1 11.559000 10.124880 469.201996
26 0 1 11.386260 10.484620 470.005981
27 0 1 11.428900 10.752960 470.962006
28 0 1 11.477410 11.151500 471.878998
29 0 1 11.391330 11.649040 472.712006
30 0 1 11.313730 11.909370 473.621002
31 0 1 11.123250 11.758710 474.536987
32 0 1 11.296761 11.356880 475.444000
33 0 1 11.934880 10.895500 476.072021
34 0 1 12.317900 10.515760 476.903992
35 0 1 12.595310 10.236860 477.799011
36 0 1 12.744040 9.901340 478.651978
37 0 1 12.922850 9.567290 479.549988
38 0 1 13.025930 9.482310 480.477997
39 0 1 13.050310 9.205560 481.414978
40 0 1 13.011710 8.909259 482.371002
41 0 1 12.669780 8.506785 483.285004
42 0 1 12.349920 8.075561 484.109985
43 0 1 12.145430 7.537330 484.890015
44 0 1 11.857650 7.001083 485.580017
45 0 1 11.499001 6.428490 486.274994
46 0 1 10.992300 6.181500 487.080994
47 0 1 10.730910 5.841860 487.950989
48 0 1 10.694010 5.437130 488.802002
49 0 1 10.399970 5.264250 489.684998
50 0 1 9.927440 4.979240 490.496002
51 0 1 9.416340 4.856130 491.257019
52 0 1 8.868486 4.738910 491.994019
53 0 1 8.401678 4.816140 492.765015
54 0 1 7.889728 4.756190 493.591003
55 0 1 7.391887 4.508020 494.455017
56 0 1 7.311510 4.368230 495.386993
57 0 1 7.357716 4.238840 496.319000
58 0 1 7.748281 4.051480 497.251007
59 0 1 7.880709 3.993930 498.244019
60 0 1 7.956331 4.024040 499.214996
61 0 1 8.085844 4.154270 500.184021
62 0 1 7.884998 4.254260 501.096008
63 0 1 7.567657 4.416220 502.028015
64 0 1 7.523683 4.493150 503.002991
65 0 1 7.388036 4.453550 503.923004
66 0 1 7.349692 4.192670 504.864014
67 0 1 7.136348 4.431580 505.792999
68 0 1 7.070090 4.473530 506.772003
69 0 1 6.665830 4.627920 507.697998
70 0 1 6.164860 4.955010 508.419006
71 0 1 5.916530 4.826590 509.364014
72 0 1 5.777440 4.567370 510.255005
73 0 1 5.774250 4.308360 511.250000
74 0 1 5.491610 4.119900 512.195984
75 0 1 5.591100 3.766750 513.065979
76 0 1 6.032780 3.539200 513.916992
77 0 1 6.228510 3.410140 514.875000
78 0 1 6.361320 3.230570 515.843994
79 0 1 6.512450 3.080270 516.744019
80 0 1 6.730470 3.165490 517.656006
81 0 1 7.168765 3.334810 518.510986
82 0 1 7.634061 3.598330 519.266968
83 0 1 7.921712 3.672380 520.122009
84 0 1 8.161141 4.196600 520.940979
85 0 1 8.280925 4.703260 521.705017
86 0 1 8.327783 5.080560 522.562988
87 0 1 7.844213 4.994060 523.460022
88 0 1 7.446687 4.656090 524.255005
89 0 1 6.858810 4.404780 524.939026
90 0 1 6.645410 3.879800 525.684998
91 0 1 6.618820 3.657030 526.661987
92 0 1 6.681170 3.514830 527.614014
93 0 1 6.921400 3.429800 528.519775
94 0 1 7.238798 3.495720 529.418396
95 0 1 7.522818 3.649020 530.378784
96 0 1 7.986641 3.607550 531.237915
97 0 1 8.157976 3.597460 532.159607
98 0 1 8.414012 3.531350 533.068909
99 0 1 9.023440 3.682780 533.798706
100 0 1 9.639820 4.013260 534.451416
101 0 1 10.052470 4.268540 535.303833
102 0 1 10.451450 3.941290 536.176392
103 0 1 10.503770 3.779380 537.185486
104 0 1 10.406919 3.637590 538.170288
105 0 1 10.328600 3.539820 539.122314
106 0 1 10.332320 3.500080 540.043213
107 0 1 10.310820 3.599040 541.056519
108 0 1 10.177970 3.631650 541.989685
109 0 1 10.304920 3.759230 543.013000
110 0 1 10.499150 3.643070 543.965820
111 0 1 10.790150 3.448900 544.878723
112 0 1 10.992630 3.251490 545.756104
113 0 1 10.889910 3.222680 546.734009
114 0 1 10.548960 3.573380 547.567871
115 0 1 10.091610 3.742330 548.456177
116 0 1 9.854280 4.002300 549.378113
117 0 1 9.487150 4.170430 550.287292
118 0 1 9.007610 4.187390 551.118286
119 0 1 8.836446 4.039340 552.061096
120 0 1 8.518840 3.997810 552.964233
121 0 1 8.167724 4.187730 553.860596
122 0 1 8.098635 3.898090 554.788391
123 0 1 8.142952 3.668740 555.747314
124 0 1 8.169889 3.885190 556.771912
125 0 1 7.778721 4.162320 557.603821
126 0 1 7.376200 4.551720 558.405701
127 0 1 6.904660 4.830510 559.193420
128 0 1 6.473140 5.063710 559.994019
129 0 1 6.225760 5.444740 560.923584
130 0 1 5.809030 5.536640 561.819885
131 0 1 5.423610 5.890980 562.644897
132 0 1 5.364670 5.969550 563.635193
133 0 1 5.717160 5.883840 564.486084
134 0 1 6.064340 5.731280 565.388489
135 0 1 6.560020 6.031360 566.255005
136 0 1 6.964040 6.232400 567.145020
137 0 1 7.057070 6.460030 568.063232
138 0 1 7.030223 6.808890 568.971619
139 0 1 7.209556 7.357214 569.739624
140 0 1 7.598143 7.826614 570.505798
141 0 1 8.141983 8.367218 571.064087
142 0 1 8.495439 9.129180 571.595520
143 0 1 8.769125 9.585030 572.408325
144 0 1 8.922587 9.914470 573.277710
145 0 1 8.729485 10.249520 574.181580
146 0 1 8.354485 10.553580 575.043213
147 0 1 8.001206 10.850740 575.869995
148 0 1 7.795633 10.898390 576.760132
149 0 1 7.307017 11.129169 577.556519
150 0 1 7.040173 11.210430 578.458313
151 0 1 6.684450 11.144640 579.393005
152 0 1 6.187120 10.998870 580.187073
153 0 1 5.489040 11.022970 580.833496
154 0 1 4.788810 11.071140 581.441284
155 0 1 4.126200 10.985760 582.113586
156 0 1 3.377880 10.669880 582.698730
157 0 1 2.730440 10.199120 583.234924
158 0 1 2.271210 9.488130 583.725098
159 0 1 2.155380 8.755939 584.325684
160 0 1 2.012880 8.038923 584.921692
161 0 1 2.207010 7.443438 585.687927
162 0 1 2.643540 7.078101 586.465820
163 0 1 3.158160 6.886520 587.247192
164 0 1 3.749250 6.992380 588.044312
165 0 1 4.334080 7.423660 588.611694
166 0 1 4.663120 7.833717 589.379028
167 0 1 5.147750 7.986339 590.246582
168 0 1 5.317510 8.050362 591.146118
169 0 1 5.565620 7.913655 592.067017
170 0 1 5.833300 7.766733 592.958008
171 0 1 6.195050 7.681246 593.895874
172 0 1 6.500290 7.598572 594.767090
173 0 1 6.691500 7.388420 595.688721
174 0 1 6.698410 6.813430 596.394104
175 0 1 6.491370 6.003740 596.881226
176 0 1 6.325740 5.242350 597.540588
177 0 1 6.207140 4.606550 598.152222
178 0 1 6.166220 4.103990 598.888977
179 0 1 6.112120 3.636410 599.719482
180 0 1 5.794700 3.279340 600.537720
181 0 1 5.727200 3.298840 601.569824
182 0 1 5.706290 3.394990 602.562317
183 0 1 5.675320 3.601690 603.514587
184 0 1 6.046850 3.828130 604.486694
185 0 1 6.499670 3.978360 605.293884
186 0 1 6.902020 4.063200 606.280701
187 0 1 6.835320 4.010850 607.251221
188 0 1 6.605740 4.036750 608.152588
189 0 1 6.881430 3.925790 609.086426
190 0 1 7.226236 3.733920 609.976013
191 0 1 7.671129 3.459340 610.828491
192 0 1 8.265903 3.442820 611.539917
193 0 1 8.822332 3.433270 612.382080
194 0 1 9.339190 3.920010 613.078369
195 0 1 9.910280 4.340450 613.754028
196 0 1 10.569310 4.662560 614.385681
197 0 1 11.117280 4.914420 615.130188
198 0 1 11.791500 4.939090 615.867798
199 0 1 12.179581 5.085230 616.753174
200 0 1 12.334579 5.143320 617.691589
201 0 1 12.314320 5.230980 618.664612
202 0 1 12.413390 5.398390 619.594299
203 0 1 12.170930 5.454120 620.522644
204 0 1 12.035800 5.870000 621.367981
205 0 1 11.714760 5.806610 622.236816
206 0 1 11.340820 5.870060 623.174744
207 0 1 10.859540 5.697420 623.945496
208 0 1 10.512170 5.712380 624.847412
209 0 1 10.300910 6.005240 625.772949
210 0 1 9.889980 6.255840 626.659912
211 0 1 9.600290 6.349630 627.599121
212 0 1 9.255930 6.532330 628.561096
213 0 1 9.016370 6.905430 629.383789
214 0 1 8.734226 7.391176 630.257324
215 0 1 8.394422 7.803774 631.054260
216 0 1 7.962628 8.382939 631.755005
217 0 1 7.331536 8.832083 632.307617
218 0 1 6.844230 9.228130 633.037476
219 0 1 6.383080 9.411940 633.892212
220 0 1 6.067060 9.590490 634.715332
221 0 1 5.995340 9.902910 635.647278
222 0 1 6.088500 9.852780 636.630615
223 0 1 5.867030 9.739270 637.575562
224 0 1 6.003510 9.295560 638.407898
225 0 1 6.347910 8.777303 639.154297
226 0 1 6.472720 8.093559 639.905579
227 0 1 6.877520 7.560897 640.663086
228 0 1 7.371809 7.021881 641.398071
229 0 1 7.617976 6.628460 642.255005
230 0 1 7.757119 6.039350 643.028381
231 0 1 8.007170 5.371800 643.778687
232 0 1 8.204838 5.305280 644.710815
233 0 1 8.641961 5.046460 645.573730
234 0 1 8.812165 4.657600 646.513611
235 0 1 8.766009 4.336040 647.458984
236 0 1 8.802115 4.038010 648.327698
237 0 1 8.511055 3.820580 649.217102
238 0 1 8.343324 4.207280 650.088074
239 0 1 8.247437 4.678760 650.849426
240 0 1 8.371025 5.005550 651.765198
241 0 1 8.810191 5.268850 652.600891
242 0 1 8.844224 5.555810 653.571289
243 0 1 8.821287 6.028680 654.362122
244 0 1 8.909995 6.351100 655.204590
245 0 1 9.047170 6.566580 656.140869
246 0 1 9.232250 6.737940 657.085205
247 0 1 9.429950 6.833730 658.025208
248 0 1 9.692480 6.910510 659.000671
249 0 1 9.781460 6.876580 660.015625
250 0 1 9.845080 6.856670 660.983582
251 0 1 9.888240 6.907830 661.969177
252 0 1 9.755850 7.377362 662.732727
253 0 1 9.503420 7.923812 663.545898
254 0 1 9.015730 8.236293 664.323486
255 0 1 8.550977 8.547373 665.118896
256 0 1 8.216073 8.641005 666.038696
257 0 1 8.119207 8.818449 666.978516
258 0 1 7.789252 8.779103 667.873596
259 0 1 7.743475 8.975378 668.831482
260 0 1 7.718155 9.004930 669.861206
261 0 1 7.723258 8.950695 670.801086
262 0 1 7.435159 9.043040 671.735779
263 0 1 7.020651 9.428340 672.522888
264 0 1 6.588740 9.440500 673.377808
265 0 1 6.109900 9.415040 674.253723
266 0 1 5.782270 9.588590 675.177002
267 0 1 5.762910 9.727910 676.151428
268 0 1 5.232210 9.970770 676.955994
269 0 1 4.773300 10.115920 677.767212
270 0 1 4.554020 10.237659 678.705994
271 0 1 4.187240 10.369340 679.554932
272 0 1 4.100030 10.233820 680.598511
273 0 1 3.988790 9.821939 681.434509
274 0 1 3.910670 9.549420 682.356873
275 0 1 3.842400 9.423330 683.273010
276 0 1 3.889030 9.199450 684.221680
277 0 1 3.862340 8.949715 685.144409
278 0 1 3.800380 9.018960 686.113403
279 0 1 3.753920 8.849314 687.069214
280 0 1 3.477790 8.675103 688.001831
281 0 1 3.256050 8.269082 688.846069
282 0 1 3.165590 7.465426 689.343201
283 0 1 3.203090 6.621260 689.785095
284 0 1 3.354220 5.872620 690.334717
285 0 1 3.496350 5.194530 690.940186
286 0 1 3.753980 4.724120 691.702026
287 0 1 3.951400 4.674280 692.632324
288 0 1 4.103760 4.535260 693.530090
289 0 1 4.242870 4.150310 694.393311
290 0 1 4.322260 3.886290 695.365967
291 0 1 4.435210 3.530960 696.232117
292 0 1 4.587310 3.122320 697.112488
293 0 1 4.715000 2.959490 697.988281
294 0 1 5.021780 2.790140 698.929382
295 0 1 5.498590 2.653770 699.750610
296 0 1 5.966020 2.626410 700.623169
297 0 1 6.523050 2.661650 701.482483
298 0 1 6.874880 2.703450 702.383911
299 0 1 7.293394 3.141080 703.175903
300 0 1 7.600902 3.559810 703.935608
301 0 1 7.766675 3.954850 704.701172
302 0 1 7.849654 4.606020 705.436707
303 0 1 8.200519 5.259250 706.140381
304 0 1 8.595144 5.995870 706.761475
305 0 1 9.078020 6.546020 707.428894
306 0 1 9.174770 7.068890 708.192017
307 0 1 9.291850 7.406459 709.108521
308 0 1 9.239080 8.074336 709.861511
309 0 1 9.059230 8.472172 710.806274
310 0 1 9.149010 8.741112 711.726074
311 0 1 9.363400 9.079120 712.598267
312 0 1 9.895500 9.417930 713.269592
313 0 1 10.331450 9.909200 713.964905
314 0 1 10.630510 10.419580 714.752502
315 0 1 10.924650 10.885750 715.513672
316 0 1 11.563110 11.145820 716.220276
317 0 1 12.150700 11.047400 717.012085
318 0 1 12.410240 10.806110 717.923523
319 0 1 12.405540 10.424370 718.852173
320 0 1 12.045890 9.889160 719.605896
321 0 1 11.544880 9.372860 720.236877
322 0 1 10.997200 9.057190 721.000916
323 0 1 10.540570 8.729882 721.802795
324 0 1 10.028180 8.575533 722.616394
325 0 1 9.719270 8.357033 723.567078
326 0 1 9.573060 8.130031 724.492126
327 0 1 9.278230 7.846680 725.385620
328 0 1 8.787700 7.413074 726.161377
329 0 1 8.645568 6.943720 726.951599
330 0 1 8.394291 6.329670 727.636780
331 0 1 8.152436 5.882790 728.447998
332 0 1 7.757821 5.441530 729.228027
333 0 1 7.435018 4.964750 730.004028
334 0 1 6.974100 4.453320 730.676025
335 0 1 6.589100 3.941710 731.427979
336 0 1 6.222170 3.340390 732.101990
337 0 1 5.692020 3.025690 732.820984
338 0 1 5.125650 3.016720 733.588989
339 0 1 4.475230 2.895570 734.333984
340 0 1 3.948950 3.041800 735.065979
341 0 1 3.458300 3.391830 735.859009
342 0 1 3.405010 3.410810 736.807007
343 0 1 3.400750 3.322460 737.778015
344 0 1 3.288070 3.420160 738.745972
345 0 1 3.247710 3.751310 739.660034
346 0 1 3.358660 3.749840 740.645020
347 0 1 3.622720 3.878750 741.682007
348 0 1 3.898910 4.194210 742.539978
349 0 1 4.426260 4.548660 743.280029
350 0 1 4.691410 4.815150 744.151001
351 0 1 4.839610 4.869070 745.070007
352 0 1 5.215590 4.693620 745.903015
353 0 1 5.505960 4.600600 746.814026
354 0 1 5.887010 4.711120 747.705994
355 0 1 5.923590 4.947230 748.755005
356 0 1 5.917980 4.938980 749.666016
357 0 1 5.922840 4.770680 750.606995
358 0 1 6.039450 4.770150 751.526978
359 0 1 6.169760 5.074230 752.408020
360 0 1 6.244880 5.420970 753.262024
361 0 1 6.202400 5.596420 754.229980
362 0 1 6.063320 5.640090 755.148987
363 0 1 6.098910 5.446280 756.151001
364 0 1 5.993510 5.208560 757.104980
365 0 1 6.180040 4.928030 757.984009
366 0 1 6.710210 4.619260 758.723999
367 0 1 7.343194 4.125170 759.330994
368 0 1 7.935894 3.878030 760.036987
369 0 1 8.597235 3.777000 760.653015
370 0 1 8.987674 3.887120 761.563965
371 0 1 9.356300 3.845580 762.458984
372 0 1 9.831980 3.986100 763.391968
373 0 1 9.994340 4.288900 764.291016
374 0 1 9.819150 4.655460 765.125977
375 0 1 9.873360 4.932890 766.088013
376 0 1 9.858230 5.207960 767.002991
377 0 1 9.608480 5.809330 767.806030
378 0 1 9.154400 6.241990 768.526001
379 0 1 9.180560 6.706690 769.393982
380 0 1 9.070820 7.431430 770.075989
381 0 1 8.610421 8.055791 770.721008
382 0 1 8.365732 8.549028 771.485962
383 0 1 8.139011 9.093270 772.221985
384 0 1 7.716816 9.659770 772.851990
385 0 1 7.542524 10.478650 773.384033
386 0 1 7.195615 11.047960 774.114990
387 0 1 6.859900 11.750510 774.627014
388 0 1 6.461380 12.314260 775.263000
389 0 1 6.002880 12.812290 775.895020
390 0 1 5.551010 12.958460 776.822998
391 0 1 5.282580 12.839830 777.770996
392 0 1 4.751720 12.639920 778.513000
393 0 1 4.325180 12.111190 779.213013
394 0 1 3.825900 11.618780 779.879028
395 0 1 3.440780 11.299310 780.719971
396 0 1 3.270080 10.869220 781.609985
397 0 1 3.425940 10.697790 782.544006
398 0 1 3.783970 10.531140 783.509033
399 0 1 4.482640 10.465460 784.265015
400 0 1 5.073440 10.486130 784.988037
401 0 1 5.607020 10.926340 785.684021
402 0 1 6.172610 11.099670 786.504028
403 0 1 6.876620 11.094620 787.145996
404 0 1 7.537897 10.795740 787.802002
405 0 1 8.414937 10.630760 788.263000
406 0 1 9.258970 10.438360 788.596985
407 0 1 10.079220 10.004550 788.797974
408 0 1 10.947880 9.782110 789.182007
409 0 1 11.683630 9.313320 789.552002
410 0 1 12.103180 8.764592 790.235962
411 0 1 12.512600 8.095995 790.979980
412 0 1 12.876480 7.703497 791.710022
413 0 1 13.101030 7.274450 792.523010
414 0 1 13.074261 6.990170 793.484985
415 0 1 12.951429 6.752190 794.422974
416 0 1 12.639040 6.857730 795.301025
417 0 1 12.376270 7.375716 796.202026
418 0 1 12.133630 7.739750 797.056030
419 0 1 11.771300 8.009497 797.921997
420 0 1 11.264140 8.215993 798.745972
421 0 1 10.761450 8.196882 799.541992
422 0 1 10.246630 7.982028 800.343994
423 0 1 9.520270 7.672992 800.891968
424 0 1 9.145130 6.959850 801.414978
425 0 1 8.712511 6.329020 802.004028
426 0 1 8.161598 5.754320 802.546021
427 0 1 7.562427 5.229310 803.039001
428 0 1 6.870810 4.563630 803.417969
429 0 1 6.230720 4.027070 803.903015
430 0 1 5.894500 3.532710 804.646973
431 0 1 5.799780 3.269100 805.530029
432 0 1 5.799410 2.943060 806.426025
433 0 1 5.895630 2.530600 807.302979
434 0 1 6.038320 2.167210 808.182983
435 0 1 6.281120 1.956110 809.132019
436 0 1 6.570430 2.106280 810.046997
437 0 1 7.031168 2.552800 810.846008
438 0 1 7.483078 3.197160 811.299988
439 0 1 8.006711 3.756680 811.895020
440 0 1 8.740686 3.942160 812.523010
441 0 1 9.296870 4.193420 813.276001
442 0 1 9.908610 4.605160 813.963989
443 0 1 10.421000 4.960820 814.710022
444 0 1 10.608500 5.269310 815.598999
445 0 1 10.566990 5.630690 816.487000
446 0 1 10.663840 6.044020 817.344971
447 0 1 10.711110 6.640950 818.150024
448 0 1 10.522840 7.224211 818.818970
449 0 1 10.404830 8.114774 819.231995
450 0 1 10.377920 9.035710 819.583984
451 0 1 9.979980 9.909550 819.825989
452 0 1 9.630130 10.546180 820.382996
453 0 1 9.342700 11.367450 820.755005
454 0 1 9.078020 12.286850 821.088013
455 0 1 8.723494 12.940001 821.690979
456 0 1 8.459497 12.996770 822.552979
457 0 1 8.385475 13.118670 823.474976
458 0 1 8.103280 12.975850 824.370972
459 0 1 8.119885 12.697540 825.281006
460 0 1 7.738210 12.308460 826.096008
461 0 1 7.327888 11.737380 826.661987
462 0 1 7.104402 11.080620 827.427002
463 0 1 7.202108 10.663120 828.259033
464 0 1 7.466595 10.234800 829.174011
465 0 1 8.041856 9.841560 829.903992
466 0 1 8.555099 9.537840 830.610962
467 0 1 9.081079 8.986609 831.207031
468 0 1 9.572960 8.261956 831.585022
469 0 1 10.061690 7.480537 831.554016
470 0 1 10.457850 6.656420 831.382996
471 0 1 10.876630 6.134600 830.622986
472 0 1 11.517260 5.609800 829.989014
473 0 1 12.004539 5.145120 829.302979
474 0 1 12.182400 4.505030 828.625000
475 0 1 12.454330 4.076560 827.731018
476 0 1 12.720961 3.678830 826.936035
477 0 1 12.683680 3.439400 826.035034
478 0 1 12.685020 3.250620 825.098022
479 0 1 12.345900 3.137680 824.193970
480 0 1 11.953150 2.740170 823.431030
481 0 1 11.510201 2.585960 822.526978
482 0 1 10.733450 2.468610 821.940002
483 0 1 9.992250 2.592210 821.317993
484 0 1 9.282290 2.540640 820.713989
485 0 1 8.525714 2.600490 820.166992
486 0 1 7.837713 2.892360 819.591003
487 0 1 7.080159 3.070810 819.010010
488 0 1 6.369600 3.383710 818.424011
489 0 1 5.880270 3.865290 817.761963
490 0 1 5.265440 4.402950 817.286011
491 0 1 4.911230 5.311730 817.031982
492 0 1 4.612210 6.172040 816.692993
493 0 1 4.330540 6.935070 816.124023
494 0 1 4.226780 7.541249 815.351990
495 0 1 4.310500 7.684596 814.453003
496 0 1 4.529520 7.654311 813.544983
497 0 1 4.606620 7.599781 812.525024
498 0 1 5.104170 7.281711 811.723999
499 0 1 5.553410 6.785440 810.969971
500 0 1 5.870510 6.313850 810.187012
501 0 1 6.175910 6.207320 809.309021
502 0 1 6.795390 6.077360 808.502014
503 0 1 7.077457 5.750330 807.610962
504 0 1 7.312113 5.359160 806.733032
505 0 1 7.355456 4.656670 806.054016
506 0 1 7.648637 4.248590 805.179993
507 0 1 7.949893 4.085140 804.281982
508 0 1 7.918684 4.047460 803.309998
509 0 1 7.846613 4.301570 802.343994
510 0 1 7.840376 4.510770 801.405029
511 0 1 7.843904 5.063860 800.570007
512 0 1 7.793767 5.684620 799.802979
513 0 1 7.766932 6.470770 799.125000
514 0 1 7.758358 7.214563 798.544983
515 0 1 7.495465 7.894826 797.893982
516 0 1 7.472279 8.544682 797.174011
517 0 1 7.369478 9.027650 796.244995
518 0 1 7.450826 9.373400 795.346985
519 0 1 7.646556 10.046860 794.677979
520 0 1 7.844373 10.757860 793.994019
521 0 1 8.023879 11.207060 793.237000
522 0 1 8.266173 11.379869 792.354980
523 0 1 8.298211 11.740800 791.416016
524 0 1 8.373619 11.889730 790.479980
525 0 1 8.712914 11.945250 789.577026
526 0 1 9.346920 12.256810 788.822021
527 0 1 9.468260 12.723030 787.926025
528 0 1 9.490120 13.142750 787.028015
529 0 1 9.504270 13.519489 786.114990
530 0 1 9.670510 13.406750 785.171997
531 0 1 9.555210 13.382891 784.207031
532 0 1 9.312560 13.349541 783.289978
533 0 1 9.126730 13.180679 782.382019
534 0 1 9.080580 13.119320 781.414978
535 0 1 9.325210 12.603400 780.617004
536 0 1 9.398180 12.347980 779.686035
537 0 1 9.505020 12.301300 778.716003
538 0 1 9.560260 12.345020 777.745972
539 0 1 9.513030 12.282061 776.775024
540 0 1 9.349800 12.171440 775.888000
541 0 1 9.339230 11.937860 774.943970
542 0 1 9.211400 11.680890 774.035034
543 0 1 9.047810 11.150300 773.255981
544 0 1 9.107800 10.768100 772.330994
545 0 1 9.175280 10.224140 771.528015
546 0 1 9.700140 10.067770 770.763000
547 0 1 10.260960 9.964170 770.013000
548 0 1 10.739870 10.279260 769.224976
549 0 1 11.162450 10.621910 768.494995
550 0 1 11.623880 11.011930 767.737000
551 0 1 12.219120 11.369210 767.108032
552 0 1 12.751390 11.912480 766.429993
553 0 1 12.962650 12.301680 765.554993
554 0 1 12.917231 12.556601 764.614990
555 0 1 12.812090 12.362490 763.718994
556 0 1 12.662439 11.970280 762.885986
557 0 1 12.672370 11.312571 762.150024
558 0 1 12.625811 10.660510 761.427002
559 0 1 12.847810 10.114759 760.682007
560 0 1 13.106550 9.835800 759.723022
561 0 1 12.978670 9.456560 758.862000
562 0 1 12.826099 9.338180 757.934998
563 0 1 12.777570 9.321030 756.997986
564 0 1 12.278450 9.057230 756.151001
565 0 1 11.775980 9.113490 755.249023
566 0 1 11.551790 8.948787 754.292969
567 0 1 11.234580 8.819730 753.382019
568 0 1 10.862320 8.435727 752.570007
569 0 1 10.433990 8.117565 751.705994
570 0 1 10.123720 8.073797 750.838013
571 0 1 9.720340 7.972131 750.013977
572 0 1 9.282830 7.868650 749.141968
573 0 1 8.858797 7.907435 748.236023
574 0 1 8.874715 8.059349 747.301025
575 0 1 9.144160 8.389456 746.434021
576 0 1 9.460960 8.668289 745.544006
577 0 1 9.769610 9.214550 744.763000
578 0 1 10.181710 9.562700 743.958984
579 0 1 10.315090 10.032330 743.185974
580 0 1 10.263700 10.473150 742.317993
581 0 1 9.933170 10.620640 741.390991
582 0 1 9.811980 10.631470 740.427979
583 0 1 9.715780 10.504510 739.507019
584 0 1 9.736300 10.663620 738.577026
585 0 1 9.662690 10.783030 737.661011
586 0 1 9.322760 10.964450 736.780029
587 0 1 9.102230 11.088730 735.825989
588 0 1 9.182790 10.959020 734.864014
589 0 1 9.037750 10.914721 733.887024
590 0 1 8.670092 10.761190 733.057007
591 0 1 8.257274 10.585300 732.226990
592 0 1 7.682217 10.563000 731.422974
593 0 1 7.029848 10.538930 730.708984
594 0 1 6.477960 10.559771 729.994019
595 0 1 5.646830 10.479640 729.546997
596 0 1 4.985140 10.473500 728.830017
597 0 1 4.404300 10.754900 728.140320
598 0 1 3.706690 10.879660 727.489075
599 0 1 3.088880 10.942050 726.706482
600 0 1 2.667990 11.154040 725.850830
601 0 1 2.234320 11.209360 724.904419
602 0 1 1.961740 11.329180 723.960327
603 0 1 1.887200 11.158560 723.027893
604 0 1 2.126080 11.114030 721.981384
605 0 1 2.012810 10.987830 720.946594
606 0 1 2.023980 10.872470 719.972534
607 0 1 2.344190 10.325580 719.171326
608 0 1 2.666960 9.801410 718.460022
609 0 1 2.670020 9.515841 717.455505
610 0 1 2.947210 9.154950 716.604492
611 0 1 3.462370 8.933726 715.784668
612 0 1 3.947610 8.781303 714.934570
613 0 1 4.295190 8.449784 714.110107
614 0 1 4.675110 8.356954 713.231812
615 0 1 5.076250 8.290824 712.323425
616 0 1 5.661800 8.138321 711.613098
617 0 1 6.025770 7.898683 710.754822
618 0 1 6.454490 7.698126 709.919617
619 0 1 7.032895 7.550777 709.146973
620 0 1 7.612116 7.477369 708.443420
621 0 1 8.211662 7.689629 707.683472
622 0 1 8.691303 7.537146 706.835693
623 0 1 9.174500 7.415866 705.950500
624 0 1 9.653440 7.598081 705.171509
625 0 1 10.043221 7.747446 704.366333
626 0 1 10.352070 7.486585 703.490723
627 0 1 10.692300 7.144128 702.716125
628 0 1 11.036110 7.355881 701.834778
629 0 1 11.182390 7.442051 700.886414
630 0 1 11.173130 7.510274 699.930603
631 0 1 10.731770 7.769907 699.155273
632 0 1 10.073040 8.200853 698.528381
633 0 1 9.507710 8.705151 697.941406
634 0 1 9.227020 9.243750 697.121704
635 0 1 8.966153 9.815100 696.361389
636 0 1 8.605460 10.339450 695.584412
637 0 1 8.270286 10.687520 694.683594
638 0 1 8.222714 10.966710 693.739990
639 0 1 8.097332 11.160600 692.785034
640 0 1 7.761923 11.153900 691.837280
641 0 1 7.613791 11.007130 690.893311
642 0 1 7.420610 10.853889 689.982422
643 0 1 7.544613 10.607110 688.972595
644 0 1 7.850592 10.308820 688.126709
645 0 1 8.100172 10.044790 687.194092
646 0 1 8.584211 9.701930 686.430115
647 0 1 9.153370 9.116850 685.873108
648 0 1 9.568600 8.733865 685.112122
649 0 1 9.930470 8.430112 684.310913
650 0 1 10.045900 8.220417 683.423218
651 0 1 10.156270 8.295202 682.473816
652 0 1 10.176980 8.510606 681.473206
653 0 1 10.282800 8.332556 680.563293
654 0 1 10.352489 7.991771 679.622375
655 0 1 10.481210 7.832385 678.668823
656 0 1 10.806030 7.873370 677.651184
657 0 1 11.075790 8.107230 676.739014
658 0 1 11.221770 8.440429 675.782104
659 0 1 11.549480 8.965721 674.996704
660 0 1 11.773180 9.461060 674.196289
661 0 1 11.781040 9.876440 673.258301
662 0 1 11.831050 10.220810 672.396179
663 0 1 11.560630 10.586620 671.519897
664 0 1 11.623920 10.958120 670.681824
665 0 1 11.529710 11.221889 669.757385
666 0 1 11.581030 11.461760 668.868225
667 0 1 11.687140 11.810720 667.931702
668 0 1 11.893530 12.213591 667.014221
669 0 1 12.199060 12.371300 666.126526
670 0 1 12.406270 12.592250 665.185974
671 0 1 12.331950 12.953350 664.359131
672 0 1 12.204679 12.948460 663.388428
673 0 1 11.976151 12.759410 662.484131
674 0 1 11.883790 12.699390 661.552185
675 0 1 11.979700 12.776360 660.611511
676 0 1 11.887120 12.712500 659.666016
677 0 1 11.943460 12.430410 658.737305
678 0 1 11.916780 12.216980 657.774170
679 0 1 12.019051 11.688210 657.008728
680 0 1 12.219840 11.205330 656.207886
681 0 1 12.265079 10.924450 655.336914
682 0 1 12.111330 10.345510 654.612122
683 0 1 11.835540 9.879800 653.801270
684 0 1 11.307529 9.468800 653.032410
685 0 1 10.585170 9.185280 652.533691
686 0 1 9.729050 9.243290 652.018494
687 0 1 8.957549 8.886724 651.646118
688 0 1 8.172570 8.483792 651.305725
689 0 1 7.287351 8.248805 651.002197
690 0 1 6.531360 8.362370 650.448792
691 0 1 5.931720 8.414099 649.717102
692 0 1 5.402170 8.344756 648.912231
693 0 1 4.920630 8.222783 648.066895
694 0 1 4.489660 8.349342 647.218872
695 0 1 4.197520 8.441364 646.285278
696 0 1 3.853990 8.283729 645.359192
697 0 1 3.666420 8.257252 644.430420
698 0 1 3.550260 7.907158 643.579407
699 0 1 3.551600 7.798255 642.577576
700 0 1 3.493460 7.741717 641.553894
701 0 1 3.406430 7.534716 640.645691
702 0 1 3.487080 7.123323 639.758972
703 0 1 3.344080 6.759540 638.866882
704 0 1 2.942790 6.321510 638.084656
705 0 1 2.644590 5.702800 637.351807
706 0 1 2.626700 5.242560 636.539001
707 0 1 2.911220 4.901930 635.625061
708 0 1 3.355590 4.665050 634.789612
709 0 1 3.719660 4.597970 633.880493
710 0 1 3.961810 4.811170 632.981384
711 0 1 4.035530 5.408150 632.180969
712 0 1 3.725800 5.920670 631.398560
713 0 1 3.423380 6.463340 630.673706
714 0 1 2.878730 6.887480 629.986450
715 0 1 2.394730 7.105205 629.187622
716 0 1 2.179910 7.383146 628.295105
717 0 1 1.958780 7.599605 627.423340
718 0 1 1.810810 7.563313 626.400574
719 0 1 1.825610 7.797243 625.426758
720 0 1 2.051860 8.123307 624.606934
721 0 1 2.190590 8.743545 623.865601
722 0 1 1.996360 9.044080 623.009460
723 0 1 1.860390 9.364440 622.052856
724 0 1 1.763280 9.847070 621.263367
725 0 1 1.936100 10.076960 620.323303
726 0 1 2.051730 10.130010 619.406006
727 0 1 1.972470 10.089170 618.499695
728 0 1 2.030310 9.707900 617.511475
729 0 1 2.024630 9.189560 616.700317
730 0 1 1.982390 8.650402 615.899597
731 0 1 1.633950 8.360121 615.004272
732 0 1 1.883230 8.222269 614.085999
733 0 1 2.327520 8.230677 613.233826
734 0 1 2.920330 8.086259 612.407288
735 0 1 3.408610 7.893243 611.562805
736 0 1 3.939380 7.943058 610.777100
737 0 1 4.553850 7.759227 610.047424
738 0 1 4.946930 7.413261 609.204529
739 0 1 5.097220 7.011834 608.304871
740 0 1 5.253440 6.938600 607.364014
741 0 1 5.197460 7.044758 606.396606
742 0 1 5.250780 6.960770 605.420227
743 0 1 5.295960 6.684480 604.447327
744 0 1 5.144190 6.559890 603.492004
745 0 1 4.989420 6.472290 602.526001
746 0 1 5.008750 6.130470 601.622803
747 0 1 4.920470 5.831560 600.679626
748 0 1 4.776410 5.810560 599.746826
749 0 1 4.721830 5.835890 598.841492
750 0 1 4.549850 5.687020 597.936279
751 0 1 4.499490 5.819540 596.981079
752 0 1 4.311110 5.579460 596.044617
753 0 1 4.110560 5.312430 595.065796
754 0 1 4.136490 5.156560 594.050720
755 0 1 4.293650 5.210950 593.047913
756 0 1 4.395710 5.197170 592.044128
757 0 1 4.798270 5.101410 591.166809
758 0 1 5.014950 4.968210 590.187500
759 0 1 5.039280 5.025050 589.247498
760 0 1 5.081660 5.093980 588.290527
761 0 1 4.921530 5.071310 587.254211
762 0 1 4.662580 5.373530 586.385620
763 0 1 4.328250 5.356130 585.494385
764 0 1 3.925550 5.363370 584.621277
765 0 1 3.515280 5.366680 583.711792
766 0 1 3.208510 5.333470 582.788696
767 0 1 2.929690 5.500420 581.890015
768 0 1 2.510150 5.442860 581.063110
769 0 1 2.350350 5.731400 580.171021
770 0 1 2.148690 5.962630 579.243713
771 0 1 1.985070 6.205630 578.304810
772 0 1 1.626100 6.268950 577.411499
773 0 1 1.555520 6.129530 576.431824
774 0 1 1.722970 5.856140 575.550598
775 0 1 2.071250 5.709460 574.651428
776 0 1 2.569320 5.506250 573.797424
777 0 1 3.347310 5.255640 573.296326
778 0 1 4.021480 4.983370 572.695312
779 0 1 4.655670 4.833050 572.004211
780 0 1 5.142590 4.402350 571.243896
781 0 1 5.727210 3.985000 570.637329
782 0 1 6.067470 3.585180 569.833496
783 0 1 6.592690 3.099890 569.113708
784 0 1 7.118701 2.602000 568.403015
785 0 1 7.469410 2.278890 567.625977
786 0 1 7.734526 1.970020 566.789978
787 0 1 8.078411 1.918320 565.900024
788 0 1 8.049145 2.207930 564.996094
789 0 1 7.892677 2.320790 564.036194
790 0 1 7.665420 2.493090 563.138000
791 0 1 7.095715 2.613630 562.389221
792 0 1 6.626920 2.651860 561.553223
793 0 1 6.290410 2.783180 560.634827