LAMMPS data file via MDAnalysis

        1000  atoms
        1000  bonds
        1000  angles
           0  dihedrals
           0  impropers

           1  atom types
           1  bond types
           1  angle types
           0  dihedral types
           0  improper types

0.000000 16.000000 xlo xhi
0.000000 16.000000 ylo yhi
0.000000 1257.000000 zlo zhi


Masses

1 1.000000

Atoms

1 0 1 7.045073 11.653730 465.033997
2 0 1 7.155197 11.906090 465.916992
3 0 1 7.066275 12.420570 466.721008
4 0 1 7.115504 12.909370 467.570007
5 0 1 7.143177 13.172380 468.490997
6 0 1 6.769690 13.372250 469.450012
7 0 1 6.452660 13.257510 470.437988
8 0 1 6.201100 12.839690 471.246002
9 0 1 5.704890 12.366711 472.018982
10 0 1 5.327020 11.921431 472.817993
11 0 1 4.829330 11.317860 473.365997
12 0 1 4.362950 10.985189 474.167999
13 0 1 3.778190 10.924650 474.968994
14 0 1 3.370670 11.195660 475.776978
15 0 1 2.725410 11.408340 476.460999
16 0 1 2.294150 11.406300 477.294006
17 0 1 2.254070 11.266630 478.229980
18 0 1 2.463280 10.785340 479.067993
19 0 1 2.836880 10.237580 479.726013
20 0 1 3.008800 9.762190 480.507996
21 0 1 3.146190 9.239820 481.296021
22 0 1 3.170150 8.660213 482.033997
23 0 1 3.379710 8.375514 482.882019
24 0 1 3.721440 7.733920 483.614014
25 0 1 4.032700 7.472506 484.455017
26 0 1 4.536390 7.298924 485.338989
27 0 1 5.098940 7.145422 486.122009
28 0 1 5.808410 6.977520 486.778015
29 0 1 6.675510 6.896800 487.298004
30 0 1 7.406486 6.790630 487.934021
31 0 1 8.030854 6.581700 488.684998
32 0 1 8.840970 6.282350 489.134003
33 0 1 9.478340 5.778530 489.643005
34 0 1 10.063720 5.552920 490.325989
35 0 1 10.555550 5.184180 491.126007
36 0 1 10.960180 4.830480 491.955017
37 0 1 11.427420 4.659590 492.820007
38 0 1 11.691060 4.447390 493.746002
39 0 1 11.874580 4.252320 494.648987
40 0 1 12.213910 3.741260 495.445984
41 0 1 12.270460 3.329080 496.287994
42 0 1 12.237061 3.110330 497.298004
43 0 1 12.279270 3.296530 498.212006
44 0 1 12.111940 3.434620 499.169006
45 0 1 11.971951 3.738400 500.085022
46 0 1 12.001030 4.319920 500.891998
47 0 1 11.936460 4.652420 501.783997
48 0 1 11.897620 5.168590 502.571991
49 0 1 12.106350 5.574380 503.464996
50 0 1 12.242590 5.962720 504.346985
51 0 1 12.465340 6.368140 505.266998
52 0 1 12.943740 6.501920 506.125000
53 0 1 13.368280 6.355720 507.009003
54 0 1 13.233440 6.582470 507.921997
55 0 1 13.132540 6.621100 508.904999
56 0 1 12.963020 6.921600 509.824005
57 0 1 12.442090 7.117241 510.531982
58 0 1 12.131639 7.338936 511.403992
59 0 1 11.848310 7.375040 512.328003
60 0 1 11.518950 7.162754 513.158997
61 0 1 10.927580 6.890600 513.838013
62 0 1 10.386020 6.638860 514.586975
63 0 1 9.836960 6.498560 515.396973
64 0 1 9.623860 6.126790 516.250977
65 0 1 9.499550 5.882490 517.181030
66 0 1 9.290310 5.850410 518.099976
67 0 1 9.348380 5.851510 519.103027
68 0 1 9.242550 5.765470 520.067017
69 0 1 9.012250 5.621780 521.002991
70 0 1 9.072530 5.791060 521.973022
71 0 1 9.279400 5.663760 522.898010
72 0 1 9.571390 5.631610 523.869019
73 0 1 9.693430 5.737120 524.796021
74 0 1 9.900040 6.057040 525.664001
75 0 1 9.665940 6.294480 526.541992
76 0 1 9.426310 6.738430 527.398987
77 0 1 9.463850 7.304882 528.138000
78 0 1 9.892340 7.594584 529.003418
79 0 1 10.556610 7.870782 529.631897
80 0 1 11.145250 8.209587 530.298218
81 0 1 12.068740 8.326722 530.601685
82 0 1 12.886920 8.279438 531.089233
83 0 1 13.505400 8.219812 531.854309
84 0 1 13.916920 7.825641 532.626709
85 0 1 14.019840 7.302216 533.375305
86 0 1 14.133530 6.914790 534.283325
87 0 1 14.058720 6.394430 535.065796
88 0 1 13.848630 5.974210 535.845703
89 0 1 13.694180 5.481970 536.683228
90 0 1 13.490129 5.049880 537.502686
91 0 1 13.375580 4.943720 538.418701
92 0 1 13.325211 4.693080 539.328369
93 0 1 13.149330 4.464630 540.231079
94 0 1 12.935690 4.498180 541.179688
95 0 1 12.987450 4.283200 542.083008
96 0 1 12.701310 3.912680 542.936707
97 0 1 12.031450 3.617440 543.504578
98 0 1 11.300730 3.216830 544.090210
99 0 1 10.567410 2.936860 544.568481
100 0 1 9.713490 2.885250 544.926819
101 0 1 8.876409 2.705480 545.305603
102 0 1 8.262783 2.462160 546.032410
103 0 1 7.707682 2.633490 546.751709
104 0 1 7.257824 2.451840 547.562317
105 0 1 6.794860 2.374620 548.414673
106 0 1 6.217290 2.201820 549.133606
107 0 1 5.762180 1.880720 550.021484
108 0 1 5.350760 1.939300 550.841980
109 0 1 5.187610 2.066960 551.763672
110 0 1 5.393070 2.119550 552.782288
111 0 1 5.821190 2.378190 553.609497
112 0 1 5.972480 2.587960 554.540894
113 0 1 6.119060 2.849560 555.436707
114 0 1 6.179270 3.136930 556.391113
115 0 1 6.154890 3.490690 557.250000
116 0 1 5.963910 3.767580 558.320190
117 0 1 5.832920 3.919320 559.271606
118 0 1 5.875280 4.029440 560.215393
119 0 1 5.943430 4.111570 561.201294
120 0 1 6.015490 4.389650 562.153931
121 0 1 6.064100 4.533640 563.082520
122 0 1 6.128420 4.929710 563.920715
123 0 1 6.214070 5.250730 564.885925
124 0 1 6.391850 5.439260 565.935181
125 0 1 6.885300 5.722340 566.661926
126 0 1 7.577971 5.732830 567.388672
127 0 1 8.178614 5.743500 568.198975
128 0 1 8.861044 5.784300 568.909485
129 0 1 9.588380 6.013840 569.538330
130 0 1 10.130520 5.925360 570.264099
131 0 1 10.552290 5.444180 570.993103
132 0 1 11.112610 5.056980 571.645813
133 0 1 11.175050 4.854010 572.591492
134 0 1 11.246360 4.789070 573.563416
135 0 1 11.693410 4.682830 574.472290
136 0 1 12.260201 4.533210 575.237122
137 0 1 12.697969 4.332450 576.127991
138 0 1 13.133890 4.303330 576.957092
139 0 1 13.181049 4.512140 577.894531
140 0 1 13.056730 4.822590 578.789673
141 0 1 12.468920 5.161110 579.491089
142 0 1 11.985040 5.323080 580.281494
143 0 1 11.529610 5.446010 581.131714
144 0 1 11.202400 5.711300 581.974731
145 0 1 10.938570 6.223200 582.741394
146 0 1 10.544050 6.859830 583.334106
147 0 1 9.844270 7.298421 583.890686
148 0 1 9.166870 7.695511 584.509521
149 0 1 8.739377 8.008867 585.252991
150 0 1 8.581383 8.217916 586.198914
151 0 1 8.225979 8.198871 587.037415
152 0 1 7.740834 8.009775 587.914978
153 0 1 7.518013 8.317117 588.799072
154 0 1 7.109349 8.432944 589.635803
155 0 1 6.865620 8.224267 590.546326
156 0 1 6.689330 8.136206 591.434692
157 0 1 6.637490 8.031320 592.405579
158 0 1 6.736250 7.898392 593.372070
159 0 1 6.908790 7.646038 594.244202
160 0 1 7.060241 7.615177 595.237122
161 0 1 7.014072 7.950807 596.122925
162 0 1 6.887480 8.499952 596.917480
163 0 1 6.801460 9.024430 597.712219
164 0 1 6.647690 9.335270 598.545776
165 0 1 6.257650 9.451130 599.408875
166 0 1 5.775110 9.567880 600.209290
167 0 1 5.255720 9.972660 600.923279
168 0 1 4.729820 10.383841 601.637573
169 0 1 4.336560 10.830130 602.440430
170 0 1 3.920770 11.047620 603.213196
171 0 1 3.819750 11.360991 604.076416
172 0 1 4.055090 11.495120 605.044922
173 0 1 4.450550 11.597770 605.908203
174 0 1 4.980630 11.636950 606.677917
175 0 1 5.601630 11.811270 607.321228
176 0 1 6.366620 12.054450 607.860229
177 0 1 7.155338 11.983310 608.406799
178 0 1 7.808607 11.895830 609.126404
179 0 1 8.245712 11.825920 609.939880
180 0 1 8.445345 11.903950 610.897705
181 0 1 8.596244 11.804410 611.867615
182 0 1 8.831313 12.013280 612.792480
183 0 1 9.086690 12.269680 613.722778
184 0 1 9.316320 12.391340 614.638977
185 0 1 9.553730 12.526370 615.540771
186 0 1 9.732790 12.677430 616.450073
187 0 1 9.574750 12.496719 617.404785
188 0 1 9.145730 12.442530 618.324707
189 0 1 8.759781 12.431020 619.159790
190 0 1 8.310763 12.365940 619.966614
191 0 1 7.766991 12.258340 620.779175
192 0 1 7.393988 12.089439 621.596069
193 0 1 7.269279 11.532100 622.352783
194 0 1 7.322467 10.887350 623.086487
195 0 1 7.470213 10.246700 623.817200
196 0 1 7.832165 9.646441 624.544006
197 0 1 7.930110 8.902541 625.149536
198 0 1 8.022403 8.251958 625.932068
199 0 1 7.881484 7.715479 626.772583
200 0 1 7.871534 7.212945 627.551636
201 0 1 8.011764 6.448440 628.109375
202 0 1 8.438664 5.776000 628.693542
203 0 1 8.468659 5.035160 629.237000
204 0 1 8.458002 4.317600 629.861267
205 0 1 8.495926 3.591330 630.582092
206 0 1 8.622544 2.927390 631.273865
207 0 1 9.135610 2.484170 631.957336
208 0 1 9.653660 2.294220 632.774170
209 0 1 10.263360 2.347010 633.534424
210 0 1 10.962620 2.533360 634.183716
211 0 1 11.242229 2.504410 635.126526
212 0 1 11.564750 2.624600 636.047119
213 0 1 11.986990 2.811020 636.851868
214 0 1 12.371320 2.837040 637.761597
215 0 1 12.449600 2.932760 638.668701
216 0 1 12.584700 3.103010 639.591919
217 0 1 12.538799 3.168200 640.503174
218 0 1 12.452080 3.327550 641.473083
219 0 1 12.507999 3.461210 642.461792
220 0 1 12.569429 3.745040 643.420471
221 0 1 12.840340 4.111940 644.262512
222 0 1 12.800409 4.469580 645.167969
223 0 1 12.596251 4.733550 646.061218
224 0 1 12.284901 5.086220 646.876587
225 0 1 12.358601 5.364050 647.880371
226 0 1 12.482280 5.722000 648.792603
227 0 1 12.605280 6.320470 649.584106
228 0 1 12.551809 6.990530 650.272888
229 0 1 12.619570 7.437987 651.189087
230 0 1 12.626360 7.565692 652.216797
231 0 1 12.377150 7.470349 653.194824
232 0 1 12.314730 7.489934 654.142273
233 0 1 12.071529 7.258116 655.029724
234 0 1 12.001659 6.832850 655.911011
235 0 1 11.545250 6.658410 656.742188
236 0 1 11.055600 6.786080 657.586792
237 0 1 10.842450 6.945340 658.484009
238 0 1 10.549530 7.164375 659.448792
239 0 1 10.353080 7.693429 660.210510
240 0 1 10.374380 8.253839 661.010925
241 0 1 10.561110 8.715855 661.869873
242 0 1 10.565750 9.140060 662.727112
243 0 1 10.323680 9.362080 663.657776
244 0 1 10.471420 9.570630 664.608093
245 0 1 10.423230 9.726950 665.522400
246 0 1 10.456020 9.851050 666.458984
247 0 1 10.433290 9.956841 667.407227
248 0 1 10.619620 9.547660 668.250000
249 0 1 10.952890 9.116340 669.036987
250 0 1 11.210270 9.062590 669.945801
251 0 1 11.524480 9.071740 671.011902
252 0 1 11.970430 8.977150 671.931824
253 0 1 12.206750 8.740381 672.775574
254 0 1 12.291540 8.339087 673.652588
255 0 1 12.429150 7.538525 674.292908
256 0 1 12.361270 6.826460 674.931580
257 0 1 12.378070 5.993850 675.489380
258 0 1 12.186171 5.344920 676.203796
259 0 1 11.898190 4.908730 677.086670
260 0 1 11.701920 4.583620 678.023193
261 0 1 11.312650 4.411920 678.867615
262 0 1 11.060230 4.204050 679.752380
263 0 1 10.960070 4.104450 680.712402
264 0 1 11.162570 4.255240 681.627625
265 0 1 11.164949 4.316630 682.611511
266 0 1 11.202320 4.675970 683.501221
267 0 1 11.043119 4.930580 684.451172
268 0 1 10.703860 5.283100 685.281799
269 0 1 10.548670 5.728860 686.114685
270 0 1 10.234020 6.325480 686.769226
271 0 1 9.729780 6.882320 687.405396
272 0 1 9.306650 7.394141 688.092712
273 0 1 9.214330 8.014400 688.794617
274 0 1 8.943580 8.524853 689.557373
275 0 1 8.476463 8.781784 690.334290
276 0 1 8.130140 8.824518 691.242004
277 0 1 8.061831 8.855170 692.180908
278 0 1 7.862900 8.850091 693.149475
279 0 1 7.699120 8.879728 694.018616
280 0 1 7.724241 8.805229 694.938416
281 0 1 7.655626 8.603721 695.931030
282 0 1 7.500971 8.261670 696.866211
283 0 1 7.433167 7.528999 697.520508
284 0 1 7.637529 6.816890 698.257690
285 0 1 8.045503 6.212870 698.908081
286 0 1 8.258808 5.653320 699.712891
287 0 1 8.616631 5.156850 700.442871
288 0 1 8.745469 4.781280 701.307129
289 0 1 8.736986 4.744140 702.303894
290 0 1 9.006740 4.692300 703.247375
291 0 1 9.042490 4.732500 704.167175
292 0 1 8.896613 4.524950 705.120605
293 0 1 8.659840 4.055600 705.932922
294 0 1 8.297494 3.493790 706.585205
295 0 1 8.041588 3.080760 707.403015
296 0 1 8.079959 2.925350 708.331299
297 0 1 7.964854 2.839860 709.269409
298 0 1 7.938153 2.855130 710.262817
299 0 1 7.780307 2.946470 711.191406
300 0 1 7.709201 2.894760 712.109009
301 0 1 7.741911 2.900080 713.038330
302 0 1 7.607557 2.859930 714.015381
303 0 1 7.706455 2.810930 714.974121
304 0 1 7.977317 3.092430 715.835083
305 0 1 8.109259 3.431490 716.717712
306 0 1 8.582788 3.851740 717.428711
307 0 1 9.291160 3.859390 718.012817
308 0 1 10.181360 3.985230 718.419495
309 0 1 10.823560 4.184890 719.183472
310 0 1 11.420310 4.144580 719.951477
311 0 1 11.680380 4.019170 720.840332
312 0 1 11.826490 3.960010 721.794189
313 0 1 12.256460 3.883600 722.634033
314 0 1 12.492001 3.422050 723.469421
315 0 1 12.576660 3.246010 724.474426
316 0 1 12.537960 3.315060 725.410767
317 0 1 12.572701 3.348780 726.389221
318 0 1 12.423241 3.494900 727.368774
319 0 1 12.493530 3.643750 728.312500
320 0 1 12.492929 3.933700 729.247009
321 0 1 12.200500 4.252590 730.070007
322 0 1 12.216960 4.662690 730.935974
323 0 1 11.945020 4.896550 731.796021
324 0 1 12.046410 5.099270 732.755005
325 0 1 12.401780 5.183050 733.752014
326 0 1 12.512569 5.143260 734.710022
327 0 1 12.829280 4.959900 735.629028
328 0 1 12.931670 4.767460 736.625977
329 0 1 13.138630 4.702260 737.554993
330 0 1 13.440490 4.962910 738.460022
331 0 1 13.421200 5.549130 739.259033
332 0 1 13.100960 6.080750 740.049011
333 0 1 12.817010 6.645240 740.716003
334 0 1 12.347860 7.062069 741.416016
335 0 1 11.794710 7.268328 742.208008
336 0 1 11.303840 7.513855 743.018005
337 0 1 10.796700 7.988233 743.760986
338 0 1 10.511520 8.604183 744.476990
339 0 1 9.995570 9.248940 744.976990
340 0 1 9.224820 9.770540 745.349976
341 0 1 8.516602 10.416019 745.679993
342 0 1 7.811551 11.062240 745.906982
343 0 1 7.073905 11.691330 746.223022
344 0 1 6.486590 12.191790 746.776978
345 0 1 6.147730 12.563940 747.601013
346 0 1 6.167580 12.911690 748.509033
347 0 1 6.127980 13.150300 749.461975
348 0 1 5.942060 13.526279 750.351990
349 0 1 5.628110 13.764140 751.216980
350 0 1 5.484020 13.636761 752.182007
351 0 1 5.410710 13.209930 753.049011
352 0 1 5.410300 12.692280 753.814026
353 0 1 5.322200 11.890670 754.460999
354 0 1 5.257200 11.213630 755.218994
355 0 1 5.240700 10.703260 756.057983
356 0 1 5.051740 10.191320 756.832031
357 0 1 4.757930 9.839520 757.682983
358 0 1 4.884940 9.587530 758.625000
359 0 1 5.046490 9.496580 759.557983
360 0 1 5.079050 9.284480 760.464966
361 0 1 5.095760 9.301550 761.434998
362 0 1 5.181610 9.084010 762.377991
363 0 1 5.075820 9.000200 763.406006
364 0 1 5.204660 8.954315 764.406006
365 0 1 5.218610 8.952857 765.322021
366 0 1 5.398900 8.975049 766.356995
367 0 1 5.531620 8.981654 767.255981
368 0 1 5.740890 9.326140 768.210999
369 0 1 6.149340 9.504060 769.139038
370 0 1 6.510450 9.507300 770.010986
371 0 1 6.637940 9.591270 771.002014
372 0 1 6.708700 9.767910 771.981018
373 0 1 6.717300 9.974790 772.916016
374 0 1 6.724120 9.945190 773.893005
375 0 1 6.722570 9.821970 774.863037
376 0 1 6.586080 9.705920 775.856995
377 0 1 6.567530 9.745310 776.785034
378 0 1 6.341710 9.983760 777.695984
379 0 1 6.001440 10.120980 778.567993
380 0 1 5.520360 10.399520 779.367981
381 0 1 5.312740 10.861980 780.113037
382 0 1 4.956550 11.093240 780.985962
383 0 1 4.823050 11.366250 781.877014
384 0 1 4.608660 11.776000 782.695984
385 0 1 4.292150 11.716021 783.635986
386 0 1 4.117010 11.788370 784.606995
387 0 1 3.816620 11.910530 785.521973
388 0 1 4.022890 12.165470 786.471008
389 0 1 4.163490 12.144751 787.500977
390 0 1 3.983930 12.282909 788.390991
391 0 1 3.867890 12.243330 789.353027
392 0 1 3.716900 12.159679 790.370972
393 0 1 3.703810 11.919930 791.346008
394 0 1 3.698440 11.764040 792.276978
395 0 1 3.642030 11.626570 793.213989
396 0 1 3.652090 11.222450 794.122986
397 0 1 3.645200 10.565570 794.841980
398 0 1 3.558320 10.082740 795.658997
399 0 1 3.363480 9.508540 796.412964
400 0 1 3.155970 9.040530 797.240967
401 0 1 3.266970 8.476584 798.002991
402 0 1 3.186720 7.968497 798.906006
403 0 1 3.213250 7.756909 799.839966
404 0 1 3.576490 7.639945 800.713013
405 0 1 3.927220 7.650784 801.544983
406 0 1 4.237880 7.776595 802.447998
407 0 1 4.613340 8.006446 803.353027
408 0 1 5.149450 8.027820 804.164978
409 0 1 5.401970 7.978075 805.112000
410 0 1 5.726750 7.912148 806.047974
411 0 1 5.943350 7.896594 806.997009
412 0 1 6.241470 7.853188 807.890015
413 0 1 6.649050 7.891531 808.747986
414 0 1 7.112334 7.980119 809.552979
415 0 1 7.536910 7.787451 810.416016
416 0 1 7.975487 7.971193 811.302979
417 0 1 8.266316 7.900411 812.242981
418 0 1 8.841009 7.814659 812.971008
419 0 1 9.491340 7.825547 813.658020
420 0 1 9.938770 8.024611 814.484985
421 0 1 10.372561 8.218320 815.266968
422 0 1 10.836309 8.521204 816.021973
423 0 1 11.234880 9.092500 816.726013
424 0 1 11.747450 9.547270 817.422974
425 0 1 12.080840 9.789480 818.247986
426 0 1 12.191780 10.080970 819.148010
427 0 1 12.231620 10.354080 820.054016
428 0 1 12.376260 10.634310 820.979980
429 0 1 12.460791 10.827050 821.990967
430 0 1 12.626930 11.156900 822.955017
431 0 1 12.868980 11.090830 823.886963
432 0 1 12.721500 11.281460 824.792969
433 0 1 12.403170 11.636820 825.624023
434 0 1 12.459160 12.172000 826.403992
435 0 1 12.235809 12.651051 827.260010
436 0 1 11.895070 12.953600 828.162964
437 0 1 11.592790 13.451839 828.906982
438 0 1 11.613950 13.666679 829.846008
439 0 1 11.663219 13.291520 830.799988
440 0 1 11.540500 13.082980 831.703003
441 0 1 11.452040 12.990690 832.629028
442 0 1 11.686910 12.976720 833.604980
443 0 1 11.756950 13.119761 834.593018
444 0 1 11.895741 13.255550 835.533997
445 0 1 11.763090 12.992929 836.410034
446 0 1 11.219800 12.493990 837.010010
447 0 1 10.734700 12.182440 837.766968
448 0 1 10.105550 11.755060 838.385010
449 0 1 9.333760 11.162550 838.601013
450 0 1 8.593355 10.527900 838.882996
451 0 1 7.989925 9.781570 838.886963
452 0 1 7.587488 8.948980 838.734009
453 0 1 7.117436 8.078752 838.380981
454 0 1 6.769150 7.198157 838.052002
455 0 1 6.377630 6.570660 837.483032
456 0 1 6.247830 5.941090 836.815002
457 0 1 5.888650 5.420460 835.994019
458 0 1 5.385000 5.091940 835.260986
459 0 1 4.938550 4.846880 834.422974
460 0 1 4.514430 4.688680 833.556030
461 0 1 4.227330 4.613240 832.598999
462 0 1 3.768980 4.261440 831.770020
463 0 1 3.402850 4.108390 830.877991
464 0 1 3.282410 3.825500 829.912964
465 0 1 3.264360 3.683540 828.984009
466 0 1 3.392570 3.323470 828.065002
467 0 1 3.562590 3.008900 827.179016
468 0 1 4.131800 2.624160 826.463989
469 0 1 4.798680 2.365890 825.791016
470 0 1 5.374070 2.124990 825.044006
471 0 1 5.878620 1.846220 824.247009
472 0 1 6.384450 1.900500 823.431030
473 0 1 6.721620 1.981650 822.537964
474 0 1 6.970170 2.296070 821.651978
475 0 1 6.984050 2.776350 820.791016
476 0 1 7.170380 2.882170 819.809021
477 0 1 7.238687 3.065880 818.862000
478 0 1 6.991280 3.275360 817.997986
479 0 1 6.956580 3.327980 817.062988
480 0 1 6.956130 3.451060 816.091980
481 0 1 7.105693 3.675000 815.140991
482 0 1 6.971360 3.929140 814.210999
483 0 1 6.736250 4.147130 813.240967
484 0 1 6.260540 4.403850 812.479004
485 0 1 5.738920 4.519260 811.635986
486 0 1 5.424770 4.856130 810.820007
487 0 1 5.192170 5.090660 809.924988
488 0 1 4.828690 4.936480 809.072021
489 0 1 4.371950 4.670210 808.283997
490 0 1 3.877830 4.587580 807.533020
491 0 1 3.451580 4.627550 806.610962
492 0 1 3.040600 4.584160 805.658020
493 0 1 3.125930 4.929520 804.716003
494 0 1 3.118790 5.275910 803.776001
495 0 1 3.273160 5.285830 802.817993
496 0 1 3.660840 5.183460 802.007996
497 0 1 3.980780 5.210210 800.997986
498 0 1 4.002570 5.092220 800.015991
499 0 1 4.058680 4.891790 799.049988
500 0 1 4.339340 4.866680 798.104004
501 0 1 4.833680 4.856470 797.291016
502 0 1 5.526180 5.001910 796.627991
503 0 1 6.098360 4.841980 795.903015
504 0 1 6.752810 4.794920 795.238037
505 0 1 7.329822 4.772530 794.453979
506 0 1 7.974381 4.980900 793.690002
507 0 1 8.328521 5.241690 792.770996
508 0 1 8.763423 5.399200 791.958984
509 0 1 9.039310 5.657750 790.963013
510 0 1 9.293430 5.758950 790.005981
511 0 1 9.519670 6.147280 789.114014
512 0 1 9.830600 6.375100 788.244995
513 0 1 10.071090 6.473080 787.302979
514 0 1 10.086590 6.674170 786.379028
515 0 1 9.915320 6.536670 785.442993
516 0 1 9.668650 6.284550 784.578003
517 0 1 9.727570 6.114180 783.645020
518 0 1 10.030470 6.294260 782.771973
519 0 1 10.664619 6.251230 781.992004
520 0 1 11.046980 5.907250 781.166016
521 0 1 11.431150 5.822020 780.320984
522 0 1 11.941031 5.761880 779.455017
523 0 1 12.349630 5.671660 778.580017
524 0 1 12.701930 5.588160 777.690002
525 0 1 12.930790 5.561020 776.733032
526 0 1 13.296880 5.524470 775.848022
527 0 1 13.454781 5.397070 774.903015
528 0 1 13.464380 5.598640 773.872986
529 0 1 13.456400 5.950280 772.963013
530 0 1 13.409520 6.319440 772.083008
531 0 1 13.106890 6.912200 771.327026
532 0 1 12.865480 7.399392 770.556030
533 0 1 12.316330 7.661661 769.780029
534 0 1 11.937030 7.978405 768.989990
535 0 1 11.524470 8.325705 768.172974
536 0 1 11.248240 8.794896 767.462036
537 0 1 10.832460 9.342880 766.747986
538 0 1 10.554120 9.836610 765.962036
539 0 1 10.517670 10.237289 765.054993
540 0 1 10.216721 10.304689 764.166016
541 0 1 9.859859 10.318880 763.218994
542 0 1 9.484360 10.436540 762.339966
543 0 1 8.981082 10.533610 761.509033
544 0 1 8.534194 10.490510 760.541016
545 0 1 8.011664 10.598680 759.739990
546 0 1 7.817010 10.641211 758.818970
547 0 1 7.602643 10.943080 757.854980
548 0 1 7.532386 11.420610 757.057983
549 0 1 7.412401 11.952400 756.263977
550 0 1 7.213622 12.367440 755.460999
551 0 1 6.982270 12.592600 754.562988
552 0 1 6.769000 12.718309 753.614990
553 0 1 6.386130 12.702710 752.705017
554 0 1 6.042530 12.691760 751.828979
555 0 1 5.716770 12.509220 750.911011
556 0 1 5.121020 12.272530 750.207031
557 0 1 4.622150 12.179911 749.369019
558 0 1 4.353940 12.278350 748.458008
559 0 1 4.209060 12.227910 747.525024
560 0 1 4.342230 12.123341 746.460022
561 0 1 4.543690 12.047990 745.476990
562 0 1 4.891870 12.012500 744.629028
563 0 1 5.313820 12.176661 743.760986
564 0 1 5.645440 12.227570 742.786011
565 0 1 5.778130 12.072980 741.893982
566 0 1 6.124280 11.711190 741.036987
567 0 1 6.251800 11.426850 740.109009
568 0 1 6.154960 11.140420 739.085999
569 0 1 6.503940 10.774750 738.338989
570 0 1 6.811400 10.342060 737.567993
571 0 1 7.279169 9.898440 736.814026
572 0 1 7.559358 9.605970 735.901001
573 0 1 7.463011 9.408730 734.976990
574 0 1 7.364397 9.021100 734.127991
575 0 1 7.247212 8.465250 733.325989
576 0 1 7.322739 7.721330 732.729004
577 0 1 7.032263 7.073208 732.109985
578 0 1 6.581330 6.538940 731.526001
579 0 1 6.169980 5.966750 730.862000
580 0 1 5.700910 5.446420 730.231018
581 0 1 5.225500 5.054830 729.487000
582 0 1 4.984350 4.660250 728.562012
583 0 1 4.909660 4.138290 727.755920
584 0 1 4.953400 3.670950 726.916809
585 0 1 5.047090 3.413330 725.987488
586 0 1 5.163670 2.827350 725.218872
587 0 1 5.470220 2.454800 724.420166
588 0 1 5.476100 2.329460 723.487427
589 0 1 5.167560 2.181890 722.566101
590 0 1 4.812870 2.104370 721.730103
591 0 1 4.881030 2.062220 720.791870
592 0 1 4.888680 2.138360 719.780029
593 0 1 4.809750 2.554150 718.977600
594 0 1 4.854560 3.252010 718.314819
595 0 1 4.850830 4.023570 717.786926
596 0 1 4.896210 4.780310 717.263000
597 0 1 4.993690 5.627160 716.833679
598 0 1 5.019980 6.536260 716.245911
599 0 1 5.424770 7.250763 715.810120
600 0 1 6.091490 7.808382 715.298889
601 0 1 6.541420 8.151177 714.532898
602 0 1 6.683740 8.625308 713.596008
603 0 1 6.607480 9.031180 712.737488
604 0 1 6.573340 9.472680 711.916504
605 0 1 6.761900 9.953110 711.119873
606 0 1 6.679690 10.205310 710.171692
607 0 1 6.780200 10.233740 709.210205
608 0 1 7.150179 9.876670 708.380127
609 0 1 7.678631 9.672210 707.605591
610 0 1 8.201722 9.635450 706.757080
611 0 1 8.661541 9.649620 705.954224
612 0 1 9.143440 9.524100 705.100220
613 0 1 9.350760 9.430510 704.157593
614 0 1 9.640770 9.498390 703.268433
615 0 1 9.720560 9.592930 702.316528
616 0 1 9.723970 9.650700 701.346497
617 0 1 9.861629 9.660550 700.409912
618 0 1 10.089570 9.637930 699.475708
619 0 1 10.370710 9.692530 698.534607
620 0 1 10.609300 9.497810 697.588806
621 0 1 10.705780 9.414300 696.610413
622 0 1 10.907230 9.361580 695.634399
623 0 1 11.191441 8.998601 694.737976
624 0 1 11.552710 8.662532 693.935486
625 0 1 11.969110 8.390531 693.129700
626 0 1 12.258380 8.054195 692.215332
627 0 1 12.717260 7.804301 691.403198
628 0 1 12.807370 7.649509 690.503723
629 0 1 13.116489 7.418757 689.633484
630 0 1 13.095290 7.006067 688.705383
631 0 1 13.062250 6.599660 687.875183
632 0 1 13.184860 6.281880 686.960022
633 0 1 13.421761 6.004530 686.081421
634 0 1 13.618410 5.956830 685.173706
635 0 1 13.522810 5.817600 684.203186
636 0 1 13.252510 5.673790 683.280579
637 0 1 12.997470 5.795130 682.327393
638 0 1 13.057060 5.818400 681.418396
639 0 1 13.168170 5.998970 680.517395
640 0 1 13.551610 6.422090 679.766479
641 0 1 13.664420 6.852320 678.958923
642 0 1 13.559190 7.112598 678.037109
643 0 1 13.319230 7.063872 677.144775
644 0 1 13.335199 6.806220 676.182373
645 0 1 13.664810 6.426990 675.342896
646 0 1 14.037310 6.241320 674.408569
647 0 1 14.154329 6.194970 673.389709
648 0 1 14.143510 6.273030 672.444214
649 0 1 14.022270 6.187610 671.470886
650 0 1 13.696341 6.167170 670.538330
651 0 1 13.297200 5.906110 669.685974
652 0 1 13.072960 5.531430 668.830994
653 0 1 12.515600 5.561650 667.992310
654 0 1 12.356649 5.750970 667.053284
655 0 1 12.454781 5.672360 666.091980
656 0 1 12.672020 5.555860 665.129395
657 0 1 13.096730 5.547780 664.269714
658 0 1 13.241910 5.282750 663.286987
659 0 1 13.050970 4.880300 662.399414
660 0 1 13.079610 4.303320 661.584106
661 0 1 12.756330 3.785830 660.775391
662 0 1 12.226320 3.856090 659.930786
663 0 1 11.622710 3.707410 659.135193
664 0 1 10.855380 3.677830 658.468872
665 0 1 10.326410 3.806910 657.693726
666 0 1 9.582030 3.739150 657.095825
667 0 1 8.975867 3.591840 656.308777
668 0 1 8.267320 3.521110 655.668396
669 0 1 7.693399 3.677840 654.895691
670 0 1 7.435709 3.934910 654.007019
671 0 1 7.090992 4.302650 653.161682
672 0 1 7.165788 4.457860 652.248169
673 0 1 7.267747 4.793220 651.353027
674 0 1 7.587261 5.199180 650.561707
675 0 1 8.051418 5.530480 649.723511
676 0 1 8.552032 5.810100 648.893921
677 0 1 8.894588 6.190470 648.092407
678 0 1 9.062540 6.631510 647.237000
679 0 1 9.193860 6.873910 646.334595
680 0 1 9.490790 6.974040 645.392883
681 0 1 9.809610 7.303371 644.591187
682 0 1 10.122960 7.893603 643.859924
683 0 1 10.270900 8.518297 643.134705
684 0 1 10.321630 9.141770 642.402222
685 0 1 10.373040 9.440960 641.449219
686 0 1 10.348040 9.941760 640.626587
687 0 1 10.173640 10.340630 639.692627
688 0 1 9.866670 10.544490 638.820984
689 0 1 9.618370 10.802840 637.888428
690 0 1 9.285340 11.298260 637.154297
691 0 1 9.009100 11.533230 636.280457
692 0 1 8.837713 11.742929 635.332825
693 0 1 8.819225 11.959539 634.393433
694 0 1 8.852662 12.342609 633.515625
695 0 1 8.792443 12.677530 632.633606
696 0 1 8.537012 13.015210 631.728638
697 0 1 8.438140 13.263180 630.806335
698 0 1 8.428919 13.722620 629.869690
699 0 1 8.266153 14.020309 628.949463
700 0 1 7.964937 14.314230 628.104858
701 0 1 7.580602 14.465340 627.217651
702 0 1 7.755043 14.210910 626.338074
703 0 1 7.956099 14.071290 625.432251
704 0 1 8.226365 13.969590 624.521057
705 0 1 8.331697 13.752570 623.601807
706 0 1 8.356509 13.625470 622.617676
707 0 1 8.649790 13.384171 621.719543
708 0 1 9.031940 13.034010 620.895386
709 0 1 9.421690 12.648760 620.135620
710 0 1 9.925750 12.557140 619.307983
711 0 1 10.100190 12.102680 618.471985
712 0 1 10.499900 11.445650 617.824585
713 0 1 11.132730 10.739780 617.414612
714 0 1 11.472190 10.152719 616.689575
715 0 1 11.683420 9.474480 616.036194
716 0 1 11.527670 8.854938 615.335815
717 0 1 11.750100 8.438790 614.454285
718 0 1 11.979060 8.316527 613.473206
719 0 1 12.191111 7.872313 612.655884
720 0 1 12.050430 7.365274 611.768494
721 0 1 12.159821 7.226671 610.840027
722 0 1 12.205500 7.152188 609.881714
723 0 1 12.397990 7.009173 608.894287
724 0 1 12.347480 6.894780 607.988586
725 0 1 11.969260 7.020967 607.012512
726 0 1 11.443710 6.975600 606.210205
727 0 1 11.139020 6.770680 605.373413
728 0 1 10.819520 6.451590 604.544128
729 0 1 10.349300 6.092660 603.775269
730 0 1 9.980940 5.915690 602.894897
731 0 1 9.837440 5.665950 601.936523
732 0 1 9.667190 5.648500 600.932800
733 0 1 9.574080 5.627340 599.991882
734 0 1 9.317610 5.369780 599.127014
735 0 1 8.982315 5.279580 598.229492
736 0 1 8.215744 5.191740 597.572815
737 0 1 7.434780 4.958770 597.003723
738 0 1 6.928800 4.784360 596.107727
739 0 1 6.707860 4.716790 595.218811
740 0 1 6.691610 4.653750 594.280884
741 0 1 6.770330 4.664280 593.367981
742 0 1 6.833910 4.564220 592.395081
743 0 1 6.984360 4.559700 591.386292
744 0 1 7.051553 4.788620 590.429993
745 0 1 7.108012 5.033710 589.479126
746 0 1 6.989660 5.489330 588.659668
747 0 1 6.830840 5.906890 587.800903
748 0 1 6.404130 6.241710 586.990112
749 0 1 5.737620 6.247930 586.201599
750 0 1 5.017710 6.173280 585.539185
751 0 1 4.661700 6.086400 584.638184
752 0 1 4.381520 5.990450 583.738525
753 0 1 4.134740 5.965400 582.742310
754 0 1 3.809120 5.921570 581.797974
755 0 1 3.537550 5.822400 580.783508
756 0 1 3.306650 5.575580 579.922119
757 0 1 3.053470 5.509790 579.031921
758 0 1 2.914140 5.507990 578.122375
759 0 1 3.024570 5.494220 577.185913
760 0 1 3.366640 5.588080 576.302124
761 0 1 3.787040 5.715990 575.404114
762 0 1 4.309380 5.525310 574.619385
763 0 1 4.955110 5.428540 573.937073
764 0 1 5.354980 5.435210 573.094604
765 0 1 5.699780 5.442950 572.146973
766 0 1 5.920720 5.414690 571.158875
767 0 1 6.197830 5.208930 570.261108
768 0 1 6.294900 5.164340 569.343201
769 0 1 6.475700 4.933320 568.416626
770 0 1 6.719850 4.499910 567.613892
771 0 1 6.991290 4.321090 566.739990
772 0 1 7.385115 4.345760 565.796082
773 0 1 7.735197 4.453180 564.935303
774 0 1 8.244461 4.695060 564.177490
775 0 1 8.847757 5.168220 563.645813
776 0 1 9.263670 5.612180 562.899780
777 0 1 9.532250 5.796680 561.979187
778 0 1 9.898650 5.876150 561.058899
779 0 1 10.112659 5.638010 560.078796
780 0 1 10.331870 5.701630 559.153381
781 0 1 10.372590 5.610660 558.198608
782 0 1 10.646470 5.360060 557.291382
783 0 1 10.705350 4.992620 556.372314
784 0 1 10.395990 5.130330 555.437134
785 0 1 10.359420 5.270400 554.478699
786 0 1 9.995140 5.328450 553.592407
787 0 1 9.553070 5.620070 552.739624
788 0 1 9.248310 6.113570 551.981995
789 0 1 8.759337 6.543000 551.279602
790 0 1 8.270114 6.750950 550.463623