LAMMPS data file via MDAnalysis

        1000  atoms
        1000  bonds
        1000  angles
           0  dihedrals
           0  impropers

           1  atom types
           1  bond types
           1  angle types
           0  dihedral types
           0  improper types

0.000000 16.000000 xlo xhi
0.000000 16.000000 ylo yhi
0.000000 1257.000000 zlo zhi


Masses

1 1.000000

Atoms

1 0 1 9.815840 7.120300 454.074005
2 0 1 9.980830 7.207242 454.962006
3 0 1 10.157750 7.304618 455.901001
4 0 1 10.451540 7.333990 456.833008
5 0 1 11.026620 7.231687 457.593994
6 0 1 11.261150 6.954800 458.458984
7 0 1 11.169450 6.730430 459.424988
8 0 1 10.982930 6.475620 460.348022
9 0 1 11.039370 6.112610 461.239990
10 0 1 10.848180 6.010010 462.179016
11 0 1 10.675020 5.716130 463.078003
12 0 1 10.495690 5.511140 464.002014
13 0 1 10.404640 5.092680 464.888000
14 0 1 10.103430 4.725480 465.734985
15 0 1 9.865050 4.402320 466.673004
16 0 1 9.413530 4.178010 467.632019
17 0 1 8.843294 3.692310 468.151978
18 0 1 8.590642 3.282140 468.979980
19 0 1 8.442109 3.299750 469.919983
20 0 1 8.259290 3.232360 470.838989
21 0 1 8.193637 3.316230 471.764008
22 0 1 8.042033 3.652370 472.713013
23 0 1 8.085388 3.993200 473.619995
24 0 1 8.108465 4.367730 474.580994
25 0 1 7.965752 4.644190 475.539001
26 0 1 7.736948 4.718280 476.476013
27 0 1 7.597987 4.898030 477.362000
28 0 1 7.243930 4.863920 478.239990
29 0 1 6.877900 5.160960 479.098999
30 0 1 6.238240 5.539830 479.783997
31 0 1 5.732590 5.869360 480.541016
32 0 1 5.110170 6.226220 481.135986
33 0 1 4.621960 6.723420 481.822998
34 0 1 4.203260 7.119283 482.617981
35 0 1 3.827370 7.429475 483.363007
36 0 1 3.400580 7.703115 484.177002
37 0 1 3.329010 7.890683 485.087006
38 0 1 3.239190 8.061763 486.057983
39 0 1 3.307470 8.352691 486.979004
40 0 1 3.366810 8.178301 487.942017
41 0 1 3.289650 7.982407 488.977997
42 0 1 3.199990 7.355743 489.712006
43 0 1 3.255060 6.853650 490.490997
44 0 1 3.243690 6.190530 491.238007
45 0 1 3.387890 5.414090 491.673004
46 0 1 3.696910 4.670290 492.255981
47 0 1 3.999840 4.043940 492.916992
48 0 1 4.551990 3.582360 493.529999
49 0 1 4.959860 2.948120 494.119995
50 0 1 5.250820 2.359060 494.851013
51 0 1 5.805520 1.998100 495.468994
52 0 1 6.281910 1.839160 496.283020
53 0 1 6.681900 1.910980 497.162994
54 0 1 6.766970 2.052630 498.130005
55 0 1 6.470730 2.128400 499.041016
56 0 1 6.326550 2.079770 499.987000
57 0 1 6.332270 2.259290 500.924988
58 0 1 6.513680 2.261680 501.890015
59 0 1 6.634800 2.631990 502.772003
60 0 1 6.651950 2.958450 503.760010
61 0 1 6.594670 3.077340 504.692993
62 0 1 6.378610 3.008440 505.622986
63 0 1 6.202520 2.953470 506.601990
64 0 1 6.228910 2.760810 507.526001
65 0 1 6.080550 2.607470 508.468994
66 0 1 5.722810 2.449420 509.343994
67 0 1 5.584360 2.225390 510.270996
68 0 1 5.379050 2.346940 511.238007
69 0 1 5.370750 2.439880 512.218018
70 0 1 5.419900 2.831710 513.148987
71 0 1 5.435920 2.935400 514.140015
72 0 1 5.304930 2.960500 515.132019
73 0 1 5.368770 3.197860 516.073975
74 0 1 5.394040 3.689030 516.859009
75 0 1 5.802760 4.102750 517.645020
76 0 1 6.210510 4.535240 518.435974
77 0 1 6.658570 4.563340 519.309021
78 0 1 6.948920 4.622200 520.218994
79 0 1 7.116000 4.540830 521.192017
80 0 1 7.196035 4.460720 522.119019
81 0 1 7.432798 4.647990 523.042969
82 0 1 7.725652 4.564990 523.981018
83 0 1 7.981180 4.550370 524.844971
84 0 1 8.021428 4.631140 525.733032
85 0 1 8.131519 4.647430 526.703979
86 0 1 8.028171 4.539190 527.658997
87 0 1 7.678453 4.642670 528.560181
88 0 1 7.424645 4.577040 529.495789
89 0 1 7.349277 4.693180 530.426819
90 0 1 7.280734 4.949870 531.345398
91 0 1 7.103086 5.204490 532.264587
92 0 1 6.570310 5.434180 533.131775
93 0 1 6.139210 5.338610 534.011475
94 0 1 5.893740 5.240220 534.933777
95 0 1 5.746540 5.141790 535.941895
96 0 1 5.663350 4.856250 536.887390
97 0 1 5.599720 4.714890 537.867615
98 0 1 5.446700 4.691220 538.843018
99 0 1 5.174470 4.727750 539.772888
100 0 1 4.879270 4.687090 540.682007
101 0 1 4.748190 4.783960 541.619690
102 0 1 4.513040 4.826970 542.598877
103 0 1 4.490120 4.971910 543.539001
104 0 1 4.624670 5.175110 544.523010
105 0 1 4.920710 5.249920 545.463501
106 0 1 5.602730 5.319500 546.240417
107 0 1 6.157180 5.486170 546.957520
108 0 1 6.778140 5.836650 547.651184
109 0 1 7.277296 6.415930 548.310913
110 0 1 7.580119 6.958700 549.024475
111 0 1 8.062637 7.374088 549.793701
112 0 1 8.164128 7.782495 550.697815
113 0 1 8.606319 7.748810 551.558105
114 0 1 8.850340 7.669488 552.509521
115 0 1 9.090900 7.510793 553.395508
116 0 1 9.307340 7.452460 554.328918
117 0 1 9.408381 7.626213 555.269531
118 0 1 9.365520 7.838117 556.208801
119 0 1 9.372680 7.929533 557.146118
120 0 1 9.534480 7.937534 558.210815
121 0 1 9.397680 8.138008 559.123718
122 0 1 9.255880 8.390015 560.039978
123 0 1 8.941895 8.805019 560.871399
124 0 1 8.517112 9.184450 561.685669
125 0 1 8.075129 9.468340 562.518677
126 0 1 7.886421 9.861140 563.343811
127 0 1 7.775401 9.985860 564.272705
128 0 1 7.439777 10.004440 565.138306
129 0 1 7.016286 10.037870 566.035522
130 0 1 6.687390 9.909870 566.924316
131 0 1 6.380050 9.906960 567.817200
132 0 1 5.812910 10.086660 568.588928
133 0 1 5.282840 10.141320 569.368530
134 0 1 4.695180 9.935990 570.089783
135 0 1 4.171260 9.997780 570.908997
136 0 1 4.164730 9.950740 571.914429
137 0 1 4.172950 9.845000 572.883484
138 0 1 4.300770 9.829030 573.827026
139 0 1 4.530370 9.932970 574.761719
140 0 1 4.325120 10.043680 575.668091
141 0 1 4.067250 9.928950 576.562927
142 0 1 4.138880 9.876160 577.508972
143 0 1 4.659610 9.700120 578.327026
144 0 1 5.202450 9.641460 579.099487
145 0 1 5.798200 9.713600 579.828979
146 0 1 6.489530 9.705500 580.524780
147 0 1 6.995900 9.770320 581.335388
148 0 1 7.273983 10.013969 582.190613
149 0 1 7.518145 10.165840 583.094788
150 0 1 7.802986 9.978270 584.042603
151 0 1 8.174880 9.592540 584.873474
152 0 1 8.349719 9.359630 585.731018
153 0 1 8.300361 9.323300 586.709229
154 0 1 8.201602 9.269520 587.676697
155 0 1 8.229843 9.482310 588.652100
156 0 1 8.116039 9.689010 589.600708
157 0 1 7.934775 9.726700 590.602905
158 0 1 7.825391 9.668790 591.569580
159 0 1 7.609292 9.481870 592.486511
160 0 1 7.510601 9.268170 593.381897
161 0 1 7.844445 9.214260 594.256104
162 0 1 8.076704 9.142500 595.168091
163 0 1 8.226820 9.044370 596.153198
164 0 1 8.532378 8.698496 597.087280
165 0 1 8.967505 8.274178 597.861328
166 0 1 9.410910 8.052090 598.640320
167 0 1 9.801870 7.676829 599.441406
168 0 1 9.801740 7.484425 600.413574
169 0 1 9.793530 7.333946 601.381470
170 0 1 9.686890 7.111991 602.294678
171 0 1 9.657590 7.043157 603.340088
172 0 1 9.551870 7.287878 604.252014
173 0 1 9.542780 7.512253 605.143188
174 0 1 9.530540 7.950567 606.066711
175 0 1 9.270950 8.452798 606.915894
176 0 1 8.843518 9.071301 607.553528
177 0 1 8.491468 9.722460 608.173279
178 0 1 8.024470 10.415660 608.654175
179 0 1 7.702901 10.920680 609.415588
180 0 1 7.365504 11.170560 610.248596
181 0 1 6.906770 11.639080 610.911926
182 0 1 6.273280 12.004810 611.578674
183 0 1 5.778710 12.186290 612.388611
184 0 1 5.417460 12.425430 613.255493
185 0 1 5.040340 12.672970 614.132690
186 0 1 4.856540 12.803010 615.052429
187 0 1 4.978160 12.940920 615.969604
188 0 1 5.111300 13.204750 616.849976
189 0 1 4.903410 13.437019 617.795593
190 0 1 4.708980 13.539550 618.744751
191 0 1 4.668960 13.342270 619.647095
192 0 1 4.333370 12.971390 620.480042
193 0 1 4.001480 12.758310 621.370178
194 0 1 3.813450 12.397079 622.292480
195 0 1 3.369110 12.393459 623.164062
196 0 1 2.875940 12.113609 623.957764
197 0 1 2.567320 11.704790 624.802124
198 0 1 2.305710 11.273080 625.576599
199 0 1 2.207210 10.930300 626.487122
200 0 1 1.980920 10.527390 627.332153
201 0 1 1.886100 10.114840 628.202271
202 0 1 2.021070 9.754710 629.051819
203 0 1 2.006690 9.314820 629.919250
204 0 1 1.800760 8.879059 630.809021
205 0 1 1.767110 8.228201 631.574402
206 0 1 2.012140 7.807415 632.411194
207 0 1 2.329810 7.304026 633.144775
208 0 1 2.829410 6.822660 633.784119
209 0 1 3.430070 6.365960 634.466187
210 0 1 4.210160 5.863710 634.809143
211 0 1 4.918880 5.565320 635.353577
212 0 1 5.568130 5.286570 636.024719
213 0 1 6.188610 4.987020 636.698608
214 0 1 7.010667 4.783450 637.238892
215 0 1 7.804358 4.644650 637.770020
216 0 1 8.580095 4.674570 638.371887
217 0 1 9.225510 4.821510 639.075989
218 0 1 9.886520 5.142860 639.663086
219 0 1 10.490780 5.244960 640.319397
220 0 1 10.993940 5.689630 641.065308
221 0 1 11.333560 6.265730 641.727905
222 0 1 11.781200 6.685020 642.521729
223 0 1 11.917100 7.151052 643.388123
224 0 1 11.816650 7.679581 644.210999
225 0 1 11.709260 8.096506 645.093506
226 0 1 11.343630 8.164344 646.008484
227 0 1 11.090950 8.529097 646.902893
228 0 1 11.105040 8.865086 647.841431
229 0 1 11.388160 9.187430 648.687073
230 0 1 11.575260 9.459130 649.607300
231 0 1 11.471960 9.748750 650.560974
232 0 1 11.228010 10.217460 651.354370
233 0 1 11.314930 10.711710 652.286804
234 0 1 11.406370 10.888400 653.297119
235 0 1 11.517720 10.876310 654.300110
236 0 1 11.488290 11.023430 655.233276
237 0 1 11.288370 10.833380 656.158020
238 0 1 11.253260 10.625629 657.097229
239 0 1 11.075130 10.098010 657.827820
240 0 1 10.765550 9.803120 658.658081
241 0 1 10.481270 9.600130 659.506409
242 0 1 10.187640 9.316740 660.343689
243 0 1 10.180610 8.769905 661.226624
244 0 1 10.318060 8.173071 662.016724
245 0 1 10.558780 7.834323 662.875488
246 0 1 10.627820 7.640761 663.751587
247 0 1 10.924970 7.750852 664.654724
248 0 1 10.964440 7.682118 665.588684
249 0 1 11.327380 7.503404 666.456604
250 0 1 11.800030 7.351939 667.281128
251 0 1 12.191680 7.479723 668.143921
252 0 1 12.600780 7.334144 669.115784
253 0 1 12.832310 7.454576 670.053223
254 0 1 12.991711 7.743707 670.939575
255 0 1 13.015830 7.950621 671.903381
256 0 1 13.263121 8.040141 672.837769
257 0 1 13.365550 8.023781 673.786987
258 0 1 13.358990 7.863743 674.712280
259 0 1 12.934390 7.762635 675.624817
260 0 1 12.573629 7.921559 676.511719
261 0 1 12.003860 8.186120 677.274719
262 0 1 11.351900 8.217669 678.017578
263 0 1 10.831770 8.259765 678.821411
264 0 1 10.476070 8.066569 679.671814
265 0 1 10.169760 8.168163 680.627808
266 0 1 9.728010 8.265364 681.447693
267 0 1 9.196090 8.194840 682.284790
268 0 1 8.732529 8.109852 683.139526
269 0 1 8.473947 8.080953 684.075195
270 0 1 8.331919 8.116682 684.993530
271 0 1 8.154030 8.347735 685.902893
272 0 1 8.115369 8.159176 686.842896
273 0 1 7.981221 8.105564 687.772522
274 0 1 7.770754 7.856039 688.678589
275 0 1 7.720931 7.792745 689.612305
276 0 1 7.498735 7.783736 690.570190
277 0 1 7.353306 7.465488 691.490906
278 0 1 7.356405 7.026363 692.305481
279 0 1 7.754764 6.389390 692.874695
280 0 1 7.845773 5.601930 693.453003
281 0 1 7.878075 5.072050 694.331787
282 0 1 8.272777 4.649610 695.101929
283 0 1 8.504493 4.309120 695.992432
284 0 1 8.561028 4.115320 696.943604
285 0 1 8.643386 4.039460 697.877380
286 0 1 8.894753 4.019220 698.793274
287 0 1 9.165790 4.213250 699.660889
288 0 1 9.344540 4.594100 700.547180
289 0 1 9.266910 5.003630 701.484985
290 0 1 8.873760 5.392320 702.259216
291 0 1 8.516217 5.892550 703.020203
292 0 1 7.951481 6.193980 703.743103
293 0 1 7.411996 6.384460 704.504089
294 0 1 6.955660 6.711610 705.269226
295 0 1 6.351250 7.071988 705.870178
296 0 1 5.925730 7.704399 706.414612
297 0 1 5.263790 8.248900 706.825195
298 0 1 4.499570 8.578822 707.282715
299 0 1 3.925290 8.922851 708.027832
300 0 1 3.449060 9.185300 708.842896
301 0 1 3.012230 9.521490 709.679321
302 0 1 2.663690 9.800450 710.535889
303 0 1 2.323800 10.132190 711.416687
304 0 1 2.017130 10.625260 712.136230
305 0 1 2.041650 11.165700 713.011780
306 0 1 2.317420 11.509730 713.938782
307 0 1 2.721530 11.915020 714.707397
308 0 1 3.389750 12.244909 715.266907
309 0 1 4.129140 12.585360 715.855225
310 0 1 5.011270 12.662880 716.344421
311 0 1 5.774760 12.781640 716.852905
312 0 1 6.318460 12.975300 717.636230
313 0 1 6.856610 13.053989 718.374878
314 0 1 7.564409 13.086610 719.037903
315 0 1 8.141502 13.315420 719.850708
316 0 1 8.374993 13.680120 720.657410
317 0 1 8.344456 13.856150 721.652283
318 0 1 8.486164 13.727900 722.596802
319 0 1 8.541891 13.597740 723.590210
320 0 1 8.182761 13.233950 724.336792
321 0 1 7.761302 12.849140 725.099487
322 0 1 7.084948 12.324450 725.697876
323 0 1 6.339830 12.006210 726.292908
324 0 1 5.730510 11.627650 726.908691
325 0 1 5.305010 11.102870 727.655701
326 0 1 5.045220 10.921710 728.594971
327 0 1 4.746930 10.532400 729.473022
328 0 1 4.337310 10.227520 730.297974
329 0 1 4.070260 9.767241 731.101013
330 0 1 3.703740 9.427110 731.901978
331 0 1 3.268830 8.848686 732.521973
332 0 1 2.929220 8.268649 733.221008
333 0 1 2.905970 7.941844 734.192993
334 0 1 3.051100 7.761240 735.166992
335 0 1 3.129470 7.494669 736.185974
336 0 1 3.020040 7.151609 737.068970
337 0 1 2.979360 6.684320 737.913025
338 0 1 3.061890 5.982170 738.601013
339 0 1 3.246610 5.386230 739.369019
340 0 1 3.343880 4.983500 740.174011
341 0 1 3.269620 4.553340 741.075989
342 0 1 3.405000 4.038410 741.859985
343 0 1 3.776380 3.513510 742.531982
344 0 1 4.301800 2.867960 743.051025
345 0 1 4.851560 2.369600 743.653992
346 0 1 5.456320 2.173200 744.367004
347 0 1 6.077840 1.963910 745.080994
348 0 1 6.294400 1.900680 745.987000
349 0 1 6.698410 1.938700 746.838013
350 0 1 6.926680 2.027460 747.734985
351 0 1 6.862560 1.964910 748.807007
352 0 1 7.139768 1.948160 749.744995
353 0 1 7.066956 1.835960 750.664978
354 0 1 6.964930 1.863150 751.617981
355 0 1 6.700090 1.892930 752.582031
356 0 1 6.615470 2.050220 753.515015
357 0 1 6.785630 2.275410 754.396973
358 0 1 6.959830 2.513810 755.359009
359 0 1 7.123782 2.702920 756.296997
360 0 1 7.276320 3.006020 757.158020
361 0 1 7.104790 3.579220 757.901978
362 0 1 7.103769 3.974230 758.835999
363 0 1 6.965620 4.235100 759.729980
364 0 1 6.772480 4.411160 760.627991
365 0 1 6.514120 4.701380 761.481018
366 0 1 6.268850 4.649730 762.447998
367 0 1 6.173860 4.680340 763.395020
368 0 1 5.988880 5.160170 764.257019
369 0 1 5.508960 5.435250 765.057007
370 0 1 5.138390 5.573230 765.942017
371 0 1 5.062730 6.186400 766.690979
372 0 1 4.960020 6.791150 767.408997
373 0 1 5.041870 7.033883 768.365967
374 0 1 5.203620 7.073721 769.291016
375 0 1 5.169700 7.003357 770.240967
376 0 1 4.777510 6.801090 771.065002
377 0 1 4.553180 6.592980 771.911011
378 0 1 4.143110 6.397890 772.718018
379 0 1 3.710470 6.130340 773.557007
380 0 1 3.711640 5.951690 774.489990
381 0 1 3.705590 5.593900 775.417969
382 0 1 3.689050 5.558160 776.403992
383 0 1 3.596000 5.759900 777.348022
384 0 1 3.411450 5.903640 778.330994
385 0 1 3.024960 6.215920 779.169006
386 0 1 3.071820 6.644140 780.096008
387 0 1 3.146840 7.237698 780.844971
388 0 1 3.175400 7.346382 781.820984
389 0 1 3.179840 7.226439 782.766968
390 0 1 3.344200 7.024455 783.677002
391 0 1 3.438540 6.661730 784.468018
392 0 1 3.536650 6.337020 785.351013
393 0 1 3.735060 6.096020 786.273987
394 0 1 3.545360 5.901470 787.216980
395 0 1 3.035250 5.867050 788.041992
396 0 1 2.562940 5.634550 788.848022
397 0 1 2.246350 5.620480 789.734009
398 0 1 1.986600 5.794260 790.686035
399 0 1 1.637120 5.624780 791.547974
400 0 1 1.828810 5.471290 792.492981
401 0 1 2.096510 5.430060 793.438965
402 0 1 2.449870 5.698220 794.302002
403 0 1 2.649830 5.910120 795.212036
404 0 1 3.021500 6.089200 796.113037
405 0 1 3.418330 6.243270 796.973022
406 0 1 3.890290 6.349300 797.754028
407 0 1 4.026540 6.379050 798.786987
408 0 1 4.009730 6.344180 799.766968
409 0 1 4.093440 6.442030 800.742004
410 0 1 4.493470 6.380090 801.693970
411 0 1 4.474710 6.462770 802.687988
412 0 1 4.721530 6.411680 803.639038
413 0 1 5.178740 6.402810 804.500977
414 0 1 5.276630 6.448490 805.427979
415 0 1 5.054440 6.637660 806.333984
416 0 1 5.200390 6.571390 807.233032
417 0 1 5.727690 6.258940 808.011963
418 0 1 6.358720 6.255160 808.760010
419 0 1 6.985360 6.392030 809.488037
420 0 1 7.562307 6.757570 810.120972
421 0 1 8.164967 7.173801 810.773010
422 0 1 8.665462 7.679050 811.462036
423 0 1 9.117330 8.057949 812.187988
424 0 1 9.392430 8.224041 813.130005
425 0 1 9.400790 8.275252 814.117004
426 0 1 9.481560 8.139184 815.033997
427 0 1 9.715250 8.238254 815.955994
428 0 1 10.008440 8.298171 816.942993
429 0 1 10.374371 8.358806 817.830994
430 0 1 10.656020 8.539649 818.734985
431 0 1 11.004520 8.647377 819.593018
432 0 1 11.568780 8.883791 820.338989
433 0 1 11.990300 9.321850 821.063965
434 0 1 12.374550 9.811310 821.825989
435 0 1 12.667580 10.387820 822.531982
436 0 1 12.629499 10.529770 823.500000
437 0 1 12.350840 10.768650 824.359985
438 0 1 12.334550 11.157410 825.202026
439 0 1 12.368670 11.579030 826.093018
440 0 1 12.125170 11.756190 826.997009
441 0 1 11.956440 12.056931 827.906006
442 0 1 11.655570 12.491190 828.693970
443 0 1 11.497070 12.509680 829.624023
444 0 1 11.424430 12.472430 830.575012
445 0 1 11.676610 12.068670 831.388000
446 0 1 11.880899 11.336820 831.955017
447 0 1 11.862070 10.451650 832.332031
448 0 1 12.129580 9.548180 832.588989
449 0 1 12.245029 8.652439 833.018005
450 0 1 12.114640 7.762102 833.338989
451 0 1 11.731350 6.882510 833.552979
452 0 1 11.422670 6.001770 833.698975
453 0 1 10.805890 5.278460 833.737000
454 0 1 10.193230 4.599440 833.557007
455 0 1 9.740170 3.978630 832.906982
456 0 1 9.176600 3.417240 832.370972
457 0 1 9.077680 3.047770 831.471985
458 0 1 8.992595 2.614590 830.583984
459 0 1 8.899544 2.437990 829.643982
460 0 1 8.772754 2.193010 828.679016
461 0 1 8.752396 2.240400 827.750000
462 0 1 8.707650 2.227160 826.783997
463 0 1 8.805098 2.181670 825.827026
464 0 1 8.862012 2.155150 824.849976
465 0 1 8.813160 2.490750 823.943970
466 0 1 8.622409 2.595970 822.938965
467 0 1 8.541687 2.697870 822.010010
468 0 1 8.379762 2.952580 821.072021
469 0 1 7.792860 3.389010 820.419983
470 0 1 7.111924 3.834150 819.924011
471 0 1 6.497440 4.397500 819.521973
472 0 1 5.980890 5.027260 818.966003
473 0 1 5.496550 5.409520 818.160034
474 0 1 4.926120 5.691030 817.471985
475 0 1 4.285400 6.235010 817.031982
476 0 1 3.623290 6.814350 816.648987
477 0 1 3.116600 7.355960 816.115967
478 0 1 2.806300 8.064381 815.510986
479 0 1 2.586860 8.736639 814.797974
480 0 1 2.303530 9.425060 814.160034
481 0 1 2.380020 9.897120 813.296021
482 0 1 2.430980 10.453210 812.453979
483 0 1 2.594010 11.087220 811.707031
484 0 1 2.744330 11.669670 810.927979
485 0 1 2.896280 12.166650 810.139038
486 0 1 3.175720 12.293900 809.160034
487 0 1 3.205990 12.678920 808.216980
488 0 1 3.600480 13.105670 807.380005
489 0 1 4.112730 13.314700 806.604004
490 0 1 4.509430 13.498880 805.697998
491 0 1 5.105960 13.460850 804.812988
492 0 1 5.566960 13.607140 804.033997
493 0 1 6.099200 13.739080 803.244995
494 0 1 6.753120 13.803949 802.608032
495 0 1 7.302977 13.476630 801.938965
496 0 1 7.836650 12.859950 801.431030
497 0 1 8.391941 12.036940 801.315002
498 0 1 8.733162 11.203341 801.054993
499 0 1 8.727190 10.449060 800.410034
500 0 1 9.110340 9.711920 799.744019
501 0 1 9.616150 9.123670 799.153015
502 0 1 9.928300 8.807051 798.353027
503 0 1 10.261450 8.539340 797.497009
504 0 1 10.310900 8.185261 796.578979
505 0 1 10.325690 7.926222 795.697021
506 0 1 10.303300 7.547732 794.835022
507 0 1 10.209200 7.359177 793.940002
508 0 1 10.223050 7.366581 793.031006
509 0 1 9.851170 7.523817 792.094971
510 0 1 9.240100 7.722950 791.417969
511 0 1 8.736242 7.976024 790.604980
512 0 1 8.126876 8.247691 789.905029
513 0 1 7.665429 8.549697 789.078003
514 0 1 7.189532 8.588544 788.233032
515 0 1 6.743170 8.859198 787.489990
516 0 1 6.209840 9.345010 786.806030
517 0 1 5.709220 9.892840 786.229004
518 0 1 5.514260 10.638490 785.695984
519 0 1 5.197000 11.288440 785.052002
520 0 1 4.713610 11.968170 784.520996
521 0 1 4.846140 12.510550 783.729004
522 0 1 4.980250 13.104830 782.934998
523 0 1 5.307080 13.637119 782.195007
524 0 1 5.552800 13.831650 781.226990
525 0 1 5.637640 13.693010 780.276001
526 0 1 5.805350 13.727090 779.301025
527 0 1 6.376090 13.593491 778.466980
528 0 1 6.920930 13.224250 777.778015
529 0 1 7.372177 12.860710 777.065979
530 0 1 7.837508 12.406281 776.339966
531 0 1 8.321212 11.874520 775.708984
532 0 1 8.463532 11.183900 775.000000
533 0 1 8.699479 10.512530 774.372009
534 0 1 9.018280 9.887380 773.780029
535 0 1 9.382140 9.060970 773.327026
536 0 1 9.703160 8.376226 772.723999
537 0 1 9.928850 7.915972 771.945984
538 0 1 9.968800 7.486004 771.052002
539 0 1 10.155700 6.917570 770.278992
540 0 1 10.020600 6.434700 769.389038
541 0 1 9.771890 5.913470 768.563965
542 0 1 9.667250 5.154160 767.890015
543 0 1 9.923140 4.559480 767.140991
544 0 1 10.214600 4.260890 766.325989
545 0 1 10.627910 3.876070 765.577026
546 0 1 10.612570 3.634420 764.686035
547 0 1 10.554670 3.465060 763.742981
548 0 1 10.154930 3.408980 762.843994
549 0 1 9.959380 3.425960 761.942993
550 0 1 9.519400 3.532760 761.122986
551 0 1 8.985229 3.715820 760.328979
552 0 1 8.554766 4.019830 759.490967
553 0 1 8.328175 4.295930 758.622009
554 0 1 8.133266 4.675510 757.739990
555 0 1 8.212690 4.870120 756.781006
556 0 1 8.340095 4.832230 755.812988
557 0 1 8.480650 4.806670 754.846985
558 0 1 8.575985 4.848750 753.890991
559 0 1 9.056110 4.824530 753.049011
560 0 1 9.492640 5.049700 752.208984
561 0 1 9.900240 5.116010 751.307983
562 0 1 10.045361 4.947810 750.403015
563 0 1 10.102640 5.253910 749.460022
564 0 1 9.922850 5.671740 748.575989
565 0 1 9.783150 6.128780 747.716980
566 0 1 9.509600 6.536560 746.877014
567 0 1 8.937248 6.848030 746.164978
568 0 1 8.366265 7.343374 745.575012
569 0 1 7.875713 7.576130 744.815979
570 0 1 7.537844 7.752308 743.862976
571 0 1 7.315285 7.858700 742.875000
572 0 1 7.264643 7.916971 741.934021
573 0 1 7.081917 8.062239 740.987976
574 0 1 6.958530 7.754678 740.125000
575 0 1 6.805540 7.525180 739.213013
576 0 1 6.461960 7.327908 738.289978
577 0 1 5.878330 7.129701 737.546997
578 0 1 5.320790 6.978890 736.752014
579 0 1 5.047110 6.865120 735.812012
580 0 1 4.977410 6.635410 734.833984
581 0 1 4.878530 6.188170 733.978027
582 0 1 5.050160 5.974080 732.979004
583 0 1 5.187820 5.659960 732.033020
584 0 1 5.168450 5.523020 731.072998
585 0 1 5.447780 5.489950 730.098999
586 0 1 5.836920 5.446920 729.240967
587 0 1 6.201680 5.804990 728.406677
588 0 1 6.490920 5.846490 727.487976
589 0 1 6.537830 5.916330 726.540100
590 0 1 6.598160 5.901420 725.555298
591 0 1 6.704320 5.787700 724.564209
592 0 1 6.345480 5.746340 723.661011
593 0 1 5.981580 5.696030 722.698608
594 0 1 5.685000 5.929550 721.814331
595 0 1 5.070960 6.242440 721.196106
596 0 1 4.874330 6.870250 720.452515
597 0 1 4.526130 7.187923 719.583313
598 0 1 4.183790 7.483403 718.700500
599 0 1 3.657400 7.684238 717.859314
600 0 1 3.128800 7.820023 717.114014
601 0 1 2.658900 7.750174 716.295166
602 0 1 2.467580 7.852162 715.315613
603 0 1 2.684810 7.870323 714.335876
604 0 1 2.896270 8.100394 713.398376
605 0 1 3.234920 8.271100 712.505188
606 0 1 3.440730 8.183136 711.577881
607 0 1 3.738990 7.813254 710.718201
608 0 1 3.862130 7.352887 709.890076
609 0 1 3.883700 7.116815 708.925598
610 0 1 3.772640 7.199221 707.898804
611 0 1 3.820030 7.329577 706.946716
612 0 1 4.045340 7.733751 706.108093
613 0 1 3.990060 8.037921 705.209473
614 0 1 3.895570 8.253224 704.300781
615 0 1 3.648620 8.559986 703.374084
616 0 1 3.580250 8.636409 702.424805
617 0 1 3.654970 8.669169 701.494385
618 0 1 3.494300 8.688016 700.578308
619 0 1 3.284600 8.770106 699.668579
620 0 1 3.118750 8.889793 698.695679
621 0 1 3.042500 9.428920 697.855408
622 0 1 3.068550 10.111670 697.163574
623 0 1 3.327450 10.658620 696.366516
624 0 1 3.769310 11.031480 695.569519
625 0 1 4.179110 11.274590 694.730103
626 0 1 4.882710 11.616650 694.084595
627 0 1 5.396250 12.080410 693.422302
628 0 1 5.745530 12.667430 692.653687
629 0 1 6.323240 12.982100 691.935974
630 0 1 7.087072 12.748051 691.359192
631 0 1 7.744222 12.442610 690.687988
632 0 1 8.109427 11.973280 689.937988
633 0 1 8.450734 11.460239 689.174377
634 0 1 8.581395 11.093710 688.241394
635 0 1 8.835324 10.790800 687.338928
636 0 1 9.205520 10.555170 686.482300
637 0 1 9.643290 10.155160 685.623169
638 0 1 10.134399 9.611210 684.987000
639 0 1 10.684840 9.301210 684.213989
640 0 1 11.205000 9.296470 683.394714
641 0 1 11.978070 9.423620 682.643616
642 0 1 12.379860 9.505040 681.776428
643 0 1 12.493130 9.882401 680.953796
644 0 1 12.561440 10.172250 680.003174
645 0 1 12.942780 10.441240 679.095398
646 0 1 12.705680 10.786150 678.188904
647 0 1 12.736060 11.173040 677.215515
648 0 1 12.587880 11.268130 676.321899
649 0 1 12.725910 11.197810 675.316772
650 0 1 12.431950 11.003390 674.405518
651 0 1 11.977080 10.738900 673.643311
652 0 1 11.608350 10.411221 672.890015
653 0 1 11.272720 9.876970 672.114502
654 0 1 10.995370 9.367780 671.297180
655 0 1 10.854950 9.118970 670.395386
656 0 1 10.749560 9.041260 669.391418
657 0 1 10.471991 8.957975 668.471619
658 0 1 10.259610 9.227600 667.573608
659 0 1 10.137690 9.348070 666.673279
660 0 1 9.891160 9.597919 665.778198
661 0 1 9.300040 9.563430 665.002808
662 0 1 8.664288 9.210990 664.362671
663 0 1 8.015323 8.941103 663.724915
664 0 1 7.460061 8.968257 662.917419
665 0 1 7.160258 8.918652 662.042908
666 0 1 6.911320 9.020780 661.126526
667 0 1 6.456460 9.196910 660.243286
668 0 1 5.939110 9.189730 659.434082
669 0 1 5.128490 9.157140 658.935913
670 0 1 4.550720 9.326310 658.081909
671 0 1 4.352020 9.724540 657.263184
672 0 1 4.380010 10.352080 656.562378
673 0 1 4.225040 10.886470 655.791504
674 0 1 3.854970 11.417880 655.096191
675 0 1 3.690470 11.896120 654.282898
676 0 1 3.603660 12.388519 653.454407
677 0 1 3.821140 12.599340 652.548279
678 0 1 3.965200 12.817830 651.562622
679 0 1 4.138410 12.896700 650.598999
680 0 1 4.568160 13.009190 649.713013
681 0 1 5.163330 13.148870 648.906494
682 0 1 5.744510 13.327710 648.169495
683 0 1 6.122120 13.534140 647.308716
684 0 1 6.505130 13.488050 646.469727
685 0 1 6.927320 13.178050 645.705078
686 0 1 7.032255 12.700729 644.894409
687 0 1 6.988430 12.481440 643.972717
688 0 1 6.851480 12.401370 643.018677
689 0 1 6.684140 12.216410 642.082886
690 0 1 6.536360 12.412970 641.188171
691 0 1 6.487140 12.603439 640.233276
692 0 1 6.481230 12.595070 639.283386
693 0 1 6.515020 12.515940 638.266113
694 0 1 6.700220 12.609720 637.291870
695 0 1 6.790760 12.376490 636.372681
696 0 1 6.682450 12.532080 635.425232
697 0 1 6.669840 12.428249 634.485168
698 0 1 6.392020 12.099010 633.661987
699 0 1 5.935630 11.905310 632.812744
700 0 1 5.394930 11.373800 632.163513
701 0 1 5.140380 10.686790 631.550171
702 0 1 5.051440 9.794830 631.092407
703 0 1 5.275910 8.879146 630.911377
704 0 1 5.444980 7.982275 630.609375
705 0 1 5.710040 7.137626 630.231079
706 0 1 5.909410 6.379410 629.700806
707 0 1 6.552950 5.608830 629.396423
708 0 1 7.328754 5.035700 629.093811
709 0 1 8.075526 4.623780 628.720154
710 0 1 8.738050 4.417850 628.023132
711 0 1 9.445580 4.392800 627.332947
712 0 1 9.908230 4.493410 626.415527
713 0 1 10.125930 4.519020 625.502930
714 0 1 10.255000 4.619970 624.510803
715 0 1 10.042310 4.825070 623.600647
716 0 1 9.991970 5.205140 622.673157
717 0 1 9.812910 5.591150 621.827576
718 0 1 9.638700 5.662640 620.838257
719 0 1 9.149370 5.891760 620.012024
720 0 1 8.586988 6.105730 619.273315
721 0 1 8.262303 6.206840 618.347412
722 0 1 7.879991 6.138840 617.473083
723 0 1 7.426527 6.061450 616.652710
724 0 1 7.282231 6.075210 615.700623
725 0 1 7.344031 5.891150 614.718994
726 0 1 7.264344 5.960460 613.769714
727 0 1 7.437185 5.977770 612.785095
728 0 1 7.788827 5.917000 611.864197
729 0 1 7.714671 5.713400 610.873169
730 0 1 7.831307 5.950250 609.933289
731 0 1 8.107274 5.677110 608.973083
732 0 1 8.239460 5.111770 608.198486
733 0 1 8.513821 4.853210 607.314575
734 0 1 8.821920 4.846720 606.435913
735 0 1 9.045140 5.023420 605.512512
736 0 1 8.993884 5.193760 604.561584
737 0 1 8.757186 5.270830 603.659485
738 0 1 8.518919 5.207560 602.746277
739 0 1 7.823549 5.292950 601.973572
740 0 1 7.418002 5.509140 601.138916
741 0 1 7.004933 5.548860 600.214478
742 0 1 6.563570 5.468570 599.360229
743 0 1 6.204660 5.693650 598.515625
744 0 1 5.823990 5.875860 597.581421
745 0 1 5.358680 5.929540 596.673096
746 0 1 4.989210 5.942090 595.739014
747 0 1 4.383280 5.941220 594.923584
748 0 1 3.909610 6.157910 594.140198
749 0 1 3.824090 6.194470 592.998718
750 0 1 3.890470 6.498290 592.135132
751 0 1 3.770890 6.944320 591.278198
752 0 1 3.849550 7.260986 590.313293
753 0 1 4.026660 7.153561 589.366516
754 0 1 4.037570 6.903130 588.464478
755 0 1 4.224010 6.562080 587.611511
756 0 1 4.642710 6.035250 586.794495
757 0 1 4.997550 6.121800 585.933228
758 0 1 5.110290 6.016510 585.014526
759 0 1 5.124790 5.738420 584.081604
760 0 1 5.292330 5.677860 583.140320
761 0 1 5.320810 5.525200 582.158875
762 0 1 5.203680 5.516320 581.206299
763 0 1 5.025630 5.623680 580.248291
764 0 1 5.044780 5.658670 579.291626
765 0 1 4.989680 5.774690 578.314575
766 0 1 5.079430 5.669490 577.375732
767 0 1 5.509580 5.609610 576.524780
768 0 1 5.846110 5.791300 575.651184
769 0 1 6.399710 6.032200 574.915222
770 0 1 6.921230 6.187720 574.075195
771 0 1 7.410147 6.302860 573.227173
772 0 1 8.054705 6.060380 572.510925
773 0 1 8.873425 5.933650 571.967102
774 0 1 9.687690 5.740580 571.462280
775 0 1 10.270790 5.380010 570.782227
776 0 1 10.621950 5.142870 569.965881
777 0 1 11.010509 5.125950 569.057678
778 0 1 11.812660 5.213380 568.522827
779 0 1 12.427200 5.636800 567.888977
780 0 1 12.812050 5.784840 566.996887
781 0 1 12.983231 6.218260 566.142395
782 0 1 13.321341 6.634310 565.329590
783 0 1 13.627420 7.089519 564.571777
784 0 1 13.723750 7.504589 563.714600
785 0 1 13.771030 7.713565 562.789917
786 0 1 13.587610 7.846397 561.894592
787 0 1 13.626989 7.704959 560.931091
788 0 1 13.550039 7.619564 560.006470
789 0 1 13.482389 7.482415 559.063110
790 0 1 13.559050 7.401963 558.129883
791 0 1 13.398470 7.246907 557.228577
792 0 1 13.162610 7.378357 556.272278
793 0 1 12.974871 7.544560 555.327026
794 0 1 12.906540 7.975222 554.405029