LAMMPS data file via MDAnalysis

        1000  atoms
        1000  bonds
        1000  angles
           0  dihedrals
           0  impropers

           1  atom types
           1  bond types
           1  angle types
           0  dihedral types
           0  improper types

0.000000 16.000000 xlo xhi
0.000000 16.000000 ylo yhi
0.000000 1257.000000 zlo zhi


Masses

1 1.000000

Atoms

1 0 1 8.776606 10.951170 446.658997
2 0 1 7.991877 11.130630 447.083984
3 0 1 7.365509 11.439440 447.826996
4 0 1 6.896040 11.787880 448.627991
5 0 1 6.734970 12.091499 449.518982
6 0 1 6.516180 12.576099 450.298004
7 0 1 6.452310 12.811190 451.212006
8 0 1 6.637360 12.809320 452.119995
9 0 1 7.157565 12.491660 452.964996
10 0 1 7.854296 12.385110 453.661987
11 0 1 8.579301 12.319310 454.257996
12 0 1 9.214860 12.493589 454.971008
13 0 1 9.688850 12.625830 455.846985
14 0 1 10.301610 12.997580 456.424988
15 0 1 10.508101 13.491580 457.291016
16 0 1 10.804729 13.632050 458.200012
17 0 1 10.903350 13.844510 459.132019
18 0 1 10.592490 14.099250 459.977997
19 0 1 10.278590 14.179410 460.910004
20 0 1 10.082100 14.295031 461.848999
21 0 1 9.752640 14.228889 462.809998
22 0 1 9.481450 14.175330 463.700989
23 0 1 9.580700 14.115040 464.669006
24 0 1 9.638020 13.972980 465.587006
25 0 1 9.946170 13.947550 466.510986
26 0 1 9.856960 13.998529 467.444000
27 0 1 9.851700 13.932400 468.390991
28 0 1 10.233700 13.683220 469.210022
29 0 1 10.567240 13.125959 469.869995
30 0 1 11.079220 12.784610 470.710999
31 0 1 11.689880 12.578859 471.460022
32 0 1 12.135460 12.189330 472.306000
33 0 1 12.430630 11.597960 473.026978
34 0 1 12.782619 11.131160 473.752991
35 0 1 12.695750 10.676710 474.614014
36 0 1 12.768860 10.399440 475.548004
37 0 1 12.763770 10.125640 476.522003
38 0 1 12.805019 9.627260 477.346008
39 0 1 12.555140 9.302020 478.244995
40 0 1 12.397340 8.860192 479.117004
41 0 1 12.171539 8.552699 480.044983
42 0 1 11.925670 8.180761 480.929016
43 0 1 11.987580 7.655951 481.726013
44 0 1 11.476960 7.237316 482.419006
45 0 1 11.051580 7.086070 483.296997
46 0 1 10.714890 6.925880 484.238007
47 0 1 10.478519 6.732650 485.192017
48 0 1 10.313710 6.477320 486.109985
49 0 1 9.824620 6.361200 487.057983
50 0 1 9.339410 6.258390 487.851990
51 0 1 9.043680 6.191480 488.750000
52 0 1 8.787394 6.043210 489.656982
53 0 1 9.005560 6.011400 490.615997
54 0 1 8.865851 5.985900 491.533020
55 0 1 8.680152 5.889230 492.487000
56 0 1 8.460151 5.822690 493.457001
57 0 1 8.576537 5.664190 494.419006
58 0 1 8.826103 5.647080 495.286987
59 0 1 8.821373 5.372280 496.242004
60 0 1 8.809013 4.889230 497.115997
61 0 1 8.764576 4.269130 497.889008
62 0 1 8.376366 3.607360 498.458984
63 0 1 8.183744 3.249490 499.333008
64 0 1 8.206451 2.675790 500.114990
65 0 1 8.250294 1.927120 500.872986
66 0 1 8.021502 1.799170 501.807983
67 0 1 7.741029 1.639430 502.748993
68 0 1 7.323205 1.656940 503.630981
69 0 1 6.715650 1.740770 504.454010
70 0 1 6.347530 1.835370 505.261993
71 0 1 5.851590 2.333250 505.971008
72 0 1 5.716360 2.909280 506.734985
73 0 1 5.697070 3.554970 507.510010
74 0 1 5.689050 4.142070 508.337006
75 0 1 5.845390 4.696200 509.069000
76 0 1 6.130590 5.513890 509.606018
77 0 1 6.691750 6.129720 510.174011
78 0 1 7.171049 6.585680 510.885010
79 0 1 7.639707 7.071302 511.540009
80 0 1 7.900790 7.391691 512.382019
81 0 1 8.169428 7.509712 513.292969
82 0 1 8.416551 7.537354 514.190979
83 0 1 8.790449 7.816083 514.937012
84 0 1 9.424110 7.890663 515.745972
85 0 1 9.927820 8.142811 516.515991
86 0 1 10.197599 8.212277 517.384033
87 0 1 10.417891 8.306282 518.358032
88 0 1 10.635720 8.170791 519.306030
89 0 1 10.575769 8.021996 520.265991
90 0 1 10.441840 7.737526 521.146973
91 0 1 10.043610 7.304833 521.817993
92 0 1 9.860060 6.843710 522.702026
93 0 1 9.344500 6.436030 523.421021
94 0 1 8.979049 6.282570 524.320984
95 0 1 8.558889 6.049240 525.127991
96 0 1 7.986416 5.778330 525.919006
97 0 1 7.435273 5.385400 526.739014
98 0 1 6.949370 5.300350 527.619995
99 0 1 6.550890 5.071510 528.503784
100 0 1 6.242800 4.817170 529.390869
101 0 1 6.012730 4.327490 530.162476
102 0 1 5.797400 3.747080 530.927917
103 0 1 5.525500 3.234990 531.730896
104 0 1 5.359690 2.821210 532.578613
105 0 1 5.641840 2.432370 533.359680
106 0 1 5.746890 1.940190 534.222168
107 0 1 6.254660 1.572420 535.015869
108 0 1 6.878890 1.376920 535.669067
109 0 1 7.411980 1.353320 536.547913
110 0 1 8.104688 1.655420 537.171326
111 0 1 8.725456 1.988710 537.865479
112 0 1 9.467840 2.056150 538.377380
113 0 1 10.354361 2.353790 538.799011
114 0 1 10.993580 2.759650 539.394409
115 0 1 11.535550 3.101480 540.085327
116 0 1 11.853460 3.444230 540.910583
117 0 1 12.259130 3.812260 541.734131
118 0 1 12.383780 4.068810 542.623779
119 0 1 12.509689 4.331650 543.518433
120 0 1 12.424510 4.692130 544.427490
121 0 1 12.391920 4.992330 545.333679
122 0 1 12.560970 5.348670 546.268066
123 0 1 12.706120 5.697630 547.166321
124 0 1 12.823120 6.184690 548.077393
125 0 1 12.743970 6.465910 548.936584
126 0 1 12.535260 6.406200 549.946106
127 0 1 12.347390 6.672360 550.866699
128 0 1 11.948910 7.060141 551.661804
129 0 1 11.571270 7.708747 552.265320
130 0 1 11.123750 8.343577 552.765625
131 0 1 10.727540 8.966625 553.393982
132 0 1 10.550050 9.577310 554.057495
133 0 1 10.660130 10.089980 554.861206
134 0 1 10.795570 10.270260 555.807495
135 0 1 11.005770 10.683030 556.742920
136 0 1 11.180050 11.207420 557.541199
137 0 1 11.470260 11.267810 558.440002
138 0 1 11.681070 11.360570 559.386597
139 0 1 12.007521 11.505330 560.262329
140 0 1 12.117440 11.610410 561.200928
141 0 1 12.476049 11.374830 562.077820
142 0 1 12.870461 11.279090 562.987183
143 0 1 13.169830 11.358960 563.902222
144 0 1 13.414280 11.457130 564.801392
145 0 1 13.592939 11.535340 565.769226
146 0 1 13.516769 11.640640 566.705994
147 0 1 13.376940 11.686420 567.699890
148 0 1 13.039530 11.483390 568.612610
149 0 1 12.988091 11.359921 569.567322
150 0 1 12.808260 11.200020 570.565796
151 0 1 12.444651 10.984591 571.427612
152 0 1 12.022050 10.751160 572.190308
153 0 1 11.542900 10.671850 572.982788
154 0 1 11.277620 10.801280 573.890320
155 0 1 10.921200 10.692670 574.784424
156 0 1 10.651900 10.540770 575.639099
157 0 1 10.501580 10.391960 576.599792
158 0 1 10.510730 10.191980 577.539307
159 0 1 10.560050 10.207900 578.518494
160 0 1 10.511280 10.324540 579.502502
161 0 1 10.525240 10.173880 580.419617
162 0 1 10.395560 10.116261 581.452881
163 0 1 10.035770 10.053040 582.327026
164 0 1 9.686610 10.358820 583.169800
165 0 1 9.393430 10.518710 584.073486
166 0 1 9.186010 10.850821 584.958496
167 0 1 8.765953 11.167610 585.736694
168 0 1 8.316109 11.305320 586.587708
169 0 1 7.821781 11.580870 587.408691
170 0 1 7.536520 11.308720 588.331116
171 0 1 7.307607 10.898020 589.173584
172 0 1 7.247739 10.600230 590.111023
173 0 1 7.205785 10.377040 591.087891
174 0 1 7.127447 10.413750 591.982727
175 0 1 7.333110 10.573240 592.867188
176 0 1 7.626682 10.887290 593.720215
177 0 1 7.807675 11.131760 594.663391
178 0 1 7.977768 11.122420 595.672974
179 0 1 8.303789 11.263650 596.587708
180 0 1 8.701161 11.375090 597.539795
181 0 1 8.865213 11.517790 598.524780
182 0 1 8.973996 11.651510 599.473389
183 0 1 9.111740 11.415140 600.402771
184 0 1 9.473840 10.999220 601.241028
185 0 1 9.514290 10.435940 602.010193
186 0 1 9.282720 10.090950 602.984680
187 0 1 8.993902 9.899910 603.929504
188 0 1 8.889351 9.808850 604.893372
189 0 1 8.748576 9.844840 605.850708
190 0 1 8.674563 9.940001 606.814209
191 0 1 8.634209 10.005500 607.761475
192 0 1 8.470938 9.935510 608.725281
193 0 1 8.126737 9.986270 609.593384
194 0 1 7.785658 9.867820 610.527710
195 0 1 7.165123 9.511570 611.096375
196 0 1 6.672850 9.316570 611.874329
197 0 1 6.007410 9.239160 612.540222
198 0 1 5.414650 9.470819 613.270813
199 0 1 5.050680 9.797590 614.105896
200 0 1 4.919440 9.881701 615.043518
201 0 1 4.627450 9.863340 615.903320
202 0 1 4.502590 10.230230 616.787720
203 0 1 4.352750 10.635010 617.575317
204 0 1 4.445650 11.051360 618.412720
205 0 1 4.719650 11.384340 619.314331
206 0 1 5.052210 11.784580 620.109802
207 0 1 5.647050 11.990210 620.813416
208 0 1 5.855780 12.101470 621.729553
209 0 1 6.113690 12.334539 622.577820
210 0 1 6.483830 12.542630 623.501343
211 0 1 6.748150 12.726971 624.429260
212 0 1 6.846870 12.777560 625.362732
213 0 1 6.962080 12.428820 626.197937
214 0 1 7.147830 11.925360 627.000916
215 0 1 7.467352 11.660070 627.803711
216 0 1 7.717258 11.177840 628.561646
217 0 1 7.921366 10.795700 629.450745
218 0 1 7.931027 10.393570 630.297852
219 0 1 7.925851 9.790560 631.045044
220 0 1 8.013366 9.066950 631.699463
221 0 1 8.120152 8.393037 632.374207
222 0 1 8.300366 8.032228 633.294434
223 0 1 8.416978 7.708778 634.249634
224 0 1 8.185765 7.291999 635.081543
225 0 1 8.142128 6.792590 635.897888
226 0 1 8.092220 6.262020 636.675293
227 0 1 7.960405 6.071620 637.578308
228 0 1 7.413997 6.061270 638.353943
229 0 1 6.913900 6.094420 639.125610
230 0 1 6.425750 6.144750 639.997925
231 0 1 5.991370 6.091260 640.845215
232 0 1 5.923930 6.096390 641.781006
233 0 1 5.939330 6.461310 642.730774
234 0 1 5.771540 6.814940 643.534119
235 0 1 5.717790 7.188346 644.462280
236 0 1 5.630580 7.287126 645.439514
237 0 1 5.744940 7.328776 646.402283
238 0 1 5.754390 7.646675 647.328613
239 0 1 5.756080 8.042759 648.229675
240 0 1 5.733590 8.259582 649.241211
241 0 1 5.756010 8.440498 650.164307
242 0 1 5.818050 8.631335 651.099976
243 0 1 5.809960 9.075860 652.011475
244 0 1 5.805970 9.456380 652.927002
245 0 1 5.784150 9.894260 653.772095
246 0 1 6.002830 10.216660 654.617004
247 0 1 6.425860 10.630030 655.375916
248 0 1 6.890400 10.910340 656.172974
249 0 1 7.217112 11.220460 657.072998
250 0 1 7.713254 11.445869 657.874878
251 0 1 7.583084 11.736460 658.773682
252 0 1 7.596647 12.022230 659.703796
253 0 1 7.751988 12.119579 660.665894
254 0 1 8.136226 12.341721 661.552612
255 0 1 8.379926 12.529301 662.480774
256 0 1 8.829917 12.274410 663.271606
257 0 1 9.316510 12.327150 664.098694
258 0 1 9.870070 11.891270 664.743225
259 0 1 10.173840 11.346280 665.466919
260 0 1 10.411810 10.991780 666.327881
261 0 1 10.771430 10.677330 667.161377
262 0 1 10.781140 10.500090 668.087585
263 0 1 10.451000 9.821140 668.720703
264 0 1 9.927180 9.079700 669.083984
265 0 1 9.381980 8.553248 669.700989
266 0 1 8.791969 7.996871 670.249207
267 0 1 8.350325 7.429413 670.839478
268 0 1 7.893640 7.055415 671.690918
269 0 1 7.665128 6.734960 672.612671
270 0 1 7.478406 6.360550 673.488708
271 0 1 7.350835 5.990510 674.390381
272 0 1 7.239596 5.526070 675.254211
273 0 1 6.976050 5.193330 676.076721
274 0 1 6.582830 4.806960 676.770691
275 0 1 6.408490 4.477520 677.634094
276 0 1 6.258430 4.316360 678.547302
277 0 1 6.029470 3.977270 679.424927
278 0 1 6.104480 3.798290 680.354309
279 0 1 6.289650 3.454450 681.255371
280 0 1 6.558850 3.520970 682.237000
281 0 1 6.863850 3.586650 683.169006
282 0 1 7.501682 3.814850 683.845398
283 0 1 7.936403 4.182740 684.636719
284 0 1 8.434608 4.513980 685.414001
285 0 1 8.761924 5.064050 686.139709
286 0 1 9.253030 5.682660 686.650574
287 0 1 9.633610 6.265020 687.317627
288 0 1 10.025351 6.691820 688.108521
289 0 1 10.404350 7.039041 688.934509
290 0 1 10.371140 7.356930 689.798401
291 0 1 10.380890 7.633994 690.765686
292 0 1 10.444650 7.974792 691.693726
293 0 1 10.450550 8.201360 692.624084
294 0 1 10.638170 8.171947 693.604919
295 0 1 10.955260 8.054128 694.503296
296 0 1 10.777170 8.029060 695.452820
297 0 1 10.573820 8.029386 696.405396
298 0 1 10.328260 8.161040 697.290710
299 0 1 10.078770 8.512829 698.153015
300 0 1 10.001790 8.944693 699.022278
301 0 1 9.819170 9.707290 699.570312
302 0 1 9.426291 10.366560 700.192627
303 0 1 8.838036 10.852890 700.713196
304 0 1 8.264091 11.205160 701.480713
305 0 1 7.836352 11.646720 702.216797
306 0 1 7.640129 12.197990 702.944885
307 0 1 7.503320 12.805700 703.697998
308 0 1 7.482703 13.321270 704.490479
309 0 1 7.535338 13.678101 705.387207
310 0 1 7.566981 14.014200 706.264771
311 0 1 7.607515 14.335180 707.147583
312 0 1 7.486323 14.465549 708.178101
313 0 1 7.864793 14.496300 709.067322
314 0 1 8.018252 14.232560 709.947693
315 0 1 8.434743 13.928900 710.770386
316 0 1 8.828514 13.692300 711.626892
317 0 1 8.939451 13.476660 712.573608
318 0 1 9.012830 13.386820 713.541199
319 0 1 8.833469 13.240311 714.453613
320 0 1 8.614322 12.689400 715.260925
321 0 1 8.370390 12.278339 716.065613
322 0 1 8.226242 12.220881 717.088318
323 0 1 8.377254 12.525869 718.083679
324 0 1 8.348377 12.876801 718.968384
325 0 1 8.078094 13.187990 719.814697
326 0 1 7.890232 13.429689 720.767090
327 0 1 7.988137 13.512800 721.691711
328 0 1 8.198785 13.516600 722.683228
329 0 1 8.444243 13.514999 723.658325
330 0 1 8.862197 13.599300 724.539185
331 0 1 9.348500 13.409679 725.353394
332 0 1 9.874110 13.170020 726.165710
333 0 1 10.046840 13.219720 727.134033
334 0 1 10.276540 13.293711 728.068481
335 0 1 10.655820 13.299450 728.953979
336 0 1 11.059230 13.035620 729.763000
337 0 1 11.352690 12.734750 730.632019
338 0 1 11.211300 12.440400 731.513000
339 0 1 10.917140 12.201780 732.434021
340 0 1 10.644490 11.992540 733.365967
341 0 1 10.327530 11.836570 734.276001
342 0 1 9.890310 11.477560 735.057007
343 0 1 9.326050 11.057450 735.703003
344 0 1 8.509790 10.740260 736.224976
345 0 1 7.847374 10.368620 736.843994
346 0 1 7.398860 9.832170 737.473999
347 0 1 6.878170 9.290670 738.059998
348 0 1 6.471170 8.610119 738.588013
349 0 1 6.265920 7.968733 739.309021
350 0 1 6.196270 7.362616 740.130981
351 0 1 6.216220 6.902880 741.026978
352 0 1 5.965390 6.769320 741.969971
353 0 1 6.004820 6.639190 742.942993
354 0 1 5.974560 6.515580 743.992981
355 0 1 6.081080 6.564180 744.945007
356 0 1 6.210400 6.789760 745.865967
357 0 1 6.364600 6.949270 746.744995
358 0 1 6.735470 7.398332 747.568970
359 0 1 7.396350 7.523359 748.294006
360 0 1 7.866630 7.519068 749.130005
361 0 1 8.453061 7.446729 749.908997
362 0 1 9.104240 7.063901 750.565002
363 0 1 9.677230 6.709480 751.247986
364 0 1 10.188590 6.582150 751.987976
365 0 1 10.746630 6.493080 752.794006
366 0 1 11.209230 6.414290 753.612976
367 0 1 11.501340 6.333540 754.528015
368 0 1 11.501070 6.152210 755.463989
369 0 1 11.357930 6.049720 756.486023
370 0 1 11.002330 5.822690 757.377014
371 0 1 10.752300 5.664090 758.344971
372 0 1 10.118200 5.743230 759.213989
373 0 1 9.980860 5.762990 760.239990
374 0 1 9.776740 5.589590 761.103027
375 0 1 9.930070 5.409240 762.098022
376 0 1 10.056950 5.241450 763.063965
377 0 1 10.238350 5.058080 763.988037
378 0 1 10.299220 4.784520 764.830994
379 0 1 10.481770 4.483200 765.734985
380 0 1 10.874460 4.186650 766.640015
381 0 1 11.119540 3.882380 767.516968
382 0 1 11.415980 3.864750 768.424011
383 0 1 11.609631 3.940440 769.412964
384 0 1 11.929530 4.124620 770.330017
385 0 1 11.864799 4.332900 771.283020
386 0 1 11.585090 4.360650 772.234009
387 0 1 11.724570 4.631100 773.158020
388 0 1 12.087360 5.026180 773.942017
389 0 1 12.027880 5.070210 774.890015
390 0 1 12.263250 5.211080 775.835022
391 0 1 12.310210 5.284360 776.738037
392 0 1 11.888600 5.212480 777.588989
393 0 1 11.367420 5.599300 778.292969
394 0 1 10.918030 6.160930 779.030029
395 0 1 10.502210 6.491670 779.870972
396 0 1 10.027700 6.530380 780.786987
397 0 1 9.979190 6.657820 781.723022
398 0 1 9.958430 6.816470 782.658997
399 0 1 9.822060 7.002725 783.593994
400 0 1 9.580330 7.078742 784.457031
401 0 1 9.548080 7.494089 785.322998
402 0 1 9.527220 7.708433 786.202026
403 0 1 9.603540 7.552951 787.218994
404 0 1 9.975260 7.651338 788.085022
405 0 1 10.298059 7.723855 788.966003
406 0 1 10.570660 7.901770 789.893982
407 0 1 10.981970 7.943892 790.703979
408 0 1 11.120710 8.236252 791.606995
409 0 1 11.117590 8.232642 792.585022
410 0 1 10.978889 8.349984 793.554016
411 0 1 11.005480 8.385985 794.554993
412 0 1 10.976740 8.466083 795.500000
413 0 1 10.538310 8.505746 796.328003
414 0 1 10.209930 8.244884 797.221985
415 0 1 9.748170 7.841902 797.978027
416 0 1 9.343270 7.558783 798.856018
417 0 1 8.832169 7.118359 799.541992
418 0 1 8.331606 6.781500 800.362000
419 0 1 7.621270 6.666050 800.947998
420 0 1 7.035144 6.348250 801.641968
421 0 1 6.473510 6.270440 802.380981
422 0 1 6.236330 6.172090 803.302002
423 0 1 5.998580 6.051310 804.239014
424 0 1 5.367730 6.122970 804.994019
425 0 1 5.078130 6.136890 805.910034
426 0 1 4.924510 5.963880 806.837036
427 0 1 4.819360 6.103670 807.809021
428 0 1 4.588470 6.098890 808.733032
429 0 1 4.667440 6.257960 809.765991
430 0 1 4.732530 6.720340 810.549988
431 0 1 4.729340 7.190016 811.393005
432 0 1 4.720100 7.736273 812.190979
433 0 1 4.809020 8.206774 812.990967
434 0 1 5.019520 8.156921 814.016968
435 0 1 4.894470 8.078282 814.992004
436 0 1 4.990900 7.904233 815.942993
437 0 1 4.949610 7.450008 816.812012
438 0 1 4.882650 7.026064 817.690002
439 0 1 4.912840 6.663900 818.603027
440 0 1 4.886980 6.530320 819.567993
441 0 1 5.117930 6.661010 820.515015
442 0 1 5.073990 7.137930 821.341980
443 0 1 5.132070 7.602199 822.205994
444 0 1 5.174430 7.843829 823.134033
445 0 1 5.012930 8.075446 824.112000
446 0 1 4.735960 8.600982 824.906006
447 0 1 4.687490 9.276220 825.760986
448 0 1 4.520830 9.979360 826.443970
449 0 1 4.504580 10.490630 827.203003
450 0 1 4.300440 10.783130 828.065002
451 0 1 4.029400 11.060530 828.978027
452 0 1 4.009950 11.364120 829.911987
453 0 1 3.741050 11.388960 830.880981
454 0 1 3.530520 11.049500 831.750977
455 0 1 3.440460 10.605950 832.648987
456 0 1 3.085720 10.329240 833.525024
457 0 1 2.757680 9.980250 834.358032
458 0 1 2.529000 9.565680 835.229980
459 0 1 2.352920 9.372120 836.213013
460 0 1 2.373240 9.048860 837.117004
461 0 1 2.391660 8.629907 838.052002
462 0 1 2.728990 8.429009 839.056030
463 0 1 3.176120 8.103446 839.865967
464 0 1 3.898670 7.828998 840.427979
465 0 1 4.812420 7.653390 840.723999
466 0 1 5.754640 7.427482 840.862000
467 0 1 6.622140 7.345924 840.500977
468 0 1 7.476499 7.377913 840.065979
469 0 1 8.193768 7.624456 839.349976
470 0 1 8.827955 7.580053 838.622009
471 0 1 9.492670 7.745058 837.851990
472 0 1 10.032249 7.647993 837.077026
473 0 1 10.532200 7.515305 836.268982
474 0 1 11.160049 7.432426 835.492004
475 0 1 11.642490 7.510296 834.651001
476 0 1 12.141300 7.658001 833.864990
477 0 1 12.767090 7.888567 833.156982
478 0 1 13.395630 7.964139 832.450012
479 0 1 14.020639 8.113524 831.773010
480 0 1 14.381010 7.971872 830.872986
481 0 1 14.647950 8.007761 829.963013
482 0 1 14.708981 7.937166 828.973022
483 0 1 14.440880 8.209991 828.088989
484 0 1 13.968861 8.342371 827.202026
485 0 1 13.349470 8.564114 826.502991
486 0 1 12.807810 8.762107 825.771973
487 0 1 12.334550 8.549671 824.960022
488 0 1 11.943520 8.382555 824.075012
489 0 1 11.858250 8.161520 823.098022
490 0 1 11.739780 8.123854 822.138000
491 0 1 11.392290 7.959690 821.263000
492 0 1 11.356760 7.784224 820.302002
493 0 1 11.431940 7.600731 819.297974
494 0 1 11.688950 7.553643 818.401978
495 0 1 11.692050 7.258230 817.471008
496 0 1 11.640779 6.943630 816.567017
497 0 1 12.011200 6.761670 815.750977
498 0 1 12.402411 6.537400 814.870972
499 0 1 12.403811 6.152730 813.988037
500 0 1 11.930950 5.883340 813.179016
501 0 1 11.737100 5.521940 812.304993
502 0 1 11.312420 5.084890 811.452026
503 0 1 10.908670 4.777310 810.640991
504 0 1 10.349070 4.500670 809.929016
505 0 1 9.759439 4.186430 809.259033
506 0 1 9.159260 3.865980 808.575012
507 0 1 8.473563 3.536390 807.921021
508 0 1 7.945558 3.410710 807.138000
509 0 1 7.482608 3.404860 806.291016
510 0 1 6.901810 3.340610 805.504028
511 0 1 6.255750 3.311860 804.773987
512 0 1 5.652640 3.092230 804.052002
513 0 1 5.213940 2.904710 803.257996
514 0 1 4.888950 3.032240 802.337036
515 0 1 4.394390 3.218330 801.526978
516 0 1 4.090130 3.334210 800.573975
517 0 1 3.976800 3.505920 799.594971
518 0 1 3.504430 3.792640 798.817017
519 0 1 3.245970 3.879210 797.786011
520 0 1 3.383830 4.239870 796.856995
521 0 1 3.353560 4.488260 795.968018
522 0 1 3.200040 4.606280 795.052002
523 0 1 2.950410 4.854320 794.164978
524 0 1 2.851670 4.769100 793.187988
525 0 1 2.910520 4.822540 792.263000
526 0 1 2.882160 5.180140 791.344971
527 0 1 3.004240 5.317700 790.421021
528 0 1 3.231630 5.500800 789.483032
529 0 1 3.420990 5.663430 788.510986
530 0 1 3.213510 5.907270 787.562988
531 0 1 3.023070 6.047690 786.620972
532 0 1 3.095140 6.079620 785.598022
533 0 1 3.185290 5.787210 784.710022
534 0 1 3.322060 5.597020 783.809998
535 0 1 3.610930 5.410670 782.937012
536 0 1 3.807370 5.456100 781.985962
537 0 1 4.135940 5.567770 781.068970
538 0 1 4.466130 6.029260 780.273987
539 0 1 4.803480 6.568020 779.573975
540 0 1 5.044170 7.085432 778.726013
541 0 1 5.224850 7.713429 778.083008
542 0 1 5.632390 8.460197 777.585999
543 0 1 5.984360 9.263300 777.161011
544 0 1 6.352280 9.965360 776.589966
545 0 1 6.654490 10.641100 775.906006
546 0 1 7.035155 11.106370 775.198975
547 0 1 7.310346 11.320470 774.275024
548 0 1 7.525657 11.582840 773.406006
549 0 1 7.947460 11.631130 772.453979
550 0 1 8.248191 11.647790 771.528992
551 0 1 8.378927 11.546040 770.619019
552 0 1 8.384998 11.244710 769.742981
553 0 1 8.345640 10.847730 768.856995
554 0 1 8.064347 10.737050 767.969971
555 0 1 7.771722 10.409640 767.078979
556 0 1 7.258787 10.177980 766.275024
557 0 1 7.031580 10.161180 765.328003
558 0 1 6.774440 10.288700 764.445007
559 0 1 6.355590 10.243370 763.562012
560 0 1 6.034940 10.214800 762.682983
561 0 1 5.846070 9.939530 761.731018
562 0 1 5.451850 9.811440 760.895996
563 0 1 4.968630 9.794060 760.046021
564 0 1 4.740310 9.698850 759.122009
565 0 1 4.790800 9.389760 758.202026
566 0 1 4.734620 9.170780 757.317993
567 0 1 4.913920 8.654424 756.505981
568 0 1 5.363560 8.306814 755.697998
569 0 1 5.803650 8.135337 754.875000
570 0 1 6.134580 8.003536 753.950012
571 0 1 6.465950 8.179049 753.115967
572 0 1 6.696800 8.382407 752.169983
573 0 1 7.215112 8.579019 751.393005
574 0 1 7.845112 8.813568 750.664001
575 0 1 8.437886 8.857070 749.828979
576 0 1 8.884628 9.118400 748.976013
577 0 1 9.126120 9.216470 748.004028
578 0 1 9.536660 9.054500 747.216003
579 0 1 9.590200 8.904058 746.299011
580 0 1 9.779810 8.609894 745.385010
581 0 1 10.028250 8.523634 744.499023
582 0 1 10.288050 8.240580 743.593018
583 0 1 10.551810 7.860784 742.747986
584 0 1 10.614550 7.668492 741.830994
585 0 1 10.454360 7.610621 740.849976
586 0 1 10.336580 7.595142 739.853027
587 0 1 10.411270 7.510015 738.895996
588 0 1 10.831060 7.343826 738.054993
589 0 1 11.363940 7.232641 737.270996
590 0 1 11.873950 7.253689 736.483032
591 0 1 12.182910 7.752679 735.723022
592 0 1 12.210450 8.242346 734.869995
593 0 1 12.281520 8.594943 733.987000
594 0 1 12.230330 8.982781 733.166016
595 0 1 12.360180 9.038000 732.091980
596 0 1 12.732470 8.798206 731.289001
597 0 1 12.939480 8.608645 730.384033
598 0 1 12.584499 8.152298 729.624023
599 0 1 12.059800 7.593443 729.151001
600 0 1 11.543159 7.143630 728.435303
601 0 1 11.193590 6.499570 727.869385
602 0 1 10.583910 5.869320 727.389282
603 0 1 10.243280 5.481600 726.556824
604 0 1 9.890520 5.551820 725.648926
605 0 1 9.455020 5.792330 724.869873
606 0 1 9.260590 6.294560 724.073425
607 0 1 9.201880 6.959390 723.401367
608 0 1 9.259780 7.449716 722.603516
609 0 1 9.490780 7.706948 721.701721
610 0 1 9.280280 7.962461 720.814209
611 0 1 9.162600 8.184612 719.872681
612 0 1 8.863184 8.225571 718.937500
613 0 1 8.813356 7.929358 718.008301
614 0 1 8.590938 7.594281 717.125488
615 0 1 8.341269 7.207461 716.298279
616 0 1 8.145461 6.478620 715.624207
617 0 1 7.600325 5.855040 715.063599
618 0 1 7.381458 5.369900 714.286682
619 0 1 6.973380 5.225990 713.455200
620 0 1 6.758300 5.029210 712.529175
621 0 1 6.462070 5.051500 711.619873
622 0 1 6.293190 5.185370 710.687195
623 0 1 6.204410 5.513790 709.806885
624 0 1 6.427000 5.811140 708.888977
625 0 1 6.802260 6.028110 707.992615
626 0 1 7.095884 6.340410 707.155212
627 0 1 7.282947 6.612460 706.254822
628 0 1 7.251585 7.043760 705.323608
629 0 1 6.985470 7.202612 704.390015
630 0 1 6.559310 7.380550 703.547302
631 0 1 6.184110 7.477208 702.650696
632 0 1 5.864730 7.575329 701.737000
633 0 1 5.667450 7.525893 700.759033
634 0 1 5.722030 7.600133 699.836670
635 0 1 5.624480 7.787130 698.897888
636 0 1 5.933370 7.955917 697.972717
637 0 1 6.350110 8.164821 697.107422
638 0 1 6.354830 8.492416 696.083313
639 0 1 6.390370 8.585365 695.112793
640 0 1 6.408660 8.765564 694.199524
641 0 1 6.467710 8.804630 693.240173
642 0 1 6.587730 9.041910 692.307312
643 0 1 7.006991 9.294100 691.440674
644 0 1 7.250496 9.579840 690.467407
645 0 1 7.441337 10.087930 689.637512
646 0 1 7.333058 10.516600 688.687317
647 0 1 6.833990 10.725260 687.914124
648 0 1 6.681560 10.935170 686.986877
649 0 1 6.396280 11.278749 686.116028
650 0 1 6.215580 11.563320 685.210388
651 0 1 5.825980 11.761260 684.313782
652 0 1 5.634510 11.776110 683.355286
653 0 1 5.537830 12.029230 682.441223
654 0 1 5.422290 12.432280 681.587708
655 0 1 5.381680 12.596450 680.600708
656 0 1 5.555720 12.741859 679.678772
657 0 1 6.124380 13.018280 678.938232
658 0 1 6.746320 12.953270 678.258301
659 0 1 7.187490 13.137609 677.417480
660 0 1 7.644833 13.300970 676.649109
661 0 1 8.090899 13.438419 675.789490
662 0 1 8.502341 13.510201 674.966919
663 0 1 8.968593 13.432000 674.113220
664 0 1 9.323160 13.412830 673.245300
665 0 1 9.777180 13.595881 672.408691
666 0 1 10.007850 13.567930 671.473083
667 0 1 10.256980 13.776920 670.532593
668 0 1 10.460270 13.528970 669.598572
669 0 1 10.550560 13.066111 668.749268
670 0 1 10.876770 12.748990 667.872070
671 0 1 11.252769 12.207230 667.166199
672 0 1 11.559430 11.467210 666.649170
673 0 1 11.999340 10.808750 666.033020
674 0 1 12.589900 10.762060 665.234131
675 0 1 12.962999 10.890360 664.372803
676 0 1 13.038040 10.974000 663.354187
677 0 1 12.989030 11.078220 662.364807
678 0 1 12.934370 11.255890 661.397095
679 0 1 12.873110 11.210011 660.385498
680 0 1 12.775280 11.054820 659.502319
681 0 1 12.454500 10.939120 658.586792
682 0 1 12.347890 10.727680 657.652588
683 0 1 12.134871 10.591190 656.721008
684 0 1 12.076059 10.404960 655.739075
685 0 1 12.186510 9.931110 654.904419
686 0 1 12.568670 9.403100 654.140381
687 0 1 12.734489 8.722385 653.517883
688 0 1 12.788179 8.134457 652.658203
689 0 1 12.944490 7.661791 651.869080
690 0 1 13.086130 7.303748 650.995789
691 0 1 13.247200 6.979590 650.084900
692 0 1 13.324150 6.948150 649.089478
693 0 1 13.177830 7.172998 648.132019
694 0 1 12.899090 7.393359 647.214172
695 0 1 12.420460 7.475568 646.359680
696 0 1 11.762430 7.839082 645.652100
697 0 1 11.461110 8.259466 644.818604
698 0 1 11.133780 8.430200 643.934998
699 0 1 10.682890 8.447103 643.069092
700 0 1 10.397390 8.460874 642.209290
701 0 1 10.104810 8.179381 641.348511
702 0 1 10.005390 7.417282 640.710693
703 0 1 10.069060 6.710580 640.034424
704 0 1 9.799030 6.145330 639.302124
705 0 1 9.738630 5.635100 638.496948
706 0 1 9.689140 5.250020 637.612244
707 0 1 9.666540 4.841360 636.723450
708 0 1 9.809400 4.420110 635.853760
709 0 1 9.674480 4.052610 634.970825
710 0 1 9.404080 3.727360 634.123718
711 0 1 9.000920 3.559370 633.200989
712 0 1 8.638594 3.450740 632.332947
713 0 1 8.367514 3.448700 631.449158
714 0 1 7.761548 3.627050 630.728455
715 0 1 7.245279 3.940320 629.970703
716 0 1 6.544050 4.093070 629.321472
717 0 1 6.071250 4.011690 628.390991
718 0 1 5.464850 3.660600 627.727112
719 0 1 4.911300 3.738030 626.950989
720 0 1 4.821890 3.895980 626.033813
721 0 1 4.848040 4.192760 625.088806
722 0 1 5.006060 4.324810 624.178040
723 0 1 5.215000 4.555720 623.262085
724 0 1 5.551090 4.490820 622.320435
725 0 1 5.916280 4.512910 621.438293
726 0 1 6.327910 4.610230 620.570007
727 0 1 6.856020 4.652270 619.751221
728 0 1 7.486207 4.608640 618.980957
729 0 1 7.912154 4.508980 618.174316
730 0 1 8.377233 4.243710 617.413696
731 0 1 8.337393 4.074470 616.499878
732 0 1 8.452555 4.361240 615.606689
733 0 1 8.510045 4.342020 614.689575
734 0 1 8.658243 4.037100 613.805481
735 0 1 8.893503 3.722420 612.940674
736 0 1 8.757292 3.442500 612.001099
737 0 1 8.833480 3.274620 611.063171
738 0 1 9.083040 2.994970 610.151917
739 0 1 9.445620 2.661340 609.304199
740 0 1 9.264910 2.206500 608.462280
741 0 1 9.025000 1.954460 607.529114
742 0 1 8.868801 2.126250 606.583618
743 0 1 8.760721 2.050360 605.652100
744 0 1 8.687308 1.955720 604.670898
745 0 1 8.405084 1.820650 603.799377
746 0 1 7.849760 2.126850 603.072327
747 0 1 7.220398 2.604620 602.569275
748 0 1 6.692660 3.176480 602.085571
749 0 1 6.264350 3.677100 601.286499
750 0 1 6.019070 4.233290 600.621826
751 0 1 5.875420 4.815070 599.750610
752 0 1 5.995120 5.398490 599.049072
753 0 1 5.806860 5.937420 598.299805
754 0 1 5.573070 6.336260 597.459229
755 0 1 5.420550 6.782900 596.602417
756 0 1 5.428540 7.373327 595.676514
757 0 1 5.289040 7.752905 594.834778
758 0 1 4.997220 8.253523 594.006409
759 0 1 4.613610 8.413752 593.196716
760 0 1 4.211120 8.696899 592.348877
761 0 1 4.125990 9.076860 591.490784
762 0 1 4.117080 9.469650 590.591675
763 0 1 3.820180 9.598860 589.650391
764 0 1 3.352000 9.876470 588.846069
765 0 1 3.323240 10.274260 587.984985
766 0 1 3.576510 10.417970 587.038879
767 0 1 4.086200 10.725210 586.243896
768 0 1 4.867250 10.837650 585.677307
769 0 1 5.593370 10.919330 585.059570
770 0 1 5.985920 10.778590 584.171692
771 0 1 6.075390 10.690540 583.240723
772 0 1 6.231460 10.509541 582.306519
773 0 1 6.910050 10.476260 581.601929
774 0 1 7.512014 10.581030 580.890808
775 0 1 7.967047 10.857230 580.112793
776 0 1 8.083937 10.977370 579.092529
777 0 1 8.109451 10.817340 578.113586
778 0 1 8.288394 10.485280 577.234375
779 0 1 8.415077 10.099710 576.365479
780 0 1 8.313838 9.580760 575.586426
781 0 1 8.239117 9.058570 574.806213
782 0 1 8.203287 8.506522 574.038696
783 0 1 7.933753 8.225011 573.069397
784 0 1 7.716152 7.824051 572.260193
785 0 1 7.272395 7.519501 571.454102
786 0 1 7.184630 7.303757 570.518188
787 0 1 7.124557 7.689022 569.638916
788 0 1 6.829840 8.044736 568.843689
789 0 1 6.532660 8.441703 567.979797