LAMMPS data file via MDAnalysis

        1000  atoms
        1000  bonds
        1000  angles
           0  dihedrals
           0  impropers

           1  atom types
           1  bond types
           1  angle types
           0  dihedral types
           0  improper types

0.000000 16.000000 xlo xhi
0.000000 16.000000 ylo yhi
0.000000 1257.000000 zlo zhi


Masses

1 1.000000

Atoms

1 0 1 9.160320 7.523795 454.919006
2 0 1 8.940588 7.478495 455.846985
3 0 1 8.818788 7.700627 456.764008
4 0 1 8.607323 7.750360 457.747009
5 0 1 8.594246 7.590403 458.645996
6 0 1 8.658195 7.272432 459.559998
7 0 1 8.914733 7.032413 460.476013
8 0 1 8.942339 6.882600 461.421021
9 0 1 9.013020 7.027455 462.385986
10 0 1 9.063690 6.941540 463.289001
11 0 1 9.165850 6.878590 464.213989
12 0 1 9.301380 6.969290 465.132019
13 0 1 9.650800 7.264260 466.023987
14 0 1 10.066040 7.925297 466.651001
15 0 1 10.222160 8.735950 467.182007
16 0 1 10.361650 9.557100 467.785004
17 0 1 10.562820 10.314110 468.375000
18 0 1 10.769320 10.941940 469.121002
19 0 1 10.799910 11.629220 469.815979
20 0 1 10.645610 11.990720 470.640015
21 0 1 10.814920 12.172300 471.570007
22 0 1 11.226900 12.078040 472.408020
23 0 1 11.592210 12.024490 473.307983
24 0 1 12.123980 11.963870 474.069000
25 0 1 12.644140 11.819830 474.975006
26 0 1 12.814560 11.752630 475.937012
27 0 1 12.781200 11.393710 476.786987
28 0 1 12.733940 11.011311 477.695984
29 0 1 12.795219 10.878400 478.662994
30 0 1 12.822260 10.830740 479.626007
31 0 1 12.575370 10.692240 480.578979
32 0 1 12.269700 10.449630 481.377014
33 0 1 11.911610 10.005870 482.148010
34 0 1 11.361660 9.537410 482.765015
35 0 1 10.647350 9.227620 483.453979
36 0 1 10.004890 9.401740 484.117981
37 0 1 9.219370 9.554790 484.648987
38 0 1 8.665219 9.221940 485.377014
39 0 1 8.155741 8.860649 486.115997
40 0 1 7.867640 8.120566 486.752991
41 0 1 7.701652 7.317282 487.307007
42 0 1 7.450028 6.685960 487.963013
43 0 1 7.283590 6.255320 488.880005
44 0 1 7.216747 6.074340 489.828979
45 0 1 7.324817 6.496220 490.713989
46 0 1 7.498956 6.779720 491.638000
47 0 1 7.497729 7.068322 492.556000
48 0 1 7.544972 7.370112 493.497009
49 0 1 7.407606 7.642255 494.385010
50 0 1 7.182779 7.963337 495.248993
51 0 1 6.603050 8.353993 495.932007
52 0 1 6.058010 8.422071 496.656006
53 0 1 5.525380 8.273312 497.412994
54 0 1 4.939810 8.295558 498.255005
55 0 1 4.680290 8.372981 499.140991
56 0 1 4.525720 8.369373 500.088989
57 0 1 4.652960 8.652225 501.028992
58 0 1 4.651310 8.706970 501.981018
59 0 1 4.852530 8.737194 502.958984
60 0 1 5.125500 8.939852 503.838013
61 0 1 5.600310 8.725370 504.640015
62 0 1 6.103950 8.318689 505.304016
63 0 1 6.688010 8.143093 506.062988
64 0 1 7.185789 8.084115 506.862000
65 0 1 7.646358 7.931509 507.692017
66 0 1 7.951871 7.858437 508.588989
67 0 1 7.972802 7.874981 509.544006
68 0 1 7.880561 7.850949 510.518005
69 0 1 7.837479 7.681480 511.420990
70 0 1 7.612331 7.315498 512.283020
71 0 1 7.211500 6.965840 513.041992
72 0 1 6.930830 6.663920 513.935974
73 0 1 6.776130 6.328290 514.851013
74 0 1 6.489280 6.383770 515.759033
75 0 1 5.988690 6.063150 516.551025
76 0 1 6.088820 6.200880 517.565979
77 0 1 6.051810 6.296560 518.492981
78 0 1 6.064950 6.435250 519.440979
79 0 1 5.867090 6.444300 520.353027
80 0 1 5.556170 6.671220 521.213989
81 0 1 5.302300 6.813140 522.153015
82 0 1 5.437770 7.110175 523.098999
83 0 1 5.849620 7.385509 523.955017
84 0 1 6.139210 7.596201 524.937988
85 0 1 6.292570 7.766323 525.945007
86 0 1 6.305760 8.037735 526.854980
87 0 1 6.416360 8.342671 527.781006
88 0 1 6.526470 9.023050 528.517700
89 0 1 6.056510 9.679399 529.080078
90 0 1 5.623900 10.428470 529.454468
91 0 1 5.176340 11.222321 529.845215
92 0 1 4.901820 11.951870 530.318970
93 0 1 4.744070 12.520460 531.062805
94 0 1 4.585260 12.884140 531.973999
95 0 1 4.351320 13.073851 532.866394
96 0 1 4.373990 13.203939 533.877991
97 0 1 4.216750 13.183160 534.839722
98 0 1 4.085820 13.068610 535.822632
99 0 1 4.013470 12.761400 536.696899
100 0 1 4.027090 12.241440 537.498474
101 0 1 3.809540 11.538620 538.083130
102 0 1 3.600670 10.722510 538.471802
103 0 1 3.391380 10.077890 539.147095
104 0 1 3.237060 9.373150 539.844788
105 0 1 2.932990 8.683619 540.439331
106 0 1 3.123450 7.957623 541.116821
107 0 1 3.327430 7.380684 541.896790
108 0 1 3.406200 6.786620 542.691589
109 0 1 3.251850 6.077690 543.403687
110 0 1 3.045240 5.713000 544.234619
111 0 1 3.069160 5.356210 545.136902
112 0 1 3.233790 5.324960 546.094727
113 0 1 3.703470 5.323360 547.007996
114 0 1 4.040930 5.566970 547.843872
115 0 1 4.064660 6.034190 548.676819
116 0 1 4.353740 6.555200 549.420288
117 0 1 4.582630 7.130151 550.175415
118 0 1 5.197430 7.402559 550.929688
119 0 1 5.881840 7.535233 551.689087
120 0 1 6.300800 7.747675 552.584229
121 0 1 6.691780 7.806304 553.395020
122 0 1 6.819230 7.840777 554.408569
123 0 1 7.091325 7.782435 555.318726
124 0 1 7.396685 8.091784 556.168091
125 0 1 7.626508 8.285345 557.079407
126 0 1 7.854425 8.173366 557.992004
127 0 1 8.311324 8.246388 558.885498
128 0 1 8.290945 8.408247 559.844482
129 0 1 8.234548 8.735982 560.848877
130 0 1 8.090951 8.881305 561.814819
131 0 1 8.034502 9.212860 562.725098
132 0 1 8.054989 9.188980 563.715698
133 0 1 7.733573 9.555550 564.547729
134 0 1 7.210512 10.052830 565.308899
135 0 1 6.836340 10.463540 566.129395
136 0 1 6.544540 10.865320 566.882812
137 0 1 6.077960 10.868790 567.772888
138 0 1 5.583930 10.720980 568.645996
139 0 1 5.130590 10.796670 569.490723
140 0 1 4.803640 10.735300 570.368408
141 0 1 4.471400 10.434170 571.235718
142 0 1 4.445240 10.491380 572.244324
143 0 1 4.296910 10.329490 573.190796
144 0 1 4.239990 10.400670 574.182007
145 0 1 4.235560 10.563220 575.172424
146 0 1 4.289940 10.417770 576.061707
147 0 1 4.417180 10.039030 576.914612
148 0 1 4.707950 9.538250 577.711792
149 0 1 4.802380 8.829183 578.231201
150 0 1 4.354180 8.303456 578.932800
151 0 1 3.822970 7.876484 579.657471
152 0 1 3.246160 7.696412 580.451904
153 0 1 2.754340 7.426003 581.246704
154 0 1 2.478570 7.035433 582.127991
155 0 1 2.265920 7.090510 583.088806
156 0 1 2.367400 7.522982 583.975586
157 0 1 2.700850 7.882841 584.832703
158 0 1 3.022440 8.182185 585.651123
159 0 1 3.107530 8.614214 586.515686
160 0 1 3.330180 8.973824 587.351318
161 0 1 3.488160 9.344710 588.268127
162 0 1 3.405560 9.495831 589.234192
163 0 1 3.572830 9.439530 590.165405
164 0 1 3.852250 9.043400 591.022095
165 0 1 4.112280 8.928947 591.910828
166 0 1 4.404330 8.885649 592.786194
167 0 1 4.573710 8.685606 593.746094
168 0 1 4.452100 8.628296 594.710571
169 0 1 4.193090 8.535564 595.616516
170 0 1 3.645210 8.538547 596.341003
171 0 1 3.053370 8.316258 597.048218
172 0 1 2.600690 8.268558 597.943726
173 0 1 2.412720 8.106070 598.879883
174 0 1 2.090020 8.058976 599.756775
175 0 1 1.801600 8.250939 600.646606
176 0 1 1.514150 8.478979 601.517883
177 0 1 1.520760 8.280800 602.466187
178 0 1 1.762510 8.349761 603.381714
179 0 1 2.057840 8.314222 604.340027
180 0 1 2.205840 8.018716 605.291382
181 0 1 2.556020 7.692211 606.123596
182 0 1 2.963300 7.304878 606.962891
183 0 1 3.358230 6.805490 607.643982
184 0 1 3.720220 6.305840 608.403015
185 0 1 4.186230 5.779680 609.116516
186 0 1 4.529380 5.357520 609.861816
187 0 1 4.826820 5.334640 610.826111
188 0 1 4.725070 5.646040 611.763123
189 0 1 4.675380 5.847810 612.646606
190 0 1 4.494460 5.973380 613.568970
191 0 1 4.447430 6.112080 614.535400
192 0 1 4.271790 6.462150 615.396118
193 0 1 3.882130 6.988730 616.175171
194 0 1 3.350070 7.605821 616.698120
195 0 1 3.056250 8.364374 617.242004
196 0 1 2.600290 8.834542 617.935120
197 0 1 2.419910 9.293740 618.801270
198 0 1 2.039970 9.843530 619.574158
199 0 1 1.961660 10.337060 620.387268
200 0 1 1.871940 10.925600 621.176270
201 0 1 1.955780 11.223970 622.101440
202 0 1 2.326820 11.517460 622.959778
203 0 1 2.933440 11.958509 623.622131
204 0 1 3.438740 12.358440 624.292236
205 0 1 4.005880 12.549009 624.989014
206 0 1 4.415210 12.964240 625.795837
207 0 1 4.918390 13.285200 626.550171
208 0 1 5.659060 13.574800 627.111511
209 0 1 6.371080 13.680161 627.764099
210 0 1 6.813120 13.467890 628.616211
211 0 1 7.224734 13.702250 629.411987
212 0 1 7.433564 13.721991 630.336914
213 0 1 7.623330 13.912331 631.224976
214 0 1 7.973173 14.037809 632.106689
215 0 1 8.226678 13.919540 633.050232
216 0 1 8.165463 13.938311 633.987793
217 0 1 7.963465 14.007040 634.954773
218 0 1 7.606037 14.170390 635.822205
219 0 1 7.164683 14.356050 636.652466
220 0 1 6.598410 14.453880 637.431763
221 0 1 6.313800 14.609500 638.304932
222 0 1 6.089370 14.508430 639.179382
223 0 1 6.179750 14.330750 640.104126
224 0 1 6.511000 13.813931 640.836792
225 0 1 7.170031 13.314470 641.433777
226 0 1 7.736219 12.846621 642.063782
227 0 1 8.103964 12.352510 642.738220
228 0 1 8.664184 11.750350 643.344116
229 0 1 9.126240 11.068410 643.841614
230 0 1 9.453650 10.405240 644.435486
231 0 1 9.233530 9.662100 644.962524
232 0 1 9.213460 8.811781 645.409912
233 0 1 9.575760 8.161397 646.000488
234 0 1 10.165950 7.676731 646.673889
235 0 1 10.923320 7.409698 647.287231
236 0 1 11.386730 7.262373 648.078674
237 0 1 11.780280 6.931990 648.888123
238 0 1 11.845460 6.459620 649.733887
239 0 1 11.504490 6.091780 650.579407
240 0 1 11.339010 5.642530 651.478027
241 0 1 10.953840 5.345170 652.305298
242 0 1 10.453430 5.358920 653.125671
243 0 1 9.808670 5.402210 653.810425
244 0 1 9.226370 5.574010 654.604919
245 0 1 8.870541 5.803620 655.464172
246 0 1 8.653107 5.922790 656.497925
247 0 1 8.611605 6.017990 657.502380
248 0 1 8.759250 6.125330 658.463623
249 0 1 9.055310 6.154490 659.389099
250 0 1 9.213310 6.116150 660.333130
251 0 1 9.517390 5.997880 661.270386
252 0 1 9.777880 6.205310 662.237976
253 0 1 9.887760 6.518350 663.192078
254 0 1 9.941770 6.633880 664.198975
255 0 1 10.092160 6.779450 665.083374
256 0 1 10.339180 7.169647 665.925903
257 0 1 10.637790 7.316266 666.843689
258 0 1 11.000120 7.421904 667.755493
259 0 1 11.357531 7.411135 668.715027
260 0 1 11.624190 7.269764 669.615784
261 0 1 11.824210 6.964560 670.516602
262 0 1 11.978340 6.541120 671.379517
263 0 1 11.796320 6.005770 672.129395
264 0 1 11.471840 5.521280 672.864868
265 0 1 11.033091 5.484090 673.699829
266 0 1 10.554430 5.109220 674.546631
267 0 1 10.167040 5.303170 675.366028
268 0 1 9.598050 5.426120 676.083496
269 0 1 8.859630 5.321310 676.708496
270 0 1 8.116588 5.255440 677.212524
271 0 1 7.536152 5.443770 677.953613
272 0 1 6.915900 5.466450 678.690125
273 0 1 6.373770 5.110810 679.408569
274 0 1 5.595190 5.020910 679.987122
275 0 1 4.899790 4.546840 680.431702
276 0 1 4.211440 4.316720 681.003906
277 0 1 3.681790 4.497940 681.776428
278 0 1 3.323120 4.863240 682.654175
279 0 1 3.400820 5.312870 683.519409
280 0 1 3.291880 5.606710 684.416016
281 0 1 3.301030 6.030790 685.354980
282 0 1 3.412410 6.410950 686.245422
283 0 1 3.841290 6.852320 686.973389
284 0 1 4.401720 7.280516 687.671082
285 0 1 4.986210 7.697090 688.245972
286 0 1 5.662490 8.224195 688.655396
287 0 1 6.102020 8.856599 689.154175
288 0 1 6.624890 9.478420 689.771179
289 0 1 7.058521 9.957660 690.455505
290 0 1 7.141710 10.308390 691.344421
291 0 1 7.491301 10.184410 692.299072
292 0 1 7.778904 10.052210 693.192078
293 0 1 8.011651 10.060580 694.171204
294 0 1 8.268467 9.867650 695.151611
295 0 1 8.583261 9.851000 696.021179
296 0 1 8.414296 10.157330 696.949890
297 0 1 8.436002 10.329220 697.901733
298 0 1 8.391687 10.151540 698.846191
299 0 1 8.077713 9.935920 699.747620
300 0 1 7.962342 9.543320 700.648499
301 0 1 7.674479 9.243600 701.465393
302 0 1 7.624572 8.875584 702.433716
303 0 1 7.641169 8.541264 703.398682
304 0 1 7.460226 8.133950 704.296509
305 0 1 7.266837 7.674837 705.133179
306 0 1 6.858180 7.447799 706.003418
307 0 1 6.569660 7.145309 706.882874
308 0 1 6.191320 6.912950 707.712769
309 0 1 5.929380 6.816850 708.681519
310 0 1 5.838250 7.015337 709.665222
311 0 1 5.576600 7.186790 710.539978
312 0 1 5.262950 7.506242 711.423889
313 0 1 5.110130 7.545620 712.377380
314 0 1 5.001170 7.679727 713.313477
315 0 1 5.044570 7.951972 714.251709
316 0 1 4.972170 8.030216 715.229919
317 0 1 5.230960 7.931628 716.201782
318 0 1 5.409580 7.997090 717.125305
319 0 1 5.497310 8.052831 718.097168
320 0 1 5.496090 8.037216 719.036316
321 0 1 5.401300 7.912463 720.002686
322 0 1 5.137170 7.406281 720.815918
323 0 1 5.013380 7.159548 721.712402
324 0 1 4.622380 6.928640 722.554688
325 0 1 4.208770 6.797310 723.362000
326 0 1 4.040790 6.701110 724.254272
327 0 1 3.567410 6.740790 725.116089
328 0 1 3.273630 7.080440 725.989075
329 0 1 2.922950 7.342558 726.802795
330 0 1 2.772570 7.596761 727.746826
331 0 1 2.732040 7.802990 728.700012
332 0 1 2.752440 7.863780 729.674011
333 0 1 2.740030 7.841470 730.609009
334 0 1 2.657080 7.980165 731.575012
335 0 1 2.267740 7.774101 732.398987
336 0 1 1.875920 7.589550 733.289001
337 0 1 1.852410 7.644006 734.302002
338 0 1 1.660470 7.626390 735.307983
339 0 1 1.583340 7.639046 736.289978
340 0 1 1.594440 7.276197 737.163025
341 0 1 1.512690 7.221387 738.096008
342 0 1 1.488440 7.181534 739.072021
343 0 1 1.565730 6.897180 740.052979
344 0 1 1.534810 6.687510 740.999023
345 0 1 1.586770 6.810030 741.908997
346 0 1 1.737090 6.728520 742.934998
347 0 1 1.631690 6.659910 743.893005
348 0 1 1.703970 6.667800 744.869019
349 0 1 2.112980 6.645700 745.799988
350 0 1 2.215020 7.024421 746.724976
351 0 1 2.067910 7.231999 747.637024
352 0 1 1.881380 7.056529 748.567017
353 0 1 1.753770 6.961490 749.523010
354 0 1 1.884360 6.969660 750.510010
355 0 1 2.054880 7.026557 751.473999
356 0 1 2.241390 6.993640 752.416016
357 0 1 2.478140 6.939730 753.348022
358 0 1 2.728580 6.782730 754.289978
359 0 1 3.116490 6.560850 755.260986
360 0 1 3.710850 6.644720 756.013977
361 0 1 4.476640 6.444430 756.688965
362 0 1 5.178700 6.257170 757.377014
363 0 1 6.018880 6.288050 757.929993
364 0 1 6.912100 6.358800 758.338989
365 0 1 7.696698 6.612830 758.752014
366 0 1 8.459145 6.750700 759.348022
367 0 1 9.089370 6.809080 760.014038
368 0 1 9.850190 7.091335 760.474976
369 0 1 10.606340 7.063356 761.047974
370 0 1 11.211300 6.977740 761.794006
371 0 1 11.747580 6.822200 762.583008
372 0 1 11.940371 6.795060 763.485962
373 0 1 11.864140 6.844770 764.510986
374 0 1 11.818670 7.014380 765.495972
375 0 1 11.840390 7.279081 766.390991
376 0 1 11.592609 7.588712 767.320007
377 0 1 11.523330 7.684106 768.252991
378 0 1 11.593610 7.632442 769.223022
379 0 1 11.554860 7.939142 770.216003
380 0 1 11.258170 7.985952 771.122986
381 0 1 10.987630 7.782740 772.020020
382 0 1 11.036710 7.581976 772.929993
383 0 1 11.033410 7.242119 773.838989
384 0 1 11.013950 7.354786 774.778015
385 0 1 10.989630 7.420802 775.712036
386 0 1 10.744210 7.435790 776.609985
387 0 1 10.288040 7.200247 777.354004
388 0 1 9.725430 6.745850 777.990967
389 0 1 9.396540 6.089390 778.682007
390 0 1 9.338940 5.702820 779.533020
391 0 1 9.224330 5.659160 780.542969
392 0 1 9.175720 5.729910 781.544006
393 0 1 9.408850 5.872460 782.510986
394 0 1 9.380790 5.749560 783.464966
395 0 1 9.587580 5.660180 784.401001
396 0 1 9.713680 5.618990 785.343994
397 0 1 9.869830 5.363540 786.286011
398 0 1 9.829730 5.266930 787.255005
399 0 1 9.891060 5.648330 788.124023
400 0 1 9.745420 5.897660 789.062012
401 0 1 9.573390 6.030020 789.992981
402 0 1 9.542200 6.141120 790.924988
403 0 1 9.524560 6.200280 791.895996
404 0 1 9.493420 6.093500 792.818970
405 0 1 9.667360 5.853740 793.807983
406 0 1 9.638330 5.857260 794.815979
407 0 1 9.260550 5.829520 795.682983
408 0 1 8.756764 5.889400 796.511963
409 0 1 8.298609 6.277220 797.280029
410 0 1 7.774382 6.612960 798.035034
411 0 1 7.602243 7.029283 798.859985
412 0 1 7.440408 6.933620 799.867981
413 0 1 7.735845 7.140424 800.771973
414 0 1 7.871272 7.201510 801.731018
415 0 1 7.727701 7.144112 802.695984
416 0 1 7.525269 7.077876 803.619019
417 0 1 7.360596 6.675190 804.511963
418 0 1 7.171597 6.483910 805.432007
419 0 1 7.275083 6.379210 806.365967
420 0 1 7.609675 6.222630 807.335999
421 0 1 7.655627 5.837690 808.289001
422 0 1 7.391281 5.490890 809.140015
423 0 1 6.825470 5.335720 809.885986
424 0 1 6.258670 5.435330 810.640015
425 0 1 6.029470 5.374070 811.614990
426 0 1 5.805200 5.514130 812.510010
427 0 1 5.518050 5.952760 813.385010
428 0 1 5.324960 6.571090 814.067993
429 0 1 5.373340 6.987510 814.880981
430 0 1 5.289150 7.732320 815.500977
431 0 1 5.186510 8.357931 816.257996
432 0 1 5.208460 8.849582 817.070007
433 0 1 5.127410 8.834834 818.037964
434 0 1 5.135600 9.091030 818.981018
435 0 1 5.130300 9.234870 819.893005
436 0 1 5.222800 9.753650 820.734009
437 0 1 5.653560 9.850480 821.664978
438 0 1 6.445120 9.927410 822.273010
439 0 1 7.197225 9.858760 822.820984
440 0 1 8.022937 9.664740 823.346985
441 0 1 8.804635 9.400720 823.806030
442 0 1 9.513730 9.300450 824.414001
443 0 1 9.890779 9.282430 825.273010
444 0 1 10.308760 9.444220 826.151978
445 0 1 10.307310 9.800630 827.007996
446 0 1 10.164740 10.266310 827.924988
447 0 1 9.983210 10.585100 828.828979
448 0 1 9.746490 10.860780 829.778015
449 0 1 9.359210 11.246940 830.636963
450 0 1 9.223040 11.729200 831.466003
451 0 1 9.131710 12.158400 832.351990
452 0 1 8.884046 12.792419 832.971008
453 0 1 8.350163 13.412090 833.547974
454 0 1 8.290324 14.194560 834.106018
455 0 1 8.368268 14.626450 834.908997
456 0 1 8.957914 14.648490 835.739014
457 0 1 9.540930 14.593990 836.513000
458 0 1 10.204950 14.378000 837.187988
459 0 1 10.684140 13.674789 837.671997
460 0 1 11.232070 12.927830 837.924011
461 0 1 11.492870 12.008780 837.846008
462 0 1 11.806040 11.226860 837.453003
463 0 1 12.046680 10.504080 836.833008
464 0 1 12.345340 9.825000 836.235962
465 0 1 12.335520 9.043270 835.625977
466 0 1 12.352850 8.433839 834.872009
467 0 1 12.479500 7.718314 834.174011
468 0 1 12.699120 7.160626 833.434998
469 0 1 12.781219 6.800950 832.542969
470 0 1 12.818200 6.322640 831.764038
471 0 1 12.824340 5.801970 830.968994
472 0 1 12.565580 5.476020 830.061035
473 0 1 12.200050 5.398210 829.177002
474 0 1 11.878790 4.804300 828.455994
475 0 1 11.653640 4.172570 827.813965
476 0 1 11.566710 3.730670 826.968994
477 0 1 11.722790 3.626820 826.009033
478 0 1 11.874880 3.819890 825.068970
479 0 1 11.839951 4.039230 824.155029
480 0 1 11.832990 4.484100 823.338013
481 0 1 11.469190 5.057430 822.687012
482 0 1 11.230260 5.545870 821.833008
483 0 1 10.917700 5.751560 820.947021
484 0 1 10.440150 5.838220 820.136963
485 0 1 10.294930 6.045100 819.223022
486 0 1 10.270130 6.208720 818.231995
487 0 1 10.181490 6.337360 817.265991
488 0 1 10.137790 6.471140 816.283020
489 0 1 10.063730 6.584620 815.318970
490 0 1 9.895410 6.820590 814.432983
491 0 1 9.675020 6.923360 813.513000
492 0 1 9.335410 7.055618 812.640991
493 0 1 8.918614 7.193616 811.768982
494 0 1 8.820437 7.618447 810.903992
495 0 1 8.591828 8.004716 810.117004
496 0 1 8.536216 8.340735 809.234985
497 0 1 8.887068 8.750961 808.416016
498 0 1 9.196210 8.993105 807.490967
499 0 1 9.457380 9.312370 806.604980
500 0 1 9.925230 9.379050 805.818970
501 0 1 10.119810 9.394920 804.896973
502 0 1 10.050100 9.350270 803.936035
503 0 1 9.997260 9.262740 802.947021
504 0 1 10.021770 9.306310 802.014038
505 0 1 9.983920 9.081079 801.062988
506 0 1 9.718260 8.944765 800.203979
507 0 1 9.436410 8.710507 799.281006
508 0 1 9.376680 8.448741 798.358032
509 0 1 9.208179 8.072193 797.485962
510 0 1 9.005520 7.973993 796.593994
511 0 1 8.960236 7.641745 795.692993
512 0 1 9.096840 7.232468 794.835999
513 0 1 8.895060 7.235697 793.895020
514 0 1 8.753042 7.282159 792.937012
515 0 1 8.917793 7.375735 792.023987
516 0 1 9.282300 7.493787 791.112000
517 0 1 9.339990 7.696983 790.188965
518 0 1 9.157170 7.940984 789.210022
519 0 1 9.103210 8.142545 788.226990
520 0 1 9.187870 8.405924 787.265991
521 0 1 9.413970 8.632442 786.349976
522 0 1 9.793970 9.003730 785.500977
523 0 1 9.982100 9.543120 784.755981
524 0 1 9.848030 10.414130 784.341003
525 0 1 9.462950 10.978010 783.692017
526 0 1 8.969540 11.576430 783.139038
527 0 1 8.523377 12.178490 782.513000
528 0 1 7.994377 12.404881 781.744019
529 0 1 7.672099 12.716850 780.947021
530 0 1 7.657937 13.319490 780.190979
531 0 1 7.912433 13.622450 779.268005
532 0 1 7.988799 13.638920 778.335022
533 0 1 8.231960 13.846730 777.507019
534 0 1 8.347154 14.077630 776.570007
535 0 1 8.553600 14.280500 775.664001
536 0 1 8.638932 14.333950 774.705017
537 0 1 9.062210 14.092370 773.872009
538 0 1 9.377200 13.680670 773.089966
539 0 1 9.703220 13.348230 772.244995
540 0 1 9.552080 13.210520 771.285034
541 0 1 9.624200 13.008890 770.278992
542 0 1 9.742350 13.127240 769.346985
543 0 1 9.977120 13.234739 768.411011
544 0 1 10.298170 13.349140 767.497009
545 0 1 10.372740 13.512500 766.537964
546 0 1 10.371240 13.599530 765.575989
547 0 1 9.983130 13.542580 764.713013
548 0 1 9.444570 13.450319 763.922974
549 0 1 8.938179 13.542561 763.106995
550 0 1 8.442263 13.414660 762.249023
551 0 1 7.815585 13.311689 761.520996
552 0 1 7.498748 13.058820 760.656006
553 0 1 7.332519 12.415770 760.039001
554 0 1 7.532388 11.848380 759.239990
555 0 1 7.554005 11.152679 758.476990
556 0 1 7.373222 10.621880 757.664978
557 0 1 7.093506 10.135890 756.910034
558 0 1 7.083517 9.537280 756.263000
559 0 1 7.068880 8.933842 755.481018
560 0 1 7.053771 8.485995 754.588989
561 0 1 6.844310 8.157508 753.685974
562 0 1 6.622640 8.012341 752.643005
563 0 1 6.321170 7.664051 751.809021
564 0 1 6.046320 7.390298 750.903992
565 0 1 5.825200 7.178559 749.973999
566 0 1 5.564540 7.163365 749.010986
567 0 1 5.298290 7.052317 748.044983
568 0 1 5.062290 7.071366 747.093994
569 0 1 4.994550 7.093324 746.153992
570 0 1 4.884090 7.034759 745.208008
571 0 1 4.757370 6.767180 744.262024
572 0 1 4.849660 6.512770 743.343994
573 0 1 4.856070 6.405070 742.346985
574 0 1 4.940090 6.519800 741.377014
575 0 1 5.031650 6.279700 740.442017
576 0 1 5.138760 6.142590 739.442993
577 0 1 5.252690 5.726590 738.559021
578 0 1 5.457030 5.380210 737.634033
579 0 1 5.771270 4.985120 736.815979
580 0 1 6.220500 4.661220 736.059998
581 0 1 6.677850 4.315500 735.260986
582 0 1 7.029446 4.080060 734.393005
583 0 1 7.123501 4.091370 733.377014
584 0 1 6.852990 4.081070 732.379028
585 0 1 6.532800 4.152570 731.479004
586 0 1 6.266720 4.274380 730.549011
587 0 1 5.821740 4.434910 729.721985
588 0 1 5.532060 4.697630 728.843994
589 0 1 5.029400 4.677220 727.913574
590 0 1 4.441010 4.827630 727.161682
591 0 1 3.815480 5.145930 726.464111
592 0 1 3.286880 5.466910 725.632874
593 0 1 3.006050 5.727650 724.705688
594 0 1 3.041040 5.765360 723.757385
595 0 1 3.281150 5.806760 722.845825
596 0 1 3.763170 5.948000 722.062500
597 0 1 4.187270 6.064500 721.228088
598 0 1 4.564530 6.354020 720.409180
599 0 1 5.231170 6.604620 719.798523
600 0 1 5.639870 6.950830 718.968079
601 0 1 6.120210 7.146585 718.139526
602 0 1 6.784740 7.573242 717.562195
603 0 1 7.470119 7.781186 716.821777
604 0 1 8.166887 8.190227 716.172607
605 0 1 8.533229 8.822262 715.582092
606 0 1 8.651517 9.532110 715.023804
607 0 1 8.861067 10.351220 714.634094
608 0 1 9.286710 11.077280 714.090576
609 0 1 9.406580 11.866460 713.579590
610 0 1 9.569780 12.546450 712.809326
611 0 1 9.565001 13.109230 712.023804
612 0 1 9.773830 13.728109 711.263916
613 0 1 9.900790 13.822701 710.364380
614 0 1 9.906290 14.015580 709.393188
615 0 1 9.690570 14.061460 708.464478
616 0 1 9.740470 13.826389 707.506470
617 0 1 9.956130 13.397320 706.732117
618 0 1 9.889980 13.236250 705.721924
619 0 1 9.895240 12.959180 704.740784
620 0 1 9.931580 12.903740 703.802185
621 0 1 9.979020 12.721740 702.781128
622 0 1 9.975440 12.425950 701.859619
623 0 1 9.877490 11.660100 701.177612
624 0 1 9.690630 11.043050 700.550781
625 0 1 9.609010 10.227660 699.931702
626 0 1 9.379520 9.526490 699.406921
627 0 1 9.270830 8.781726 698.826111
628 0 1 9.162170 7.919754 698.414978
629 0 1 9.432510 7.182774 697.745483
630 0 1 9.352260 6.394210 697.120178
631 0 1 9.413010 5.744390 696.370911
632 0 1 9.350220 5.371280 695.460571
633 0 1 9.397210 4.695440 694.739014
634 0 1 9.699620 4.085550 694.052185
635 0 1 10.184660 3.671000 693.411194
636 0 1 10.491540 3.557690 692.494080
637 0 1 10.789320 3.627400 691.513123
638 0 1 10.808460 3.703220 690.576416
639 0 1 10.915091 3.437720 689.663208
640 0 1 11.139720 3.032460 688.802673
641 0 1 11.382960 2.670110 687.885498
642 0 1 11.350230 2.695200 686.885193
643 0 1 11.103430 3.030440 686.013184
644 0 1 10.564830 3.392160 685.294189
645 0 1 10.097190 3.568460 684.461609
646 0 1 9.689460 3.526920 683.530396
647 0 1 9.545860 3.310940 682.622986
648 0 1 9.262900 2.877610 681.758118
649 0 1 8.890749 2.470350 680.920898
650 0 1 8.650757 2.249310 680.060608
651 0 1 8.767265 2.119890 679.129578
652 0 1 8.230363 2.224890 678.366211
653 0 1 7.675803 2.497330 677.661316
654 0 1 7.176503 2.770040 676.856323
655 0 1 6.747950 2.801930 675.997498
656 0 1 6.435260 2.935020 675.148499
657 0 1 6.099020 2.911650 674.263306
658 0 1 5.816410 2.760270 673.370300
659 0 1 5.254630 2.655900 672.588318
660 0 1 4.998750 3.018950 671.708801
661 0 1 4.863820 3.207200 670.832825
662 0 1 4.725080 3.089980 669.922913
663 0 1 4.767130 2.819850 669.033386
664 0 1 4.609650 2.712530 668.091980
665 0 1 4.400690 2.635980 667.129883
666 0 1 4.358700 2.477560 666.174927
667 0 1 4.530780 2.315540 665.231018
668 0 1 4.500010 2.257320 664.298279
669 0 1 4.246790 2.394720 663.409790
670 0 1 4.212730 2.542000 662.495300
671 0 1 4.149970 2.792270 661.608704
672 0 1 4.093610 2.741780 660.683899
673 0 1 4.127310 2.554330 659.733826
674 0 1 4.243500 2.609040 658.747375
675 0 1 4.514020 2.623750 657.799377
676 0 1 4.713520 2.564600 656.886719
677 0 1 4.775410 2.865330 656.047180
678 0 1 4.976990 3.263330 655.219727
679 0 1 5.298450 3.675930 654.427612
680 0 1 5.764120 4.254200 653.896912
681 0 1 5.762820 4.689000 652.996277
682 0 1 5.665760 5.101220 652.113708
683 0 1 5.492820 5.594400 651.359497
684 0 1 5.163410 6.269870 650.613403
685 0 1 4.608810 6.710990 649.935974
686 0 1 4.180090 7.274712 649.206299
687 0 1 3.776050 7.652681 648.408508
688 0 1 3.670160 7.885041 647.429016
689 0 1 3.755390 7.940184 646.485107
690 0 1 3.688530 7.723417 645.480286
691 0 1 3.605240 7.834373 644.480530
692 0 1 3.556230 7.695493 643.464600
693 0 1 3.617410 7.429056 642.511230
694 0 1 3.652430 7.161564 641.522888
695 0 1 3.932770 6.985110 640.570312
696 0 1 4.397960 6.816680 639.736816
697 0 1 4.847690 6.925020 638.873291
698 0 1 5.280460 7.055644 637.990967
699 0 1 5.508430 7.308223 637.106262
700 0 1 5.877250 7.587761 636.223694
701 0 1 6.192490 7.636527 635.363159
702 0 1 6.614780 7.809735 634.349182
703 0 1 6.642710 8.010510 633.425964
704 0 1 6.884520 7.860224 632.522766
705 0 1 6.763220 7.501127 631.676270
706 0 1 6.637040 7.255088 630.742737
707 0 1 6.691590 7.236828 629.715332
708 0 1 6.832990 7.388308 628.798889
709 0 1 6.767880 7.249820 627.859985
710 0 1 6.816290 7.346917 626.901062
711 0 1 6.536850 7.552924 626.006714
712 0 1 6.084300 7.840446 625.151245
713 0 1 6.119660 8.165154 624.228638
714 0 1 6.608450 8.209274 623.372681
715 0 1 7.015041 8.005970 622.508362
716 0 1 7.427289 7.821484 621.670532
717 0 1 8.023809 7.380759 621.012329
718 0 1 8.524183 6.873880 620.291260
719 0 1 8.797090 6.671970 619.442383
720 0 1 9.129190 6.587470 618.505371
721 0 1 9.331290 6.304660 617.554016
722 0 1 9.437660 6.096490 616.624817
723 0 1 9.409270 5.924210 615.672180
724 0 1 9.350110 5.494120 614.694397
725 0 1 9.294170 4.966180 613.860596
726 0 1 9.092650 4.655710 612.929993
727 0 1 8.557965 4.410130 612.207886
728 0 1 7.975991 4.323980 611.467407
729 0 1 7.305678 4.461000 610.849609
730 0 1 6.557530 4.361740 610.293396
731 0 1 6.007660 4.466560 609.539795
732 0 1 5.800310 4.341700 608.616089
733 0 1 5.503500 4.217690 607.697815
734 0 1 5.488190 4.091000 606.647400
735 0 1 5.599860 3.821880 605.678894
736 0 1 5.545100 3.919720 604.738098
737 0 1 5.782050 4.290400 603.860596
738 0 1 6.283440 4.285240 602.963928
739 0 1 6.754690 4.413910 602.085022
740 0 1 7.123272 4.475270 601.244202
741 0 1 7.466192 4.830670 600.433472
742 0 1 7.687465 5.189310 599.609009
743 0 1 8.061801 5.288230 598.723572
744 0 1 8.506408 5.417820 597.806824
745 0 1 8.930623 5.861630 596.998291
746 0 1 9.398700 6.279430 596.286377
747 0 1 9.485120 6.722390 595.446106
748 0 1 9.423110 7.195875 594.608521
749 0 1 9.390730 7.874471 593.950195
750 0 1 9.153570 8.551276 593.325073
751 0 1 9.008280 9.274350 592.767822
752 0 1 8.772544 9.834720 592.013611
753 0 1 8.483252 10.527121 591.415527
754 0 1 7.931989 10.977760 590.764893
755 0 1 7.600219 11.474080 590.036621
756 0 1 7.213652 12.089809 589.428894
757 0 1 6.974420 12.761089 588.802917
758 0 1 6.509000 13.370080 588.232910
759 0 1 6.392690 14.047920 587.573975
760 0 1 6.489430 14.481120 586.714600
761 0 1 6.795110 14.406691 585.744629
762 0 1 7.687381 14.241210 585.281128
763 0 1 8.474093 13.985870 584.812622
764 0 1 9.206240 13.615360 584.297119
765 0 1 9.440410 13.168560 583.455505
766 0 1 9.753110 12.580379 582.771179
767 0 1 9.986660 11.940830 582.057983
768 0 1 9.918340 11.354800 581.291016
769 0 1 9.819450 10.917810 580.452209
770 0 1 9.644820 10.456580 579.567383
771 0 1 9.349800 9.915740 578.865784
772 0 1 9.132780 9.220200 578.221008
773 0 1 8.865398 8.648101 577.450500
774 0 1 8.987107 8.072407 576.719299
775 0 1 9.070800 7.578595 575.766174
776 0 1 9.321870 7.224968 574.912292
777 0 1 9.981180 6.898540 574.191223
778 0 1 10.211700 6.665620 573.245178
779 0 1 10.326910 6.339210 572.350220
780 0 1 10.342140 6.076850 571.432800
781 0 1 10.252940 5.766040 570.573608
782 0 1 10.319630 5.653750 569.649719
783 0 1 10.307859 5.470310 568.681580
784 0 1 10.315440 5.354880 567.685425
785 0 1 10.598550 5.139800 566.765808
786 0 1 11.155770 4.962750 565.917725
787 0 1 11.487680 5.231130 565.078003
788 0 1 11.900110 5.439960 564.277283
789 0 1 12.002370 5.672610 563.347290
790 0 1 12.148270 5.861610 562.424011
791 0 1 12.318850 6.264750 561.529907
792 0 1 12.775240 6.439630 560.695801
793 0 1 13.065810 6.618590 559.731934
794 0 1 13.212540 6.993080 558.830994