LAMMPS data file via MDAnalysis

        1000  atoms
        1000  bonds
        1000  angles
           0  dihedrals
           0  impropers

           1  atom types
           1  bond types
           1  angle types
           0  dihedral types
           0  improper types

0.000000 16.000000 xlo xhi
0.000000 16.000000 ylo yhi
0.000000 1257.000000 zlo zhi


Masses

1 1.000000

Atoms

1 0 1 8.146164 8.583026 445.325989
2 0 1 8.383033 8.146073 446.135010
3 0 1 8.823309 7.748809 446.859009
4 0 1 9.371880 7.640447 447.619019
5 0 1 10.014441 7.452875 448.343994
6 0 1 10.417900 6.998650 449.076996
7 0 1 10.539340 6.475780 449.912994
8 0 1 10.475310 6.128260 450.778015
9 0 1 10.410730 5.669250 451.622986
10 0 1 10.336770 5.242140 452.518982
11 0 1 9.833950 4.730940 453.203003
12 0 1 9.615820 4.351140 454.063995
13 0 1 9.333200 4.384700 454.966980
14 0 1 9.157960 4.115590 455.927979
15 0 1 9.078880 3.919420 456.889008
16 0 1 8.849546 3.586360 457.839996
17 0 1 8.829580 3.457830 458.783020
18 0 1 8.842210 3.187020 459.731995
19 0 1 8.933569 3.014120 460.617004
20 0 1 9.003550 2.972550 461.562988
21 0 1 8.895750 2.811530 462.565979
22 0 1 8.731193 2.975060 463.502991
23 0 1 8.508170 3.219390 464.403992
24 0 1 8.493973 3.398500 465.320007
25 0 1 8.218160 3.532340 466.226990
26 0 1 8.259755 3.490420 467.203003
27 0 1 8.435295 3.628760 468.179016
28 0 1 8.515378 3.471050 469.127014
29 0 1 8.493072 3.334320 470.093018
30 0 1 8.561685 3.324510 471.023987
31 0 1 8.613970 3.514020 471.984009
32 0 1 8.456110 3.691170 472.880981
33 0 1 8.361802 4.094130 473.734009
34 0 1 8.114951 4.546150 474.535004
35 0 1 7.785162 5.041480 475.300995
36 0 1 7.276368 5.593730 475.826996
37 0 1 7.020633 6.438150 476.332001
38 0 1 6.740160 7.250956 476.799988
39 0 1 6.657070 7.767622 477.602997
40 0 1 6.817270 8.167674 478.473022
41 0 1 6.562160 8.891024 479.049011
42 0 1 6.236140 9.562050 479.726013
43 0 1 6.036440 10.189080 480.479980
44 0 1 5.977680 10.966090 481.035004
45 0 1 5.828370 11.585470 481.734985
46 0 1 5.773290 11.826241 482.653015
47 0 1 5.360410 12.133181 483.481018
48 0 1 5.233380 12.456200 484.497986
49 0 1 5.067630 12.730360 485.408997
50 0 1 4.894990 12.769600 486.309998
51 0 1 4.714910 12.551430 487.273987
52 0 1 4.776570 12.335040 488.283997
53 0 1 5.007460 12.401870 489.212006
54 0 1 5.285180 12.564290 490.089996
55 0 1 5.678460 12.595680 491.049988
56 0 1 5.927910 12.539949 491.994995
57 0 1 5.983160 12.391190 493.010986
58 0 1 5.943110 12.171440 493.973999
59 0 1 5.705410 12.134510 494.876007
60 0 1 5.362220 11.878170 495.723999
61 0 1 4.885530 11.539100 496.523987
62 0 1 4.581110 10.955720 497.333008
63 0 1 4.329990 10.215900 497.903015
64 0 1 4.661690 9.589180 498.556000
65 0 1 4.874890 8.784986 499.126007
66 0 1 4.878900 7.937238 499.677002
67 0 1 4.840580 7.177014 500.333008
68 0 1 5.005720 6.457120 500.932983
69 0 1 4.995250 5.732320 501.544006
70 0 1 5.071510 5.205190 502.406982
71 0 1 5.039210 4.758260 503.278015
72 0 1 5.068430 4.437280 504.179993
73 0 1 4.954390 4.057050 505.084991
74 0 1 4.524040 3.884030 505.966003
75 0 1 4.262460 3.639810 506.863007
76 0 1 3.944840 3.349920 507.734985
77 0 1 3.748530 3.382340 508.653992
78 0 1 3.414840 3.539120 509.526001
79 0 1 3.263390 3.760660 510.485992
80 0 1 3.417100 4.109460 511.407990
81 0 1 3.625580 4.411930 512.348999
82 0 1 3.959480 4.847150 513.093994
83 0 1 4.318950 5.259750 513.903015
84 0 1 4.280560 5.705810 514.791992
85 0 1 3.972190 5.721610 515.721008
86 0 1 3.713850 5.471070 516.564026
87 0 1 3.186510 5.537140 517.314026
88 0 1 2.763220 5.561670 518.216980
89 0 1 2.557950 5.694430 519.195007
90 0 1 2.355810 5.689120 520.179016
91 0 1 2.276690 5.591710 521.117981
92 0 1 2.166400 5.714990 522.062012
93 0 1 2.156950 5.662950 523.046997
94 0 1 2.510080 5.545090 524.007019
95 0 1 2.571010 5.648470 524.990967
96 0 1 2.754790 5.529750 525.958008
97 0 1 3.072120 5.430540 526.797974
98 0 1 3.392880 5.386950 527.742981
99 0 1 3.706140 5.461120 528.618408
100 0 1 3.978610 5.564770 529.523682
101 0 1 4.171030 5.541080 530.518433
102 0 1 4.477520 5.240220 531.358887
103 0 1 4.837910 4.781260 532.045410
104 0 1 5.149590 4.683550 532.989197
105 0 1 5.422030 4.408950 533.826477
106 0 1 5.573360 4.319320 534.791687
107 0 1 5.481470 4.343400 535.832214
108 0 1 5.502710 4.406750 536.820190
109 0 1 5.418780 4.663120 537.750183
110 0 1 5.510450 4.671680 538.701111
111 0 1 5.833260 4.675490 539.598999
112 0 1 5.864130 4.927540 540.585876
113 0 1 6.145420 4.953000 541.495972
114 0 1 6.298690 5.098410 542.502808
115 0 1 6.722580 4.927370 543.285522
116 0 1 6.874270 4.888430 544.382202
117 0 1 7.019948 4.898820 545.343079
118 0 1 7.220642 4.949980 546.289673
119 0 1 7.343942 4.961070 547.250183
120 0 1 7.372884 5.109240 548.207825
121 0 1 7.319363 5.219830 549.166016
122 0 1 7.411305 4.997790 550.060120
123 0 1 7.702992 4.846040 550.944397
124 0 1 7.763670 4.725690 551.959412
125 0 1 7.491598 4.616240 552.838379
126 0 1 7.463220 4.436800 553.807007
127 0 1 7.433752 4.444270 554.769531
128 0 1 7.334290 4.205470 555.732117
129 0 1 7.347199 4.336020 556.665710
130 0 1 7.490655 4.341580 557.643982
131 0 1 7.488753 4.340030 558.601990
132 0 1 7.471772 4.181800 559.529907
133 0 1 7.663600 3.863090 560.403015
134 0 1 7.624051 3.890710 561.346619
135 0 1 7.544162 3.860160 562.352905
136 0 1 7.331254 3.832310 563.309570
137 0 1 7.193573 4.266740 564.195618
138 0 1 7.046239 4.601210 565.123474
139 0 1 6.910310 4.806480 566.077393
140 0 1 6.901410 4.801710 567.032288
141 0 1 6.835450 4.838230 568.018188
142 0 1 6.780450 5.054240 568.962097
143 0 1 6.717640 4.983220 569.923218
144 0 1 6.756540 5.265710 570.824585
145 0 1 6.940050 5.511060 571.776672
146 0 1 7.115514 5.664760 572.694519
147 0 1 6.850780 5.736690 573.609314
148 0 1 6.510130 5.815890 574.522278
149 0 1 6.394320 5.827900 575.477173
150 0 1 6.338630 5.815650 576.491882
151 0 1 6.558660 5.654830 577.453491
152 0 1 6.766250 5.441240 578.362915
153 0 1 6.835100 5.231730 579.282898
154 0 1 6.773510 5.317770 580.221802
155 0 1 7.065337 5.549230 581.160400
156 0 1 7.144631 5.767660 582.139709
157 0 1 6.987960 6.205990 583.062622
158 0 1 7.064038 6.503890 583.952515
159 0 1 7.312032 6.653770 584.937073
160 0 1 7.433069 7.001949 585.931091
161 0 1 7.653126 7.257505 586.881714
162 0 1 7.870382 7.432380 587.817505
163 0 1 7.856683 7.650805 588.748596
164 0 1 7.807374 7.565719 589.684204
165 0 1 7.887761 7.739073 590.637390
166 0 1 7.984603 7.968300 591.532288
167 0 1 7.812862 8.051814 592.497070
168 0 1 7.695201 8.005177 593.552307
169 0 1 7.627370 7.870775 594.577881
170 0 1 7.862198 7.434327 595.387817
171 0 1 8.201814 7.065573 596.315002
172 0 1 8.032372 6.823160 597.239624
173 0 1 7.649927 6.644050 598.116028
174 0 1 7.541174 6.171630 598.986389
175 0 1 7.295618 5.909240 599.859314
176 0 1 6.931480 5.835420 600.742676
177 0 1 6.578630 5.691910 601.620728
178 0 1 6.734540 5.460140 602.654480
179 0 1 6.835540 5.301490 603.587585
180 0 1 6.632660 5.121690 604.536316
181 0 1 6.336670 4.826090 605.412598
182 0 1 6.089100 4.868810 606.333130
183 0 1 5.560990 5.077680 607.039185
184 0 1 5.225430 5.525500 607.808899
185 0 1 5.126250 6.107450 608.601685
186 0 1 5.066020 6.771770 609.268188
187 0 1 4.908900 7.568668 609.877930
188 0 1 4.798670 8.058920 610.680298
189 0 1 4.795520 8.610581 611.484985
190 0 1 4.792380 9.194010 612.263916
191 0 1 4.878260 9.834290 612.932800
192 0 1 4.733550 10.086510 613.796997
193 0 1 4.653050 10.321770 614.779480
194 0 1 4.662830 10.690041 615.625488
195 0 1 4.318520 10.825871 616.542480
196 0 1 3.975010 10.831330 617.489197
197 0 1 3.842670 10.671860 618.439514
198 0 1 3.870650 10.497780 619.410706
199 0 1 3.907230 10.433380 620.371582
200 0 1 3.879220 10.315770 621.329407
201 0 1 3.879800 10.180600 622.270264
202 0 1 3.909150 10.417920 623.211670
203 0 1 3.770830 10.473560 624.181274
204 0 1 3.679170 10.412710 625.152344
205 0 1 3.561110 10.579530 626.135437
206 0 1 3.508640 11.063510 626.980286
207 0 1 3.481920 11.538760 627.813049
208 0 1 3.633470 11.842960 628.748413
209 0 1 3.850050 12.227020 629.604675
210 0 1 4.032590 12.573580 630.461548
211 0 1 4.204160 12.774090 631.381042
212 0 1 4.368660 12.672010 632.328308
213 0 1 4.162740 12.496220 633.236816
214 0 1 3.864100 12.386160 634.178101
215 0 1 3.583540 12.448580 635.112061
216 0 1 3.585070 12.052380 635.996704
217 0 1 3.814900 11.609650 636.934448
218 0 1 3.916690 11.284620 637.895813
219 0 1 4.327970 10.846550 638.610107
220 0 1 4.504680 10.543890 639.541382
221 0 1 4.747890 10.245430 640.445374
222 0 1 5.331250 9.942820 641.111694
223 0 1 5.690690 9.629280 641.967896
224 0 1 5.966830 9.119061 642.717773
225 0 1 6.353200 8.565732 643.425476
226 0 1 6.755690 8.155497 644.253479
227 0 1 6.876000 7.933356 645.195312
228 0 1 7.073238 7.675585 646.137878
229 0 1 7.314233 7.703099 647.045227
230 0 1 7.735725 7.693749 647.918091
231 0 1 8.156016 7.725589 648.871521
232 0 1 8.481876 7.820423 649.735291
233 0 1 8.587664 8.060529 650.598694
234 0 1 8.838774 8.498037 651.427979
235 0 1 8.919985 8.910069 652.273499
236 0 1 9.126820 9.154230 653.181885
237 0 1 9.444370 9.387030 654.046692
238 0 1 9.830240 9.939240 654.774170
239 0 1 9.934530 10.452750 655.553711
240 0 1 9.714870 10.540100 656.502502
241 0 1 9.348260 10.445850 657.430176
242 0 1 9.187531 10.449530 658.432617
243 0 1 8.986549 10.492580 659.389587
244 0 1 8.747739 10.487200 660.307800
245 0 1 8.846689 10.775470 661.203369
246 0 1 9.048630 11.098470 662.151306
247 0 1 9.294230 11.175140 663.061401
248 0 1 9.787750 11.236040 663.887329
249 0 1 10.141750 11.053600 664.778198
250 0 1 10.504920 10.795450 665.630798
251 0 1 10.771670 10.405840 666.504578
252 0 1 11.143870 9.885700 667.351074
253 0 1 11.508841 9.293500 668.011902
254 0 1 12.051741 9.080920 668.790588
255 0 1 12.507111 8.749832 669.644409
256 0 1 13.065081 8.570342 670.387573
257 0 1 13.243520 8.284470 671.373596
258 0 1 13.421530 8.073058 672.308777
259 0 1 13.050940 7.939281 673.180908
260 0 1 12.575470 7.763103 674.036804
261 0 1 12.081810 7.752885 674.838928
262 0 1 11.493560 7.957197 675.682922
263 0 1 10.959180 8.162118 676.518921
264 0 1 10.551460 8.167822 677.391296
265 0 1 10.156970 7.945707 678.273010
266 0 1 9.825530 7.779467 679.235107
267 0 1 9.440331 7.881774 680.133789
268 0 1 9.558690 7.841477 681.113708
269 0 1 9.488180 7.573414 681.988892
270 0 1 9.440140 7.566387 682.975586
271 0 1 9.687250 7.721798 683.885620
272 0 1 9.823320 7.856722 684.863281
273 0 1 9.815760 8.353250 685.707520
274 0 1 9.498840 8.621006 686.571472
275 0 1 9.314490 8.813030 687.528198
276 0 1 9.349260 9.121450 688.485229
277 0 1 9.674250 9.323700 689.335693
278 0 1 10.065440 9.684120 690.128479
279 0 1 10.602180 9.811150 690.973816
280 0 1 10.905220 10.172980 691.803101
281 0 1 11.231600 10.513269 692.576294
282 0 1 11.518120 10.873230 693.432312
283 0 1 11.467660 11.214970 694.301880
284 0 1 11.749750 11.447380 695.259583
285 0 1 12.048620 11.675970 696.127380
286 0 1 12.148069 12.060471 697.037903
287 0 1 12.105940 12.515830 697.909912
288 0 1 11.715450 12.955140 698.747681
289 0 1 11.410770 13.345840 699.620911
290 0 1 11.295500 13.323481 700.565125
291 0 1 11.251120 13.294630 701.564331
292 0 1 11.368420 12.760941 702.299072
293 0 1 11.131070 12.181480 703.104614
294 0 1 11.399611 11.753630 703.845825
295 0 1 11.498950 11.351430 704.702026
296 0 1 11.841120 10.810850 705.523682
297 0 1 12.346479 10.411250 706.167908
298 0 1 12.764891 9.919370 706.869202
299 0 1 12.998640 9.557630 707.710022
300 0 1 13.234921 9.217540 708.612183
301 0 1 13.323250 8.634201 709.410889
302 0 1 13.440550 7.859508 709.989624
303 0 1 13.671850 7.001843 710.578796
304 0 1 13.802230 6.225580 711.244507
305 0 1 13.889580 5.644840 712.014587
306 0 1 14.190470 5.249220 712.853821
307 0 1 14.099760 4.979080 713.748169
308 0 1 13.891640 4.903580 714.678711
309 0 1 13.320789 4.819800 715.438110
310 0 1 12.861970 4.630770 716.219299
311 0 1 12.335330 4.670550 717.028809
312 0 1 12.079990 4.767890 717.980713
313 0 1 11.943820 4.640340 718.911499
314 0 1 11.872780 4.458530 719.897522
315 0 1 12.030291 4.581770 720.814819
316 0 1 12.253590 4.861720 721.666016
317 0 1 12.433870 5.362810 722.485291
318 0 1 12.719070 5.818920 723.229675
319 0 1 12.804660 6.133500 724.170898
320 0 1 12.671450 6.655530 724.997375
321 0 1 12.309940 7.133998 725.720398
322 0 1 12.075160 7.524415 726.549500
323 0 1 11.665350 7.979069 727.369202
324 0 1 11.434950 8.180912 728.266785
325 0 1 11.397010 8.440418 729.197998
326 0 1 11.380350 8.632219 730.167969
327 0 1 11.771260 9.046890 730.919006
328 0 1 12.054480 9.684299 731.559998
329 0 1 12.163640 10.352890 732.265015
330 0 1 12.411290 10.721600 733.119019
331 0 1 12.255040 11.044790 734.077026
332 0 1 12.132730 11.268770 735.016968
333 0 1 11.944780 11.383930 735.976990
334 0 1 11.885270 11.329350 736.945984
335 0 1 11.820490 11.296790 737.942993
336 0 1 11.473110 11.279890 738.869019
337 0 1 11.504520 11.471650 739.792969
338 0 1 11.486940 11.723140 740.716003
339 0 1 11.559590 11.504290 741.646973
340 0 1 11.339960 11.539030 742.703003
341 0 1 11.154310 11.239030 743.619019
342 0 1 11.080680 11.181110 744.586975
343 0 1 11.066299 11.016700 745.544006
344 0 1 11.712310 10.808800 746.231995
345 0 1 12.229170 10.972530 746.971008
346 0 1 12.578260 11.131480 747.929993
347 0 1 12.903561 11.018030 748.846008
348 0 1 13.357161 10.690410 749.619995
349 0 1 13.619420 10.206360 750.364014
350 0 1 13.726030 9.684510 751.127991
351 0 1 14.002069 9.130990 751.927002
352 0 1 14.041290 9.030060 752.940979
353 0 1 13.966660 8.807592 753.833984
354 0 1 13.797239 8.952898 754.781006
355 0 1 13.811080 9.383060 755.661987
356 0 1 13.448660 9.567380 756.474976
357 0 1 13.082700 9.643220 757.388000
358 0 1 12.875100 9.641690 758.299011
359 0 1 12.715960 9.700770 759.289001
360 0 1 12.305550 9.837280 760.119995
361 0 1 11.925300 9.802480 760.997986
362 0 1 11.746540 9.925730 761.988037
363 0 1 11.538960 10.071830 762.958008
364 0 1 11.386971 10.255030 763.856018
365 0 1 11.130550 10.476270 764.771973
366 0 1 11.089640 10.827600 765.688965
367 0 1 11.017160 11.115240 766.596985
368 0 1 10.965110 11.240100 767.521973
369 0 1 11.196740 11.380090 768.403992
370 0 1 11.261380 11.415500 769.380005
371 0 1 11.519180 11.466290 770.317993
372 0 1 11.685150 11.141100 771.221985
373 0 1 12.198720 10.871700 772.005005
374 0 1 12.537230 10.650970 772.846008
375 0 1 12.747840 10.147100 773.608032
376 0 1 12.551270 9.779270 774.476013
377 0 1 12.714140 9.220920 775.213013
378 0 1 12.659070 8.632442 775.950012
379 0 1 12.266380 7.967562 776.613037
380 0 1 11.930830 7.193093 777.093018
381 0 1 11.613750 6.414380 777.520020
382 0 1 11.080590 5.763220 777.911011
383 0 1 10.564410 5.197320 778.535034
384 0 1 10.124940 4.700750 779.143005
385 0 1 9.706650 4.242020 779.869019
386 0 1 9.181960 3.764230 780.500000
387 0 1 8.943052 3.215570 781.237000
388 0 1 8.394518 2.943820 782.041016
389 0 1 8.091946 2.608460 782.838989
390 0 1 7.760913 2.255970 783.687012
391 0 1 7.466060 2.004610 784.646973
392 0 1 7.407041 1.476260 785.537964
393 0 1 7.406538 1.389470 786.494995
394 0 1 7.319857 1.343920 787.426025
395 0 1 7.287892 1.326220 788.379028
396 0 1 7.170999 1.469590 789.302979
397 0 1 6.762310 1.662860 790.139038
398 0 1 6.622480 1.915080 791.037964
399 0 1 6.533310 2.005060 792.030029
400 0 1 6.418760 2.230410 792.937012
401 0 1 6.552290 2.550170 793.862000
402 0 1 6.684570 3.261800 794.427979
403 0 1 6.794910 3.956610 795.143005
404 0 1 6.913650 4.704870 795.737000
405 0 1 6.856650 5.239430 796.544983
406 0 1 6.651290 5.720240 797.364014
407 0 1 6.419580 5.897970 798.286011
408 0 1 6.371690 6.288620 799.151978
409 0 1 6.177540 6.882570 799.843994
410 0 1 6.076230 7.723697 800.315979
411 0 1 6.198480 8.554813 800.817993
412 0 1 6.763730 9.191060 801.299988
413 0 1 7.532088 9.589510 801.700989
414 0 1 8.177114 9.786980 802.479004
415 0 1 8.510609 10.253370 803.348999
416 0 1 8.627523 10.333230 804.302979
417 0 1 8.863336 10.324490 805.286987
418 0 1 8.930635 10.458320 806.264038
419 0 1 8.790106 10.632700 807.208008
420 0 1 8.303021 11.066339 808.010010
421 0 1 7.770847 11.450200 808.682007
422 0 1 7.273601 11.663040 809.492004
423 0 1 6.932540 11.740550 810.434021
424 0 1 6.804420 11.981900 811.422974
425 0 1 6.787100 12.164480 812.408020
426 0 1 6.637750 12.526100 813.309021
427 0 1 6.594370 12.748580 814.270996
428 0 1 6.395930 13.199841 815.177002
429 0 1 6.102600 13.629760 815.981018
430 0 1 5.998490 14.068359 816.809998
431 0 1 5.964230 14.447690 817.667969
432 0 1 5.983160 14.610610 818.687988
433 0 1 6.054780 14.559259 819.763000
434 0 1 6.138370 14.280980 820.724976
435 0 1 6.022900 13.991130 821.684998
436 0 1 5.688940 13.507100 822.370972
437 0 1 5.564310 12.946620 823.143005
438 0 1 5.797890 12.379590 823.778992
439 0 1 6.182730 11.767090 824.403015
440 0 1 6.402630 11.161790 825.148010
441 0 1 6.695690 10.460470 825.828003
442 0 1 6.659320 10.009690 826.645996
443 0 1 6.663730 9.510240 827.556030
444 0 1 6.515750 9.235680 828.437012
445 0 1 6.629780 8.847474 829.275024
446 0 1 6.616050 8.531831 830.172974
447 0 1 6.527750 7.989129 830.958008
448 0 1 6.347450 7.301396 831.674988
449 0 1 5.817210 6.973300 832.377991
450 0 1 5.450220 6.706350 833.233032
451 0 1 4.875900 6.304500 833.945007
452 0 1 4.308890 6.217760 834.745972
453 0 1 4.195160 5.966470 835.672974
454 0 1 4.381940 6.122590 836.609009
455 0 1 4.663870 6.435730 837.466003
456 0 1 5.125570 6.759410 838.289978
457 0 1 5.619020 7.266757 839.015015
458 0 1 6.272860 7.883089 839.328003
459 0 1 6.983900 8.372997 839.080017
460 0 1 7.581190 9.048730 838.858032
461 0 1 8.112753 9.711400 838.365967
462 0 1 8.470842 10.407270 837.791992
463 0 1 8.733250 10.931470 837.036987
464 0 1 8.911121 11.158870 836.150024
465 0 1 9.137340 11.444571 835.306030
466 0 1 9.243500 11.915570 834.458008
467 0 1 9.405410 12.294050 833.625000
468 0 1 9.723610 12.405720 832.731018
469 0 1 10.218760 12.901680 832.114990
470 0 1 10.620140 13.028481 831.264038
471 0 1 11.136311 12.991350 830.422974
472 0 1 11.354750 13.060480 829.440979
473 0 1 11.513470 13.117840 828.536987
474 0 1 11.620300 13.219040 827.591003
475 0 1 11.313550 13.138750 826.653015
476 0 1 10.958970 12.989850 825.745972
477 0 1 10.416019 12.619600 825.039978
478 0 1 9.958710 12.046110 824.396973
479 0 1 9.566770 11.648130 823.598022
480 0 1 9.089360 11.324670 822.830994
481 0 1 8.851424 10.985130 821.984985
482 0 1 8.848914 10.494280 821.143982
483 0 1 9.022880 10.259430 820.210022
484 0 1 8.822947 9.975960 819.323975
485 0 1 8.664954 9.615040 818.492981
486 0 1 8.379902 9.187531 817.638000
487 0 1 8.095167 8.629361 816.885986
488 0 1 7.883370 8.194517 816.031006
489 0 1 7.846071 7.752298 815.119019
490 0 1 7.862613 7.279489 814.210022
491 0 1 8.077511 6.990950 813.327026
492 0 1 8.352675 6.686390 812.515991
493 0 1 8.992853 6.688180 811.703003
494 0 1 9.226960 6.476830 810.768005
495 0 1 9.247460 6.457400 809.823975
496 0 1 9.264290 6.606810 808.885986
497 0 1 9.355450 6.738620 807.937012
498 0 1 9.341220 6.736990 806.938965
499 0 1 9.476340 6.894070 805.994995
500 0 1 9.662530 7.071527 805.000977
501 0 1 9.816850 7.092807 804.033020
502 0 1 10.348560 7.262398 803.294006
503 0 1 10.819770 7.338755 802.464966
504 0 1 11.577380 7.292002 801.830994
505 0 1 12.026279 7.767017 801.145996
506 0 1 12.302020 8.003334 800.333008
507 0 1 12.414450 8.374116 799.442993
508 0 1 12.352730 8.666879 798.502991
509 0 1 12.575450 9.159610 797.648010
510 0 1 12.969030 9.468030 796.813965
511 0 1 12.968130 9.834480 795.947998
512 0 1 13.044210 10.296790 795.132019
513 0 1 12.944850 10.778950 794.353027
514 0 1 12.977880 11.518450 793.661987
515 0 1 12.994579 11.776430 792.760986
516 0 1 13.061510 12.062160 791.859985
517 0 1 13.020940 12.461781 790.940002
518 0 1 12.726900 12.886761 790.169006
519 0 1 12.286819 13.255170 789.463013
520 0 1 11.862740 13.621600 788.677979
521 0 1 11.372640 13.806480 787.835999
522 0 1 10.845910 13.975090 787.098999
523 0 1 10.591311 14.045130 786.182007
524 0 1 10.435369 13.966960 785.221008
525 0 1 10.511330 13.792570 784.307983
526 0 1 10.725620 13.906720 783.372986
527 0 1 10.933740 13.921030 782.457031
528 0 1 11.145920 13.879010 781.471985
529 0 1 11.060310 13.740720 780.546997
530 0 1 10.895320 13.569680 779.588013
531 0 1 10.759360 13.426559 778.664001
532 0 1 10.331030 13.007790 777.773010
533 0 1 10.017490 13.027170 776.901978
534 0 1 9.636920 12.874960 776.054993
535 0 1 9.087900 12.769030 775.306030
536 0 1 8.510505 12.416420 774.655029
537 0 1 7.811364 12.071609 774.192017
538 0 1 7.021817 11.792870 773.622986
539 0 1 6.419920 11.422820 772.908997
540 0 1 5.971580 11.225890 772.096985
541 0 1 5.630820 10.818550 771.330994
542 0 1 5.333480 10.223021 770.622009
543 0 1 5.202160 9.766760 769.776001
544 0 1 5.083970 9.380120 768.837036
545 0 1 4.992480 9.392990 767.833008
546 0 1 5.080520 9.487740 766.886963
547 0 1 5.070050 9.285180 765.929016
548 0 1 5.050480 9.233130 764.950012
549 0 1 4.897720 9.075050 764.033997
550 0 1 4.676440 8.687686 763.182007
551 0 1 4.761960 8.275046 762.302979
552 0 1 4.935500 7.735082 761.479980
553 0 1 4.968980 7.518844 760.528992
554 0 1 5.070420 7.246201 759.614990
555 0 1 5.318500 7.004483 758.661987
556 0 1 5.781180 6.923410 757.832031
557 0 1 6.284570 6.735350 757.085999
558 0 1 6.816370 6.329140 756.367981
559 0 1 7.461497 5.928830 755.754028
560 0 1 8.013260 5.768700 754.958984
561 0 1 8.554821 5.626390 754.163025
562 0 1 9.174680 5.485640 753.479980
563 0 1 9.682899 5.271520 752.693970
564 0 1 9.934000 5.253410 751.810974
565 0 1 10.389760 5.107600 750.976013
566 0 1 10.807250 4.927050 750.125000
567 0 1 10.855860 4.491330 749.312988
568 0 1 10.920930 4.152380 748.458984
569 0 1 10.999530 3.581730 747.645020
570 0 1 10.892710 2.968850 746.887024
571 0 1 10.760630 2.196380 746.257019
572 0 1 10.552010 1.890400 745.434998
573 0 1 10.457430 1.732390 744.536011
574 0 1 10.272540 1.674640 743.632019
575 0 1 9.911780 1.845380 742.802002
576 0 1 9.923400 2.272440 741.984009
577 0 1 10.076880 2.682470 741.137024
578 0 1 10.227370 3.411510 740.544983
579 0 1 10.133990 4.041580 739.755005
580 0 1 9.805190 4.459710 739.044006
581 0 1 9.481960 4.853330 738.263977
582 0 1 8.965780 5.186780 737.589966
583 0 1 8.504159 5.630200 736.900024
584 0 1 8.138964 6.045570 736.057983
585 0 1 8.004169 6.448320 735.164001
586 0 1 8.014719 6.718670 734.289001
587 0 1 8.251841 7.343661 733.596008
588 0 1 8.332851 8.041603 732.914978
589 0 1 8.327092 8.809159 732.304016
590 0 1 8.514224 9.601840 731.697998
591 0 1 8.811666 10.341770 731.156006
592 0 1 9.113210 10.936390 730.474976
593 0 1 9.270110 11.271990 729.609985
594 0 1 9.467381 11.714040 728.786011
595 0 1 9.727240 11.925720 727.865723
596 0 1 9.514090 12.177800 726.943970
597 0 1 9.533570 12.477830 725.974426
598 0 1 9.686330 13.072350 725.188232
599 0 1 9.595181 13.436520 724.265381
600 0 1 9.328870 13.709510 723.409485
601 0 1 9.004190 13.710060 722.439575
602 0 1 8.821065 13.724880 721.499634
603 0 1 8.616643 13.672010 720.521729
604 0 1 8.417206 13.575900 719.571411
605 0 1 8.272473 13.066600 718.684509
606 0 1 8.172711 12.600260 717.822510
607 0 1 8.102413 12.279490 716.929382
608 0 1 8.027958 11.963050 716.010620
609 0 1 7.923636 11.479770 715.188782
610 0 1 8.050236 10.961820 714.293823
611 0 1 8.116333 10.616460 713.322998
612 0 1 8.212343 10.546890 712.364502
613 0 1 8.552035 10.285310 711.493408
614 0 1 9.030670 9.889280 710.822632
615 0 1 9.460780 9.760020 709.930725
616 0 1 10.162860 9.442260 709.290527
617 0 1 10.722490 8.979066 708.621582
618 0 1 11.286460 8.934396 707.833313
619 0 1 11.695840 8.581408 707.128113
620 0 1 12.246580 8.093927 706.521790
621 0 1 12.757259 7.746900 705.754822
622 0 1 12.797330 7.507350 704.726013
623 0 1 12.609200 7.052150 703.892212
624 0 1 12.647400 6.495390 703.154602
625 0 1 12.371469 5.708580 702.616882
626 0 1 12.044350 5.104440 702.018982
627 0 1 11.734070 4.447920 701.363892
628 0 1 11.627680 3.795690 700.661011
629 0 1 11.397580 3.316500 699.802307
630 0 1 11.103710 3.136760 698.868408
631 0 1 11.094180 2.974460 697.909912
632 0 1 10.793650 3.046130 696.979980
633 0 1 10.864400 3.119780 695.978699
634 0 1 10.958549 3.322100 695.024414
635 0 1 11.283920 3.205680 694.093384
636 0 1 11.646390 3.191990 693.226013
637 0 1 11.985850 3.166890 692.310486
638 0 1 12.073959 3.408210 691.278198
639 0 1 12.128330 3.576630 690.319519
640 0 1 12.130760 3.687310 689.333374
641 0 1 12.127911 4.221260 688.484924
642 0 1 11.941890 4.749490 687.679688
643 0 1 11.821100 5.275000 686.925171
644 0 1 11.594690 5.878510 686.123474
645 0 1 11.307380 6.159620 685.265808
646 0 1 11.059650 6.052150 684.333374
647 0 1 10.903870 6.015460 683.386414
648 0 1 10.932060 6.100710 682.461792
649 0 1 10.892790 6.015270 681.505615
650 0 1 10.854549 5.989810 680.510986
651 0 1 10.860910 5.819480 679.537231
652 0 1 10.666830 5.695900 678.560791
653 0 1 10.685431 5.846310 677.569824
654 0 1 10.493120 6.118890 676.669006
655 0 1 10.258850 6.178940 675.770813
656 0 1 9.939370 6.131180 674.828796
657 0 1 9.799850 6.192820 673.864319
658 0 1 9.711360 6.170830 672.815613
659 0 1 9.644650 5.949580 671.901672
660 0 1 9.514210 5.897350 670.909485
661 0 1 9.552290 5.550850 670.024170
662 0 1 9.494400 5.370020 668.995789
663 0 1 9.207620 5.227660 668.083191
664 0 1 9.117310 5.003660 667.155579
665 0 1 8.980657 4.969090 666.147522
666 0 1 8.968912 5.079700 665.165405
667 0 1 9.213690 5.162790 664.199890
668 0 1 9.279540 5.022890 663.203125
669 0 1 9.605060 5.032910 662.261230
670 0 1 9.963190 5.169780 661.392578
671 0 1 10.349570 5.354660 660.570618
672 0 1 10.812390 5.649600 659.734802
673 0 1 11.279350 5.968270 658.920715
674 0 1 11.617001 6.421760 658.118713
675 0 1 12.013590 6.657070 657.306702
676 0 1 12.287750 6.844030 656.404785
677 0 1 12.633181 7.099523 655.540222
678 0 1 12.856550 7.231099 654.575928
679 0 1 13.141560 7.325709 653.688904
680 0 1 13.222410 7.499869 652.747925
681 0 1 13.410390 7.772290 651.861084
682 0 1 13.614380 8.051047 650.870422
683 0 1 13.668280 8.090925 649.951294
684 0 1 13.831620 7.968179 649.054688
685 0 1 13.952240 8.220268 648.136475
686 0 1 13.873870 8.246485 647.202393
687 0 1 13.495530 8.300401 646.284729
688 0 1 13.409800 8.336634 645.320312
689 0 1 13.239150 8.472299 644.392029
690 0 1 13.235460 8.321219 643.452271
691 0 1 13.376490 8.158254 642.520325
692 0 1 13.339610 8.063168 641.548706
693 0 1 13.512609 7.861457 640.590088
694 0 1 13.560970 7.845905 639.603394
695 0 1 13.627900 7.617459 638.718689
696 0 1 13.516120 7.326697 637.807068
697 0 1 13.308730 7.001390 636.910034
698 0 1 13.039220 6.432180 636.134705
699 0 1 12.443260 5.951640 635.552246
700 0 1 11.691840 5.760580 634.930664
701 0 1 11.029970 5.326960 634.472839
702 0 1 10.382090 5.172000 633.828186
703 0 1 9.955030 5.209030 632.881531
704 0 1 9.456200 5.156200 632.037537
705 0 1 8.953247 5.322160 631.247620
706 0 1 8.363518 5.356300 630.423889
707 0 1 7.989727 5.377500 629.476929
708 0 1 7.461918 5.405990 628.645020
709 0 1 6.862810 5.629310 627.918030
710 0 1 6.030910 5.729620 627.432007
711 0 1 5.351050 5.943750 626.729614
712 0 1 4.841350 6.441850 626.084900
713 0 1 4.707310 7.092128 625.317993
714 0 1 4.624390 7.640625 624.496887
715 0 1 4.676910 8.161075 623.701965
716 0 1 4.919280 8.872511 623.124084
717 0 1 5.391140 9.593650 622.665894
718 0 1 5.759260 10.201480 621.996094
719 0 1 6.504890 10.688240 621.623474
720 0 1 7.229321 11.219580 621.222473
721 0 1 7.691700 11.675520 620.510193
722 0 1 8.210283 12.044360 619.767456
723 0 1 8.328807 12.394020 618.901672
724 0 1 8.714446 12.860250 618.167480
725 0 1 8.873827 13.304970 617.277100
726 0 1 8.626522 13.529881 616.418823
727 0 1 8.511405 13.745510 615.526123
728 0 1 8.284183 13.718500 614.583923
729 0 1 7.861072 13.678680 613.765381
730 0 1 7.322229 13.599180 612.955811
731 0 1 6.693580 13.341520 612.222595
732 0 1 5.957990 13.107600 611.687683
733 0 1 5.620590 12.966900 610.742126
734 0 1 5.435120 12.979410 609.827393
735 0 1 5.522660 12.598320 608.937073
736 0 1 5.727300 12.087420 608.164612
737 0 1 5.999940 11.841080 607.318970
738 0 1 6.130080 11.891790 606.301697
739 0 1 6.202070 12.184380 605.399902
740 0 1 6.470150 12.532000 604.519531
741 0 1 7.088563 12.960210 603.900818
742 0 1 7.449906 13.470830 603.124207
743 0 1 8.099929 13.495140 602.379822
744 0 1 8.705081 13.720190 601.517029
745 0 1 9.076110 13.503680 600.681702
746 0 1 9.625190 13.409901 599.839172
747 0 1 9.953130 13.470810 598.918823
748 0 1 10.361970 13.254160 598.034607
749 0 1 10.644800 12.958651 597.159485
750 0 1 10.831079 12.604321 596.289917
751 0 1 10.869250 12.380660 595.392212
752 0 1 10.846510 11.810900 594.671997
753 0 1 10.498510 11.302130 593.940613
754 0 1 10.106421 10.823510 593.139526
755 0 1 9.577490 10.200769 592.562683
756 0 1 9.248631 9.966530 591.691101
757 0 1 8.849467 9.541260 590.918274
758 0 1 8.726933 9.133739 590.036011
759 0 1 8.831527 8.805997 589.136719
760 0 1 8.852058 8.815539 588.184509
761 0 1 8.832307 8.831351 587.224731
762 0 1 9.002880 8.957541 586.287231
763 0 1 8.984368 9.293840 585.386414
764 0 1 8.790037 9.415900 584.447632
765 0 1 8.441051 9.269860 583.560974
766 0 1 7.994713 9.003750 582.770325
767 0 1 7.539736 9.004940 581.943481
768 0 1 7.127232 9.056400 581.081177
769 0 1 6.933140 9.265000 580.148071
770 0 1 6.514550 9.463110 579.292969
771 0 1 5.914470 9.823771 578.653076
772 0 1 5.384320 9.991650 577.841797
773 0 1 5.003770 10.231940 576.959717
774 0 1 4.674410 10.103280 575.987610
775 0 1 4.593960 10.130810 575.044128
776 0 1 4.571580 10.181540 574.019897
777 0 1 4.695030 10.278250 573.070374
778 0 1 4.919780 10.292240 572.143127
779 0 1 5.245610 10.380970 571.266113
780 0 1 5.520460 10.617470 570.435120
781 0 1 5.826820 10.746161 569.505310
782 0 1 6.308190 10.867430 568.654480
783 0 1 7.019091 11.141109 567.997314
784 0 1 7.429918 11.382240 567.152405
785 0 1 7.807925 11.425050 566.178406
786 0 1 7.703317 11.596450 565.242920
787 0 1 7.822585 11.717180 564.286133
788 0 1 7.983780 11.723090 563.346191