LAMMPS data file via MDAnalysis

        1000  atoms
        1000  bonds
        1000  angles
           0  dihedrals
           0  impropers

           1  atom types
           1  bond types
           1  angle types
           0  dihedral types
           0  improper types

0.000000 16.000000 xlo xhi
0.000000 16.000000 ylo yhi
0.000000 1257.000000 zlo zhi


Masses

1 1.000000

Atoms

1 0 1 7.860955 4.756920 444.354980
2 0 1 8.221008 5.129760 445.140991
3 0 1 8.598068 5.479880 445.942993
4 0 1 8.778550 5.980390 446.783020
5 0 1 9.094550 6.382150 447.567993
6 0 1 9.138900 6.865310 448.463989
7 0 1 9.122790 7.113440 449.367004
8 0 1 9.028720 7.410373 450.255981
9 0 1 8.959387 7.907323 451.171997
10 0 1 8.974083 8.275234 452.091003
11 0 1 9.079120 8.613063 452.976990
12 0 1 9.170290 8.903369 453.891998
13 0 1 9.197410 9.259310 454.755005
14 0 1 9.066130 9.737060 455.612000
15 0 1 9.185180 10.142410 456.554993
16 0 1 9.343019 10.485030 457.455994
17 0 1 9.566740 10.863150 458.345001
18 0 1 9.810250 11.396890 459.100006
19 0 1 10.050180 11.572170 460.013000
20 0 1 10.634560 11.635440 460.819000
21 0 1 11.124340 11.403540 461.612000
22 0 1 11.603291 11.209870 462.395020
23 0 1 11.880239 10.802430 463.229980
24 0 1 11.847120 10.510480 464.153992
25 0 1 11.762680 10.147670 465.127014
26 0 1 11.647460 9.666650 465.947021
27 0 1 11.607520 9.341070 466.817993
28 0 1 11.474920 9.179399 467.734985
29 0 1 11.164640 8.887084 468.632996
30 0 1 10.824820 8.477721 469.408997
31 0 1 10.376369 8.289301 470.167999
32 0 1 10.011220 8.153823 471.036011
33 0 1 9.854150 7.745448 471.919006
34 0 1 10.067050 7.459161 472.835022
35 0 1 10.393490 7.042101 473.619019
36 0 1 10.445620 6.602220 474.483002
37 0 1 10.611959 6.437840 475.395020
38 0 1 10.856461 6.251460 476.348999
39 0 1 10.938030 5.956280 477.294983
40 0 1 11.113210 5.928810 478.259003
41 0 1 11.415370 6.292420 479.098999
42 0 1 11.778830 6.633420 479.888000
43 0 1 12.196939 7.226213 480.496002
44 0 1 12.484480 7.450120 481.485992
45 0 1 12.778629 7.766119 482.388000
46 0 1 12.977090 8.210603 483.216003
47 0 1 12.837350 8.443019 484.169983
48 0 1 12.713659 8.844538 485.044983
49 0 1 12.767860 9.307230 485.901001
50 0 1 12.806971 9.553840 486.802002
51 0 1 12.854930 9.937600 487.653015
52 0 1 12.694321 10.073350 488.595001
53 0 1 12.518311 10.634990 489.376007
54 0 1 12.402590 11.240150 490.140991
55 0 1 12.153521 11.887150 490.843994
56 0 1 11.939290 12.312960 491.686005
57 0 1 11.975930 12.727620 492.546021
58 0 1 11.831070 12.971661 493.498993
59 0 1 11.608510 13.045420 494.489990
60 0 1 11.560940 13.250530 495.401001
61 0 1 11.932880 13.235710 496.325989
62 0 1 11.835860 13.337660 497.345001
63 0 1 11.725210 13.300810 498.278992
64 0 1 11.711770 13.122681 499.208984
65 0 1 11.597350 12.782630 500.095001
66 0 1 11.585011 12.577240 501.140991
67 0 1 11.329050 12.495040 502.113007
68 0 1 10.601191 12.444220 502.817017
69 0 1 9.856700 12.407090 503.447998
70 0 1 9.330600 12.174120 504.199005
71 0 1 8.774050 11.955730 504.911011
72 0 1 8.405308 11.525670 505.653992
73 0 1 8.286514 11.124890 506.509003
74 0 1 8.110498 10.872670 507.490997
75 0 1 7.879246 10.544040 508.388000
76 0 1 7.818014 10.355900 509.294983
77 0 1 8.018148 10.270610 510.234009
78 0 1 8.131202 10.079420 511.188995
79 0 1 8.117564 9.998370 512.174011
80 0 1 8.056795 9.817530 513.119019
81 0 1 7.942002 9.525780 514.041016
82 0 1 7.672499 9.385150 514.932007
83 0 1 7.981176 9.606540 515.791992
84 0 1 8.125245 9.869330 516.723022
85 0 1 8.521881 9.936260 517.573975
86 0 1 8.683860 10.195710 518.487976
87 0 1 8.956837 10.128050 519.458984
88 0 1 9.127040 10.043290 520.440002
89 0 1 8.998520 10.158530 521.380005
90 0 1 8.697419 10.286870 522.263977
91 0 1 8.418818 10.116470 523.210022
92 0 1 8.285219 9.923500 524.140015
93 0 1 8.032519 9.668530 525.083984
94 0 1 7.638388 9.605721 525.984009
95 0 1 7.287822 9.757210 526.843994
96 0 1 6.759220 9.791451 527.611023
97 0 1 6.484740 9.901590 528.600281
98 0 1 6.290440 9.890841 529.570984
99 0 1 6.193340 9.716619 530.552673
100 0 1 6.215220 9.769690 531.518494
101 0 1 6.502500 9.866261 532.514526
102 0 1 6.952760 10.235470 533.330017
103 0 1 7.173963 10.382790 534.232178
104 0 1 7.419690 10.307460 535.155273
105 0 1 7.636796 10.037960 536.060120
106 0 1 7.759005 9.779910 536.982910
107 0 1 7.837206 9.650430 537.954224
108 0 1 8.020382 9.410270 538.896790
109 0 1 7.994346 8.896571 539.725220
110 0 1 7.861829 8.713143 540.645874
111 0 1 7.354364 8.761425 541.524902
112 0 1 7.064861 8.915157 542.532288
113 0 1 6.969830 9.083860 543.426575
114 0 1 6.769240 9.019920 544.396912
115 0 1 6.811680 9.164300 545.364075
116 0 1 7.009816 8.873578 546.248169
117 0 1 7.412122 8.656059 547.059875
118 0 1 7.404750 8.357904 548.016968
119 0 1 7.546126 8.129741 549.042419
120 0 1 7.843242 7.428573 549.637817
121 0 1 8.133568 6.699470 550.258911
122 0 1 8.156069 6.002710 550.909424
123 0 1 7.784030 5.467320 551.649902
124 0 1 7.427379 5.022680 552.390381
125 0 1 7.232121 4.707250 553.249084
126 0 1 7.176638 4.553530 554.142883
127 0 1 7.203880 4.488780 555.130920
128 0 1 7.311544 4.668530 556.084106
129 0 1 7.561308 4.793240 557.009521
130 0 1 7.869100 5.058920 557.947327
131 0 1 8.080173 5.268550 558.884277
132 0 1 8.324621 5.269050 559.794189
133 0 1 8.848340 5.138380 560.581482
134 0 1 9.464810 5.025200 561.428894
135 0 1 9.941190 4.960350 562.300476
136 0 1 10.376141 5.008920 563.180603
137 0 1 11.048890 5.250000 563.811401
138 0 1 11.583700 5.453170 564.605713
139 0 1 12.223920 5.598940 565.333130
140 0 1 12.676889 5.414690 566.109497
141 0 1 13.013290 5.159830 566.945984
142 0 1 13.208031 5.116990 567.882507
143 0 1 13.091230 4.934010 568.903015
144 0 1 12.816840 4.888350 569.772705
145 0 1 12.233120 4.871640 570.492920
146 0 1 11.718640 4.911510 571.293091
147 0 1 11.103600 4.744960 571.980774
148 0 1 10.585430 4.681680 572.770691
149 0 1 9.766310 4.732360 573.259888
150 0 1 9.129680 4.794790 573.966614
151 0 1 8.481752 4.740390 574.656616
152 0 1 8.042906 4.560930 575.573425
153 0 1 7.650992 4.474310 576.459717
154 0 1 7.359699 4.027130 577.199219
155 0 1 7.189751 3.622580 578.035889
156 0 1 7.298309 3.304210 579.019714
157 0 1 7.396476 3.067450 579.920105
158 0 1 7.733120 2.852230 580.837891
159 0 1 7.868230 2.769270 581.760498
160 0 1 7.780008 2.562840 582.786621
161 0 1 7.659540 2.582690 583.766296
162 0 1 7.586188 2.684720 584.643616
163 0 1 7.809302 3.089350 585.596313
164 0 1 8.146775 3.593000 586.382874
165 0 1 8.317542 3.763920 587.289124
166 0 1 8.494180 4.271390 588.093811
167 0 1 8.708629 4.840280 588.813599
168 0 1 8.827496 5.229870 589.674927
169 0 1 9.080970 5.556660 590.498779
170 0 1 9.126000 6.123190 591.333923
171 0 1 9.230420 6.634420 592.153320
172 0 1 9.233829 7.199655 592.897400
173 0 1 9.464010 7.565122 593.765015
174 0 1 9.416470 7.858367 594.685425
175 0 1 9.449660 7.991695 595.641785
176 0 1 9.548460 8.198655 596.565308
177 0 1 9.567450 8.487064 597.552795
178 0 1 9.860291 8.659939 598.493774
179 0 1 10.305750 8.936148 599.321594
180 0 1 10.965520 8.935579 599.990479
181 0 1 11.474860 8.658120 600.731018
182 0 1 12.080481 8.428947 601.369080
183 0 1 12.473790 8.256954 602.229126
184 0 1 13.084260 8.407231 603.033691
185 0 1 13.572680 8.899987 603.734375
186 0 1 13.719130 9.472830 604.536621
187 0 1 13.876930 10.084840 605.339905
188 0 1 13.634120 10.571270 606.152771
189 0 1 13.403120 11.047180 606.947388
190 0 1 12.829000 11.217470 607.741699
191 0 1 12.202820 11.286870 608.533508
192 0 1 11.709450 11.342350 609.315796
193 0 1 11.226800 11.281610 610.114502
194 0 1 10.991040 11.124020 611.015503
195 0 1 10.796761 10.969040 611.945496
196 0 1 10.397990 10.583830 612.710388
197 0 1 9.816990 10.213670 613.375916
198 0 1 9.256040 10.049020 614.127686
199 0 1 8.462246 9.831260 614.695129
200 0 1 7.585229 9.650550 615.054077
201 0 1 6.700910 9.362460 615.296631
202 0 1 5.877050 8.989558 615.574097
203 0 1 5.281720 8.397345 615.994202
204 0 1 4.769760 7.936304 616.640991
205 0 1 4.090940 7.309472 617.042297
206 0 1 3.661280 6.617660 617.597900
207 0 1 3.203300 5.986660 618.137390
208 0 1 3.405290 5.228920 618.728516
209 0 1 3.337760 4.783360 619.573975
210 0 1 3.461660 4.353430 620.426453
211 0 1 3.807180 3.874790 621.209106
212 0 1 4.571540 3.413980 621.556763
213 0 1 5.282080 2.995540 622.079285
214 0 1 5.743360 3.011340 623.000793
215 0 1 5.902830 2.763200 623.937866
216 0 1 5.961190 2.704900 624.963684
217 0 1 6.132510 2.451650 625.909790
218 0 1 5.935960 2.247760 626.839417
219 0 1 6.167380 2.323140 627.779968
220 0 1 6.309730 2.872370 628.564880
221 0 1 6.270150 3.191870 629.413330
222 0 1 6.214630 3.396020 630.353516
223 0 1 6.314420 3.579380 631.324402
224 0 1 6.678380 3.839610 632.113281
225 0 1 6.983420 4.043870 633.006958
226 0 1 7.164142 4.343090 633.884949
227 0 1 7.041577 4.744750 634.786255
228 0 1 6.965330 5.014600 635.708008
229 0 1 6.838980 5.520940 636.504395
230 0 1 6.747450 6.054680 637.296631
231 0 1 6.808540 6.523480 638.208557
232 0 1 6.984380 7.005372 639.057373
233 0 1 7.109962 7.275866 639.991272
234 0 1 7.401920 7.390894 640.854492
235 0 1 7.973560 7.530914 641.655029
236 0 1 8.336376 8.075480 642.411011
237 0 1 8.675998 8.651068 643.188904
238 0 1 8.985152 9.041780 643.985596
239 0 1 9.172970 9.157250 644.896301
240 0 1 9.527110 9.252831 645.860229
241 0 1 10.013730 9.264550 646.656921
242 0 1 10.094510 9.282600 647.658569
243 0 1 9.988210 9.513220 648.579712
244 0 1 9.757500 9.718560 649.473083
245 0 1 9.327900 9.803770 650.390625
246 0 1 9.341660 10.239870 651.233826
247 0 1 9.141250 10.363729 652.137695
248 0 1 9.010050 10.600240 653.088318
249 0 1 8.712464 10.875031 654.028076
250 0 1 8.692213 11.321470 654.897400
251 0 1 8.737041 11.830670 655.747498
252 0 1 8.921671 12.312080 656.479309
253 0 1 9.164160 12.585421 657.366272
254 0 1 8.848689 12.392900 658.258606
255 0 1 8.534233 12.328410 659.166321
256 0 1 8.619260 12.367599 660.166199
257 0 1 8.301764 12.194950 661.062195
258 0 1 7.989372 12.017099 661.985718
259 0 1 7.696031 11.985720 662.936096
260 0 1 7.363446 11.681129 663.802124
261 0 1 6.970980 11.334490 664.627014
262 0 1 6.441920 10.923110 665.357727
263 0 1 6.175950 10.647860 666.218689
264 0 1 6.276160 10.643020 667.200500
265 0 1 5.908900 10.598010 668.059814
266 0 1 5.486470 10.532340 668.895691
267 0 1 5.057400 10.516660 669.714111
268 0 1 4.562040 10.479580 670.531494
269 0 1 4.431430 10.324620 671.481628
270 0 1 4.926800 10.511070 672.324585
271 0 1 5.481340 10.718280 673.070190
272 0 1 6.045580 10.962000 673.805908
273 0 1 6.571650 10.916861 674.632568
274 0 1 7.104040 11.181931 675.370117
275 0 1 7.921406 11.464890 675.903198
276 0 1 8.691470 11.698900 676.382812
277 0 1 9.441180 11.894000 676.937012
278 0 1 9.807270 12.175711 677.726624
279 0 1 10.266080 11.977570 678.539917
280 0 1 10.784410 11.860470 679.356812
281 0 1 11.185250 11.621400 680.242981
282 0 1 11.255660 11.553650 681.209595
283 0 1 11.385080 11.698190 682.078796
284 0 1 11.697520 12.020180 682.999817
285 0 1 11.832980 12.071000 683.987610
286 0 1 11.901920 12.309111 684.905396
287 0 1 12.088420 12.636570 685.717590
288 0 1 12.411039 12.413750 686.558411
289 0 1 12.657200 12.111280 687.440002
290 0 1 13.064051 11.930950 688.271729
291 0 1 13.295450 11.958350 689.155396
292 0 1 13.112890 12.282940 690.038574
293 0 1 12.601240 12.677549 690.762512
294 0 1 11.957180 12.914101 691.398621
295 0 1 11.241330 13.194799 691.941895
296 0 1 10.654570 12.886650 692.697693
297 0 1 10.163300 12.768641 693.487488
298 0 1 9.918020 12.375740 694.313599
299 0 1 9.361210 12.025940 695.102600
300 0 1 8.948872 11.719580 695.929382
301 0 1 8.589632 11.209120 696.683716
302 0 1 7.980717 10.467110 697.148376
303 0 1 7.673634 9.738880 697.678589
304 0 1 7.367035 8.968030 698.149414
305 0 1 7.059929 8.130702 698.562195
306 0 1 6.832590 7.444840 699.195984
307 0 1 6.446070 6.786030 699.731201
308 0 1 6.192660 6.135340 700.304016
309 0 1 5.979410 5.565070 701.032593
310 0 1 5.728020 5.122780 701.826416
311 0 1 5.628340 4.790770 702.738586
312 0 1 5.508700 4.763190 703.667175
313 0 1 5.504110 4.491860 704.593079
314 0 1 5.580040 4.369070 705.573975
315 0 1 5.945600 4.337490 706.489380
316 0 1 6.186110 4.482750 707.410889
317 0 1 6.614910 4.367320 708.185486
318 0 1 6.844040 4.394530 709.081604
319 0 1 7.243517 4.531040 709.930908
320 0 1 7.682321 4.848160 710.805298
321 0 1 8.198318 5.148850 711.549011
322 0 1 8.852932 5.117540 712.204590
323 0 1 9.391800 4.964640 713.007996
324 0 1 9.999910 4.763250 713.737671
325 0 1 10.419380 4.565350 714.664307
326 0 1 10.909810 4.510480 715.508484
327 0 1 11.410620 4.335370 716.318970
328 0 1 12.018459 4.150040 717.085815
329 0 1 12.212100 4.231630 718.028931
330 0 1 12.287690 4.402880 718.989380
331 0 1 12.421801 4.691820 719.989502
332 0 1 12.295940 4.908470 720.941589
333 0 1 12.133659 5.169790 721.859497
334 0 1 11.776000 5.246180 722.839294
335 0 1 11.608060 5.309150 723.794189
336 0 1 11.264270 5.185200 724.701294
337 0 1 11.038470 5.317400 725.726685
338 0 1 11.156660 5.550320 726.675415
339 0 1 11.374960 5.626820 727.598877
340 0 1 11.631110 5.794510 728.549011
341 0 1 11.673630 5.807910 729.494995
342 0 1 11.524879 6.060600 730.391968
343 0 1 11.686670 6.156620 731.325989
344 0 1 11.674089 6.573140 732.218018
345 0 1 11.563680 6.753340 733.208984
346 0 1 11.055059 6.692800 734.044006
347 0 1 10.469620 6.768280 734.781982
348 0 1 9.753690 7.068063 735.419983
349 0 1 9.311769 7.410567 736.301025
350 0 1 9.089940 7.836846 737.153015
351 0 1 8.577583 8.066620 737.979980
352 0 1 8.221048 8.407216 738.797974
353 0 1 8.182472 8.432727 739.794983
354 0 1 8.100427 8.220707 740.742004
355 0 1 7.885393 8.000820 741.606018
356 0 1 7.378536 7.898316 742.507019
357 0 1 7.106646 7.793678 743.432983
358 0 1 6.932070 7.752017 744.384033
359 0 1 6.676760 7.926011 745.278992
360 0 1 6.508810 8.037119 746.242981
361 0 1 6.233810 8.084157 747.158997
362 0 1 5.860010 8.121498 748.041992
363 0 1 5.441240 7.799462 748.891968
364 0 1 4.846840 7.435219 749.489990
365 0 1 4.182510 7.124106 750.094971
366 0 1 3.624250 7.024365 750.839966
367 0 1 3.127450 6.783380 751.679993
368 0 1 2.587660 6.564550 752.424988
369 0 1 2.491950 6.757220 753.372009
370 0 1 2.821830 6.925620 754.263977
371 0 1 3.130180 7.248521 755.122986
372 0 1 3.587910 7.660579 755.830017
373 0 1 3.933960 8.404336 756.336975
374 0 1 4.476270 8.836717 757.033997
375 0 1 4.976920 9.010600 757.922974
376 0 1 5.411110 9.157660 758.754028
377 0 1 5.825410 8.983795 759.565002
378 0 1 6.256550 9.002860 760.422974
379 0 1 6.490460 8.570440 761.268982
380 0 1 6.540000 8.246428 762.200989
381 0 1 6.678390 7.725214 763.109985
382 0 1 6.671470 7.175935 763.898987
383 0 1 6.220940 6.396040 764.416992
384 0 1 5.665590 5.929540 765.037964
385 0 1 4.872950 5.640360 765.495972
386 0 1 4.096890 5.727660 766.049011
387 0 1 3.515290 5.850770 766.766968
388 0 1 3.174340 6.022140 767.604004
389 0 1 3.063240 6.274180 768.559998
390 0 1 2.972800 6.924340 769.249023
391 0 1 3.139370 7.413443 770.106995
392 0 1 3.351010 7.916983 770.839966
393 0 1 3.476990 8.328903 771.674988
394 0 1 3.414130 8.831889 772.559998
395 0 1 3.391800 9.455220 773.259033
396 0 1 3.763990 10.167620 773.903015
397 0 1 4.075960 10.654900 774.643982
398 0 1 4.338050 10.954450 775.542969
399 0 1 4.538190 11.036819 776.488037
400 0 1 4.491880 11.075640 777.408997
401 0 1 4.404540 11.139560 778.391968
402 0 1 4.286640 11.202909 779.327026
403 0 1 4.086750 11.406549 780.307007
404 0 1 4.178760 11.446720 781.309998
405 0 1 4.638200 11.483680 782.213013
406 0 1 5.025110 11.606960 783.115967
407 0 1 5.451750 11.895950 783.896973
408 0 1 5.721200 12.212950 784.700989
409 0 1 5.737690 12.436940 785.713989
410 0 1 5.444620 12.826520 786.594971
411 0 1 5.279610 12.885300 787.523987
412 0 1 5.383390 13.079269 788.445984
413 0 1 5.674220 13.309179 789.346985
414 0 1 6.165120 13.516530 790.113037
415 0 1 6.614260 13.521800 791.010010
416 0 1 6.915740 13.480000 791.919983
417 0 1 7.313170 13.468990 792.859009
418 0 1 7.768596 13.084980 793.588989
419 0 1 8.247155 12.507669 794.245972
420 0 1 8.633727 11.959200 794.948975
421 0 1 8.615544 11.192640 795.614014
422 0 1 8.555469 10.699880 796.484009
423 0 1 8.377941 9.995370 797.139038
424 0 1 8.298887 9.682460 798.070007
425 0 1 8.299276 9.173290 798.827026
426 0 1 8.222769 8.907871 799.721985
427 0 1 7.892395 8.825187 800.559021
428 0 1 7.635519 8.551901 801.453003
429 0 1 7.353439 8.108980 802.294006
430 0 1 7.202864 7.616835 803.075012
431 0 1 7.133338 7.169888 803.921021
432 0 1 7.055667 6.560650 804.645020
433 0 1 6.973800 6.072010 805.453003
434 0 1 7.017571 5.339500 806.130005
435 0 1 7.371098 4.935330 806.893005
436 0 1 7.668178 4.709340 807.786011
437 0 1 8.057188 4.391600 808.666016
438 0 1 8.437594 4.124710 809.492981
439 0 1 9.029860 3.856550 810.203003
440 0 1 9.211320 3.432170 811.073975
441 0 1 8.993094 3.134470 812.035034
442 0 1 8.865475 3.282600 812.992004
443 0 1 8.617595 3.727150 813.778015
444 0 1 8.277589 4.131750 814.737000
445 0 1 8.063775 4.490370 815.645996
446 0 1 7.888836 4.768540 816.510986
447 0 1 7.958960 5.093150 817.405029
448 0 1 8.387227 5.217100 818.195007
449 0 1 8.714215 5.391280 819.153992
450 0 1 9.346450 5.400840 819.898987
451 0 1 9.801000 5.304070 820.744019
452 0 1 10.080260 5.344280 821.684021
453 0 1 10.545060 5.301610 822.497009
454 0 1 11.091280 5.298990 823.270020
455 0 1 11.535200 5.220370 824.192993
456 0 1 11.752069 5.360180 825.109985
457 0 1 12.133250 5.507410 826.002991
458 0 1 12.566111 5.749650 826.807007
459 0 1 12.560790 6.263910 827.660034
460 0 1 12.627600 6.471070 828.539001
461 0 1 12.451700 6.355770 829.505981
462 0 1 12.291620 6.419300 830.481995
463 0 1 12.127319 6.443400 831.442993
464 0 1 11.925660 6.491740 832.419006
465 0 1 11.606920 6.603270 833.375977
466 0 1 11.337120 6.674740 834.299011
467 0 1 10.725240 6.609790 835.052002
468 0 1 10.034370 6.241980 835.609985
469 0 1 9.141430 6.067580 836.052002
470 0 1 8.365471 5.593870 836.333008
471 0 1 7.488445 5.322090 836.360962
472 0 1 6.616790 4.903540 836.234009
473 0 1 5.818850 4.468700 835.943970
474 0 1 5.022330 4.092420 835.526978
475 0 1 4.436870 3.785300 834.778015
476 0 1 4.165480 3.692230 833.859009
477 0 1 3.811050 3.749470 832.955994
478 0 1 4.027310 3.643430 832.021973
479 0 1 4.108260 3.899050 831.085999
480 0 1 4.213330 4.267480 830.228027
481 0 1 4.004360 4.773040 829.422974
482 0 1 3.771380 5.245510 828.619995
483 0 1 3.537200 5.573260 827.648987
484 0 1 3.374170 6.090760 826.780029
485 0 1 3.404860 6.538020 825.893982
486 0 1 3.852000 6.931030 825.080017
487 0 1 4.163440 7.457545 824.367004
488 0 1 4.600810 7.613954 823.561035
489 0 1 4.853230 7.915090 822.688965
490 0 1 4.881510 8.054633 821.733032
491 0 1 5.191650 8.056416 820.812012
492 0 1 5.553300 7.733487 819.983032
493 0 1 6.048290 7.313410 819.333984
494 0 1 6.620700 7.119868 818.575012
495 0 1 7.336240 6.939320 817.860962
496 0 1 8.182759 6.881890 817.276001
497 0 1 8.929004 7.023646 816.700989
498 0 1 9.424940 7.127269 815.932007
499 0 1 9.571050 7.291142 815.011963
500 0 1 9.309070 7.210417 814.078979
501 0 1 9.001490 6.908070 813.177979
502 0 1 8.822376 6.602900 812.197998
503 0 1 8.616721 6.615920 811.223022
504 0 1 8.673223 6.558690 810.228027
505 0 1 8.935067 6.313040 809.275024
506 0 1 8.955500 6.068270 808.369995
507 0 1 8.995715 6.531080 807.494995
508 0 1 9.164170 6.976630 806.667969
509 0 1 9.411630 7.372698 805.804016
510 0 1 9.418890 7.600537 804.931030
511 0 1 9.450040 7.738835 803.978027
512 0 1 9.494450 7.976718 802.955994
513 0 1 9.365680 8.314420 802.070984
514 0 1 9.376369 8.728076 801.228027
515 0 1 9.448650 9.135580 800.356018
516 0 1 9.760320 9.641670 799.606995
517 0 1 10.261590 10.103440 798.955017
518 0 1 10.708790 10.276290 798.148987
519 0 1 11.156480 10.744720 797.419983
520 0 1 11.327440 11.315300 796.515015
521 0 1 11.425230 11.902470 795.661987
522 0 1 11.442550 12.260040 794.786011
523 0 1 11.248210 12.220280 793.832031
524 0 1 10.904320 12.283920 792.885986
525 0 1 10.655951 12.222830 791.945007
526 0 1 10.485060 12.099501 791.004028
527 0 1 10.389750 12.205669 790.088989
528 0 1 10.190560 12.443550 789.117981
529 0 1 9.983810 12.491940 788.202026
530 0 1 9.873730 12.789440 787.297974
531 0 1 9.670910 12.802031 786.385010
532 0 1 9.509809 12.702780 785.343018
533 0 1 9.338400 12.434481 784.432983
534 0 1 9.227489 12.056990 783.447021
535 0 1 8.938241 11.619570 782.671997
536 0 1 8.579834 11.501860 781.791992
537 0 1 8.357180 11.112780 780.854004
538 0 1 8.120768 11.064590 779.875000
539 0 1 8.219213 11.244900 778.901978
540 0 1 8.370347 11.729150 778.106995
541 0 1 8.539749 12.057420 777.184021
542 0 1 8.511589 12.110470 776.153015
543 0 1 8.497969 12.239210 775.179016
544 0 1 8.503470 12.467421 774.255981
545 0 1 8.365053 12.436510 773.343994
546 0 1 8.342386 12.261150 772.393005
547 0 1 8.346570 12.271009 771.424988
548 0 1 8.425940 12.207140 770.471008
549 0 1 8.495610 11.983610 769.495972
550 0 1 8.672956 11.696199 768.598022
551 0 1 8.797152 11.069890 767.815979
552 0 1 8.805130 10.647060 766.957031
553 0 1 8.764929 10.197969 766.127991
554 0 1 8.643827 9.527349 765.450989
555 0 1 8.509764 9.130680 764.552002
556 0 1 8.190373 8.677094 763.744019
557 0 1 8.007963 8.329592 762.838013
558 0 1 7.650276 8.132617 761.932007
559 0 1 7.586677 7.766510 761.059021
560 0 1 7.205513 7.482897 760.207031
561 0 1 6.964430 7.266352 759.266968
562 0 1 6.987540 6.751030 758.460022
563 0 1 7.197501 6.208790 757.721008
564 0 1 7.650065 5.922070 756.922974
565 0 1 8.037748 5.966100 756.025024
566 0 1 8.098939 6.056970 755.096008
567 0 1 8.046334 5.913000 754.039978
568 0 1 8.135744 5.747680 753.083008
569 0 1 7.972495 5.548930 752.122009
570 0 1 7.887926 5.605720 751.114990
571 0 1 7.848694 5.545240 750.161987
572 0 1 7.883859 5.343030 749.237976
573 0 1 7.914942 5.227850 748.302979
574 0 1 7.791317 5.077240 747.377014
575 0 1 7.565505 5.067170 746.408020
576 0 1 7.519722 4.889110 745.427979
577 0 1 7.570154 4.506370 744.528015
578 0 1 7.461747 3.955230 743.723022
579 0 1 7.374692 3.371620 742.890015
580 0 1 7.460230 2.879180 742.098022
581 0 1 7.395165 2.324220 741.367004
582 0 1 7.160330 1.941300 740.476013
583 0 1 7.008961 1.832280 739.538025
584 0 1 6.834220 1.816790 738.560974
585 0 1 6.512020 1.937160 737.663025
586 0 1 6.226300 2.123140 736.679993
587 0 1 6.145810 2.370900 735.749023
588 0 1 5.701370 2.724030 734.958008
589 0 1 5.293360 3.435990 734.353027
590 0 1 4.794780 4.281060 734.134033
591 0 1 4.474670 5.042620 733.536987
592 0 1 4.308470 5.729720 732.839966
593 0 1 4.046210 6.218120 732.064026
594 0 1 4.092080 6.501770 731.130981
595 0 1 4.137290 6.731700 730.226013
596 0 1 4.347060 7.069736 729.317993
597 0 1 4.526640 7.551432 728.477600
598 0 1 4.922460 7.916802 727.716125
599 0 1 5.033310 8.396903 726.843689
600 0 1 5.263760 8.909254 726.089417
601 0 1 5.563420 9.293020 725.160522
602 0 1 5.514720 9.306430 724.238281
603 0 1 5.611730 9.439980 723.287109
604 0 1 5.850500 9.913900 722.439819
605 0 1 6.037300 10.290580 721.549011
606 0 1 6.445380 10.467760 720.705078
607 0 1 6.586850 10.684530 719.784424
608 0 1 6.844690 10.654020 718.895508
609 0 1 7.072345 10.735360 717.973877
610 0 1 7.300212 10.923370 717.020996
611 0 1 7.696356 10.881950 716.112427
612 0 1 8.087465 10.370290 715.375000
613 0 1 8.643786 9.656550 715.011414
614 0 1 9.292170 9.160880 714.432007
615 0 1 9.770170 8.911511 713.703796
616 0 1 10.136220 8.546355 712.912476
617 0 1 10.180230 8.281783 712.007385
618 0 1 10.098880 8.010862 711.094482
619 0 1 10.152081 7.645578 710.195801
620 0 1 10.177660 7.505659 709.285278
621 0 1 10.209830 7.526452 708.343384
622 0 1 10.161780 7.421017 707.391479
623 0 1 9.926010 7.580224 706.483521
624 0 1 9.596650 7.660468 705.579468
625 0 1 9.557690 7.823177 704.603088
626 0 1 9.755760 8.220188 703.675476
627 0 1 9.933150 8.552839 702.835205
628 0 1 10.355550 8.732383 701.942871
629 0 1 10.660930 8.791999 701.012329
630 0 1 10.603910 9.407370 700.280579
631 0 1 10.475821 9.861510 699.409424
632 0 1 10.635820 10.161930 698.463684
633 0 1 10.469680 10.202060 697.546387
634 0 1 10.179950 10.114861 696.631714
635 0 1 9.931430 10.035910 695.647278
636 0 1 9.946100 9.981200 694.673523
637 0 1 9.971230 9.516530 693.777100
638 0 1 10.077130 9.268920 692.879272
639 0 1 10.110090 8.938481 691.944885
640 0 1 10.057760 8.671753 691.037109
641 0 1 9.684760 8.192586 690.342102
642 0 1 9.186360 7.597718 689.700012
643 0 1 9.036580 7.143100 688.914917
644 0 1 8.690332 6.974090 688.060486
645 0 1 8.699177 6.574950 687.193115
646 0 1 8.487451 6.508980 686.242310
647 0 1 8.354268 6.720150 685.295105
648 0 1 8.843662 6.859060 684.436523
649 0 1 9.264250 6.785510 683.553894
650 0 1 9.579930 6.788700 682.603027
651 0 1 9.795790 6.662160 681.676392
652 0 1 9.730050 6.404660 680.737427
653 0 1 9.552890 5.833370 679.949219
654 0 1 9.354090 5.324830 679.138611
655 0 1 8.949552 4.847530 678.347717
656 0 1 8.585507 4.411380 677.554504
657 0 1 7.991717 4.013270 676.874573
658 0 1 7.505824 3.417580 676.275574
659 0 1 6.895860 2.843850 675.697083
660 0 1 6.276960 2.661100 675.051697
661 0 1 5.579580 2.511220 674.431030
662 0 1 4.816990 2.664460 673.943115
663 0 1 4.151040 2.799160 673.197510
664 0 1 3.846240 3.003710 672.360474
665 0 1 3.609700 3.164350 671.370422
666 0 1 3.563260 3.556390 670.481201
667 0 1 3.815960 3.859410 669.570984
668 0 1 3.948640 4.413410 668.843384
669 0 1 4.301660 4.930840 668.075012
670 0 1 4.722750 5.552880 667.346008
671 0 1 4.986040 6.051670 666.527283
672 0 1 4.953810 6.410100 665.559509
673 0 1 5.087330 6.740460 664.671692
674 0 1 5.158630 7.113264 663.802185
675 0 1 4.963870 7.406186 662.937317
676 0 1 4.993060 7.627874 662.014709
677 0 1 5.070310 7.890733 661.083984
678 0 1 5.095750 8.313090 660.238770
679 0 1 5.176570 8.561277 659.309387
680 0 1 5.249870 8.797589 658.413086
681 0 1 5.218080 9.064010 657.422974
682 0 1 5.303680 9.302110 656.466614
683 0 1 5.462150 9.553570 655.577393
684 0 1 5.482550 9.809361 654.630981
685 0 1 5.525620 9.961650 653.676880
686 0 1 5.356320 10.103770 652.753784
687 0 1 4.970010 10.367590 651.896790
688 0 1 4.435610 10.541420 651.032104
689 0 1 4.219570 10.439671 650.160278
690 0 1 3.822720 10.150570 649.321472
691 0 1 3.884950 9.865950 648.404602
692 0 1 3.717970 9.484720 647.529785
693 0 1 3.741170 9.045350 646.631714
694 0 1 3.900440 8.855360 645.684875
695 0 1 4.227100 8.768254 644.750000
696 0 1 4.717060 8.832274 643.897400
697 0 1 5.081200 8.937146 643.059692
698 0 1 5.167790 9.244550 642.087708
699 0 1 5.050060 9.310870 641.124390
700 0 1 4.938580 9.554620 640.172180
701 0 1 4.893200 9.742700 639.252625
702 0 1 5.071580 9.765580 638.343506
703 0 1 5.271810 9.513010 637.504395
704 0 1 5.422060 9.173410 636.622314
705 0 1 5.735050 8.759709 635.743835
706 0 1 6.128350 8.399174 634.934814
707 0 1 6.680640 8.374415 634.155396
708 0 1 7.180768 8.141391 633.329529
709 0 1 7.461993 7.971819 632.486145
710 0 1 8.002691 7.415377 631.856689
711 0 1 8.381273 6.980440 631.001404
712 0 1 8.639852 6.521500 630.192200
713 0 1 8.992153 6.277100 629.345276
714 0 1 9.375510 6.063960 628.493530
715 0 1 9.869770 5.736690 627.796814
716 0 1 10.459590 5.479030 627.173157
717 0 1 11.198200 5.344490 626.482605
718 0 1 11.947720 5.471400 625.925720
719 0 1 12.760550 5.714360 625.540833
720 0 1 13.625380 6.045520 625.191711
721 0 1 14.059500 6.694620 624.612671
722 0 1 14.380119 7.577558 624.092102
723 0 1 14.582251 8.349110 623.578369
724 0 1 14.701530 9.067550 622.865234
725 0 1 14.460970 9.518720 621.996765
726 0 1 14.171750 10.218560 621.340149
727 0 1 14.152480 10.824739 620.560730
728 0 1 13.833380 11.209641 619.705383
729 0 1 13.799250 11.627029 618.796204
730 0 1 13.575750 11.752069 617.812805
731 0 1 13.204770 12.068790 616.991028
732 0 1 12.667370 12.439341 616.237000
733 0 1 12.267460 12.989850 615.448303
734 0 1 11.792840 13.415370 614.648193
735 0 1 11.234990 13.237249 613.874573
736 0 1 10.532090 13.228020 613.183899
737 0 1 9.786840 13.091860 612.571106
738 0 1 9.006270 12.906600 612.078125
739 0 1 8.217274 13.154699 611.499207
740 0 1 7.566532 13.202670 610.839111
741 0 1 7.088448 13.094339 610.013000
742 0 1 7.026931 12.872060 609.086914
743 0 1 6.836660 12.584850 608.150085
744 0 1 7.148668 11.988320 607.517822
745 0 1 7.330105 11.312990 606.881775
746 0 1 7.554371 10.939700 606.059814
747 0 1 7.601273 10.476891 605.210876
748 0 1 7.915590 10.126390 604.331726
749 0 1 7.879615 9.833380 603.399414
750 0 1 8.059464 9.750480 602.471008
751 0 1 8.248644 9.725370 601.565125
752 0 1 8.553922 9.641770 600.641296
753 0 1 8.635088 9.884070 599.695496
754 0 1 8.242014 9.783210 598.895325
755 0 1 7.856132 9.589030 598.049622
756 0 1 7.395177 9.485220 597.285828
757 0 1 6.726800 9.183599 596.701111
758 0 1 5.977590 8.679664 596.301697
759 0 1 5.502490 7.972934 595.835815
760 0 1 5.159630 7.398522 595.078979
761 0 1 4.838710 6.845420 594.428223
762 0 1 4.712060 6.291460 593.648376
763 0 1 4.639810 5.933140 592.718994
764 0 1 4.511400 5.714610 591.794128
765 0 1 4.443320 5.447110 590.933105
766 0 1 4.579760 4.757270 590.227173
767 0 1 4.740630 4.207560 589.477600
768 0 1 4.814170 3.837770 588.615295
769 0 1 5.002110 3.568650 587.670593
770 0 1 5.216990 3.420740 586.682312
771 0 1 5.367330 3.316450 585.743774
772 0 1 5.505500 3.605230 584.872925
773 0 1 5.501370 3.920040 583.972595
774 0 1 5.738920 4.174360 583.093384
775 0 1 5.796610 4.382900 582.161011
776 0 1 5.887570 4.553130 581.187683
777 0 1 6.061290 4.765620 580.242981
778 0 1 6.360370 5.212760 579.417297
779 0 1 6.578000 5.737690 578.652588
780 0 1 6.972790 6.201040 577.894104
781 0 1 7.476099 6.553710 577.209412
782 0 1 7.848220 6.947090 576.365601
783 0 1 8.252634 7.502410 575.680298
784 0 1 8.593968 8.054387 574.926208
785 0 1 8.730331 8.629249 574.140503
786 0 1 8.928577 9.209630 573.349792
787 0 1 9.081740 9.846070 572.588196
788 0 1 9.303061 10.299220 571.803528
789 0 1 9.445700 10.303350 570.808594
790 0 1 9.651200 10.511660 569.840332
791 0 1 9.806390 10.722651 568.943909