LAMMPS data file via MDAnalysis

        1000  atoms
        1000  bonds
        1000  angles
           0  dihedrals
           0  impropers

           1  atom types
           1  bond types
           1  angle types
           0  dihedral types
           0  improper types

0.000000 16.000000 xlo xhi
0.000000 16.000000 ylo yhi
0.000000 1257.000000 zlo zhi


Masses

1 1.000000

Atoms

1 0 1 9.212840 13.710290 449.056000
2 0 1 8.831437 13.601720 449.966980
3 0 1 8.714656 13.608690 450.927002
4 0 1 8.787530 13.578960 451.927002
5 0 1 8.795851 13.339849 452.851990
6 0 1 8.647954 13.114590 453.825989
7 0 1 8.672070 12.993050 454.725006
8 0 1 8.720693 12.901430 455.694000
9 0 1 8.718230 12.784030 456.619995
10 0 1 8.735993 12.754820 457.617981
11 0 1 8.768382 12.787840 458.565979
12 0 1 9.072660 12.809680 459.509003
13 0 1 9.052470 12.940480 460.576996
14 0 1 9.016820 12.894421 461.595001
15 0 1 8.861522 12.597420 462.500000
16 0 1 8.921203 12.406410 463.510010
17 0 1 8.794558 12.385810 464.404999
18 0 1 8.813585 12.258511 465.406982
19 0 1 8.614437 12.047211 466.339996
20 0 1 8.685893 11.788670 467.325989
21 0 1 8.689623 11.825430 468.315979
22 0 1 8.612671 12.027130 469.289001
23 0 1 8.788507 11.909700 470.203003
24 0 1 8.931165 11.815010 471.148987
25 0 1 8.679730 11.827290 472.091003
26 0 1 8.697112 11.955500 473.015991
27 0 1 8.665249 12.228490 474.039978
28 0 1 8.506367 12.477420 475.016998
29 0 1 8.563833 12.782690 475.877991
30 0 1 9.009460 12.999180 476.789001
31 0 1 8.965994 13.099080 477.791016
32 0 1 8.826756 13.056030 478.695984
33 0 1 8.525142 12.962990 479.565979
34 0 1 8.297089 12.902560 480.479980
35 0 1 8.044518 12.542950 481.362000
36 0 1 7.983962 11.987940 482.190979
37 0 1 7.790002 11.331980 482.878998
38 0 1 7.657179 10.711740 483.648010
39 0 1 7.345231 10.434710 484.596985
40 0 1 7.125282 10.061530 485.417999
41 0 1 6.791600 9.552790 486.200989
42 0 1 6.472750 9.009280 486.910004
43 0 1 6.435920 8.897889 487.862000
44 0 1 6.586130 8.900233 488.826996
45 0 1 7.037181 8.997485 489.648987
46 0 1 7.561881 9.039289 490.460999
47 0 1 7.864081 9.128360 491.377991
48 0 1 8.045113 9.372150 492.307983
49 0 1 8.100462 9.797110 493.140015
50 0 1 8.106794 10.406250 493.877991
51 0 1 8.169110 10.965590 494.695007
52 0 1 7.789089 11.155570 495.578003
53 0 1 7.560818 11.440220 496.451996
54 0 1 7.424350 11.665070 497.369019
55 0 1 7.234760 11.559669 498.287994
56 0 1 7.335668 11.450410 499.231995
57 0 1 7.310807 11.501300 500.257996
58 0 1 7.220533 11.484240 501.195007
59 0 1 6.886690 11.638930 502.098999
60 0 1 6.399260 11.805180 502.891998
61 0 1 5.734650 11.863750 503.667999
62 0 1 5.138640 11.598930 504.436005
63 0 1 4.804060 11.476840 505.283997
64 0 1 4.705190 11.439580 506.242981
65 0 1 4.888370 11.483290 507.199005
66 0 1 5.171130 11.490570 508.058990
67 0 1 5.474910 11.557710 509.002014
68 0 1 5.903370 11.750800 509.778992
69 0 1 6.372980 12.152290 510.533997
70 0 1 6.903340 12.224319 511.283997
71 0 1 7.459251 12.343190 512.119995
72 0 1 7.861546 12.216209 512.924988
73 0 1 8.074458 11.882669 513.807983
74 0 1 8.502498 11.444020 514.551025
75 0 1 8.779181 10.757030 515.294006
76 0 1 8.943615 10.145500 515.999023
77 0 1 8.952670 9.565190 516.687988
78 0 1 9.189670 9.162590 517.526978
79 0 1 9.188770 8.669043 518.364990
80 0 1 9.017330 8.098701 519.088989
81 0 1 8.580865 7.629442 519.804016
82 0 1 8.243434 7.508250 520.731018
83 0 1 8.069975 7.705463 521.677979
84 0 1 7.861948 7.862868 522.645020
85 0 1 7.725509 8.396899 523.419983
86 0 1 7.708497 9.020700 524.164001
87 0 1 7.949218 9.690540 524.809021
88 0 1 8.205779 10.161580 525.598999
89 0 1 8.410310 10.544480 526.448975
90 0 1 8.730694 10.960320 527.283997
91 0 1 8.933320 11.285180 528.141968
92 0 1 8.876589 11.382580 529.040588
93 0 1 8.933942 11.374730 530.068909
94 0 1 9.097340 11.449500 531.065186
95 0 1 9.129660 11.642310 532.013306
96 0 1 9.140990 12.321680 532.747314
97 0 1 9.014610 12.790410 533.546875
98 0 1 8.798822 13.217410 534.369202
99 0 1 8.532562 13.469370 535.274170
100 0 1 8.683313 13.547820 536.242310
101 0 1 8.603673 13.680000 537.156189
102 0 1 8.868147 13.824940 538.086975
103 0 1 8.899556 13.802710 539.044006
104 0 1 8.822576 13.642340 539.963074
105 0 1 8.722214 13.655600 540.916321
106 0 1 8.451852 13.518641 541.968689
107 0 1 8.224067 13.399611 542.961121
108 0 1 8.038008 13.388170 543.888428
109 0 1 8.133861 13.269800 544.920776
110 0 1 8.036151 13.005091 545.805420
111 0 1 7.923379 12.434430 546.570312
112 0 1 7.819750 11.734550 547.236572
113 0 1 7.784230 11.112550 547.953796
114 0 1 7.906961 10.693130 548.823303
115 0 1 7.940375 10.082460 549.588684
116 0 1 8.005502 9.852890 550.460693
117 0 1 7.954101 9.970220 551.424316
118 0 1 8.081543 10.163190 552.379822
119 0 1 8.368464 10.487220 553.269897
120 0 1 8.493370 10.520110 554.197876
121 0 1 8.494734 10.379670 555.137207
122 0 1 8.581684 10.186530 556.068115
123 0 1 8.351510 9.822580 556.984924
124 0 1 8.362924 9.422960 557.880371
125 0 1 8.440995 9.088740 558.749268
126 0 1 8.459302 8.826787 559.704285
127 0 1 8.050433 8.795778 560.577393
128 0 1 7.765696 8.752940 561.565796
129 0 1 7.389920 8.897980 562.435181
130 0 1 6.797420 9.101100 563.174500
131 0 1 6.171740 9.192020 563.907288
132 0 1 5.552340 9.130400 564.726624
133 0 1 5.185410 9.098030 565.582825
134 0 1 4.821220 9.371080 566.412109
135 0 1 4.185820 9.372990 567.206726
136 0 1 3.782700 9.528300 568.044922
137 0 1 3.837240 9.596930 569.018005
138 0 1 3.753820 9.593350 569.955078
139 0 1 3.750300 9.787690 570.885498
140 0 1 3.849230 9.996640 571.844421
141 0 1 3.943330 10.337130 572.648010
142 0 1 4.011030 10.846750 573.470520
143 0 1 4.115620 11.466050 574.167969
144 0 1 4.104200 12.069820 574.947876
145 0 1 4.272600 12.443980 575.830627
146 0 1 4.625020 12.732470 576.675171
147 0 1 4.886180 12.870649 577.604492
148 0 1 5.188230 12.928650 578.521301
149 0 1 5.315860 12.745070 579.450195
150 0 1 5.384050 12.184290 580.244324
151 0 1 5.554200 11.841540 581.148621
152 0 1 5.895310 11.402690 581.949585
153 0 1 6.171610 11.012640 582.832825
154 0 1 6.254570 10.344310 583.475525
155 0 1 6.337020 9.693720 584.154297
156 0 1 6.246200 9.176710 584.938416
157 0 1 6.176610 8.558235 585.700500
158 0 1 6.037640 8.125415 586.612915
159 0 1 5.934160 7.991361 587.583801
160 0 1 5.573390 7.959705 588.476929
161 0 1 5.056350 7.687836 589.260925
162 0 1 4.637100 7.564757 590.131897
163 0 1 3.926810 7.642002 590.798279
164 0 1 3.723530 7.443361 591.776001
165 0 1 3.594800 7.236089 592.686096
166 0 1 3.289010 7.113460 593.604309
167 0 1 3.160530 7.124493 594.555420
168 0 1 3.327270 7.131963 595.473694
169 0 1 3.638150 7.300342 596.396118
170 0 1 4.135310 7.602858 597.167114
171 0 1 4.840260 7.679371 597.799011
172 0 1 5.314020 7.774842 598.675415
173 0 1 5.748310 7.889388 599.529785
174 0 1 6.174660 8.010683 600.468628
175 0 1 6.428560 8.296678 601.321472
176 0 1 6.297530 8.632743 602.248596
177 0 1 6.315050 8.838456 603.144592
178 0 1 6.592590 9.113340 604.027283
179 0 1 6.936700 9.609430 604.807983
180 0 1 6.974800 9.906470 605.742798
181 0 1 7.192145 10.077160 606.707275
182 0 1 7.210395 10.215110 607.620300
183 0 1 7.193753 10.222770 608.592773
184 0 1 6.995200 9.956230 609.477905
185 0 1 7.015877 9.702650 610.355591
186 0 1 6.984830 9.483330 611.261108
187 0 1 6.818380 9.348750 612.192383
188 0 1 6.521320 9.473130 613.099609
189 0 1 6.556720 9.622100 614.020508
190 0 1 6.705500 9.783980 614.931213
191 0 1 6.973320 9.905320 615.833923
192 0 1 7.192800 9.538550 616.711487
193 0 1 7.350562 9.159500 617.531677
194 0 1 7.326866 8.847466 618.444580
195 0 1 7.387275 8.822239 619.383606
196 0 1 7.446622 8.670479 620.394348
197 0 1 7.552707 8.631873 621.379517
198 0 1 7.686876 8.323269 622.280334
199 0 1 8.175173 8.025865 623.145935
200 0 1 8.171749 7.698847 624.038940
201 0 1 8.126334 7.733937 625.077759
202 0 1 7.955505 7.772628 626.057129
203 0 1 7.868166 7.938110 627.030762
204 0 1 7.370961 7.940942 627.886475
205 0 1 6.940840 8.217556 628.706604
206 0 1 6.401700 8.426108 629.499329
207 0 1 6.198620 8.527008 630.454651
208 0 1 6.405990 8.622432 631.385376
209 0 1 6.394990 8.404396 632.378662
210 0 1 6.116430 8.126808 633.265381
211 0 1 5.682320 7.880381 634.069763
212 0 1 5.500350 7.570912 634.962219
213 0 1 4.993660 7.434905 635.773804
214 0 1 4.641710 7.309289 636.678040
215 0 1 4.422190 6.988290 637.564453
216 0 1 4.358990 6.978130 638.553711
217 0 1 4.245460 6.855520 639.626770
218 0 1 4.070520 6.898010 640.562683
219 0 1 3.905080 7.016361 641.485901
220 0 1 3.981350 7.209141 642.406128
221 0 1 3.958820 7.229185 643.400696
222 0 1 3.869200 7.239084 644.347473
223 0 1 3.670050 7.030415 645.330688
224 0 1 3.356570 7.258143 646.205200
225 0 1 3.038870 7.473008 647.098816
226 0 1 2.688920 7.441710 648.032715
227 0 1 2.695920 7.377450 648.985413
228 0 1 2.586340 7.045591 649.871521
229 0 1 2.555020 7.059734 650.830017
230 0 1 2.584060 7.094490 651.797119
231 0 1 2.674350 7.254968 652.724792
232 0 1 3.071100 6.994850 653.595581
233 0 1 3.665890 7.088345 654.434875
234 0 1 4.427720 7.305409 654.973877
235 0 1 5.251300 7.563519 655.446594
236 0 1 5.788480 8.165072 655.958923
237 0 1 6.373040 8.410573 656.703369
238 0 1 6.915810 8.575236 657.462585
239 0 1 7.255100 8.976600 658.299683
240 0 1 7.166304 9.211680 659.237000
241 0 1 7.073670 9.300260 660.168213
242 0 1 6.911830 9.335290 661.065674
243 0 1 6.712110 9.266180 662.138184
244 0 1 6.484740 9.091100 662.997986
245 0 1 6.173800 9.128950 663.922913
246 0 1 5.873610 8.898490 664.877625
247 0 1 5.933580 8.744397 665.804810
248 0 1 5.951570 8.167984 666.552185
249 0 1 5.845500 7.625274 667.368896
250 0 1 5.518180 7.355240 668.279724
251 0 1 5.282020 7.246137 669.160889
252 0 1 5.131710 6.960760 670.027588
253 0 1 4.973750 7.113653 670.898804
254 0 1 4.921320 7.499453 671.784180
255 0 1 4.726270 7.792757 672.697205
256 0 1 4.760390 7.853296 673.637085
257 0 1 4.729000 8.079771 674.574585
258 0 1 4.800590 8.555108 675.389709
259 0 1 4.774030 8.896133 676.249573
260 0 1 4.728510 9.215320 677.209290
261 0 1 4.663240 9.561069 678.114380
262 0 1 4.407560 9.773470 679.021179
263 0 1 4.162510 9.422810 679.911499
264 0 1 3.797570 9.309960 680.776489
265 0 1 3.574370 9.196450 681.694580
266 0 1 3.111880 9.204580 682.519104
267 0 1 2.672880 9.363010 683.347778
268 0 1 2.303420 9.416480 684.234985
269 0 1 1.903560 9.337310 685.155029
270 0 1 1.602380 9.489050 686.081909
271 0 1 1.360650 9.135250 686.936707
272 0 1 1.295310 9.197040 687.898499
273 0 1 1.411790 9.364240 688.814697
274 0 1 1.867670 9.697150 689.569885
275 0 1 2.156700 10.164140 690.401794
276 0 1 2.605490 10.813950 691.075195
277 0 1 3.072140 11.150420 691.922302
278 0 1 3.693470 11.383920 692.714966
279 0 1 4.215030 11.319201 693.548218
280 0 1 4.788860 11.213440 694.379028
281 0 1 4.922820 11.063890 695.283875
282 0 1 5.132430 11.110730 696.171021
283 0 1 5.367340 10.815260 697.091431
284 0 1 5.686240 10.536990 697.972290
285 0 1 6.351720 10.295959 698.734314
286 0 1 6.925630 10.171170 699.519714
287 0 1 7.586591 10.107470 700.141602
288 0 1 8.128328 10.045890 700.886902
289 0 1 8.401520 9.844030 701.805298
290 0 1 8.499453 9.793290 702.757874
291 0 1 8.141170 9.823220 703.667419
292 0 1 7.866242 9.457910 704.483215
293 0 1 7.885872 9.090190 705.385010
294 0 1 8.131172 8.810984 706.360779
295 0 1 8.194891 8.698847 707.397888
296 0 1 8.436346 8.549170 708.320068
297 0 1 8.536429 8.032701 709.148926
298 0 1 8.670190 7.488558 709.905212
299 0 1 9.021300 6.971290 710.682678
300 0 1 9.103080 6.241490 711.363220
301 0 1 9.282770 5.445710 711.950806
302 0 1 9.573450 4.667040 712.534790
303 0 1 9.742420 4.113990 713.317322
304 0 1 9.893020 3.840530 714.223022
305 0 1 9.940250 3.554840 715.117432
306 0 1 10.135830 3.675330 716.028931
307 0 1 10.143330 3.408450 716.947632
308 0 1 10.278450 3.048810 717.830994
309 0 1 10.037750 2.718510 718.696594
310 0 1 9.616300 2.433040 719.457703
311 0 1 9.199409 2.516350 720.270386
312 0 1 8.617954 2.504800 721.095703
313 0 1 7.968994 2.641410 721.751709
314 0 1 7.346094 2.830400 722.521729
315 0 1 6.648570 3.062150 723.229492
316 0 1 6.047650 2.954030 723.983521
317 0 1 5.590710 2.846990 724.812195
318 0 1 5.163530 2.766490 725.630615
319 0 1 5.202740 2.571250 726.552185
320 0 1 5.239510 2.549710 727.517883
321 0 1 5.498830 2.451970 728.431091
322 0 1 5.702010 2.496170 729.312988
323 0 1 5.914530 2.638440 730.273010
324 0 1 6.002010 2.736700 731.237976
325 0 1 6.064980 3.001140 732.219971
326 0 1 6.472960 3.301230 733.094971
327 0 1 7.051536 3.338880 733.856018
328 0 1 7.739204 3.205920 734.486023
329 0 1 8.429071 3.159240 735.158020
330 0 1 9.222360 3.157180 735.747986
331 0 1 9.954940 3.168600 736.403015
332 0 1 10.527560 3.210860 737.158020
333 0 1 11.051370 3.238830 737.919983
334 0 1 11.399360 3.148320 738.830994
335 0 1 11.499990 3.432600 739.750977
336 0 1 11.304490 3.915520 740.533020
337 0 1 10.987720 4.074070 741.434021
338 0 1 10.692960 4.571120 742.169006
339 0 1 10.591920 5.004030 743.007019
340 0 1 10.281430 5.469400 743.750977
341 0 1 9.878180 5.762410 744.544983
342 0 1 9.741590 6.471090 745.153992
343 0 1 9.470450 7.136024 745.864014
344 0 1 9.439890 7.882705 746.505981
345 0 1 9.990140 8.287117 747.169006
346 0 1 10.425480 8.686587 747.901001
347 0 1 10.679461 9.040640 748.783020
348 0 1 11.002620 9.309720 749.705994
349 0 1 10.994300 9.548800 750.627991
350 0 1 10.862070 9.779750 751.585022
351 0 1 10.662900 10.098920 752.471985
352 0 1 10.468960 10.708570 753.174011
353 0 1 10.420910 10.847290 754.104980
354 0 1 10.415030 10.895930 755.056030
355 0 1 10.593150 11.202060 755.940979
356 0 1 10.653590 10.916270 756.895996
357 0 1 10.988920 10.505370 757.749023
358 0 1 11.464500 9.947810 758.356995
359 0 1 11.958430 9.430150 759.039978
360 0 1 12.343440 8.847898 759.778992
361 0 1 12.571100 8.330868 760.573975
362 0 1 12.672421 7.643214 761.250000
363 0 1 12.961100 6.958530 761.820007
364 0 1 13.109449 6.607220 762.744995
365 0 1 13.028460 6.429540 763.658997
366 0 1 13.176300 6.210290 764.619995
367 0 1 13.189840 5.864590 765.445007
368 0 1 13.314980 6.008200 766.389038
369 0 1 12.918180 6.258980 767.287964
370 0 1 12.454510 6.350670 768.139038
371 0 1 11.847800 6.682720 768.813965
372 0 1 11.402700 7.220681 769.484009
373 0 1 11.004030 7.704192 770.257019
374 0 1 10.533940 7.763445 771.089966
375 0 1 10.159850 7.658890 772.023987
376 0 1 9.718530 7.737119 772.863037
377 0 1 9.188740 7.739133 773.677979
378 0 1 8.770280 7.795675 774.544006
379 0 1 8.460104 7.551126 775.515991
380 0 1 8.134722 7.345772 776.356018
381 0 1 7.708262 7.480872 777.247986
382 0 1 7.405986 7.390885 778.182007
383 0 1 7.189635 7.414938 779.088013
384 0 1 7.083113 7.411379 780.073975
385 0 1 6.906450 7.583425 780.989014
386 0 1 6.880020 7.823803 781.924988
387 0 1 6.907110 7.792637 782.865967
388 0 1 6.780910 7.647230 783.843994
389 0 1 6.823350 7.418794 784.786011
390 0 1 7.037046 7.122903 785.705994
391 0 1 7.376929 6.927330 786.617004
392 0 1 7.812461 6.924670 787.458008
393 0 1 8.464772 7.006673 788.237000
394 0 1 9.039370 7.045469 789.033020
395 0 1 9.583030 7.306838 789.716003
396 0 1 10.327710 7.683573 790.238037
397 0 1 10.991210 8.057916 790.817017
398 0 1 11.441230 8.655772 791.375977
399 0 1 11.583060 9.152590 792.235962
400 0 1 11.539580 9.651680 793.115967
401 0 1 11.722500 9.983680 793.979004
402 0 1 11.707020 10.433760 794.825989
403 0 1 11.955370 11.008110 795.562988
404 0 1 12.187950 11.516780 796.335999
405 0 1 12.421070 11.781549 797.207031
406 0 1 12.342400 11.923990 798.260986
407 0 1 12.088130 12.168440 799.148010
408 0 1 11.577960 12.573570 799.924988
409 0 1 11.024990 12.932250 800.671997
410 0 1 10.559930 13.070140 801.523987
411 0 1 9.987780 13.175270 802.283997
412 0 1 9.257430 13.156130 802.837036
413 0 1 8.557878 12.700120 803.223999
414 0 1 7.965967 12.131160 803.747986
415 0 1 7.632170 11.494290 804.278992
416 0 1 7.197017 10.907880 804.940002
417 0 1 6.560470 10.533560 805.484985
418 0 1 6.138080 9.986880 806.122986
419 0 1 5.642200 9.561280 806.813965
420 0 1 5.102460 9.279140 807.557007
421 0 1 4.583810 9.002020 808.335022
422 0 1 4.228490 8.612623 809.110962
423 0 1 4.103450 8.191254 809.983032
424 0 1 3.874400 8.204019 810.945984
425 0 1 3.933270 8.372347 811.895996
426 0 1 4.112440 8.659709 812.750000
427 0 1 4.347760 9.167640 813.627991
428 0 1 4.720470 9.420690 814.473022
429 0 1 5.133430 9.738830 815.297974
430 0 1 5.416170 10.263800 816.072021
431 0 1 5.560080 10.692290 816.927979
432 0 1 5.638400 11.043990 817.773987
433 0 1 5.958210 11.332690 818.630005
434 0 1 5.983280 11.717220 819.505981
435 0 1 6.176310 12.032890 820.390015
436 0 1 5.978990 12.398890 821.273010
437 0 1 5.866480 12.874189 822.110962
438 0 1 5.967970 13.424510 822.895996
439 0 1 6.260220 13.766399 823.787964
440 0 1 6.137380 13.834650 824.735962
441 0 1 6.150320 13.681570 825.739014
442 0 1 6.380700 13.762930 826.729980
443 0 1 6.603740 13.658990 827.617981
444 0 1 6.435290 13.313760 828.510986
445 0 1 6.449550 13.026780 829.438965
446 0 1 6.466600 12.767981 830.343994
447 0 1 6.551610 12.710340 831.351013
448 0 1 6.924810 12.824390 832.250977
449 0 1 7.558274 13.165140 832.917969
450 0 1 8.225320 13.422640 833.520020
451 0 1 9.052640 13.432341 834.122009
452 0 1 9.814460 13.576281 834.714966
453 0 1 10.609680 13.488430 835.190002
454 0 1 11.546030 13.342820 835.234009
455 0 1 12.384240 12.840790 834.968018
456 0 1 12.960190 12.318280 834.325989
457 0 1 13.337220 11.629760 833.755981
458 0 1 13.671450 11.175720 832.960999
459 0 1 14.208179 10.865530 832.275024
460 0 1 14.341750 10.522110 831.374023
461 0 1 14.487640 10.126420 830.489014
462 0 1 14.415330 9.692050 829.587036
463 0 1 14.540810 9.410320 828.640991
464 0 1 14.372410 9.394930 827.705994
465 0 1 14.069370 9.139950 826.773010
466 0 1 13.734020 8.973290 825.903992
467 0 1 13.376511 8.628080 825.061035
468 0 1 12.921530 7.987719 824.458984
469 0 1 12.393670 7.507629 823.815979
470 0 1 12.051439 6.961960 823.065002
471 0 1 11.810250 6.506530 822.261963
472 0 1 11.539940 6.263210 821.382996
473 0 1 11.156549 5.847140 820.598999
474 0 1 10.761430 5.246940 820.005005
475 0 1 10.025390 4.890380 819.476013
476 0 1 9.258260 4.995910 818.940002
477 0 1 8.639529 4.825670 818.242981
478 0 1 8.110130 4.509400 817.455017
479 0 1 7.626569 4.518470 816.620972
480 0 1 7.080309 4.500980 815.822998
481 0 1 6.719520 4.445230 814.932983
482 0 1 6.470070 4.606260 814.026001
483 0 1 6.328110 4.713160 813.033020
484 0 1 6.180280 5.276690 812.283020
485 0 1 6.030760 5.626850 811.367004
486 0 1 5.659960 5.764820 810.374023
487 0 1 5.478920 5.812730 809.411987
488 0 1 5.164670 6.108950 808.559998
489 0 1 4.528300 6.381310 807.885010
490 0 1 3.873480 6.901920 807.386963
491 0 1 3.349220 7.076516 806.578003
492 0 1 2.883130 7.283658 805.747009
493 0 1 2.667700 7.452039 804.723999
494 0 1 2.622270 7.742234 803.796997
495 0 1 2.756290 8.052589 802.898010
496 0 1 2.719570 8.366164 801.995972
497 0 1 2.684850 8.891648 801.247009
498 0 1 2.406090 9.485130 800.523010
499 0 1 2.563960 10.019160 799.731995
500 0 1 2.562370 10.497810 798.952026
501 0 1 2.539750 10.898330 798.093994
502 0 1 2.834070 11.043810 797.161011
503 0 1 3.384170 11.368160 796.382996
504 0 1 3.703050 11.894990 795.686035
505 0 1 4.121360 11.965970 794.807983
506 0 1 4.331720 12.020790 793.867004
507 0 1 4.664090 11.775990 792.981995
508 0 1 5.007640 11.618740 792.036987
509 0 1 5.684610 11.442870 791.356018
510 0 1 6.307790 11.292260 790.666016
511 0 1 7.092926 11.279230 790.059998
512 0 1 7.705863 11.319260 789.364014
513 0 1 8.206910 11.213921 788.580994
514 0 1 8.448970 11.308760 787.648010
515 0 1 8.818205 11.531670 786.825012
516 0 1 8.855257 11.723190 785.891968
517 0 1 9.016700 11.694000 784.957031
518 0 1 9.552120 11.607090 784.195007
519 0 1 9.791780 11.656460 783.254028
520 0 1 9.747110 11.737260 782.283020
521 0 1 9.711940 11.629250 781.255981
522 0 1 9.520750 11.295100 780.432007
523 0 1 9.165030 10.959850 779.507996
524 0 1 8.841775 10.751070 778.648010
525 0 1 8.677866 10.494950 777.734009
526 0 1 8.315432 10.213340 776.889038
527 0 1 8.200702 9.703890 776.026978
528 0 1 8.037974 9.170959 775.198975
529 0 1 7.652902 8.840478 774.429016
530 0 1 7.010617 8.600414 773.775024
531 0 1 6.587040 8.093523 773.151978
532 0 1 6.221010 7.725312 772.307007
533 0 1 5.853660 7.274908 771.556030
534 0 1 5.702160 7.112087 770.630981
535 0 1 6.050810 6.946470 769.719971
536 0 1 6.366350 6.730580 768.841980
537 0 1 6.642990 6.317220 768.041992
538 0 1 6.544410 5.978490 767.082031
539 0 1 6.726140 5.307200 766.318970
540 0 1 6.592720 4.785560 765.563965
541 0 1 6.388610 4.164500 764.869019
542 0 1 6.354850 3.593270 764.103027
543 0 1 6.540450 3.208910 763.299011
544 0 1 6.676040 2.979050 762.406982
545 0 1 6.611880 2.882200 761.473999
546 0 1 6.557280 3.048760 760.471008
547 0 1 6.324810 3.148390 759.445007
548 0 1 6.322270 3.708300 758.610962
549 0 1 6.406580 4.255190 757.823975
550 0 1 6.211060 4.808690 757.065002
551 0 1 6.108300 5.235960 756.181030
552 0 1 5.659230 5.660390 755.377991
553 0 1 5.183240 5.999980 754.646973
554 0 1 4.765550 6.205590 753.733032
555 0 1 4.257380 6.301630 752.913025
556 0 1 3.906850 6.151370 752.067993
557 0 1 3.703930 6.217530 751.145020
558 0 1 3.651940 6.251030 750.213013
559 0 1 3.760500 6.272220 749.240967
560 0 1 4.334850 6.390930 748.505981
561 0 1 4.964300 6.343150 747.781982
562 0 1 5.512180 6.110060 747.020996
563 0 1 6.364240 6.054100 746.492981
564 0 1 7.214238 6.126370 746.078003
565 0 1 7.901067 6.160920 745.484009
566 0 1 8.338776 6.201010 744.611023
567 0 1 8.613517 6.593460 743.734009
568 0 1 8.823022 7.191943 742.964966
569 0 1 9.104980 7.801467 742.257019
570 0 1 9.465160 8.310906 741.434998
571 0 1 9.462780 8.950626 740.707031
572 0 1 9.540051 9.587820 740.026001
573 0 1 9.656170 10.161830 739.257019
574 0 1 9.536040 10.426540 738.382996
575 0 1 9.722210 10.943860 737.568970
576 0 1 9.913140 11.402411 736.713013
577 0 1 9.831460 11.798880 735.827026
578 0 1 9.767200 11.774810 734.838013
579 0 1 9.767760 11.835250 733.895020
580 0 1 9.596951 11.921680 732.957031
581 0 1 9.357930 12.324680 732.035034
582 0 1 9.388230 12.597890 731.109985
583 0 1 8.997538 12.801041 730.237976
584 0 1 8.846368 12.677820 729.291016
585 0 1 8.371270 12.363810 728.473999
586 0 1 8.125467 11.922250 727.636719
587 0 1 7.675422 11.414090 727.045166
588 0 1 7.266248 10.697590 726.487976
589 0 1 6.449240 10.369440 726.036194
590 0 1 5.573780 10.233720 725.710876
591 0 1 4.816180 9.949710 725.168579
592 0 1 4.211140 9.518950 724.495117
593 0 1 3.757740 9.096270 723.766174
594 0 1 3.113810 8.657331 723.140198
595 0 1 2.538290 8.092058 722.484802
596 0 1 2.214800 7.727486 721.641724
597 0 1 2.119910 7.506371 720.690186
598 0 1 1.812920 7.392795 719.753174
599 0 1 1.637000 7.014186 718.867493
600 0 1 1.606350 6.462790 718.062134
601 0 1 1.512750 6.138750 717.196777
602 0 1 1.548990 5.834000 716.296204
603 0 1 1.896890 5.636660 715.472412
604 0 1 2.405480 5.366170 714.727905
605 0 1 2.903700 4.977560 714.007385
606 0 1 3.486240 4.439210 713.523987
607 0 1 4.121680 3.899450 713.112488
608 0 1 4.844930 3.306660 712.900024
609 0 1 5.428600 2.857420 712.238098
610 0 1 5.873430 2.340910 711.489990
611 0 1 6.336920 2.372970 710.633911
612 0 1 6.752180 2.182040 709.739075
613 0 1 7.174526 1.885270 708.899902
614 0 1 7.623917 1.724120 708.039978
615 0 1 8.244880 1.572490 707.246216
616 0 1 8.962509 1.527860 706.583984
617 0 1 9.617870 1.564900 705.849304
618 0 1 10.238950 1.858540 705.160278
619 0 1 10.760390 2.002380 704.294983
620 0 1 11.387990 2.297370 703.551514
621 0 1 11.832610 2.646810 702.802368
622 0 1 11.988359 3.011520 701.949890
623 0 1 12.063980 3.312030 701.050110
624 0 1 12.199810 3.835290 700.327881
625 0 1 12.495790 4.289110 699.572205
626 0 1 12.834470 4.962470 698.927612
627 0 1 13.179501 5.509900 698.207092
628 0 1 13.528970 6.044820 697.470520
629 0 1 13.837669 6.371870 696.631897
630 0 1 13.790950 6.696920 695.699219
631 0 1 13.585190 7.027933 694.820679
632 0 1 13.540520 7.311078 693.912292
633 0 1 13.309230 7.355247 692.949097
634 0 1 13.053181 7.334569 692.019775
635 0 1 13.028330 7.034533 691.108887
636 0 1 12.920200 6.809210 690.213989
637 0 1 12.857410 6.697040 689.250427
638 0 1 12.876730 6.650360 688.248169
639 0 1 12.846320 6.476620 687.307800
640 0 1 12.931360 6.376620 686.383118
641 0 1 12.699221 5.974330 685.497498
642 0 1 12.250120 5.784990 684.626831
643 0 1 11.721260 5.498660 683.903503
644 0 1 11.233160 5.369080 683.094299
645 0 1 10.758101 5.021250 682.275269
646 0 1 10.229240 4.992540 681.414001
647 0 1 9.791121 5.137950 680.590210
648 0 1 9.093450 5.413060 679.980713
649 0 1 8.512962 5.863950 679.354309
650 0 1 7.953160 6.008650 678.598022
651 0 1 7.625755 6.366740 677.784912
652 0 1 7.584612 6.578820 676.856201
653 0 1 7.694310 6.832200 675.926697
654 0 1 7.633236 7.171432 674.964417
655 0 1 7.733986 7.413616 674.019409
656 0 1 7.916893 7.739525 673.119995
657 0 1 8.436878 7.772941 672.295593
658 0 1 8.844445 7.792667 671.410522
659 0 1 9.207860 7.823167 670.516296
660 0 1 9.623950 8.098697 669.572021
661 0 1 10.084579 8.521175 668.875916
662 0 1 10.479560 9.018100 668.104919
663 0 1 10.699369 9.643820 667.388184
664 0 1 10.888770 10.166250 666.609619
665 0 1 10.904100 10.804399 665.909973
666 0 1 10.839650 11.506920 665.238098
667 0 1 10.428790 12.149300 664.600525
668 0 1 10.228500 12.406750 663.718994
669 0 1 9.969230 12.619590 662.824890
670 0 1 9.712280 12.841470 661.948120
671 0 1 9.392490 12.739770 661.025513
672 0 1 8.944742 12.341721 660.253113
673 0 1 8.579557 12.326740 659.330200
674 0 1 8.511393 12.005330 658.443726
675 0 1 8.334948 11.527650 657.634705
676 0 1 8.226949 10.996220 656.775574
677 0 1 8.367318 10.562980 655.919983
678 0 1 8.343469 9.786570 655.377075
679 0 1 8.184592 9.102840 654.708618
680 0 1 7.872040 8.536221 654.021423
681 0 1 7.872488 7.854675 653.367188
682 0 1 7.719116 7.220507 652.679199
683 0 1 7.519154 6.895240 651.895874
684 0 1 7.252334 6.505410 651.086121
685 0 1 6.991110 6.527450 650.190430
686 0 1 6.497640 6.529190 649.405701
687 0 1 6.453710 6.473130 648.447205
688 0 1 6.045190 6.584940 647.539795
689 0 1 5.922240 6.363950 646.603882
690 0 1 5.973110 6.125460 645.737427
691 0 1 6.116470 5.820760 644.908081
692 0 1 6.593570 5.653460 644.086609
693 0 1 6.878430 5.335010 643.254700
694 0 1 7.112361 4.903130 642.449829
695 0 1 7.257733 4.514860 641.576111
696 0 1 7.444772 4.334060 640.640625
697 0 1 7.497703 4.333500 639.610718
698 0 1 7.715133 4.623150 638.690002
699 0 1 7.694845 4.823290 637.779175
700 0 1 7.387780 4.958550 636.929260
701 0 1 7.149656 5.376190 636.074280
702 0 1 6.803300 5.866440 635.377441
703 0 1 6.310700 6.110260 634.648926
704 0 1 5.697610 6.492390 634.033508
705 0 1 5.073990 7.082679 633.441040
706 0 1 4.960460 7.877902 632.838623
707 0 1 4.920740 8.488078 632.099548
708 0 1 4.881640 9.127420 631.371338
709 0 1 5.210730 9.758130 630.715576
710 0 1 5.791670 10.291719 630.138428
711 0 1 6.306300 10.788520 629.521484
712 0 1 6.858370 11.072710 628.731567
713 0 1 7.335819 10.988010 627.893555
714 0 1 7.996489 10.899220 627.174622
715 0 1 8.407730 10.787120 626.354126
716 0 1 8.468014 10.885910 625.318665
717 0 1 8.207451 11.006200 624.427307
718 0 1 7.920918 11.132950 623.439514
719 0 1 7.903310 11.358130 622.543274
720 0 1 8.101400 11.765790 621.716125
721 0 1 8.563215 12.038570 620.856934
722 0 1 8.892068 12.371210 620.005066
723 0 1 9.296860 12.458150 619.140503
724 0 1 9.746680 12.475700 618.314819
725 0 1 10.070850 12.503730 617.460693
726 0 1 10.221251 12.987710 616.557983
727 0 1 10.227261 13.460131 615.679504
728 0 1 10.270660 13.758260 614.772705
729 0 1 10.331440 13.882100 613.802429
730 0 1 10.471980 13.784400 612.862793
731 0 1 10.261350 13.770000 611.905212
732 0 1 9.955570 13.773140 610.967529
733 0 1 9.524880 13.409740 610.144409
734 0 1 9.181450 12.791400 609.438721
735 0 1 9.088930 12.043200 608.800171
736 0 1 9.036770 11.308599 608.138977
737 0 1 8.865814 10.607950 607.447083
738 0 1 8.842392 10.003170 606.723572
739 0 1 9.184110 9.513320 605.949829
740 0 1 9.431580 9.088380 605.128601
741 0 1 9.690180 8.814452 604.241821
742 0 1 10.263620 8.596365 603.557678
743 0 1 10.811359 8.263996 602.789001
744 0 1 11.189460 7.724228 602.116882
745 0 1 11.516740 7.281360 601.324280
746 0 1 11.797540 7.198589 600.393616
747 0 1 12.076050 7.384800 599.434998
748 0 1 12.493160 7.512071 598.585205
749 0 1 12.888010 7.883780 597.773926
750 0 1 12.898211 8.206940 596.937500
751 0 1 12.769480 8.454221 596.011719
752 0 1 12.837250 8.465643 595.008789
753 0 1 12.676960 8.543239 594.065674
754 0 1 12.391439 8.658477 593.163025
755 0 1 12.448250 8.866191 592.222778
756 0 1 12.316151 9.014460 591.194397
757 0 1 11.890110 9.241760 590.423889
758 0 1 11.417000 9.477200 589.605713
759 0 1 10.811180 9.644550 588.889282
760 0 1 10.390500 9.935660 588.123108
761 0 1 9.817320 10.252930 587.357483
762 0 1 9.267310 10.399270 586.479309
763 0 1 8.977018 10.456650 585.566711
764 0 1 8.981462 10.900720 584.698730
765 0 1 9.076230 11.300080 583.813110
766 0 1 8.947860 11.600090 582.898193
767 0 1 8.482571 11.361940 582.090393
768 0 1 8.070154 11.390750 581.165405
769 0 1 7.982615 11.596490 580.180115
770 0 1 8.055935 11.655970 579.166077
771 0 1 8.207476 11.750140 578.234131
772 0 1 8.351815 11.724930 577.327087
773 0 1 8.408696 11.788230 576.397705
774 0 1 8.107332 11.710800 575.478394
775 0 1 7.598880 11.665390 574.570190
776 0 1 7.449203 11.467140 573.654297
777 0 1 7.601716 10.979160 572.857178
778 0 1 7.802920 10.731240 571.980225
779 0 1 8.198449 10.338020 571.179504
780 0 1 8.833665 9.997830 570.479614
781 0 1 9.337870 9.893910 569.665222
782 0 1 9.783260 9.660490 568.868286
783 0 1 10.242810 9.582500 568.029480
784 0 1 10.862140 9.630080 567.371704
785 0 1 11.379990 9.695670 566.522522
786 0 1 11.400780 9.570880 565.574890
787 0 1 11.370940 9.429180 564.582214
788 0 1 11.498750 9.400330 563.676270
789 0 1 11.580260 9.575010 562.748901
790 0 1 11.482719 9.745970 561.828308
791 0 1 11.101610 10.125390 561.029907