LAMMPS data file via MDAnalysis

        1000  atoms
        1000  bonds
        1000  angles
           0  dihedrals
           0  impropers

           1  atom types
           1  bond types
           1  angle types
           0  dihedral types
           0  improper types

0.000000 16.000000 xlo xhi
0.000000 16.000000 ylo yhi
0.000000 1257.000000 zlo zhi


Masses

1 1.000000

Atoms

1 0 1 4.772910 3.964140 452.677979
2 0 1 4.759060 4.331130 453.632996
3 0 1 4.667850 4.729530 454.536987
4 0 1 4.371070 5.044900 455.437988
5 0 1 4.406800 5.246140 456.424011
6 0 1 4.604260 5.563280 457.296021
7 0 1 4.899580 5.632950 458.248993
8 0 1 5.316400 5.780860 459.132019
9 0 1 5.819990 6.044030 459.901001
10 0 1 6.481770 6.493910 460.455994
11 0 1 7.078063 6.890110 461.187988
12 0 1 7.483305 7.482087 461.825012
13 0 1 7.804128 7.888065 462.671997
14 0 1 8.164505 8.043787 463.554993
15 0 1 8.164403 8.490057 464.424011
16 0 1 8.147953 9.066401 465.227997
17 0 1 8.325270 9.910050 465.786011
18 0 1 8.144037 10.495399 466.444000
19 0 1 8.031397 10.547900 467.390015
20 0 1 8.132126 10.698410 468.352997
21 0 1 8.028935 10.664300 469.328003
22 0 1 8.192711 10.528120 470.229004
23 0 1 8.261918 9.808830 470.839996
24 0 1 8.142014 9.151160 471.460999
25 0 1 8.120841 8.380524 472.076996
26 0 1 8.300468 7.472046 472.455994
27 0 1 8.081451 6.598170 472.934998
28 0 1 7.748396 5.833030 473.414001
29 0 1 7.144085 5.368620 474.014008
30 0 1 6.652150 4.989950 474.786987
31 0 1 6.391690 4.573810 475.565979
32 0 1 6.266980 4.390280 476.570984
33 0 1 6.066850 4.137050 477.473999
34 0 1 5.758060 3.875730 478.445984
35 0 1 5.853380 3.631770 479.298004
36 0 1 5.977410 3.352560 480.221008
37 0 1 6.028520 3.350060 481.240997
38 0 1 6.072850 3.261520 482.192993
39 0 1 6.368520 3.008690 483.117981
40 0 1 6.458210 2.535170 483.998993
41 0 1 6.866130 2.288440 484.897003
42 0 1 7.312593 2.528010 485.723022
43 0 1 7.636160 2.642500 486.622009
44 0 1 7.849381 2.799300 487.554993
45 0 1 7.926963 3.125980 488.451996
46 0 1 8.122193 3.597490 489.272003
47 0 1 8.140083 4.079530 490.037994
48 0 1 7.937799 4.631400 490.845001
49 0 1 7.750638 5.241150 491.528992
50 0 1 7.544746 6.114630 492.145020
51 0 1 7.628658 6.781910 492.923004
52 0 1 7.649858 7.418996 493.625000
53 0 1 7.943284 8.209638 494.164978
54 0 1 8.337682 8.980185 494.639008
55 0 1 8.617211 9.750040 495.033997
56 0 1 8.535889 10.278700 495.826996
57 0 1 8.634761 10.730110 496.658020
58 0 1 8.378598 11.095740 497.510986
59 0 1 8.238300 11.573100 498.372009
60 0 1 8.213349 11.909520 499.276001
61 0 1 8.174953 12.123920 500.205017
62 0 1 8.464978 12.276480 501.216003
63 0 1 8.604473 12.006020 502.093018
64 0 1 8.845045 11.673890 502.980011
65 0 1 9.183599 11.326740 503.871002
66 0 1 9.411310 10.887510 504.673004
67 0 1 9.811520 10.428560 505.471985
68 0 1 10.321810 9.692130 505.953003
69 0 1 10.588740 9.028860 506.632019
70 0 1 10.833100 8.448623 507.343994
71 0 1 10.924220 8.133538 508.273987
72 0 1 11.042270 7.764005 509.149994
73 0 1 11.294460 7.558274 510.062988
74 0 1 11.643880 7.219738 510.911011
75 0 1 12.012140 6.740480 511.677002
76 0 1 12.293190 6.260200 512.474976
77 0 1 12.523520 5.782320 513.325989
78 0 1 12.719980 5.474800 514.265015
79 0 1 12.837220 5.388450 515.275024
80 0 1 12.702220 5.149070 516.254028
81 0 1 12.644120 4.846800 517.197998
82 0 1 12.578840 4.378090 518.064026
83 0 1 12.336821 4.002540 518.903015
84 0 1 12.096040 3.718150 519.810974
85 0 1 11.668990 3.543620 520.687012
86 0 1 11.357161 3.281580 521.572021
87 0 1 11.195190 2.952760 522.483032
88 0 1 11.254840 3.020970 523.411987
89 0 1 11.085939 3.338540 524.296021
90 0 1 11.062600 3.394020 525.320007
91 0 1 10.817930 3.295150 526.221008
92 0 1 10.395100 3.308350 527.145996
93 0 1 10.011810 3.402250 528.038025
94 0 1 9.493770 3.577750 528.872681
95 0 1 9.045680 3.573750 529.739380
96 0 1 8.478529 3.560080 530.499878
97 0 1 7.973985 3.568520 531.321167
98 0 1 7.672376 3.184740 532.136780
99 0 1 7.273979 2.881600 532.919189
100 0 1 6.868880 2.808840 533.751831
101 0 1 6.442270 3.041310 534.587280
102 0 1 6.128680 3.063460 535.466125
103 0 1 6.028220 3.169220 536.433777
104 0 1 5.915390 3.473980 537.398315
105 0 1 5.979540 3.921150 538.270386
106 0 1 6.167180 4.158550 539.210510
107 0 1 6.253060 4.268550 540.179382
108 0 1 6.705540 4.438790 541.014404
109 0 1 7.092022 4.754310 541.915527
110 0 1 7.335566 5.047650 542.760193
111 0 1 7.830878 5.455720 543.499207
112 0 1 8.166375 5.930350 544.286377
113 0 1 8.596077 6.587130 544.808594
114 0 1 8.931863 7.206880 545.481567
115 0 1 9.298960 7.858711 546.036926
116 0 1 9.413800 8.356673 546.901489
117 0 1 9.446690 8.542389 547.823486
118 0 1 9.277970 8.865366 548.761108
119 0 1 8.985833 9.015590 549.688110
120 0 1 8.881379 8.984963 550.640869
121 0 1 9.085130 8.875124 551.577698
122 0 1 9.098650 8.661782 552.498474
123 0 1 9.173540 8.780811 553.473877
124 0 1 8.963234 8.925228 554.402832
125 0 1 9.034750 9.089680 555.347595
126 0 1 8.936297 8.949010 556.315308
127 0 1 9.122890 8.905057 557.355774
128 0 1 8.898193 8.805916 558.288513
129 0 1 8.879235 8.813903 559.275818
130 0 1 8.677720 8.938650 560.178833
131 0 1 8.535149 9.054480 561.076416
132 0 1 8.501416 9.201390 562.018677
133 0 1 8.466303 9.181810 562.956726
134 0 1 8.422045 8.766456 563.892395
135 0 1 8.182194 8.250601 564.692200
136 0 1 7.881921 7.645049 565.385315
137 0 1 7.499833 7.103221 566.060913
138 0 1 7.351198 6.434670 566.750305
139 0 1 7.022153 5.884610 567.437317
140 0 1 6.868250 5.381340 568.186523
141 0 1 6.914690 5.189730 569.118896
142 0 1 6.740280 4.887290 570.085205
143 0 1 6.663780 4.600010 570.958496
144 0 1 6.543820 4.392350 571.941589
145 0 1 6.354980 3.971350 572.772705
146 0 1 6.202270 3.658030 573.614502
147 0 1 6.103530 3.554660 574.519897
148 0 1 6.266790 3.598500 575.590698
149 0 1 6.365080 3.648270 576.531372
150 0 1 6.671310 3.792150 577.416504
151 0 1 6.891350 3.592850 578.354919
152 0 1 7.196357 3.728760 579.232605
153 0 1 7.565322 4.046130 580.040710
154 0 1 7.916506 4.609380 580.812012
155 0 1 8.394219 5.065990 581.509888
156 0 1 8.461484 5.434050 582.392212
157 0 1 8.434685 5.872680 583.270081
158 0 1 8.437584 6.310050 584.160095
159 0 1 8.164631 6.843340 584.953674
160 0 1 7.955542 7.073424 585.841431
161 0 1 7.573919 7.170528 586.699402
162 0 1 7.201925 7.251973 587.606873
163 0 1 7.141090 7.655933 588.468689
164 0 1 7.536035 8.051316 589.225098
165 0 1 8.016927 8.353766 590.066711
166 0 1 8.551402 8.762978 590.806885
167 0 1 9.081190 9.061170 591.561218
168 0 1 9.777590 9.397280 592.080322
169 0 1 10.417550 10.012960 592.476196
170 0 1 10.863200 10.748720 592.904297
171 0 1 11.188100 11.248600 593.702881
172 0 1 11.196510 11.774640 594.522095
173 0 1 10.965110 12.224380 595.360229
174 0 1 10.450040 12.640090 596.064575
175 0 1 9.805560 13.040290 596.632874
176 0 1 9.369420 13.610840 597.302307
177 0 1 8.941681 14.076730 598.014587
178 0 1 8.262327 14.158390 598.642578
179 0 1 7.654839 13.775770 599.302612
180 0 1 7.276496 13.437201 600.100891
181 0 1 6.774330 13.015090 600.807312
182 0 1 6.396980 12.582130 601.569275
183 0 1 6.119410 11.974500 602.278015
184 0 1 5.913370 11.334510 602.987488
185 0 1 5.601670 10.768190 603.730225
186 0 1 5.471910 10.220370 604.558594
187 0 1 5.169500 10.051730 605.437317
188 0 1 5.068630 9.832260 606.411316
189 0 1 5.220430 9.523090 607.304810
190 0 1 5.504810 9.245970 608.169189
191 0 1 5.366170 9.073920 609.101990
192 0 1 5.362510 8.810682 610.059570
193 0 1 5.296360 8.642650 611.050598
194 0 1 5.333360 8.301163 611.965027
195 0 1 5.607060 7.872462 612.810425
196 0 1 5.861490 7.618585 613.692017
197 0 1 6.103650 7.231264 614.672302
198 0 1 6.315670 6.946780 615.551880
199 0 1 6.579470 6.709680 616.424194
200 0 1 6.608790 6.329090 617.279297
201 0 1 6.468090 5.781120 618.087219
202 0 1 6.241570 5.617400 619.030579
203 0 1 5.925540 5.831820 619.881775
204 0 1 5.711440 6.282640 620.694946
205 0 1 5.437380 6.588010 621.589417
206 0 1 5.116930 6.989500 622.377808
207 0 1 4.790680 7.316909 623.286438
208 0 1 4.982240 7.630057 624.168945
209 0 1 5.065380 7.578055 625.086914
210 0 1 5.114560 7.621649 625.994934
211 0 1 5.207720 7.440437 626.926514
212 0 1 5.536700 7.176000 627.779419
213 0 1 5.861290 6.905290 628.649841
214 0 1 6.058010 6.627520 629.555725
215 0 1 5.989650 6.595150 630.552002
216 0 1 5.698540 6.340540 631.421997
217 0 1 5.444130 6.108730 632.245117
218 0 1 5.265650 5.981170 633.128418
219 0 1 5.373760 5.766410 634.012085
220 0 1 5.723000 5.413380 634.835510
221 0 1 5.992800 5.016650 635.670044
222 0 1 6.294350 4.771640 636.499634
223 0 1 6.701710 4.873370 637.369995
224 0 1 7.154176 5.075420 638.168945
225 0 1 7.582084 5.495320 638.886780
226 0 1 7.885518 5.708600 639.802124
227 0 1 8.358227 5.727450 640.653381
228 0 1 8.676464 5.613060 641.522583
229 0 1 9.034410 5.371050 642.415405
230 0 1 9.242320 4.997000 643.362976
231 0 1 9.519120 4.681290 644.226379
232 0 1 9.483400 4.357810 645.077209
233 0 1 9.475320 3.993740 645.992676
234 0 1 9.346810 3.746390 646.984375
235 0 1 9.329340 3.423020 647.864197
236 0 1 9.366610 3.186330 648.864807
237 0 1 9.258570 3.197520 649.813782
238 0 1 9.113330 3.413830 650.704529
239 0 1 9.001050 3.657340 651.700623
240 0 1 9.019400 4.034400 652.664917
241 0 1 8.999366 4.495070 653.531311
242 0 1 8.852537 4.766260 654.439331
243 0 1 8.717817 5.180000 655.308472
244 0 1 8.566633 5.682880 656.131104
245 0 1 8.736037 6.129160 656.977722
246 0 1 8.901605 6.619330 657.784912
247 0 1 9.389610 7.046663 658.464294
248 0 1 9.901880 7.500935 659.181274
249 0 1 10.423990 7.891029 659.925781
250 0 1 10.531960 8.246056 660.830811
251 0 1 10.685890 8.354051 661.740173
252 0 1 10.994950 8.576233 662.622803
253 0 1 11.065760 8.862566 663.536377
254 0 1 11.033200 9.262460 664.372192
255 0 1 11.024840 9.620480 665.333618
256 0 1 11.035990 9.699840 666.290405
257 0 1 11.193820 9.576230 667.261230
258 0 1 11.264720 9.517050 668.237000
259 0 1 11.404860 9.390060 669.192505
260 0 1 11.631760 9.546890 670.149414
261 0 1 12.079081 9.771420 670.972900
262 0 1 12.255440 9.664910 671.895874
263 0 1 12.205820 9.359730 672.841003
264 0 1 11.741340 9.191970 673.614624
265 0 1 11.466579 8.893542 674.484009
266 0 1 11.213090 8.460102 675.358826
267 0 1 11.431470 8.150622 676.246094
268 0 1 11.607059 7.558038 677.061523
269 0 1 11.715470 7.171926 677.908020
270 0 1 11.960210 6.906840 678.813293
271 0 1 12.027390 6.771310 679.783203
272 0 1 11.885450 7.165595 680.711304
273 0 1 11.819530 7.633903 681.550293
274 0 1 11.840570 8.143654 682.423523
275 0 1 11.590730 8.398161 683.300598
276 0 1 11.395850 8.878807 684.110596
277 0 1 11.284300 8.958512 685.037781
278 0 1 10.984550 9.065900 685.977600
279 0 1 10.613060 9.250560 686.806030
280 0 1 10.284090 9.213180 687.754578
281 0 1 9.845490 9.335440 688.619629
282 0 1 9.572090 9.483210 689.550293
283 0 1 9.364500 9.645450 690.463928
284 0 1 9.296630 9.630670 691.422607
285 0 1 9.240140 9.428670 692.337708
286 0 1 9.138380 9.257080 693.269714
287 0 1 8.996354 9.570050 694.162109
288 0 1 8.683986 10.142590 694.906921
289 0 1 8.682905 10.781170 695.693726
290 0 1 8.674454 10.951320 696.662231
291 0 1 8.622895 11.133810 697.643799
292 0 1 8.640230 11.208620 698.573914
293 0 1 8.475471 11.154660 699.533020
294 0 1 8.666801 11.076130 700.524475
295 0 1 9.019250 10.855420 701.339722
296 0 1 9.370850 10.354350 702.027100
297 0 1 9.744030 9.730790 702.696899
298 0 1 9.883970 8.960105 703.323486
299 0 1 10.229440 8.147007 703.669312
300 0 1 10.685101 7.343441 703.879272
301 0 1 10.863140 6.587520 704.441528
302 0 1 11.240740 5.997470 705.120728
303 0 1 11.289110 5.272250 705.760803
304 0 1 11.373390 4.313140 705.926270
305 0 1 11.130100 3.452280 706.161316
306 0 1 11.032650 2.595560 706.367920
307 0 1 10.608660 1.804050 706.609009
308 0 1 9.820110 1.391830 707.173584
309 0 1 9.012350 1.344470 707.632324
310 0 1 8.222541 1.626160 708.031677
311 0 1 7.570794 2.044490 708.685120
312 0 1 6.991530 2.464710 709.398926
313 0 1 6.423770 2.864940 710.085815
314 0 1 5.870310 3.227080 710.801086
315 0 1 5.570590 3.726410 711.574829
316 0 1 5.439930 4.263150 712.349915
317 0 1 5.026010 4.943710 712.931396
318 0 1 4.797460 5.688130 713.617676
319 0 1 4.764610 6.292350 714.415894
320 0 1 4.514310 6.898480 715.062378
321 0 1 4.389190 7.464453 715.900208
322 0 1 4.163710 7.892053 716.694275
323 0 1 3.820930 8.304627 717.497803
324 0 1 3.536540 8.458424 718.436768
325 0 1 3.151670 8.504504 719.310120
326 0 1 2.833780 8.415909 720.265503
327 0 1 2.548030 8.207789 721.124634
328 0 1 2.257720 7.902097 722.014282
329 0 1 2.216370 7.525770 722.872681
330 0 1 2.235460 7.183902 723.813721
331 0 1 2.423990 7.000059 724.716980
332 0 1 2.480460 6.799780 725.705994
333 0 1 2.675750 6.902910 726.675781
334 0 1 2.780570 6.636400 727.597778
335 0 1 2.926430 6.236800 728.453003
336 0 1 3.022440 6.186910 729.426025
337 0 1 3.061460 6.372440 730.343994
338 0 1 3.089980 6.413160 731.318970
339 0 1 3.267650 6.677230 732.229980
340 0 1 3.372960 6.450320 733.221985
341 0 1 3.533960 6.265620 734.202026
342 0 1 3.783650 6.507790 735.163025
343 0 1 4.385340 6.986990 735.729004
344 0 1 4.874580 7.642862 736.214966
345 0 1 5.403200 8.234238 736.747009
346 0 1 5.684200 8.937540 737.289001
347 0 1 5.846910 9.432030 738.059021
348 0 1 6.017580 9.915310 738.908020
349 0 1 6.377360 10.352950 739.666016
350 0 1 6.686150 10.707330 740.580994
351 0 1 6.893570 10.981180 741.476990
352 0 1 6.915990 11.463340 742.338013
353 0 1 6.943910 12.044950 743.104980
354 0 1 6.796940 12.524300 743.935974
355 0 1 6.519080 12.758181 744.869019
356 0 1 6.289400 12.926820 745.820984
357 0 1 6.088650 13.134330 746.731018
358 0 1 5.699780 13.170219 747.682007
359 0 1 5.092200 13.179710 748.471008
360 0 1 4.718080 12.916840 749.339966
361 0 1 4.558050 12.760730 750.276978
362 0 1 4.387840 13.100090 751.291992
363 0 1 4.558120 12.949460 752.207031
364 0 1 4.603590 12.898200 753.127014
365 0 1 4.911300 12.793110 754.078979
366 0 1 5.180840 12.618330 754.992004
367 0 1 5.692360 12.039940 755.594971
368 0 1 6.048850 11.437440 756.245972
369 0 1 6.369060 10.757320 756.830994
370 0 1 6.717040 10.062420 757.337036
371 0 1 6.927190 9.373900 757.994019
372 0 1 7.173383 8.610944 758.596008
373 0 1 7.217827 7.977041 759.343018
374 0 1 7.025241 7.607030 760.210999
375 0 1 6.830620 7.289968 761.075012
376 0 1 6.429790 7.096734 761.885010
377 0 1 6.141980 6.922680 762.747986
378 0 1 5.749930 6.722020 763.606018
379 0 1 5.226130 6.339800 764.297974
380 0 1 4.624400 6.199360 765.010010
381 0 1 4.098060 6.130340 765.783020
382 0 1 3.779620 5.861380 766.634033
383 0 1 3.522220 5.647990 767.518982
384 0 1 3.187250 5.686270 768.463013
385 0 1 3.045490 5.452790 769.372986
386 0 1 3.205540 5.365260 770.337036
387 0 1 3.178410 5.196620 771.307983
388 0 1 3.428830 5.182960 772.235962
389 0 1 3.604010 5.149850 773.166016
390 0 1 3.967750 5.025650 774.023987
391 0 1 4.350110 4.973340 774.948975
392 0 1 4.992400 4.954740 775.651978
393 0 1 5.289880 5.130270 776.578003
394 0 1 5.591180 5.535950 777.338989
395 0 1 5.739990 6.088750 778.051025
396 0 1 5.922960 6.831030 778.658997
397 0 1 6.049310 7.707270 779.101013
398 0 1 6.259210 8.476506 779.539001
399 0 1 6.724100 9.246650 779.953003
400 0 1 6.939980 9.982090 780.471985
401 0 1 7.150125 10.789960 780.989014
402 0 1 7.550347 11.514280 781.546997
403 0 1 7.765834 12.044790 782.311035
404 0 1 8.176674 12.220910 783.140991
405 0 1 8.472443 11.953970 783.985962
406 0 1 8.509686 11.698771 784.960999
407 0 1 8.331020 11.592040 785.927002
408 0 1 8.296263 11.586970 786.888000
409 0 1 8.207653 11.246020 787.813965
410 0 1 8.219554 11.066930 788.786011
411 0 1 8.279388 10.931640 789.729980
412 0 1 8.452403 10.858640 790.651978
413 0 1 8.460522 10.863750 791.632019
414 0 1 8.469487 10.783160 792.627991
415 0 1 8.470663 10.933290 793.556030
416 0 1 8.343855 11.144310 794.549011
417 0 1 8.021752 11.016600 795.440002
418 0 1 7.982548 10.936230 796.369995
419 0 1 8.363142 10.923920 797.197021
420 0 1 8.514423 10.806630 798.190002
421 0 1 8.565008 10.654449 799.132019
422 0 1 8.533056 10.620240 800.109985
423 0 1 8.711272 10.420090 801.067017
424 0 1 8.893589 10.123950 801.968994
425 0 1 9.353790 9.811769 802.817017
426 0 1 9.838900 9.616650 803.567017
427 0 1 10.620871 9.389190 804.210022
428 0 1 11.362761 8.979680 804.567993
429 0 1 12.066860 8.652484 805.135010
430 0 1 12.465651 8.207867 805.901001
431 0 1 12.711250 7.678796 806.698975
432 0 1 12.778170 7.203137 807.556030
433 0 1 12.879070 6.604410 808.333008
434 0 1 12.693450 6.028030 809.106018
435 0 1 12.390141 5.448400 809.778015
436 0 1 12.411369 4.911510 810.580994
437 0 1 12.280080 4.638110 811.528015
438 0 1 12.093560 4.319060 812.429993
439 0 1 11.807820 4.132750 813.294006
440 0 1 11.758500 3.915400 814.245972
441 0 1 11.796230 3.490540 815.099976
442 0 1 11.921900 3.231290 816.023010
443 0 1 11.724751 3.021580 816.877991
444 0 1 11.565229 2.922190 817.863037
445 0 1 11.406740 3.071770 818.817017
446 0 1 11.348949 3.126470 819.749023
447 0 1 11.429580 3.113280 820.687012
448 0 1 11.623780 3.140310 821.598999
449 0 1 11.761050 3.180880 822.591003
450 0 1 11.968690 3.119780 823.562988
451 0 1 12.124910 3.142430 824.489014
452 0 1 12.306150 2.955170 825.414001
453 0 1 12.298550 3.004510 826.335999
454 0 1 12.158831 3.114680 827.343994
455 0 1 12.247450 3.408930 828.289978
456 0 1 12.359320 3.929910 829.083008
457 0 1 12.541260 4.297830 829.947998
458 0 1 12.654200 4.761240 830.820984
459 0 1 12.503600 5.428350 831.490967
460 0 1 12.291870 6.224360 832.106018
461 0 1 12.162560 7.071835 832.429993
462 0 1 11.947030 7.927421 832.679993
463 0 1 11.709600 8.792727 833.037964
464 0 1 11.273970 9.505760 833.544983
465 0 1 10.854790 10.418660 833.588989
466 0 1 10.314000 11.251190 833.559998
467 0 1 9.816020 12.041880 833.330017
468 0 1 8.928762 12.393600 833.035034
469 0 1 8.467753 12.608850 832.226990
470 0 1 8.515283 12.817460 831.338989
471 0 1 8.662055 12.893270 830.338013
472 0 1 8.643496 12.769540 829.422974
473 0 1 8.474267 12.511110 828.541016
474 0 1 8.361959 11.898370 827.846985
475 0 1 8.142001 11.363170 827.169006
476 0 1 8.197697 10.801189 826.372986
477 0 1 8.257813 10.295230 825.601013
478 0 1 8.420175 9.810170 824.799011
479 0 1 8.592202 9.279910 824.002014
480 0 1 8.876602 8.668627 823.356018
481 0 1 8.868188 8.097293 822.507996
482 0 1 9.107640 7.646372 821.682007
483 0 1 9.343540 7.328633 820.729004
484 0 1 9.448850 6.997350 819.742981
485 0 1 9.519610 6.986230 818.729980
486 0 1 9.506660 7.005228 817.703003
487 0 1 9.498510 6.832090 816.737000
488 0 1 9.529181 6.815510 815.802002
489 0 1 9.483500 6.672140 814.854980
490 0 1 9.367280 6.571040 813.916992
491 0 1 9.754960 6.765340 813.007019
492 0 1 10.327400 7.088276 812.299988
493 0 1 11.076120 7.378538 811.749023
494 0 1 11.579140 8.191228 811.379028
495 0 1 12.011860 8.780085 810.728027
496 0 1 12.279610 9.065600 809.875000
497 0 1 12.666300 9.322710 809.065002
498 0 1 12.899059 9.773350 808.216980
499 0 1 13.300070 10.010090 807.327026
500 0 1 13.867680 9.972030 806.570007
501 0 1 14.417100 9.894240 805.714966
502 0 1 14.497910 9.656680 804.765991
503 0 1 14.592440 9.350100 803.806030
504 0 1 14.520189 8.944048 802.931030
505 0 1 14.572280 8.504259 802.078003
506 0 1 14.529870 8.231025 801.129028
507 0 1 14.237200 8.026297 800.226013
508 0 1 13.901199 7.798060 799.391968
509 0 1 13.620620 7.604226 798.492981
510 0 1 13.234440 7.271348 797.656982
511 0 1 12.672110 6.876240 796.976013
512 0 1 12.229340 6.737880 796.143005
513 0 1 11.895230 6.508390 795.239014
514 0 1 11.687469 6.164120 794.306030
515 0 1 11.237150 6.027520 793.417969
516 0 1 11.014460 6.041150 792.495972
517 0 1 10.765190 5.835550 791.629028
518 0 1 10.502340 5.814350 790.695007
519 0 1 10.168640 5.937440 789.783997
520 0 1 10.244900 6.017500 788.789001
521 0 1 10.370980 6.157580 787.843994
522 0 1 10.495880 6.154340 786.820984
523 0 1 10.307500 5.803200 785.867004
524 0 1 9.839130 5.384710 785.141968
525 0 1 9.438110 5.232800 784.254028
526 0 1 9.491720 5.048320 783.317993
527 0 1 9.655130 4.626410 782.507019
528 0 1 9.849980 4.312190 781.622986
529 0 1 9.936840 4.242890 780.651001
530 0 1 10.158370 4.186600 779.698975
531 0 1 10.024300 4.421220 778.789001
532 0 1 9.868361 4.840320 777.943970
533 0 1 9.842710 5.525540 777.315979
534 0 1 9.777590 6.113810 776.507996
535 0 1 9.549180 6.498630 775.578979
536 0 1 8.979023 6.765810 774.872986
537 0 1 8.395799 6.778710 774.113037
538 0 1 7.994174 6.723590 773.188965
539 0 1 7.920569 6.756870 772.252991
540 0 1 8.028177 6.836880 771.260986
541 0 1 8.162800 6.907800 770.354004
542 0 1 7.945302 6.919620 769.403015
543 0 1 7.946198 6.933640 768.429993
544 0 1 8.033383 7.074115 767.458984
545 0 1 8.565513 6.810920 766.773987
546 0 1 9.108550 6.659110 766.018005
547 0 1 9.656130 6.407010 765.294983
548 0 1 10.224930 6.259720 764.463989
549 0 1 10.707770 6.000660 763.690979
550 0 1 11.063829 6.254890 762.801025
551 0 1 11.398030 6.565460 761.973999
552 0 1 11.939460 6.682850 761.153992
553 0 1 12.533871 6.761260 760.304016
554 0 1 12.932250 6.958970 759.499023
555 0 1 13.172501 6.884750 758.565979
556 0 1 13.475800 6.993490 757.682007
557 0 1 13.713739 7.108882 756.830994
558 0 1 13.924339 6.989520 755.854004
559 0 1 14.086390 7.176475 754.940002
560 0 1 13.856780 7.135203 754.041992
561 0 1 13.585159 6.741770 753.187012
562 0 1 13.254060 6.371260 752.398987
563 0 1 12.971130 5.921300 751.582031
564 0 1 12.664010 5.843110 750.685974
565 0 1 12.318420 5.502920 749.843018
566 0 1 11.988870 5.272550 749.009033
567 0 1 11.643370 4.863120 748.179993
568 0 1 11.550070 4.691160 747.184021
569 0 1 11.510270 4.445600 746.197021
570 0 1 11.413660 4.280380 745.263000
571 0 1 11.107680 4.116880 744.286011
572 0 1 10.766090 3.951850 743.387024
573 0 1 10.095970 3.872250 742.703979
574 0 1 9.464080 3.573390 741.987976
575 0 1 9.087510 3.300290 741.223022
576 0 1 9.072150 3.204420 740.294006
577 0 1 8.883801 3.118810 739.304993
578 0 1 8.889262 3.215300 738.364014
579 0 1 8.747094 3.379810 737.427979
580 0 1 8.480612 3.927480 736.697998
581 0 1 8.193450 4.433040 735.905029
582 0 1 7.960395 5.017270 735.197021
583 0 1 7.547400 5.547150 734.479980
584 0 1 7.296164 5.880490 733.573975
585 0 1 7.262751 6.135630 732.643005
586 0 1 7.295546 6.001710 731.710022
587 0 1 6.969440 5.943400 730.799011
588 0 1 6.429760 5.805050 729.979004
589 0 1 5.994780 5.385480 729.234009
590 0 1 5.705530 4.757280 728.460327
591 0 1 5.499370 4.270940 727.658203
592 0 1 5.192090 4.294200 726.725403
593 0 1 5.276840 4.411330 725.716003
594 0 1 5.473950 4.504070 724.760620
595 0 1 5.746580 4.665760 723.821777
596 0 1 5.932120 4.685200 722.856323
597 0 1 6.151070 4.754000 721.950989
598 0 1 6.350800 4.937850 721.076599
599 0 1 6.725450 5.318410 720.221985
600 0 1 7.057917 5.373350 719.359192
601 0 1 7.320137 5.188800 718.407593
602 0 1 7.359147 5.054580 717.462585
603 0 1 7.130147 5.037820 716.479370
604 0 1 7.148718 4.873690 715.555908
605 0 1 7.452627 4.372420 714.811890
606 0 1 8.047928 3.924210 714.203979
607 0 1 8.574681 3.626070 713.448792
608 0 1 9.165270 3.900500 712.760803
609 0 1 9.880110 4.070160 712.095398
610 0 1 10.405849 4.429150 711.367310
611 0 1 10.879129 4.906660 710.709595
612 0 1 11.034600 5.346190 709.787109
613 0 1 10.963330 5.325180 708.831177
614 0 1 10.502650 5.682110 708.021790
615 0 1 10.005810 5.960600 707.265991
616 0 1 9.468690 6.039460 706.448425
617 0 1 8.980592 6.285190 705.688721
618 0 1 8.536326 6.641970 704.982788
619 0 1 8.119815 7.176900 704.346985
620 0 1 7.581544 7.750909 703.790405
621 0 1 7.102484 8.246910 703.156006
622 0 1 6.373520 8.686435 702.692505
623 0 1 5.634020 9.276420 702.478699
624 0 1 5.248910 9.895220 701.849731
625 0 1 4.850450 10.183630 701.001404
626 0 1 4.310580 10.661060 700.394409
627 0 1 3.525920 10.952140 699.951782
628 0 1 2.945360 11.298070 699.241211
629 0 1 2.479070 11.233740 698.361023
630 0 1 2.549240 11.350910 697.430786
631 0 1 2.557300 11.572820 696.503174
632 0 1 2.680570 11.777180 695.583313
633 0 1 3.052170 11.828580 694.677185
634 0 1 3.407010 11.929960 693.763794
635 0 1 3.594430 11.709170 692.800110
636 0 1 3.629450 11.546830 691.858276
637 0 1 3.600790 11.399520 690.913391
638 0 1 3.195650 11.060870 690.145081
639 0 1 3.088670 10.797240 689.226379
640 0 1 3.114940 10.706280 688.224731
641 0 1 3.223520 10.519279 687.230591
642 0 1 3.581680 10.489910 686.373169
643 0 1 4.215870 10.569241 685.604126
644 0 1 4.696760 10.903340 684.858582
645 0 1 5.303290 11.121040 684.171997
646 0 1 5.807630 11.136380 683.317383
647 0 1 5.970560 11.171530 682.427368
648 0 1 6.068350 10.799030 681.562988
649 0 1 6.155000 10.466230 680.664001
650 0 1 6.528400 9.916480 679.952209
651 0 1 6.897380 9.504230 679.220520
652 0 1 7.158719 9.205730 678.372009
653 0 1 7.257896 8.686685 677.560120
654 0 1 7.319885 8.191572 676.744873
655 0 1 7.165610 7.827277 675.878479
656 0 1 6.833080 7.252257 675.142212
657 0 1 6.989500 6.664450 674.428406
658 0 1 7.388933 6.178330 673.667725
659 0 1 7.645425 5.889810 672.833313
660 0 1 7.991909 5.662900 671.898499
661 0 1 8.236183 5.388360 670.931091
662 0 1 8.457334 5.153790 670.053589
663 0 1 8.195566 4.791600 669.121582
664 0 1 8.137147 4.772170 668.171082
665 0 1 8.135388 4.548800 667.226624
666 0 1 8.084448 4.297970 666.328491
667 0 1 7.803040 4.150190 665.403625
668 0 1 7.547842 4.056200 664.450378
669 0 1 7.288285 4.162200 663.514099
670 0 1 7.185442 4.262270 662.571716
671 0 1 7.015095 4.496650 661.641907
672 0 1 6.606410 4.622980 660.788086
673 0 1 6.073120 4.669890 660.015076
674 0 1 5.576030 4.846880 659.186401
675 0 1 5.111130 5.180630 658.373291
676 0 1 4.611080 5.230780 657.553589
677 0 1 4.260990 5.218450 656.683594
678 0 1 4.073090 5.484350 655.788208
679 0 1 3.741170 5.664650 654.877686
680 0 1 3.365130 5.594400 653.975830
681 0 1 3.165770 5.548910 653.118774
682 0 1 3.032000 5.402010 652.183594
683 0 1 3.119470 5.276760 651.145813
684 0 1 3.395290 5.340550 650.297180
685 0 1 3.348750 5.331380 649.312683
686 0 1 3.431750 5.144670 648.330505
687 0 1 3.647560 5.132570 647.367126
688 0 1 3.817560 5.527330 646.498718
689 0 1 3.687700 6.014300 645.677307
690 0 1 3.200210 6.436660 644.898499
691 0 1 2.819720 6.458590 644.018494
692 0 1 2.447150 6.332920 643.151184
693 0 1 2.106490 6.173180 642.246216
694 0 1 1.983260 6.107730 641.326477
695 0 1 2.097050 6.158150 640.391174
696 0 1 1.775240 6.218110 639.485107
697 0 1 1.526940 6.252380 638.528687
698 0 1 1.396320 6.030580 637.610413
699 0 1 1.853760 5.822610 636.725647
700 0 1 2.261440 5.784540 635.776611
701 0 1 2.499050 5.744760 634.875854
702 0 1 2.736320 5.375590 634.024902
703 0 1 3.318780 5.213770 633.145264
704 0 1 3.877060 5.072770 632.371582
705 0 1 4.443400 5.184040 631.664673
706 0 1 5.026460 5.267100 630.939392
707 0 1 5.717490 5.290100 630.257202
708 0 1 6.305410 5.443230 629.466858
709 0 1 6.893230 5.197690 628.781250
710 0 1 7.498061 5.229110 628.024719
711 0 1 8.146320 5.603050 627.432434
712 0 1 8.793375 5.921000 626.823669
713 0 1 9.268760 6.330640 626.098206
714 0 1 9.500340 6.689100 625.194824
715 0 1 9.648770 7.138130 624.411316
716 0 1 9.682280 7.407601 623.459900
717 0 1 9.773880 7.502910 622.515442
718 0 1 9.508720 7.828851 621.604736
719 0 1 9.244420 8.052842 620.751892
720 0 1 8.881005 8.598942 619.920959
721 0 1 8.752205 8.921732 619.054993
722 0 1 8.484417 9.017730 618.050293
723 0 1 8.541040 9.409730 617.172302
724 0 1 8.679171 9.818680 616.312988
725 0 1 8.708153 10.265320 615.488281
726 0 1 8.586420 10.654690 614.578003
727 0 1 8.274572 10.893050 613.723816
728 0 1 7.909534 11.223980 612.795471
729 0 1 7.458815 11.253420 611.912109
730 0 1 7.061965 10.935650 611.102173
731 0 1 6.681160 10.522570 610.320801
732 0 1 6.479140 10.354560 609.390503
733 0 1 6.564330 10.113210 608.465698
734 0 1 6.908900 9.533710 607.828003
735 0 1 7.365796 8.980614 607.152405
736 0 1 7.628111 8.362216 606.534729
737 0 1 7.851672 7.849775 605.733887
738 0 1 7.994627 7.243356 605.005615
739 0 1 8.025815 6.505900 604.366272
740 0 1 7.999472 5.623440 604.047607
741 0 1 7.621571 4.770380 603.876404
742 0 1 7.260343 4.088090 603.364197
743 0 1 7.009728 3.351630 602.734192
744 0 1 6.848000 2.778460 601.914978
745 0 1 6.641280 2.551130 600.963501
746 0 1 6.077480 2.393540 600.234192
747 0 1 5.506650 2.457610 599.444275
748 0 1 5.144860 2.715570 598.600708
749 0 1 4.574950 3.319210 598.110779
750 0 1 4.153420 4.024010 597.622498
751 0 1 4.061030 4.930460 597.231201
752 0 1 4.022450 5.746360 596.734619
753 0 1 4.375510 6.383470 596.089172
754 0 1 4.524330 6.869750 595.288330
755 0 1 4.864500 7.443412 594.661194
756 0 1 4.875450 8.096764 593.914917
757 0 1 4.828190 8.256579 592.942322
758 0 1 4.741640 8.485252 591.941895
759 0 1 4.664260 8.484844 590.980286
760 0 1 4.324230 8.785998 590.026123
761 0 1 4.126780 8.943629 589.093018
762 0 1 4.101590 9.121020 588.122314
763 0 1 3.815650 9.531730 587.252014
764 0 1 3.566400 9.606230 586.327515
765 0 1 3.543530 9.798540 585.421204
766 0 1 3.882410 9.802510 584.495728
767 0 1 4.270640 9.875220 583.634827
768 0 1 5.067370 10.162400 583.132385
769 0 1 5.782670 10.585950 582.651611
770 0 1 6.355610 11.114470 582.102722
771 0 1 7.073008 11.629320 581.597107
772 0 1 7.920692 11.911580 581.325378
773 0 1 8.843705 11.802320 581.197083
774 0 1 9.894430 11.660610 581.228210
775 0 1 10.757580 11.440720 580.993774
776 0 1 11.614820 11.266620 580.551575
777 0 1 12.267630 11.325530 579.881287
778 0 1 12.935390 11.458370 579.216675
779 0 1 13.137899 11.553360 578.285278
780 0 1 13.436600 11.173990 577.496887
781 0 1 13.861470 10.935540 576.618713
782 0 1 13.921909 10.658820 575.668579
783 0 1 13.888180 10.439880 574.681396
784 0 1 13.660669 10.235291 573.812927
785 0 1 13.431370 9.812540 572.989502
786 0 1 13.204920 9.364090 572.202209
787 0 1 13.128440 8.972582 571.328369
788 0 1 12.732540 8.596786 570.591431
789 0 1 12.551260 8.132936 569.776794
790 0 1 12.034290 7.673657 569.121887
791 0 1 11.566550 7.087250 568.512878
792 0 1 10.908751 6.470920 568.107117
793 0 1 10.531610 5.716630 567.739197