LAMMPS data file via MDAnalysis

        1000  atoms
        1000  bonds
        1000  angles
           0  dihedrals
           0  impropers

           1  atom types
           1  bond types
           1  angle types
           0  dihedral types
           0  improper types

0.000000 16.000000 xlo xhi
0.000000 16.000000 ylo yhi
0.000000 1257.000000 zlo zhi


Masses

1 1.000000

Atoms

1 0 1 7.817503 7.806207 442.218018
2 0 1 8.381271 7.977472 443.020020
3 0 1 8.754960 8.240675 443.869995
4 0 1 8.988620 8.338731 444.830017
5 0 1 8.933719 8.162645 445.781006
6 0 1 8.559201 7.952623 446.634003
7 0 1 8.036731 7.422686 447.307007
8 0 1 7.473161 7.205737 448.050995
9 0 1 7.152720 7.192912 448.945007
10 0 1 6.878010 7.079481 449.911987
11 0 1 6.784450 6.687350 450.759003
12 0 1 6.721640 6.576790 451.800995
13 0 1 6.519880 6.244340 452.664001
14 0 1 6.171730 5.879510 453.481018
15 0 1 6.037770 5.188540 454.177979
16 0 1 6.074610 4.641280 454.921021
17 0 1 6.248310 4.148370 455.705017
18 0 1 6.347210 3.739010 456.569000
19 0 1 6.206070 3.200310 457.362000
20 0 1 6.058530 2.716310 458.173004
21 0 1 6.294330 2.287360 458.963989
22 0 1 6.580660 1.827100 459.809998
23 0 1 6.813860 1.520990 460.721008
24 0 1 7.302763 1.345930 461.460022
25 0 1 7.792183 1.515350 462.320007
26 0 1 8.213525 1.974670 463.101013
27 0 1 8.763096 2.034100 463.960022
28 0 1 9.227800 2.110540 464.779999
29 0 1 9.574220 2.188550 465.718994
30 0 1 9.685230 2.329650 466.632996
31 0 1 10.041890 2.673290 467.526001
32 0 1 10.426830 2.673070 468.450012
33 0 1 10.703020 2.738330 469.372986
34 0 1 10.841050 2.649820 470.398987
35 0 1 10.902560 2.465560 471.309998
36 0 1 11.099040 2.650990 472.174011
37 0 1 11.131350 2.822200 473.161987
38 0 1 10.736000 2.537360 473.947998
39 0 1 10.493170 2.246770 474.822998
40 0 1 10.322850 2.012960 475.737000
41 0 1 10.148170 1.874000 476.596985
42 0 1 10.212490 1.736890 477.484985
43 0 1 10.333230 1.937250 478.408020
44 0 1 10.326890 2.352830 479.272003
45 0 1 10.568450 3.003200 480.026001
46 0 1 10.427060 3.563030 480.807983
47 0 1 10.355070 4.437430 481.339996
48 0 1 10.341021 5.352990 481.713013
49 0 1 10.242360 6.212360 482.276001
50 0 1 10.229390 6.885690 482.970001
51 0 1 9.921290 7.458785 483.727997
52 0 1 9.782710 7.972621 484.501007
53 0 1 10.186069 8.567396 485.154999
54 0 1 10.619350 9.222150 485.760986
55 0 1 11.170500 9.813650 486.266998
56 0 1 11.662780 10.210760 487.048004
57 0 1 12.277030 10.515200 487.742981
58 0 1 12.897900 10.784190 488.406006
59 0 1 13.424390 11.066700 489.263000
60 0 1 13.574500 11.294020 490.210999
61 0 1 13.661400 11.414440 491.181000
62 0 1 13.585020 11.802760 491.992004
63 0 1 13.596940 11.953430 492.911987
64 0 1 13.398140 11.899260 493.843018
65 0 1 13.264020 11.743220 494.789001
66 0 1 13.356970 11.716540 495.773987
67 0 1 13.140881 11.702550 496.778992
68 0 1 12.692619 11.839890 497.583984
69 0 1 12.290220 12.330589 498.338989
70 0 1 12.030951 12.698750 499.225006
71 0 1 11.752860 13.180700 499.992981
72 0 1 11.371930 13.349000 500.865997
73 0 1 10.985110 13.574130 501.688995
74 0 1 10.530640 13.929979 502.526001
75 0 1 10.253910 14.013760 503.492004
76 0 1 10.249929 14.073250 504.434998
77 0 1 10.525190 14.148680 505.394989
78 0 1 10.335760 14.102221 506.382019
79 0 1 10.052110 13.942890 507.308990
80 0 1 9.868850 13.477510 508.127991
81 0 1 9.532030 13.087880 509.069000
82 0 1 9.415160 12.696159 509.929993
83 0 1 9.567960 12.106860 510.766998
84 0 1 10.030980 11.750330 511.535004
85 0 1 10.385500 11.613400 512.410034
86 0 1 10.644900 11.412670 513.317017
87 0 1 10.970181 10.961840 514.106995
88 0 1 11.284180 10.454580 514.839966
89 0 1 11.543800 9.934860 515.596008
90 0 1 11.813140 9.427430 516.325012
91 0 1 12.203890 8.892004 516.976013
92 0 1 12.479600 8.270522 517.745972
93 0 1 12.820150 7.645233 518.432983
94 0 1 12.988150 7.063254 519.143005
95 0 1 13.078859 6.376760 519.773010
96 0 1 13.040190 5.588520 520.387024
97 0 1 12.624710 5.135030 521.181030
98 0 1 12.182381 4.746690 521.898010
99 0 1 11.618890 4.471940 522.635986
100 0 1 11.006900 4.348880 523.429016
101 0 1 10.403230 3.948610 524.093018
102 0 1 10.004869 3.507240 524.882019
103 0 1 9.729850 3.288500 525.789001
104 0 1 9.289810 3.385270 526.716980
105 0 1 8.970040 3.508110 527.612000
106 0 1 8.506759 3.570780 528.497986
107 0 1 8.188183 3.510570 529.416382
108 0 1 7.979912 3.495290 530.380005
109 0 1 7.748478 3.570530 531.320679
110 0 1 7.658947 3.917430 532.233826
111 0 1 7.776343 4.120620 533.183289
112 0 1 8.136825 4.602990 533.946777
113 0 1 8.409935 5.037480 534.773987
114 0 1 8.494684 5.451030 535.691223
115 0 1 8.713210 6.019410 536.520508
116 0 1 8.844104 6.731700 537.194580
117 0 1 8.960883 7.077330 538.079407
118 0 1 8.915104 7.132226 539.012024
119 0 1 8.852936 7.265217 539.964233
120 0 1 8.510692 7.633286 540.808472
121 0 1 8.160196 7.906981 541.657104
122 0 1 8.022676 7.964531 542.556396
123 0 1 8.075830 7.800543 543.509521
124 0 1 8.208525 7.656561 544.524414
125 0 1 8.499770 7.519619 545.377380
126 0 1 8.532561 7.055118 546.263672
127 0 1 8.870347 6.923700 547.185120
128 0 1 9.128469 6.805600 548.128906
129 0 1 9.449280 6.721350 548.985107
130 0 1 9.660390 6.865340 549.929077
131 0 1 9.559031 7.204787 550.799377
132 0 1 9.566760 7.731730 551.661987
133 0 1 9.812110 8.272994 552.476318
134 0 1 9.786350 8.531372 553.416687
135 0 1 9.944839 8.837143 554.287292
136 0 1 10.305280 9.098940 555.223267
137 0 1 10.732531 9.232330 556.074890
138 0 1 11.285010 9.495030 556.819824
139 0 1 11.758610 9.822910 557.643494
140 0 1 12.145290 10.226330 558.482605
141 0 1 12.481569 10.329490 559.308716
142 0 1 12.978490 10.231210 560.060120
143 0 1 13.610270 10.147210 560.810669
144 0 1 13.925430 10.326030 561.715393
145 0 1 14.166660 10.462870 562.638184
146 0 1 14.276890 10.496710 563.633423
147 0 1 14.305490 10.329041 564.643677
148 0 1 14.281330 10.123330 565.548706
149 0 1 14.308050 10.162849 566.439880
150 0 1 14.288370 10.259970 567.356689
151 0 1 14.226060 10.578440 568.330811
152 0 1 14.154280 10.951550 569.192871
153 0 1 13.856530 11.212481 570.094299
154 0 1 13.549860 11.439750 570.971069
155 0 1 12.879770 11.637050 571.704712
156 0 1 12.426270 11.680340 572.598816
157 0 1 12.009359 11.780210 573.469421
158 0 1 11.458590 11.648350 574.279602
159 0 1 11.128860 11.493520 575.177979
160 0 1 10.852630 11.170390 576.079590
161 0 1 10.772920 10.963330 577.045288
162 0 1 10.662020 10.622499 577.923828
163 0 1 10.279870 10.337020 578.743530
164 0 1 9.858920 10.101250 579.549377
165 0 1 9.608940 9.971040 580.471313
166 0 1 9.080400 9.869470 581.188599
167 0 1 8.619008 9.722580 582.047791
168 0 1 8.270245 9.732710 582.965088
169 0 1 8.019079 9.653860 583.877930
170 0 1 7.746415 9.261640 584.683899
171 0 1 7.429861 8.912307 585.507324
172 0 1 7.372384 8.447433 586.319275
173 0 1 7.190696 8.083591 587.235596
174 0 1 7.127534 7.732553 588.143494
175 0 1 6.983270 7.493966 589.033813
176 0 1 6.739370 7.452972 589.903503
177 0 1 6.492150 7.822276 590.728516
178 0 1 6.184580 8.209966 591.539673
179 0 1 5.746310 8.654745 592.256287
180 0 1 5.535520 9.203020 593.042725
181 0 1 5.181780 9.787160 593.694824
182 0 1 4.884410 10.408279 594.348022
183 0 1 4.877150 10.984810 595.111084
184 0 1 4.803850 11.730260 595.703369
185 0 1 4.603650 12.498330 596.419800
186 0 1 4.672590 12.796520 597.372314
187 0 1 4.536560 12.937160 598.270691
188 0 1 4.866610 12.917240 599.146301
189 0 1 5.246610 12.667680 599.993896
190 0 1 5.507880 12.677940 600.936584
191 0 1 5.537380 12.632650 601.860413
192 0 1 5.294870 12.382940 602.801697
193 0 1 5.150670 12.070250 603.745911
194 0 1 5.215010 11.851521 604.698425
195 0 1 5.331410 11.466220 605.605774
196 0 1 5.500250 11.033421 606.446716
197 0 1 5.924340 10.532290 607.176514
198 0 1 6.109330 9.820030 607.845398
199 0 1 6.096650 9.057530 608.397278
200 0 1 5.905070 8.449671 609.160706
201 0 1 5.816190 7.728873 609.869873
202 0 1 6.050510 7.061617 610.452881
203 0 1 6.073660 6.458850 611.170898
204 0 1 6.091650 5.828540 611.904419
205 0 1 6.124790 5.240280 612.687378
206 0 1 6.158810 4.784930 613.525574
207 0 1 6.411100 4.353950 614.365723
208 0 1 6.113440 4.008400 615.160828
209 0 1 5.538990 3.819600 615.986511
210 0 1 4.946020 3.806710 616.786682
211 0 1 4.582570 4.117700 617.734619
212 0 1 4.347460 4.466740 618.616699
213 0 1 4.157170 4.559030 619.592834
214 0 1 4.024600 4.700760 620.550171
215 0 1 3.887850 4.758680 621.512451
216 0 1 3.764380 4.864830 622.459534
217 0 1 3.698400 5.029940 623.394897
218 0 1 3.654360 5.018330 624.419495
219 0 1 3.768180 5.082650 625.346191
220 0 1 3.899840 5.269520 626.264893
221 0 1 3.889700 5.515920 627.177979
222 0 1 4.090960 5.930220 628.008301
223 0 1 3.971160 5.942180 628.966187
224 0 1 3.844480 6.203580 629.881348
225 0 1 3.566090 6.414910 630.753479
226 0 1 3.334900 6.828240 631.566406
227 0 1 3.141530 7.413143 632.328369
228 0 1 3.078120 7.929905 633.127075
229 0 1 3.042980 8.194675 634.061279
230 0 1 2.857210 8.525472 634.945740
231 0 1 2.625200 8.802673 635.823303
232 0 1 2.356820 8.853050 636.783569
233 0 1 2.249340 8.981645 637.699951
234 0 1 2.203190 9.500731 638.466980
235 0 1 2.266420 9.858930 639.366089
236 0 1 2.211750 10.339290 640.214905
237 0 1 2.398220 10.767010 641.056274
238 0 1 2.763000 10.942440 641.915710
239 0 1 3.149120 11.032010 642.837830
240 0 1 3.756740 11.066720 643.596680
241 0 1 4.337660 10.869240 644.340271
242 0 1 4.687720 10.527090 645.181274
243 0 1 5.010740 10.236670 646.060181
244 0 1 5.279580 10.102080 646.976501
245 0 1 5.342760 9.872800 647.889709
246 0 1 5.448730 9.536770 648.821228
247 0 1 5.225320 9.523800 649.761597
248 0 1 5.156240 9.220290 650.690125
249 0 1 5.020620 9.007760 651.597290
250 0 1 5.199180 8.928734 652.586792
251 0 1 5.527720 8.807344 653.461609
252 0 1 5.751690 8.421415 654.321716
253 0 1 6.062590 8.025591 655.152588
254 0 1 6.088680 7.717043 656.117310
255 0 1 5.896120 7.442453 657.044006
256 0 1 5.906560 7.343848 658.033508
257 0 1 6.299050 7.311878 658.884827
258 0 1 6.704270 7.219767 659.757874
259 0 1 7.208943 7.080358 660.582275
260 0 1 7.769364 6.804950 661.229492
261 0 1 8.419012 6.558640 661.912476
262 0 1 8.940126 6.487520 662.783203
263 0 1 9.597760 6.581150 663.529114
264 0 1 10.152030 6.620350 664.317688
265 0 1 10.765330 6.803430 665.003113
266 0 1 11.439580 6.849520 665.695374
267 0 1 11.778390 6.893520 666.577209
268 0 1 12.071100 6.715590 667.529724
269 0 1 12.156120 6.510730 668.486877
270 0 1 12.302740 6.342870 669.448120
271 0 1 12.377080 6.313970 670.457275
272 0 1 12.215710 6.217240 671.384277
273 0 1 11.876090 6.348210 672.318420
274 0 1 11.539270 6.266700 673.296997
275 0 1 11.356290 6.277810 674.220398
276 0 1 11.104691 5.996200 675.092529
277 0 1 11.114930 5.495880 675.973511
278 0 1 11.236450 5.376250 676.935669
279 0 1 11.161460 5.467140 677.872925
280 0 1 10.951860 5.560560 678.795593
281 0 1 10.468470 5.810080 679.659119
282 0 1 9.944740 6.170810 680.394226
283 0 1 9.464030 6.521120 681.127625
284 0 1 9.280710 6.787280 682.044678
285 0 1 9.629860 7.299624 682.802185
286 0 1 9.826140 7.776274 683.700684
287 0 1 10.117920 7.937653 684.597778
288 0 1 10.214990 8.044960 685.566101
289 0 1 10.092210 8.110490 686.566528
290 0 1 9.742870 8.316276 687.410706
291 0 1 9.255400 8.736351 688.145508
292 0 1 9.032240 9.079610 689.040405
293 0 1 8.994373 9.430260 689.911194
294 0 1 9.003000 9.890810 690.811768
295 0 1 8.749363 10.437410 691.523376
296 0 1 8.649414 11.108580 692.169006
297 0 1 8.278133 11.554010 693.039124
298 0 1 8.318156 11.767800 693.984131
299 0 1 8.575919 12.025209 694.908020
300 0 1 8.469755 12.140630 695.942810
301 0 1 8.529101 12.260930 696.903076
302 0 1 8.379807 12.572210 697.804077
303 0 1 8.266622 13.132549 698.609985
304 0 1 8.317632 13.720340 699.378296
305 0 1 8.065887 14.167130 700.213196
306 0 1 7.886929 14.418671 701.153381
307 0 1 7.753882 14.529290 702.144592
308 0 1 7.733121 14.057640 702.971069
309 0 1 8.000321 13.494940 703.647888
310 0 1 8.386509 13.084249 704.439575
311 0 1 8.486832 12.824980 705.352722
312 0 1 8.676358 12.761440 706.300171
313 0 1 9.148970 12.861691 707.101929
314 0 1 9.446290 12.857380 708.059387
315 0 1 9.240700 12.775209 708.989075
316 0 1 9.240160 12.630220 709.913025
317 0 1 9.349840 12.349020 710.832703
318 0 1 9.522980 12.158230 711.726501
319 0 1 9.490570 12.047470 712.719910
320 0 1 9.513800 11.957600 713.713806
321 0 1 9.804180 11.966280 714.625916
322 0 1 9.856500 12.034821 715.569885
323 0 1 10.126760 12.220631 716.517395
324 0 1 10.183400 12.032140 717.479675
325 0 1 10.314500 11.718400 718.418518
326 0 1 10.517090 11.212690 719.226501
327 0 1 10.665840 10.536130 719.857117
328 0 1 10.607460 9.761010 720.447021
329 0 1 10.578440 8.971996 720.989990
330 0 1 10.151060 8.277918 721.505615
331 0 1 9.873190 7.561333 722.066223
332 0 1 9.617810 6.970740 722.687683
333 0 1 9.280980 6.575960 723.522583
334 0 1 8.674640 6.533890 724.289185
335 0 1 8.124607 6.475670 725.106201
336 0 1 8.004457 6.308360 726.171631
337 0 1 8.168177 6.109970 727.037292
338 0 1 7.836011 6.078000 727.969116
339 0 1 7.556806 6.194730 728.853027
340 0 1 7.351684 6.088190 729.757019
341 0 1 7.180159 5.799700 730.648987
342 0 1 6.846660 5.580510 731.544006
343 0 1 6.673640 5.388710 732.505981
344 0 1 6.479620 5.104770 733.401001
345 0 1 6.057040 5.027500 734.240967
346 0 1 5.511910 5.241660 735.057007
347 0 1 5.019240 5.186360 735.835999
348 0 1 4.529500 5.270600 736.653015
349 0 1 4.165750 5.358110 737.533997
350 0 1 3.742650 5.649950 738.341003
351 0 1 3.406140 5.938610 739.164978
352 0 1 3.101930 6.301150 739.964966
353 0 1 2.846350 6.572840 740.924988
354 0 1 2.532580 7.297162 741.539001
355 0 1 2.462440 8.035469 742.070984
356 0 1 2.420740 8.856238 742.570007
357 0 1 2.513910 9.670590 743.143982
358 0 1 3.084570 10.241529 743.640991
359 0 1 3.663390 10.591880 744.325012
360 0 1 3.947670 10.859800 745.189026
361 0 1 4.461510 10.961220 746.004028
362 0 1 5.026450 10.785700 746.755005
363 0 1 5.518860 10.762320 747.582031
364 0 1 5.851590 11.023670 748.512024
365 0 1 6.111640 11.544760 749.288025
366 0 1 6.242850 11.863700 750.231018
367 0 1 6.410870 12.239260 751.137024
368 0 1 6.588360 12.780371 751.903992
369 0 1 6.946500 13.103580 752.718018
370 0 1 6.903970 13.217210 753.655029
371 0 1 6.999330 13.178530 754.656982
372 0 1 7.156308 13.158060 755.588013
373 0 1 6.881600 13.144520 756.481995
374 0 1 6.685570 12.939180 757.403992
375 0 1 6.618170 12.750771 758.332031
376 0 1 6.662730 12.828880 759.301025
377 0 1 6.395610 12.965879 760.291992
378 0 1 6.365050 12.659480 761.263000
379 0 1 6.041050 12.311940 762.070984
380 0 1 5.790630 11.805470 762.848999
381 0 1 5.821950 11.129660 763.530029
382 0 1 5.567810 10.413150 764.174988
383 0 1 5.212030 9.621750 764.588989
384 0 1 4.981960 8.773080 765.104004
385 0 1 4.578940 8.165138 765.780029
386 0 1 4.452350 7.502018 766.539001
387 0 1 4.550000 7.186731 767.416016
388 0 1 4.813280 7.039017 768.297974
389 0 1 4.778470 6.631370 769.226013
390 0 1 4.582710 6.340740 770.109009
391 0 1 4.458220 6.156530 771.039978
392 0 1 4.638760 6.248590 771.943970
393 0 1 4.857600 6.193510 772.841980
394 0 1 4.997720 6.143440 773.796997
395 0 1 5.227490 6.000790 774.700012
396 0 1 5.167880 5.743790 775.648987
397 0 1 5.397710 5.729570 776.617981
398 0 1 5.711570 5.682520 777.507996
399 0 1 6.005400 5.352720 778.354980
400 0 1 6.421440 5.269290 779.203003
401 0 1 6.867340 5.036580 780.039001
402 0 1 7.185814 4.604290 780.830017
403 0 1 7.612265 4.395530 781.684021
404 0 1 7.792501 3.780660 782.492004
405 0 1 8.082493 3.429180 783.338989
406 0 1 8.138547 3.339980 784.291016
407 0 1 8.622031 3.393940 785.130005
408 0 1 9.092720 3.277220 785.942993
409 0 1 9.225980 3.103860 786.893982
410 0 1 9.358420 3.029250 787.895996
411 0 1 9.337310 2.733240 788.864014
412 0 1 9.800750 2.535300 789.682007
413 0 1 10.280030 2.452410 790.516968
414 0 1 10.583390 2.600140 791.382019
415 0 1 10.675290 2.889150 792.367004
416 0 1 10.640320 3.206750 793.247986
417 0 1 10.559200 3.256840 794.139038
418 0 1 10.456890 3.520310 795.067993
419 0 1 10.539230 3.610160 796.041016
420 0 1 10.395160 3.893360 796.945984
421 0 1 10.325809 3.903150 797.922974
422 0 1 10.256620 3.965510 798.874023
423 0 1 10.152380 4.018320 799.846985
424 0 1 9.987230 4.224750 800.765991
425 0 1 10.145630 4.623770 801.629028
426 0 1 10.405951 4.809660 802.487000
427 0 1 10.919621 4.802860 803.343018
428 0 1 11.349740 4.597640 804.242981
429 0 1 11.822050 4.248970 805.033997
430 0 1 12.176340 4.012420 805.911987
431 0 1 12.532650 4.135800 806.768982
432 0 1 12.894341 4.253580 807.598022
433 0 1 13.168750 4.569540 808.450012
434 0 1 13.056840 4.904840 809.346985
435 0 1 13.196070 5.124070 810.306030
436 0 1 13.197121 5.337670 811.249023
437 0 1 13.344601 5.380010 812.192993
438 0 1 13.346410 5.249790 813.177002
439 0 1 12.965090 5.124810 814.039978
440 0 1 12.517220 4.972550 814.880005
441 0 1 12.034430 5.059150 815.653992
442 0 1 11.492020 5.185610 816.497986
443 0 1 10.812820 5.485200 817.122009
444 0 1 10.124010 5.638240 817.768005
445 0 1 9.769680 6.104960 818.539978
446 0 1 9.336330 6.534070 819.278015
447 0 1 8.977768 7.021507 820.036011
448 0 1 8.634638 7.451680 820.780029
449 0 1 8.369251 7.915647 821.656982
450 0 1 8.348949 7.928135 822.617981
451 0 1 8.450859 7.578546 823.554993
452 0 1 8.171016 7.419429 824.437012
453 0 1 7.947492 7.200813 825.322021
454 0 1 7.583827 7.209467 826.276001
455 0 1 7.389090 7.366674 827.208008
456 0 1 6.984960 7.538310 828.132019
457 0 1 6.865560 7.476182 829.145996
458 0 1 6.646540 7.023670 829.995972
459 0 1 6.552650 6.420490 830.797974
460 0 1 6.472970 5.686730 831.523987
461 0 1 6.519160 4.927170 832.127014
462 0 1 6.170200 4.389010 832.848999
463 0 1 5.594220 3.920760 833.375000
464 0 1 5.048310 3.470290 834.033020
465 0 1 4.785590 3.049150 834.838013
466 0 1 4.709980 2.675230 835.687988
467 0 1 4.714070 2.558000 836.635986
468 0 1 4.821340 2.548590 837.565002
469 0 1 5.049390 2.801810 838.479980
470 0 1 5.155910 3.125820 839.414001
471 0 1 5.405670 3.449680 840.309998
472 0 1 5.814880 3.984770 840.978027
473 0 1 6.301050 4.749380 841.315979
474 0 1 6.803900 5.472830 841.554993
475 0 1 7.381992 6.211370 841.242981
476 0 1 8.025821 6.733730 840.823975
477 0 1 8.617240 7.000984 840.184998
478 0 1 9.026700 6.989060 839.372986
479 0 1 9.449290 6.912500 838.492981
480 0 1 9.738720 6.747270 837.619019
481 0 1 9.951450 6.672870 836.671021
482 0 1 10.172240 6.515960 835.778992
483 0 1 10.409570 6.205120 834.932983
484 0 1 10.380490 5.961920 833.966003
485 0 1 10.192900 5.852940 832.971008
486 0 1 9.924640 5.957560 832.010010
487 0 1 9.463511 5.890780 831.210999
488 0 1 9.109880 6.206690 830.349976
489 0 1 8.558326 6.217810 829.565979
490 0 1 8.081439 5.857630 828.776978
491 0 1 7.426921 5.597620 828.120972
492 0 1 7.019742 5.818670 827.265991
493 0 1 6.551610 6.040390 826.505005
494 0 1 6.240100 6.359180 825.687988
495 0 1 6.169100 6.660640 824.744019
496 0 1 6.320330 7.139999 823.953003
497 0 1 6.229350 7.504964 823.075012
498 0 1 6.271020 7.702018 822.132019
499 0 1 6.184570 7.846831 821.213989
500 0 1 6.164340 7.882498 820.268005
501 0 1 6.157380 7.530684 819.405029
502 0 1 5.988140 7.212388 818.549988
503 0 1 6.214860 7.006784 817.671021
504 0 1 6.561030 6.746790 816.807007
505 0 1 6.890100 6.491410 815.901001
506 0 1 7.191874 6.262110 815.009033
507 0 1 7.379064 6.046740 814.108032
508 0 1 7.662709 5.681820 813.265991
509 0 1 7.862423 5.305350 812.385986
510 0 1 7.726142 5.169530 811.403992
511 0 1 7.545896 5.122180 810.499023
512 0 1 7.548203 5.252030 809.568970
513 0 1 7.711323 5.375530 808.636963
514 0 1 7.840291 5.222780 807.667969
515 0 1 7.646578 5.203640 806.667969
516 0 1 7.557912 5.092170 805.739014
517 0 1 7.430985 5.054330 804.828003
518 0 1 7.559762 4.993070 803.838989
519 0 1 7.443347 5.203830 802.908997
520 0 1 7.347669 5.364600 801.992004
521 0 1 7.502139 5.401320 801.020020
522 0 1 7.440802 5.496390 800.057983
523 0 1 7.614236 5.567200 799.130981
524 0 1 7.870772 5.758830 798.182983
525 0 1 7.989086 5.643450 797.229004
526 0 1 8.215927 5.362610 796.323975
527 0 1 8.377127 5.041910 795.489014
528 0 1 8.406292 4.841920 794.572998
529 0 1 8.892251 4.923280 793.742004
530 0 1 9.352610 4.977950 792.882019
531 0 1 9.715360 5.079800 792.002991
532 0 1 10.227261 5.351100 791.190979
533 0 1 10.665319 5.423370 790.339966
534 0 1 10.914790 5.915280 789.570984
535 0 1 10.881410 6.485630 788.763000
536 0 1 10.952460 7.115487 788.036011
537 0 1 10.807370 7.853786 787.426025
538 0 1 10.930059 8.195188 786.591980
539 0 1 11.186630 8.312785 785.705017
540 0 1 11.290940 8.592454 784.695984
541 0 1 11.313820 8.765793 783.726990
542 0 1 11.350010 9.092130 782.885010
543 0 1 11.178550 9.347651 781.955994
544 0 1 11.247931 9.679860 781.000000
545 0 1 11.017410 9.817530 780.044006
546 0 1 10.699480 9.734710 779.181030
547 0 1 10.490550 9.800020 778.235962
548 0 1 10.324970 9.887020 777.294983
549 0 1 10.289660 9.758450 776.363037
550 0 1 10.820090 9.855270 775.561035
551 0 1 11.329590 9.520390 774.761963
552 0 1 11.598790 9.140750 773.889038
553 0 1 11.856689 8.713971 773.054016
554 0 1 12.198470 8.256884 772.257019
555 0 1 12.033580 7.758969 771.385986
556 0 1 11.841021 7.261897 770.622009
557 0 1 11.824170 6.731130 769.825012
558 0 1 11.835060 6.450300 768.927002
559 0 1 11.835490 6.650760 768.016968
560 0 1 11.954340 6.692480 767.057007
561 0 1 12.014650 6.526050 766.098022
562 0 1 12.083691 6.420500 765.179016
563 0 1 12.121590 6.323000 764.223999
564 0 1 12.222990 6.044090 763.304993
565 0 1 11.990891 5.776760 762.424011
566 0 1 12.036580 5.553000 761.426025
567 0 1 11.774210 5.236690 760.554993
568 0 1 11.178640 5.208330 759.802979
569 0 1 10.726870 5.053990 759.011963
570 0 1 10.407280 4.890320 758.134033
571 0 1 10.117680 4.613160 757.233032
572 0 1 9.724751 4.594790 756.333984
573 0 1 9.390170 4.578070 755.464966
574 0 1 9.321000 4.743220 754.518005
575 0 1 9.331900 4.858880 753.585022
576 0 1 9.602570 4.811610 752.664978
577 0 1 9.450670 4.817010 751.739014
578 0 1 9.366250 4.938610 750.765991
579 0 1 8.977398 4.977620 749.900024
580 0 1 8.675290 5.181310 749.010010
581 0 1 8.563515 5.496510 748.085999
582 0 1 8.445183 5.799010 747.195984
583 0 1 8.465177 5.528180 746.239014
584 0 1 8.466467 5.555430 745.239014
585 0 1 8.230632 5.885590 744.343018
586 0 1 8.090131 6.147010 743.453003
587 0 1 8.145684 6.352700 742.549011
588 0 1 8.408506 6.474330 741.620972
589 0 1 8.654528 6.152420 740.719971
590 0 1 8.631183 5.924500 739.759033
591 0 1 8.565033 5.700920 738.718018
592 0 1 8.091135 5.659910 737.890015
593 0 1 7.584760 5.729430 737.088989
594 0 1 7.007113 5.973170 736.362976
595 0 1 6.584060 6.177010 735.471008
596 0 1 6.083070 6.154580 734.630981
597 0 1 5.702380 6.276760 733.757996
598 0 1 5.369520 6.568960 732.888977
599 0 1 5.083560 6.900300 732.000977
600 0 1 4.813610 6.874410 731.033020
601 0 1 4.597000 6.712200 730.093018
602 0 1 4.390440 6.576120 729.192017
603 0 1 4.399330 6.377540 728.284790
604 0 1 4.845740 6.251150 727.432983
605 0 1 5.272310 6.020260 726.560486
606 0 1 5.826590 6.102740 725.722107
607 0 1 6.357290 5.717240 725.000732
608 0 1 6.925340 5.683880 724.176025
609 0 1 7.177517 5.805020 723.235291
610 0 1 7.161979 5.878360 722.245483
611 0 1 7.329563 6.133270 721.349609
612 0 1 7.493057 6.277530 720.427979
613 0 1 7.698171 6.475160 719.421997
614 0 1 8.263040 6.491360 718.595276
615 0 1 8.795464 6.507470 717.745728
616 0 1 9.276220 6.510200 716.982300
617 0 1 9.595090 6.487590 716.032410
618 0 1 9.788589 6.783170 715.054199
619 0 1 9.443190 6.994120 714.193176
620 0 1 8.802506 7.125315 713.450012
621 0 1 8.098045 7.400584 712.856201
622 0 1 7.408711 7.781584 712.363281
623 0 1 6.936120 8.124601 711.577026
624 0 1 6.400770 8.587921 710.855896
625 0 1 5.986090 9.157980 710.182129
626 0 1 5.433340 9.600890 709.519531
627 0 1 5.069150 10.253620 708.906982
628 0 1 5.100690 11.009080 708.367126
629 0 1 5.075630 11.705950 707.700073
630 0 1 5.110160 12.080920 706.798828
631 0 1 5.189190 12.324420 705.832397
632 0 1 5.062470 12.525391 704.903076
633 0 1 4.940940 12.979120 704.087769
634 0 1 4.922030 13.363520 703.162415
635 0 1 5.234050 13.476151 702.251709
636 0 1 5.495990 13.511220 701.323792
637 0 1 5.664730 13.393280 700.419067
638 0 1 5.530700 13.314970 699.423706
639 0 1 5.455850 13.463200 698.547485
640 0 1 5.311070 13.808250 697.677368
641 0 1 5.321100 13.737240 696.754211
642 0 1 5.139020 13.530080 695.863770
643 0 1 5.156170 13.297501 694.933777
644 0 1 5.262660 13.057320 693.984314
645 0 1 5.607650 13.206699 693.042297
646 0 1 5.933090 13.151520 692.119873
647 0 1 6.478390 13.157650 691.263000
648 0 1 6.881210 12.826190 690.468689
649 0 1 7.120279 12.245850 689.688232
650 0 1 7.299244 11.786591 688.890808
651 0 1 7.613311 11.428900 688.065796
652 0 1 8.011003 10.863689 687.401978
653 0 1 8.374194 10.319780 686.536682
654 0 1 8.464780 10.060070 685.645508
655 0 1 8.324201 9.686370 684.788330
656 0 1 7.939519 9.191590 684.041504
657 0 1 7.704963 8.914656 683.160095
658 0 1 7.431201 9.077940 682.257568
659 0 1 7.261957 9.255260 681.305115
660 0 1 7.299122 9.551880 680.383423
661 0 1 7.254904 9.867340 679.501282
662 0 1 7.290817 10.208590 678.596985
663 0 1 7.064969 10.337920 677.646423
664 0 1 6.758240 10.466870 676.734802
665 0 1 6.071960 10.681360 676.060913
666 0 1 5.643840 10.879720 675.239807
667 0 1 5.347300 11.251760 674.400513
668 0 1 5.197230 11.466120 673.452026
669 0 1 5.082170 11.827830 672.550598
670 0 1 4.740300 12.139280 671.709595
671 0 1 4.342380 12.585580 670.942383
672 0 1 4.119520 13.127310 670.166016
673 0 1 4.142760 13.377769 669.260620
674 0 1 4.269950 13.517310 668.330200
675 0 1 4.501500 13.398720 667.378784
676 0 1 4.744640 13.559520 666.449524
677 0 1 4.925310 13.366470 665.478516
678 0 1 5.076200 12.987090 664.667969
679 0 1 5.272900 12.515630 663.824829
680 0 1 5.624690 12.403880 662.966797
681 0 1 6.000000 12.106939 662.122192
682 0 1 6.234920 11.737980 661.226624
683 0 1 6.225420 11.744050 660.227783
684 0 1 6.233360 11.531300 659.280579
685 0 1 6.462660 11.150820 658.356079
686 0 1 6.794110 10.638430 657.677795
687 0 1 7.194955 10.077710 657.023071
688 0 1 7.600738 9.338060 656.474731
689 0 1 8.012752 8.823147 655.816528
690 0 1 8.318879 8.332043 655.038879
691 0 1 8.666541 7.695206 654.429199
692 0 1 9.037610 7.169307 653.721802
693 0 1 8.930519 6.618510 652.941772
694 0 1 8.928698 5.884600 652.276184
695 0 1 8.715588 5.452570 651.486206
696 0 1 8.526281 5.216670 650.546326
697 0 1 8.180959 5.320050 649.601196
698 0 1 8.273679 5.511350 648.669678
699 0 1 8.385708 5.516720 647.678772
700 0 1 8.528477 5.400860 646.762207
701 0 1 9.218670 5.301570 646.076172
702 0 1 9.856810 5.244500 645.278198
703 0 1 10.351590 5.477440 644.453186
704 0 1 10.864531 5.760810 643.642273
705 0 1 11.097830 6.153280 642.806213
706 0 1 11.017380 6.388570 641.866882
707 0 1 11.049100 6.401990 640.884094
708 0 1 11.267520 6.444290 639.931519
709 0 1 11.529630 6.619250 639.019714
710 0 1 11.565580 7.022356 638.112793
711 0 1 11.401620 7.510411 637.251465
712 0 1 11.315650 7.852408 636.340637
713 0 1 11.162010 8.003449 635.386108
714 0 1 11.127871 8.337387 634.516357
715 0 1 10.900040 8.615247 633.637695
716 0 1 10.620010 8.724442 632.687927
717 0 1 10.354490 8.950389 631.781921
718 0 1 9.984610 8.839647 630.845154
719 0 1 9.594380 8.816509 629.975769
720 0 1 9.354370 8.712893 629.084656
721 0 1 8.873055 8.756987 628.262756
722 0 1 8.537530 8.818790 627.394836
723 0 1 8.395418 8.938560 626.416809
724 0 1 7.913756 8.939597 625.534668
725 0 1 7.568066 9.224860 624.696716
726 0 1 7.423682 9.005270 623.719849
727 0 1 7.225674 8.543003 622.905579
728 0 1 7.289759 8.243670 621.994751
729 0 1 7.337537 8.080048 620.995544
730 0 1 7.372954 8.060105 620.038330
731 0 1 7.576568 7.988455 619.108154
732 0 1 7.525097 8.026706 618.135986
733 0 1 7.418514 8.054752 617.208008
734 0 1 7.317374 8.091484 616.248596
735 0 1 6.959200 8.058062 615.319824
736 0 1 7.021469 7.911091 614.356995
737 0 1 6.964850 8.292983 613.478271
738 0 1 7.161880 8.190594 612.545898
739 0 1 7.703302 8.523700 611.780823
740 0 1 7.997638 9.032170 610.993713
741 0 1 8.188118 9.522740 610.212769
742 0 1 8.492964 10.065910 609.422729
743 0 1 8.867118 10.323540 608.608521
744 0 1 9.132440 10.364080 607.664124
745 0 1 9.352320 10.320530 606.753723
746 0 1 9.449080 10.086620 605.807922
747 0 1 9.726130 9.811050 604.888184
748 0 1 10.057700 9.863380 603.981995
749 0 1 10.325000 9.869390 603.035889
750 0 1 10.286210 9.756190 602.093201
751 0 1 9.837160 9.640440 601.244629
752 0 1 9.244270 9.597380 600.448730
753 0 1 8.619240 9.737880 599.756775
754 0 1 7.841147 9.761971 599.187988
755 0 1 6.995050 9.821340 598.770386
756 0 1 6.200040 9.859591 598.187622
757 0 1 5.479120 9.766070 597.515320
758 0 1 4.921300 10.023930 596.704590
759 0 1 4.203630 10.061900 595.960815
760 0 1 3.635940 9.822090 595.198486
761 0 1 3.075650 9.575390 594.379395
762 0 1 2.778060 9.414170 593.413818
763 0 1 2.522490 9.485570 592.424072
764 0 1 2.534780 9.254520 591.469299
765 0 1 2.272600 9.031700 590.582581
766 0 1 2.279300 8.598090 589.730286
767 0 1 2.619230 8.150497 588.882019
768 0 1 3.056180 7.641894 588.238586
769 0 1 3.539670 7.103296 587.559387
770 0 1 3.947210 6.639210 586.737183
771 0 1 4.444880 6.270190 585.958923
772 0 1 4.876720 6.050910 585.091980
773 0 1 5.389740 5.844860 584.291687
774 0 1 5.817930 5.760750 583.446716
775 0 1 6.011980 5.932830 582.550476
776 0 1 6.191510 6.132540 581.603394
777 0 1 6.567830 6.096980 580.665222
778 0 1 6.914990 5.885820 579.820923
779 0 1 7.334715 5.802070 578.904724
780 0 1 7.508052 5.550880 577.989014
781 0 1 8.014729 5.704600 577.109375
782 0 1 8.760935 5.743440 576.491089
783 0 1 9.398700 6.201190 575.978699
784 0 1 9.830800 6.750310 575.335083
785 0 1 10.112300 7.260452 574.539185
786 0 1 10.459970 7.418838 573.682800
787 0 1 10.630910 7.457458 572.750183
788 0 1 11.047780 7.324923 571.836304
789 0 1 11.393570 7.354189 570.949707
790 0 1 11.659800 7.477422 570.046021
791 0 1 12.068190 7.746099 569.231812