LAMMPS data file via MDAnalysis

        1000  atoms
        1000  bonds
        1000  angles
           0  dihedrals
           0  impropers

           1  atom types
           1  bond types
           1  angle types
           0  dihedral types
           0  improper types

0.000000 16.000000 xlo xhi
0.000000 16.000000 ylo yhi
0.000000 1257.000000 zlo zhi


Masses

1 1.000000

Atoms

1 0 1 6.029350 1.714820 452.839996
2 0 1 6.440490 1.534150 453.768005
3 0 1 7.003742 1.476100 454.515015
4 0 1 7.401496 1.523960 455.429016
5 0 1 7.330354 1.470420 456.434021
6 0 1 7.510437 1.198150 457.369019
7 0 1 7.741801 1.256540 458.285004
8 0 1 7.841138 1.397560 459.201996
9 0 1 7.912219 1.591140 460.114014
10 0 1 7.770275 1.963160 461.036011
11 0 1 7.643580 2.330240 461.882996
12 0 1 7.862565 2.892860 462.612000
13 0 1 8.374535 3.453560 463.227997
14 0 1 8.891683 4.129020 463.559998
15 0 1 9.282640 4.848160 464.062988
16 0 1 9.652570 5.585850 464.468018
17 0 1 10.332080 6.259380 464.687012
18 0 1 11.095680 6.848940 465.000000
19 0 1 11.694890 7.300388 465.505981
20 0 1 12.233320 7.722770 466.184021
21 0 1 12.879610 7.933665 466.906006
22 0 1 13.316730 8.471217 467.697021
23 0 1 13.720870 8.800454 468.487000
24 0 1 13.845480 9.111200 469.375000
25 0 1 13.838240 9.268900 470.360992
26 0 1 13.405960 9.333590 471.233002
27 0 1 12.879490 9.618330 472.078979
28 0 1 12.217760 9.943690 472.692017
29 0 1 11.618361 10.388660 473.477997
30 0 1 11.282450 11.052480 474.096008
31 0 1 10.904230 11.567200 474.773010
32 0 1 10.524900 12.110160 475.557983
33 0 1 10.332720 12.692430 476.351990
34 0 1 10.246280 12.982340 477.251007
35 0 1 10.245380 13.342120 478.147003
36 0 1 10.068390 13.598010 479.067993
37 0 1 9.762770 13.862619 479.898010
38 0 1 9.142170 13.954870 480.610992
39 0 1 8.584896 13.996611 481.434998
40 0 1 7.720541 13.841030 481.904999
41 0 1 6.985450 13.572720 482.458984
42 0 1 6.114660 13.283660 482.807007
43 0 1 5.276090 13.182060 483.276001
44 0 1 4.524610 13.093040 483.838013
45 0 1 3.889520 12.757390 484.458984
46 0 1 3.763490 12.621799 485.364990
47 0 1 3.561360 12.350580 486.296021
48 0 1 3.732850 11.998550 487.106018
49 0 1 4.004300 11.635420 487.958008
50 0 1 4.166840 11.022779 488.735992
51 0 1 4.194550 10.459700 489.520020
52 0 1 4.291150 10.076200 490.377014
53 0 1 4.598610 9.664280 491.294983
54 0 1 4.784200 9.231700 492.091003
55 0 1 5.088180 9.068700 493.003998
56 0 1 5.428410 8.720619 493.776978
57 0 1 5.802380 8.394832 494.601013
58 0 1 5.940420 8.024134 495.455017
59 0 1 6.011990 7.806528 496.382996
60 0 1 6.227120 7.927604 497.317017
61 0 1 5.968110 7.915569 498.335999
62 0 1 5.641830 7.927677 499.231018
63 0 1 5.383340 7.706950 500.130981
64 0 1 5.245670 7.497250 501.044006
65 0 1 5.235090 7.270839 502.001007
66 0 1 5.291520 7.013856 502.924011
67 0 1 5.516400 6.770080 503.799988
68 0 1 5.544950 6.305540 504.626007
69 0 1 5.563940 5.784330 505.412994
70 0 1 5.595580 5.341310 506.326996
71 0 1 5.754960 4.968540 507.171997
72 0 1 5.888510 4.607550 508.057007
73 0 1 6.058190 4.329910 508.979004
74 0 1 6.308950 4.123260 509.963013
75 0 1 6.626130 3.945670 510.880981
76 0 1 6.859140 3.863810 511.785004
77 0 1 7.208068 4.031860 512.697998
78 0 1 7.858507 4.509150 513.260010
79 0 1 8.365631 4.894870 513.953979
80 0 1 8.973046 4.996210 514.690002
81 0 1 9.635010 4.943980 515.445984
82 0 1 10.187799 5.121280 516.205017
83 0 1 10.670940 5.327160 517.010010
84 0 1 10.995970 5.569060 517.908020
85 0 1 11.025640 6.033940 518.766968
86 0 1 11.186200 6.469250 519.625977
87 0 1 11.252550 6.855470 520.526978
88 0 1 11.684090 7.074207 521.507996
89 0 1 11.911470 7.500441 522.318970
90 0 1 12.024660 7.898255 523.163025
91 0 1 12.002480 8.304049 524.106995
92 0 1 12.053920 8.641610 524.964966
93 0 1 12.362360 8.902317 525.815002
94 0 1 12.818680 9.117630 526.596985
95 0 1 13.028060 9.578890 527.387024
96 0 1 13.473830 9.887800 528.148010
97 0 1 13.677130 10.340670 528.949890
98 0 1 13.640570 10.621130 529.844971
99 0 1 13.536560 10.865630 530.774780
100 0 1 13.286221 11.049140 531.718689
101 0 1 13.153490 11.176690 532.706177
102 0 1 13.168591 11.086990 533.650269
103 0 1 13.209459 11.219090 534.645874
104 0 1 13.226130 11.351860 535.588684
105 0 1 12.939640 11.303329 536.454712
106 0 1 12.583590 11.191010 537.348816
107 0 1 12.520990 11.323930 538.260681
108 0 1 12.042700 11.673600 539.010010
109 0 1 11.466750 11.832550 539.768005
110 0 1 10.809959 11.875910 540.474609
111 0 1 10.224250 11.848450 541.227722
112 0 1 9.896870 11.718860 542.083008
113 0 1 9.530870 11.418930 542.944885
114 0 1 9.020540 11.045780 543.664612
115 0 1 8.488098 10.634809 544.321411
116 0 1 7.876200 10.037600 544.740417
117 0 1 7.187687 9.688650 545.346680
118 0 1 6.418690 9.214050 545.891968
119 0 1 5.885730 8.772825 546.557190
120 0 1 5.196750 8.496127 547.154907
121 0 1 4.776880 8.242864 548.005798
122 0 1 4.280070 8.311741 548.841919
123 0 1 3.747410 8.252570 549.622070
124 0 1 3.134430 8.289820 550.399597
125 0 1 2.728240 8.224927 551.266907
126 0 1 2.366090 8.200974 552.112427
127 0 1 2.472550 8.332537 553.055298
128 0 1 2.563900 8.675549 554.026306
129 0 1 2.649960 8.532213 554.953979
130 0 1 3.045900 8.667960 555.793884
131 0 1 3.433530 8.532484 556.719971
132 0 1 3.759280 8.294711 557.577881
133 0 1 4.150440 7.926325 558.424500
134 0 1 4.512390 7.662710 559.338989
135 0 1 4.912410 7.394279 560.181580
136 0 1 5.558800 7.429167 561.001892
137 0 1 5.999880 7.504870 561.932190
138 0 1 6.443910 7.631289 562.794678
139 0 1 6.621580 7.937927 563.729614
140 0 1 6.747380 8.156398 564.636108
141 0 1 6.784360 8.348241 565.551208
142 0 1 6.811460 8.327877 566.488708
143 0 1 6.457140 8.152762 567.490601
144 0 1 6.039550 8.295299 568.417114
145 0 1 5.887940 8.697101 569.273804
146 0 1 6.078120 8.922819 570.192078
147 0 1 6.308470 9.184170 571.087402
148 0 1 6.312150 9.528340 571.948303
149 0 1 6.166080 9.672610 572.966980
150 0 1 5.769060 9.706160 573.899719
151 0 1 5.317560 9.577170 574.786194
152 0 1 5.228270 9.208140 575.679199
153 0 1 5.306240 9.225280 576.676086
154 0 1 5.387490 9.073380 577.620422
155 0 1 5.524970 8.910033 578.621582
156 0 1 5.397490 8.674875 579.512207
157 0 1 5.481960 8.392693 580.436584
158 0 1 5.768260 8.334371 581.360229
159 0 1 6.205400 8.326822 582.169678
160 0 1 6.904790 8.155674 582.824524
161 0 1 7.571483 8.005860 583.504578
162 0 1 8.110192 8.276972 584.242004
163 0 1 8.789226 8.460532 584.954712
164 0 1 9.422810 8.747902 585.656372
165 0 1 9.964490 8.910217 586.489807
166 0 1 10.190450 9.325540 587.363281
167 0 1 10.355200 9.747160 588.178406
168 0 1 10.570311 10.004020 589.070496
169 0 1 10.667610 10.073150 590.041870
170 0 1 11.114890 9.818810 590.867676
171 0 1 11.409750 9.793680 591.869690
172 0 1 11.572010 9.822960 592.815796
173 0 1 11.448270 9.888880 593.811523
174 0 1 11.656090 10.104259 594.761230
175 0 1 11.965549 10.142790 595.666992
176 0 1 11.972370 10.043090 596.567810
177 0 1 11.693040 9.953760 597.453308
178 0 1 11.963310 9.897730 598.369629
179 0 1 12.399850 9.895520 599.196472
180 0 1 12.752000 9.788830 600.041321
181 0 1 12.738970 9.794630 601.002014
182 0 1 12.554970 9.913490 601.934021
183 0 1 12.071011 10.273800 602.729797
184 0 1 11.603780 10.712151 603.466187
185 0 1 11.094350 11.059120 604.164795
186 0 1 10.976060 11.391250 605.093201
187 0 1 10.817310 11.806670 605.999878
188 0 1 10.939130 12.169250 606.904724
189 0 1 10.833630 12.629539 607.736023
190 0 1 10.516640 13.085950 608.654297
191 0 1 10.314210 13.472710 609.481323
192 0 1 10.128360 13.597071 610.408081
193 0 1 10.086460 13.424520 611.338684
194 0 1 10.028980 13.184280 612.226379
195 0 1 9.884410 12.883980 613.159485
196 0 1 9.874230 12.358360 614.038086
197 0 1 9.438210 11.975650 614.810913
198 0 1 8.837172 11.679180 615.563721
199 0 1 8.458632 11.291440 616.344604
200 0 1 8.079926 10.926130 617.115479
201 0 1 7.480080 10.770620 617.883728
202 0 1 6.700430 10.624510 618.479980
203 0 1 6.069660 10.361130 619.103760
204 0 1 5.548980 10.262260 619.914795
205 0 1 5.442030 10.221760 620.871521
206 0 1 5.573590 10.111790 621.799255
207 0 1 5.877420 10.108550 622.661316
208 0 1 6.123600 9.994080 623.643433
209 0 1 6.295460 9.836540 624.675293
210 0 1 6.272290 9.757040 625.686218
211 0 1 6.409070 9.396860 626.526306
212 0 1 6.864070 8.786179 627.181641
213 0 1 7.068697 7.983131 627.734680
214 0 1 7.229630 7.189366 628.285950
215 0 1 7.142062 6.443650 628.848694
216 0 1 6.918270 5.908050 629.618286
217 0 1 7.110423 5.412640 630.377380
218 0 1 7.042575 5.130600 631.273499
219 0 1 6.829940 4.895090 632.225220
220 0 1 6.368590 5.091350 633.107056
221 0 1 5.986310 5.164110 634.019775
222 0 1 5.769760 5.158050 634.963501
223 0 1 5.555880 5.706670 635.756653
224 0 1 5.573660 5.956130 636.669678
225 0 1 5.845180 6.252710 637.510437
226 0 1 6.286070 6.709970 638.204224
227 0 1 6.519670 7.020047 639.117004
228 0 1 6.643400 7.408787 639.996582
229 0 1 7.075069 7.579204 640.911804
230 0 1 7.240609 7.765995 641.810730
231 0 1 7.365785 7.727999 642.752075
232 0 1 7.330929 7.333629 643.717102
233 0 1 7.427242 6.911740 644.578491
234 0 1 7.301855 6.624740 645.463623
235 0 1 6.977150 6.300870 646.325500
236 0 1 6.879530 6.133700 647.256592
237 0 1 6.713620 5.707930 648.099487
238 0 1 6.737560 5.240840 648.927002
239 0 1 6.613420 4.631030 649.866272
240 0 1 6.831710 4.398200 650.837280
241 0 1 6.992180 4.295240 651.776428
242 0 1 7.071910 4.571070 652.683899
243 0 1 7.262173 4.941240 653.542969
244 0 1 7.546783 5.515710 654.288696
245 0 1 7.719085 5.803550 655.131226
246 0 1 8.295167 6.141070 655.815674
247 0 1 8.514725 6.802600 656.485779
248 0 1 9.017490 7.443836 657.019897
249 0 1 9.392720 8.202406 657.395874
250 0 1 10.054260 8.771908 657.823730
251 0 1 10.572430 9.385490 658.343384
252 0 1 11.095400 10.066050 658.717529
253 0 1 11.747210 10.544540 659.193726
254 0 1 12.180950 11.000150 660.014099
255 0 1 12.513910 11.301929 660.858032
256 0 1 12.742280 11.751680 661.752502
257 0 1 12.848670 11.934160 662.661987
258 0 1 13.008801 11.898849 663.628784
259 0 1 13.107861 11.955590 664.692627
260 0 1 12.951540 11.972130 665.631775
261 0 1 12.702950 11.951440 666.599792
262 0 1 12.310870 11.930550 667.472168
263 0 1 12.231020 11.468800 668.334412
264 0 1 12.248950 11.523240 669.302307
265 0 1 12.194759 11.575220 670.202881
266 0 1 12.180429 11.350640 671.184692
267 0 1 12.192900 11.078711 672.134216
268 0 1 12.056910 10.973600 673.055603
269 0 1 11.862620 11.030810 674.003113
270 0 1 11.590549 11.142920 675.022095
271 0 1 11.466240 10.977430 675.969177
272 0 1 11.448690 10.604400 676.927979
273 0 1 11.434330 10.072320 677.792175
274 0 1 11.261600 9.567130 678.545532
275 0 1 10.761330 9.159130 679.248901
276 0 1 10.167480 8.629396 679.809692
277 0 1 9.679990 8.287533 680.508606
278 0 1 9.217410 8.047132 681.322205
279 0 1 8.983974 7.631326 682.180603
280 0 1 8.945284 7.204993 683.001221
281 0 1 8.778249 6.863800 683.937500
282 0 1 8.642022 6.473270 684.749207
283 0 1 8.239546 6.051050 685.406128
284 0 1 8.330895 5.711220 686.324097
285 0 1 8.697453 5.383860 687.145630
286 0 1 8.913516 5.267340 688.092590
287 0 1 9.049000 5.242640 689.041687
288 0 1 9.327650 5.194030 689.972778
289 0 1 9.511920 5.279970 690.927612
290 0 1 9.801850 5.542290 691.813293
291 0 1 9.926570 5.862260 692.720886
292 0 1 9.885120 6.176520 693.724915
293 0 1 9.892540 6.417370 694.678894
294 0 1 9.972651 6.422530 695.599976
295 0 1 9.855120 6.292900 696.579468
296 0 1 9.612770 6.173640 697.499268
297 0 1 9.361180 6.192630 698.511780
298 0 1 9.159110 6.532730 699.389221
299 0 1 9.229170 6.739550 700.308228
300 0 1 9.475850 6.691240 701.235413
301 0 1 9.702060 6.932920 702.178406
302 0 1 9.834980 7.135632 703.138306
303 0 1 10.059071 7.194102 704.112427
304 0 1 10.059860 7.014623 705.010498
305 0 1 10.355890 7.241959 705.841187
306 0 1 10.678080 7.488030 706.773499
307 0 1 10.844290 7.813243 707.714478
308 0 1 10.946580 7.880239 708.681030
309 0 1 10.916980 7.808769 709.623413
310 0 1 10.892760 8.072788 710.568909
311 0 1 11.045300 8.336345 711.470520
312 0 1 11.245380 8.451390 712.412415
313 0 1 11.585410 8.369533 713.324097
314 0 1 11.683320 7.859689 714.167114
315 0 1 11.807020 7.226406 714.838379
316 0 1 12.024200 6.556630 715.536377
317 0 1 12.180080 6.201730 716.455078
318 0 1 12.333981 5.917000 717.351990
319 0 1 12.499041 6.064050 718.278198
320 0 1 12.537960 6.192090 719.201294
321 0 1 12.505870 6.347690 720.054016
322 0 1 12.840651 6.571600 720.950928
323 0 1 12.840640 6.624010 721.945190
324 0 1 12.840010 6.443210 722.891785
325 0 1 12.694710 6.241520 723.872314
326 0 1 12.483339 5.969040 724.729309
327 0 1 12.266291 5.827080 725.679077
328 0 1 12.042660 5.650450 726.590515
329 0 1 11.969280 5.370460 727.549316
330 0 1 12.015100 5.361260 728.478088
331 0 1 12.016840 5.559680 729.575012
332 0 1 11.896170 6.104990 730.346985
333 0 1 12.088699 6.625240 731.135986
334 0 1 12.096951 6.874150 732.088013
335 0 1 12.118080 7.285988 732.986023
336 0 1 12.265440 7.578057 733.916992
337 0 1 12.519400 7.724673 734.791992
338 0 1 13.019791 7.820270 735.661987
339 0 1 13.240459 7.654176 736.666992
340 0 1 13.026950 7.331262 737.492981
341 0 1 12.942910 6.861780 738.322998
342 0 1 12.790590 6.442620 739.177979
343 0 1 12.638081 6.323450 740.117004
344 0 1 12.605480 6.199350 741.078979
345 0 1 12.364059 6.192810 741.997009
346 0 1 12.074680 6.564090 742.830017
347 0 1 11.648100 6.978910 743.697998
348 0 1 11.339700 7.085817 744.604004
349 0 1 11.266541 7.077285 745.521973
350 0 1 10.918910 6.936310 746.356995
351 0 1 10.708010 6.682150 747.299988
352 0 1 10.774310 6.587930 748.252991
353 0 1 10.695700 6.603520 749.252991
354 0 1 10.736200 6.937930 750.174011
355 0 1 10.506730 7.521713 750.903015
356 0 1 10.274620 8.105951 751.570007
357 0 1 10.337340 8.678688 752.452026
358 0 1 10.807899 9.146100 753.166992
359 0 1 10.846300 9.633550 753.989014
360 0 1 10.697750 9.988580 754.914001
361 0 1 10.836380 10.137939 755.822021
362 0 1 10.890160 10.236010 756.776978
363 0 1 11.106970 10.325800 757.719971
364 0 1 11.264940 10.517220 758.640991
365 0 1 11.064899 10.601160 759.593994
366 0 1 10.826950 10.539580 760.515015
367 0 1 10.293500 10.573900 761.294006
368 0 1 9.717340 10.582450 762.109009
369 0 1 9.010850 10.476160 762.789001
370 0 1 8.500528 10.245800 763.513000
371 0 1 7.957649 10.088330 764.223022
372 0 1 7.411778 10.131760 764.989014
373 0 1 6.768770 10.102800 765.625000
374 0 1 6.198400 10.149990 766.358032
375 0 1 5.371530 10.014140 766.799011
376 0 1 4.633940 9.517670 767.208008
377 0 1 3.936270 9.101830 767.807007
378 0 1 3.458450 8.630569 768.494995
379 0 1 3.213400 8.058098 769.213013
380 0 1 3.261600 7.477929 769.950989
381 0 1 3.011300 6.867300 770.662964
382 0 1 2.855950 6.424860 771.544006
383 0 1 2.643960 6.112370 772.419983
384 0 1 2.497110 5.661940 773.242981
385 0 1 2.394830 5.249360 774.125977
386 0 1 2.457960 4.949170 775.057007
387 0 1 2.715230 4.564670 775.858032
388 0 1 3.052220 4.448380 776.716003
389 0 1 3.316090 4.568150 777.593994
390 0 1 3.684280 4.689280 778.500000
391 0 1 3.944870 4.874600 779.426025
392 0 1 4.163010 5.123990 780.348999
393 0 1 4.364710 5.148890 781.278015
394 0 1 4.430920 5.174080 782.260986
395 0 1 4.612720 5.094020 783.200989
396 0 1 4.773430 5.104750 784.171997
397 0 1 4.687290 5.283060 785.174988
398 0 1 4.713270 5.715780 786.004028
399 0 1 4.696760 6.264320 786.778015
400 0 1 4.730780 6.606310 787.645020
401 0 1 4.696860 6.860690 788.619995
402 0 1 4.542390 6.977990 789.614990
403 0 1 4.448840 6.977250 790.601990
404 0 1 4.424410 6.913580 791.539001
405 0 1 4.372000 6.872180 792.431030
406 0 1 4.062630 7.040108 793.323975
407 0 1 3.685140 7.458533 794.065002
408 0 1 3.322800 8.008039 794.742981
409 0 1 2.983550 8.382936 795.656982
410 0 1 2.960760 8.325278 796.638000
411 0 1 3.046690 8.391395 797.557007
412 0 1 3.244140 8.229738 798.513000
413 0 1 3.435490 7.912127 799.390991
414 0 1 3.663460 8.005235 800.385010
415 0 1 3.935690 8.138263 801.333008
416 0 1 4.264310 8.005373 802.237000
417 0 1 4.831950 7.743962 802.976990
418 0 1 5.240400 7.466344 803.806030
419 0 1 5.094930 7.031049 804.744019
420 0 1 5.130830 6.730160 805.687012
421 0 1 5.256080 6.510850 806.614990
422 0 1 5.311050 6.455870 807.554016
423 0 1 5.414870 6.174430 808.466980
424 0 1 5.458910 5.963160 809.450989
425 0 1 5.484300 5.818400 810.406006
426 0 1 5.610520 5.846500 811.359009
427 0 1 5.553190 5.790960 812.252014
428 0 1 5.516290 5.846210 813.278015
429 0 1 5.650130 6.043900 814.195984
430 0 1 5.922930 6.474170 815.004028
431 0 1 6.133080 6.560900 815.898987
432 0 1 6.424850 6.643310 816.807007
433 0 1 6.636760 6.836250 817.705994
434 0 1 6.278640 6.907250 818.591980
435 0 1 5.613990 6.996200 819.322021
436 0 1 5.526840 6.744310 820.210022
437 0 1 5.241430 6.687500 821.203003
438 0 1 4.910880 6.522550 822.176025
439 0 1 4.486420 6.618380 823.075989
440 0 1 4.086680 6.851180 823.906006
441 0 1 3.717860 6.951980 824.817017
442 0 1 3.433140 7.248321 825.719971
443 0 1 3.464220 7.490088 826.624023
444 0 1 3.648310 7.515002 827.559998
445 0 1 3.770750 7.732339 828.471008
446 0 1 3.977570 8.211883 829.289001
447 0 1 3.980070 8.492615 830.181030
448 0 1 4.239440 8.696754 831.119995
449 0 1 4.343900 9.005330 832.011963
450 0 1 4.377260 9.502040 832.804016
451 0 1 4.584900 9.969050 833.578979
452 0 1 5.187890 10.138120 834.307983
453 0 1 5.760120 10.408840 835.035034
454 0 1 6.160260 10.492189 835.901001
455 0 1 6.737300 10.655840 836.619995
456 0 1 7.241645 10.659320 837.448975
457 0 1 7.982677 10.407090 837.886963
458 0 1 8.698663 10.074520 838.335999
459 0 1 9.575600 9.799070 838.526001
460 0 1 10.448910 9.362730 838.356995
461 0 1 11.116261 8.802908 838.028992
462 0 1 11.734819 8.270956 837.539978
463 0 1 12.299459 7.862501 836.822021
464 0 1 12.495780 7.575104 835.950012
465 0 1 12.665660 7.521989 834.999023
466 0 1 12.700930 7.323176 834.051025
467 0 1 12.446110 6.954830 833.164978
468 0 1 12.160060 6.354000 832.426025
469 0 1 11.794480 5.857500 831.705994
470 0 1 11.437260 5.369310 830.987000
471 0 1 11.126420 5.077180 830.143982
472 0 1 10.959500 4.819590 829.221008
473 0 1 10.855810 4.416960 828.411987
474 0 1 10.914230 4.056850 827.531982
475 0 1 10.982700 3.958990 826.568970
476 0 1 11.224500 3.864400 825.629028
477 0 1 11.438920 3.585190 824.773987
478 0 1 11.550810 3.537550 823.811035
479 0 1 11.604840 3.417750 822.867004
480 0 1 11.618140 3.611120 821.869019
481 0 1 11.871630 3.858800 820.927979
482 0 1 11.776090 4.202810 820.047974
483 0 1 11.405780 4.628640 819.239014
484 0 1 10.818460 5.132490 818.583984
485 0 1 10.339820 5.939830 818.122009
486 0 1 9.891840 6.397610 817.440979
487 0 1 9.232150 6.621220 816.744019
488 0 1 8.603154 6.930740 816.098022
489 0 1 8.017513 7.159154 815.252991
490 0 1 7.708456 7.052523 814.289978
491 0 1 7.683173 6.989460 813.346985
492 0 1 7.926911 7.033718 812.364990
493 0 1 8.350034 7.128638 811.510986
494 0 1 8.877948 7.316825 810.713013
495 0 1 9.455040 7.334501 809.891968
496 0 1 9.927629 7.080380 809.098022
497 0 1 10.203711 6.955260 808.167969
498 0 1 10.710120 6.995350 807.358032
499 0 1 11.133340 7.376400 806.588989
500 0 1 11.505980 7.842529 805.833008
501 0 1 11.848860 8.046831 804.973999
502 0 1 12.142241 7.963955 804.062012
503 0 1 12.351830 7.895952 803.125000
504 0 1 12.571770 7.581365 802.244019
505 0 1 12.507860 7.360404 801.291016
506 0 1 12.355080 7.286690 800.323975
507 0 1 12.299760 7.331320 799.343994
508 0 1 12.337430 6.966820 798.474976
509 0 1 12.250771 6.513470 797.568970
510 0 1 11.722490 6.165350 796.794983
511 0 1 11.171650 6.116500 796.036987
512 0 1 10.555770 5.969740 795.237000
513 0 1 10.248780 6.071380 794.356995
514 0 1 9.936200 6.038810 793.497009
515 0 1 9.602730 5.772180 792.661011
516 0 1 9.424170 5.631650 791.765991
517 0 1 9.243100 5.607560 790.787964
518 0 1 9.181870 5.316510 789.862000
519 0 1 9.190220 5.151620 788.891968
520 0 1 9.205880 5.202720 787.966003
521 0 1 8.934602 5.441700 787.062988
522 0 1 8.616211 5.723180 786.195007
523 0 1 8.108381 5.947320 785.440979
524 0 1 7.938724 6.338770 784.546021
525 0 1 7.706755 6.503560 783.614990
526 0 1 7.378002 6.626860 782.729004
527 0 1 7.011568 6.973130 781.895996
528 0 1 6.662640 7.149339 781.023987
529 0 1 6.205310 7.476211 780.249023
530 0 1 5.672510 7.689491 779.432007
531 0 1 5.259770 8.055711 778.718018
532 0 1 5.095290 8.863087 778.214966
533 0 1 5.067780 9.698350 777.714966
534 0 1 4.649240 10.445060 777.238037
535 0 1 4.413890 11.087700 776.537964
536 0 1 4.055440 11.757460 775.934998
537 0 1 4.000300 12.269400 775.134033
538 0 1 4.148890 12.636960 774.200012
539 0 1 4.209840 12.745840 773.205994
540 0 1 3.990180 12.397930 772.320007
541 0 1 4.062500 11.985120 771.398010
542 0 1 4.514630 11.853630 770.520996
543 0 1 4.644300 11.694220 769.520020
544 0 1 4.500980 11.260930 768.679016
545 0 1 4.208790 10.866450 767.835022
546 0 1 4.070640 10.477520 766.976990
547 0 1 3.767930 9.936860 766.283997
548 0 1 3.558760 9.598640 765.400024
549 0 1 3.417870 9.155600 764.494019
550 0 1 3.192180 9.140660 763.575012
551 0 1 3.024630 9.283319 762.587036
552 0 1 2.694270 9.380460 761.718994
553 0 1 2.498930 8.986090 760.841980
554 0 1 2.317000 8.593473 759.964966
555 0 1 2.230500 8.299989 759.033020
556 0 1 2.174360 7.933324 758.143982
557 0 1 2.235590 7.475884 757.343994
558 0 1 2.473660 7.126493 756.439026
559 0 1 2.630210 7.141094 755.533997
560 0 1 3.198890 7.080869 754.797974
561 0 1 3.818460 7.253503 753.994019
562 0 1 4.193030 7.339440 753.106018
563 0 1 4.455590 7.284978 752.169006
564 0 1 4.659890 7.027852 751.245972
565 0 1 4.806530 6.720930 750.380981
566 0 1 4.855490 6.236490 749.518005
567 0 1 4.638030 5.949280 748.624023
568 0 1 4.736780 5.703990 747.667969
569 0 1 4.684730 5.384140 746.759033
570 0 1 4.865140 4.986620 745.854004
571 0 1 5.336500 4.634770 745.130981
572 0 1 5.755390 4.635500 744.260010
573 0 1 6.034220 4.478190 743.375000
574 0 1 6.417840 4.353140 742.531982
575 0 1 6.976270 4.103710 741.737976
576 0 1 7.344583 3.933140 740.917969
577 0 1 7.580620 3.958100 739.943970
578 0 1 7.639874 4.163090 739.000977
579 0 1 7.374330 4.471280 738.101013
580 0 1 6.799840 4.761910 737.349976
581 0 1 6.232300 4.581180 736.531982
582 0 1 5.993210 4.537370 735.624023
583 0 1 6.027590 4.343310 734.700012
584 0 1 5.984010 4.278460 733.705017
585 0 1 6.135420 4.189030 732.780029
586 0 1 6.304910 4.502570 731.934998
587 0 1 6.526410 4.881740 731.098022
588 0 1 6.544460 5.372560 730.242004
589 0 1 6.946410 5.872520 729.487976
590 0 1 7.417159 6.396040 728.859009
591 0 1 8.141700 6.873250 728.331482
592 0 1 8.755156 7.227788 727.632385
593 0 1 9.491630 7.652490 727.152710
594 0 1 10.242640 7.737377 726.573730
595 0 1 10.979240 7.850943 725.920776
596 0 1 11.529580 8.155372 725.226074
597 0 1 11.719450 8.286625 724.266602
598 0 1 11.948520 8.066321 723.355286
599 0 1 12.043580 7.949587 722.400879
600 0 1 12.033979 8.054369 721.456909
601 0 1 11.986440 8.450024 720.589294
602 0 1 11.955470 8.937079 719.750977
603 0 1 11.791940 9.420100 718.893494
604 0 1 11.369980 9.606530 717.972168
605 0 1 11.071920 9.964310 717.145508
606 0 1 10.849660 10.238330 716.171509
607 0 1 10.465910 10.357389 715.303711
608 0 1 10.489400 10.763390 714.385376
609 0 1 10.576320 10.738660 713.419495
610 0 1 10.712690 10.718920 712.487610
611 0 1 10.936190 10.698500 711.565308
612 0 1 10.958139 10.674200 710.588074
613 0 1 10.842100 10.415190 709.670532
614 0 1 10.491050 10.664860 708.788574
615 0 1 9.996830 11.151440 708.002380
616 0 1 9.526100 11.645041 707.348267
617 0 1 9.089040 12.216080 706.716614
618 0 1 8.494962 12.688580 706.153687
619 0 1 8.100274 13.143360 705.438721
620 0 1 7.683925 13.242300 704.608398
621 0 1 7.395396 13.129721 703.714478
622 0 1 7.349052 13.153070 702.756470
623 0 1 7.121348 12.890310 701.783081
624 0 1 6.693720 12.877740 700.897583
625 0 1 6.207610 12.711929 700.118225
626 0 1 5.742800 12.524900 699.283203
627 0 1 5.146970 12.371019 698.499512
628 0 1 4.779210 11.878620 697.713074
629 0 1 4.648210 11.310010 697.019531
630 0 1 4.382180 10.860260 696.160706
631 0 1 4.225700 10.542400 695.228271
632 0 1 3.947830 10.310040 694.322815
633 0 1 3.958780 9.882490 693.434021
634 0 1 3.867450 9.577760 692.543884
635 0 1 3.617350 9.409250 691.609680
636 0 1 3.322200 9.151060 690.692322
637 0 1 3.056250 8.736722 689.887512
638 0 1 2.789310 8.368787 689.037415
639 0 1 2.430860 7.990679 688.198792
640 0 1 2.052260 7.512146 687.441406
641 0 1 2.163920 7.016423 686.647278
642 0 1 2.431570 6.725700 685.775818
643 0 1 2.677360 6.166990 684.978394
644 0 1 2.991260 5.512600 684.326111
645 0 1 3.164880 5.017040 683.527832
646 0 1 3.320280 4.680930 682.649292
647 0 1 3.441860 4.520530 681.713501
648 0 1 3.547440 4.523630 680.741882
649 0 1 3.548750 4.497500 679.792603
650 0 1 3.926830 4.358050 678.886414
651 0 1 4.388790 4.121980 678.115112
652 0 1 4.675200 3.945890 677.178223
653 0 1 5.132260 3.824870 676.291199
654 0 1 5.549460 3.822300 675.352783
655 0 1 6.042980 3.776240 674.546875
656 0 1 6.633360 3.434700 673.830200
657 0 1 7.231321 3.001570 673.210510
658 0 1 7.776423 2.621440 672.464905
659 0 1 7.977692 2.042410 671.753601
660 0 1 8.365229 1.708870 670.947205
661 0 1 8.711374 1.780690 670.014221
662 0 1 9.045910 1.859460 669.063293
663 0 1 9.309100 1.977180 668.094971
664 0 1 9.405790 2.138730 667.183472
665 0 1 9.486590 2.410010 666.273071
666 0 1 9.712940 2.956670 665.571228
667 0 1 9.711110 3.565570 664.848389
668 0 1 9.851880 4.323380 664.235413
669 0 1 10.078420 4.681150 663.423889
670 0 1 10.414880 5.071870 662.565491
671 0 1 10.498390 5.461730 661.720215
672 0 1 10.383190 5.639570 660.783569
673 0 1 10.431860 5.448930 659.882385
674 0 1 10.433500 4.900060 659.030518
675 0 1 10.235650 4.334750 658.274780
676 0 1 10.133570 3.768710 657.496826
677 0 1 9.937620 3.310670 656.682983
678 0 1 9.959070 3.043250 655.752808
679 0 1 9.981280 3.310840 654.775269
680 0 1 10.319690 3.766760 653.974487
681 0 1 10.424000 4.035510 653.106812
682 0 1 10.070670 4.079130 652.144592
683 0 1 9.713630 4.032360 651.163208
684 0 1 9.323570 3.810330 650.327576
685 0 1 8.875874 3.499840 649.564392
686 0 1 8.512248 3.394330 648.651001
687 0 1 8.348205 3.333030 647.680481
688 0 1 8.202785 3.276080 646.712097
689 0 1 7.741115 3.364790 645.898621
690 0 1 7.175644 3.437870 645.061584
691 0 1 6.656490 3.871670 644.362671
692 0 1 6.244810 4.248260 643.572021
693 0 1 5.853680 4.901600 643.001770
694 0 1 5.436550 5.598470 642.403503
695 0 1 5.135200 6.265850 641.716675
696 0 1 4.779130 6.943960 641.149414
697 0 1 4.342670 7.178309 640.320312
698 0 1 3.988430 7.307629 639.372925
699 0 1 4.005250 7.294172 638.431335
700 0 1 4.169370 7.438033 637.535278
701 0 1 4.481120 7.650094 636.667053
702 0 1 4.836770 8.057200 635.833618
703 0 1 5.053180 8.464580 635.004944
704 0 1 5.307060 8.791946 634.163452
705 0 1 5.474790 9.091490 633.311218
706 0 1 5.114310 9.531330 632.508545
707 0 1 4.842960 10.065900 631.613342
708 0 1 4.349910 10.263900 630.849670
709 0 1 3.874600 10.559010 629.977539
710 0 1 3.591370 10.653530 629.070557
711 0 1 3.306940 10.519470 628.194946
712 0 1 3.392140 10.505899 627.242493
713 0 1 3.317270 10.435900 626.248291
714 0 1 3.135870 10.540319 625.290710
715 0 1 3.330630 10.526840 624.393921
716 0 1 3.444660 10.503660 623.466309
717 0 1 3.518860 10.395150 622.517029
718 0 1 3.757590 10.181270 621.654602
719 0 1 3.846430 10.008570 620.733826
720 0 1 3.732350 9.818240 619.782837
721 0 1 3.589040 9.438790 618.946533
722 0 1 3.451260 9.179790 618.000305
723 0 1 3.318820 8.932475 617.105774
724 0 1 3.100380 8.779031 616.145874
725 0 1 3.044570 8.413495 615.240784
726 0 1 2.948670 8.004010 614.347107
727 0 1 2.739120 7.579638 613.486694
728 0 1 2.482060 6.921840 612.909729
729 0 1 2.355100 6.510410 612.041992
730 0 1 2.428950 6.021690 611.281799
731 0 1 2.624990 5.475540 610.542725
732 0 1 2.837870 5.020080 609.700623
733 0 1 3.311020 4.593430 608.994629
734 0 1 3.744560 4.213990 608.237915
735 0 1 4.412500 4.366400 607.476624
736 0 1 5.080430 4.237880 606.813171
737 0 1 5.423870 3.876120 605.970703
738 0 1 6.058930 3.690980 605.221619
739 0 1 6.542530 3.406630 604.447327
740 0 1 7.327483 3.055940 603.889099
741 0 1 8.046458 2.915910 603.244324
742 0 1 8.834958 3.182210 602.744690
743 0 1 9.666480 3.523730 602.312927
744 0 1 10.351950 4.165560 601.963013
745 0 1 10.880230 4.764900 601.483521
746 0 1 11.408240 5.487480 601.073425
747 0 1 11.545310 6.009560 600.283691
748 0 1 11.221840 6.462150 599.451172
749 0 1 10.652530 7.010241 598.872192
750 0 1 10.284200 7.774204 598.354187
751 0 1 9.836380 8.198678 597.604980
752 0 1 9.490140 8.523239 596.756287
753 0 1 9.049940 8.768452 595.849182
754 0 1 8.905090 8.841058 594.912903
755 0 1 8.829830 8.655225 593.995728
756 0 1 8.791625 8.210545 593.145996
757 0 1 8.680842 7.791231 592.312073
758 0 1 8.890760 7.299035 591.506714
759 0 1 9.039080 7.054902 590.577087
760 0 1 9.160070 7.222669 589.584595
761 0 1 9.315420 7.034315 588.670898
762 0 1 9.467500 6.675440 587.783020
763 0 1 9.622490 6.266640 586.935913
764 0 1 9.701780 5.877640 586.060974
765 0 1 10.149690 5.534500 585.320801
766 0 1 10.899190 5.373910 584.655396
767 0 1 11.467350 5.384210 583.875305
768 0 1 11.899320 5.559520 583.062195
769 0 1 12.205900 5.871850 582.249268
770 0 1 12.665020 6.279690 581.551270
771 0 1 13.198441 6.868470 580.906616
772 0 1 13.324600 7.548002 580.237793
773 0 1 13.351730 8.187527 579.464905
774 0 1 13.329300 8.539554 578.609497
775 0 1 12.942551 8.888003 577.852417
776 0 1 12.819620 9.470290 577.079468
777 0 1 12.772779 9.858100 576.212524
778 0 1 12.553209 10.471300 575.519409
779 0 1 12.786620 11.077520 574.825073
780 0 1 12.617900 11.683540 574.048218
781 0 1 12.141020 11.927450 573.238403
782 0 1 11.796000 12.135680 572.293091
783 0 1 11.390490 12.092569 571.420715
784 0 1 10.575760 12.229361 570.917297
785 0 1 9.986440 12.143180 570.119690
786 0 1 9.358910 11.944390 569.438782
787 0 1 8.936938 11.744410 568.533508
788 0 1 8.467848 11.568640 567.678772
789 0 1 8.025346 11.088960 566.911011
790 0 1 7.600317 10.413780 566.228271