LAMMPS data file via MDAnalysis

        1000  atoms
        1000  bonds
        1000  angles
           0  dihedrals
           0  impropers

           1  atom types
           1  bond types
           1  angle types
           0  dihedral types
           0  improper types

0.000000 16.000000 xlo xhi
0.000000 16.000000 ylo yhi
0.000000 1257.000000 zlo zhi


Masses

1 1.000000

Atoms

1 0 1 8.998465 10.746560 443.026978
2 0 1 9.611660 10.272280 443.647003
3 0 1 10.068680 9.577550 444.132019
4 0 1 10.293000 9.090510 444.957001
5 0 1 10.254390 8.715845 445.873993
6 0 1 9.829380 8.337324 446.639008
7 0 1 9.596510 8.234604 447.518982
8 0 1 9.616510 8.220258 448.497009
9 0 1 9.526750 8.235873 449.526978
10 0 1 9.312760 8.302614 450.484985
11 0 1 8.837152 8.318011 451.419006
12 0 1 8.116189 8.257370 451.997986
13 0 1 7.511410 8.393239 452.747986
14 0 1 6.887530 8.479228 453.450989
15 0 1 6.465760 8.505762 454.369995
16 0 1 6.219200 8.653011 455.333984
17 0 1 6.120480 8.641358 456.283997
18 0 1 5.978430 8.550277 457.197998
19 0 1 5.605120 8.614591 458.074005
20 0 1 5.301120 9.023940 458.921997
21 0 1 4.801190 9.391520 459.679993
22 0 1 4.507660 9.858829 460.487000
23 0 1 4.417910 10.295230 461.322021
24 0 1 4.314480 10.550680 462.210022
25 0 1 4.328500 10.559970 463.135010
26 0 1 4.308580 10.669110 464.048004
27 0 1 4.355340 10.425900 465.036011
28 0 1 4.502850 10.141940 465.955994
29 0 1 4.784100 9.875210 466.877014
30 0 1 5.135250 9.570630 467.735992
31 0 1 5.385110 9.209760 468.701996
32 0 1 5.839340 8.913072 469.526001
33 0 1 6.088160 8.742403 470.479004
34 0 1 6.396820 8.515152 471.362000
35 0 1 6.924190 8.483117 472.210999
36 0 1 7.490583 8.758886 472.932983
37 0 1 8.024837 9.087540 473.686005
38 0 1 8.566113 9.410490 474.414001
39 0 1 9.085330 9.883039 475.013000
40 0 1 9.502240 10.190870 475.778015
41 0 1 9.669460 10.888790 476.425995
42 0 1 9.536100 11.576320 477.069000
43 0 1 9.352640 12.357510 477.765991
44 0 1 9.197510 12.979120 478.502014
45 0 1 8.718212 13.231791 479.322021
46 0 1 8.390453 13.140739 480.299988
47 0 1 7.749485 12.812730 480.998993
48 0 1 7.279615 12.468420 481.753998
49 0 1 6.964770 12.319490 482.653992
50 0 1 6.590750 11.880301 483.450989
51 0 1 6.311340 11.317150 484.188995
52 0 1 5.851740 10.963950 484.942993
53 0 1 5.573280 10.865490 485.830994
54 0 1 5.300300 10.783780 486.798004
55 0 1 5.023450 10.877840 487.679993
56 0 1 4.851830 10.754630 488.602997
57 0 1 4.705950 10.350590 489.444000
58 0 1 4.244340 10.238029 490.306000
59 0 1 3.962630 10.042459 491.161987
60 0 1 3.915470 9.918840 492.122009
61 0 1 3.983850 9.812520 493.153015
62 0 1 4.111970 9.702990 494.098999
63 0 1 4.228010 9.450750 495.056000
64 0 1 4.335890 8.755208 495.764008
65 0 1 4.423680 8.025462 496.390991
66 0 1 4.293910 7.469892 497.158020
67 0 1 3.887390 7.202988 498.026001
68 0 1 3.574020 6.914220 498.924011
69 0 1 3.511050 6.923260 499.838989
70 0 1 3.587470 7.079645 500.779999
71 0 1 3.406050 7.107136 501.770996
72 0 1 3.551450 7.100478 502.759003
73 0 1 3.891010 7.305885 503.683990
74 0 1 4.174610 7.585595 504.582001
75 0 1 4.619200 7.736134 505.424011
76 0 1 4.836090 7.923621 506.393005
77 0 1 5.234450 8.080920 507.257019
78 0 1 5.845200 8.349726 507.983002
79 0 1 6.194070 8.345305 508.863007
80 0 1 6.457990 8.551563 509.778015
81 0 1 6.965040 8.351667 510.545990
82 0 1 7.193757 7.983574 511.437988
83 0 1 7.329899 7.928672 512.413025
84 0 1 7.417446 8.022381 513.367981
85 0 1 7.454763 7.870541 514.325989
86 0 1 7.298781 7.919470 515.304016
87 0 1 7.137379 7.978441 516.244995
88 0 1 6.580680 7.931818 517.049011
89 0 1 6.283170 7.795251 518.010010
90 0 1 6.100190 7.504642 518.906982
91 0 1 5.830330 7.360738 519.768005
92 0 1 5.693130 7.811202 520.599976
93 0 1 5.534010 8.309511 521.395996
94 0 1 5.218090 8.741898 522.203003
95 0 1 5.079460 8.933418 523.193970
96 0 1 4.979270 8.858744 524.125000
97 0 1 4.578150 8.899327 524.960022
98 0 1 4.190560 8.826887 525.867004
99 0 1 3.797120 9.018740 526.710022
100 0 1 3.488620 9.041190 527.651978
101 0 1 3.383240 9.051190 528.599182
102 0 1 3.688850 8.913363 529.507080
103 0 1 3.817410 9.005180 530.531982
104 0 1 3.968920 9.025760 531.476990
105 0 1 4.414540 9.184210 532.336975
106 0 1 4.684570 9.376360 533.223389
107 0 1 5.176210 9.486720 534.064331
108 0 1 5.599730 9.487800 534.933411
109 0 1 6.058120 9.665400 535.744385
110 0 1 6.395710 9.861980 536.605286
111 0 1 6.714400 10.201820 537.383423
112 0 1 7.293232 10.264960 538.120178
113 0 1 7.772556 10.117430 538.917603
114 0 1 8.490063 10.164310 539.549927
115 0 1 8.985204 10.214109 540.365173
116 0 1 9.393360 10.388220 541.260010
117 0 1 9.824740 10.538420 542.083130
118 0 1 10.324810 10.397240 542.921082
119 0 1 10.711830 10.535191 543.764099
120 0 1 10.977770 10.670691 544.680298
121 0 1 11.043840 11.047430 545.579285
122 0 1 10.925980 11.121000 546.534424
123 0 1 10.803050 11.268820 547.484497
124 0 1 10.470100 11.278880 548.379211
125 0 1 10.077110 11.250440 549.299988
126 0 1 9.831250 11.249510 550.274597
127 0 1 9.909140 11.153730 551.188477
128 0 1 10.125580 10.902840 552.081726
129 0 1 10.120330 10.601950 553.015686
130 0 1 10.221960 10.209010 553.955688
131 0 1 10.257820 9.874530 554.859192
132 0 1 10.146720 9.640120 555.775085
133 0 1 10.145210 9.797400 556.733215
134 0 1 10.033160 10.236510 557.631409
135 0 1 10.005210 10.510990 558.518311
136 0 1 10.048630 10.519910 559.495972
137 0 1 10.044580 10.482040 560.485413
138 0 1 10.232580 10.338760 561.414673
139 0 1 10.325980 10.293159 562.386230
140 0 1 10.556590 9.942340 563.269104
141 0 1 10.840680 9.699170 564.126404
142 0 1 11.081430 9.381639 564.983032
143 0 1 10.998870 8.995881 565.951172
144 0 1 11.029480 8.910515 566.864075
145 0 1 10.777240 8.665926 567.799072
146 0 1 10.614560 8.659636 568.710205
147 0 1 10.175690 8.658271 569.563416
148 0 1 10.097970 8.824859 570.494690
149 0 1 9.909081 9.248370 571.343994
150 0 1 9.827950 9.785010 572.121826
151 0 1 9.905380 10.163460 573.017517
152 0 1 9.816170 10.323530 573.940796
153 0 1 9.765480 10.577971 574.820984
154 0 1 9.456290 10.911020 575.704224
155 0 1 9.106430 11.060720 576.567871
156 0 1 8.765111 11.223760 577.376526
157 0 1 8.419912 11.336910 578.312195
158 0 1 8.268400 11.597050 579.229126
159 0 1 8.129470 11.746780 580.165894
160 0 1 7.913581 11.780109 581.084595
161 0 1 7.748470 11.634330 581.984802
162 0 1 7.491191 11.688860 582.972595
163 0 1 7.596580 12.085490 583.875305
164 0 1 7.777963 12.552080 584.694397
165 0 1 8.094238 12.735149 585.565308
166 0 1 8.402089 12.688950 586.455872
167 0 1 8.433057 12.399600 587.399902
168 0 1 8.603277 12.228500 588.323120
169 0 1 8.797940 12.015940 589.317993
170 0 1 8.754385 11.791560 590.222107
171 0 1 9.035910 11.615810 591.086304
172 0 1 9.558150 11.577520 591.998291
173 0 1 10.033040 11.551130 592.833496
174 0 1 10.496901 11.150760 593.601318
175 0 1 10.887050 10.873430 594.395081
176 0 1 11.249490 10.655680 595.236328
177 0 1 11.333500 10.604250 596.161804
178 0 1 11.436200 10.464621 597.100220
179 0 1 11.645150 10.233620 597.994202
180 0 1 11.885380 10.055830 598.995300
181 0 1 12.175850 10.082500 599.896790
182 0 1 12.213760 10.302010 600.846069
183 0 1 12.021760 10.282710 601.778687
184 0 1 11.776340 10.349840 602.715576
185 0 1 11.555910 10.558260 603.623291
186 0 1 11.399380 10.299940 604.555603
187 0 1 11.420460 10.303090 605.472473
188 0 1 11.378550 10.463440 606.425171
189 0 1 11.480960 10.575760 607.423096
190 0 1 11.755810 10.862090 608.316223
191 0 1 12.091530 11.365530 609.068970
192 0 1 12.514280 11.540640 609.954285
193 0 1 12.770440 11.591570 610.875793
194 0 1 13.073270 11.432580 611.799377
195 0 1 13.183050 11.327190 612.747192
196 0 1 13.215720 11.098960 613.659729
197 0 1 13.135990 10.786230 614.582825
198 0 1 12.967649 10.640330 615.494812
199 0 1 12.708740 10.545950 616.457214
200 0 1 12.545540 10.410010 617.392578
201 0 1 12.286130 10.457050 618.287170
202 0 1 12.000990 10.671190 619.190979
203 0 1 11.751600 10.712600 620.129944
204 0 1 11.491100 10.627670 621.085449
205 0 1 11.087980 10.623671 621.960449
206 0 1 10.677450 10.666210 622.793457
207 0 1 10.479510 10.903320 623.684387
208 0 1 10.278090 10.758160 624.603271
209 0 1 10.109020 10.571341 625.560120
210 0 1 10.116480 10.288800 626.475769
211 0 1 9.995870 10.047270 627.416626
212 0 1 9.636100 9.927780 628.296204
213 0 1 9.337320 9.581830 629.095398
214 0 1 9.095900 9.316140 629.976624
215 0 1 8.874931 9.122720 630.830322
216 0 1 8.592886 8.821613 631.701965
217 0 1 8.485272 8.730923 632.668518
218 0 1 8.313219 8.732580 633.586365
219 0 1 8.081965 8.828968 634.538452
220 0 1 7.652069 8.488019 635.315613
221 0 1 7.366495 8.381559 636.250488
222 0 1 7.008459 8.385765 637.174866
223 0 1 6.439970 8.342818 637.955444
224 0 1 6.230910 8.194960 638.894592
225 0 1 6.097150 8.084658 639.783325
226 0 1 6.138700 7.913694 640.749390
227 0 1 6.513700 7.663468 641.583313
228 0 1 7.012169 7.709818 642.432617
229 0 1 7.367701 7.550900 643.384888
230 0 1 7.449938 7.510493 644.340698
231 0 1 7.368485 7.316497 645.309509
232 0 1 7.430865 7.159328 646.244873
233 0 1 7.583135 7.228199 647.225098
234 0 1 7.945838 7.198628 648.121887
235 0 1 8.401102 6.849310 648.975220
236 0 1 8.589435 6.632320 649.885315
237 0 1 8.801883 6.670210 650.865723
238 0 1 8.964658 6.842840 651.726685
239 0 1 9.110710 7.137899 652.627380
240 0 1 9.228100 7.873413 653.314331
241 0 1 9.379050 8.403127 654.111816
242 0 1 9.425460 9.154650 654.724182
243 0 1 9.332320 9.655860 655.519287
244 0 1 9.140210 10.082200 656.315125
245 0 1 8.883399 10.575871 657.067078
246 0 1 8.641157 10.970370 657.876099
247 0 1 8.567022 11.329540 658.739014
248 0 1 8.623071 11.476330 659.695496
249 0 1 8.359158 11.355030 660.567871
250 0 1 8.363602 11.299590 661.489075
251 0 1 8.374102 11.104890 662.493896
252 0 1 8.387711 10.461650 663.169678
253 0 1 8.499796 9.830400 663.876892
254 0 1 8.541367 9.372070 664.677673
255 0 1 8.437276 8.562649 665.235474
256 0 1 8.204601 7.786379 665.814697
257 0 1 8.134692 7.093776 666.406677
258 0 1 8.251175 6.348610 667.044983
259 0 1 8.354997 5.758050 667.786682
260 0 1 8.337162 5.252000 668.615479
261 0 1 8.249209 4.729140 669.374512
262 0 1 8.321409 4.470390 670.319885
263 0 1 8.544808 4.295490 671.229919
264 0 1 8.911602 4.210190 672.126526
265 0 1 8.828743 4.005850 673.042114
266 0 1 8.724388 3.886520 673.963196
267 0 1 8.527280 3.530840 674.823914
268 0 1 8.544972 3.291950 675.733521
269 0 1 8.625364 3.246650 676.770996
270 0 1 8.337181 2.941170 677.603577
271 0 1 8.169215 2.822010 678.543579
272 0 1 8.242641 2.721890 679.511230
273 0 1 8.481577 2.570150 680.408386
274 0 1 8.306894 2.669190 681.380371
275 0 1 7.929931 3.097250 682.211609
276 0 1 7.692556 3.702170 682.964600
277 0 1 7.535309 4.276340 683.679993
278 0 1 7.409437 4.840700 684.473206
279 0 1 7.217663 5.458860 685.127991
280 0 1 6.866230 6.021650 685.800110
281 0 1 6.498450 6.574520 686.505188
282 0 1 6.242590 7.176558 687.130005
283 0 1 6.126210 8.012114 687.693787
284 0 1 6.286800 8.732510 688.351624
285 0 1 6.480380 9.607420 688.747070
286 0 1 6.832990 10.113000 689.500488
287 0 1 7.311669 10.698080 690.173523
288 0 1 7.915794 11.334360 690.656372
289 0 1 8.552581 11.817550 691.401794
290 0 1 9.040490 12.205530 692.120728
291 0 1 9.678480 12.289640 692.787720
292 0 1 10.243280 12.565300 693.603210
293 0 1 10.608120 12.678970 694.500977
294 0 1 10.823600 12.377240 695.393677
295 0 1 10.987510 11.769250 696.204895
296 0 1 10.961690 11.394050 697.056702
297 0 1 10.954140 11.054290 697.955322
298 0 1 10.927361 10.969470 698.925903
299 0 1 10.756041 10.935640 699.869080
300 0 1 10.293980 11.031810 700.815125
301 0 1 9.973590 11.098270 701.751587
302 0 1 9.630470 11.067650 702.546387
303 0 1 9.225550 10.889040 703.388672
304 0 1 8.883697 11.268681 704.216431
305 0 1 8.532559 11.427650 705.056824
306 0 1 8.294682 11.454370 706.016418
307 0 1 8.033294 11.532650 706.989319
308 0 1 7.736743 11.373100 707.956787
309 0 1 7.622894 10.959539 708.810608
310 0 1 7.269424 10.618060 709.672913
311 0 1 6.921510 10.250480 710.511108
312 0 1 6.676530 9.884930 711.399780
313 0 1 6.584840 9.653570 712.397278
314 0 1 6.490610 9.412870 713.328613
315 0 1 6.480340 9.431570 714.301575
316 0 1 6.651090 9.405050 715.311523
317 0 1 6.948120 9.162040 716.158325
318 0 1 7.469504 8.792977 716.874634
319 0 1 7.571082 8.344028 717.666016
320 0 1 7.873744 7.825799 718.422974
321 0 1 8.099373 7.366026 719.288574
322 0 1 8.144292 7.458423 720.242798
323 0 1 8.164634 7.814907 721.212524
324 0 1 8.092849 7.959831 722.212402
325 0 1 8.141424 8.105785 723.148315
326 0 1 7.948796 8.279823 724.085205
327 0 1 7.651324 8.275697 725.036804
328 0 1 6.977540 7.927885 725.652710
329 0 1 6.324150 7.462071 726.263977
330 0 1 6.022550 7.007790 727.044434
331 0 1 6.221300 6.851080 727.963684
332 0 1 5.885240 6.516560 728.828979
333 0 1 5.484750 6.032900 729.666016
334 0 1 5.143310 5.477990 730.370972
335 0 1 4.918400 4.997010 731.169006
336 0 1 4.523290 4.806230 731.971985
337 0 1 4.114560 4.607240 732.802979
338 0 1 4.097500 4.510940 733.778015
339 0 1 4.274950 4.555600 734.744019
340 0 1 4.496610 4.837440 735.677979
341 0 1 4.975600 5.173160 736.447021
342 0 1 5.429520 5.353620 737.266968
343 0 1 5.761170 5.526510 738.148010
344 0 1 6.173910 5.374590 739.000977
345 0 1 6.709540 5.334140 739.833984
346 0 1 7.449585 5.227290 740.487976
347 0 1 7.953620 5.268460 741.270020
348 0 1 8.324015 5.397150 742.155029
349 0 1 8.776714 5.273550 742.953979
350 0 1 9.326310 4.938660 743.697021
351 0 1 9.698460 4.322630 744.369019
352 0 1 9.617060 3.871890 745.176025
353 0 1 9.672870 3.546010 746.041016
354 0 1 9.818730 3.277840 746.966003
355 0 1 9.887840 3.339930 747.867004
356 0 1 9.781260 3.588840 748.836975
357 0 1 9.498880 3.918540 749.651001
358 0 1 9.265960 4.348180 750.492981
359 0 1 9.086610 4.814900 751.353027
360 0 1 9.080310 5.077630 752.255981
361 0 1 8.854208 5.236490 753.163025
362 0 1 8.632808 5.565330 754.122986
363 0 1 8.384174 6.001140 754.987976
364 0 1 8.018152 6.126750 755.858032
365 0 1 7.694586 6.310060 756.731018
366 0 1 7.516099 6.621690 757.661987
367 0 1 7.575096 6.709520 758.651978
368 0 1 7.544571 6.530030 759.646973
369 0 1 7.606609 6.330430 760.557983
370 0 1 7.738407 6.071530 761.515015
371 0 1 7.761404 5.932420 762.462036
372 0 1 7.728600 6.074240 763.380981
373 0 1 7.777280 6.311090 764.356995
374 0 1 7.554271 6.686970 765.270996
375 0 1 7.169724 6.904070 766.148010
376 0 1 6.716820 6.970440 766.963989
377 0 1 6.487540 6.989770 767.865967
378 0 1 6.219620 6.973930 768.812988
379 0 1 5.977080 7.094839 769.792969
380 0 1 5.905690 7.149694 770.719971
381 0 1 6.139100 6.999570 771.606018
382 0 1 6.114110 6.776890 772.495972
383 0 1 6.301820 6.607680 773.375000
384 0 1 6.632550 6.453610 774.207031
385 0 1 7.178755 6.389890 774.983032
386 0 1 7.386421 6.722560 775.804993
387 0 1 7.678916 7.248181 776.580994
388 0 1 7.823434 7.706632 777.473022
389 0 1 8.110483 8.237807 778.187988
390 0 1 8.159260 8.613248 779.046997
391 0 1 7.961012 8.893633 779.924011
392 0 1 7.549000 9.231580 780.754028
393 0 1 7.269601 9.485991 781.570984
394 0 1 7.120787 9.856010 782.427002
395 0 1 6.957210 10.642030 783.002991
396 0 1 6.961690 11.352119 783.687012
397 0 1 7.152456 11.693670 784.615967
398 0 1 7.321934 11.765630 785.573975
399 0 1 7.659759 11.673350 786.580994
400 0 1 8.018557 11.571730 787.434021
401 0 1 8.330894 11.599200 788.375977
402 0 1 8.758884 11.338840 789.192017
403 0 1 9.369840 11.019320 789.830994
404 0 1 10.008841 10.823160 790.546021
405 0 1 10.687799 10.823009 791.187012
406 0 1 11.137300 10.859710 791.953979
407 0 1 11.574710 10.665970 792.839966
408 0 1 11.739720 10.492050 793.802979
409 0 1 12.007191 10.220850 794.695007
410 0 1 12.170259 9.962390 795.640015
411 0 1 12.302481 9.800080 796.562988
412 0 1 12.532300 9.363690 797.429993
413 0 1 12.634541 8.642732 798.061035
414 0 1 12.621059 7.991946 798.749023
415 0 1 12.615641 7.278865 799.434998
416 0 1 12.469730 6.699130 800.195984
417 0 1 12.176371 6.514900 801.145996
418 0 1 11.941720 6.252680 802.037964
419 0 1 11.896070 5.852940 802.890991
420 0 1 11.579670 5.587600 803.799011
421 0 1 11.230500 5.622720 804.710022
422 0 1 10.783051 5.594940 805.520020
423 0 1 10.436850 5.415650 806.367981
424 0 1 10.087009 5.296750 807.271973
425 0 1 10.038520 5.030880 808.192993
426 0 1 9.946210 5.065520 809.125000
427 0 1 10.063840 5.223380 810.054993
428 0 1 10.004570 5.174930 810.997986
429 0 1 10.300080 5.242960 811.917969
430 0 1 10.574210 5.267580 812.900024
431 0 1 10.910370 5.238010 813.830017
432 0 1 10.809959 5.169670 814.822021
433 0 1 10.634720 4.914910 815.799988
434 0 1 10.552031 4.714570 816.754028
435 0 1 10.690800 4.577720 817.690979
436 0 1 10.942739 4.658140 818.629028
437 0 1 11.046880 4.666970 819.520996
438 0 1 11.137330 5.026420 820.391968
439 0 1 11.119540 5.478280 821.158020
440 0 1 11.084579 5.828020 822.059021
441 0 1 11.101151 6.180280 822.992981
442 0 1 10.979140 6.272410 823.947998
443 0 1 10.773770 6.325650 824.874023
444 0 1 10.659500 6.753840 825.710022
445 0 1 10.418921 7.163829 826.535034
446 0 1 10.329520 7.336267 827.484985
447 0 1 10.018450 7.402569 828.358032
448 0 1 9.946310 7.608418 829.291992
449 0 1 9.885490 8.269443 829.995972
450 0 1 10.064370 8.783123 830.723999
451 0 1 10.165920 9.406400 831.462036
452 0 1 10.313931 9.835800 832.291992
453 0 1 10.503490 10.094640 833.239990
454 0 1 10.783600 10.082960 834.117981
455 0 1 10.841150 9.979000 835.085999
456 0 1 10.575640 10.015210 836.020020
457 0 1 10.064220 9.654440 836.679016
458 0 1 9.630600 9.048610 837.325989
459 0 1 9.343520 8.460632 838.026978
460 0 1 8.790917 7.802986 838.495972
461 0 1 8.402640 7.056036 838.937988
462 0 1 7.938549 6.179340 839.162964
463 0 1 7.476444 5.347200 839.458984
464 0 1 6.919790 4.588400 839.484985
465 0 1 6.538980 3.875690 839.030029
466 0 1 6.356770 3.195680 838.244995
467 0 1 6.266150 2.829100 837.379028
468 0 1 6.028220 2.514950 836.458984
469 0 1 6.052140 2.238470 835.492981
470 0 1 5.907350 1.950040 834.557007
471 0 1 5.714560 2.088410 833.632019
472 0 1 5.476480 2.092120 832.686035
473 0 1 5.381140 2.360600 831.812988
474 0 1 5.787470 2.777720 831.073975
475 0 1 6.049290 3.233300 830.265015
476 0 1 6.302370 3.743310 829.424988
477 0 1 6.404040 4.117440 828.567017
478 0 1 6.821090 4.500410 827.745972
479 0 1 7.102221 4.229960 826.862000
480 0 1 7.119262 4.178830 825.856018
481 0 1 7.188293 4.209060 824.929993
482 0 1 7.488132 4.319500 823.981018
483 0 1 7.748572 4.568440 823.127991
484 0 1 7.935938 4.983460 822.257996
485 0 1 8.075132 5.555890 821.473022
486 0 1 8.095177 6.074870 820.635010
487 0 1 7.733226 6.582790 819.945007
488 0 1 7.645168 6.958140 819.067993
489 0 1 7.231528 6.978950 818.218994
490 0 1 6.789350 7.041747 817.416992
491 0 1 6.449350 7.214016 816.551025
492 0 1 6.405600 7.530114 815.627014
493 0 1 6.378580 7.937274 814.750000
494 0 1 6.409460 8.398190 813.893982
495 0 1 6.325250 8.769656 813.025024
496 0 1 5.957830 9.021730 812.188965
497 0 1 5.742360 9.770960 811.565002
498 0 1 5.530540 10.445360 810.922974
499 0 1 5.452070 11.113190 810.160034
500 0 1 4.994710 11.584920 809.511963
501 0 1 4.478510 11.817780 808.742004
502 0 1 4.144610 11.972281 807.856995
503 0 1 3.950960 12.095620 806.901978
504 0 1 3.880300 12.411150 806.018005
505 0 1 4.217850 12.588160 805.166016
506 0 1 4.664800 12.757050 804.359009
507 0 1 4.752020 12.791740 803.386963
508 0 1 4.791860 12.930230 802.406982
509 0 1 5.058220 13.121040 801.502991
510 0 1 5.518810 13.280331 800.617004
511 0 1 5.773690 13.627590 799.750977
512 0 1 6.122260 13.807810 798.846985
513 0 1 6.573650 13.478390 798.051025
514 0 1 6.736290 13.220591 797.192993
515 0 1 6.995820 12.889650 796.224976
516 0 1 7.283181 12.702869 795.285034
517 0 1 7.427825 12.769899 794.311035
518 0 1 7.767476 13.026370 793.344971
519 0 1 8.004226 13.178560 792.333984
520 0 1 8.241220 13.297560 791.411987
521 0 1 8.615767 13.363180 790.523987
522 0 1 9.047100 13.408840 789.646973
523 0 1 9.267170 13.304729 788.750000
524 0 1 9.151190 13.139820 787.806030
525 0 1 9.003570 12.663900 787.002991
526 0 1 9.009760 12.411720 786.088989
527 0 1 8.807979 12.274050 785.182007
528 0 1 8.621409 12.285271 784.224976
529 0 1 8.606345 12.542200 783.349976
530 0 1 8.355192 12.674440 782.450012
531 0 1 8.289460 12.584300 781.488037
532 0 1 8.361724 12.088710 780.666992
533 0 1 8.607916 11.582120 779.877991
534 0 1 8.759518 11.176730 779.015991
535 0 1 9.000170 10.911640 778.049011
536 0 1 9.382030 10.462300 777.278992
537 0 1 9.625000 10.210440 776.429993
538 0 1 10.087310 9.927590 775.645020
539 0 1 10.396560 9.539170 774.858032
540 0 1 10.536819 9.210300 773.919006
541 0 1 10.429490 8.623109 772.983032
542 0 1 10.277719 8.215425 772.098999
543 0 1 10.205870 8.080536 771.130005
544 0 1 9.948760 8.081442 770.198975
545 0 1 9.367320 8.167253 769.353027
546 0 1 8.916419 8.069309 768.525024
547 0 1 8.531389 7.974625 767.690979
548 0 1 8.064732 7.831093 766.869019
549 0 1 7.578546 7.805632 765.929016
550 0 1 6.963790 8.152904 765.270996
551 0 1 6.248320 8.530101 764.672974
552 0 1 5.767610 8.917561 763.945984
553 0 1 5.163250 9.149490 763.307983
554 0 1 4.665620 9.498760 762.551025
555 0 1 4.331170 9.870940 761.682983
556 0 1 4.300710 10.303140 760.839966
557 0 1 4.386280 10.634730 759.919006
558 0 1 4.804760 11.031780 759.106995
559 0 1 5.175090 11.547270 758.354004
560 0 1 5.640410 11.846330 757.589966
561 0 1 6.185190 12.024560 756.846008
562 0 1 6.770900 12.299311 756.156006
563 0 1 7.360417 12.373600 755.375000
564 0 1 7.942691 12.506500 754.638000
565 0 1 8.367557 12.398060 753.755981
566 0 1 8.879351 12.463940 752.875977
567 0 1 9.160050 12.313280 751.989990
568 0 1 9.330250 12.380630 751.080017
569 0 1 9.535220 12.538750 750.153015
570 0 1 9.488020 12.703600 749.120972
571 0 1 9.318050 13.046220 748.177002
572 0 1 8.923065 13.507151 747.364990
573 0 1 8.683513 13.987150 746.536987
574 0 1 8.449684 14.286270 745.653992
575 0 1 8.125424 14.620330 744.775024
576 0 1 7.877616 14.766740 743.905029
577 0 1 7.566942 14.681620 743.016968
578 0 1 7.051491 14.625669 742.237000
579 0 1 6.672180 14.367041 741.377991
580 0 1 6.411290 14.176189 740.481018
581 0 1 6.062700 13.656420 739.711975
582 0 1 5.691380 13.331881 738.880981
583 0 1 5.159300 13.103910 738.028015
584 0 1 4.704160 12.662550 737.200012
585 0 1 4.295600 12.096350 736.560974
586 0 1 3.954370 11.544060 735.890015
587 0 1 3.792710 11.318280 734.969971
588 0 1 3.564060 11.067570 734.031982
589 0 1 3.424730 10.622640 733.242981
590 0 1 3.065130 10.182750 732.356995
591 0 1 2.481100 9.909130 731.619995
592 0 1 2.039010 9.682850 730.844971
593 0 1 1.721710 9.634650 729.963013
594 0 1 1.578760 9.731450 729.041016
595 0 1 1.686900 9.688280 728.120300
596 0 1 1.796610 9.653540 727.145874
597 0 1 2.121570 9.345190 726.221497
598 0 1 2.468520 9.034300 725.335022
599 0 1 2.958330 8.485363 724.763306
600 0 1 3.523760 7.814656 724.164795
601 0 1 4.088630 7.016061 723.957886
602 0 1 4.634670 6.347460 723.426086
603 0 1 5.351120 5.904730 722.909485
604 0 1 6.123680 5.928260 722.379883
605 0 1 6.902310 5.798580 721.776306
606 0 1 7.651154 5.812650 721.216309
607 0 1 8.222827 5.936400 720.463806
608 0 1 8.852017 6.044780 719.788208
609 0 1 9.388170 5.863850 719.054321
610 0 1 9.992820 5.912060 718.403015
611 0 1 10.434959 5.654090 717.561523
612 0 1 10.849360 5.330760 716.825806
613 0 1 11.189330 5.246310 715.944885
614 0 1 11.715281 5.077800 715.147888
615 0 1 12.356120 5.068250 714.492188
616 0 1 12.767429 5.446050 713.719421
617 0 1 13.139920 5.683170 712.835693
618 0 1 13.412490 5.784280 711.872681
619 0 1 13.431561 5.962550 710.924622
620 0 1 13.293290 6.169200 710.035095
621 0 1 13.521550 6.253370 709.118774
622 0 1 13.686810 6.393320 708.144775
623 0 1 13.643840 6.422140 707.124817
624 0 1 13.438829 6.390910 706.205200
625 0 1 13.176849 6.053160 705.383423
626 0 1 12.838130 5.680160 704.596985
627 0 1 12.666510 5.250220 703.721191
628 0 1 12.591829 4.757770 702.856201
629 0 1 12.303989 4.277690 702.013000
630 0 1 11.859190 3.945510 701.220703
631 0 1 11.622520 3.907500 700.262878
632 0 1 11.275960 3.978720 699.289917
633 0 1 11.046420 4.053370 698.375305
634 0 1 10.923590 3.972130 697.377625
635 0 1 10.627080 3.669220 696.512512
636 0 1 10.415649 3.475220 695.602417
637 0 1 10.163410 3.255810 694.705994
638 0 1 9.996690 3.227250 693.768311
639 0 1 10.033070 3.356270 692.822815
640 0 1 10.123050 3.603870 691.854797
641 0 1 10.134680 4.082910 690.996277
642 0 1 9.631660 4.633540 690.303711
643 0 1 9.030080 5.159060 689.829773
644 0 1 8.461123 5.620220 689.257202
645 0 1 7.593949 5.891140 689.007202
646 0 1 6.851930 6.415030 688.980469
647 0 1 6.143130 7.049568 688.666870
648 0 1 5.353060 7.452062 688.277527
649 0 1 4.576130 7.695170 687.772827
650 0 1 4.040170 7.738287 687.019897
651 0 1 3.476860 7.963112 686.153381
652 0 1 2.937130 8.363547 685.433289
653 0 1 2.489850 8.697823 684.622803
654 0 1 2.343990 8.826423 683.687500
655 0 1 2.311130 8.907952 682.724792
656 0 1 2.287140 9.200900 681.700012
657 0 1 2.608610 9.389830 680.853882
658 0 1 2.807960 9.581950 679.964478
659 0 1 3.095720 9.733360 679.044128
660 0 1 3.504160 10.194560 678.278625
661 0 1 3.921270 10.471519 677.475098
662 0 1 4.546320 10.633990 676.819519
663 0 1 4.948130 10.845700 675.963196
664 0 1 5.255210 11.159491 675.084473
665 0 1 5.498580 11.459090 674.196472
666 0 1 5.718850 11.825860 673.330078
667 0 1 5.879700 12.173981 672.405823
668 0 1 5.853770 12.351040 671.486511
669 0 1 5.906420 12.597691 670.594421
670 0 1 5.960470 12.667680 669.614197
671 0 1 5.976810 12.450720 668.634583
672 0 1 6.094890 12.410640 667.689697
673 0 1 6.298470 12.716169 666.835571
674 0 1 6.436740 13.180830 665.993225
675 0 1 6.526260 13.638189 665.153992
676 0 1 6.561850 13.979020 664.233582
677 0 1 6.783110 13.990700 663.281982
678 0 1 7.118905 13.818760 662.312500
679 0 1 7.161601 14.024370 661.411194
680 0 1 7.112529 13.908510 660.417175
681 0 1 7.101428 13.894510 659.500610
682 0 1 7.158057 13.617220 658.560181
683 0 1 7.125546 13.238689 657.661072
684 0 1 6.799330 12.888550 656.776672
685 0 1 6.695200 12.700480 655.849731
686 0 1 6.561200 12.609540 654.939331
687 0 1 6.104730 12.641050 654.030396
688 0 1 5.987260 12.455370 653.120728
689 0 1 6.025440 12.143909 652.173401
690 0 1 6.179280 11.805540 651.309814
691 0 1 6.496200 11.648370 650.432617
692 0 1 6.702110 11.261060 649.572998
693 0 1 7.049764 10.957990 648.734009
694 0 1 7.409678 10.889900 647.867981
695 0 1 7.622846 10.905740 646.958496
696 0 1 7.737234 11.213520 646.019226
697 0 1 7.765053 11.520041 645.120483
698 0 1 7.748010 11.738200 644.162170
699 0 1 7.409696 11.534360 643.260620
700 0 1 6.990430 11.160300 642.504272
701 0 1 6.628230 10.838280 641.697083
702 0 1 5.958900 10.888670 640.948730
703 0 1 5.362790 10.634410 640.218811
704 0 1 4.757190 10.399700 639.479675
705 0 1 4.251350 9.870810 638.887512
706 0 1 3.943430 9.355130 638.179443
707 0 1 3.860190 9.034970 637.268616
708 0 1 3.930280 8.881890 636.303650
709 0 1 3.951920 8.757520 635.324341
710 0 1 3.817470 8.842833 634.391846
711 0 1 3.729810 8.845080 633.408508
712 0 1 3.944160 8.658052 632.433594
713 0 1 4.129080 8.654520 631.513611
714 0 1 4.238130 8.745132 630.579956
715 0 1 4.385670 8.644408 629.599792
716 0 1 4.253210 8.591695 628.656128
717 0 1 4.278090 8.659300 627.669678
718 0 1 4.141760 9.035290 626.751404
719 0 1 4.091600 9.429650 625.955566
720 0 1 3.979260 9.898140 625.145142
721 0 1 3.796090 10.379490 624.372253
722 0 1 4.068450 10.672220 623.492676
723 0 1 4.196770 10.714340 622.528931
724 0 1 4.285760 10.885380 621.617249
725 0 1 4.127330 11.027690 620.648254
726 0 1 3.887710 10.907000 619.710022
727 0 1 3.542440 10.658689 618.846985
728 0 1 3.430240 10.483459 617.919495
729 0 1 3.554290 10.037770 617.117920
730 0 1 4.074980 9.574310 616.398193
731 0 1 4.317520 9.075040 615.509521
732 0 1 4.790140 8.643416 614.721802
733 0 1 5.062940 8.157494 613.907776
734 0 1 5.303350 7.705911 613.070984
735 0 1 5.517460 7.311027 612.239319
736 0 1 5.828210 7.013009 611.364685
737 0 1 6.056570 6.382530 610.704285
738 0 1 6.227980 5.686520 610.113403
739 0 1 6.607060 4.944380 609.629272
740 0 1 7.007341 4.281340 609.105408
741 0 1 7.754178 3.846470 608.666870
742 0 1 8.308383 3.734400 607.888000
743 0 1 8.795596 3.963170 607.133179
744 0 1 9.093380 4.272330 606.259888
745 0 1 9.131940 4.697400 605.387207
746 0 1 9.117280 5.305840 604.619873
747 0 1 9.242310 5.973310 603.867798
748 0 1 9.305830 6.602990 603.109314
749 0 1 9.274800 7.024157 602.223083
750 0 1 9.128610 7.561397 601.412415
751 0 1 8.851542 7.948251 600.561096
752 0 1 8.665052 8.188798 599.659485
753 0 1 8.159918 8.295530 598.830505
754 0 1 7.830439 8.460977 597.908691
755 0 1 7.316615 8.443000 597.135193
756 0 1 6.923210 8.414074 596.271790
757 0 1 6.391490 8.493551 595.501526
758 0 1 5.748780 8.470757 594.739197
759 0 1 5.071490 8.704055 594.079224
760 0 1 4.730020 9.008360 593.296997
761 0 1 4.547330 9.273570 592.360901
762 0 1 4.721090 9.605280 591.408325
763 0 1 4.413390 9.994920 590.572998
764 0 1 4.222380 10.325860 589.612610
765 0 1 4.294000 10.378380 588.689819
766 0 1 4.314060 10.381020 587.729614
767 0 1 4.249840 10.279800 586.756714
768 0 1 4.250750 10.119329 585.798279
769 0 1 4.243590 10.261499 584.762085
770 0 1 4.083260 10.229070 583.817627
771 0 1 3.819890 9.999840 582.972778
772 0 1 3.908260 9.952510 582.022705
773 0 1 4.194280 9.948410 581.142883
774 0 1 4.428550 10.032550 580.192078
775 0 1 4.581140 10.060630 579.237610
776 0 1 4.629480 9.915340 578.351929
777 0 1 4.990050 10.030640 577.486877
778 0 1 5.431790 9.983690 576.633118
779 0 1 5.897510 9.895500 575.829773
780 0 1 6.278360 9.760450 574.985901
781 0 1 6.810810 9.408980 574.266724
782 0 1 7.297944 8.922900 573.513672
783 0 1 7.871241 8.397318 572.789612
784 0 1 8.550517 7.909581 572.249390
785 0 1 8.916966 7.388925 571.519409
786 0 1 9.308380 6.767720 570.792969
787 0 1 9.456020 6.121680 570.157227
788 0 1 9.418980 5.662690 569.344299
789 0 1 9.332200 5.195220 568.471497
790 0 1 9.187980 4.827510 567.616028