LAMMPS data file via MDAnalysis

        1000  atoms
        1000  bonds
        1000  angles
           0  dihedrals
           0  impropers

           1  atom types
           1  bond types
           1  angle types
           0  dihedral types
           0  improper types

0.000000 16.000000 xlo xhi
0.000000 16.000000 ylo yhi
0.000000 1257.000000 zlo zhi


Masses

1 1.000000

Atoms

1 0 1 7.582436 3.833780 448.513000
2 0 1 7.950890 4.372180 449.242004
3 0 1 8.106818 4.868710 450.022003
4 0 1 8.199678 5.292250 450.850006
5 0 1 8.398251 5.710350 451.729980
6 0 1 8.442085 5.948180 452.661987
7 0 1 8.376371 6.474400 453.497009
8 0 1 8.137657 6.774830 454.351990
9 0 1 7.928301 7.306836 455.179016
10 0 1 7.250091 7.785017 455.688995
11 0 1 6.288960 8.078428 455.919006
12 0 1 5.459370 8.427577 456.449005
13 0 1 4.814380 8.732818 457.201996
14 0 1 4.219710 8.868857 457.927002
15 0 1 3.842520 9.040170 458.753998
16 0 1 3.605610 9.440650 459.544983
17 0 1 3.418290 9.906750 460.372986
18 0 1 3.064020 10.198560 461.207001
19 0 1 2.714130 10.516240 462.031006
20 0 1 2.377430 10.703600 462.908020
21 0 1 2.428430 10.881840 463.838989
22 0 1 2.613610 10.824830 464.778015
23 0 1 2.743330 10.875290 465.687988
24 0 1 2.987460 10.851810 466.622009
25 0 1 3.415900 10.802110 467.453003
26 0 1 3.959080 10.901860 468.324005
27 0 1 4.840230 11.197680 468.770020
28 0 1 5.780990 11.422200 468.901001
29 0 1 6.651530 11.490570 469.264008
30 0 1 7.481678 11.714670 469.716980
31 0 1 8.333525 11.904551 470.285004
32 0 1 9.114090 11.969450 470.781006
33 0 1 9.860170 12.001040 471.390015
34 0 1 10.386180 11.696060 472.085022
35 0 1 10.852850 11.414030 472.850006
36 0 1 11.326730 11.028920 473.752014
37 0 1 11.678280 10.610710 474.529999
38 0 1 11.772079 10.195410 475.376007
39 0 1 11.657080 9.868950 476.278992
40 0 1 11.669830 9.688540 477.199005
41 0 1 11.541010 9.356600 478.138000
42 0 1 11.237250 8.858267 478.932007
43 0 1 10.717960 8.242724 479.489990
44 0 1 10.120871 7.757134 480.067993
45 0 1 9.634220 7.037230 480.419006
46 0 1 9.108750 6.496230 480.925995
47 0 1 8.609439 6.287570 481.700989
48 0 1 8.287075 5.996670 482.583008
49 0 1 7.969852 5.817520 483.431000
50 0 1 7.473057 5.745450 484.235992
51 0 1 6.856190 5.697840 484.957001
52 0 1 5.938720 5.632990 485.306000
53 0 1 5.170070 5.635610 485.835022
54 0 1 4.335730 5.715240 486.453003
55 0 1 3.631390 5.769420 487.072998
56 0 1 3.133210 5.612450 487.927002
57 0 1 2.752720 5.642460 488.786011
58 0 1 2.664770 5.765980 489.708984
59 0 1 2.578500 5.842880 490.645020
60 0 1 2.395380 5.660970 491.541016
61 0 1 2.343910 5.621040 492.447021
62 0 1 2.503190 5.561660 493.398010
63 0 1 2.565000 5.485260 494.300995
64 0 1 2.826940 5.540660 495.220001
65 0 1 3.134340 5.563430 496.121002
66 0 1 3.534510 5.977420 496.934021
67 0 1 3.991600 6.343350 497.669983
68 0 1 4.494650 7.047966 498.216980
69 0 1 5.177960 7.459495 498.838013
70 0 1 5.860130 7.633638 499.485992
71 0 1 6.414180 7.858479 500.197021
72 0 1 6.993200 7.780839 500.941010
73 0 1 7.088321 7.754962 501.888000
74 0 1 7.227517 7.890751 502.816010
75 0 1 7.468750 7.545340 503.625000
76 0 1 7.552003 7.546206 504.609985
77 0 1 7.646019 7.548797 505.583008
78 0 1 7.959167 7.586467 506.466003
79 0 1 7.865041 7.824564 507.412994
80 0 1 7.975306 8.204167 508.260986
81 0 1 8.105103 8.095938 509.265015
82 0 1 7.979366 7.813658 510.226013
83 0 1 8.015160 7.930742 511.164001
84 0 1 8.189597 7.943609 512.130981
85 0 1 8.332464 7.963289 513.054993
86 0 1 8.461153 8.038776 513.953979
87 0 1 8.683134 8.138706 514.885010
88 0 1 8.785091 8.024575 515.823975
89 0 1 9.097090 7.913697 516.721008
90 0 1 9.610470 8.214435 517.417969
91 0 1 9.864460 8.564479 518.242981
92 0 1 10.381960 8.860793 519.052002
93 0 1 10.386800 8.914446 520.009033
94 0 1 10.462330 9.145310 520.903992
95 0 1 10.338570 9.174210 521.901001
96 0 1 10.169250 8.858631 522.752991
97 0 1 10.119960 8.513571 523.634033
98 0 1 10.167770 8.032381 524.481995
99 0 1 10.013240 7.440192 525.218018
100 0 1 9.896330 7.022970 526.073975
101 0 1 9.977390 6.686860 526.992004
102 0 1 9.784081 6.573290 527.963013
103 0 1 9.567530 6.661490 528.986694
104 0 1 9.398200 6.609710 530.003601
105 0 1 9.292050 6.873000 530.990295
106 0 1 9.306900 6.792350 531.947327
107 0 1 9.154060 6.700590 532.853394
108 0 1 8.957317 6.251760 533.709595
109 0 1 8.839789 5.863960 534.719299
110 0 1 8.679111 5.442480 535.574707
111 0 1 8.525058 4.801850 536.327271
112 0 1 8.413751 4.360210 537.199524
113 0 1 8.285024 4.005160 538.096985
114 0 1 8.240079 3.649010 539.013000
115 0 1 7.942634 3.376130 539.843689
116 0 1 7.709038 3.204350 540.756287
117 0 1 7.305955 3.406460 541.670776
118 0 1 6.828090 3.514030 542.548889
119 0 1 6.401960 3.389500 543.388794
120 0 1 6.333170 3.155980 544.304688
121 0 1 6.399480 2.906400 545.242310
122 0 1 6.143280 2.863050 546.218628
123 0 1 5.909850 2.788270 547.167297
124 0 1 5.877520 2.904190 548.096680
125 0 1 5.957020 2.995380 549.018982
126 0 1 6.234460 3.321790 549.926208
127 0 1 6.675040 3.735500 550.737305
128 0 1 6.992150 4.168110 551.542786
129 0 1 7.355882 4.556560 552.375000
130 0 1 7.608263 4.953210 553.203979
131 0 1 7.898984 5.214520 554.110291
132 0 1 8.189932 5.595070 555.002808
133 0 1 8.668070 6.265400 555.649719
134 0 1 9.084780 6.441730 556.545532
135 0 1 9.278580 6.534760 557.432190
136 0 1 9.665200 6.584230 558.299072
137 0 1 10.225620 6.557650 559.087524
138 0 1 10.591780 6.609620 560.010620
139 0 1 11.121440 6.608760 560.786377
140 0 1 11.531940 6.621170 561.635803
141 0 1 12.210609 6.559020 562.328796
142 0 1 12.757880 6.406150 563.113098
143 0 1 12.944799 6.218950 564.019287
144 0 1 13.248070 6.121180 564.989990
145 0 1 13.544870 6.316310 565.929504
146 0 1 14.012110 6.114440 566.676208
147 0 1 14.403170 5.940160 567.555908
148 0 1 14.540060 6.106180 568.537415
149 0 1 14.496910 6.280130 569.492615
150 0 1 14.550341 6.612950 570.425293
151 0 1 14.517890 6.907330 571.312988
152 0 1 14.412350 7.261542 572.265686
153 0 1 14.378660 7.666157 573.139587
154 0 1 14.348520 8.246313 573.919128
155 0 1 14.127110 9.044990 574.556824
156 0 1 14.050650 9.637280 575.283875
157 0 1 13.963301 10.295500 575.968628
158 0 1 13.613560 10.882610 576.625122
159 0 1 13.229700 11.308480 577.483032
160 0 1 12.581360 11.631870 578.106689
161 0 1 11.815060 11.784000 578.679993
162 0 1 11.114161 11.877780 579.258789
163 0 1 10.443690 11.674450 579.980774
164 0 1 9.874120 11.553790 580.779114
165 0 1 9.148390 11.464849 581.392578
166 0 1 8.301316 11.282850 581.943970
167 0 1 7.659620 11.285570 582.672791
168 0 1 6.869360 11.447820 583.212585
169 0 1 6.021940 11.307760 583.707520
170 0 1 5.448980 10.839251 584.354187
171 0 1 4.931410 10.303950 584.958191
172 0 1 4.826470 9.725770 585.669983
173 0 1 5.106820 9.382070 586.540222
174 0 1 5.231680 9.115800 587.456909
175 0 1 5.589770 9.314770 588.306824
176 0 1 5.796990 9.732240 589.122498
177 0 1 6.010330 10.018070 589.971680
178 0 1 6.333850 10.383640 590.804932
179 0 1 6.772480 10.709190 591.619995
180 0 1 7.038029 10.927629 592.580078
181 0 1 7.287864 11.378990 593.342712
182 0 1 7.514469 11.547461 594.219177
183 0 1 7.877922 11.678860 595.086182
184 0 1 8.087049 11.480710 596.007202
185 0 1 8.019070 11.297091 596.924927
186 0 1 8.180210 11.307100 597.856506
187 0 1 8.367962 11.341530 598.797913
188 0 1 8.832766 11.527340 599.624084
189 0 1 8.729160 11.631560 600.539795
190 0 1 8.586275 11.440430 601.495300
191 0 1 8.465179 11.344510 602.443420
192 0 1 8.291463 11.336470 603.423523
193 0 1 8.297621 11.101110 604.317688
194 0 1 8.407019 10.799470 605.207886
195 0 1 8.715398 10.651690 606.123291
196 0 1 9.253770 10.700620 606.940918
197 0 1 9.894480 10.702920 607.670593
198 0 1 10.181300 10.780900 608.567078
199 0 1 10.636630 10.581390 609.369812
200 0 1 11.078780 10.706830 610.219604
201 0 1 11.702971 10.696341 610.932129
202 0 1 12.425039 10.414090 611.461487
203 0 1 13.036221 9.987200 612.104614
204 0 1 13.685289 9.707670 612.778320
205 0 1 14.187030 9.269820 613.463501
206 0 1 13.917350 8.793803 614.319885
207 0 1 13.380260 8.550111 615.059082
208 0 1 12.846870 8.186720 615.703979
209 0 1 12.123520 7.864098 616.219788
210 0 1 11.371120 7.495150 616.816284
211 0 1 10.629850 6.990410 617.255493
212 0 1 9.947610 6.530550 617.791016
213 0 1 9.431960 6.130430 618.471375
214 0 1 8.939784 5.687340 619.188843
215 0 1 8.609828 5.437170 620.013550
216 0 1 8.100732 5.178870 620.789551
217 0 1 7.765656 4.936300 621.615906
218 0 1 7.502742 4.655630 622.497131
219 0 1 7.089928 4.393260 623.311157
220 0 1 6.773840 4.396930 624.180237
221 0 1 6.460970 4.225830 625.070435
222 0 1 6.310510 4.363680 626.019287
223 0 1 6.325030 4.287850 626.992310
224 0 1 6.142430 4.235860 627.917542
225 0 1 5.830470 4.237430 628.863098
226 0 1 5.644390 4.201150 629.763733
227 0 1 5.597370 4.145970 630.725891
228 0 1 5.649410 4.267710 631.714539
229 0 1 5.738040 4.085980 632.645325
230 0 1 5.995440 3.650160 633.450073
231 0 1 6.416690 3.339930 634.326599
232 0 1 7.066930 3.243170 635.038391
233 0 1 7.789955 3.218840 635.753235
234 0 1 8.610694 3.251780 636.205750
235 0 1 9.262540 3.178450 636.911499
236 0 1 9.964420 3.235740 637.623718
237 0 1 10.278890 3.271570 638.572876
238 0 1 10.442240 3.241470 639.521301
239 0 1 10.230080 3.329800 640.495605
240 0 1 9.928280 3.494660 641.390320
241 0 1 9.289750 3.490300 642.200195
242 0 1 9.086200 3.667860 643.140686
243 0 1 8.927131 3.514650 644.073914
244 0 1 8.783850 3.816660 645.032593
245 0 1 8.956926 3.965610 645.963806
246 0 1 8.932057 4.051900 646.998108
247 0 1 8.826371 4.168180 647.911011
248 0 1 8.805490 4.145120 648.852722
249 0 1 8.986937 4.083230 649.774414
250 0 1 9.193250 3.751630 650.703308
251 0 1 9.185480 3.515220 651.613525
252 0 1 9.290051 3.546800 652.591675
253 0 1 9.405270 3.793370 653.562012
254 0 1 9.314810 3.823720 654.514709
255 0 1 9.416440 4.114020 655.463501
256 0 1 9.420100 4.247820 656.390991
257 0 1 9.384410 4.472320 657.393677
258 0 1 9.632660 4.546010 658.315796
259 0 1 9.571470 4.909760 659.280701
260 0 1 9.673130 4.986650 660.238281
261 0 1 9.934580 5.250320 661.111023
262 0 1 10.064830 5.568130 661.996704
263 0 1 10.247800 5.708260 662.919128
264 0 1 10.438950 5.878190 663.834106
265 0 1 10.879480 5.864720 664.679993
266 0 1 11.042580 6.230050 665.570801
267 0 1 11.525890 6.381590 666.401428
268 0 1 12.055440 6.427540 667.222107
269 0 1 12.549900 6.897870 667.927490
270 0 1 13.030270 7.358231 668.659119
271 0 1 13.179530 7.719807 669.452820
272 0 1 13.366409 8.235236 670.245972
273 0 1 13.463631 8.764650 671.017517
274 0 1 13.566310 9.460460 671.669617
275 0 1 13.321280 9.988940 672.470886
276 0 1 13.095290 10.422050 673.323975
277 0 1 13.103951 10.800159 674.242798
278 0 1 13.226419 11.164190 675.150513
279 0 1 13.225340 11.435560 676.074524
280 0 1 12.991119 11.883460 676.916077
281 0 1 13.006590 12.202380 677.792175
282 0 1 12.924379 12.624280 678.726685
283 0 1 12.687600 12.727050 679.653931
284 0 1 12.336559 12.717150 680.603821
285 0 1 11.888330 12.762690 681.400513
286 0 1 11.458200 12.556271 682.299377
287 0 1 10.858000 12.441999 683.046326
288 0 1 10.708549 12.424030 684.011902
289 0 1 10.554131 12.379829 685.047974
290 0 1 10.100590 12.651711 685.921814
291 0 1 9.718560 12.853371 686.803772
292 0 1 9.272150 12.668500 687.658691
293 0 1 8.995660 12.380130 688.575928
294 0 1 8.965591 11.999120 689.475220
295 0 1 9.084800 11.833981 690.483276
296 0 1 9.175680 11.940590 691.469482
297 0 1 9.169000 12.152861 692.363892
298 0 1 8.976569 12.292880 693.261414
299 0 1 8.807136 12.570180 694.127991
300 0 1 8.971638 12.292570 695.067383
301 0 1 9.200220 11.923810 695.896423
302 0 1 9.226870 11.363700 696.681030
303 0 1 9.424090 10.763990 697.455688
304 0 1 9.858570 10.439280 698.224426
305 0 1 10.290760 10.031900 698.950928
306 0 1 10.395190 9.573280 699.792175
307 0 1 10.443470 9.019680 700.650513
308 0 1 10.189120 8.597144 701.566772
309 0 1 9.902320 8.222307 702.371887
310 0 1 9.728300 8.140543 703.296021
311 0 1 9.465900 7.895423 704.220398
312 0 1 9.355490 7.645016 705.120117
313 0 1 9.148149 7.238497 705.999512
314 0 1 8.740429 6.608600 706.684021
315 0 1 8.596008 5.969670 707.419067
316 0 1 8.567968 5.178850 708.000366
317 0 1 8.685891 4.578210 708.717529
318 0 1 8.608849 4.243070 709.595703
319 0 1 8.536399 3.971600 710.523315
320 0 1 8.646079 3.455440 711.413879
321 0 1 8.759672 2.977350 712.273010
322 0 1 8.999659 2.693970 713.148682
323 0 1 9.184550 2.690900 714.108582
324 0 1 8.989313 2.506800 715.060303
325 0 1 8.721199 2.486750 715.997070
326 0 1 8.576312 2.431450 716.939819
327 0 1 8.502833 2.625030 717.904175
328 0 1 8.475521 3.004640 718.786621
329 0 1 8.811406 3.435850 719.591003
330 0 1 9.194320 3.998560 720.308594
331 0 1 9.434180 4.639890 720.968628
332 0 1 9.418830 5.510480 721.533081
333 0 1 9.589610 6.269660 722.056213
334 0 1 9.437800 6.936730 722.777466
335 0 1 9.249210 7.497649 723.519775
336 0 1 9.336830 8.040136 724.294006
337 0 1 9.449720 8.404038 725.135376
338 0 1 9.537910 8.946389 725.900696
339 0 1 9.567860 9.491199 726.734802
340 0 1 9.930740 9.722020 727.606995
341 0 1 10.071960 10.023650 728.507996
342 0 1 10.029430 10.218710 729.460999
343 0 1 9.678380 10.095030 730.265015
344 0 1 9.317080 9.927299 731.161011
345 0 1 9.418970 9.602400 732.088989
346 0 1 9.563150 9.419330 733.020996
347 0 1 9.714770 8.975825 733.864014
348 0 1 9.863620 8.684193 734.766968
349 0 1 9.732030 8.364730 735.614990
350 0 1 9.348740 8.248455 736.434998
351 0 1 8.895464 8.368259 737.292969
352 0 1 8.419408 8.622306 738.046997
353 0 1 7.712753 8.698147 738.750000
354 0 1 7.257341 8.707292 739.601990
355 0 1 6.574700 8.477611 740.348999
356 0 1 6.043780 8.620265 741.114990
357 0 1 5.312140 8.760894 741.702026
358 0 1 4.734640 8.832186 742.435974
359 0 1 4.446160 9.031520 743.320007
360 0 1 4.337610 9.212230 744.210999
361 0 1 4.383810 9.255740 745.167969
362 0 1 4.352130 9.206150 746.132019
363 0 1 4.431490 9.037290 747.070007
364 0 1 4.759300 8.760685 748.044983
365 0 1 5.085600 8.559609 748.895020
366 0 1 5.617670 8.512488 749.724976
367 0 1 6.112700 8.239900 750.525024
368 0 1 6.694530 7.812893 751.218994
369 0 1 7.331781 7.531179 752.005005
370 0 1 7.967446 7.110175 752.580994
371 0 1 8.500795 6.843340 753.289978
372 0 1 8.856732 6.635960 754.143005
373 0 1 9.107660 6.680690 755.049011
374 0 1 9.391950 6.748950 755.984009
375 0 1 9.766990 6.704670 756.898010
376 0 1 9.934200 6.439770 757.770996
377 0 1 10.081750 6.079420 758.640015
378 0 1 10.461770 5.907660 759.489014
379 0 1 10.730770 6.143370 760.341980
380 0 1 11.073009 6.063700 761.252991
381 0 1 11.502270 6.101120 762.138000
382 0 1 12.049049 6.070360 762.945984
383 0 1 12.244101 5.973900 763.802002
384 0 1 12.585649 5.746200 764.658020
385 0 1 12.824090 5.931710 765.559998
386 0 1 12.762290 6.160110 766.481995
387 0 1 12.853701 6.248100 767.547974
388 0 1 12.744590 6.422330 768.500977
389 0 1 12.592060 6.322130 769.434998
390 0 1 12.607010 5.741710 770.257019
391 0 1 12.414120 5.369650 771.085999
392 0 1 12.303450 5.060880 771.940979
393 0 1 11.840990 4.785090 772.723999
394 0 1 11.599360 4.584080 773.703003
395 0 1 11.084930 4.720960 774.484009
396 0 1 10.739670 4.894050 775.405029
397 0 1 10.590900 5.080180 776.359009
398 0 1 10.443040 5.690090 777.057007
399 0 1 10.213620 6.362060 777.811035
400 0 1 10.085150 6.887400 778.556030
401 0 1 9.801110 7.523637 779.235962
402 0 1 9.269890 8.014132 779.856018
403 0 1 8.627507 8.036826 780.638000
404 0 1 7.953992 8.358649 781.281982
405 0 1 7.157166 8.477700 781.843018
406 0 1 6.339480 8.638100 782.301025
407 0 1 5.695920 8.650868 782.966980
408 0 1 4.967190 8.880099 783.601013
409 0 1 4.402080 9.342230 784.307983
410 0 1 4.019390 9.498170 785.208984
411 0 1 3.730750 9.732720 786.065979
412 0 1 3.826410 10.027810 786.969971
413 0 1 3.816860 10.452820 787.848022
414 0 1 4.176200 10.676550 788.783997
415 0 1 4.657630 11.117701 789.513000
416 0 1 4.840480 11.580000 790.302979
417 0 1 4.800960 12.261080 790.968018
418 0 1 4.575530 12.767210 791.754028
419 0 1 4.485930 12.809870 792.789978
420 0 1 4.268470 12.638030 793.734009
421 0 1 4.053350 12.272560 794.578979
422 0 1 4.207040 11.784360 795.386963
423 0 1 4.427580 11.464200 796.273010
424 0 1 4.682720 11.172800 797.151001
425 0 1 4.833520 10.715500 798.039978
426 0 1 4.470930 10.734040 798.942017
427 0 1 4.157910 10.591290 799.843994
428 0 1 3.951490 10.593220 800.754028
429 0 1 3.763050 10.149940 801.583008
430 0 1 3.866090 9.433640 802.208984
431 0 1 3.890490 8.844946 803.004028
432 0 1 4.054960 8.444774 803.820007
433 0 1 4.013920 8.334299 804.750000
434 0 1 3.945490 8.060014 805.692993
435 0 1 3.645730 8.135058 806.614014
436 0 1 3.889640 8.343745 807.483032
437 0 1 4.435100 8.448586 808.181030
438 0 1 4.955780 8.441281 808.994995
439 0 1 5.525040 8.107419 809.676025
440 0 1 6.176400 7.916606 810.396973
441 0 1 6.599860 7.800541 811.187012
442 0 1 7.143988 7.717304 811.994995
443 0 1 7.468248 7.860592 812.910034
444 0 1 7.316629 8.050218 813.869019
445 0 1 7.377684 8.083177 814.804016
446 0 1 7.620056 8.009840 815.794006
447 0 1 7.873811 7.902224 816.664001
448 0 1 8.030002 7.769737 817.531006
449 0 1 8.327946 7.485423 818.432007
450 0 1 8.384882 7.221611 819.367981
451 0 1 8.695382 6.905270 820.208008
452 0 1 8.908337 6.683450 821.151001
453 0 1 9.127940 6.457220 822.083984
454 0 1 9.275980 6.223610 823.033020
455 0 1 9.299750 5.948980 823.974976
456 0 1 9.107100 5.956380 824.888000
457 0 1 8.882573 6.095700 825.825989
458 0 1 8.976490 6.015310 826.875000
459 0 1 9.201950 5.469630 827.606995
460 0 1 9.206350 4.832380 828.294006
461 0 1 9.202160 4.264380 829.094971
462 0 1 9.001250 3.760070 829.976013
463 0 1 8.695646 3.519970 830.854980
464 0 1 8.359374 3.382700 831.712036
465 0 1 8.045007 3.461940 832.672974
466 0 1 7.858527 3.589090 833.671021
467 0 1 7.456852 4.142140 834.335999
468 0 1 7.124600 4.620130 835.106995
469 0 1 6.468210 5.048780 835.612000
470 0 1 5.742420 5.494990 836.104980
471 0 1 5.130680 6.260330 836.255981
472 0 1 4.550040 7.064425 836.346008
473 0 1 3.837150 7.718971 836.280029
474 0 1 2.992580 8.133726 836.109009
475 0 1 2.194810 8.575517 835.846008
476 0 1 1.495360 8.998901 835.265991
477 0 1 1.303440 9.767750 834.687012
478 0 1 1.559970 10.367650 834.021973
479 0 1 1.717250 10.646009 833.129028
480 0 1 1.999060 10.764960 832.265015
481 0 1 2.187030 11.008471 831.353027
482 0 1 2.281120 11.013190 830.362000
483 0 1 2.510840 11.127790 829.400024
484 0 1 2.881710 11.195271 828.565002
485 0 1 3.504970 11.205200 827.880005
486 0 1 4.190880 11.142330 827.195007
487 0 1 4.804140 10.870220 826.563965
488 0 1 5.419030 10.784821 825.839966
489 0 1 6.162110 10.441450 825.320984
490 0 1 6.605070 9.965630 824.632019
491 0 1 7.071534 9.402180 823.922974
492 0 1 7.167736 8.889824 823.110962
493 0 1 6.935590 8.716241 822.171021
494 0 1 7.019554 8.256997 821.270996
495 0 1 6.781510 7.717359 820.544983
496 0 1 6.660140 7.107235 819.713013
497 0 1 6.669800 6.341410 819.143005
498 0 1 6.398730 5.569580 818.575989
499 0 1 6.449850 4.780090 817.934998
500 0 1 6.524840 4.000940 817.380005
501 0 1 6.503530 3.274320 816.549011
502 0 1 6.454770 3.094320 815.565002
503 0 1 6.277510 2.710590 814.624023
504 0 1 6.283130 2.882640 813.608032
505 0 1 6.451780 2.972810 812.690979
506 0 1 6.875540 2.998290 811.778015
507 0 1 6.812320 3.314700 810.896973
508 0 1 7.030233 3.466190 810.020020
509 0 1 7.347975 3.963740 809.223022
510 0 1 7.508240 4.422630 808.453979
511 0 1 7.820501 4.824080 807.617004
512 0 1 7.936571 5.082740 806.661987
513 0 1 7.773554 5.572240 805.835999
514 0 1 7.410366 5.776000 804.984985
515 0 1 7.216758 6.376030 804.292969
516 0 1 6.885550 6.875840 803.526978
517 0 1 6.805930 7.332370 802.661987
518 0 1 7.146668 7.828171 801.927979
519 0 1 7.550944 8.255599 801.203979
520 0 1 7.990597 8.507761 800.343994
521 0 1 8.228537 8.851167 799.484985
522 0 1 8.477223 9.152970 798.612000
523 0 1 8.791511 9.548880 797.776001
524 0 1 8.977469 9.942850 796.955994
525 0 1 9.139180 10.157460 796.085022
526 0 1 9.090910 10.431110 795.130981
527 0 1 8.792138 10.501410 794.188965
528 0 1 8.509043 10.267420 793.278992
529 0 1 8.134817 9.981950 792.473999
530 0 1 7.631657 9.887810 791.695984
531 0 1 7.344955 9.668670 790.817017
532 0 1 7.149058 9.488840 789.864014
533 0 1 6.955290 9.201910 789.014038
534 0 1 6.523690 8.910960 788.155029
535 0 1 5.978210 8.529708 787.464966
536 0 1 5.588970 7.885387 786.919983
537 0 1 5.430310 7.246859 786.148987
538 0 1 5.321220 6.887470 785.266968
539 0 1 4.988250 6.877650 784.362000
540 0 1 4.938320 6.970770 783.364014
541 0 1 4.616210 7.061172 782.437012
542 0 1 4.422480 7.292537 781.514038
543 0 1 4.477650 7.648728 780.598022
544 0 1 4.620590 7.908749 779.710999
545 0 1 4.565940 8.155991 778.789978
546 0 1 4.288030 8.235464 777.862000
547 0 1 3.893140 8.516487 777.018982
548 0 1 3.487020 8.847603 776.146973
549 0 1 2.896970 9.167160 775.494995
550 0 1 2.630560 9.781360 774.785034
551 0 1 2.802070 10.179150 773.882996
552 0 1 2.834460 10.151360 772.957031
553 0 1 2.856510 10.023870 772.018005
554 0 1 2.888270 9.577610 771.160034
555 0 1 2.986730 9.074630 770.380005
556 0 1 3.304180 8.603732 769.619995
557 0 1 3.543800 8.139567 768.886963
558 0 1 3.691440 7.497188 768.164978
559 0 1 4.020910 6.851750 767.393982
560 0 1 4.113860 6.342480 766.610962
561 0 1 4.234220 5.734040 765.910034
562 0 1 4.608380 5.252530 765.127014
563 0 1 5.162790 4.908010 764.450012
564 0 1 5.642560 4.619000 763.692017
565 0 1 5.723430 4.590930 762.806030
566 0 1 5.747120 4.445020 761.846008
567 0 1 5.566980 4.265390 760.825012
568 0 1 5.414590 3.986960 759.942993
569 0 1 5.319260 3.766620 759.002014
570 0 1 5.173180 3.841720 758.054016
571 0 1 5.123300 4.373800 757.299988
572 0 1 5.114450 5.132570 756.630981
573 0 1 4.863340 5.841280 756.067993
574 0 1 4.685080 6.534980 755.391968
575 0 1 4.585560 7.194952 754.747009
576 0 1 4.530370 7.765418 753.937988
577 0 1 4.053180 8.391798 753.309021
578 0 1 3.730630 8.994351 752.603027
579 0 1 3.367690 9.690850 752.060974
580 0 1 3.215180 10.418570 751.429016
581 0 1 3.130150 11.168450 750.817993
582 0 1 3.434710 11.785580 750.140015
583 0 1 3.833420 12.207689 749.354004
584 0 1 4.111720 12.275300 748.450989
585 0 1 4.559320 12.376940 747.627014
586 0 1 5.114990 12.357560 746.828003
587 0 1 5.453500 12.455870 745.987000
588 0 1 6.087520 12.578520 745.250000
589 0 1 6.794360 12.542480 744.589966
590 0 1 7.491407 12.723940 744.018982
591 0 1 8.123388 13.027660 743.432983
592 0 1 8.617757 13.485559 742.768982
593 0 1 8.569303 13.636820 741.838989
594 0 1 8.397621 13.594430 740.786987
595 0 1 8.340930 13.512320 739.864990
596 0 1 8.570548 13.561310 738.908997
597 0 1 8.957739 13.561310 737.973022
598 0 1 9.363500 13.368959 737.089966
599 0 1 9.719730 13.375370 736.198975
600 0 1 9.810930 13.477230 735.268982
601 0 1 9.748340 13.286150 734.296997
602 0 1 9.577670 13.216090 733.356018
603 0 1 9.275620 13.176950 732.434021
604 0 1 9.255950 13.284280 731.473999
605 0 1 9.320430 13.010960 730.535034
606 0 1 9.376460 12.803570 729.614990
607 0 1 9.755730 12.626490 728.776978
608 0 1 10.278111 12.497049 727.936768
609 0 1 10.436820 12.092310 727.047119
610 0 1 10.913350 11.737659 726.265686
611 0 1 11.070790 11.752390 725.334290
612 0 1 11.027590 11.651450 724.376587
613 0 1 11.084641 11.596830 723.420166
614 0 1 11.184160 11.589430 722.494995
615 0 1 11.224820 11.597980 721.516479
616 0 1 11.303780 11.255110 720.601013
617 0 1 11.171710 11.041620 719.713074
618 0 1 11.280109 10.724150 718.812317
619 0 1 11.625820 10.212950 717.977112
620 0 1 11.763430 9.827600 717.102600
621 0 1 11.847410 9.596600 716.118774
622 0 1 11.997060 9.093870 715.266113
623 0 1 11.970330 8.808128 714.349487
624 0 1 11.566900 8.274836 713.596191
625 0 1 11.126240 8.165132 712.774719
626 0 1 10.972990 8.314492 711.843689
627 0 1 10.860670 8.352182 710.885315
628 0 1 10.947940 8.476581 709.895630
629 0 1 10.833430 8.428885 708.933716
630 0 1 10.783110 8.517349 707.939697
631 0 1 10.734500 8.659495 706.993225
632 0 1 10.471940 8.790003 706.083496
633 0 1 10.140910 9.084500 705.267334
634 0 1 9.659220 9.217660 704.412109
635 0 1 9.378650 9.286180 703.541077
636 0 1 9.273780 9.475680 702.610901
637 0 1 8.997730 9.776480 701.705322
638 0 1 8.740527 9.881630 700.805298
639 0 1 8.536177 10.106760 699.860901
640 0 1 8.348331 10.020190 698.968079
641 0 1 7.996644 10.180780 698.047791
642 0 1 7.909805 10.292350 697.042786
643 0 1 7.816383 10.260410 696.092896
644 0 1 7.930512 10.259541 695.132080
645 0 1 7.891513 9.998110 694.245422
646 0 1 7.783231 9.471010 693.415588
647 0 1 7.860608 8.919148 692.574890
648 0 1 7.721194 8.384739 691.689087
649 0 1 7.515084 7.988824 690.812073
650 0 1 7.152863 7.600276 689.976685
651 0 1 6.818980 7.123797 689.260376
652 0 1 6.344010 6.584850 688.561218
653 0 1 5.727210 6.164810 687.958923
654 0 1 5.407140 5.897390 687.138000
655 0 1 5.229700 5.338360 686.275696
656 0 1 4.918300 4.850980 685.496277
657 0 1 4.407500 4.359350 684.859802
658 0 1 3.805000 4.245290 684.166016
659 0 1 3.447830 4.176320 683.260132
660 0 1 3.250440 4.294100 682.347290
661 0 1 3.190210 4.609190 681.452698
662 0 1 3.181340 4.927540 680.579773
663 0 1 3.173550 5.444790 679.766602
664 0 1 3.145790 5.793580 678.856323
665 0 1 3.026710 6.073220 677.951904
666 0 1 2.757400 6.150340 676.992126
667 0 1 2.376130 6.168560 676.069397
668 0 1 2.044160 6.240510 675.128723
669 0 1 2.011250 6.104840 674.209290
670 0 1 2.159530 6.281050 673.291870
671 0 1 2.502130 6.532220 672.391296
672 0 1 2.696080 7.005891 671.579895
673 0 1 2.608200 7.362610 670.671875
674 0 1 2.857640 7.753548 669.818115
675 0 1 3.007400 8.322374 669.035706
676 0 1 3.059760 8.711218 668.145203
677 0 1 3.371330 9.040040 667.269714
678 0 1 3.533850 9.349030 666.375122
679 0 1 3.834450 9.679040 665.581787
680 0 1 4.102640 10.235470 664.771484
681 0 1 4.164320 10.674170 663.876221
682 0 1 4.242610 11.207870 663.130188
683 0 1 4.356690 11.439270 662.205872
684 0 1 4.176400 11.438400 661.282471
685 0 1 4.119310 11.631590 660.265686
686 0 1 4.016740 11.745210 659.336792
687 0 1 3.915140 11.809140 658.346802
688 0 1 3.933560 11.787790 657.341980
689 0 1 3.678630 11.819430 656.468384
690 0 1 3.517320 11.612480 655.542603
691 0 1 3.558800 11.832951 654.574219
692 0 1 3.466890 12.142300 653.671326
693 0 1 3.264610 12.326250 652.726990
694 0 1 3.287480 12.434959 651.739380
695 0 1 3.349880 12.688190 650.843628
696 0 1 3.573000 12.894660 649.898315
697 0 1 3.970130 13.193069 649.055481
698 0 1 4.359330 13.639840 648.311829
699 0 1 4.648290 13.876989 647.470276
700 0 1 5.140640 13.768380 646.643677
701 0 1 5.838100 13.703840 646.013123
702 0 1 6.315010 13.268630 645.249512
703 0 1 6.717380 12.946590 644.484192
704 0 1 7.370224 12.807440 643.761597
705 0 1 8.027249 12.708400 643.006592
706 0 1 8.432895 12.582050 642.138184
707 0 1 8.709074 12.555201 641.198608
708 0 1 8.962859 12.307051 640.334900
709 0 1 9.359610 11.904650 639.518982
710 0 1 9.651050 11.666400 638.608521
711 0 1 9.826090 11.486660 637.674866
712 0 1 10.057199 11.263030 636.779175
713 0 1 10.306530 11.110490 635.842407
714 0 1 10.814880 10.865640 635.096069
715 0 1 11.341249 10.964060 634.260620
716 0 1 11.666980 10.869590 633.331177
717 0 1 12.083540 11.022430 632.470825
718 0 1 12.699739 11.197360 631.742310
719 0 1 13.257910 11.450060 631.010254
720 0 1 13.492599 11.460510 630.083740
721 0 1 13.655550 11.255520 629.183838
722 0 1 13.576910 10.765770 628.317078
723 0 1 13.393700 10.360870 627.445801
724 0 1 12.806709 10.102090 626.791748
725 0 1 12.103760 9.750270 626.175598
726 0 1 11.357220 9.504539 625.425598
727 0 1 10.683520 8.977681 624.960388
728 0 1 10.273570 8.363975 624.371460
729 0 1 10.376710 7.682460 623.649719
730 0 1 10.664190 7.011050 623.018921
731 0 1 10.535260 6.610490 622.195984
732 0 1 10.449141 6.514540 621.249451
733 0 1 10.331250 6.081150 620.346497
734 0 1 10.586110 5.728050 619.465210
735 0 1 10.857719 5.432240 618.604492
736 0 1 10.851360 4.940170 617.766785
737 0 1 10.995350 4.387050 616.971069
738 0 1 10.887420 3.955150 616.072998
739 0 1 10.339360 3.608000 615.396912
740 0 1 10.110920 3.298090 614.553284
741 0 1 9.854259 3.050860 613.684570
742 0 1 9.906790 2.791700 612.796997
743 0 1 10.020820 2.736980 611.880005
744 0 1 9.983110 2.880370 610.861206
745 0 1 9.871330 3.134070 609.976379
746 0 1 9.535770 3.441150 609.115601
747 0 1 9.216681 3.435450 608.174500
748 0 1 9.004790 3.356770 607.260315
749 0 1 8.710672 3.260110 606.333313
750 0 1 8.706738 3.642510 605.404175
751 0 1 8.778104 4.003360 604.546509
752 0 1 9.007450 4.632350 603.876892
753 0 1 9.249770 5.164030 603.142517
754 0 1 9.345140 5.659370 602.369019
755 0 1 9.412130 6.091860 601.502380
756 0 1 9.672640 6.396110 600.650024
757 0 1 10.055759 6.546100 599.848389
758 0 1 10.712000 6.468920 599.080017
759 0 1 11.290490 6.451240 598.313721
760 0 1 11.816230 6.127370 597.551270
761 0 1 11.914840 5.743680 596.590515
762 0 1 12.160620 5.296820 595.709717
763 0 1 12.092131 4.849360 594.873474
764 0 1 11.861740 4.399330 594.032593
765 0 1 11.613831 4.090830 593.114075
766 0 1 11.150460 3.966740 592.242920
767 0 1 10.803540 3.932730 591.348816
768 0 1 10.461480 3.960330 590.386597
769 0 1 10.185450 4.005470 589.525269
770 0 1 9.799260 4.137250 588.629272
771 0 1 9.501260 4.411930 587.747681
772 0 1 9.265870 4.738750 586.845093
773 0 1 8.997950 4.946280 585.975220
774 0 1 8.790006 5.001040 585.046021
775 0 1 8.567894 5.064250 584.146179
776 0 1 8.373957 5.129630 583.201416
777 0 1 8.259244 4.992950 582.279785
778 0 1 8.080667 4.937570 581.337280
779 0 1 7.748729 4.933840 580.471802
780 0 1 7.750136 4.871330 579.519531
781 0 1 7.770204 5.012250 578.548218
782 0 1 7.915591 5.254570 577.597717
783 0 1 8.138087 5.616220 576.719177
784 0 1 8.124020 5.883240 575.765808
785 0 1 7.655068 5.954050 574.918274
786 0 1 7.330521 6.093680 574.027893
787 0 1 7.113344 6.098170 573.103577
788 0 1 6.950310 6.323460 572.174683
789 0 1 6.675780 6.587640 571.288391
790 0 1 6.203330 6.754970 570.487488
791 0 1 6.101270 6.974460 569.502075
792 0 1 6.158310 7.399305 568.630798