LAMMPS data file via MDAnalysis

        1000  atoms
        1000  bonds
        1000  angles
           0  dihedrals
           0  impropers

           1  atom types
           1  bond types
           1  angle types
           0  dihedral types
           0  improper types

0.000000 16.000000 xlo xhi
0.000000 16.000000 ylo yhi
0.000000 1257.000000 zlo zhi


Masses

1 1.000000

Atoms

1 0 1 8.599927 10.774530 443.304016
2 0 1 8.331788 10.279260 444.153992
3 0 1 8.163655 10.126740 445.059998
4 0 1 7.963093 10.140560 446.054993
5 0 1 7.450445 9.985430 446.876007
6 0 1 6.891420 10.125629 447.627014
7 0 1 6.374420 10.186190 448.442993
8 0 1 5.913270 10.003420 449.309021
9 0 1 5.456130 9.967580 450.110992
10 0 1 5.103470 9.724300 450.963989
11 0 1 4.580110 9.436350 451.763000
12 0 1 4.135460 9.027270 452.489990
13 0 1 3.832470 9.051240 453.411987
14 0 1 3.793130 9.059970 454.367004
15 0 1 3.375380 8.964635 455.247986
16 0 1 3.383260 8.375880 456.042999
17 0 1 3.326760 7.963322 456.973022
18 0 1 3.341250 7.534499 457.843018
19 0 1 3.538440 7.014470 458.654999
20 0 1 3.565070 6.768820 459.569000
21 0 1 3.692720 6.271650 460.416992
22 0 1 3.933650 6.008570 461.312012
23 0 1 4.166710 5.637830 462.197998
24 0 1 4.604380 5.410960 463.009003
25 0 1 4.834860 5.298780 463.951996
26 0 1 4.910530 5.216450 464.845001
27 0 1 4.951160 5.475930 465.701996
28 0 1 4.791430 5.478730 466.622009
29 0 1 4.467710 5.308030 467.468994
30 0 1 4.197220 5.188390 468.382996
31 0 1 3.909720 4.955000 469.315002
32 0 1 3.834680 4.694240 470.273987
33 0 1 3.743600 4.670220 471.268005
34 0 1 3.943940 4.844260 472.203003
35 0 1 4.311180 4.948030 473.082001
36 0 1 4.537630 4.965150 474.041016
37 0 1 4.585340 4.867660 474.971985
38 0 1 4.336240 4.797360 475.927002
39 0 1 4.213280 4.915270 476.867981
40 0 1 4.529590 4.878320 477.812012
41 0 1 4.783290 4.932330 478.761993
42 0 1 5.260130 5.081250 479.554993
43 0 1 5.646250 5.182100 480.398987
44 0 1 5.841840 5.246110 481.317993
45 0 1 6.185790 5.288840 482.177002
46 0 1 6.628680 5.240030 483.122009
47 0 1 7.006545 5.310430 484.052002
48 0 1 7.067938 5.246420 484.984009
49 0 1 6.803180 5.088040 485.890991
50 0 1 6.314640 5.226030 486.708984
51 0 1 5.853580 5.479800 487.567993
52 0 1 5.571880 5.721780 488.502991
53 0 1 5.088340 5.761720 489.322998
54 0 1 4.557450 5.513460 490.098999
55 0 1 4.098480 5.230470 490.910004
56 0 1 3.774240 4.659680 491.536987
57 0 1 3.744610 4.454060 492.510986
58 0 1 3.606780 4.303170 493.475006
59 0 1 3.290970 4.243710 494.375000
60 0 1 3.156190 4.268420 495.292999
61 0 1 2.797110 4.436140 496.174011
62 0 1 2.492530 4.812160 497.065002
63 0 1 2.114730 5.182180 497.889008
64 0 1 2.075570 5.789470 498.609985
65 0 1 2.024700 6.369790 499.352997
66 0 1 2.176640 6.983140 500.049988
67 0 1 2.447930 7.377144 500.882019
68 0 1 2.751470 7.510833 501.796997
69 0 1 3.132880 7.684260 502.800995
70 0 1 3.319280 7.594204 503.779999
71 0 1 3.483170 7.723613 504.763000
72 0 1 3.643500 7.743651 505.755005
73 0 1 3.726260 7.815720 506.748993
74 0 1 3.778800 7.827141 507.695984
75 0 1 4.098170 8.201961 508.518982
76 0 1 4.386600 8.290082 509.411987
77 0 1 4.937420 8.301355 510.266998
78 0 1 5.452490 8.363332 511.096985
79 0 1 5.441590 8.191264 512.018005
80 0 1 5.522350 8.143671 512.969971
81 0 1 5.606000 8.067420 513.953003
82 0 1 5.798600 7.756128 514.765015
83 0 1 6.161670 7.359730 515.572998
84 0 1 6.523560 6.985270 516.372009
85 0 1 6.981130 6.638360 517.143005
86 0 1 7.742779 6.364050 517.728027
87 0 1 8.450932 6.199710 518.473022
88 0 1 8.855623 5.941980 519.353027
89 0 1 9.283360 5.810430 520.240967
90 0 1 9.723680 5.633960 521.059998
91 0 1 10.196910 5.587970 521.882019
92 0 1 10.702480 5.641400 522.684998
93 0 1 11.463750 5.876340 523.207031
94 0 1 11.981020 6.166500 523.929016
95 0 1 12.498840 6.245120 524.721985
96 0 1 12.876720 6.074550 525.577026
97 0 1 13.055420 6.042150 526.500977
98 0 1 13.026960 6.236630 527.447998
99 0 1 12.924580 6.491830 528.328003
100 0 1 12.994020 6.564200 529.345825
101 0 1 12.682440 6.782620 530.315002
102 0 1 12.359970 6.664350 531.215576
103 0 1 12.150510 6.885110 532.108032
104 0 1 11.905300 7.022171 533.033691
105 0 1 11.861010 6.858650 533.919983
106 0 1 11.911980 6.449860 534.803223
107 0 1 12.097350 6.373610 535.701477
108 0 1 12.248280 6.192560 536.700806
109 0 1 12.366500 6.213720 537.669067
110 0 1 12.238501 6.184440 538.653809
111 0 1 12.301920 6.256500 539.691406
112 0 1 12.341090 6.538260 540.576904
113 0 1 11.998420 6.933950 541.358826
114 0 1 11.739750 7.163104 542.227112
115 0 1 11.406270 7.273810 543.125305
116 0 1 11.001471 7.400459 543.965820
117 0 1 10.531040 7.228020 544.819275
118 0 1 10.141940 7.524742 545.601379
119 0 1 9.441960 7.564556 546.248108
120 0 1 8.756855 7.659066 546.868286
121 0 1 7.989987 7.799248 547.422485
122 0 1 7.290696 7.991185 548.134277
123 0 1 6.723940 8.083550 548.888916
124 0 1 6.094480 8.380032 549.635132
125 0 1 5.589750 8.663230 550.474792
126 0 1 5.126610 8.669974 551.367493
127 0 1 4.634790 8.385448 552.121399
128 0 1 4.067420 8.405305 552.969604
129 0 1 3.676730 8.503579 553.893921
130 0 1 3.413280 8.607446 554.817993
131 0 1 2.972250 8.909479 555.577820
132 0 1 2.301210 9.298510 556.252075
133 0 1 1.960320 9.710200 557.032104
134 0 1 1.767330 10.065790 557.921997
135 0 1 2.064400 10.110530 558.806702
136 0 1 2.375530 10.256110 559.717712
137 0 1 2.779450 10.571400 560.572083
138 0 1 3.204040 10.586781 561.484924
139 0 1 3.785730 10.735820 562.252197
140 0 1 4.636590 10.735780 562.747070
141 0 1 5.205570 10.596530 563.454224
142 0 1 5.645400 10.232510 564.226196
143 0 1 6.188110 9.730790 564.849731
144 0 1 6.720390 9.442960 565.611084
145 0 1 7.318299 9.364320 566.416504
146 0 1 7.909214 9.189860 567.108032
147 0 1 8.342473 8.843213 567.946899
148 0 1 8.679395 8.399095 568.744324
149 0 1 8.952682 7.997280 569.525269
150 0 1 9.119370 7.571270 570.357727
151 0 1 9.240380 7.289016 571.307617
152 0 1 9.305840 6.952910 572.213501
153 0 1 9.407440 6.707180 573.115173
154 0 1 9.401011 6.364210 574.035889
155 0 1 9.516660 6.037830 574.912109
156 0 1 9.927140 5.840070 575.874512
157 0 1 10.309180 5.645890 576.735474
158 0 1 10.546860 5.647720 577.666870
159 0 1 10.787270 5.756810 578.601501
160 0 1 11.161500 6.054680 579.406006
161 0 1 11.459539 6.158910 580.308472
162 0 1 11.606660 6.282970 581.236389
163 0 1 11.640500 6.794920 582.079468
164 0 1 11.482260 7.409966 582.843689
165 0 1 11.589530 7.771252 583.706909
166 0 1 11.481880 8.198290 584.595520
167 0 1 11.239080 8.887618 585.327576
168 0 1 11.332570 9.536800 586.030029
169 0 1 11.446700 10.026670 586.894775
170 0 1 11.538970 10.555120 587.750488
171 0 1 11.692240 10.934790 588.710999
172 0 1 11.567329 11.171329 589.608032
173 0 1 11.549910 11.348450 590.580078
174 0 1 11.530830 11.495800 591.570679
175 0 1 11.560860 11.619940 592.538879
176 0 1 11.496240 11.924000 593.495178
177 0 1 11.280370 12.154440 594.414673
178 0 1 11.050320 12.551860 595.283875
179 0 1 10.815200 12.797541 596.155823
180 0 1 10.313980 12.959770 597.037292
181 0 1 10.059160 13.086599 597.939819
182 0 1 9.684610 13.330481 598.817383
183 0 1 9.366030 13.571751 599.726929
184 0 1 8.958478 13.666309 600.593811
185 0 1 8.735175 13.653690 601.560913
186 0 1 8.331389 13.511690 602.443298
187 0 1 8.079459 13.581830 603.394409
188 0 1 7.931961 13.424789 604.362000
189 0 1 7.844525 13.519279 605.357178
190 0 1 8.109510 13.827040 606.308899
191 0 1 8.113275 13.692410 607.250488
192 0 1 7.746489 13.626020 608.114624
193 0 1 7.778169 13.322599 609.091309
194 0 1 8.222985 12.985360 609.909485
195 0 1 8.453706 12.670361 610.854797
196 0 1 8.511319 12.024020 611.779175
197 0 1 8.765114 11.506110 612.544983
198 0 1 8.790485 10.939290 613.353271
199 0 1 8.744297 10.283470 614.066284
200 0 1 8.484874 9.832360 614.870911
201 0 1 8.495374 9.316190 615.686707
202 0 1 8.632724 8.920647 616.565308
203 0 1 8.945677 8.624333 617.390686
204 0 1 9.338511 8.350701 618.220581
205 0 1 9.954890 8.255667 618.988098
206 0 1 10.381969 8.324811 619.842651
207 0 1 10.846410 8.252192 620.759033
208 0 1 11.015950 8.307830 621.756409
209 0 1 10.990710 8.463095 622.743835
210 0 1 10.821671 8.639989 623.654724
211 0 1 10.619930 8.731052 624.594788
212 0 1 10.621890 8.686859 625.566406
213 0 1 10.745610 8.576752 626.502441
214 0 1 10.757930 8.238360 627.473572
215 0 1 10.718640 8.004475 628.437805
216 0 1 10.767950 7.814563 629.403564
217 0 1 10.889111 7.956426 630.290955
218 0 1 11.115110 8.160624 631.232117
219 0 1 11.445140 8.170359 632.085388
220 0 1 11.650650 7.924092 632.970215
221 0 1 11.714680 7.908721 633.903503
222 0 1 11.448250 8.068642 634.817383
223 0 1 11.286950 8.083499 635.758911
224 0 1 11.012341 7.847562 636.677002
225 0 1 10.703530 8.046676 637.609314
226 0 1 10.406900 8.043229 638.504700
227 0 1 10.461260 8.233456 639.417725
228 0 1 10.466351 8.308286 640.469727
229 0 1 10.572280 8.194905 641.396912
230 0 1 10.380060 7.885104 642.308777
231 0 1 9.901280 7.552277 643.059875
232 0 1 9.783470 7.161597 644.005127
233 0 1 9.553720 6.866280 644.890625
234 0 1 9.264210 6.743830 645.768982
235 0 1 8.844701 6.708560 646.713989
236 0 1 8.466937 6.538100 647.553223
237 0 1 8.191994 6.287800 648.432190
238 0 1 7.871531 5.953080 649.305115
239 0 1 7.510024 5.503790 650.063782
240 0 1 7.496678 5.374020 651.043701
241 0 1 7.320632 5.449540 651.986206
242 0 1 7.299307 5.501160 653.010681
243 0 1 7.284904 5.798960 653.941284
244 0 1 7.513764 6.189720 654.815491
245 0 1 7.884261 6.407480 655.716980
246 0 1 8.002785 6.512390 656.709473
247 0 1 8.020301 6.473690 657.695618
248 0 1 8.065923 6.243570 658.685181
249 0 1 7.936112 5.994780 659.575317
250 0 1 7.366497 5.887000 660.338196
251 0 1 6.868110 5.384010 660.978516
252 0 1 6.671100 5.119990 661.877686
253 0 1 6.504080 5.041260 662.763428
254 0 1 6.253720 4.846960 663.705017
255 0 1 6.110700 4.831510 664.617615
256 0 1 6.054420 4.794140 665.561707
257 0 1 6.089670 4.618380 666.480774
258 0 1 6.388940 4.474680 667.446594
259 0 1 6.763180 4.448870 668.310974
260 0 1 7.017837 4.104810 669.190613
261 0 1 7.626481 3.755810 669.837769
262 0 1 8.290121 3.609340 670.542419
263 0 1 8.740264 3.616670 671.405090
264 0 1 9.349510 3.619190 672.176208
265 0 1 9.764380 3.631130 673.017517
266 0 1 10.328180 3.934840 673.763977
267 0 1 10.686610 4.240000 674.567993
268 0 1 10.884960 4.713110 675.426392
269 0 1 10.778410 5.199050 676.315613
270 0 1 10.497610 5.517170 677.172974
271 0 1 9.970560 5.958860 677.898010
272 0 1 9.841190 6.607290 678.618286
273 0 1 9.616890 7.088044 679.396301
274 0 1 9.427110 7.893558 679.989319
275 0 1 9.159010 8.534669 680.664001
276 0 1 8.553495 8.916559 681.334717
277 0 1 8.096070 8.988153 682.190918
278 0 1 7.600318 9.060700 682.975830
279 0 1 7.246947 9.299580 683.885315
280 0 1 6.788970 9.504490 684.713379
281 0 1 6.533370 9.712710 685.655823
282 0 1 6.295010 9.909040 686.614685
283 0 1 6.107130 9.988060 687.554932
284 0 1 5.876610 10.241980 688.494507
285 0 1 5.592110 10.684600 689.351624
286 0 1 5.565940 10.841550 690.322632
287 0 1 5.464830 10.804380 691.321594
288 0 1 5.327260 10.824590 692.274170
289 0 1 5.629770 10.989740 693.170105
290 0 1 6.155050 11.145090 693.973694
291 0 1 6.598820 11.333060 694.843628
292 0 1 7.071213 11.569920 695.640808
293 0 1 7.359368 11.600420 696.570984
294 0 1 7.582341 11.651860 697.506714
295 0 1 7.899572 11.592990 698.420593
296 0 1 8.074715 11.742490 699.369507
297 0 1 8.390876 11.889500 700.312805
298 0 1 8.556089 12.275750 701.150574
299 0 1 8.562450 12.826210 701.928101
300 0 1 8.386802 13.241800 702.762878
301 0 1 8.077425 13.415501 703.662415
302 0 1 7.590063 13.391729 704.488770
303 0 1 7.556425 13.599560 705.412109
304 0 1 7.249523 13.289730 706.309204
305 0 1 6.975970 13.281790 707.202515
306 0 1 6.774030 13.483620 708.165527
307 0 1 6.618310 13.514191 709.139099
308 0 1 6.511740 13.633940 710.092529
309 0 1 6.456480 13.581910 711.092896
310 0 1 6.407020 13.491270 712.030029
311 0 1 6.567020 13.631670 712.984009
312 0 1 6.509470 13.634960 713.955078
313 0 1 6.314330 13.470540 714.912292
314 0 1 6.165180 13.417971 715.855469
315 0 1 6.041800 13.187850 716.715393
316 0 1 6.130250 12.632460 717.534180
317 0 1 6.253820 11.919880 718.190796
318 0 1 6.296610 11.466920 719.029480
319 0 1 6.035800 11.270370 719.941284
320 0 1 5.710880 11.168930 720.857666
321 0 1 5.211170 11.014400 721.672485
322 0 1 4.952750 10.789100 722.565979
323 0 1 4.601540 10.315550 723.292725
324 0 1 4.192350 10.465820 724.213379
325 0 1 4.302990 10.439490 725.182373
326 0 1 4.459410 10.802910 726.061279
327 0 1 4.581130 11.211620 726.898682
328 0 1 4.930530 11.410470 727.742676
329 0 1 5.318640 11.388660 728.638977
330 0 1 5.664770 11.466850 729.502014
331 0 1 5.579270 11.131120 730.395996
332 0 1 5.118950 10.692870 731.115967
333 0 1 4.833280 10.309710 731.911987
334 0 1 4.789960 10.129460 732.882019
335 0 1 4.901180 9.806090 733.759033
336 0 1 5.067840 9.587570 734.705017
337 0 1 5.285550 9.372330 735.648987
338 0 1 5.812960 9.136971 736.455017
339 0 1 6.320570 9.023350 737.281982
340 0 1 6.722600 8.916221 738.070984
341 0 1 6.726250 8.884109 739.039978
342 0 1 7.058379 9.041930 740.007019
343 0 1 7.043735 9.445780 740.890015
344 0 1 7.042106 10.189850 741.516968
345 0 1 7.411857 10.607810 742.336975
346 0 1 7.732447 10.887090 743.189026
347 0 1 8.135068 11.059710 744.009033
348 0 1 8.535647 11.200500 744.875000
349 0 1 8.721432 11.266730 745.792969
350 0 1 8.693691 11.311010 746.757019
351 0 1 8.516020 11.406470 747.739990
352 0 1 8.667044 11.516680 748.754028
353 0 1 8.691145 11.376820 749.729004
354 0 1 8.697313 10.952380 750.594971
355 0 1 8.641738 10.439790 751.391968
356 0 1 8.304837 10.016760 752.167969
357 0 1 8.210142 9.725030 753.114990
358 0 1 8.230577 9.433210 754.080017
359 0 1 8.214981 9.311700 754.955994
360 0 1 8.265444 8.977462 755.830994
361 0 1 8.514409 8.702045 756.712036
362 0 1 8.747320 8.221574 757.471008
363 0 1 9.178070 7.993129 758.301025
364 0 1 9.496750 7.982420 759.233032
365 0 1 9.801980 7.975999 760.156006
366 0 1 9.800410 7.934767 761.143982
367 0 1 9.705890 7.813173 762.039978
368 0 1 9.455280 7.469575 762.890015
369 0 1 9.172480 7.091287 763.765991
370 0 1 8.843459 7.007109 764.655029
371 0 1 8.578838 6.929770 765.552002
372 0 1 8.403009 6.820640 766.485962
373 0 1 8.146258 6.903970 767.437012
374 0 1 7.906418 6.887440 768.360962
375 0 1 7.475230 6.760910 769.174988
376 0 1 7.041156 6.662580 770.011963
377 0 1 6.616520 6.764580 770.929016
378 0 1 6.296610 6.855200 771.841980
379 0 1 6.137940 6.901870 772.809998
380 0 1 6.145920 7.114127 773.700012
381 0 1 6.234600 7.054974 774.640015
382 0 1 6.278490 7.520874 775.485962
383 0 1 6.326790 8.043286 776.364014
384 0 1 6.571960 8.087417 777.247986
385 0 1 6.853970 8.320068 778.148010
386 0 1 7.123641 8.498667 779.046997
387 0 1 7.400966 8.806974 779.968994
388 0 1 7.371832 9.413651 780.807007
389 0 1 7.399631 9.761260 781.671997
390 0 1 7.428127 10.214220 782.481018
391 0 1 7.425762 10.647739 783.356995
392 0 1 7.640491 10.889980 784.234985
393 0 1 7.737659 10.938770 785.184998
394 0 1 7.935226 11.018030 786.161987
395 0 1 8.206123 11.046061 787.141968
396 0 1 8.605023 11.013010 788.009033
397 0 1 9.109859 11.088409 788.822998
398 0 1 9.735720 11.349760 789.507019
399 0 1 10.206330 11.385950 790.403015
400 0 1 10.420790 11.297940 791.356995
401 0 1 10.853100 10.970240 792.210022
402 0 1 11.157710 10.651770 793.070984
403 0 1 11.179860 10.195020 793.908020
404 0 1 11.234460 9.921990 794.841980
405 0 1 11.039420 9.411450 795.624023
406 0 1 11.026751 9.172300 796.552002
407 0 1 11.061160 8.988413 797.478027
408 0 1 10.933740 8.661271 798.396973
409 0 1 11.137720 8.379975 799.302979
410 0 1 11.232719 8.073835 800.249023
411 0 1 11.248770 7.770350 801.101990
412 0 1 10.968400 7.692618 801.984985
413 0 1 10.406080 7.616835 802.849976
414 0 1 9.804320 7.525841 803.594971
415 0 1 9.444400 7.579598 804.544983
416 0 1 9.310850 7.847193 805.453979
417 0 1 9.231550 7.994086 806.438965
418 0 1 9.089820 8.257328 807.346985
419 0 1 9.069640 8.455723 808.291992
420 0 1 9.178250 8.403448 809.214966
421 0 1 9.286210 8.454046 810.166016
422 0 1 9.346889 8.364836 811.120972
423 0 1 9.524050 8.278479 812.080994
424 0 1 9.667620 8.384799 813.049988
425 0 1 9.795310 8.403459 814.101990
426 0 1 9.813840 8.729661 815.023010
427 0 1 9.880520 9.071230 815.978027
428 0 1 9.841311 9.174430 817.010010
429 0 1 10.036020 9.381030 817.914978
430 0 1 10.412730 9.633890 818.869995
431 0 1 10.802299 9.837260 819.719971
432 0 1 11.396120 9.848250 820.497986
433 0 1 12.092550 9.514880 821.119019
434 0 1 12.351009 9.186190 821.994019
435 0 1 12.266390 8.850465 822.882019
436 0 1 12.071301 8.732056 823.799988
437 0 1 12.205070 8.677298 824.832031
438 0 1 12.098101 8.525463 825.839966
439 0 1 12.118959 8.772825 826.802002
440 0 1 12.258710 8.861795 827.729004
441 0 1 12.541969 9.169130 828.601990
442 0 1 12.860200 9.387490 829.502991
443 0 1 13.001320 9.628620 830.499023
444 0 1 12.959431 9.828320 831.495972
445 0 1 12.777690 9.965040 832.405029
446 0 1 12.859790 10.253590 833.328003
447 0 1 12.784460 10.528660 834.231018
448 0 1 12.560720 10.825780 835.169006
449 0 1 12.454250 11.092970 836.099976
450 0 1 12.388720 11.616050 836.981018
451 0 1 12.235320 12.192940 837.738037
452 0 1 11.807370 12.898630 838.301025
453 0 1 11.235210 13.579781 838.729004
454 0 1 10.619230 13.891460 839.416992
455 0 1 9.919920 13.996180 840.057007
456 0 1 8.886512 14.100330 840.341980
457 0 1 7.937666 14.038150 840.205017
458 0 1 7.203321 13.930920 839.610962
459 0 1 6.380820 13.658310 839.309021
460 0 1 5.527870 13.308940 839.091980
461 0 1 5.042920 12.636470 838.562012
462 0 1 4.499760 12.202950 837.895020
463 0 1 4.231240 11.687880 837.075989
464 0 1 4.099560 11.210310 836.210999
465 0 1 4.023240 10.918961 835.261963
466 0 1 3.872910 10.711580 834.289978
467 0 1 3.849270 10.270840 833.410034
468 0 1 3.962910 10.074880 832.429993
469 0 1 4.120820 9.633500 831.497986
470 0 1 4.238780 9.315720 830.627991
471 0 1 4.557380 8.933630 829.716980
472 0 1 5.002100 8.762482 828.898987
473 0 1 5.359970 8.627072 827.990967
474 0 1 5.700980 8.080735 827.223999
475 0 1 6.329580 7.963156 826.489990
476 0 1 6.955060 7.967914 825.760986
477 0 1 7.377232 8.281055 824.997009
478 0 1 7.864291 8.508954 824.187988
479 0 1 8.134116 8.754335 823.273010
480 0 1 8.046762 8.927502 822.325012
481 0 1 7.882743 9.301140 821.497009
482 0 1 7.855433 9.742510 820.640991
483 0 1 7.716020 10.043930 819.742004
484 0 1 7.730580 10.079940 818.716003
485 0 1 7.461453 10.040290 817.802002
486 0 1 7.521810 9.558730 816.964966
487 0 1 7.251691 9.023010 816.145996
488 0 1 6.990910 8.865452 815.276978
489 0 1 6.601400 8.635522 814.380981
490 0 1 6.465120 8.760366 813.375977
491 0 1 6.453830 8.780826 812.372009
492 0 1 6.429660 9.041190 811.434998
493 0 1 6.417910 9.396880 810.489014
494 0 1 6.428090 9.669630 809.580017
495 0 1 6.605170 9.766550 808.658997
496 0 1 6.582070 9.749560 807.664978
497 0 1 6.667840 9.840760 806.671997
498 0 1 6.896700 10.218510 805.750977
499 0 1 7.065329 10.556010 804.815002
500 0 1 7.228050 10.588630 803.864014
501 0 1 7.187549 10.676210 802.801025
502 0 1 7.056645 10.756650 801.872986
503 0 1 6.813550 10.813590 800.971008
504 0 1 6.751000 10.810920 800.056030
505 0 1 6.709610 11.047500 799.122986
506 0 1 6.900280 11.211660 798.182983
507 0 1 7.006702 11.580070 797.338013
508 0 1 6.900560 11.914870 796.463013
509 0 1 6.611200 12.020250 795.552002
510 0 1 6.596040 11.927940 794.563965
511 0 1 6.445150 11.742760 793.604980
512 0 1 6.555770 11.620940 792.664001
513 0 1 6.759640 11.528300 791.721008
514 0 1 6.912890 11.395530 790.766968
515 0 1 7.112696 11.044090 789.891968
516 0 1 7.214665 10.722730 788.979980
517 0 1 7.358589 10.470420 787.981995
518 0 1 7.462461 10.241820 787.057983
519 0 1 7.573733 9.929110 786.122009
520 0 1 7.740166 9.633300 785.174011
521 0 1 7.396969 9.456260 784.291016
522 0 1 6.914980 9.487650 783.466980
523 0 1 6.217790 9.535870 782.731995
524 0 1 5.516170 9.589810 782.096008
525 0 1 4.969590 10.048680 781.478027
526 0 1 4.831940 10.279430 780.552002
527 0 1 4.840540 10.194530 779.585022
528 0 1 4.796220 10.070100 778.625977
529 0 1 4.663620 10.163400 777.599976
530 0 1 4.572060 10.001270 776.617981
531 0 1 4.646220 10.207590 775.739990
532 0 1 4.826530 10.383260 774.775024
533 0 1 4.901390 10.245060 773.846008
534 0 1 5.222680 10.094151 772.945984
535 0 1 5.662470 9.578120 772.156006
536 0 1 5.948370 9.359030 771.226013
537 0 1 6.234260 9.379050 770.322998
538 0 1 6.356080 9.297490 769.315979
539 0 1 6.261660 9.166590 768.386963
540 0 1 6.178880 8.757973 767.494995
541 0 1 6.248040 8.182152 766.702026
542 0 1 5.962700 7.662841 765.960999
543 0 1 5.791340 7.290969 765.072998
544 0 1 5.614740 7.263929 764.119995
545 0 1 5.179740 7.262378 763.234009
546 0 1 4.816000 7.050736 762.364014
547 0 1 4.802490 6.591080 761.557983
548 0 1 4.907970 5.988760 760.796021
549 0 1 4.969200 5.369270 760.007996
550 0 1 4.769850 5.086120 759.065002
551 0 1 4.817730 5.019530 758.153992
552 0 1 4.857510 4.705380 757.257996
553 0 1 5.126520 4.299940 756.390015
554 0 1 5.527380 3.929190 755.596008
555 0 1 5.804020 3.599890 754.726990
556 0 1 5.906320 3.174210 753.869019
557 0 1 6.169350 3.067670 752.924011
558 0 1 6.255230 3.122980 751.973022
559 0 1 6.085570 3.107730 751.033997
560 0 1 5.929880 3.359890 750.146973
561 0 1 5.844780 3.615600 749.213013
562 0 1 5.897830 3.984240 748.296021
563 0 1 6.034670 4.470880 747.432007
564 0 1 6.178480 5.206450 746.781006
565 0 1 6.190980 6.092190 746.429016
566 0 1 5.923960 7.037884 746.119995
567 0 1 5.675890 8.002844 746.285034
568 0 1 5.503370 8.893433 746.091980
569 0 1 5.520650 9.821390 745.781982
570 0 1 5.642060 10.740860 745.414978
571 0 1 5.864670 11.524950 744.882996
572 0 1 6.371550 12.127600 744.301025
573 0 1 6.913900 12.713160 743.731018
574 0 1 7.563233 13.062770 743.270020
575 0 1 8.038357 13.414010 742.510986
576 0 1 8.270012 13.517590 741.609985
577 0 1 8.841902 13.339510 740.781006
578 0 1 9.436540 12.812580 740.203979
579 0 1 10.010540 12.394500 739.528992
580 0 1 10.325300 11.830339 738.810974
581 0 1 10.710390 11.067141 738.369995
582 0 1 11.182190 10.638030 737.713013
583 0 1 11.672220 10.238820 736.940002
584 0 1 11.994200 10.001990 736.112000
585 0 1 12.306700 10.020730 735.210022
586 0 1 12.670450 10.126180 734.317993
587 0 1 13.176920 10.016830 733.549988
588 0 1 13.566730 9.714581 732.731018
589 0 1 13.739620 9.377050 731.880005
590 0 1 13.717140 8.915162 731.031982
591 0 1 13.734039 8.407901 730.182983
592 0 1 13.898860 7.880093 729.432007
593 0 1 13.984270 7.587053 728.469299
594 0 1 14.148510 7.641099 727.568481
595 0 1 14.033990 7.421521 726.608215
596 0 1 14.341370 7.527472 725.746704
597 0 1 14.545130 7.582135 724.775391
598 0 1 14.574039 7.636734 723.796021
599 0 1 14.511900 7.332725 722.879822
600 0 1 14.358300 7.035888 721.980225
601 0 1 14.229520 6.673950 721.059692
602 0 1 14.066360 6.512690 720.159119
603 0 1 14.048090 6.331700 719.211121
604 0 1 13.851920 6.008260 718.356812
605 0 1 13.650391 5.578070 717.471680
606 0 1 13.539650 5.272290 716.536499
607 0 1 13.139561 5.040560 715.723389
608 0 1 12.807500 5.265400 714.869080
609 0 1 12.590150 5.664850 713.992676
610 0 1 12.298861 6.063800 713.195312
611 0 1 11.804040 6.680120 712.629822
612 0 1 11.475540 6.766010 711.770691
613 0 1 11.354160 6.857080 710.818787
614 0 1 11.613200 7.075988 709.945190
615 0 1 11.971149 7.480829 709.189880
616 0 1 12.153590 7.999344 708.340881
617 0 1 12.287160 8.685023 707.618530
618 0 1 12.584129 8.985249 706.792725
619 0 1 12.562370 9.154980 705.868591
620 0 1 12.932051 9.178300 704.976501
621 0 1 12.993080 9.214990 704.054688
622 0 1 13.201370 9.399510 703.114685
623 0 1 13.387091 9.733430 702.205200
624 0 1 13.479130 9.948430 701.252380
625 0 1 13.516820 9.905420 700.348633
626 0 1 13.457621 9.710890 699.377808
627 0 1 13.343491 9.372370 698.449585
628 0 1 13.053329 8.999639 697.593201
629 0 1 12.637859 8.564985 696.895325
630 0 1 12.302530 8.130528 696.081116
631 0 1 12.158091 7.559774 695.323608
632 0 1 12.073650 7.147440 694.483704
633 0 1 11.695830 6.868110 693.685303
634 0 1 11.471800 6.677320 692.779175
635 0 1 11.145160 6.318490 691.914673
636 0 1 10.750050 5.758980 691.248413
637 0 1 10.158310 5.519330 690.459229
638 0 1 9.837220 5.446990 689.544617
639 0 1 9.404250 5.430730 688.736511
640 0 1 8.938693 5.066440 687.941284
641 0 1 8.624269 4.904980 687.051819
642 0 1 8.228927 4.967690 686.194824
643 0 1 7.663622 4.990930 685.344116
644 0 1 7.176174 4.779560 684.540100
645 0 1 6.569790 4.902700 683.787476
646 0 1 6.055110 5.087160 682.998108
647 0 1 5.485800 5.227370 682.296326
648 0 1 5.168480 5.648000 681.521790
649 0 1 4.817690 5.964180 680.643188
650 0 1 4.356340 6.390290 679.947632
651 0 1 3.870700 6.837550 679.294983
652 0 1 3.750870 7.460445 678.559082
653 0 1 3.363210 8.054588 677.916382
654 0 1 3.028480 8.630703 677.259521
655 0 1 2.964560 9.358020 676.592407
656 0 1 2.785360 9.919300 675.772278
657 0 1 2.451870 10.401590 674.969299
658 0 1 2.312980 10.778960 674.119202
659 0 1 2.375040 10.732630 673.158875
660 0 1 2.287860 10.576730 672.240173
661 0 1 2.161950 10.431970 671.285095
662 0 1 2.061840 10.021610 670.422485
663 0 1 2.106900 9.757410 669.491699
664 0 1 1.983000 9.392160 668.651978
665 0 1 1.808500 8.884126 667.870178
666 0 1 1.555420 8.764050 666.962219
667 0 1 1.637180 8.423303 666.070801
668 0 1 1.853710 8.184581 665.191589
669 0 1 2.330910 8.171404 664.336792
670 0 1 2.514560 7.843964 663.381287
671 0 1 2.611230 7.683627 662.444580
672 0 1 2.732900 7.603335 661.504211
673 0 1 3.066480 7.350498 660.642883
674 0 1 3.280640 7.200327 659.720703
675 0 1 3.595710 7.240144 658.815125
676 0 1 3.980130 7.133175 657.944092
677 0 1 4.493510 7.225423 657.120300
678 0 1 4.966200 7.171133 656.257996
679 0 1 5.495420 7.197121 655.442505
680 0 1 5.920220 7.220926 654.578796
681 0 1 6.549470 7.507952 653.909729
682 0 1 7.219674 7.595526 653.170898
683 0 1 7.790568 7.524889 652.450806
684 0 1 8.231178 7.682212 651.627319
685 0 1 8.780690 7.977052 650.928894
686 0 1 9.080530 8.402708 650.116699
687 0 1 9.369480 8.881814 649.277283
688 0 1 9.924870 9.361200 648.610779
689 0 1 10.009541 9.730480 647.787292
690 0 1 10.052100 10.289930 646.994019
691 0 1 9.965950 10.845881 646.203491
692 0 1 10.142460 11.366199 645.275696
693 0 1 10.229980 11.663800 644.381226
694 0 1 10.212540 12.052530 643.471191
695 0 1 10.346570 12.311621 642.566223
696 0 1 10.599400 12.580521 641.674377
697 0 1 10.706400 12.937180 640.787170
698 0 1 10.742620 13.060150 639.807922
699 0 1 10.939440 13.380040 638.924805
700 0 1 11.189010 13.544880 638.051697
701 0 1 11.445820 13.820450 637.134583
702 0 1 11.317500 13.798201 636.154480
703 0 1 11.579590 13.599450 635.242676
704 0 1 11.750550 13.315170 634.341492
705 0 1 11.609020 13.194340 633.416504
706 0 1 11.872450 12.857269 632.559082
707 0 1 12.031940 12.538810 631.635681
708 0 1 12.400579 12.311660 630.754211
709 0 1 12.566310 12.019690 629.882202
710 0 1 12.497601 11.465890 629.097717
711 0 1 12.584550 10.800810 628.379456
712 0 1 12.458250 10.322309 627.462524
713 0 1 12.461340 9.959130 626.577576
714 0 1 12.697550 9.582450 625.675720
715 0 1 12.881590 9.411520 624.799866
716 0 1 12.913879 9.270570 623.863159
717 0 1 13.146009 9.412980 622.910950
718 0 1 13.517160 9.459240 622.052551
719 0 1 13.831631 9.450280 621.114319
720 0 1 14.140570 9.367570 620.184509
721 0 1 14.366199 9.405510 619.236877
722 0 1 14.099979 9.456750 618.212891
723 0 1 13.797880 9.415680 617.318481
724 0 1 13.573660 9.298440 616.431824
725 0 1 13.495200 9.308331 615.439697
726 0 1 13.477810 8.952042 614.549683
727 0 1 13.424330 8.982162 613.561218
728 0 1 13.324950 8.932638 612.595215
729 0 1 13.028339 9.039970 611.635986
730 0 1 12.633890 8.886075 610.832031
731 0 1 12.090420 8.386111 610.192078
732 0 1 11.273130 7.961375 609.903320
733 0 1 10.409930 7.466686 609.784607
734 0 1 9.826540 6.846080 609.438904
735 0 1 9.216450 6.478780 608.833191
736 0 1 8.590892 6.040690 608.236023
737 0 1 7.800456 5.670620 607.739685
738 0 1 7.250159 5.496860 606.895691
739 0 1 6.793620 5.501000 606.083618
740 0 1 6.439550 5.714390 605.253723
741 0 1 6.158090 6.094970 604.278381
742 0 1 5.801080 6.381430 603.495483
743 0 1 5.500960 6.334350 602.535095
744 0 1 5.228230 6.284800 601.559082
745 0 1 4.937640 6.224320 600.633423
746 0 1 4.742660 6.172440 599.724304
747 0 1 4.586780 6.155790 598.784485
748 0 1 4.416900 6.640820 597.959229
749 0 1 4.138530 6.812590 597.042786
750 0 1 3.877240 7.012042 596.107483
751 0 1 3.552250 6.799860 595.223328
752 0 1 3.275550 6.616710 594.306213
753 0 1 3.285480 6.471400 593.369324
754 0 1 3.371980 6.269490 592.431030
755 0 1 3.820100 6.232750 591.587524
756 0 1 4.295750 6.308500 590.796326
757 0 1 4.994570 6.112630 590.151184
758 0 1 5.413210 5.799940 589.273682
759 0 1 5.435910 5.554330 588.318298
760 0 1 5.342080 5.048790 587.528687
761 0 1 5.458980 4.797150 586.615601
762 0 1 5.711800 4.631940 585.668884
763 0 1 6.100610 4.565730 584.819275
764 0 1 6.615630 4.515030 584.070190
765 0 1 6.915080 5.052570 583.284485
766 0 1 7.194479 5.910470 582.838074
767 0 1 7.155841 6.771810 582.409790
768 0 1 6.986590 7.564139 581.904480
769 0 1 6.810590 8.406639 581.515076
770 0 1 6.412440 9.107320 580.979675
771 0 1 6.225550 9.843580 580.443604
772 0 1 6.022890 10.464350 579.716187
773 0 1 5.966490 11.219990 579.085571
774 0 1 6.196460 11.822690 578.376221
775 0 1 6.113570 12.672410 577.772095
776 0 1 6.037100 13.344740 577.108032
777 0 1 6.053350 13.957220 576.422119
778 0 1 5.932480 14.180890 575.478516
779 0 1 5.603400 14.136789 574.583618
780 0 1 5.258580 13.974210 573.672607
781 0 1 5.047000 13.654940 572.772522
782 0 1 4.933520 13.253490 571.984619
783 0 1 4.926990 12.752640 571.232605
784 0 1 4.970490 12.067390 570.438477
785 0 1 5.187020 11.438250 569.769409
786 0 1 5.071420 10.823220 569.060974
787 0 1 5.012790 10.013250 568.442078
788 0 1 4.926600 9.172910 567.906921
789 0 1 4.714210 8.397068 567.416687
790 0 1 4.625230 7.521663 566.934509