LAMMPS data file via MDAnalysis

        1000  atoms
        1000  bonds
        1000  angles
           0  dihedrals
           0  impropers

           1  atom types
           1  bond types
           1  angle types
           0  dihedral types
           0  improper types

0.000000 16.000000 xlo xhi
0.000000 16.000000 ylo yhi
0.000000 1257.000000 zlo zhi


Masses

1 1.000000

Atoms

1 0 1 11.713610 6.015530 457.971008
2 0 1 11.358610 5.491680 458.669983
3 0 1 11.146830 5.063910 459.524994
4 0 1 10.852580 4.493750 460.315979
5 0 1 10.782610 4.171680 461.164978
6 0 1 10.802560 3.906350 462.067017
7 0 1 10.890630 3.652590 462.970001
8 0 1 10.914630 3.395860 463.906982
9 0 1 11.020380 3.312300 464.828003
10 0 1 10.990970 3.396950 465.766998
11 0 1 10.607960 3.436810 466.664001
12 0 1 10.207180 3.651620 467.507996
13 0 1 9.637700 3.768510 468.337006
14 0 1 9.216510 4.069220 469.114990
15 0 1 8.832958 4.367820 469.947998
16 0 1 8.636701 4.777760 470.888000
17 0 1 9.002330 4.803020 471.792999
18 0 1 9.336800 5.152050 472.664001
19 0 1 9.451180 5.456000 473.588989
20 0 1 9.361930 5.553220 474.578003
21 0 1 9.450171 5.543640 475.528015
22 0 1 9.656250 5.498090 476.457001
23 0 1 9.838540 5.425290 477.471985
24 0 1 10.111720 5.172090 478.320007
25 0 1 10.413240 4.924480 479.197021
26 0 1 10.429410 4.657200 480.093018
27 0 1 10.388820 4.499080 481.085999
28 0 1 10.297000 4.255770 482.070984
29 0 1 9.947080 4.310670 483.003998
30 0 1 9.695760 4.309870 483.971008
31 0 1 9.481090 4.593440 484.914001
32 0 1 9.478390 4.907430 485.901001
33 0 1 9.772620 5.516650 486.557983
34 0 1 10.080750 6.233080 487.078003
35 0 1 10.482450 6.969800 487.559998
36 0 1 10.984970 7.466342 488.200989
37 0 1 11.530320 7.976779 488.774994
38 0 1 11.902030 8.750226 489.309998
39 0 1 12.234240 9.417740 489.867981
40 0 1 12.374980 9.936410 490.734985
41 0 1 12.338369 10.442150 491.591003
42 0 1 12.273560 10.857430 492.483002
43 0 1 12.241489 11.306430 493.330994
44 0 1 12.381001 11.587540 494.281006
45 0 1 12.733120 11.324570 495.190002
46 0 1 13.085330 11.151730 496.072998
47 0 1 13.298180 10.839809 496.998993
48 0 1 13.540210 10.800340 497.927002
49 0 1 13.490900 11.107420 498.813995
50 0 1 13.362410 11.401330 499.686005
51 0 1 12.937389 11.644030 500.502991
52 0 1 12.448120 11.982550 501.255981
53 0 1 11.939120 11.717010 502.005005
54 0 1 11.412410 11.461140 502.726990
55 0 1 11.471920 11.159950 503.657990
56 0 1 11.239700 11.166320 504.614014
57 0 1 10.931850 11.295310 505.531982
58 0 1 10.712990 11.590270 506.531006
59 0 1 10.431720 11.852290 507.423004
60 0 1 10.325280 11.993629 508.393982
61 0 1 10.310230 12.028920 509.345001
62 0 1 10.329670 11.856280 510.287994
63 0 1 10.304150 11.752430 511.321991
64 0 1 10.355840 11.847340 512.286987
65 0 1 10.096210 12.005310 513.224976
66 0 1 9.484020 11.660200 513.895996
67 0 1 8.944954 11.174120 514.457031
68 0 1 8.230745 10.785770 514.966980
69 0 1 7.650922 10.510120 515.679993
70 0 1 7.197293 10.338779 516.507996
71 0 1 6.502310 10.373260 517.207031
72 0 1 5.874750 10.570130 517.888977
73 0 1 5.341350 10.635420 518.695007
74 0 1 4.986760 10.462330 519.703979
75 0 1 4.762170 10.327390 520.627991
76 0 1 4.517790 10.113900 521.612976
77 0 1 4.366800 9.910520 522.557007
78 0 1 4.269940 9.688169 523.466003
79 0 1 4.281510 9.072340 524.185974
80 0 1 4.237910 8.128784 524.474976
81 0 1 4.202050 7.259037 524.780029
82 0 1 4.206250 6.335310 525.182007
83 0 1 4.189270 5.503900 525.780029
84 0 1 4.220210 4.819420 526.455017
85 0 1 4.241700 4.393250 527.317993
86 0 1 4.133520 3.985520 528.189026
87 0 1 4.242490 3.733500 529.129700
88 0 1 4.536210 3.234420 529.906616
89 0 1 4.842190 2.623590 530.627930
90 0 1 4.927210 2.357560 531.544495
91 0 1 5.136640 2.311120 532.516785
92 0 1 5.546750 2.071280 533.326111
93 0 1 5.862020 2.050040 534.243896
94 0 1 6.297270 2.377500 535.036377
95 0 1 6.707410 2.728580 535.861084
96 0 1 7.229701 3.067130 536.697998
97 0 1 7.736397 3.539310 537.322815
98 0 1 8.098936 4.173700 537.919189
99 0 1 8.022350 4.645840 538.737183
100 0 1 8.067307 5.152390 539.541382
101 0 1 7.727184 5.533210 540.307800
102 0 1 7.559096 5.715780 541.310669
103 0 1 7.294724 5.572010 542.196106
104 0 1 7.001821 5.611530 543.035889
105 0 1 6.672170 5.879410 543.846191
106 0 1 6.254200 6.032940 544.723206
107 0 1 5.929770 5.918650 545.645325
108 0 1 5.678520 5.904850 546.575684
109 0 1 5.542500 5.984230 547.501831
110 0 1 5.735310 6.017570 548.538086
111 0 1 5.680900 5.754940 549.571167
112 0 1 5.674520 5.416060 550.530273
113 0 1 5.509420 5.128440 551.401733
114 0 1 5.330380 4.780270 552.282104
115 0 1 5.141010 4.713660 553.202576
116 0 1 4.824710 4.690010 554.143494
117 0 1 4.574360 4.699850 555.099609
118 0 1 4.376320 5.123930 555.977783
119 0 1 4.085950 5.486670 556.818604
120 0 1 3.849160 6.071120 557.548279
121 0 1 3.780970 6.652090 558.276611
122 0 1 3.662340 7.084705 559.201721
123 0 1 3.439880 7.544806 559.995728
124 0 1 3.425630 7.836545 560.943420
125 0 1 3.224090 8.086036 561.837769
126 0 1 3.277060 8.217203 562.806396
127 0 1 3.278170 8.635494 563.727905
128 0 1 3.519280 8.855369 564.689209
129 0 1 3.574890 8.876827 565.646484
130 0 1 3.744510 8.786139 566.570801
131 0 1 3.933210 8.928998 567.473328
132 0 1 3.876000 9.060431 568.411926
133 0 1 3.797620 9.380920 569.354980
134 0 1 3.839980 9.424670 570.352783
135 0 1 4.190250 9.477100 571.258789
136 0 1 4.383470 9.170440 572.178223
137 0 1 4.527850 8.899229 573.142822
138 0 1 4.306590 8.596189 574.028503
139 0 1 4.237150 8.271410 574.907593
140 0 1 3.894590 7.963785 575.729614
141 0 1 3.361140 7.778841 576.473022
142 0 1 3.100200 7.787131 577.377197
143 0 1 3.074550 7.554689 578.307678
144 0 1 3.339880 7.264145 579.164185
145 0 1 3.747740 6.915980 579.951599
146 0 1 4.290960 6.802680 580.810913
147 0 1 4.830880 6.908390 581.669495
148 0 1 5.224830 7.159927 582.484985
149 0 1 5.429490 7.162230 583.431274
150 0 1 6.026310 7.048540 584.232178
151 0 1 6.252700 6.716540 585.148926
152 0 1 6.481550 6.356040 585.991028
153 0 1 6.418730 6.113840 586.896118
154 0 1 6.409840 5.912820 587.857788
155 0 1 6.512650 5.786240 588.756470
156 0 1 6.582040 5.501470 589.680298
157 0 1 6.797350 5.258020 590.580505
158 0 1 7.151059 5.339570 591.583374
159 0 1 7.545082 5.612510 592.438599
160 0 1 7.968775 5.500690 593.334290
161 0 1 8.380129 5.657680 594.230408
162 0 1 8.637434 5.782100 595.136230
163 0 1 8.636445 5.947260 596.035217
164 0 1 8.711562 6.416880 596.938599
165 0 1 9.255600 6.713510 597.699097
166 0 1 9.697990 6.907710 598.579407
167 0 1 9.874920 6.843060 599.505310
168 0 1 9.988200 6.884370 600.464722
169 0 1 9.973790 6.834950 601.403320
170 0 1 10.020170 6.786250 602.414490
171 0 1 9.910950 7.012069 603.346680
172 0 1 9.810800 7.333682 604.242615
173 0 1 9.635100 7.602457 605.105713
174 0 1 9.296470 7.937259 605.949097
175 0 1 8.919145 8.182626 606.796021
176 0 1 8.679013 8.473735 607.656372
177 0 1 8.201141 8.732963 608.500977
178 0 1 7.651620 8.916527 609.360718
179 0 1 7.317739 8.929428 610.207031
180 0 1 7.087233 8.714236 611.103699
181 0 1 7.209516 8.371795 611.982422
182 0 1 7.383971 8.109745 612.900879
183 0 1 7.588915 8.001996 613.824707
184 0 1 7.872402 8.298669 614.644287
185 0 1 7.942217 8.435966 615.620483
186 0 1 7.894672 8.556123 616.597717
187 0 1 8.214303 8.674175 617.530090
188 0 1 8.662751 8.630233 618.366211
189 0 1 8.858364 8.733849 619.303833
190 0 1 8.826656 8.669760 620.202454
191 0 1 8.946870 8.604564 621.141846
192 0 1 8.517878 8.421495 621.994263
193 0 1 8.124224 8.067084 622.767151
194 0 1 7.865786 8.094647 623.716553
195 0 1 7.802302 8.432825 624.645630
196 0 1 7.644318 8.918929 625.470764
197 0 1 7.714075 9.444670 626.306519
198 0 1 7.485082 9.843120 627.113159
199 0 1 7.274009 10.084140 628.088806
200 0 1 7.216662 10.148930 629.027771
201 0 1 7.315791 10.016300 629.950256
202 0 1 7.289069 9.834300 630.895386
203 0 1 7.486779 9.718460 631.839355
204 0 1 8.012070 9.664721 632.686768
205 0 1 8.535523 9.390050 633.421448
206 0 1 8.701304 9.258790 634.374023
207 0 1 8.960046 9.272300 635.387024
208 0 1 8.937367 9.141120 636.335876
209 0 1 8.847914 8.975251 637.246094
210 0 1 8.727761 9.139500 638.207764
211 0 1 8.679662 9.166740 639.120789
212 0 1 8.546143 9.068290 640.062195
213 0 1 8.443906 8.759279 640.981628
214 0 1 8.358706 8.631401 641.893372
215 0 1 7.975834 8.686604 642.762695
216 0 1 7.501494 8.873959 643.585571
217 0 1 7.092361 8.889195 644.419678
218 0 1 6.561380 8.859759 645.200012
219 0 1 6.073980 8.561251 646.006897
220 0 1 5.331730 8.452521 646.689880
221 0 1 4.873920 8.431449 647.536011
222 0 1 4.347660 8.460982 648.346313
223 0 1 3.916310 8.550172 649.227600
224 0 1 3.259560 8.334572 649.971069
225 0 1 2.857050 8.370796 650.915222
226 0 1 2.451160 8.294032 651.762512
227 0 1 2.413230 8.260246 652.724915
228 0 1 2.299830 8.242865 653.716431
229 0 1 2.266410 8.548745 654.696594
230 0 1 2.728470 8.732242 655.522827
231 0 1 3.140050 8.548314 656.297607
232 0 1 3.451610 8.470320 657.215393
233 0 1 3.542250 8.563823 658.198975
234 0 1 3.602710 8.837284 659.154785
235 0 1 3.650890 9.326990 660.000916
236 0 1 3.762800 9.545360 661.009888
237 0 1 3.808260 9.511760 661.947205
238 0 1 3.751940 9.808280 662.854187
239 0 1 3.892650 9.944430 663.844971
240 0 1 4.000350 10.054590 664.839111
241 0 1 3.898970 10.016230 665.806091
242 0 1 4.068250 9.902770 666.762512
243 0 1 4.058670 9.906100 667.835876
244 0 1 4.082960 9.811340 668.756897
245 0 1 3.928260 9.727010 669.768982
246 0 1 3.648300 9.754790 670.715393
247 0 1 3.636650 9.692600 671.665100
248 0 1 3.673130 9.681870 672.645813
249 0 1 3.954560 9.848320 673.576416
250 0 1 4.366630 9.995650 674.387817
251 0 1 4.764680 9.996660 675.235413
252 0 1 4.976160 9.932650 676.145386
253 0 1 5.532920 9.738300 676.936523
254 0 1 5.999220 9.349280 677.676392
255 0 1 6.687920 9.300591 678.342590
256 0 1 7.239811 8.958000 679.044983
257 0 1 7.690082 8.509373 679.762390
258 0 1 8.265341 8.206630 680.465393
259 0 1 8.755111 7.878429 681.236206
260 0 1 9.288910 8.129648 682.071899
261 0 1 9.826110 8.470130 682.812012
262 0 1 10.449880 8.665819 683.515381
263 0 1 10.762370 8.818501 684.387207
264 0 1 10.929870 8.956854 685.367615
265 0 1 10.810590 9.098490 686.303101
266 0 1 10.662149 8.873337 687.210205
267 0 1 10.460051 8.618330 688.153015
268 0 1 10.448740 8.657874 689.129517
269 0 1 10.422650 8.361771 690.018005
270 0 1 9.982290 8.398536 690.902527
271 0 1 9.517730 8.429896 691.773010
272 0 1 9.486860 8.322229 692.718872
273 0 1 9.236629 7.958925 693.599426
274 0 1 9.128710 7.710472 694.565796
275 0 1 9.301700 7.591754 695.455933
276 0 1 9.658510 7.718941 696.430725
277 0 1 9.875690 7.897349 697.369080
278 0 1 10.086100 7.837114 698.266113
279 0 1 10.340060 8.069124 699.147217
280 0 1 10.544519 8.314272 700.000183
281 0 1 10.932710 8.428277 700.838684
282 0 1 11.097890 8.172027 701.754272
283 0 1 11.189671 7.704356 702.567078
284 0 1 10.774000 7.309053 703.292114
285 0 1 10.591010 6.971470 704.208374
286 0 1 10.459770 6.536680 705.014099
287 0 1 10.032860 6.280830 705.841919
288 0 1 9.661750 5.972650 706.695496
289 0 1 9.375500 5.694100 707.580994
290 0 1 9.128060 5.512930 708.529602
291 0 1 8.771922 5.607810 709.438293
292 0 1 8.604305 5.409060 710.373108
293 0 1 8.690729 5.203410 711.299011
294 0 1 8.875042 5.209720 712.262329
295 0 1 8.942911 5.014290 713.271973
296 0 1 9.453720 5.115410 714.107300
297 0 1 9.987560 5.068540 714.902405
298 0 1 10.250669 5.243290 715.825928
299 0 1 10.383120 5.462040 716.751587
300 0 1 10.654460 5.670350 717.650818
301 0 1 10.914470 5.537680 718.600098
302 0 1 11.252970 5.212010 719.426025
303 0 1 11.792490 5.107450 720.228577
304 0 1 12.046080 5.172330 721.154907
305 0 1 12.039630 4.927460 722.091919
306 0 1 12.160030 4.719070 722.976990
307 0 1 12.259550 4.485910 723.848694
308 0 1 12.030600 4.457530 724.826416
309 0 1 11.655680 4.693230 725.740112
310 0 1 11.226990 4.567730 726.564575
311 0 1 10.858660 4.563460 727.442810
312 0 1 10.335200 4.343680 728.228699
313 0 1 9.781910 4.345550 729.051025
314 0 1 9.270220 4.465330 729.856018
315 0 1 8.807581 4.539680 730.677002
316 0 1 8.471446 4.390080 731.552979
317 0 1 8.204471 4.447130 732.502991
318 0 1 8.272374 4.435230 733.473999
319 0 1 8.424782 4.560970 734.393982
320 0 1 8.702511 4.456720 735.333008
321 0 1 9.184100 4.606260 736.167969
322 0 1 9.769440 4.820100 736.890991
323 0 1 10.403740 5.203980 737.490967
324 0 1 11.049710 5.604220 738.020996
325 0 1 11.427680 6.013420 738.841003
326 0 1 11.539800 6.374810 739.770996
327 0 1 11.688620 6.725460 740.656006
328 0 1 11.793630 6.964540 741.560974
329 0 1 11.479300 7.406871 742.455017
330 0 1 11.248260 7.873552 743.271973
331 0 1 11.307110 8.230855 744.166016
332 0 1 11.303500 8.645929 745.049988
333 0 1 11.436040 9.084020 745.898010
334 0 1 11.560230 9.382500 746.797974
335 0 1 11.609500 9.722640 747.708984
336 0 1 11.848010 10.319480 748.391968
337 0 1 11.945890 10.774230 749.189026
338 0 1 11.782120 11.066820 750.127991
339 0 1 11.548850 11.309010 750.973022
340 0 1 11.342760 11.354919 751.963989
341 0 1 11.042180 11.475690 752.835999
342 0 1 10.894011 11.674440 753.737000
343 0 1 10.520110 11.836820 754.589966
344 0 1 10.308599 12.174730 755.495972
345 0 1 9.889220 12.399920 756.343994
346 0 1 9.417360 12.497280 757.164001
347 0 1 9.130950 12.681140 758.093018
348 0 1 8.390235 12.778410 758.705017
349 0 1 7.939646 13.080370 759.515015
350 0 1 7.735716 13.329070 760.488037
351 0 1 7.648659 13.386710 761.471008
352 0 1 7.455043 13.486509 762.386963
353 0 1 7.562816 13.444500 763.367981
354 0 1 7.943013 13.436831 764.229980
355 0 1 8.206049 13.172290 765.117004
356 0 1 7.954210 13.065180 766.145020
357 0 1 8.030849 13.090270 767.096985
358 0 1 8.360372 13.084650 767.994019
359 0 1 8.595024 12.848841 768.929993
360 0 1 8.601375 12.348770 769.770020
361 0 1 8.492365 11.958200 770.661987
362 0 1 8.493660 11.413860 771.398010
363 0 1 8.149804 11.014441 772.221008
364 0 1 8.173284 10.617530 773.046997
365 0 1 8.191828 9.816220 773.533020
366 0 1 8.271510 9.006701 774.156006
367 0 1 8.291034 8.453907 775.000977
368 0 1 8.272332 7.967247 775.863037
369 0 1 8.189082 7.692703 776.837036
370 0 1 8.124662 7.270129 777.698975
371 0 1 8.140832 6.928410 778.609985
372 0 1 8.140460 6.586570 779.504028
373 0 1 8.215364 5.999070 780.237000
374 0 1 8.534899 5.515540 781.023987
375 0 1 8.726357 4.988950 781.869995
376 0 1 8.729004 4.599920 782.771973
377 0 1 8.995875 4.038730 783.609009
378 0 1 9.138240 3.847350 784.528015
379 0 1 8.885059 3.818060 785.474976
380 0 1 8.865866 4.005370 786.492004
381 0 1 8.754768 4.631950 787.228027
382 0 1 8.472992 5.229020 787.921997
383 0 1 7.934356 5.832040 788.528015
384 0 1 7.695998 6.290200 789.317993
385 0 1 7.647124 6.570240 790.273987
386 0 1 7.423015 6.652930 791.239990
387 0 1 7.387549 6.507570 792.205994
388 0 1 7.282076 6.659580 793.143982
389 0 1 7.242831 6.936620 794.039001
390 0 1 7.041086 7.205936 794.994995
391 0 1 7.059720 7.721887 795.833008
392 0 1 7.155173 8.234768 796.629028
393 0 1 7.309949 8.602484 797.485962
394 0 1 7.329157 8.932339 798.442017
395 0 1 7.314147 9.372370 799.276978
396 0 1 7.443369 9.875290 800.125977
397 0 1 7.383315 10.232590 801.039001
398 0 1 7.345910 10.413940 802.002014
399 0 1 7.021332 10.433720 802.901001
400 0 1 6.592320 10.403709 803.854980
401 0 1 6.392940 10.161440 804.776978
402 0 1 6.443360 9.941410 805.702026
403 0 1 6.548360 9.771830 806.669006
404 0 1 6.671800 9.740860 807.648987
405 0 1 6.625260 9.620730 808.575989
406 0 1 6.684480 9.800880 809.521973
407 0 1 6.757600 10.051120 810.458984
408 0 1 6.717360 10.291700 811.343994
409 0 1 6.712650 10.627850 812.278015
410 0 1 6.898600 10.879220 813.203979
411 0 1 6.830640 11.298470 814.088013
412 0 1 6.877770 11.711580 814.966980
413 0 1 6.925960 11.951571 815.910034
414 0 1 6.887080 12.267799 816.859985
415 0 1 7.059060 12.554609 817.697998
416 0 1 7.398430 12.673660 818.615967
417 0 1 7.879545 12.528490 819.427979
418 0 1 8.202366 12.242100 820.317993
419 0 1 8.365944 11.684520 821.078979
420 0 1 8.735921 11.115310 821.757996
421 0 1 9.088380 10.717090 822.596985
422 0 1 9.388180 10.620680 823.518982
423 0 1 9.726000 10.690410 824.460022
424 0 1 9.696330 10.872790 825.344971
425 0 1 9.454090 11.060310 826.297974
426 0 1 8.944699 11.227890 827.125977
427 0 1 8.336899 11.150890 827.851013
428 0 1 7.714878 10.921021 828.588989
429 0 1 7.224819 10.369260 829.216980
430 0 1 6.950080 9.997920 830.115967
431 0 1 6.993800 9.709570 831.094971
432 0 1 7.209877 9.752740 832.025024
433 0 1 7.125276 9.949120 832.981995
434 0 1 7.088388 10.526500 833.768982
435 0 1 6.835990 11.114940 834.426025
436 0 1 6.411810 11.641530 835.153992
437 0 1 6.051060 11.883690 836.007996
438 0 1 5.846150 11.805040 836.979980
439 0 1 6.060760 11.849940 837.985962
440 0 1 6.128170 11.827160 838.922974
441 0 1 6.046610 11.881220 839.870972
442 0 1 6.375050 11.983710 840.835999
443 0 1 6.604740 12.227760 841.724976
444 0 1 7.143755 12.063140 842.604004
445 0 1 7.603604 11.991020 843.429993
446 0 1 8.437975 11.943060 843.880981
447 0 1 9.375490 11.845760 844.046021
448 0 1 10.276830 11.539289 844.249023
449 0 1 11.139290 10.952430 844.291992
450 0 1 11.891160 10.561230 843.877991
451 0 1 12.567360 9.932500 843.490967
452 0 1 13.094070 9.202100 843.067993
453 0 1 13.341431 8.907467 842.200012
454 0 1 13.554541 8.374178 841.400024
455 0 1 13.781960 7.997412 840.462036
456 0 1 13.982740 7.600826 839.627991
457 0 1 14.037830 7.107375 838.765015
458 0 1 13.904790 6.673680 837.927979
459 0 1 13.477921 6.506460 837.057983
460 0 1 12.897779 6.557030 836.307983
461 0 1 12.379869 6.625290 835.504028
462 0 1 11.977000 6.496440 834.614990
463 0 1 11.743210 6.738980 833.721008
464 0 1 11.393050 6.823580 832.773010
465 0 1 11.113390 6.694230 831.856018
466 0 1 10.930389 6.357550 831.015991
467 0 1 10.707300 6.180190 830.115967
468 0 1 10.655030 5.929550 829.187988
469 0 1 10.608600 5.594640 828.266968
470 0 1 10.341420 5.339730 827.453003
471 0 1 10.290280 5.228660 826.557983
472 0 1 10.117690 4.916010 825.557983
473 0 1 10.201030 4.946290 824.594971
474 0 1 10.667310 4.865720 823.690979
475 0 1 11.032960 4.765850 822.833984
476 0 1 11.376930 4.754470 821.856995
477 0 1 11.509520 4.557530 820.912964
478 0 1 11.301520 4.407500 820.005005
479 0 1 11.071980 4.559200 819.119995
480 0 1 10.920031 4.994840 818.278015
481 0 1 10.782540 5.196270 817.291016
482 0 1 10.675350 5.272030 816.358032
483 0 1 10.844160 5.522140 815.452026
484 0 1 10.983521 5.666780 814.483032
485 0 1 11.003770 5.685570 813.515991
486 0 1 11.325550 5.906330 812.630981
487 0 1 11.278820 6.068640 811.627014
488 0 1 11.235710 6.166190 810.635010
489 0 1 11.271700 6.318150 809.636963
490 0 1 11.351419 6.367890 808.604980
491 0 1 11.245020 6.362070 807.653015
492 0 1 11.241950 6.346810 806.684021
493 0 1 11.084380 6.652160 805.755981
494 0 1 11.220060 6.807200 804.802979
495 0 1 10.982340 6.785370 803.856995
496 0 1 10.769190 6.789980 802.958984
497 0 1 10.836890 6.958460 802.059998
498 0 1 10.795031 6.987570 801.114014
499 0 1 10.970990 6.841850 800.239014
500 0 1 10.900650 6.948790 799.306030
501 0 1 10.686670 7.064470 798.406006
502 0 1 10.517100 7.403318 797.518005
503 0 1 10.237260 7.677770 796.622009
504 0 1 10.016390 7.984611 795.713989
505 0 1 10.281390 8.161756 794.880005
506 0 1 10.601330 8.259721 793.971008
507 0 1 10.725460 8.263203 792.984985
508 0 1 10.785151 8.249948 792.057007
509 0 1 10.686890 7.974720 791.072021
510 0 1 10.773140 7.610411 790.192993
511 0 1 10.919189 7.703405 789.207031
512 0 1 10.948640 7.687056 788.276001
513 0 1 11.024600 7.291401 787.432983
514 0 1 11.106160 7.243135 786.495972
515 0 1 11.132690 7.018166 785.544006
516 0 1 11.127550 6.877440 784.598999
517 0 1 10.981640 6.742460 783.666016
518 0 1 11.072880 6.768540 782.627014
519 0 1 10.914230 7.077335 781.734009
520 0 1 10.661520 7.566835 780.900024
521 0 1 10.486520 7.882062 780.005005
522 0 1 10.257750 7.879083 779.101990
523 0 1 10.307980 8.032134 778.135986
524 0 1 10.189450 7.722925 777.223022
525 0 1 10.165490 7.328436 776.344971
526 0 1 10.350680 7.169372 775.374023
527 0 1 10.423520 6.718930 774.603027
528 0 1 10.326150 6.202980 773.797974
529 0 1 10.330940 5.665910 772.979980
530 0 1 10.218860 5.255770 772.094971
531 0 1 9.914160 4.716700 771.403015
532 0 1 9.789220 4.192410 770.601990
533 0 1 9.477750 3.984360 769.700012
534 0 1 9.446050 4.089050 768.744019
535 0 1 9.375110 4.396830 767.766968
536 0 1 9.281160 4.957600 766.984985
537 0 1 9.398450 5.467410 766.156982
538 0 1 9.662560 5.738370 765.226013
539 0 1 9.806810 5.983280 764.257019
540 0 1 9.780660 6.047380 763.286011
541 0 1 9.886100 6.202490 762.286011
542 0 1 9.814790 6.266680 761.338013
543 0 1 9.497200 6.216850 760.393005
544 0 1 9.108220 6.375080 759.536011
545 0 1 8.808704 6.779500 758.726990
546 0 1 8.533163 7.152636 757.869995
547 0 1 8.440373 7.551342 757.013000
548 0 1 8.734608 7.972033 756.268982
549 0 1 8.751269 8.612026 755.538025
550 0 1 8.801144 9.273570 754.747986
551 0 1 9.027650 10.012480 754.091003
552 0 1 9.193730 10.812050 753.510986
553 0 1 9.372200 11.308690 752.716980
554 0 1 9.324471 11.845720 751.935974
555 0 1 9.289790 12.047820 751.026978
556 0 1 9.704070 11.954490 750.156982
557 0 1 9.885690 11.889430 749.234009
558 0 1 10.125150 11.684000 748.364014
559 0 1 10.409410 11.560930 747.445007
560 0 1 10.935870 11.214860 746.658020
561 0 1 11.270840 10.792310 745.822021
562 0 1 11.214530 10.480040 744.911011
563 0 1 11.044840 10.171040 743.896973
564 0 1 10.684540 10.002060 743.023010
565 0 1 10.106300 9.738070 742.216003
566 0 1 10.216990 9.125570 741.504028
567 0 1 10.181950 8.614242 740.677979
568 0 1 10.329160 8.194244 739.806030
569 0 1 10.482310 7.790225 738.948975
570 0 1 10.485180 7.499216 738.042969
571 0 1 10.355721 7.163935 737.145996
572 0 1 10.028450 7.121572 736.221985
573 0 1 9.897320 7.097948 735.242004
574 0 1 9.773040 7.034136 734.265991
575 0 1 9.806490 6.858770 733.297974
576 0 1 9.868280 6.674690 732.325989
577 0 1 9.953000 6.688170 731.322021
578 0 1 9.750020 6.522010 730.414001
579 0 1 9.482410 6.190630 729.464966
580 0 1 9.006690 5.944710 728.713989
581 0 1 8.601608 5.760000 727.801392
582 0 1 8.294882 5.632920 726.875610
583 0 1 8.411875 5.713440 725.899292
584 0 1 8.568874 5.955050 724.943481
585 0 1 8.820037 5.936940 724.003418
586 0 1 9.269400 6.175260 723.221802
587 0 1 9.688231 6.392910 722.419495
588 0 1 10.244170 6.531520 721.629028
589 0 1 10.591480 6.782170 720.725098
590 0 1 10.907740 7.085603 719.881287
591 0 1 11.120340 7.434352 719.047424
592 0 1 11.464260 7.733116 718.135193
593 0 1 11.498250 7.715016 717.080200
594 0 1 11.423019 7.738633 716.160095
595 0 1 11.554290 7.706017 715.185303
596 0 1 11.621290 7.880777 714.226685
597 0 1 11.637800 8.209750 713.327087
598 0 1 11.699970 8.703257 712.469788
599 0 1 11.720690 8.788683 711.489807
600 0 1 11.855900 8.682935 710.546204
601 0 1 11.771339 8.346698 709.588623
602 0 1 11.808260 8.124597 708.621521
603 0 1 12.197639 7.755268 707.748718
604 0 1 12.508310 7.740107 706.849426
605 0 1 12.504910 7.934960 705.889099
606 0 1 12.801960 7.920771 704.972595
607 0 1 12.966499 7.686560 704.053467
608 0 1 12.931510 7.462844 703.148376
609 0 1 13.061720 7.457267 702.199829
610 0 1 13.184210 7.319154 701.269287
611 0 1 13.118589 7.332710 700.320190
612 0 1 12.899230 7.403936 699.411377
613 0 1 12.717270 7.307624 698.455200
614 0 1 12.621981 7.365122 697.442688
615 0 1 12.583500 7.380230 696.476990
616 0 1 12.680820 7.629222 695.544678
617 0 1 12.873260 7.751537 694.629517
618 0 1 12.864750 7.916435 693.672302
619 0 1 13.206850 8.081260 692.739380
620 0 1 13.814751 8.486646 691.982422
621 0 1 14.230980 8.926937 691.226501
622 0 1 14.325650 9.546470 690.534180
623 0 1 14.055150 10.048389 689.861023
624 0 1 13.684890 10.590020 689.139771
625 0 1 13.400560 11.024549 688.388672
626 0 1 13.114540 11.521060 687.643677
627 0 1 12.792290 11.974460 686.881287
628 0 1 12.325450 12.356030 686.122314
629 0 1 12.093229 12.632219 685.187378
630 0 1 11.826000 12.683940 684.237488
631 0 1 11.794550 12.518520 683.290771
632 0 1 11.453930 12.481390 682.382690
633 0 1 11.444080 12.263920 681.476196
634 0 1 11.317720 12.270720 680.453918
635 0 1 11.054220 12.282690 679.583191
636 0 1 10.611890 12.421040 678.794189
637 0 1 10.205111 12.640079 677.933472
638 0 1 9.601430 12.936680 677.306091
639 0 1 9.260070 13.551610 676.656616
640 0 1 8.854249 13.878580 675.731323
641 0 1 8.609166 14.128490 674.847900
642 0 1 8.659071 14.448851 673.966125
643 0 1 8.551243 14.748550 673.057129
644 0 1 8.464882 14.632780 672.092773
645 0 1 8.414295 14.344250 671.166992
646 0 1 8.164391 14.084900 670.272888
647 0 1 7.715582 13.673400 669.555176
648 0 1 7.471176 13.096650 668.788086
649 0 1 7.269030 12.723280 667.933594
650 0 1 7.267549 12.176710 667.098999
651 0 1 7.371644 11.571020 666.385620
652 0 1 7.644451 11.239640 665.489014
653 0 1 7.788947 10.748070 664.717773
654 0 1 7.775544 10.164870 663.978577
655 0 1 7.745490 9.755540 663.065186
656 0 1 7.505793 9.495390 662.192017
657 0 1 7.301786 9.308470 661.268616
658 0 1 7.344620 9.044170 660.403381
659 0 1 7.392916 8.809227 659.431824
660 0 1 7.806144 8.805941 658.541382
661 0 1 8.204716 8.930010 657.660889
662 0 1 8.221316 8.766235 656.662781
663 0 1 8.325358 8.575396 655.736511
664 0 1 8.379587 8.550749 654.750610
665 0 1 8.650263 8.447712 653.851807
666 0 1 8.697796 8.075260 652.876709
667 0 1 8.701625 7.879271 651.908203
668 0 1 8.717474 7.585016 650.981201
669 0 1 8.863934 7.451633 650.032288
670 0 1 9.263430 7.091012 649.174988
671 0 1 9.500060 6.528610 648.460693
672 0 1 9.701930 6.254280 647.563721
673 0 1 9.921670 5.953260 646.626404
674 0 1 10.247601 5.636390 645.692688
675 0 1 10.645650 5.447990 644.832397
676 0 1 10.997920 5.332390 644.010071
677 0 1 11.379960 4.825100 643.312378
678 0 1 11.710630 4.518550 642.375610
679 0 1 11.688770 4.425970 641.449890
680 0 1 11.879860 4.301370 640.546997
681 0 1 12.006720 4.174880 639.589722
682 0 1 11.943760 4.039970 638.681030
683 0 1 12.026370 3.940770 637.744873
684 0 1 11.832450 3.789200 636.754883
685 0 1 11.560180 3.823330 635.800720
686 0 1 11.170860 4.037570 634.890198
687 0 1 10.721500 4.346550 634.114014
688 0 1 10.321500 4.595740 633.260681
689 0 1 10.004770 4.953670 632.467590
690 0 1 9.734330 5.578050 631.756165
691 0 1 9.937230 6.078770 630.975159
692 0 1 10.066200 6.844570 630.409424
693 0 1 9.963540 7.671817 629.931885
694 0 1 9.924990 8.524533 629.579407
695 0 1 9.835520 9.413210 629.235901
696 0 1 9.663010 10.082650 628.656372
697 0 1 9.355130 10.737520 628.044739
698 0 1 8.799806 11.344580 627.529602
699 0 1 8.050173 11.863340 627.195557
700 0 1 7.237881 12.274330 626.982849
701 0 1 6.360810 12.396700 626.596130
702 0 1 5.667070 12.373000 625.972961
703 0 1 4.960410 12.282890 625.303528
704 0 1 4.338540 12.129770 624.578613
705 0 1 3.686730 12.120211 623.834351
706 0 1 3.051110 11.773310 623.220032
707 0 1 2.475540 11.445850 622.571228
708 0 1 2.226350 11.111600 621.578552
709 0 1 2.078630 11.218640 620.599365
710 0 1 2.045690 10.971330 619.596558
711 0 1 2.254890 10.815020 618.673157
712 0 1 2.457190 10.808590 617.701416
713 0 1 3.023790 10.721000 616.951477
714 0 1 3.558700 10.543020 616.182678
715 0 1 4.083880 10.036720 615.539001
716 0 1 4.267360 9.529140 614.786499
717 0 1 4.601230 9.180880 613.853210
718 0 1 4.697290 8.768994 612.948792
719 0 1 4.490240 8.622008 611.966797
720 0 1 4.540200 8.593628 610.982605
721 0 1 4.630070 8.488659 609.995117
722 0 1 4.821920 8.352607 609.073120
723 0 1 4.790100 8.269000 608.101013
724 0 1 4.648970 7.966010 607.200928
725 0 1 4.419880 7.852061 606.242126
726 0 1 4.285230 7.683355 605.257385
727 0 1 4.183900 7.452212 604.360291
728 0 1 4.252640 7.308293 603.443726
729 0 1 4.013220 7.333095 602.426270
730 0 1 3.945870 7.682339 601.490906
731 0 1 3.550170 7.998421 600.707397
732 0 1 3.144870 8.241515 599.870728
733 0 1 2.917570 8.467456 598.947510
734 0 1 2.685950 8.475457 598.005920
735 0 1 2.485880 8.295798 597.074219
736 0 1 2.511360 8.181349 596.133179
737 0 1 2.592950 8.276548 595.197632
738 0 1 2.815660 8.362582 594.169312
739 0 1 3.421630 8.232934 593.394897
740 0 1 4.065160 8.265874 592.645020
741 0 1 4.529620 8.169205 591.867920
742 0 1 5.057730 8.067604 591.107788
743 0 1 5.525730 7.863583 590.292725
744 0 1 6.170650 7.736979 589.521729
745 0 1 6.679150 7.761939 588.667603
746 0 1 7.100644 8.040674 587.833191
747 0 1 7.437720 8.214498 586.961914
748 0 1 8.113140 8.341706 586.233521
749 0 1 8.476338 8.541848 585.367004
750 0 1 8.604350 8.484208 584.455078
751 0 1 8.801536 8.633242 583.531921
752 0 1 9.038170 8.585866 582.594482
753 0 1 9.237410 8.626476 581.637390
754 0 1 9.264040 8.771982 580.644104
755 0 1 9.267850 8.931206 579.699219
756 0 1 9.540030 8.819474 578.849731
757 0 1 9.401460 8.776958 577.882568
758 0 1 9.145110 8.851258 576.937378
759 0 1 8.808331 9.018070 576.086914
760 0 1 8.565947 8.918083 575.105469
761 0 1 8.177309 8.763892 574.162598
762 0 1 7.936557 8.784140 573.223816
763 0 1 7.656591 9.367340 572.542969
764 0 1 7.319843 10.093560 572.064392
765 0 1 7.137057 10.849200 571.499512
766 0 1 7.038580 11.264811 570.615295
767 0 1 6.666290 11.508739 569.782410
768 0 1 6.614630 11.850480 568.888611
769 0 1 6.280650 12.262550 567.995422
770 0 1 6.147760 12.638180 567.073425
771 0 1 5.802200 12.915920 566.179932
772 0 1 5.588370 13.105600 565.312622
773 0 1 5.493640 13.107030 564.396606
774 0 1 5.489020 12.974199 563.413391
775 0 1 5.359270 12.751511 562.475525
776 0 1 5.350410 12.386100 561.593079
777 0 1 5.343360 11.989320 560.705383
778 0 1 5.314220 11.500071 559.912781
779 0 1 5.262730 10.976010 559.051086
780 0 1 4.835620 10.671550 558.225586
781 0 1 4.506100 10.168930 557.480713
782 0 1 4.003720 9.673670 556.756714
783 0 1 3.611040 9.486500 555.899475
784 0 1 3.263050 9.576710 554.982483
785 0 1 2.776310 9.764390 554.090393
786 0 1 2.929790 9.838330 553.175110
787 0 1 3.147620 9.796200 552.270874
788 0 1 3.101330 9.767941 551.275085
789 0 1 2.795070 9.656570 550.373596
790 0 1 2.676490 9.517370 549.464722