LAMMPS data file via MDAnalysis

        1000  atoms
        1000  bonds
        1000  angles
           0  dihedrals
           0  impropers

           1  atom types
           1  bond types
           1  angle types
           0  dihedral types
           0  improper types

0.000000 16.000000 xlo xhi
0.000000 16.000000 ylo yhi
0.000000 1257.000000 zlo zhi


Masses

1 1.000000

Atoms

1 0 1 9.233050 10.103750 464.476013
2 0 1 8.699028 9.707070 465.216003
3 0 1 8.370970 9.212900 466.000000
4 0 1 8.400054 8.681009 466.791992
5 0 1 8.305862 7.907479 467.410004
6 0 1 8.652499 7.433655 468.136993
7 0 1 8.787426 6.701350 468.796021
8 0 1 8.751443 6.046890 469.562012
9 0 1 8.938944 5.700100 470.404999
10 0 1 9.169600 5.299900 471.223022
11 0 1 9.376980 5.018680 472.149994
12 0 1 9.586180 4.666030 472.966003
13 0 1 10.138240 4.464470 473.766998
14 0 1 10.535290 4.551000 474.648987
15 0 1 10.662050 4.610430 475.608002
16 0 1 10.641140 4.993110 476.476990
17 0 1 10.738100 5.547020 477.251007
18 0 1 10.771220 6.109360 478.029999
19 0 1 10.595170 6.927980 478.563995
20 0 1 10.535500 7.774952 479.179016
21 0 1 10.778330 8.455123 479.752014
22 0 1 11.159770 8.905637 480.490997
23 0 1 11.563480 9.205170 481.268005
24 0 1 11.830790 9.559060 482.160004
25 0 1 11.776890 9.916810 483.036987
26 0 1 11.882210 9.783620 483.911011
27 0 1 11.930020 9.411640 484.898010
28 0 1 11.843640 9.242860 485.824005
29 0 1 11.715000 9.419250 486.746002
30 0 1 11.865410 9.774710 487.617981
31 0 1 11.855980 9.686500 488.562988
32 0 1 11.768810 9.938700 489.526001
33 0 1 11.524670 10.017220 490.502991
34 0 1 11.442540 10.014510 491.471985
35 0 1 11.247940 10.104510 492.438995
36 0 1 10.803090 10.107050 493.315002
37 0 1 10.387990 10.141130 494.177002
38 0 1 9.749269 10.056680 494.888000
39 0 1 9.336490 9.724400 495.726013
40 0 1 9.038150 9.141810 496.388000
41 0 1 9.060880 8.580838 497.214996
42 0 1 8.878071 8.155129 498.128998
43 0 1 8.678306 8.203306 499.140991
44 0 1 8.417122 8.480566 500.039001
45 0 1 8.203652 8.623454 500.994019
46 0 1 8.394816 9.001470 501.864014
47 0 1 8.541431 9.445150 502.692017
48 0 1 8.989907 9.789040 503.527008
49 0 1 9.117620 9.995370 504.414001
50 0 1 9.032930 10.238091 505.313995
51 0 1 8.827350 10.501670 506.226990
52 0 1 8.680517 10.843580 507.096008
53 0 1 8.532054 10.968470 508.010010
54 0 1 8.618736 10.869890 508.920990
55 0 1 8.571056 10.708241 509.869995
56 0 1 8.239900 10.784280 510.734985
57 0 1 7.992070 10.993150 511.652008
58 0 1 7.909938 11.396350 512.509033
59 0 1 8.073116 11.681520 513.513977
60 0 1 8.421065 11.788060 514.395996
61 0 1 8.662551 11.998671 515.306030
62 0 1 9.066750 11.968750 516.164978
63 0 1 9.206220 11.886230 517.179993
64 0 1 9.113740 11.903590 518.161987
65 0 1 9.038510 11.779570 519.104004
66 0 1 8.790868 11.805350 520.080017
67 0 1 8.605627 11.663860 521.059021
68 0 1 8.739321 11.584870 522.015991
69 0 1 9.262180 11.502890 522.887024
70 0 1 9.776180 11.295600 523.745972
71 0 1 9.783280 11.044600 524.606995
72 0 1 9.906860 10.811680 525.526001
73 0 1 9.912800 10.322570 526.377014
74 0 1 10.169720 10.314460 527.281006
75 0 1 10.749520 10.518740 528.094971
76 0 1 11.410410 10.735840 528.750610
77 0 1 12.054440 10.959880 529.508301
78 0 1 12.694360 11.050990 530.250366
79 0 1 13.127430 11.151800 531.193420
80 0 1 12.980070 10.976590 532.174072
81 0 1 12.894820 10.606150 533.087524
82 0 1 12.608590 10.063990 533.844910
83 0 1 12.356350 9.803240 534.721008
84 0 1 12.126699 9.368970 535.579590
85 0 1 12.100201 8.864620 536.387207
86 0 1 12.204741 8.617516 537.336914
87 0 1 12.065390 8.271019 538.286194
88 0 1 12.005460 7.590738 539.090515
89 0 1 11.595810 7.101554 539.821533
90 0 1 11.147750 7.006611 540.703918
91 0 1 10.417810 6.868950 541.309204
92 0 1 9.521720 6.771970 541.661682
93 0 1 8.673431 6.627350 542.062866
94 0 1 7.779407 6.548200 542.554810
95 0 1 7.031403 6.194300 543.018311
96 0 1 6.552600 5.456770 543.526917
97 0 1 6.316810 4.766680 544.067505
98 0 1 6.210690 4.096600 544.827698
99 0 1 6.274450 3.414680 545.524292
100 0 1 6.585580 3.014600 546.342896
101 0 1 6.721210 2.687470 547.261414
102 0 1 6.948440 2.612650 548.143677
103 0 1 6.878930 2.583830 549.151001
104 0 1 6.680280 2.622460 550.082397
105 0 1 6.233770 2.620710 550.954285
106 0 1 5.935950 2.552280 551.852600
107 0 1 5.733640 2.806160 552.754272
108 0 1 5.750340 2.958050 553.724304
109 0 1 5.856290 3.201710 554.636475
110 0 1 5.867490 3.279100 555.613403
111 0 1 6.022510 3.259430 556.588501
112 0 1 5.949170 3.295880 557.593506
113 0 1 6.087640 2.854940 558.432495
114 0 1 6.046960 2.575990 559.295288
115 0 1 6.146240 2.305170 560.186707
116 0 1 6.112880 2.107310 561.138428
117 0 1 6.293600 2.159400 562.079102
118 0 1 6.877180 2.456580 562.908997
119 0 1 7.182651 2.628000 563.776917
120 0 1 7.486871 3.094030 564.531006
121 0 1 7.447335 3.704760 565.289917
122 0 1 7.636760 4.370720 565.948120
123 0 1 7.694308 5.057380 566.591614
124 0 1 7.685065 5.898360 567.029602
125 0 1 7.646726 6.714310 567.561890
126 0 1 7.638890 7.488592 568.198303
127 0 1 7.742381 8.329036 568.752808
128 0 1 7.995926 9.126030 569.269897
129 0 1 8.350773 9.795830 569.873474
130 0 1 8.493845 10.411079 570.566406
131 0 1 8.418409 10.690940 571.473511
132 0 1 8.138056 10.485030 572.358582
133 0 1 8.104544 10.135550 573.278503
134 0 1 7.744409 9.807780 574.137207
135 0 1 7.472695 9.541920 574.986206
136 0 1 7.192497 9.288200 575.892517
137 0 1 6.799900 9.289320 576.788696
138 0 1 6.265690 9.478480 577.600830
139 0 1 6.174930 9.731920 578.490784
140 0 1 6.337130 9.729070 579.463684
141 0 1 6.409000 9.664980 580.393372
142 0 1 6.108450 9.821530 581.271973
143 0 1 5.915140 9.969130 582.188416
144 0 1 5.796140 10.084030 583.090332
145 0 1 5.867360 10.063310 584.020508
146 0 1 5.958770 9.922200 584.931274
147 0 1 6.061720 9.784670 585.955017
148 0 1 6.078730 9.526540 586.906494
149 0 1 6.206920 9.195601 587.864868
150 0 1 6.324910 8.591466 588.622986
151 0 1 6.436520 8.072938 589.431519
152 0 1 6.684170 7.624844 590.213501
153 0 1 6.776900 7.121992 591.006714
154 0 1 7.015663 6.727060 591.902222
155 0 1 7.060820 6.416690 592.783325
156 0 1 7.219193 5.983400 593.643127
157 0 1 7.486591 5.372650 594.364868
158 0 1 7.311029 4.761820 595.135193
159 0 1 7.498268 4.027060 595.699707
160 0 1 7.583584 3.487180 596.546021
161 0 1 7.545899 3.374990 597.507202
162 0 1 7.221046 3.265940 598.387024
163 0 1 6.847230 3.266720 599.293274
164 0 1 6.958070 3.328220 600.212524
165 0 1 7.002621 3.501010 601.161072
166 0 1 7.344931 3.595120 602.056396
167 0 1 7.484424 3.699880 603.007690
168 0 1 7.802740 3.848270 603.858826
169 0 1 7.969891 3.834980 604.812073
170 0 1 7.918361 4.191280 605.745728
171 0 1 8.048986 4.360550 606.678589
172 0 1 7.889267 5.004710 607.490723
173 0 1 7.885156 5.464950 608.327209
174 0 1 7.964604 5.668960 609.179321
175 0 1 8.189231 6.020640 610.121399
176 0 1 8.495557 6.360120 610.999817
177 0 1 8.653829 6.690890 611.884216
178 0 1 8.740131 6.930000 612.742981
179 0 1 8.944304 7.495954 613.594788
180 0 1 9.040600 8.219988 614.204712
181 0 1 8.773156 8.869712 614.843628
182 0 1 8.436593 9.520310 615.518799
183 0 1 8.167636 10.178080 616.177124
184 0 1 7.821294 10.574820 616.949219
185 0 1 7.423562 10.766600 617.808594
186 0 1 6.936660 11.077750 618.616028
187 0 1 6.472690 11.292680 619.392151
188 0 1 6.276040 11.464030 620.268433
189 0 1 6.192430 11.849360 621.189941
190 0 1 6.081990 12.262770 622.138000
191 0 1 5.864010 12.485291 622.992920
192 0 1 5.834330 12.856330 623.839905
193 0 1 5.676960 13.202681 624.774597
194 0 1 5.504140 13.110991 625.730896
195 0 1 5.533460 12.746140 626.598450
196 0 1 5.341950 12.551130 627.578735
197 0 1 5.352280 12.485050 628.539795
198 0 1 5.028360 12.566010 629.523315
199 0 1 4.937130 12.692380 630.438110
200 0 1 4.708620 12.306749 631.285828
201 0 1 4.698230 11.544900 631.932739
202 0 1 4.593150 10.795361 632.502319
203 0 1 4.214600 9.945240 632.836609
204 0 1 3.907470 9.118570 633.279602
205 0 1 3.602250 8.365040 633.721008
206 0 1 3.052470 7.812523 634.328308
207 0 1 2.625180 7.147624 634.961609
208 0 1 2.288810 6.704420 635.780212
209 0 1 2.178740 6.283650 636.647522
210 0 1 2.181220 6.149410 637.622070
211 0 1 2.140310 6.078080 638.596008
212 0 1 2.000650 6.329750 639.501404
213 0 1 1.941800 6.599570 640.393799
214 0 1 2.221830 7.050002 641.149109
215 0 1 2.476470 7.518138 641.938293
216 0 1 2.698230 8.189784 642.626221
217 0 1 2.872910 8.775944 643.344482
218 0 1 3.165000 9.429040 643.999390
219 0 1 3.220290 9.873500 644.845520
220 0 1 3.267280 10.128230 645.742676
221 0 1 3.444670 10.259920 646.687012
222 0 1 3.669730 10.446150 647.621094
223 0 1 3.944510 10.477380 648.604919
224 0 1 4.157910 10.667140 649.487610
225 0 1 4.636390 10.872610 650.345581
226 0 1 5.254370 10.992410 651.051208
227 0 1 5.863260 11.139780 651.809509
228 0 1 6.253370 11.153370 652.671509
229 0 1 6.796490 11.185801 653.486389
230 0 1 7.270089 11.016750 654.268982
231 0 1 7.669741 10.771580 655.146301
232 0 1 7.893030 10.438750 655.976929
233 0 1 8.575660 10.121020 656.576721
234 0 1 9.023550 10.074409 657.441284
235 0 1 9.479460 10.023830 658.247925
236 0 1 9.676750 10.050261 659.198486
237 0 1 9.726640 10.065371 660.120300
238 0 1 9.608050 9.883480 661.040894
239 0 1 9.459800 9.840410 662.013916
240 0 1 9.265490 9.634520 662.948181
241 0 1 9.135870 9.381830 663.911987
242 0 1 9.031150 9.188130 664.851318
243 0 1 8.721525 8.612967 665.571106
244 0 1 8.519738 8.109327 666.387695
245 0 1 8.533046 7.737890 667.228821
246 0 1 8.299421 7.368729 668.093689
247 0 1 8.147359 6.929770 668.925415
248 0 1 7.894985 6.791650 669.783691
249 0 1 7.416035 6.789150 670.612488
250 0 1 6.911510 6.959080 671.493408
251 0 1 6.326540 6.975380 672.257996
252 0 1 5.958650 7.142206 673.161682
253 0 1 5.668670 7.372296 674.047913
254 0 1 5.483590 7.513577 675.025696
255 0 1 5.687380 7.621664 675.978210
256 0 1 5.922610 7.477940 676.896606
257 0 1 6.337340 7.521674 677.772095
258 0 1 6.641830 6.989340 678.568298
259 0 1 6.996100 6.551950 679.418579
260 0 1 7.264584 6.127050 680.223572
261 0 1 7.567652 5.430870 680.866516
262 0 1 7.749661 4.909170 681.610901
263 0 1 7.869441 4.348110 682.343506
264 0 1 8.095834 3.860210 683.247070
265 0 1 8.106013 3.557910 684.172119
266 0 1 8.275144 3.154370 685.042419
267 0 1 8.368824 2.641770 685.846008
268 0 1 8.306487 2.129090 686.690918
269 0 1 8.091750 1.831800 687.543396
270 0 1 8.243751 1.508200 688.464600
271 0 1 8.591921 1.325600 689.369385
272 0 1 8.861675 1.758180 690.167969
273 0 1 9.014110 2.101790 691.017273
274 0 1 9.261900 2.358090 691.940002
275 0 1 9.762290 2.441250 692.755127
276 0 1 10.283540 2.339770 693.531372
277 0 1 10.600470 2.410020 694.449707
278 0 1 11.140980 2.587450 695.245422
279 0 1 11.626660 2.634030 695.993774
280 0 1 12.066521 2.887380 696.831604
281 0 1 12.348830 3.238000 697.727722
282 0 1 12.242510 3.743140 698.629272
283 0 1 12.266350 4.293650 699.376831
284 0 1 12.365470 4.823340 700.160522
285 0 1 12.368629 5.291370 701.043579
286 0 1 12.113029 5.830480 701.792419
287 0 1 11.952590 6.462750 702.508118
288 0 1 11.634120 7.237544 703.010315
289 0 1 11.189400 8.128020 703.322815
290 0 1 10.649879 8.855400 703.632324
291 0 1 9.767941 9.252190 703.745911
292 0 1 8.856049 9.277440 704.014221
293 0 1 7.961742 9.237680 704.515503
294 0 1 7.344267 9.221360 705.213989
295 0 1 6.487800 9.098180 705.832092
296 0 1 5.787240 9.002790 706.454285
297 0 1 5.011850 8.708506 707.048218
298 0 1 4.415670 8.495649 707.684082
299 0 1 3.977640 8.250746 708.523376
300 0 1 3.887540 8.225870 709.478882
301 0 1 3.663040 8.365238 710.415771
302 0 1 3.691700 8.609099 711.368286
303 0 1 4.001440 8.993297 712.180176
304 0 1 4.288010 9.509171 712.936707
305 0 1 4.211370 10.129480 713.709717
306 0 1 3.989100 10.850349 714.359375
307 0 1 3.722310 11.499240 715.066284
308 0 1 3.329140 11.871901 715.802795
309 0 1 3.011490 12.133950 716.673828
310 0 1 2.726040 12.044020 717.656128
311 0 1 2.476460 12.054029 718.589966
312 0 1 2.443170 11.859030 719.542175
313 0 1 2.828770 11.693470 720.473877
314 0 1 3.314070 11.780109 721.278381
315 0 1 3.819630 11.637080 722.035706
316 0 1 4.260950 11.613670 722.919922
317 0 1 4.430820 11.790640 723.828796
318 0 1 4.652810 12.224190 724.633911
319 0 1 4.535860 12.456020 725.564331
320 0 1 4.722750 12.598260 726.568115
321 0 1 4.502230 12.379950 727.572021
322 0 1 4.153540 12.049080 728.471619
323 0 1 3.861040 11.706250 729.315002
324 0 1 3.701710 11.246320 730.127014
325 0 1 3.804200 10.967020 731.035034
326 0 1 3.475650 10.870850 731.934998
327 0 1 3.225290 10.832730 732.927979
328 0 1 3.216980 10.599730 733.864990
329 0 1 3.146870 10.270890 734.788025
330 0 1 3.006950 9.965870 735.700989
331 0 1 2.711820 9.737500 736.591003
332 0 1 2.618970 9.580710 737.533997
333 0 1 2.638850 9.278310 738.453003
334 0 1 2.899410 8.844371 739.224976
335 0 1 2.989650 8.316247 740.035034
336 0 1 3.022800 8.032171 741.033020
337 0 1 3.040080 7.763199 741.979004
338 0 1 2.858350 7.754783 742.940002
339 0 1 2.801380 7.749447 743.869995
340 0 1 2.934040 7.992242 744.822021
341 0 1 3.150480 8.245023 745.721008
342 0 1 3.352260 8.603077 746.604980
343 0 1 3.244940 9.148350 747.440002
344 0 1 3.287070 9.780850 748.083008
345 0 1 3.242790 10.420560 748.833984
346 0 1 3.363170 10.843530 749.666016
347 0 1 3.414650 11.271560 750.560974
348 0 1 3.637120 11.528940 751.429016
349 0 1 4.095060 11.960130 752.193970
350 0 1 4.545960 12.243740 753.046997
351 0 1 4.776490 12.579229 753.884033
352 0 1 5.106670 13.002150 754.697021
353 0 1 5.737830 13.196510 755.476990
354 0 1 6.227310 12.999170 756.275024
355 0 1 6.869840 12.853840 756.994019
356 0 1 7.440935 12.419300 757.656006
357 0 1 8.160225 12.241000 758.403992
358 0 1 8.715163 12.089911 759.169983
359 0 1 9.166800 11.940660 760.085022
360 0 1 9.604040 11.616230 760.839966
361 0 1 10.272580 11.582170 761.570007
362 0 1 10.814270 11.547091 762.343018
363 0 1 11.459440 11.505490 763.070007
364 0 1 11.780910 11.275010 763.953979
365 0 1 12.136909 10.751860 764.760010
366 0 1 12.561240 10.220420 765.427979
367 0 1 12.960230 9.915540 766.264038
368 0 1 13.377260 9.669200 767.143982
369 0 1 13.387711 9.632920 768.109009
370 0 1 13.436430 9.743920 769.057983
371 0 1 13.415171 9.794450 770.063965
372 0 1 13.623660 9.620850 771.046021
373 0 1 13.687010 9.555670 772.054016
374 0 1 13.437930 9.365330 772.945984
375 0 1 13.420120 9.023040 773.843018
376 0 1 13.189920 8.839990 774.759033
377 0 1 12.957029 8.582616 775.702026
378 0 1 12.585831 8.226439 776.541992
379 0 1 12.124870 8.026098 777.460999
380 0 1 11.725389 8.112649 778.338989
381 0 1 11.353630 8.247019 779.184021
382 0 1 11.128190 8.147892 780.140015
383 0 1 10.923660 8.559166 780.974976
384 0 1 10.901520 9.036250 781.812012
385 0 1 10.735650 9.079640 782.749023
386 0 1 10.784580 9.151670 783.740967
387 0 1 10.711110 9.056490 784.719971
388 0 1 10.898951 8.941570 785.640015
389 0 1 10.801670 8.678522 786.686035
390 0 1 10.700340 8.440176 787.641968
391 0 1 10.322940 8.216212 788.556030
392 0 1 10.010880 8.202535 789.401001
393 0 1 9.428520 8.111294 790.187988
394 0 1 9.243500 8.091289 791.166992
395 0 1 9.428990 8.019506 792.077026
396 0 1 9.311520 7.975659 793.109009
397 0 1 9.166530 8.061105 794.096985
398 0 1 8.885604 8.316730 795.020020
399 0 1 8.409848 8.674671 795.783020
400 0 1 7.859873 8.883509 796.533020
401 0 1 7.537944 8.912806 797.432983
402 0 1 7.260670 8.559222 798.280029
403 0 1 6.974170 8.261034 799.148010
404 0 1 6.627430 8.151334 800.088013
405 0 1 6.330880 7.914986 800.994995
406 0 1 6.158820 7.483309 801.898987
407 0 1 5.846960 7.154063 802.664978
408 0 1 5.601600 6.857000 803.582031
409 0 1 5.317480 6.857490 804.502991
410 0 1 4.989280 7.129942 805.358032
411 0 1 4.588130 7.346963 806.151978
412 0 1 4.145280 7.310515 806.962036
413 0 1 3.949630 7.296622 807.888000
414 0 1 3.604660 7.336073 808.818970
415 0 1 3.343100 7.343297 809.731995
416 0 1 3.207580 7.442202 810.697021
417 0 1 3.034630 7.981668 811.458008
418 0 1 3.284560 8.308435 812.353027
419 0 1 3.616790 8.564364 813.182983
420 0 1 3.853750 8.713377 814.135010
421 0 1 4.072370 9.070630 815.015991
422 0 1 3.985520 9.043210 815.955994
423 0 1 3.592050 8.845451 816.849976
424 0 1 3.467800 8.912440 817.849976
425 0 1 3.625360 8.552429 818.718994
426 0 1 3.724150 8.018169 819.547974
427 0 1 3.673010 7.413479 820.247009
428 0 1 3.627180 6.951480 821.057983
429 0 1 3.534170 6.795530 822.020996
430 0 1 3.702200 6.645480 822.908997
431 0 1 3.780820 6.314550 823.757996
432 0 1 4.003220 5.651450 824.462036
433 0 1 4.121830 5.020510 825.239990
434 0 1 4.371520 4.351840 825.906006
435 0 1 4.751990 4.145660 826.768982
436 0 1 4.878790 3.899770 827.658020
437 0 1 4.766920 3.796920 828.630005
438 0 1 4.646820 3.581050 829.526978
439 0 1 4.753500 3.583990 830.481018
440 0 1 4.768760 3.585070 831.466003
441 0 1 4.667750 3.969610 832.414001
442 0 1 4.579410 4.631990 833.129028
443 0 1 4.485520 5.186800 833.846008
444 0 1 4.455300 5.656510 834.697021
445 0 1 4.261760 5.900010 835.585022
446 0 1 4.350000 6.044650 836.497986
447 0 1 4.656730 6.444340 837.370972
448 0 1 5.296950 6.900450 838.005981
449 0 1 6.011030 7.137749 838.596985
450 0 1 6.901790 7.447574 838.377014
451 0 1 7.862755 7.675261 838.214966
452 0 1 8.778646 7.886967 837.797974
453 0 1 9.623900 7.980905 837.348999
454 0 1 10.139460 8.106301 836.583008
455 0 1 11.014170 8.275784 836.197998
456 0 1 11.686650 8.241290 835.494995
457 0 1 12.141970 8.643895 834.739014
458 0 1 12.462530 8.928052 833.900024
459 0 1 12.897170 9.448630 833.179016
460 0 1 13.243219 9.669390 832.349976
461 0 1 13.737881 9.662730 831.502991
462 0 1 13.815220 9.447780 830.583008
463 0 1 13.509809 8.903875 829.822021
464 0 1 13.412160 8.631431 828.858032
465 0 1 13.241320 8.196051 828.031982
466 0 1 13.149830 7.864758 827.145020
467 0 1 12.888850 7.831287 826.210022
468 0 1 12.392080 7.925260 825.385986
469 0 1 11.977630 8.132594 824.507996
470 0 1 11.679340 8.120679 823.601013
471 0 1 11.684930 8.275684 822.601013
472 0 1 11.516260 8.399292 821.666992
473 0 1 11.396290 8.390716 820.632996
474 0 1 11.237940 8.056135 819.742004
475 0 1 11.209470 7.920251 818.754028
476 0 1 11.308120 8.124458 817.770996
477 0 1 11.256220 8.301685 816.859985
478 0 1 11.045710 8.187512 815.947021
479 0 1 10.858750 8.025202 814.989990
480 0 1 10.651890 7.701384 814.125000
481 0 1 10.305130 7.487593 813.306030
482 0 1 10.037700 7.470879 812.421997
483 0 1 9.819460 7.552469 811.492004
484 0 1 9.518760 7.865378 810.588989
485 0 1 9.000620 8.255038 809.867004
486 0 1 8.553323 8.631730 809.112000
487 0 1 8.297693 9.035590 808.299011
488 0 1 7.907661 9.420530 807.523987
489 0 1 7.517891 9.648040 806.674988
490 0 1 6.961650 9.883780 805.846985
491 0 1 6.672080 10.524270 805.135986
492 0 1 6.718380 11.095640 804.364014
493 0 1 6.847640 11.742640 803.660034
494 0 1 7.124897 12.334100 802.903992
495 0 1 7.361928 12.635670 802.025024
496 0 1 7.484404 12.694719 801.044983
497 0 1 7.533862 12.644210 800.044983
498 0 1 7.435822 12.705320 799.134033
499 0 1 7.406154 12.869150 798.174011
500 0 1 7.570225 12.825871 797.234009
501 0 1 7.930543 12.943689 796.354004
502 0 1 8.215217 13.071070 795.492004
503 0 1 8.273423 13.146590 794.549011
504 0 1 7.893106 12.991520 793.684021
505 0 1 7.573750 12.629601 792.841003
506 0 1 7.419819 12.125669 792.009033
507 0 1 7.222719 11.704730 791.188965
508 0 1 6.978110 11.446690 790.184021
509 0 1 6.269520 11.162780 789.539978
510 0 1 5.741700 10.864290 788.839966
511 0 1 5.385880 10.617520 787.877991
512 0 1 5.170500 10.207770 787.129028
513 0 1 5.069100 9.533650 786.455994
514 0 1 5.182180 9.055340 785.614990
515 0 1 5.274290 8.693538 784.687012
516 0 1 5.243840 8.468096 783.731995
517 0 1 5.172540 8.203515 782.835022
518 0 1 5.016490 7.919804 781.863037
519 0 1 4.832670 7.501751 780.968994
520 0 1 4.873410 7.114330 780.056030
521 0 1 4.914430 6.904310 779.051025
522 0 1 4.809280 6.519160 778.117004
523 0 1 4.806430 6.368580 777.161011
524 0 1 4.491860 6.259080 776.302979
525 0 1 4.309690 6.227930 775.341003
526 0 1 4.158180 6.121340 774.426025
527 0 1 3.964590 5.889250 773.528992
528 0 1 3.979170 5.369180 772.713013
529 0 1 4.408450 5.113710 771.882996
530 0 1 4.843230 4.813860 771.039978
531 0 1 5.499690 4.515810 770.354980
532 0 1 6.275370 4.573200 769.863037
533 0 1 6.987780 4.858080 769.161987
534 0 1 7.565777 4.979850 768.398987
535 0 1 7.810089 5.036330 767.542969
536 0 1 7.977475 5.211060 766.567993
537 0 1 8.167147 5.646150 765.702026
538 0 1 8.483227 5.702270 764.815979
539 0 1 8.622361 5.635370 763.823975
540 0 1 8.892506 5.751650 762.940979
541 0 1 9.015290 5.810900 761.979004
542 0 1 9.163090 5.613330 760.997009
543 0 1 9.033010 5.627910 760.054993
544 0 1 8.760794 5.867440 759.134033
545 0 1 8.488147 6.026510 758.172974
546 0 1 8.143013 6.157430 757.313965
547 0 1 7.851328 5.997350 756.411987
548 0 1 7.769594 6.090930 755.479004
549 0 1 7.533435 5.984380 754.536987
550 0 1 7.293205 5.994790 753.606995
551 0 1 7.124357 6.093570 752.700012
552 0 1 6.914740 6.285860 751.788025
553 0 1 6.724810 6.687840 750.932007
554 0 1 6.552680 7.055117 750.039978
555 0 1 6.433590 7.482721 749.213989
556 0 1 6.213330 7.830554 748.263000
557 0 1 6.019660 7.730265 747.288025
558 0 1 5.833210 7.859391 746.322021
559 0 1 5.402000 7.711805 745.440979
560 0 1 5.208920 7.350981 744.556030
561 0 1 5.047010 7.262635 743.549988
562 0 1 4.802230 7.258941 742.658997
563 0 1 4.527300 7.303254 741.677979
564 0 1 4.402340 7.173027 740.763000
565 0 1 4.040660 7.242633 739.856018
566 0 1 3.722950 7.360248 738.937988
567 0 1 3.708710 7.633325 738.026978
568 0 1 3.712820 7.750638 737.028992
569 0 1 3.723030 7.831717 736.096985
570 0 1 3.871780 7.943525 735.117981
571 0 1 4.014480 8.074067 734.207031
572 0 1 4.085170 8.067742 733.270020
573 0 1 4.121820 8.220716 732.320007
574 0 1 3.955490 8.268422 731.317993
575 0 1 4.024350 8.287386 730.286011
576 0 1 4.165140 8.330501 729.320984
577 0 1 4.243790 8.328810 728.318726
578 0 1 4.594330 8.278966 727.397827
579 0 1 5.061440 8.067313 726.580566
580 0 1 5.467500 7.726405 725.759033
581 0 1 5.768200 7.225266 725.038818
582 0 1 6.000160 6.661030 724.217102
583 0 1 6.288290 6.298880 723.312378
584 0 1 6.575970 6.402290 722.410400
585 0 1 6.791640 6.566880 721.443726
586 0 1 7.369068 6.514580 720.648987
587 0 1 7.816547 6.804540 719.841309
588 0 1 8.122092 7.084286 718.986572
589 0 1 8.285733 7.002883 717.990417
590 0 1 8.459587 6.654340 717.077393
591 0 1 8.692313 6.193540 716.156982
592 0 1 8.966267 5.807710 715.308716
593 0 1 9.099930 5.396000 714.447632
594 0 1 9.363190 5.425670 713.544189
595 0 1 9.621930 5.551990 712.585510
596 0 1 9.746810 5.776000 711.662720
597 0 1 10.260870 6.003690 710.805481
598 0 1 10.087990 6.357080 709.906616
599 0 1 9.968420 6.663930 709.000916
600 0 1 9.621890 6.924450 708.128601
601 0 1 9.273900 7.255608 707.281616
602 0 1 9.138190 7.300679 706.377319
603 0 1 9.052160 7.348051 705.403198
604 0 1 8.733467 7.540929 704.536316
605 0 1 8.780561 7.792397 703.577271
606 0 1 8.733969 8.168840 702.655823
607 0 1 8.469065 8.716887 701.877625
608 0 1 8.094617 8.793441 700.965576
609 0 1 8.215527 9.006570 699.991577
610 0 1 8.486143 9.119120 699.084717
611 0 1 8.822347 9.075320 698.181519
612 0 1 8.813978 9.064450 697.242676
613 0 1 8.976847 9.078700 696.240417
614 0 1 9.234680 9.478090 695.347107
615 0 1 9.551229 9.542690 694.440979
616 0 1 9.753960 9.605420 693.493103
617 0 1 9.870950 9.832070 692.597107
618 0 1 9.812400 9.851700 691.705383
619 0 1 9.971240 9.500770 690.776428
620 0 1 10.287760 9.499590 689.836792
621 0 1 10.334330 9.098410 688.951294
622 0 1 10.458281 8.877906 688.128174
623 0 1 10.594690 8.433955 687.228882
624 0 1 10.528470 8.076435 686.292786
625 0 1 10.486530 7.647825 685.417114
626 0 1 10.197850 7.025163 684.733521
627 0 1 10.095079 6.164450 684.273193
628 0 1 10.080540 5.275390 684.031189
629 0 1 10.124820 4.540140 683.441711
630 0 1 10.244160 3.853860 682.719116
631 0 1 10.429880 3.344490 681.942627
632 0 1 10.480761 3.215560 681.004700
633 0 1 10.470160 2.746710 680.115479
634 0 1 10.254890 2.296890 679.287720
635 0 1 10.153379 2.141820 678.338684
636 0 1 9.771441 2.222210 677.503296
637 0 1 9.348120 2.715620 676.783813
638 0 1 8.920892 3.125980 675.959778
639 0 1 8.235111 3.501970 675.294006
640 0 1 7.583659 3.834790 674.657410
641 0 1 7.127361 4.441690 674.025208
642 0 1 7.030966 4.732080 673.113098
643 0 1 6.726110 5.173650 672.241577
644 0 1 6.251840 5.782110 671.651978
645 0 1 5.572670 6.324280 671.226807
646 0 1 5.104450 6.812360 670.592285
647 0 1 4.529220 7.349493 670.009094
648 0 1 3.916040 7.731301 669.322388
649 0 1 3.474570 7.697814 668.442993
650 0 1 3.123010 7.496886 667.535828
651 0 1 2.939310 7.412347 666.597900
652 0 1 2.562630 7.152642 665.711121
653 0 1 2.468510 6.934400 664.753479
654 0 1 2.708540 7.118959 663.811218
655 0 1 3.016190 7.014116 662.944275
656 0 1 3.269720 6.965260 661.958008
657 0 1 3.465670 6.891640 661.030579
658 0 1 3.502890 6.867290 660.084106
659 0 1 3.335680 6.832720 659.106689
660 0 1 3.226900 6.526690 658.232788
661 0 1 3.464270 6.294670 657.307495
662 0 1 3.647080 5.918680 656.364990
663 0 1 3.903420 5.903940 655.427307
664 0 1 4.435520 5.743050 654.643127
665 0 1 4.780180 5.326140 653.856995
666 0 1 5.134120 4.876770 653.004578
667 0 1 5.395340 4.654740 652.055115
668 0 1 5.588560 4.171580 651.260925
669 0 1 5.594070 3.800710 650.371094
670 0 1 5.616940 3.248910 649.531189
671 0 1 5.595370 3.037900 648.606323
672 0 1 5.642770 2.710190 647.745605
673 0 1 5.684790 2.503480 646.839294
674 0 1 5.763600 2.521890 645.846008
675 0 1 5.955730 2.817810 644.914124
676 0 1 5.970080 3.254750 644.000610
677 0 1 6.165870 3.763900 643.212402
678 0 1 6.549000 4.183180 642.370117
679 0 1 7.113554 4.294080 641.541016
680 0 1 7.647466 4.549640 640.753418
681 0 1 8.131340 4.807140 639.988220
682 0 1 8.611708 5.025930 639.194702
683 0 1 9.014740 5.437200 638.413147
684 0 1 9.397320 5.968270 637.737488
685 0 1 9.419890 6.485590 636.949768
686 0 1 9.911120 7.156114 636.476379
687 0 1 10.529670 7.824973 636.093384
688 0 1 10.863920 8.225570 635.257874
689 0 1 10.867120 8.378166 634.344482
690 0 1 10.836810 8.154969 633.380066
691 0 1 10.754160 7.697379 632.557861
692 0 1 10.634980 7.067272 631.773743
693 0 1 10.223170 6.442700 631.192078
694 0 1 9.843781 5.689340 630.678894
695 0 1 9.325010 5.038660 630.144348
696 0 1 8.797827 4.459370 629.494751
697 0 1 8.273538 4.251840 628.720093
698 0 1 7.883119 4.227390 627.880554
699 0 1 7.350604 4.166960 627.049866
700 0 1 6.727020 4.375440 626.367981
701 0 1 6.230910 4.716510 625.640564
702 0 1 5.855960 5.137860 624.837769
703 0 1 5.582100 5.243230 623.962524
704 0 1 5.183900 5.515580 623.125183
705 0 1 4.844050 5.502450 622.304993
706 0 1 4.729510 5.496110 621.315430
707 0 1 4.646510 5.349930 620.335388
708 0 1 4.639950 5.475570 619.368286
709 0 1 4.525950 5.441370 618.420593
710 0 1 4.573100 5.281510 617.462524
711 0 1 4.748900 5.341490 616.528076
712 0 1 4.889350 5.581180 615.568481
713 0 1 5.127350 5.754780 614.616516
714 0 1 5.194710 6.132490 613.720703
715 0 1 5.301810 6.608920 612.883728
716 0 1 5.486290 6.946220 612.040710
717 0 1 5.834690 7.147065 611.174805
718 0 1 6.278020 7.443217 610.396301
719 0 1 6.987440 7.587316 609.749695
720 0 1 7.720845 7.627417 609.105591
721 0 1 8.479355 7.726786 608.467224
722 0 1 9.159850 8.091136 607.874695
723 0 1 9.682610 8.268359 607.029785
724 0 1 10.136380 8.440922 606.202820
725 0 1 10.590570 8.820829 605.412598
726 0 1 11.142900 8.981756 604.655029
727 0 1 11.496410 9.131130 603.772888
728 0 1 11.806750 8.870506 602.875122
729 0 1 11.736100 8.675358 601.893188
730 0 1 11.486270 8.514430 600.926270
731 0 1 11.364340 8.284550 599.977783
732 0 1 11.331190 7.733774 599.202576
733 0 1 11.067310 7.375724 598.337769
734 0 1 10.547980 7.033435 597.627930
735 0 1 10.061820 6.852170 596.834778
736 0 1 9.449290 7.090309 596.139282
737 0 1 8.818148 7.140839 595.475525
738 0 1 8.154882 7.436660 594.821472
739 0 1 7.825061 8.002294 594.048401
740 0 1 7.646174 8.412296 593.205811
741 0 1 7.877070 8.858376 592.328125
742 0 1 8.007808 9.196490 591.414673
743 0 1 8.125409 9.454720 590.473999
744 0 1 8.566593 9.489140 589.621582
745 0 1 9.021340 9.332530 588.746887
746 0 1 9.532220 9.274640 587.978577
747 0 1 10.113260 9.156690 587.190491
748 0 1 10.793250 8.784956 586.529480
749 0 1 11.332610 8.299822 585.775085
750 0 1 11.795210 8.000507 584.993896
751 0 1 12.209470 7.461831 584.262878
752 0 1 12.661540 6.869050 583.549683
753 0 1 12.986870 6.547940 582.695312
754 0 1 13.373899 6.274170 581.909485
755 0 1 13.876860 6.146830 581.175720
756 0 1 14.085780 6.224180 580.219116
757 0 1 13.847589 6.333680 579.228088
758 0 1 13.856020 6.191920 578.296692
759 0 1 13.947980 6.148180 577.336914
760 0 1 13.937480 6.223470 576.298584
761 0 1 13.879440 6.100710 575.365784
762 0 1 13.829700 5.928780 574.419678
763 0 1 13.570000 5.743740 573.481995
764 0 1 13.206020 5.513720 572.594727
765 0 1 12.717370 5.416400 571.761475
766 0 1 12.420210 5.483590 570.799194
767 0 1 12.162180 5.496680 569.870728
768 0 1 11.879290 5.550890 568.962219
769 0 1 11.452940 5.765630 568.101990
770 0 1 10.860130 5.951610 567.324280
771 0 1 10.385460 6.083250 566.530823
772 0 1 9.717710 5.963190 565.811523
773 0 1 8.910004 5.882960 565.269592
774 0 1 8.277988 5.767840 564.507385
775 0 1 7.712144 5.566640 563.675598
776 0 1 7.106071 5.344380 562.975708
777 0 1 6.581390 5.043100 562.217712
778 0 1 6.128650 4.544430 561.575928
779 0 1 5.673730 4.100450 560.806885
780 0 1 5.382100 3.775330 559.968018
781 0 1 4.950790 3.402110 559.263611
782 0 1 4.632620 3.142940 558.353271
783 0 1 4.210690 3.213300 557.518982
784 0 1 4.079250 3.238250 556.552368
785 0 1 4.169420 3.091110 555.614990
786 0 1 4.332270 3.178960 554.698303
787 0 1 4.194310 3.302140 553.751831
788 0 1 3.981470 3.368770 552.781372
789 0 1 3.675050 3.744880 551.904419
790 0 1 3.304070 4.214430 551.113770
791 0 1 2.852430 4.517080 550.296814
792 0 1 2.479910 4.886000 549.440613
793 0 1 2.380910 5.290230 548.576416
794 0 1 2.166490 5.643580 547.659607