LAMMPS data file via MDAnalysis

        1000  atoms
        1000  bonds
        1000  angles
           0  dihedrals
           0  impropers

           1  atom types
           1  bond types
           1  angle types
           0  dihedral types
           0  improper types

0.000000 16.000000 xlo xhi
0.000000 16.000000 ylo yhi
0.000000 1257.000000 zlo zhi


Masses

1 1.000000

Atoms

1 0 1 6.074420 13.010370 444.089996
2 0 1 5.620780 12.954861 444.968994
3 0 1 5.116560 12.615990 445.705017
4 0 1 4.976490 11.977230 446.346985
5 0 1 4.891670 11.311460 447.026978
6 0 1 4.654020 10.639840 447.643982
7 0 1 4.406960 10.040430 448.346008
8 0 1 4.245820 9.351151 448.979980
9 0 1 4.103880 8.849717 449.819000
10 0 1 4.065460 8.211127 450.520996
11 0 1 4.217150 7.707049 451.289001
12 0 1 4.232340 7.649552 452.239014
13 0 1 4.498930 7.708981 453.123993
14 0 1 4.851910 7.720414 454.087006
15 0 1 5.203250 7.700362 454.983002
16 0 1 5.470000 7.902338 455.880005
17 0 1 6.068000 8.303049 456.661011
18 0 1 6.208260 8.759088 457.529999
19 0 1 6.412810 9.312750 458.320984
20 0 1 6.728130 9.807210 459.018005
21 0 1 6.868280 10.470210 459.750000
22 0 1 6.870560 11.056730 460.587006
23 0 1 6.825370 11.598060 461.362000
24 0 1 6.975620 12.058220 462.210999
25 0 1 7.457177 12.464980 462.921997
26 0 1 7.824446 12.849160 463.742004
27 0 1 8.166299 13.147200 464.528992
28 0 1 8.545129 13.673639 465.362000
29 0 1 8.926488 13.769489 466.221008
30 0 1 9.436260 13.552420 467.044006
31 0 1 9.701020 13.321091 467.924011
32 0 1 9.759080 12.848230 468.783997
33 0 1 9.852480 12.605320 469.738007
34 0 1 9.920321 12.333600 470.697998
35 0 1 9.961040 12.120160 471.626007
36 0 1 9.845450 12.187090 472.617004
37 0 1 9.753460 12.226250 473.585022
38 0 1 9.398280 12.105340 474.424988
39 0 1 9.006110 11.953950 475.289978
40 0 1 8.609335 11.855340 476.184998
41 0 1 8.214084 11.667240 476.992004
42 0 1 7.977027 11.721120 477.938995
43 0 1 7.656673 11.718210 478.850006
44 0 1 7.063456 11.729730 479.585022
45 0 1 6.781680 11.683320 480.535004
46 0 1 6.717860 11.664190 481.468994
47 0 1 7.069584 11.269690 482.260986
48 0 1 7.415030 10.872630 483.074005
49 0 1 7.877242 10.609300 483.947998
50 0 1 8.025800 10.256240 484.812012
51 0 1 7.808164 9.990390 485.744995
52 0 1 7.643114 9.738920 486.681000
53 0 1 7.492123 9.211980 487.475006
54 0 1 7.436253 8.661776 488.251007
55 0 1 7.333289 8.055135 489.033997
56 0 1 7.240876 7.657967 489.862000
57 0 1 6.734080 7.090892 490.505005
58 0 1 6.557630 6.563400 491.322998
59 0 1 6.535050 5.982500 492.083008
60 0 1 6.489600 5.450680 492.832001
61 0 1 6.575790 4.808010 493.604004
62 0 1 6.381180 4.403800 494.475006
63 0 1 6.592900 4.104640 495.367981
64 0 1 6.766060 3.971200 496.266998
65 0 1 6.897800 4.013560 497.226990
66 0 1 7.167744 4.107400 498.147003
67 0 1 7.377984 4.389260 499.039001
68 0 1 7.399807 4.673250 500.003998
69 0 1 7.381629 5.070470 500.893005
70 0 1 7.701828 5.708460 501.695984
71 0 1 8.054990 6.346850 502.265991
72 0 1 8.437127 7.017126 502.804993
73 0 1 8.537393 7.810686 503.341003
74 0 1 8.749968 8.512052 504.010010
75 0 1 9.017241 9.082400 504.707001
76 0 1 9.246400 9.349390 505.622986
77 0 1 9.537780 9.838090 506.432007
78 0 1 10.069530 10.388730 506.973999
79 0 1 10.215410 11.054090 507.635986
80 0 1 10.357270 11.715420 508.408997
81 0 1 10.465890 12.183460 509.248993
82 0 1 10.400120 12.402599 510.255981
83 0 1 10.568260 12.451970 511.239014
84 0 1 10.551840 12.181440 512.115967
85 0 1 10.626141 11.891010 513.033997
86 0 1 10.670470 11.849740 513.969971
87 0 1 10.549840 11.881540 514.945007
88 0 1 10.356550 11.690160 515.858032
89 0 1 10.382170 11.566530 516.836975
90 0 1 10.135640 11.249240 517.802979
91 0 1 10.121810 11.016460 518.703979
92 0 1 10.168560 10.920259 519.646973
93 0 1 10.199590 10.928570 520.648987
94 0 1 10.297720 10.934771 521.637024
95 0 1 10.104340 10.589630 522.455994
96 0 1 9.986500 10.592990 523.405029
97 0 1 9.855320 10.753560 524.358032
98 0 1 9.818810 10.606350 525.341003
99 0 1 9.717220 10.238210 526.252014
100 0 1 9.275200 9.663860 526.945007
101 0 1 8.783841 9.099760 527.535034
102 0 1 8.897192 8.697819 528.426025
103 0 1 8.886629 8.265084 529.299011
104 0 1 8.940529 7.944181 530.267395
105 0 1 9.178310 7.673158 531.179688
106 0 1 9.546650 7.863537 532.069214
107 0 1 9.941370 8.334439 532.821899
108 0 1 10.229820 8.625346 533.711426
109 0 1 10.474710 8.956968 534.596191
110 0 1 10.831820 9.180710 535.486023
111 0 1 11.081440 9.365280 536.382202
112 0 1 11.163230 9.448550 537.342529
113 0 1 11.040390 9.502760 538.337891
114 0 1 10.685710 9.469280 539.183105
115 0 1 10.268870 9.598060 540.024414
116 0 1 9.655800 9.719620 540.835815
117 0 1 9.031290 9.814440 541.536987
118 0 1 8.369832 10.012510 542.221313
119 0 1 7.826530 10.139900 543.057922
120 0 1 7.201474 10.238490 543.746582
121 0 1 6.642790 10.444580 544.599304
122 0 1 6.186990 10.543930 545.429016
123 0 1 6.044080 10.723860 546.349792
124 0 1 6.074050 10.709330 547.395508
125 0 1 5.835520 10.757860 548.343872
126 0 1 5.616490 10.931750 549.335571
127 0 1 5.322410 11.072150 550.298218
128 0 1 5.125660 11.403590 551.148315
129 0 1 5.026280 11.849220 551.966492
130 0 1 4.971980 12.053710 552.877686
131 0 1 5.033380 12.396130 553.749023
132 0 1 5.583290 12.604280 554.486877
133 0 1 6.267110 12.726370 555.104126
134 0 1 7.031418 12.708790 555.672729
135 0 1 7.863622 13.038240 556.292969
136 0 1 8.516528 13.080940 556.973389
137 0 1 9.053800 13.218460 557.735596
138 0 1 9.189020 13.529640 558.624268
139 0 1 9.389009 13.697830 559.579285
140 0 1 9.792080 13.624950 560.424316
141 0 1 10.108670 13.579170 561.285095
142 0 1 10.237830 13.380489 562.146423
143 0 1 10.121630 13.212270 563.078491
144 0 1 10.293240 12.952950 564.003174
145 0 1 10.452390 12.811220 564.903809
146 0 1 10.537610 12.930520 565.902527
147 0 1 10.517110 13.112209 566.838013
148 0 1 10.329720 13.341450 567.739502
149 0 1 10.105490 13.506860 568.693970
150 0 1 10.005170 13.594231 569.755310
151 0 1 10.056490 13.523560 570.679993
152 0 1 10.127370 13.346720 571.575684
153 0 1 10.079760 13.406530 572.533203
154 0 1 10.195660 13.494820 573.426208
155 0 1 9.857790 13.227610 574.265991
156 0 1 9.651030 12.881980 575.151001
157 0 1 9.207550 12.640720 575.981506
158 0 1 8.858507 12.256790 576.837891
159 0 1 8.359382 11.908020 577.590210
160 0 1 7.907045 11.553520 578.355103
161 0 1 7.540824 11.083179 579.147095
162 0 1 7.074335 10.710970 579.851013
163 0 1 6.710420 10.299800 580.615112
164 0 1 6.201630 10.108829 581.453003
165 0 1 6.011030 9.935410 582.353271
166 0 1 5.674460 9.722740 583.277283
167 0 1 5.308450 9.724860 584.129822
168 0 1 5.013020 10.080811 584.940796
169 0 1 4.962890 10.426510 585.865417
170 0 1 5.228800 10.514950 586.815979
171 0 1 5.431530 10.487720 587.758606
172 0 1 5.650710 10.602350 588.701416
173 0 1 5.749220 10.232100 589.551880
174 0 1 5.956980 9.672890 590.321106
175 0 1 6.134820 9.241570 591.199829
176 0 1 6.376360 9.043990 592.060120
177 0 1 6.519070 8.923376 592.949097
178 0 1 6.773840 8.977189 593.864075
179 0 1 7.112381 8.921589 594.828125
180 0 1 7.529203 8.810082 595.750488
181 0 1 8.043941 8.726420 596.612305
182 0 1 8.273758 8.822117 597.542175
183 0 1 8.632184 8.718961 598.454407
184 0 1 8.821414 8.766659 599.448608
185 0 1 9.137920 8.651239 600.368225
186 0 1 9.187720 8.682452 601.300476
187 0 1 9.098490 8.650030 602.308716
188 0 1 9.086900 8.666588 603.275391
189 0 1 9.282380 8.592194 604.226013
190 0 1 9.222150 8.232594 605.097717
191 0 1 8.971234 8.222761 606.018982
192 0 1 8.426061 8.520617 606.799805
193 0 1 8.147094 8.683567 607.729675
194 0 1 7.789284 8.639085 608.624512
195 0 1 7.504088 8.955110 609.510376
196 0 1 7.273809 9.180620 610.412415
197 0 1 6.882390 9.326560 611.261292
198 0 1 6.503910 9.586060 612.133179
199 0 1 6.142620 9.518920 613.075500
200 0 1 5.917000 9.240750 614.030396
201 0 1 5.887260 8.968010 614.944885
202 0 1 6.098620 8.835023 615.854004
203 0 1 5.964930 8.698324 616.872925
204 0 1 5.953140 8.436090 617.804016
205 0 1 6.194140 8.009623 618.586182
206 0 1 6.213080 7.563724 619.419312
207 0 1 6.474660 7.381223 620.338867
208 0 1 6.387010 7.130538 621.239929
209 0 1 6.445110 7.434252 622.153625
210 0 1 6.447510 7.740486 623.052551
211 0 1 6.114940 7.825182 623.920532
212 0 1 5.542290 7.679305 624.704529
213 0 1 4.958060 7.437136 625.459961
214 0 1 4.340320 7.287071 626.176941
215 0 1 3.805540 7.090702 627.065247
216 0 1 3.211740 6.787600 627.840515
217 0 1 2.761320 6.694070 628.705078
218 0 1 2.436380 6.532700 629.587646
219 0 1 2.118410 6.366700 630.462097
220 0 1 1.860760 6.393660 631.421143
221 0 1 1.544030 6.335050 632.285706
222 0 1 1.368420 6.148860 633.184753
223 0 1 1.472780 5.967370 634.123840
224 0 1 1.351410 6.175400 635.052490
225 0 1 1.295800 6.342870 635.997437
226 0 1 1.262190 6.484650 637.010376
227 0 1 1.479090 7.049685 637.703979
228 0 1 1.866780 7.575036 638.437561
229 0 1 2.177080 8.098389 639.258789
230 0 1 2.349970 8.418785 640.097290
231 0 1 2.679480 8.898413 640.981812
232 0 1 3.051770 8.948770 641.858887
233 0 1 3.482710 8.926080 642.752808
234 0 1 3.886770 8.974297 643.611572
235 0 1 4.559200 8.997210 644.408203
236 0 1 5.272850 8.950368 645.101929
237 0 1 5.955420 9.107660 645.789917
238 0 1 6.682370 9.581050 646.280579
239 0 1 7.314958 9.994340 646.861206
240 0 1 7.864571 10.492661 647.443604
241 0 1 8.194535 10.909800 648.269897
242 0 1 8.829614 11.025690 648.990295
243 0 1 9.253910 11.415820 649.780579
244 0 1 9.578830 12.031230 650.456299
245 0 1 9.725540 12.445880 651.322998
246 0 1 9.966970 12.436700 652.299072
247 0 1 10.154870 12.372440 653.202515
248 0 1 10.148140 12.262320 654.141418
249 0 1 10.014560 12.165831 655.108215
250 0 1 9.445810 11.950270 655.890869
251 0 1 8.792119 11.853670 656.632385
252 0 1 8.284647 11.920400 657.425781
253 0 1 7.940102 12.016911 658.319092
254 0 1 7.386218 12.230761 659.049194
255 0 1 6.614160 12.170480 659.635071
256 0 1 5.955400 11.937640 660.223022
257 0 1 5.190510 11.893560 660.879700
258 0 1 4.661280 11.602921 661.614990
259 0 1 4.355130 11.250680 662.492004
260 0 1 4.327290 10.875310 663.325012
261 0 1 4.510070 10.483160 664.271301
262 0 1 4.387150 10.115260 665.158203
263 0 1 4.415500 9.970010 666.081421
264 0 1 4.514560 9.689300 666.970093
265 0 1 4.255730 9.066250 667.688599
266 0 1 4.097820 8.586237 668.579590
267 0 1 3.943750 8.341440 669.483032
268 0 1 3.629560 8.408720 670.419678
269 0 1 3.580790 8.165140 671.399597
270 0 1 3.762640 7.801573 672.272827
271 0 1 3.920130 7.740999 673.276917
272 0 1 4.032380 7.853678 674.232483
273 0 1 3.967990 7.834222 675.245483
274 0 1 3.945470 7.758507 676.181702
275 0 1 3.786470 7.597853 677.102173
276 0 1 3.931370 7.265062 677.995117
277 0 1 4.106120 7.039873 678.962097
278 0 1 4.368370 6.682500 679.765869
279 0 1 4.599120 6.045590 680.438110
280 0 1 5.046710 5.484400 681.035522
281 0 1 5.478650 4.907430 681.675476
282 0 1 5.996550 4.433560 682.300110
283 0 1 6.648210 4.021620 682.904297
284 0 1 7.073100 3.687720 683.718872
285 0 1 7.312006 3.694970 684.661926
286 0 1 7.460589 3.659950 685.623474
287 0 1 7.901854 3.770910 686.552124
288 0 1 8.209071 4.106850 687.391296
289 0 1 8.324201 4.435290 688.294800
290 0 1 8.388664 4.733360 689.142822
291 0 1 8.651844 4.969660 690.023682
292 0 1 9.024040 5.228160 690.858032
293 0 1 9.069090 5.505130 691.804321
294 0 1 8.823565 5.999610 692.634033
295 0 1 8.491633 6.605510 693.328369
296 0 1 8.352943 7.350599 693.918396
297 0 1 8.315662 8.247146 694.400513
298 0 1 8.695406 8.725042 695.056213
299 0 1 8.680058 9.209380 695.938232
300 0 1 8.639455 9.496720 696.842102
301 0 1 8.714256 9.666740 697.805481
302 0 1 8.807456 9.470680 698.780090
303 0 1 8.837854 9.257510 699.680420
304 0 1 9.245090 8.980921 700.545166
305 0 1 9.485020 8.943851 701.466797
306 0 1 9.882800 9.052600 702.327087
307 0 1 10.334480 9.026280 703.149109
308 0 1 10.472910 8.723456 704.036377
309 0 1 10.534770 8.212922 704.861023
310 0 1 10.612610 7.848588 705.745422
311 0 1 10.664670 7.334289 706.591614
312 0 1 10.563810 6.720330 707.369873
313 0 1 10.072480 6.211130 707.981323
314 0 1 9.544030 5.851690 708.682922
315 0 1 8.960740 5.485110 709.471924
316 0 1 8.227289 5.154110 710.113586
317 0 1 7.635379 4.846710 710.802368
318 0 1 7.161091 4.672640 711.530518
319 0 1 6.719450 4.563060 712.342712
320 0 1 6.237820 4.138800 713.085205
321 0 1 5.741030 4.135850 713.900818
322 0 1 5.310660 4.248230 714.736877
323 0 1 4.969220 4.610850 715.518005
324 0 1 4.717160 5.155560 716.313904
325 0 1 4.634860 5.369280 717.225403
326 0 1 4.425810 5.730530 718.106812
327 0 1 4.111540 6.020760 719.015503
328 0 1 3.810480 6.434800 719.846924
329 0 1 3.572790 6.907830 720.587891
330 0 1 3.089740 7.027172 721.361084
331 0 1 2.789220 7.374209 722.234924
332 0 1 2.681450 7.807034 723.136475
333 0 1 2.661710 8.005879 724.068970
334 0 1 2.630180 7.971239 724.983887
335 0 1 2.741290 7.700176 725.913513
336 0 1 3.230390 7.744568 726.804504
337 0 1 3.563060 7.631715 727.636475
338 0 1 4.025030 7.471836 728.477722
339 0 1 4.448380 7.049192 729.348999
340 0 1 4.717640 6.755870 730.192993
341 0 1 5.050360 6.761350 731.091003
342 0 1 5.194850 6.572860 732.073975
343 0 1 5.196360 6.234890 732.973022
344 0 1 5.234240 6.135000 733.963013
345 0 1 4.602190 6.038520 734.713989
346 0 1 4.135970 6.091560 735.593994
347 0 1 3.801110 6.068830 736.461975
348 0 1 3.340640 6.016090 737.335022
349 0 1 2.992460 5.852650 738.268982
350 0 1 2.725130 5.818610 739.226990
351 0 1 2.830940 5.807980 740.197998
352 0 1 2.978420 5.581210 741.140015
353 0 1 2.859980 5.230110 742.054993
354 0 1 2.950130 4.826540 742.901001
355 0 1 3.348010 4.631940 743.783997
356 0 1 3.902440 4.426700 744.521973
357 0 1 4.331450 4.280570 745.339966
358 0 1 4.663530 4.211270 746.231018
359 0 1 5.023640 4.193310 747.098022
360 0 1 5.340510 4.479840 747.990967
361 0 1 5.473080 4.980390 748.776001
362 0 1 5.382550 5.570820 749.478027
363 0 1 5.236560 6.080190 750.299988
364 0 1 5.338570 6.472690 751.122009
365 0 1 5.544120 6.781250 752.018982
366 0 1 5.319170 7.007368 752.903015
367 0 1 5.041100 7.034522 753.825989
368 0 1 4.715800 7.066722 754.757019
369 0 1 4.563870 7.095300 755.740967
370 0 1 4.699830 7.252447 756.672974
371 0 1 5.125730 7.357901 757.630005
372 0 1 5.411200 7.376967 758.572021
373 0 1 5.944740 7.428087 759.419006
374 0 1 6.440060 7.208842 760.234985
375 0 1 6.919120 6.837960 760.971008
376 0 1 7.310966 6.408540 761.745972
377 0 1 7.798679 6.262290 762.613037
378 0 1 8.080103 5.867540 763.484009
379 0 1 8.407163 5.488810 764.348999
380 0 1 8.798373 5.225670 765.140015
381 0 1 9.288250 5.198250 765.960999
382 0 1 9.759610 5.297160 766.796997
383 0 1 9.678810 4.954430 767.735962
384 0 1 9.733270 4.548760 768.643005
385 0 1 9.928150 4.256310 769.547974
386 0 1 10.065550 4.104470 770.460022
387 0 1 9.954610 4.244830 771.388000
388 0 1 9.863650 4.358330 772.322998
389 0 1 10.052540 4.805940 773.179993
390 0 1 10.251340 4.920210 774.134033
391 0 1 10.717730 4.631740 774.911987
392 0 1 11.015050 4.472470 775.820007
393 0 1 11.439320 4.255850 776.716980
394 0 1 11.470770 4.067770 777.660034
395 0 1 11.415051 4.088820 778.598999
396 0 1 11.449800 4.095010 779.635986
397 0 1 11.517060 3.875730 780.588013
398 0 1 11.448420 3.928700 781.505005
399 0 1 11.383330 4.234420 782.484009
400 0 1 11.253150 4.622640 783.348022
401 0 1 10.844481 5.011640 784.083984
402 0 1 10.467150 5.417570 784.879028
403 0 1 9.880180 5.855130 785.712036
404 0 1 9.741070 6.213480 786.583984
405 0 1 9.590780 6.785410 787.311035
406 0 1 9.399360 7.587129 787.919983
407 0 1 8.950943 8.336958 788.479980
408 0 1 8.512411 8.929765 789.075989
409 0 1 8.269846 9.573170 789.813965
410 0 1 8.134585 9.990680 790.705994
411 0 1 7.662072 10.424231 791.488037
412 0 1 7.370005 10.969170 792.184021
413 0 1 7.478141 11.338150 793.075012
414 0 1 7.294234 11.389020 794.023987
415 0 1 7.299475 11.213320 795.002014
416 0 1 7.316414 11.052370 795.919006
417 0 1 7.492419 10.960190 796.903015
418 0 1 7.642428 11.065890 797.797974
419 0 1 7.827599 11.284389 798.695984
420 0 1 7.742982 11.626090 799.583984
421 0 1 7.719729 11.986890 800.445984
422 0 1 7.443287 12.433500 801.296997
423 0 1 6.993540 12.556820 802.174988
424 0 1 6.649370 12.686951 803.026001
425 0 1 6.442730 12.363490 803.911987
426 0 1 6.093080 11.766880 804.585999
427 0 1 5.869110 10.985200 805.164978
428 0 1 5.758490 10.241310 805.815979
429 0 1 6.060010 9.486830 806.354004
430 0 1 6.162970 8.820445 807.062988
431 0 1 6.373750 8.147929 807.713013
432 0 1 6.697560 7.690857 808.497009
433 0 1 6.758730 7.395255 809.395996
434 0 1 6.813930 7.263639 810.386963
435 0 1 6.806650 7.637444 811.264038
436 0 1 6.907000 7.996716 812.113037
437 0 1 6.861020 8.409877 812.932007
438 0 1 6.989550 9.156680 813.664978
439 0 1 7.056150 9.828720 814.328003
440 0 1 7.105378 10.667740 814.791992
441 0 1 6.937410 11.386300 815.473022
442 0 1 6.768490 11.800591 816.266968
443 0 1 6.539730 12.115829 817.198975
444 0 1 6.259770 12.357800 818.059021
445 0 1 6.120400 12.522360 818.968994
446 0 1 5.993350 12.875851 819.828003
447 0 1 6.272130 12.865720 820.780029
448 0 1 6.506770 12.364180 821.627014
449 0 1 6.503310 12.056140 822.520996
450 0 1 6.602130 11.768180 823.453979
451 0 1 6.504380 11.306760 824.354980
452 0 1 6.557300 10.882270 825.195007
453 0 1 6.119990 10.630950 826.096008
454 0 1 5.699820 10.149190 826.761963
455 0 1 5.134270 9.655820 827.294983
456 0 1 4.563310 9.052410 827.807007
457 0 1 3.951080 8.697727 828.457031
458 0 1 3.572020 8.423452 829.335999
459 0 1 3.267400 8.294609 830.182007
460 0 1 3.284530 8.095761 831.167969
461 0 1 3.281080 8.080330 832.114014
462 0 1 3.165400 8.321139 833.094971
463 0 1 3.033630 8.379012 834.039001
464 0 1 2.950320 8.345769 835.041016
465 0 1 3.005520 8.265378 835.932983
466 0 1 3.178480 8.108409 836.924011
467 0 1 3.492830 8.058016 837.893005
468 0 1 3.861540 8.223483 838.731995
469 0 1 4.270380 8.590508 839.510010
470 0 1 5.005990 8.940448 840.108032
471 0 1 5.651050 9.454610 840.554016
472 0 1 6.609620 9.872840 840.476990
473 0 1 7.541362 10.077780 840.250977
474 0 1 8.363507 10.313060 839.757019
475 0 1 9.090740 10.530920 839.140991
476 0 1 9.583390 10.644640 838.374023
477 0 1 10.054100 10.758610 837.515015
478 0 1 10.354790 10.867280 836.530029
479 0 1 10.639380 10.939000 835.547974
480 0 1 11.321800 10.839410 834.749023
481 0 1 11.936950 10.791950 834.033020
482 0 1 12.602730 10.788910 833.302979
483 0 1 12.909370 10.651110 832.341980
484 0 1 13.105511 10.412580 831.401978
485 0 1 13.331060 10.371260 830.440979
486 0 1 13.259040 10.585110 829.531982
487 0 1 13.158180 10.727790 828.591003
488 0 1 13.166370 10.894020 827.604004
489 0 1 13.322440 10.931280 826.635010
490 0 1 13.302170 10.920330 825.684998
491 0 1 12.662621 10.947570 824.974976
492 0 1 12.265181 10.675591 824.151001
493 0 1 11.883900 10.408350 823.287964
494 0 1 11.534081 10.122640 822.437012
495 0 1 11.254510 9.962660 821.573975
496 0 1 10.762920 10.037200 820.757019
497 0 1 10.400000 9.971350 819.828979
498 0 1 10.080481 9.743810 818.890991
499 0 1 10.002660 9.341920 818.014038
500 0 1 9.802610 9.027750 817.114014
501 0 1 9.826710 8.758000 816.190979
502 0 1 9.825070 8.573122 815.323975
503 0 1 9.689130 8.339689 814.406982
504 0 1 9.610820 8.451293 813.458008
505 0 1 9.780170 8.436084 812.495972
506 0 1 9.933680 8.585851 811.497986
507 0 1 9.861150 8.698214 810.523010
508 0 1 9.478520 8.932068 809.658020
509 0 1 8.950821 9.181730 808.929016
510 0 1 8.319529 9.125020 808.231018
511 0 1 7.726827 9.037290 807.478027
512 0 1 7.284737 8.988741 806.596008
513 0 1 7.052274 8.661719 805.672974
514 0 1 6.910810 8.400402 804.723999
515 0 1 6.930390 8.330707 803.765015
516 0 1 7.013676 8.175954 802.775024
517 0 1 7.177092 8.181574 801.830994
518 0 1 7.465097 8.349541 800.997986
519 0 1 7.619537 8.467524 800.062012
520 0 1 7.644716 8.437944 799.093018
521 0 1 7.460477 8.627936 798.162964
522 0 1 7.167936 8.838672 797.283020
523 0 1 7.117819 8.885301 796.325012
524 0 1 7.154068 8.767699 795.364014
525 0 1 7.306716 8.624987 794.380981
526 0 1 7.181844 8.650331 793.390015
527 0 1 6.672500 8.816949 792.604004
528 0 1 6.474780 8.929537 791.655029
529 0 1 6.115820 9.118970 790.818970
530 0 1 5.748300 9.179680 789.888000
531 0 1 5.324880 9.342580 789.051025
532 0 1 4.990050 9.752190 788.252014
533 0 1 4.733860 9.981880 787.343994
534 0 1 4.636850 9.976730 786.367981
535 0 1 4.723120 10.198780 785.463989
536 0 1 4.660120 10.424640 784.518005
537 0 1 4.288240 10.890030 783.773987
538 0 1 4.183660 11.483590 783.018005
539 0 1 4.282710 12.249250 782.403015
540 0 1 4.502390 13.050580 781.934021
541 0 1 4.873190 13.668631 781.304016
542 0 1 5.045520 14.041280 780.359985
543 0 1 5.329530 14.198570 779.431030
544 0 1 5.760760 14.083860 778.567993
545 0 1 6.149430 13.987150 777.742981
546 0 1 6.337420 13.682640 776.884033
547 0 1 6.678880 13.381720 776.108032
548 0 1 7.054721 12.985590 775.309021
549 0 1 7.286902 12.579880 774.502991
550 0 1 7.579824 12.264020 773.687988
551 0 1 7.628056 12.070530 772.780029
552 0 1 7.906823 11.648350 771.934021
553 0 1 8.212310 11.006500 771.296021
554 0 1 8.628584 10.282340 770.896973
555 0 1 8.605902 9.526320 770.325989
556 0 1 8.954513 8.901199 769.677979
557 0 1 9.088610 7.998313 769.561035
558 0 1 9.254550 7.077453 769.333984
559 0 1 9.894000 6.418160 769.007019
560 0 1 10.324250 5.852610 768.408997
561 0 1 10.731200 5.194530 767.731995
562 0 1 10.795750 4.893080 766.750977
563 0 1 10.714980 4.688130 765.781006
564 0 1 10.607200 4.699250 764.813965
565 0 1 10.809950 4.990600 763.929993
566 0 1 10.888520 5.151410 763.028992
567 0 1 11.042191 5.685220 762.200989
568 0 1 11.175110 6.071620 761.343994
569 0 1 11.395480 6.578040 760.544006
570 0 1 11.487720 7.138265 759.632019
571 0 1 11.597380 7.529397 758.791016
572 0 1 11.340240 7.796531 757.865967
573 0 1 11.029460 7.610510 756.958984
574 0 1 10.692039 7.447455 756.098999
575 0 1 10.086960 7.367429 755.377991
576 0 1 9.610929 7.431165 754.544983
577 0 1 9.225410 7.429260 753.653992
578 0 1 8.640218 7.479781 752.924011
579 0 1 8.128315 7.508238 752.039978
580 0 1 7.517554 7.617218 751.351990
581 0 1 7.153103 7.565604 750.401001
582 0 1 6.981240 7.300934 749.510986
583 0 1 6.953800 7.233978 748.518005
584 0 1 6.962960 7.125538 747.591003
585 0 1 7.055509 6.874590 746.643982
586 0 1 7.123335 6.797410 745.721985
587 0 1 7.369723 6.906200 744.695007
588 0 1 7.471136 6.863610 743.773987
589 0 1 7.639272 6.806750 742.752991
590 0 1 7.676009 6.925630 741.749023
591 0 1 7.870100 6.697360 740.828979
592 0 1 8.095819 6.594810 739.916992
593 0 1 8.419452 6.328670 739.030029
594 0 1 8.769127 6.204700 738.088013
595 0 1 8.783175 6.341840 737.120972
596 0 1 8.889777 6.231470 736.177002
597 0 1 9.143350 6.145760 735.263000
598 0 1 9.438970 6.371880 734.358032
599 0 1 9.457010 6.740040 733.458984
600 0 1 9.419770 7.168519 732.630005
601 0 1 9.325470 7.490269 731.752014
602 0 1 9.166870 7.589749 730.848022
603 0 1 9.230659 7.635681 729.945984
604 0 1 9.292640 7.282523 729.041016
605 0 1 9.305330 7.024573 728.101196
606 0 1 9.428140 6.990250 727.143188
607 0 1 9.643690 7.147632 726.235413
608 0 1 9.554470 7.174412 725.306580
609 0 1 9.868990 7.238020 724.317200
610 0 1 10.021640 7.298648 723.328979
611 0 1 10.421870 7.204574 722.440918
612 0 1 10.887450 6.838540 721.689087
613 0 1 11.509560 6.647830 721.005371
614 0 1 12.134020 6.495990 720.273621
615 0 1 12.785900 6.375680 719.554382
616 0 1 13.068689 6.347530 718.616516
617 0 1 13.044001 6.225880 717.656982
618 0 1 13.024710 6.206660 716.687317
619 0 1 12.733220 6.060150 715.772827
620 0 1 12.247250 6.070430 714.982178
621 0 1 11.922689 6.144850 714.054810
622 0 1 11.663010 6.171680 713.155823
623 0 1 11.722170 6.538090 712.270508
624 0 1 11.815480 6.660340 711.350586
625 0 1 12.111570 6.956320 710.475220
626 0 1 12.753510 7.085336 709.798279
627 0 1 13.417950 7.012115 709.067505
628 0 1 13.763200 6.743720 708.185181
629 0 1 14.065990 7.025358 707.330322
630 0 1 14.198009 7.050706 706.401001
631 0 1 14.124100 7.197539 705.475586
632 0 1 13.951440 7.418886 704.475708
633 0 1 13.767920 7.700960 703.615479
634 0 1 13.579781 7.739340 702.707031
635 0 1 13.346189 7.855226 701.830566
636 0 1 13.100100 7.793081 700.895020
637 0 1 12.997220 7.845299 699.983093
638 0 1 12.881860 7.955911 699.044312
639 0 1 12.950240 7.568893 698.141296
640 0 1 12.967979 6.978350 697.372009
641 0 1 13.013750 6.324410 696.642517
642 0 1 13.000130 5.759880 695.814209
643 0 1 12.903400 5.396470 694.886719
644 0 1 12.619050 4.997440 694.074890
645 0 1 12.274759 4.605040 693.298889
646 0 1 12.236100 4.565590 692.319092
647 0 1 12.138121 4.709660 691.358521
648 0 1 11.978910 5.165990 690.512695
649 0 1 11.798550 5.711040 689.733276
650 0 1 11.820330 6.069180 688.837708
651 0 1 12.121010 6.104080 687.936218
652 0 1 12.597830 6.333800 687.093384
653 0 1 13.023870 6.715480 686.303711
654 0 1 13.332040 7.001977 685.389893
655 0 1 13.588540 7.276846 684.514526
656 0 1 13.485809 7.574908 683.660828
657 0 1 13.246260 7.890758 682.776794
658 0 1 13.187160 8.129202 681.844604
659 0 1 13.243930 8.201065 680.880920
660 0 1 13.133989 8.253669 679.924194
661 0 1 13.308701 8.396392 679.034302
662 0 1 13.538890 8.198287 678.138794
663 0 1 13.672279 8.055699 677.183228
664 0 1 13.822750 7.956942 676.230896
665 0 1 14.095640 7.870664 675.343994
666 0 1 14.280479 7.601511 674.493530
667 0 1 14.060790 7.267979 673.648621
668 0 1 14.006050 6.793450 672.869690
669 0 1 13.757180 6.301690 672.067688
670 0 1 13.392660 5.807930 671.293884
671 0 1 13.304911 5.664810 670.355896
672 0 1 13.151630 5.485250 669.438904
673 0 1 12.920700 5.296580 668.554688
674 0 1 12.624760 5.366790 667.645325
675 0 1 12.489491 5.734380 666.693481
676 0 1 12.388670 6.136890 665.869324
677 0 1 12.320290 6.500500 664.949585
678 0 1 12.144630 6.683450 664.002502
679 0 1 11.967480 6.758910 663.052673
680 0 1 11.562799 6.908000 662.165222
681 0 1 11.554501 7.064527 661.173584
682 0 1 11.810290 7.075417 660.249023
683 0 1 11.792010 7.112212 659.243225
684 0 1 11.776080 7.200837 658.335876
685 0 1 11.501369 7.507386 657.416077
686 0 1 11.221980 7.862275 656.569580
687 0 1 10.856050 8.392020 655.867310
688 0 1 10.506860 8.974101 655.124878
689 0 1 10.238740 8.982004 654.143311
690 0 1 10.159650 8.798858 653.175171
691 0 1 10.255360 8.896546 652.251709
692 0 1 10.379880 9.221140 651.377014
693 0 1 10.300850 9.700280 650.515503
694 0 1 10.248470 10.296610 649.801697
695 0 1 10.122030 10.700010 648.898987
696 0 1 10.138720 10.907180 647.936829
697 0 1 10.008690 10.922670 646.969788
698 0 1 9.881540 10.907840 646.019714
699 0 1 9.471930 10.880070 645.079529
700 0 1 8.916764 10.792300 644.303894
701 0 1 8.261259 10.565990 643.618713
702 0 1 7.758809 10.218090 642.742371
703 0 1 7.330307 9.899210 641.922974
704 0 1 6.923560 9.384850 641.119873
705 0 1 6.652620 8.905536 640.324829
706 0 1 6.426550 8.594693 639.362000
707 0 1 6.080550 8.117679 638.634705
708 0 1 5.740570 7.621424 637.873474
709 0 1 5.261020 7.233525 637.142273
710 0 1 4.876570 6.750950 636.409546
711 0 1 4.702680 6.470050 635.535095
712 0 1 4.327980 6.470900 634.691711
713 0 1 3.921790 6.829260 633.853577
714 0 1 4.040650 7.279243 632.964172
715 0 1 4.060470 7.672404 632.096313
716 0 1 4.425620 7.925561 631.225342
717 0 1 5.072080 7.970372 630.479492
718 0 1 5.570590 7.406048 629.692139
719 0 1 6.128210 6.982750 628.978027
720 0 1 6.804520 6.793680 628.235657
721 0 1 7.288863 6.595700 627.353455
722 0 1 7.937978 6.350130 626.716614
723 0 1 8.426029 6.045100 625.928955
724 0 1 8.787773 5.674010 625.141418
725 0 1 8.766890 5.180620 624.295105
726 0 1 8.820589 5.041340 623.285645
727 0 1 8.704826 4.925910 622.377625
728 0 1 8.737378 4.761250 621.414734
729 0 1 8.547850 4.617580 620.493408
730 0 1 8.518899 4.729370 619.519592
731 0 1 8.510902 4.595000 618.576172
732 0 1 8.488133 4.361410 617.651428
733 0 1 8.308325 4.375610 616.715088
734 0 1 8.237467 4.612710 615.781677
735 0 1 8.147755 4.857610 614.825317
736 0 1 8.276855 4.838150 613.880005
737 0 1 8.041076 4.502560 612.979675
738 0 1 7.968185 4.134110 612.055298
739 0 1 8.057981 4.121330 611.096802
740 0 1 8.199382 4.089960 610.195496
741 0 1 8.480707 3.932040 609.233215
742 0 1 8.779053 3.988530 608.294189
743 0 1 9.005570 3.828530 607.323975
744 0 1 9.508650 3.733140 606.547424
745 0 1 9.968830 3.569030 605.673889
746 0 1 10.387470 3.375540 604.852478
747 0 1 10.763360 3.270280 603.969421
748 0 1 11.066401 3.361580 603.043518
749 0 1 11.404760 3.276610 602.143616
750 0 1 11.575100 3.148820 601.222412
751 0 1 11.357470 3.387620 600.366516
752 0 1 11.146800 3.800810 599.539673
753 0 1 11.224180 4.298690 598.715820
754 0 1 11.213990 4.631990 597.803528
755 0 1 11.126150 5.110420 596.945312
756 0 1 11.029510 5.169610 595.984131
757 0 1 11.201900 5.121810 595.022583
758 0 1 11.266710 5.186810 594.049622
759 0 1 11.445010 5.278640 593.117004
760 0 1 11.972830 5.611760 592.326294
761 0 1 12.480160 5.931300 591.572083
762 0 1 12.785749 6.103050 590.616577
763 0 1 12.762461 6.338340 589.694275
764 0 1 12.642321 6.662130 588.777222
765 0 1 12.583170 6.860890 587.821472
766 0 1 12.356791 7.146364 586.957214
767 0 1 12.080851 7.243335 586.031128
768 0 1 11.861860 7.253832 585.081177
769 0 1 11.954720 7.214738 584.103699
770 0 1 11.871500 7.113267 583.128906
771 0 1 11.941000 7.332082 582.188232
772 0 1 12.211420 7.807389 581.362793
773 0 1 12.557650 8.306197 580.616211
774 0 1 12.971130 8.693525 579.847412
775 0 1 13.425880 8.946402 579.015991
776 0 1 13.699830 9.075390 578.124695
777 0 1 13.794510 8.942939 577.147400
778 0 1 14.230160 8.820548 576.322388
779 0 1 14.239640 8.945188 575.297913
780 0 1 14.026159 9.155090 574.412720
781 0 1 13.806690 9.008780 573.458008
782 0 1 13.371830 9.223880 572.528931
783 0 1 13.154881 9.272300 571.621887
784 0 1 12.977160 9.050560 570.749023
785 0 1 12.591290 9.331760 569.831421
786 0 1 12.025420 9.309720 568.996399
787 0 1 11.639920 9.065940 568.093079
788 0 1 11.128520 8.973120 567.305176
789 0 1 10.656700 9.122030 566.504272
790 0 1 10.165180 9.244720 565.686279