LAMMPS data file via MDAnalysis

        1000  atoms
        1000  bonds
        1000  angles
           0  dihedrals
           0  impropers

           1  atom types
           1  bond types
           1  angle types
           0  dihedral types
           0  improper types

0.000000 16.000000 xlo xhi
0.000000 16.000000 ylo yhi
0.000000 1257.000000 zlo zhi


Masses

1 1.000000

Atoms

1 0 1 8.511581 11.220690 453.720001
2 0 1 8.538626 11.783760 454.502014
3 0 1 8.591002 12.138550 455.458984
4 0 1 8.488661 12.438060 456.351990
5 0 1 8.777517 12.776569 457.166016
6 0 1 9.281880 13.062290 457.989014
7 0 1 9.968120 13.177900 458.718994
8 0 1 10.401840 13.172260 459.601013
9 0 1 10.751200 12.950100 460.487000
10 0 1 11.131570 12.823620 461.356995
11 0 1 11.250580 12.432130 462.238007
12 0 1 11.287010 12.114790 463.203003
13 0 1 10.990129 11.852650 464.104004
14 0 1 10.702300 11.750900 465.016998
15 0 1 10.633490 11.613091 465.951996
16 0 1 10.418880 11.672200 466.929016
17 0 1 10.525140 11.857010 467.882019
18 0 1 10.482620 12.077900 468.804016
19 0 1 10.712040 11.987100 469.765991
20 0 1 10.919130 12.140690 470.721985
21 0 1 11.180960 12.094250 471.641998
22 0 1 11.352070 12.102310 472.565979
23 0 1 11.843670 11.846940 473.330994
24 0 1 12.223270 11.786690 474.239014
25 0 1 12.513390 11.656860 475.130981
26 0 1 12.676809 11.479480 476.024994
27 0 1 12.710711 11.656549 476.983002
28 0 1 12.626329 11.864600 477.906982
29 0 1 12.639570 12.316880 478.731995
30 0 1 12.462851 12.536261 479.615997
31 0 1 12.296801 12.243370 480.539001
32 0 1 12.312190 12.161950 481.470001
33 0 1 12.319040 12.062590 482.419006
34 0 1 12.251369 11.854950 483.416016
35 0 1 12.110450 11.738560 484.364990
36 0 1 12.166980 11.687120 485.358002
37 0 1 12.353860 11.668410 486.306000
38 0 1 12.208200 11.592400 487.285004
39 0 1 11.940170 11.448530 488.192993
40 0 1 11.567350 11.211880 489.078003
41 0 1 11.270639 11.095430 489.985992
42 0 1 11.164910 11.043510 490.989014
43 0 1 10.963030 10.814110 491.858002
44 0 1 10.654900 10.805429 492.748993
45 0 1 10.405730 10.432560 493.565002
46 0 1 10.249250 10.005060 494.380981
47 0 1 10.058800 9.740690 495.322998
48 0 1 9.978860 9.707290 496.306000
49 0 1 9.989360 9.935890 497.261993
50 0 1 10.169100 10.053840 498.229980
51 0 1 10.100580 9.868999 499.238007
52 0 1 10.256120 9.682840 500.205017
53 0 1 10.474820 9.553300 501.143005
54 0 1 10.994180 9.701520 501.908997
55 0 1 11.488530 9.432250 502.652008
56 0 1 11.950610 9.097400 503.428009
57 0 1 12.595520 9.059590 504.134003
58 0 1 13.213760 8.896594 504.890015
59 0 1 13.630440 8.847525 505.697998
60 0 1 13.921480 8.960939 506.628998
61 0 1 13.731000 9.100820 507.544983
62 0 1 13.886850 9.357720 508.489990
63 0 1 13.832080 9.402960 509.454010
64 0 1 13.759430 9.306320 510.423004
65 0 1 13.330620 9.510550 511.330017
66 0 1 13.108311 9.653590 512.250977
67 0 1 13.153049 10.208200 513.068970
68 0 1 12.837510 10.675370 513.862976
69 0 1 12.603300 11.406610 514.421997
70 0 1 12.382160 11.990710 515.117004
71 0 1 11.993250 12.580210 515.835999
72 0 1 11.700640 13.076070 516.635010
73 0 1 11.532850 13.405809 517.560974
74 0 1 11.479530 13.250950 518.484985
75 0 1 11.248671 13.126560 519.440002
76 0 1 11.236990 13.317141 520.356018
77 0 1 11.136400 13.362860 521.288025
78 0 1 11.092960 13.230511 522.145020
79 0 1 11.199720 13.058690 523.064026
80 0 1 11.408540 12.877251 523.955017
81 0 1 11.626790 12.526450 524.971008
82 0 1 11.747430 12.144870 525.810974
83 0 1 12.125350 11.695960 526.580994
84 0 1 12.699950 11.436150 527.318970
85 0 1 13.254930 11.031040 528.009033
86 0 1 13.668150 10.793020 528.887878
87 0 1 13.701590 10.502760 529.807190
88 0 1 13.732140 10.208850 530.681824
89 0 1 13.830750 9.531550 531.401733
90 0 1 14.323210 9.070180 532.136292
91 0 1 14.718170 8.979946 533.003174
92 0 1 14.834520 9.015330 533.991211
93 0 1 14.857040 9.013790 534.939819
94 0 1 14.631320 8.698893 535.828491
95 0 1 14.253300 8.418490 536.663513
96 0 1 14.269180 8.092713 537.589783
97 0 1 14.096340 7.951141 538.534485
98 0 1 13.598070 7.580626 539.310181
99 0 1 13.039460 7.208072 540.029602
100 0 1 12.420031 7.110687 540.699829
101 0 1 11.706841 6.950280 541.253296
102 0 1 10.881269 7.117786 541.770386
103 0 1 10.129800 7.304984 542.358521
104 0 1 9.577980 7.516729 543.103821
105 0 1 9.056830 7.447419 543.977600
106 0 1 8.507418 7.282448 544.729370
107 0 1 7.985082 7.030814 545.497375
108 0 1 7.419265 6.800150 546.222717
109 0 1 6.968950 6.745260 547.123474
110 0 1 6.322170 6.539000 547.850403
111 0 1 5.740990 6.494890 548.594421
112 0 1 5.255000 6.512260 549.364502
113 0 1 4.692970 6.586500 550.120422
114 0 1 4.184630 6.666620 550.972717
115 0 1 3.737880 6.875800 551.791504
116 0 1 3.428130 6.903890 552.638794
117 0 1 2.973610 6.960470 553.494080
118 0 1 2.652800 7.116604 554.438110
119 0 1 2.423360 7.092704 555.418701
120 0 1 2.579630 7.334529 556.320618
121 0 1 2.975060 7.543935 557.165710
122 0 1 3.351980 7.815426 557.986389
123 0 1 3.612720 8.013944 558.918091
124 0 1 3.926200 8.253882 559.870911
125 0 1 4.465560 8.298930 560.685303
126 0 1 4.924960 8.297967 561.629028
127 0 1 5.328170 8.455698 562.483887
128 0 1 5.576630 8.977864 563.314026
129 0 1 5.977010 8.968934 564.208923
130 0 1 6.471410 8.926309 564.981506
131 0 1 7.168368 9.115870 565.626404
132 0 1 7.771560 8.894118 566.348511
133 0 1 8.202824 8.750165 567.239624
134 0 1 8.499164 8.669077 568.209900
135 0 1 8.377408 8.722956 569.196594
136 0 1 8.383204 8.905325 570.129272
137 0 1 8.122264 8.900858 571.046814
138 0 1 7.778533 8.922561 571.912903
139 0 1 7.676101 9.066020 572.924988
140 0 1 7.368283 9.450310 573.728088
141 0 1 7.410421 9.993930 574.497314
142 0 1 7.397918 10.636620 575.233521
143 0 1 7.077463 11.121720 575.965576
144 0 1 6.704090 11.362470 576.873291
145 0 1 6.585590 11.393960 577.819885
146 0 1 6.402690 11.568790 578.716492
147 0 1 6.246920 11.352740 579.585876
148 0 1 5.804190 11.335600 580.483093
149 0 1 5.435580 11.355410 581.327881
150 0 1 5.191940 11.051360 582.221008
151 0 1 5.077630 10.804029 583.131287
152 0 1 4.908900 10.579170 584.056519
153 0 1 4.693980 10.154870 584.863403
154 0 1 4.175860 10.148900 585.646912
155 0 1 3.721080 10.196330 586.463989
156 0 1 3.398980 10.284750 587.338379
157 0 1 3.023310 10.458879 588.180420
158 0 1 2.781590 10.294070 589.173096
159 0 1 2.628980 10.256950 590.109131
160 0 1 2.466070 10.232620 591.075623
161 0 1 2.022600 10.203600 591.864075
162 0 1 1.785620 10.200930 592.771118
163 0 1 1.605110 10.129940 593.728271
164 0 1 1.621630 10.130030 594.688782
165 0 1 1.644890 10.225040 595.621216
166 0 1 1.882790 10.143940 596.567688
167 0 1 1.961840 10.148830 597.570801
168 0 1 2.333680 10.126890 598.510010
169 0 1 2.711450 10.259470 599.392395
170 0 1 3.067270 10.318439 600.344788
171 0 1 3.514510 10.157760 601.140808
172 0 1 4.150270 10.103420 601.942810
173 0 1 4.714470 10.057850 602.724731
174 0 1 5.113120 10.120320 603.612000
175 0 1 5.584920 10.071790 604.537231
176 0 1 6.082810 9.896290 605.397583
177 0 1 6.692520 9.790421 606.055603
178 0 1 7.564355 9.702560 606.623474
179 0 1 8.026431 9.610190 607.444275
180 0 1 8.593611 9.428500 608.239807
181 0 1 9.203310 8.973970 608.855713
182 0 1 9.797830 8.720193 609.639526
183 0 1 10.244420 8.774855 610.587524
184 0 1 10.637030 8.861172 611.442627
185 0 1 11.028390 8.955707 612.336975
186 0 1 11.028910 8.801107 613.273499
187 0 1 11.120800 8.444894 614.190796
188 0 1 11.265220 8.071389 615.071716
189 0 1 11.500510 7.791960 615.919495
190 0 1 11.344670 7.473218 616.843872
191 0 1 11.237289 7.402453 617.782898
192 0 1 11.073850 7.613653 618.652771
193 0 1 10.832700 8.173342 619.450562
194 0 1 10.916600 8.549311 620.351990
195 0 1 10.690990 8.466627 621.307800
196 0 1 10.781760 8.172779 622.202881
197 0 1 10.729340 7.803572 623.079895
198 0 1 10.840010 7.471121 624.006714
199 0 1 10.947930 7.399787 624.945435
200 0 1 11.282970 7.594181 625.810364
201 0 1 11.704720 7.735811 626.689636
202 0 1 12.066100 7.861491 627.633911
203 0 1 12.181120 8.204703 628.547791
204 0 1 12.294010 8.996075 629.204834
205 0 1 12.377530 9.651490 629.946289
206 0 1 12.681709 10.071280 630.776978
207 0 1 13.073040 10.337520 631.564697
208 0 1 13.107730 10.751070 632.413757
209 0 1 12.998460 11.078640 633.350281
210 0 1 12.812580 11.141840 634.273071
211 0 1 12.465281 11.074720 635.135803
212 0 1 12.050980 10.872610 635.936279
213 0 1 11.832790 10.333100 636.720642
214 0 1 11.899380 9.722390 637.449097
215 0 1 11.856190 9.419780 638.397339
216 0 1 11.771950 9.242990 639.338013
217 0 1 11.706860 8.989075 640.272705
218 0 1 11.799880 8.653957 641.093994
219 0 1 12.257950 8.272228 641.826172
220 0 1 12.602140 7.743817 642.559021
221 0 1 12.942640 7.046507 643.200073
222 0 1 12.813681 6.489700 644.028381
223 0 1 12.528830 5.941700 644.771301
224 0 1 12.244761 5.625260 645.636597
225 0 1 11.798620 5.564370 646.477173
226 0 1 11.238390 5.826100 647.243591
227 0 1 10.696600 6.115700 647.927612
228 0 1 10.280610 6.487590 648.626282
229 0 1 9.670760 6.721220 649.395813
230 0 1 9.168360 6.752780 650.262695
231 0 1 8.497653 6.818240 650.896118
232 0 1 7.953130 6.707680 651.717224
233 0 1 7.461039 6.692410 652.471802
234 0 1 6.988570 6.755630 653.255798
235 0 1 6.609520 7.065177 654.021790
236 0 1 5.942910 7.380761 654.741089
237 0 1 5.454280 7.315197 655.572815
238 0 1 5.072010 7.124615 656.393372
239 0 1 4.932540 6.893660 657.324097
240 0 1 4.821800 6.439330 658.143494
241 0 1 4.576330 6.126840 659.007324
242 0 1 4.245870 6.091270 659.919189
243 0 1 3.982820 6.318120 660.780518
244 0 1 3.912560 6.537540 661.705200
245 0 1 4.022990 6.588870 662.659912
246 0 1 3.910610 7.003314 663.571106
247 0 1 3.949340 7.341709 664.556274
248 0 1 4.227720 7.714713 665.338196
249 0 1 4.517920 8.197451 666.145508
250 0 1 4.589940 8.432928 667.059814
251 0 1 4.539530 8.619296 667.977295
252 0 1 4.569380 8.718535 668.942383
253 0 1 4.697980 8.800904 669.894104
254 0 1 4.982480 9.214250 670.757019
255 0 1 5.172720 9.476089 671.687195
256 0 1 5.128680 9.248750 672.598999
257 0 1 5.053770 9.039900 673.548401
258 0 1 5.201420 9.077160 674.490112
259 0 1 5.398830 8.949456 675.434204
260 0 1 5.570510 8.876302 676.400024
261 0 1 5.732700 8.856703 677.368103
262 0 1 5.735890 9.180200 678.269531
263 0 1 5.511950 9.726851 679.133423
264 0 1 5.129670 10.054520 679.947510
265 0 1 4.933930 10.610000 680.779297
266 0 1 4.523620 11.079510 681.499390
267 0 1 4.416440 11.525450 682.310669
268 0 1 4.281330 11.826000 683.224792
269 0 1 4.251720 12.019690 684.139404
270 0 1 4.143920 12.051360 685.090393
271 0 1 4.303180 12.008710 686.018005
272 0 1 4.672180 11.994460 686.907410
273 0 1 5.149100 11.739440 687.651306
274 0 1 5.575540 11.538020 688.442993
275 0 1 5.906050 11.009270 689.188904
276 0 1 6.070670 10.259200 689.737183
277 0 1 6.208200 9.373470 690.156982
278 0 1 6.362030 8.590275 690.677917
279 0 1 6.633640 7.812510 691.178223
280 0 1 6.896240 7.024542 691.700317
281 0 1 6.812200 6.261530 692.290283
282 0 1 7.116720 5.600200 692.891479
283 0 1 7.370658 4.897900 693.505676
284 0 1 7.871131 4.329580 694.071289
285 0 1 8.312880 3.858110 694.764221
286 0 1 8.645272 3.599010 695.581787
287 0 1 8.985187 3.042220 696.289429
288 0 1 8.966795 2.612170 697.141418
289 0 1 8.907116 2.368570 698.114685
290 0 1 9.113650 2.384640 699.097290
291 0 1 9.033610 2.346500 700.100098
292 0 1 8.954346 2.426080 701.085510
293 0 1 8.881838 2.649010 701.999207
294 0 1 9.032100 2.850740 702.925293
295 0 1 8.925542 3.123040 703.778625
296 0 1 8.811353 3.329060 704.733398
297 0 1 8.594541 3.594640 705.616882
298 0 1 8.222532 4.089750 706.338074
299 0 1 8.173295 4.538310 707.231018
300 0 1 7.894344 4.981790 708.045105
301 0 1 7.898050 5.776880 708.512329
302 0 1 7.976388 6.631170 709.075684
303 0 1 8.335195 7.153466 709.801880
304 0 1 8.734324 7.516354 710.570374
305 0 1 8.888926 7.888447 711.434814
306 0 1 9.071220 8.133653 712.323792
307 0 1 8.944114 8.264341 713.324585
308 0 1 8.699492 8.475231 714.301208
309 0 1 8.476734 8.660579 715.268982
310 0 1 8.411321 8.748322 716.181274
311 0 1 8.295039 8.934739 717.143433
312 0 1 8.566433 9.567470 717.799072
313 0 1 8.869330 10.350530 718.120911
314 0 1 9.514840 10.731689 718.807190
315 0 1 9.880410 11.101340 719.571106
316 0 1 10.027440 11.690470 720.312012
317 0 1 10.057680 12.142691 721.194885
318 0 1 10.093660 12.556740 722.024719
319 0 1 10.242040 12.899720 722.895630
320 0 1 10.093940 12.820971 723.861084
321 0 1 9.689650 12.780710 724.677795
322 0 1 9.546010 12.734020 725.626831
323 0 1 9.397600 12.404800 726.554077
324 0 1 9.168730 12.188601 727.541077
325 0 1 9.244730 12.009069 728.443481
326 0 1 9.567520 12.077499 729.310974
327 0 1 9.836880 12.396400 730.187012
328 0 1 10.264240 12.449659 731.106018
329 0 1 10.651450 12.486130 732.031006
330 0 1 10.882880 12.370800 732.974976
331 0 1 11.087709 12.282900 733.877014
332 0 1 11.341850 12.341440 734.796997
333 0 1 11.759769 12.081350 735.671021
334 0 1 11.826130 11.623540 736.559021
335 0 1 11.864429 11.354020 737.504028
336 0 1 11.667780 10.869070 738.278015
337 0 1 11.464880 10.631400 739.187012
338 0 1 11.451970 10.248100 740.093994
339 0 1 11.746670 9.770660 740.895020
340 0 1 11.784500 9.320601 741.750977
341 0 1 11.817369 8.777156 742.551025
342 0 1 11.875299 7.976335 743.187988
343 0 1 12.005480 7.237999 743.742004
344 0 1 12.011610 6.702270 744.551025
345 0 1 11.799140 6.175920 745.325012
346 0 1 11.386410 5.880310 746.221985
347 0 1 10.973721 5.623170 747.065979
348 0 1 10.732370 5.663370 747.942017
349 0 1 10.400010 5.870310 748.802002
350 0 1 9.970480 5.737770 749.637024
351 0 1 9.519220 5.444290 750.431030
352 0 1 9.105890 5.385100 751.312988
353 0 1 8.645760 5.245940 752.174988
354 0 1 8.300310 4.806030 752.932007
355 0 1 8.027359 4.459400 753.849976
356 0 1 7.609153 4.152340 754.733032
357 0 1 7.427936 3.508170 755.411011
358 0 1 7.285329 3.038380 756.276978
359 0 1 7.166428 2.797160 757.239014
360 0 1 7.077456 2.442840 758.156982
361 0 1 6.781500 2.242260 759.057007
362 0 1 6.420310 1.930010 759.945984
363 0 1 6.255650 1.790760 760.872009
364 0 1 6.169920 2.004990 761.809021
365 0 1 6.001500 2.278810 762.714966
366 0 1 5.914730 2.577050 763.603027
367 0 1 5.770780 2.692020 764.539001
368 0 1 5.824760 2.720990 765.528992
369 0 1 5.996910 2.605360 766.494995
370 0 1 6.416120 2.427220 767.351990
371 0 1 6.804480 2.219390 768.231018
372 0 1 7.039193 2.090940 769.112000
373 0 1 7.351250 1.931910 770.037964
374 0 1 7.802411 1.773560 770.875977
375 0 1 8.166658 1.728740 771.862000
376 0 1 8.571565 1.719050 772.728027
377 0 1 9.030850 1.695070 773.585022
378 0 1 9.470150 1.669710 774.424011
379 0 1 9.394979 1.947320 775.320007
380 0 1 9.251050 2.245190 776.182007
381 0 1 9.135390 2.732620 776.960022
382 0 1 8.678431 3.068920 777.705017
383 0 1 8.283369 3.444660 778.516968
384 0 1 8.000274 3.993890 779.320984
385 0 1 7.500281 4.416500 780.026001
386 0 1 7.213248 4.659440 780.942017
387 0 1 6.933870 4.815890 781.809998
388 0 1 6.745180 4.969350 782.781982
389 0 1 6.570770 4.942090 783.721008
390 0 1 6.625500 5.154020 784.640015
391 0 1 6.933720 5.592780 785.455017
392 0 1 7.331969 5.711990 786.296997
393 0 1 7.502840 5.657380 787.249023
394 0 1 7.785357 5.673500 788.171021
395 0 1 7.990579 5.630760 789.145996
396 0 1 7.794404 5.896340 790.046021
397 0 1 7.575811 6.276510 790.903992
398 0 1 7.540616 6.834440 791.760010
399 0 1 7.666380 7.563253 792.416016
400 0 1 7.404566 8.274816 793.044983
401 0 1 7.094521 8.858215 793.763000
402 0 1 6.707560 9.248300 794.520020
403 0 1 6.316050 9.456779 795.398987
404 0 1 6.032770 9.528140 796.312012
405 0 1 5.877050 9.671180 797.312012
406 0 1 5.470870 9.847380 798.169983
407 0 1 5.338370 10.119410 799.044006
408 0 1 5.140530 10.436760 799.937988
409 0 1 4.931200 10.550820 800.906982
410 0 1 4.795690 10.351060 801.854004
411 0 1 4.692770 10.299330 802.809998
412 0 1 4.906570 10.009920 803.656006
413 0 1 5.358630 9.911660 804.528992
414 0 1 5.549630 10.076990 805.453003
415 0 1 5.754510 10.170830 806.364014
416 0 1 5.896090 10.398470 807.289978
417 0 1 6.058970 10.331950 808.240967
418 0 1 6.265230 10.301610 809.151978
419 0 1 6.743960 9.994800 809.908997
420 0 1 7.048449 9.918090 810.796997
421 0 1 7.434382 10.097321 811.632019
422 0 1 7.866055 9.915790 812.460999
423 0 1 8.607728 9.886800 813.177002
424 0 1 9.289910 9.924120 813.896973
425 0 1 9.606050 9.928520 814.844971
426 0 1 9.949800 9.928690 815.729004
427 0 1 10.469340 9.934970 816.559021
428 0 1 10.785740 9.687090 817.426025
429 0 1 11.056730 9.607350 818.379028
430 0 1 11.046350 9.591660 819.328979
431 0 1 11.287900 9.526990 820.257996
432 0 1 11.534640 9.579140 821.145996
433 0 1 11.912750 9.709620 822.088013
434 0 1 12.294800 9.666990 823.000977
435 0 1 12.679080 9.620520 823.867981
436 0 1 12.678329 9.751090 824.856018
437 0 1 12.706710 9.520530 825.877991
438 0 1 12.770290 9.584930 826.807007
439 0 1 12.664801 9.932680 827.705994
440 0 1 12.666080 10.466160 828.487000
441 0 1 12.763470 11.046850 829.247009
442 0 1 12.713409 11.808960 829.877991
443 0 1 12.229540 12.540140 830.343994
444 0 1 11.661470 13.137230 830.812012
445 0 1 11.021090 13.727369 831.172974
446 0 1 10.210180 14.125650 831.462036
447 0 1 9.623910 14.438180 832.166992
448 0 1 9.049710 14.457040 832.974976
449 0 1 8.535765 14.154440 833.738037
450 0 1 8.059264 13.699270 834.440002
451 0 1 7.423308 13.281630 835.010986
452 0 1 6.852730 12.544500 835.375977
453 0 1 6.652910 11.603849 835.614990
454 0 1 6.477350 10.608670 835.896973
455 0 1 6.202130 9.729330 836.197021
456 0 1 5.899140 8.744079 836.330994
457 0 1 5.785550 7.888501 836.145996
458 0 1 5.469710 7.002870 835.799011
459 0 1 5.056270 6.178350 835.372009
460 0 1 5.011790 5.467040 834.636963
461 0 1 4.863400 4.828080 833.889038
462 0 1 4.815390 4.303000 833.052002
463 0 1 4.815670 3.658660 832.354980
464 0 1 4.643160 2.999120 831.669983
465 0 1 4.692790 2.353420 830.903015
466 0 1 5.084760 1.931750 830.129028
467 0 1 5.601140 1.775370 829.360962
468 0 1 6.093790 1.968690 828.552002
469 0 1 6.426870 2.411670 827.752991
470 0 1 6.821110 2.917460 826.964966
471 0 1 7.209061 3.502380 826.213989
472 0 1 7.700725 4.022510 825.588013
473 0 1 8.144270 4.412280 824.844971
474 0 1 8.510636 4.812650 823.994019
475 0 1 8.614370 4.979770 823.013000
476 0 1 8.709625 5.344140 822.049011
477 0 1 8.682958 5.650770 821.112000
478 0 1 8.637585 5.739040 820.113037
479 0 1 8.540785 5.570660 819.162964
480 0 1 8.607419 5.540450 818.169983
481 0 1 8.766846 5.814190 817.255005
482 0 1 9.043900 6.337020 816.526978
483 0 1 9.256560 6.841140 815.723999
484 0 1 9.406300 7.492986 814.960999
485 0 1 9.377960 8.004904 814.181030
486 0 1 9.392790 8.212163 813.193970
487 0 1 9.393070 8.208835 812.247009
488 0 1 9.562510 7.875565 811.359009
489 0 1 9.732880 7.585033 810.437012
490 0 1 9.791430 7.014982 809.588989
491 0 1 10.033070 6.600190 808.802002
492 0 1 10.391490 6.136610 808.054016
493 0 1 10.471200 5.824900 807.158997
494 0 1 10.468340 5.458680 806.278992
495 0 1 10.200000 5.320520 805.370972
496 0 1 10.286030 5.280530 804.354004
497 0 1 10.416759 5.204630 803.330017
498 0 1 10.739300 5.153060 802.457031
499 0 1 10.623150 5.013070 801.494995
500 0 1 10.737220 5.038800 800.431030
501 0 1 10.663700 4.870220 799.455994
502 0 1 10.269410 4.805540 798.495972
503 0 1 9.718781 5.163690 797.764038
504 0 1 9.278040 5.887270 797.354980
505 0 1 8.971873 6.596410 796.802979
506 0 1 8.887288 7.343150 796.190979
507 0 1 8.618379 8.208888 795.884033
508 0 1 8.602535 9.007170 795.353027
509 0 1 8.887217 9.780130 794.877014
510 0 1 9.383520 10.531910 794.408020
511 0 1 9.785760 11.042040 793.792969
512 0 1 10.414391 11.548750 793.197998
513 0 1 11.116540 11.818740 792.612000
514 0 1 11.844790 11.460880 791.985962
515 0 1 12.293170 11.192550 791.085022
516 0 1 12.491011 11.114201 790.202026
517 0 1 12.636660 11.139339 789.226013
518 0 1 12.756140 11.306090 788.244995
519 0 1 12.788390 11.292030 787.280029
520 0 1 12.868879 11.285950 786.335022
521 0 1 12.738871 11.433830 785.414978
522 0 1 12.766860 11.952440 784.585999
523 0 1 12.626659 12.180780 783.620972
524 0 1 12.210560 12.398211 782.768005
525 0 1 12.058210 12.135540 781.846008
526 0 1 11.798670 12.041170 780.903992
527 0 1 11.513470 11.949330 779.989990
528 0 1 11.436810 11.875800 779.061035
529 0 1 11.345430 11.834690 778.089966
530 0 1 11.419730 11.700700 777.151001
531 0 1 11.484740 11.499390 776.192017
532 0 1 11.200840 11.337060 775.296997
533 0 1 10.859290 11.092530 774.400024
534 0 1 10.711600 10.719570 773.500000
535 0 1 10.630780 10.366550 772.634033
536 0 1 10.151711 9.984270 771.922974
537 0 1 9.704270 9.573120 771.179993
538 0 1 9.453130 9.077320 770.398010
539 0 1 9.215410 8.795648 769.483032
540 0 1 9.142620 8.705802 768.450989
541 0 1 8.847380 8.784684 767.530029
542 0 1 8.588454 8.968096 766.593018
543 0 1 8.195287 9.350320 765.773010
544 0 1 8.124998 9.643620 764.912964
545 0 1 8.265458 10.029950 764.033997
546 0 1 8.540986 10.621930 763.356995
547 0 1 8.873375 11.181860 762.721008
548 0 1 9.285840 11.413549 761.885986
549 0 1 9.834470 11.460190 761.145020
550 0 1 10.455570 11.747931 760.385986
551 0 1 10.809450 12.281540 759.603027
552 0 1 10.923740 12.505230 758.641968
553 0 1 11.158550 12.708820 757.761963
554 0 1 11.133060 12.585120 756.832031
555 0 1 11.422610 12.600010 755.932007
556 0 1 12.014669 12.574551 755.080994
557 0 1 12.559690 12.478840 754.325012
558 0 1 13.225550 12.247120 753.700012
559 0 1 13.339180 11.833509 752.870972
560 0 1 13.391800 11.101030 752.218994
561 0 1 13.515250 10.564810 751.333008
562 0 1 13.637091 10.264580 750.379028
563 0 1 13.626850 10.069510 749.478027
564 0 1 13.695869 9.819890 748.507996
565 0 1 14.082340 9.711450 747.660034
566 0 1 14.218920 9.474580 746.697021
567 0 1 13.947170 9.252980 745.823975
568 0 1 13.433400 9.290380 745.026978
569 0 1 13.046141 9.247340 744.203979
570 0 1 12.820250 9.276000 743.210022
571 0 1 12.734159 9.272270 742.184021
572 0 1 12.754681 9.182120 741.219971
573 0 1 12.757191 9.092280 740.210999
574 0 1 12.297319 8.867718 739.332031
575 0 1 11.950620 8.518762 738.552002
576 0 1 11.822411 8.505995 737.580994
577 0 1 11.368361 8.466251 736.703979
578 0 1 11.097210 8.400775 735.804016
579 0 1 10.665800 8.142735 734.934021
580 0 1 10.221600 8.011062 734.109009
581 0 1 9.951740 7.684715 733.297974
582 0 1 9.656610 7.394161 732.388000
583 0 1 9.727700 6.915230 731.570984
584 0 1 9.712010 6.503310 730.640991
585 0 1 9.708120 6.250910 729.684998
586 0 1 9.654860 6.098200 728.695984
587 0 1 9.888670 6.043130 727.718201
588 0 1 10.310650 5.774910 726.866394
589 0 1 10.668900 5.641730 725.991699
590 0 1 11.280080 5.399810 725.307617
591 0 1 11.896080 5.127220 724.626282
592 0 1 12.426420 4.759040 723.948792
593 0 1 12.952030 4.564010 723.168823
594 0 1 13.328150 4.294530 722.302795
595 0 1 13.623119 4.460820 721.409912
596 0 1 13.788500 4.474900 720.509277
597 0 1 13.869260 4.462930 719.536987
598 0 1 13.758460 4.301930 718.613770
599 0 1 13.535460 4.172630 717.710999
600 0 1 13.328569 4.075840 716.797607
601 0 1 13.091909 4.134410 715.869019
602 0 1 13.126580 4.373300 714.880920
603 0 1 13.287900 4.568730 713.995728
604 0 1 13.297510 4.721860 713.023376
605 0 1 13.140551 4.820500 712.032410
606 0 1 12.941370 5.158690 711.051208
607 0 1 12.681480 5.669820 710.291992
608 0 1 12.397790 6.145120 709.560974
609 0 1 11.965540 6.513300 708.747925
610 0 1 11.628300 6.887240 707.916199
611 0 1 11.274290 7.297502 707.108887
612 0 1 11.144939 7.344183 706.170288
613 0 1 11.187290 7.391151 705.197632
614 0 1 11.099020 7.731893 704.315979
615 0 1 10.750330 8.214252 703.591003
616 0 1 10.359290 8.446206 702.658386
617 0 1 10.411610 8.870996 701.849731
618 0 1 10.543800 9.232320 700.916077
619 0 1 10.821860 9.781219 700.139221
620 0 1 10.968500 10.308229 699.384705
621 0 1 11.117220 10.471460 698.447998
622 0 1 11.519660 10.578180 697.577698
623 0 1 11.781030 10.580170 696.673096
624 0 1 11.957900 10.810450 695.787476
625 0 1 12.331800 10.897630 694.881470
626 0 1 12.570480 11.017090 693.892517
627 0 1 12.554729 11.107230 692.988770
628 0 1 12.486139 10.937580 692.044189
629 0 1 12.095870 10.727790 691.172180
630 0 1 12.071040 10.637850 690.131897
631 0 1 12.137760 10.429550 689.191101
632 0 1 12.332590 10.179610 688.306030
633 0 1 12.378941 10.145280 687.339478
634 0 1 12.310440 10.106380 686.443176
635 0 1 12.379690 10.074090 685.467590
636 0 1 12.524839 9.831870 684.622986
637 0 1 12.755711 9.438160 683.748474
638 0 1 12.982100 8.867471 682.998108
639 0 1 13.124849 8.343283 682.218201
640 0 1 13.348391 7.747142 681.462402
641 0 1 13.572570 7.189210 680.710999
642 0 1 13.485790 6.438230 680.137085
643 0 1 13.360760 5.661150 679.601807
644 0 1 13.367170 4.967300 678.898499
645 0 1 13.200109 4.454440 678.116821
646 0 1 13.032940 3.927370 677.379395
647 0 1 12.990630 3.505910 676.515076
648 0 1 12.590760 3.393630 675.622375
649 0 1 12.222219 3.066060 674.810486
650 0 1 11.657340 3.121800 674.055176
651 0 1 11.109720 3.132910 673.271912
652 0 1 11.014020 3.014770 672.328796
653 0 1 11.056180 2.965990 671.335999
654 0 1 11.018909 2.878480 670.336426
655 0 1 10.656020 2.961010 669.431213
656 0 1 10.219730 3.072380 668.585815
657 0 1 9.930270 2.919820 667.676575
658 0 1 9.808670 2.703750 666.759888
659 0 1 9.743350 2.747480 665.851379
660 0 1 9.729330 2.624410 664.904297
661 0 1 9.567530 2.509380 663.940613
662 0 1 9.419770 2.381350 662.928528
663 0 1 9.200970 2.533740 661.982178
664 0 1 8.724876 2.710170 661.115479
665 0 1 8.163183 2.593480 660.383728
666 0 1 7.507259 2.611650 659.608093
667 0 1 6.969220 2.712160 658.818115
668 0 1 6.699010 2.726310 657.906616
669 0 1 6.535180 2.722210 656.879700
670 0 1 6.496740 2.810130 655.832581
671 0 1 6.617090 2.992610 654.888428
672 0 1 6.747040 3.237000 653.925171
673 0 1 6.696140 3.561480 653.039978
674 0 1 6.908840 3.843230 652.124084
675 0 1 6.968470 4.247450 651.233093
676 0 1 7.207117 4.604620 650.403687
677 0 1 7.366905 5.079050 649.542114
678 0 1 7.765282 5.486560 648.676575
679 0 1 7.906456 6.037690 647.860718
680 0 1 8.079236 6.529460 647.112793
681 0 1 8.289157 7.087699 646.366028
682 0 1 8.538349 7.407425 645.476501
683 0 1 8.361010 7.634430 644.564209
684 0 1 8.190197 7.553890 643.593079
685 0 1 7.665521 7.443685 642.745178
686 0 1 7.322532 7.436360 641.870605
687 0 1 7.187368 7.787849 640.932495
688 0 1 7.160737 7.617759 640.016418
689 0 1 7.025547 7.518589 639.088379
690 0 1 6.784000 7.256957 638.241211
691 0 1 6.719010 7.013292 637.337341
692 0 1 6.509430 7.113407 636.386963
693 0 1 6.187210 7.205943 635.469116
694 0 1 5.763090 7.528899 634.627441
695 0 1 5.665740 7.942208 633.784912
696 0 1 5.462030 7.979623 632.834412
697 0 1 5.404270 7.867856 631.905518
698 0 1 5.507530 8.028822 630.977417
699 0 1 5.553600 8.121074 630.033813
700 0 1 5.341500 8.311598 629.143188
701 0 1 4.876600 8.587640 628.335938
702 0 1 4.825040 9.084840 627.566956
703 0 1 4.834310 9.737080 626.943604
704 0 1 4.805640 10.351290 626.245728
705 0 1 4.443760 10.930201 625.470459
706 0 1 4.109870 11.114180 624.625305
707 0 1 3.738340 11.074800 623.768250
708 0 1 3.414810 11.219780 622.865295
709 0 1 3.247260 11.314810 621.885376
710 0 1 3.077790 11.195710 620.946472
711 0 1 2.932880 11.223470 619.960632
712 0 1 2.787780 10.736860 619.144897
713 0 1 2.880020 10.557620 618.186707
714 0 1 3.092430 10.342670 617.189026
715 0 1 3.122860 9.841410 616.358093
716 0 1 3.189710 9.116899 615.782593
717 0 1 3.318040 8.433193 615.117615
718 0 1 3.577080 7.799841 614.424622
719 0 1 3.947100 7.165166 613.760010
720 0 1 4.357560 6.594930 613.021729
721 0 1 4.716330 6.221930 612.131470
722 0 1 5.005140 5.964980 611.237671
723 0 1 5.163200 5.855240 610.262512
724 0 1 5.452250 5.879000 609.322998
725 0 1 5.661040 6.018490 608.371704
726 0 1 5.643290 5.832740 607.415405
727 0 1 5.855040 5.580040 606.478821
728 0 1 6.139670 5.111920 605.620911
729 0 1 6.631660 4.832240 604.833984
730 0 1 7.021481 4.958400 603.944702
731 0 1 7.265180 5.439900 603.100220
732 0 1 7.647651 5.899630 602.364685
733 0 1 8.136447 6.372200 601.744812
734 0 1 8.632261 7.071669 601.295105
735 0 1 8.887413 7.828073 600.693481
736 0 1 9.411380 8.283539 600.033020
737 0 1 10.025120 8.541217 599.308594
738 0 1 10.625040 8.956792 598.687317
739 0 1 10.960470 9.345060 597.891418
740 0 1 11.505899 9.379620 597.047913
741 0 1 11.574280 8.957695 596.188232
742 0 1 11.413919 8.406759 595.375427
743 0 1 11.188150 7.874233 594.575073
744 0 1 11.097570 7.391224 593.739380
745 0 1 11.027770 6.953450 592.888306
746 0 1 11.004180 6.425890 592.104797
747 0 1 10.623760 5.689300 591.571228
748 0 1 10.127150 5.024570 591.116577
749 0 1 9.749340 4.453490 590.409668
750 0 1 9.569220 4.071710 589.624573
751 0 1 9.410980 3.601420 588.849304
752 0 1 9.100000 2.918450 588.224426
753 0 1 8.787461 2.229720 587.614502
754 0 1 8.600851 1.695970 586.794800
755 0 1 8.348130 1.555450 585.905823
756 0 1 8.040369 1.751820 584.971924
757 0 1 7.896398 1.853510 584.014221
758 0 1 7.713666 1.857790 583.054688
759 0 1 7.662849 1.839270 582.064392
760 0 1 7.634141 1.571810 581.137024
761 0 1 7.674615 1.505200 580.193481
762 0 1 7.727584 1.721210 579.275391
763 0 1 7.654605 1.788280 578.300110
764 0 1 7.604469 2.030690 577.390076
765 0 1 7.218469 2.054200 576.472473
766 0 1 6.470450 2.215340 575.811218
767 0 1 5.993290 2.380230 575.023376
768 0 1 5.468880 2.734220 574.293091
769 0 1 4.980290 3.070640 573.456909
770 0 1 4.501870 3.593420 572.789001
771 0 1 4.089180 4.045290 572.053894
772 0 1 4.037140 4.234430 571.140503
773 0 1 4.073040 4.487090 570.208130
774 0 1 4.269810 4.606900 569.305420
775 0 1 4.469460 4.739500 568.405396
776 0 1 4.646960 4.805620 567.506409
777 0 1 4.728130 5.147200 566.590088
778 0 1 4.599730 5.412400 565.724792
779 0 1 4.259360 5.410750 564.820007
780 0 1 3.932460 5.378960 563.939331
781 0 1 3.519240 5.437680 563.083130
782 0 1 3.246640 5.753100 562.209106
783 0 1 2.714790 6.001810 561.454285
784 0 1 2.319610 6.206190 560.589478
785 0 1 2.155680 6.350760 559.654419
786 0 1 1.841700 6.707660 558.827576
787 0 1 1.667690 7.060379 557.913086