LAMMPS data file via MDAnalysis

        1000  atoms
        1000  bonds
        1000  angles
           0  dihedrals
           0  impropers

           1  atom types
           1  bond types
           1  angle types
           0  dihedral types
           0  improper types

0.000000 16.000000 xlo xhi
0.000000 16.000000 ylo yhi
0.000000 1257.000000 zlo zhi


Masses

1 1.000000

Atoms

1 0 1 6.918340 7.633414 443.682983
2 0 1 6.850740 8.044066 444.580017
3 0 1 6.581510 8.119928 445.484009
4 0 1 6.036880 8.163771 446.234985
5 0 1 5.653750 8.259535 447.117981
6 0 1 5.113830 8.598899 447.970001
7 0 1 4.553160 8.902699 448.705994
8 0 1 4.175990 9.091480 449.544983
9 0 1 3.924680 8.871253 450.417999
10 0 1 4.139630 8.692710 451.371002
11 0 1 4.136990 8.448151 452.268982
12 0 1 4.119310 8.036122 453.255005
13 0 1 4.096470 7.825021 454.175995
14 0 1 4.049540 7.701805 455.128998
15 0 1 4.243190 7.576959 456.085999
16 0 1 4.504910 7.306116 457.011993
17 0 1 4.528220 7.252605 458.005005
18 0 1 4.568650 7.245807 459.001007
19 0 1 4.515710 7.116996 459.989990
20 0 1 4.555650 6.852030 460.994019
21 0 1 4.601010 6.500070 461.924011
22 0 1 4.799320 6.115710 462.812012
23 0 1 5.068150 6.011260 463.720001
24 0 1 5.583570 6.336690 464.393005
25 0 1 5.897890 6.694590 465.218994
26 0 1 5.832280 6.978380 466.190979
27 0 1 5.881890 7.310465 467.022003
28 0 1 6.063410 7.440235 467.998993
29 0 1 6.206010 7.387075 468.994995
30 0 1 6.467040 7.514518 469.945007
31 0 1 6.283270 7.703777 470.835999
32 0 1 6.028830 8.273379 471.606018
33 0 1 5.908680 8.597356 472.572998
34 0 1 5.898730 8.910952 473.492981
35 0 1 5.900020 9.347840 474.398987
36 0 1 6.059950 9.481100 475.356018
37 0 1 5.910910 9.739310 476.244995
38 0 1 5.842130 9.889890 477.218018
39 0 1 5.946980 10.059090 478.171997
40 0 1 6.095750 9.869160 479.161011
41 0 1 6.196220 9.787420 480.104004
42 0 1 6.521440 9.618030 481.031982
43 0 1 6.717530 9.628230 481.979980
44 0 1 6.736990 9.612540 482.888000
45 0 1 6.794800 9.458380 483.893005
46 0 1 7.123734 9.510750 484.796997
47 0 1 7.338995 9.657870 485.718994
48 0 1 7.560313 10.092580 486.567993
49 0 1 7.410201 10.567890 487.463989
50 0 1 7.206012 11.039980 488.257019
51 0 1 7.245968 11.698630 488.960022
52 0 1 7.568809 12.203529 489.740997
53 0 1 8.016139 12.631100 490.481995
54 0 1 8.380431 12.986230 491.276001
55 0 1 8.639289 13.323860 492.161011
56 0 1 9.036350 13.351971 493.018005
57 0 1 9.288770 13.486570 493.958008
58 0 1 9.479340 13.756889 494.828003
59 0 1 9.501820 13.988570 495.774994
60 0 1 9.468120 13.739349 496.824005
61 0 1 9.655940 13.801620 497.819000
62 0 1 9.658330 13.820419 498.791016
63 0 1 9.469500 13.675859 499.720001
64 0 1 9.192650 13.501820 500.613007
65 0 1 8.800427 13.145200 501.467010
66 0 1 8.451055 12.782050 502.346008
67 0 1 8.262967 12.435260 503.194000
68 0 1 8.226381 12.085220 504.026001
69 0 1 7.904181 11.439420 504.630005
70 0 1 7.596542 10.774700 505.338013
71 0 1 7.214302 10.191680 505.994995
72 0 1 6.856060 9.421820 506.522003
73 0 1 6.791330 8.860686 507.248993
74 0 1 7.065822 8.098576 507.786011
75 0 1 7.285120 7.604013 508.658997
76 0 1 7.408180 7.449317 509.588013
77 0 1 7.533405 7.285609 510.549988
78 0 1 7.367995 7.204396 511.451996
79 0 1 7.344110 6.840770 512.361023
80 0 1 7.424098 6.348250 513.182983
81 0 1 7.414899 5.775380 513.958984
82 0 1 7.433933 5.506640 514.898010
83 0 1 7.297675 5.482550 515.841980
84 0 1 7.209076 5.600300 516.763977
85 0 1 6.901700 5.781680 517.640015
86 0 1 6.661840 5.992320 518.606995
87 0 1 6.345130 5.872400 519.520996
88 0 1 6.147330 5.850330 520.549011
89 0 1 5.907930 5.713150 521.426025
90 0 1 5.444160 5.589940 522.263000
91 0 1 5.004780 5.379420 523.117981
92 0 1 4.534650 5.134450 523.957031
93 0 1 4.290580 4.772410 524.804993
94 0 1 4.244450 4.492660 525.737000
95 0 1 4.433020 4.272370 526.645996
96 0 1 4.708190 4.262090 527.567993
97 0 1 4.838680 4.361200 528.507568
98 0 1 4.851520 4.364280 529.454102
99 0 1 4.671940 4.320340 530.489807
100 0 1 4.626350 4.300790 531.448486
101 0 1 4.735810 4.242990 532.469910
102 0 1 4.920990 4.031620 533.369690
103 0 1 5.305130 3.863860 534.233887
104 0 1 5.493300 3.806880 535.227295
105 0 1 5.466670 3.933720 536.201477
106 0 1 5.615890 4.263920 537.078369
107 0 1 5.657700 4.730560 537.995422
108 0 1 5.839910 5.423290 538.565918
109 0 1 6.109510 6.305180 538.972900
110 0 1 6.096210 7.194820 539.321411
111 0 1 5.740230 7.875988 539.897522
112 0 1 5.588960 8.559493 540.592773
113 0 1 5.605610 9.274100 541.222900
114 0 1 5.871250 9.886870 541.861572
115 0 1 6.294060 10.433460 542.534119
116 0 1 6.327140 10.939671 543.301819
117 0 1 6.411400 11.420410 544.148621
118 0 1 6.300320 11.810820 545.012390
119 0 1 6.303080 11.724060 545.973511
120 0 1 6.165890 11.744101 546.882568
121 0 1 6.261900 11.549740 547.830811
122 0 1 6.120950 11.135410 548.690308
123 0 1 6.002760 10.849280 549.661499
124 0 1 5.924510 10.416970 550.519714
125 0 1 5.673790 10.142190 551.464233
126 0 1 5.292560 9.854950 552.302185
127 0 1 5.111590 9.589020 553.184509
128 0 1 4.916430 9.524870 554.155823
129 0 1 5.113010 9.651450 555.071594
130 0 1 5.344210 9.867710 555.972168
131 0 1 5.742080 10.361480 556.683411
132 0 1 6.178580 10.934720 557.314392
133 0 1 6.765410 11.397230 557.905884
134 0 1 7.016602 11.753571 558.844116
135 0 1 7.198471 12.057079 559.715576
136 0 1 7.458284 12.447411 560.600098
137 0 1 7.917643 12.723710 561.464783
138 0 1 8.120438 12.827560 562.331787
139 0 1 8.180030 12.882460 563.317810
140 0 1 8.278887 12.629430 564.205322
141 0 1 8.635923 12.638030 565.148621
142 0 1 8.982796 12.587330 566.068298
143 0 1 9.516580 12.229219 566.813293
144 0 1 10.094920 11.830040 567.448975
145 0 1 10.491610 11.503270 568.312317
146 0 1 10.815560 10.967560 569.044006
147 0 1 11.125650 10.469140 569.791321
148 0 1 11.448830 10.346590 570.697876
149 0 1 11.805600 10.344780 571.550293
150 0 1 11.988840 10.533279 572.478088
151 0 1 12.522990 10.528210 573.317078
152 0 1 12.841890 10.729090 574.186279
153 0 1 12.773149 11.116790 575.097473
154 0 1 12.626270 11.563829 575.972290
155 0 1 12.187140 12.012630 576.747620
156 0 1 11.601740 12.305330 577.429688
157 0 1 10.996201 12.650790 578.090515
158 0 1 10.554170 12.800460 578.888184
159 0 1 10.343860 13.053780 579.802002
160 0 1 10.154480 12.856370 580.734314
161 0 1 9.704360 12.850161 581.591125
162 0 1 9.081680 12.624041 582.311279
163 0 1 8.479134 12.609039 583.111572
164 0 1 8.016099 12.898840 583.858826
165 0 1 7.728292 13.202470 584.779785
166 0 1 7.380451 13.067520 585.759521
167 0 1 7.218311 13.035240 586.708191
168 0 1 7.249135 13.106770 587.697998
169 0 1 7.459818 12.876270 588.589478
170 0 1 7.988462 12.950750 589.380310
171 0 1 8.364708 13.139200 590.180176
172 0 1 8.948059 13.549650 590.935791
173 0 1 9.348250 13.974720 591.736084
174 0 1 9.504420 14.387170 592.577881
175 0 1 9.526440 14.534460 593.528809
176 0 1 9.207580 14.643710 594.482910
177 0 1 8.792525 14.755230 595.343201
178 0 1 8.594397 14.715570 596.323303
179 0 1 8.184572 14.688240 597.157227
180 0 1 7.848448 14.554270 597.999084
181 0 1 7.489346 14.289700 598.841187
182 0 1 7.176334 14.211400 599.778198
183 0 1 7.323992 14.025230 600.722900
184 0 1 7.337378 13.923880 601.704712
185 0 1 7.358124 13.859190 602.643494
186 0 1 7.413051 13.846590 603.621216
187 0 1 7.199033 13.650480 604.566284
188 0 1 7.297393 13.163530 605.389526
189 0 1 7.370125 12.693291 606.212219
190 0 1 7.428018 12.300591 607.183899
191 0 1 7.441062 11.986530 608.079773
192 0 1 6.942800 11.973800 609.083679
193 0 1 6.661620 12.117270 610.006775
194 0 1 6.524320 12.321780 610.940308
195 0 1 6.323360 12.672461 611.866394
196 0 1 6.024570 12.825319 612.725281
197 0 1 5.651620 12.823441 613.674072
198 0 1 5.494520 12.612970 614.574219
199 0 1 5.563850 12.420959 615.601501
200 0 1 5.728920 12.494249 616.495789
201 0 1 5.812600 12.342010 617.419006
202 0 1 5.742910 12.226650 618.446228
203 0 1 5.950660 11.937550 619.300598
204 0 1 5.969230 11.549900 620.176453
205 0 1 6.124270 11.067080 620.946167
206 0 1 6.345730 10.403100 621.675415
207 0 1 6.464030 9.974200 622.547485
208 0 1 6.503490 9.521250 623.372070
209 0 1 6.373990 9.029040 624.234741
210 0 1 6.626930 8.517734 625.051636
211 0 1 7.076381 8.104414 625.786133
212 0 1 7.503224 7.676369 626.520203
213 0 1 7.512365 7.221305 627.332886
214 0 1 7.706285 7.066711 628.263367
215 0 1 7.483733 6.941050 629.201538
216 0 1 7.317161 6.772080 630.154175
217 0 1 6.930950 6.673380 630.979126
218 0 1 6.620200 6.776990 631.886475
219 0 1 6.403510 6.878360 632.873230
220 0 1 5.867570 6.891090 633.722595
221 0 1 5.659100 6.769950 634.648376
222 0 1 5.583480 6.827270 635.628601
223 0 1 5.595440 6.819000 636.584778
224 0 1 5.572220 6.530950 637.467468
225 0 1 5.640290 6.182310 638.304932
226 0 1 6.163370 6.202610 639.191589
227 0 1 6.575270 6.352840 640.044922
228 0 1 6.875040 6.489970 641.062378
229 0 1 6.977000 6.674830 641.948303
230 0 1 6.806740 7.075751 642.817078
231 0 1 6.783700 7.420912 643.689087
232 0 1 6.729120 7.413846 644.614929
233 0 1 6.748880 7.177811 645.538391
234 0 1 6.464620 7.113160 646.449585
235 0 1 6.115590 7.213372 647.330322
236 0 1 5.583470 7.621778 647.994019
237 0 1 5.281730 8.190309 648.731689
238 0 1 5.169660 8.506719 649.609497
239 0 1 5.506790 8.630993 650.506226
240 0 1 5.763350 8.606461 651.485474
241 0 1 6.023270 8.434116 652.385620
242 0 1 5.987290 8.321221 653.336304
243 0 1 5.922630 8.232819 654.262695
244 0 1 6.142480 8.003401 655.130920
245 0 1 6.446480 7.340843 655.836487
246 0 1 6.673710 6.727150 656.580078
247 0 1 7.049643 6.145630 657.232300
248 0 1 7.344918 5.735320 658.032715
249 0 1 7.864606 5.708650 658.841614
250 0 1 8.154182 5.833330 659.727722
251 0 1 8.364791 5.761090 660.670532
252 0 1 9.117860 5.758540 661.322388
253 0 1 9.939150 5.527860 661.893982
254 0 1 10.526450 5.095300 662.504822
255 0 1 11.065800 4.774600 663.250732
256 0 1 11.341590 4.423480 664.093384
257 0 1 11.520440 4.235360 665.037720
258 0 1 11.495740 4.174700 666.040710
259 0 1 11.523780 3.841350 666.893982
260 0 1 11.424940 4.113650 667.825684
261 0 1 11.402650 4.110510 668.850586
262 0 1 11.332360 4.027760 669.803589
263 0 1 11.210690 4.206060 670.733398
264 0 1 11.185270 4.286250 671.732483
265 0 1 11.412760 4.523590 672.691406
266 0 1 11.498400 4.966270 673.558716
267 0 1 11.642020 5.373160 674.420715
268 0 1 11.441060 5.772800 675.229919
269 0 1 11.462300 5.913860 676.135132
270 0 1 11.510230 6.026740 677.100403
271 0 1 11.462420 5.998990 678.092712
272 0 1 11.281210 6.128830 679.042114
273 0 1 10.960360 6.560160 679.889709
274 0 1 10.472930 7.022562 680.608887
275 0 1 10.457680 7.746684 681.281799
276 0 1 10.293489 8.168045 682.097900
277 0 1 9.987440 8.421632 682.921631
278 0 1 9.894130 8.769809 683.803284
279 0 1 9.792120 9.051220 684.708008
280 0 1 9.400420 9.477551 685.499878
281 0 1 9.053950 9.355800 686.390625
282 0 1 8.727028 9.213910 687.310120
283 0 1 8.283593 9.192340 688.107727
284 0 1 7.569449 9.373060 688.735474
285 0 1 6.938010 9.373540 689.457703
286 0 1 6.281690 9.169030 690.165894
287 0 1 5.713100 8.794788 690.871277
288 0 1 4.961730 8.508667 691.377380
289 0 1 4.326180 8.555823 692.007080
290 0 1 3.851590 8.359700 692.879700
291 0 1 3.390460 7.928782 693.640808
292 0 1 3.505000 7.372952 694.403015
293 0 1 3.847230 6.740470 695.031982
294 0 1 4.416820 6.086650 695.488220
295 0 1 5.020560 5.380700 695.814026
296 0 1 5.698080 4.825840 696.137085
297 0 1 6.358620 4.133570 696.227600
298 0 1 7.073043 3.590980 696.540405
299 0 1 7.599116 2.961920 696.971069
300 0 1 8.249855 2.665770 697.597717
301 0 1 8.929145 2.527530 698.299194
302 0 1 9.303460 2.718850 699.179993
303 0 1 9.392850 2.916620 700.174622
304 0 1 9.589950 3.076290 701.124207
305 0 1 9.525750 3.164420 702.122009
306 0 1 9.056440 3.291260 702.993713
307 0 1 8.524173 3.266930 703.820374
308 0 1 8.113021 3.428040 704.727600
309 0 1 7.877519 3.524400 705.614014
310 0 1 7.622836 3.524490 706.533997
311 0 1 7.580250 3.714250 707.476196
312 0 1 7.503678 4.291320 708.256592
313 0 1 7.348984 5.040450 708.989868
314 0 1 7.057188 5.709050 709.590393
315 0 1 6.488490 6.063820 710.200317
316 0 1 6.100500 6.213270 711.108215
317 0 1 5.603760 6.355440 711.956726
318 0 1 5.408940 6.827650 712.751831
319 0 1 5.249000 7.468660 713.417480
320 0 1 5.097620 7.977947 714.252380
321 0 1 4.917000 8.335051 715.183594
322 0 1 4.741670 9.011300 715.929504
323 0 1 4.842870 9.570170 716.751404
324 0 1 4.920040 10.038600 717.595520
325 0 1 5.055460 10.410110 718.451721
326 0 1 5.121290 10.347930 719.449524
327 0 1 4.993150 10.436010 720.411621
328 0 1 4.684060 10.463930 721.341492
329 0 1 4.657040 10.498790 722.291626
330 0 1 4.504700 10.529520 723.277710
331 0 1 4.397790 10.735500 724.204102
332 0 1 4.447010 10.765850 725.176575
333 0 1 4.775510 10.642680 726.023315
334 0 1 4.982400 10.542530 726.954285
335 0 1 5.067440 10.644670 727.919434
336 0 1 4.998580 10.905640 728.804993
337 0 1 5.107100 11.200171 729.690979
338 0 1 5.210550 11.603690 730.541016
339 0 1 5.387680 11.714610 731.487976
340 0 1 5.382010 11.678130 732.403015
341 0 1 5.227380 11.426620 733.312012
342 0 1 5.205900 11.345810 734.250000
343 0 1 5.412290 11.199739 735.228027
344 0 1 5.519290 11.235160 736.172974
345 0 1 5.499560 11.226640 737.172974
346 0 1 5.638160 11.118740 738.208008
347 0 1 5.869180 10.818360 739.203003
348 0 1 6.098930 10.414200 740.075989
349 0 1 6.325660 10.183430 741.057983
350 0 1 6.447430 9.852760 741.929993
351 0 1 6.560750 9.523680 742.864990
352 0 1 6.889660 9.345790 743.724976
353 0 1 7.023972 9.183050 744.692993
354 0 1 6.888930 8.859994 745.596008
355 0 1 6.585370 8.723972 746.468994
356 0 1 6.481100 8.568895 747.419983
357 0 1 6.138020 8.339659 748.390991
358 0 1 5.988750 7.932659 749.289978
359 0 1 6.002950 7.647523 750.218994
360 0 1 5.964300 7.493649 751.184021
361 0 1 5.802400 7.295400 752.075989
362 0 1 5.710170 7.234690 753.020996
363 0 1 6.030510 7.241850 753.921021
364 0 1 6.250890 7.069162 754.797974
365 0 1 6.168380 7.036995 755.723022
366 0 1 6.059260 6.736180 756.672974
367 0 1 6.056830 6.313360 757.494995
368 0 1 5.745710 5.921750 758.333008
369 0 1 5.420190 5.752730 759.240967
370 0 1 5.285860 5.649010 760.181030
371 0 1 5.177520 5.506850 761.153992
372 0 1 5.080690 5.467270 762.075012
373 0 1 4.761910 5.652860 763.005005
374 0 1 4.497330 5.736830 763.945984
375 0 1 4.454250 5.753540 764.911011
376 0 1 4.570750 5.798190 765.818970
377 0 1 4.330820 6.019950 766.713013
378 0 1 4.249640 5.880710 767.676025
379 0 1 4.037360 6.049350 768.640015
380 0 1 3.843030 6.384470 769.509033
381 0 1 3.732270 6.861250 770.380981
382 0 1 4.099730 7.426216 771.037964
383 0 1 4.485050 7.940102 771.742004
384 0 1 4.931670 8.249670 772.497986
385 0 1 5.341600 8.652311 773.302002
386 0 1 5.550430 8.991263 774.179993
387 0 1 5.719540 9.430250 775.041992
388 0 1 6.073580 9.829030 775.882019
389 0 1 6.574920 10.384730 776.562012
390 0 1 7.015673 10.697220 777.365967
391 0 1 7.357903 10.898890 778.328979
392 0 1 7.680676 10.817870 779.255005
393 0 1 7.975957 10.854480 780.226990
394 0 1 8.094196 10.633940 781.200012
395 0 1 8.257572 10.074200 782.013000
396 0 1 8.358432 9.620350 782.822998
397 0 1 8.282498 9.061550 783.612000
398 0 1 8.428859 8.637589 784.511963
399 0 1 8.548435 8.454714 785.450012
400 0 1 8.601807 8.329134 786.398987
401 0 1 8.536444 8.289141 787.377014
402 0 1 8.295024 8.422710 788.292969
403 0 1 8.427598 8.481622 789.289978
404 0 1 8.584225 8.168958 790.195007
405 0 1 8.719107 7.765246 790.992981
406 0 1 8.887548 7.667779 791.927979
407 0 1 8.861352 7.633642 792.906006
408 0 1 8.953995 7.432999 793.882996
409 0 1 9.005230 7.337984 794.806030
410 0 1 8.931539 7.490838 795.776978
411 0 1 8.889172 7.579737 796.761963
412 0 1 8.983578 7.517077 797.687988
413 0 1 9.336411 7.431205 798.526001
414 0 1 9.743970 7.460687 799.440979
415 0 1 10.027451 7.438958 800.327026
416 0 1 10.316610 7.328653 801.207031
417 0 1 10.647110 7.222195 802.067993
418 0 1 10.989820 7.343170 803.000000
419 0 1 11.341390 7.497281 803.910034
420 0 1 11.561390 7.774885 804.875000
421 0 1 11.711740 8.211725 805.766968
422 0 1 11.964070 8.540448 806.697998
423 0 1 12.158410 9.000330 807.546997
424 0 1 12.269930 9.378710 808.462036
425 0 1 12.092569 9.736040 809.335022
426 0 1 12.005510 10.238620 810.161011
427 0 1 11.854070 10.845779 810.989014
428 0 1 11.979000 11.539140 811.718994
429 0 1 11.876110 12.195510 812.453979
430 0 1 11.728550 12.890170 813.156006
431 0 1 11.453370 13.262220 814.117981
432 0 1 11.394720 13.504840 815.054016
433 0 1 11.167410 13.680170 816.000977
434 0 1 11.199930 13.439230 816.919983
435 0 1 11.311090 13.163750 817.851990
436 0 1 11.415860 12.842300 818.761963
437 0 1 11.893730 12.719540 819.634033
438 0 1 12.212920 12.791000 820.563965
439 0 1 12.465010 12.890060 821.507019
440 0 1 12.512381 12.633810 822.452026
441 0 1 12.349000 12.482241 823.398010
442 0 1 12.163731 12.006920 824.205994
443 0 1 12.135220 11.691240 825.098022
444 0 1 11.933480 11.324860 825.990967
445 0 1 11.891920 10.864370 826.908997
446 0 1 11.989950 10.345830 827.740967
447 0 1 12.190610 9.686170 828.412964
448 0 1 12.504271 9.017980 829.075989
449 0 1 13.089780 8.254702 829.311035
450 0 1 13.587390 7.466043 829.591003
451 0 1 13.810841 6.639940 830.026978
452 0 1 13.902210 5.750220 830.502014
453 0 1 13.673480 4.886770 830.796021
454 0 1 13.396080 4.305430 831.549011
455 0 1 13.418290 4.370690 832.515015
456 0 1 13.422220 4.261520 833.437988
457 0 1 13.072510 3.993180 834.278015
458 0 1 12.657970 3.629630 835.036987
459 0 1 11.758710 3.686230 835.424988
460 0 1 10.881070 3.890830 835.750000
461 0 1 9.973150 4.065130 836.010986
462 0 1 9.134400 4.334640 836.348999
463 0 1 8.229764 4.561170 836.228027
464 0 1 7.329566 4.842030 836.099976
465 0 1 6.424570 5.139990 835.931030
466 0 1 5.566710 5.587120 835.797974
467 0 1 4.679990 5.913860 835.606995
468 0 1 3.761340 6.302270 835.332031
469 0 1 2.993880 6.653250 834.838013
470 0 1 2.482640 6.935120 834.130005
471 0 1 1.961810 7.046471 833.320007
472 0 1 1.566090 7.260118 832.432983
473 0 1 1.235600 7.371883 831.570007
474 0 1 1.364680 7.132892 830.630981
475 0 1 1.610440 6.757790 829.832031
476 0 1 1.876990 6.324840 828.950012
477 0 1 2.265590 6.212200 828.091003
478 0 1 2.834220 6.364120 827.363037
479 0 1 3.177110 6.807140 826.526001
480 0 1 3.346540 7.331935 825.747986
481 0 1 3.319100 8.105318 825.172974
482 0 1 3.534540 8.817470 824.484009
483 0 1 3.841380 9.276200 823.708984
484 0 1 4.287660 9.379760 822.900024
485 0 1 4.649290 9.247920 822.004028
486 0 1 5.061090 9.026440 821.108032
487 0 1 5.569150 8.432845 820.630005
488 0 1 6.064060 7.720155 820.083008
489 0 1 6.479770 7.141732 819.432007
490 0 1 6.989050 6.782680 818.778992
491 0 1 7.531132 6.724310 817.940002
492 0 1 8.117994 6.812160 817.161987
493 0 1 8.514865 6.965590 816.318970
494 0 1 9.102630 7.023691 815.580994
495 0 1 9.361480 7.244839 814.723999
496 0 1 9.342680 7.303676 813.830994
497 0 1 9.241580 7.551598 812.890015
498 0 1 9.198750 7.801826 811.815002
499 0 1 9.318620 7.801023 810.884033
500 0 1 9.133920 8.015745 809.966003
501 0 1 8.559848 8.161867 809.161011
502 0 1 8.155055 8.636453 808.346008
503 0 1 7.801535 9.030750 807.518982
504 0 1 7.546401 9.443000 806.734985
505 0 1 7.182930 9.556550 805.864014
506 0 1 6.990550 9.616261 804.937012
507 0 1 6.491960 9.747700 804.057983
508 0 1 6.197200 9.635210 803.161987
509 0 1 5.861840 9.442680 802.270020
510 0 1 5.501240 9.137080 801.406006
511 0 1 5.073890 8.825724 800.648010
512 0 1 4.676500 8.626557 799.781982
513 0 1 4.361110 8.691715 798.890991
514 0 1 3.917060 8.887430 798.073975
515 0 1 3.721950 8.991876 797.166016
516 0 1 3.685320 9.065560 796.164978
517 0 1 3.821700 8.887202 795.203979
518 0 1 3.944420 8.799349 794.242981
519 0 1 4.078540 8.743621 793.292969
520 0 1 4.428130 8.677948 792.403015
521 0 1 4.642410 8.850146 791.495972
522 0 1 4.387230 8.943979 790.572998
523 0 1 4.360400 9.005190 789.620972
524 0 1 4.158490 9.096850 788.690979
525 0 1 4.067370 9.213190 787.731018
526 0 1 3.716890 9.171130 786.752014
527 0 1 3.468280 9.319400 785.820984
528 0 1 3.225790 9.300340 784.886963
529 0 1 2.879020 9.180799 783.964966
530 0 1 2.620740 8.946136 783.002014
531 0 1 2.446720 8.925376 782.103027
532 0 1 2.505090 8.893314 781.164001
533 0 1 2.653170 9.008390 780.213989
534 0 1 2.746250 9.105230 779.268005
535 0 1 3.020770 9.423930 778.346008
536 0 1 3.237480 9.631410 777.424988
537 0 1 3.213780 9.697380 776.445984
538 0 1 3.010640 9.956020 775.552002
539 0 1 2.693920 9.980110 774.585022
540 0 1 2.546110 10.108210 773.645996
541 0 1 2.556360 10.022020 772.703003
542 0 1 2.296150 9.595320 771.867004
543 0 1 1.819260 9.467350 771.020996
544 0 1 1.774760 9.296220 770.054993
545 0 1 1.678330 9.323750 769.077026
546 0 1 1.964190 9.112030 768.166992
547 0 1 2.149920 8.870370 767.216003
548 0 1 2.385030 8.467993 766.401978
549 0 1 2.549160 8.172910 765.460022
550 0 1 2.769610 7.884466 764.598999
551 0 1 2.917700 7.674561 763.692017
552 0 1 3.200120 7.538551 762.757996
553 0 1 3.511570 7.505222 761.807007
554 0 1 3.557210 7.586016 760.832031
555 0 1 3.773330 7.651457 759.945007
556 0 1 3.743650 8.064883 759.036987
557 0 1 3.753610 8.704061 758.299011
558 0 1 4.033680 9.347820 757.630981
559 0 1 4.482880 10.163240 757.354004
560 0 1 4.895670 10.954490 756.910034
561 0 1 5.309340 11.683460 756.411987
562 0 1 5.804850 12.150040 755.702026
563 0 1 6.129410 12.559771 754.882996
564 0 1 6.534890 12.897650 754.028992
565 0 1 6.849620 13.294849 753.213989
566 0 1 7.073992 13.457560 752.278992
567 0 1 7.311303 13.353670 751.339966
568 0 1 7.906999 13.141790 750.583984
569 0 1 8.397661 13.065860 749.744995
570 0 1 8.720040 12.859130 748.851990
571 0 1 9.041410 12.439020 747.979980
572 0 1 9.511090 12.097820 747.137024
573 0 1 9.886980 11.573299 746.401978
574 0 1 10.032740 11.558900 745.414978
575 0 1 9.965750 11.683410 744.463989
576 0 1 9.822130 11.952430 743.536987
577 0 1 9.800910 11.953720 742.568970
578 0 1 9.593740 11.786700 741.656982
579 0 1 9.564950 11.309120 740.747986
580 0 1 9.814760 10.645340 740.070007
581 0 1 10.044240 9.914910 739.484985
582 0 1 10.131710 9.129660 738.882996
583 0 1 10.153190 8.343781 738.364990
584 0 1 10.199650 7.380802 738.119995
585 0 1 10.141330 6.478210 737.679016
586 0 1 10.086760 5.735170 737.086975
587 0 1 9.750770 5.297380 736.291992
588 0 1 9.550850 5.008980 735.385986
589 0 1 9.375210 4.639950 734.533997
590 0 1 9.087870 4.025380 733.903992
591 0 1 8.831726 3.395840 733.239990
592 0 1 8.346578 2.824870 732.615967
593 0 1 7.796250 2.276390 732.099976
594 0 1 7.369449 1.836060 731.335022
595 0 1 7.144356 1.603900 730.414978
596 0 1 6.736380 1.571340 729.565979
597 0 1 6.315640 1.525830 728.690002
598 0 1 5.946200 1.545710 727.834229
599 0 1 5.650420 1.791460 726.953613
600 0 1 5.704880 1.835500 725.922485
601 0 1 5.688670 1.821730 724.960571
602 0 1 5.575760 2.170300 724.073792
603 0 1 5.707980 2.689390 723.246521
604 0 1 5.504560 3.063990 722.380798
605 0 1 5.455770 3.355790 721.459900
606 0 1 5.229850 3.544940 720.493896
607 0 1 5.405510 4.073080 719.655701
608 0 1 5.464260 4.613730 718.812378
609 0 1 5.463720 4.844730 717.865784
610 0 1 5.709430 4.846340 716.944580
611 0 1 6.091260 5.040330 716.056702
612 0 1 6.498980 4.841600 715.247986
613 0 1 6.974720 5.012000 714.373291
614 0 1 7.526523 5.229950 713.637207
615 0 1 7.867715 5.840050 713.004883
616 0 1 8.130019 6.570470 712.361328
617 0 1 8.633543 7.207053 711.801392
618 0 1 8.899037 7.682067 711.080566
619 0 1 9.271730 8.143011 710.338806
620 0 1 9.527540 8.398886 709.440002
621 0 1 9.929250 8.542691 708.568115
622 0 1 10.414190 8.528851 707.638977
623 0 1 10.735860 8.495536 706.776978
624 0 1 11.227740 8.478923 705.997375
625 0 1 11.662510 8.143229 705.208191
626 0 1 12.081380 7.830932 704.429626
627 0 1 12.501050 7.564097 703.560303
628 0 1 12.823259 7.598786 702.629089
629 0 1 13.087370 7.900058 701.779297
630 0 1 13.134480 8.113747 700.848694
631 0 1 12.896870 8.144593 699.957397
632 0 1 12.498301 8.455678 699.097290
633 0 1 12.267350 8.744240 698.227478
634 0 1 12.114210 9.148310 697.352905
635 0 1 11.869570 9.405890 696.420593
636 0 1 11.587000 9.669040 695.545593
637 0 1 11.261180 9.617330 694.645325
638 0 1 10.987570 9.630810 693.724609
639 0 1 10.784890 9.282920 692.767212
640 0 1 10.622470 8.889095 691.909485
641 0 1 10.415620 8.638725 691.038574
642 0 1 9.825160 8.104723 690.442505
643 0 1 9.034620 7.646787 689.990479
644 0 1 8.380403 7.206690 689.462524
645 0 1 7.733491 7.219040 688.768799
646 0 1 7.213284 7.255538 687.961792
647 0 1 6.614260 7.166888 687.197327
648 0 1 6.195390 6.955240 686.390991
649 0 1 5.736820 7.009300 685.532227
650 0 1 5.305590 7.196942 684.687195
651 0 1 4.792700 7.257919 683.827820
652 0 1 4.464110 7.341156 682.938721
653 0 1 4.231890 7.677438 682.005920
654 0 1 4.181150 7.929971 681.054321
655 0 1 3.978210 7.936339 680.130981
656 0 1 3.809560 8.049707 679.179688
657 0 1 3.765410 8.119684 678.190979
658 0 1 3.870690 8.104304 677.228027
659 0 1 4.138280 8.199127 676.292603
660 0 1 4.461340 8.272844 675.335388
661 0 1 4.634410 8.572818 674.445496
662 0 1 4.918240 8.841314 673.521484
663 0 1 5.170660 9.335540 672.770386
664 0 1 5.401270 9.568810 671.869995
665 0 1 5.432280 9.653060 670.910706
666 0 1 5.410580 9.753380 669.937622
667 0 1 5.005420 9.735740 669.078003
668 0 1 4.467580 9.748220 668.241699
669 0 1 4.413650 9.849360 667.252380
670 0 1 4.246780 10.264680 666.414673
671 0 1 4.262100 10.323510 665.486328
672 0 1 4.514160 10.580180 664.545227
673 0 1 4.925540 10.908590 663.713501
674 0 1 5.483920 11.071120 662.877319
675 0 1 6.037010 11.291770 662.143494
676 0 1 6.533330 11.485090 661.311401
677 0 1 6.900060 11.553210 660.459106
678 0 1 7.116333 11.766620 659.537598
679 0 1 7.273058 12.111710 658.619202
680 0 1 7.441377 12.341129 657.724731
681 0 1 7.309800 12.452520 656.709900
682 0 1 7.458760 12.847500 655.866821
683 0 1 7.661321 13.000830 654.949829
684 0 1 7.853524 13.329929 654.091492
685 0 1 7.932058 13.360750 653.097595
686 0 1 8.097300 13.266570 652.178223
687 0 1 8.120809 12.858800 651.302429
688 0 1 8.292837 12.365760 650.520386
689 0 1 8.349284 11.881840 649.696899
690 0 1 8.634986 11.321120 648.924683
691 0 1 9.062630 10.962230 648.014526
692 0 1 9.316200 10.569590 647.161804
693 0 1 9.605230 10.024700 646.453125
694 0 1 9.736840 9.442420 645.686890
695 0 1 9.765360 8.859789 644.907593
696 0 1 9.657600 8.316038 644.160889
697 0 1 9.445280 7.557359 643.648621
698 0 1 9.306340 6.721010 643.133728
699 0 1 9.008801 5.852100 642.755371
700 0 1 8.950195 5.154360 642.138794
701 0 1 9.083210 4.470660 641.486084
702 0 1 9.082150 3.966900 640.622192
703 0 1 8.935304 3.249000 639.952209
704 0 1 8.630262 2.760130 639.179993
705 0 1 8.124845 2.432580 638.444031
706 0 1 7.564923 2.271120 637.670349
707 0 1 7.279873 2.263220 636.755188
708 0 1 7.099739 2.317390 635.825562
709 0 1 6.844430 2.237080 634.953003
710 0 1 6.870030 2.400760 634.014648
711 0 1 6.937110 2.550970 633.086609
712 0 1 6.889330 2.466150 632.025330
713 0 1 6.791290 2.536360 631.098572
714 0 1 6.676270 2.666670 630.158508
715 0 1 6.616270 2.891750 629.189453
716 0 1 6.601290 3.118310 628.271301
717 0 1 6.613450 3.428720 627.387939
718 0 1 6.736360 3.633140 626.426636
719 0 1 6.714880 3.332900 625.516907
720 0 1 6.804580 3.094010 624.628906
721 0 1 6.995970 3.064900 623.754333
722 0 1 6.954910 3.280830 622.810303
723 0 1 7.044237 3.369930 621.912109
724 0 1 6.977660 3.440050 620.950439
725 0 1 6.857880 3.535540 620.007507
726 0 1 6.889070 3.553480 619.025696
727 0 1 6.663210 3.604240 618.104187
728 0 1 6.267040 3.500770 617.253418
729 0 1 6.006240 3.519540 616.323975
730 0 1 5.925380 3.439700 615.337830
731 0 1 5.943850 3.399460 614.342285
732 0 1 6.095170 3.067380 613.443787
733 0 1 6.202100 2.715820 612.547180
734 0 1 6.396110 2.926190 611.638184
735 0 1 6.807120 2.979790 610.787781
736 0 1 6.918770 2.947560 609.814819
737 0 1 7.016796 2.992510 608.850403
738 0 1 6.825390 3.092860 607.922791
739 0 1 6.632520 3.144410 607.022827
740 0 1 6.562070 3.370700 606.093628
741 0 1 6.398830 3.757110 605.208313
742 0 1 5.971390 4.091210 604.357605
743 0 1 5.554630 3.814150 603.522522
744 0 1 5.661620 3.535670 602.572510
745 0 1 6.030990 3.162450 601.731384
746 0 1 6.420420 3.306180 600.857483
747 0 1 6.888650 3.232480 600.002319
748 0 1 7.338998 3.502290 599.123291
749 0 1 7.319942 4.122370 598.313110
750 0 1 7.384031 4.592870 597.464600
751 0 1 7.554182 5.055410 596.640991
752 0 1 7.681965 5.733510 595.975586
753 0 1 8.000539 6.298490 595.270874
754 0 1 8.110947 6.643210 594.381226
755 0 1 8.459958 6.660100 593.444824
756 0 1 8.658668 6.717410 592.479309
757 0 1 8.657789 6.472150 591.442078
758 0 1 8.961401 6.499080 590.539124
759 0 1 8.911553 6.599980 589.582520
760 0 1 9.108570 6.885740 588.673706
761 0 1 9.177840 7.348127 587.848083
762 0 1 9.296250 7.952052 587.107422
763 0 1 9.106130 8.461945 586.300903
764 0 1 8.722841 8.934599 585.514709
765 0 1 8.351166 9.398450 584.757324
766 0 1 8.099433 9.988100 584.062073
767 0 1 7.362786 9.877120 583.444519
768 0 1 6.678470 9.771070 582.759827
769 0 1 6.143090 9.993890 581.913330
770 0 1 5.974470 10.443840 581.028687
771 0 1 5.879430 10.933110 580.243103
772 0 1 5.688920 11.048640 579.317627
773 0 1 5.418330 11.108180 578.347168
774 0 1 5.406950 10.943120 577.376526
775 0 1 5.594720 10.554700 576.487305
776 0 1 5.995800 10.141750 575.746521
777 0 1 6.296910 9.764090 574.953186
778 0 1 6.717810 9.350510 574.239685
779 0 1 7.231041 9.155480 573.425598
780 0 1 7.455106 9.079830 572.462219
781 0 1 7.646558 8.845006 571.553711
782 0 1 8.145800 8.841967 570.742004
783 0 1 8.570644 8.643059 569.853699
784 0 1 8.747822 8.398090 568.919189
785 0 1 8.966552 8.713785 568.013000
786 0 1 9.218240 9.018550 567.095093
787 0 1 9.501190 9.413651 566.222290
788 0 1 10.217609 9.641190 565.557190
789 0 1 10.911830 9.830300 564.880493
790 0 1 11.593160 10.205050 564.280823
791 0 1 11.997869 10.582050 563.477112
792 0 1 12.340219 10.703450 562.512024
793 0 1 12.776950 10.606870 561.606995