LAMMPS data file via MDAnalysis

        1000  atoms
        1000  bonds
        1000  angles
           0  dihedrals
           0  impropers

           1  atom types
           1  bond types
           1  angle types
           0  dihedral types
           0  improper types

0.000000 16.000000 xlo xhi
0.000000 16.000000 ylo yhi
0.000000 1257.000000 zlo zhi


Masses

1 1.000000

Atoms

1 0 1 6.397450 3.104230 444.949005
2 0 1 6.258720 2.704730 445.838989
3 0 1 6.049010 2.267830 446.666992
4 0 1 5.963990 1.933120 447.542999
5 0 1 5.530020 1.799720 448.401978
6 0 1 5.195700 1.671200 449.283997
7 0 1 5.099950 1.809630 450.338989
8 0 1 5.499220 1.687900 451.216003
9 0 1 5.717830 1.667560 452.119019
10 0 1 5.991780 1.666070 453.158997
11 0 1 6.160670 1.983300 454.031006
12 0 1 6.382840 2.464240 454.761993
13 0 1 6.892390 2.790710 455.485992
14 0 1 7.393866 3.014590 456.253998
15 0 1 7.988756 3.065860 457.023010
16 0 1 8.537377 3.309200 457.750000
17 0 1 9.077090 3.588530 458.518005
18 0 1 9.516700 4.024990 459.221008
19 0 1 9.959249 4.401060 459.981995
20 0 1 10.055640 4.636610 460.984009
21 0 1 10.531281 4.899370 461.739990
22 0 1 10.853390 5.596350 462.397003
23 0 1 11.176600 5.904420 463.213989
24 0 1 11.453490 5.824920 464.169006
25 0 1 11.522890 5.879260 465.100006
26 0 1 11.589809 5.994300 466.059021
27 0 1 11.284850 6.046420 467.002014
28 0 1 11.072490 6.358120 467.971008
29 0 1 10.821170 6.529770 468.911011
30 0 1 10.516560 7.155960 469.679993
31 0 1 10.094640 7.454778 470.542999
32 0 1 9.533770 7.755854 471.411011
33 0 1 9.077940 8.175597 472.122986
34 0 1 8.483687 8.297071 472.862000
35 0 1 8.045064 8.247209 473.697021
36 0 1 7.576183 8.191346 474.518005
37 0 1 7.166666 8.554142 475.372009
38 0 1 6.931870 8.946457 476.260986
39 0 1 6.872470 8.959633 477.213013
40 0 1 6.632740 8.934493 478.164001
41 0 1 6.527400 8.955706 479.190979
42 0 1 6.204820 8.798507 480.098022
43 0 1 5.874450 8.548034 480.976013
44 0 1 5.372590 8.184737 481.699005
45 0 1 5.117520 7.659618 482.390991
46 0 1 4.842410 7.351683 483.270020
47 0 1 4.721470 6.693570 484.125000
48 0 1 4.845630 6.310450 485.037994
49 0 1 5.076760 6.113020 485.917999
50 0 1 5.626450 5.894800 486.739990
51 0 1 5.853990 5.735660 487.640015
52 0 1 6.174030 5.578590 488.484009
53 0 1 6.527100 5.640380 489.325012
54 0 1 6.836690 5.519880 490.203979
55 0 1 6.835240 5.270520 491.192017
56 0 1 6.906060 5.338650 492.145996
57 0 1 6.967440 5.250170 493.117004
58 0 1 7.169992 4.986140 494.062012
59 0 1 7.160117 4.516550 494.931000
60 0 1 7.594494 4.198780 495.731995
61 0 1 7.723115 3.750800 496.563995
62 0 1 7.972215 3.269200 497.319000
63 0 1 8.485732 3.033800 498.104004
64 0 1 8.816300 3.038220 499.033997
65 0 1 9.116670 3.135260 499.911011
66 0 1 9.207290 2.962990 500.839996
67 0 1 9.392900 2.605950 501.747009
68 0 1 9.804690 2.409320 502.572998
69 0 1 10.131570 2.226670 503.502991
70 0 1 10.020420 2.370300 504.459991
71 0 1 9.939390 2.449220 505.437988
72 0 1 9.982300 2.301020 506.390991
73 0 1 10.263880 2.205260 507.266998
74 0 1 10.390640 2.295760 508.263000
75 0 1 10.421630 2.690510 509.174988
76 0 1 10.324810 2.898770 510.127991
77 0 1 10.406490 3.225560 511.085999
78 0 1 10.375390 3.714710 511.945007
79 0 1 10.344730 4.096470 512.828003
80 0 1 10.532730 4.116640 513.792969
81 0 1 10.798770 3.884960 514.682983
82 0 1 10.808840 3.835560 515.695007
83 0 1 10.685510 3.675130 516.660034
84 0 1 10.286760 3.518490 517.495972
85 0 1 9.906030 3.302930 518.382996
86 0 1 9.745880 3.266070 519.318970
87 0 1 9.609070 3.356650 520.254028
88 0 1 9.721400 3.473810 521.226990
89 0 1 9.765830 3.730110 522.192017
90 0 1 9.926370 4.207890 522.979004
91 0 1 10.079580 4.581290 523.856018
92 0 1 10.085600 5.142430 524.705994
93 0 1 10.197440 5.492180 525.560974
94 0 1 10.401800 5.800180 526.487000
95 0 1 10.613950 6.340680 527.255005
96 0 1 10.859570 6.955410 527.992004
97 0 1 11.218530 7.453677 528.770203
98 0 1 11.613990 8.059230 529.410217
99 0 1 11.815380 8.683033 530.188232
100 0 1 11.838120 9.227730 531.011475
101 0 1 11.655040 9.501410 531.923096
102 0 1 11.057080 9.677790 532.577576
103 0 1 10.392190 9.859510 533.245422
104 0 1 9.732810 9.906670 533.988525
105 0 1 9.130670 9.847430 534.799622
106 0 1 8.538889 9.837590 535.531006
107 0 1 7.917828 9.892990 536.262573
108 0 1 7.370523 9.654080 537.011475
109 0 1 6.766050 9.543159 537.721191
110 0 1 6.694790 9.323030 538.628784
111 0 1 6.692220 8.999752 539.491699
112 0 1 6.538370 9.021560 540.429199
113 0 1 6.600070 9.235470 541.380493
114 0 1 6.820370 9.484090 542.295776
115 0 1 7.245296 9.982790 542.992432
116 0 1 7.425053 10.162010 543.882568
117 0 1 7.416032 10.410030 544.818420
118 0 1 7.542898 10.574471 545.804993
119 0 1 7.732502 10.709240 546.778687
120 0 1 7.798092 10.762730 547.786194
121 0 1 7.985511 10.650110 548.722168
122 0 1 8.206311 10.772730 549.632874
123 0 1 8.194009 10.888250 550.573486
124 0 1 8.228337 11.186180 551.466614
125 0 1 8.433412 11.411240 552.462280
126 0 1 8.439196 11.252340 553.451599
127 0 1 8.495106 11.298590 554.438599
128 0 1 8.835751 11.361691 555.427002
129 0 1 8.881313 11.325360 556.407776
130 0 1 8.886290 11.219740 557.365173
131 0 1 8.979833 11.386470 558.341003
132 0 1 9.093400 11.445271 559.274902
133 0 1 9.268720 11.287951 560.226501
134 0 1 9.557400 11.134490 561.106079
135 0 1 9.754970 10.947430 561.992981
136 0 1 9.827110 10.804330 562.939575
137 0 1 9.921200 10.588010 563.886414
138 0 1 10.386440 10.091850 564.589294
139 0 1 10.772650 9.596120 565.293884
140 0 1 11.196899 9.141490 566.030579
141 0 1 11.676730 8.922633 566.789124
142 0 1 12.257420 8.626429 567.507385
143 0 1 12.678360 8.291005 568.319275
144 0 1 12.810579 8.043883 569.237122
145 0 1 12.731780 7.841621 570.148010
146 0 1 12.887461 7.260709 570.948120
147 0 1 12.875380 6.927530 571.857910
148 0 1 12.757401 6.758150 572.838623
149 0 1 12.954309 6.785410 573.838379
150 0 1 12.893710 6.944980 574.801208
151 0 1 12.511600 7.417645 575.591431
152 0 1 12.111170 7.940643 576.283203
153 0 1 11.542350 8.503891 576.828796
154 0 1 10.924540 8.816175 577.413879
155 0 1 10.255690 9.293450 577.988892
156 0 1 9.637120 9.753139 578.653320
157 0 1 9.147720 10.210430 579.451599
158 0 1 8.642409 10.367220 580.303284
159 0 1 8.169630 10.495850 581.176697
160 0 1 7.829658 10.513570 582.036621
161 0 1 7.664462 10.420740 582.984680
162 0 1 7.359138 10.368090 583.913330
163 0 1 7.004070 10.192180 584.763916
164 0 1 6.821130 10.130950 585.721008
165 0 1 6.258950 9.962830 586.501099
166 0 1 5.883640 9.752290 587.326294
167 0 1 5.722710 9.448890 588.291809
168 0 1 5.634610 9.002690 589.067383
169 0 1 5.402650 8.403818 589.868774
170 0 1 5.326620 8.107019 590.784912
171 0 1 4.865120 7.617319 591.511902
172 0 1 4.582270 6.932560 592.189819
173 0 1 4.397210 6.424200 592.940918
174 0 1 4.293740 5.849120 593.785278
175 0 1 4.067410 5.571170 594.642822
176 0 1 3.781560 5.352380 595.536377
177 0 1 3.655400 5.112770 596.430298
178 0 1 3.616750 4.981430 597.390503
179 0 1 4.011640 4.654040 598.179688
180 0 1 4.390160 4.530090 599.042297
181 0 1 4.675050 4.528230 599.984497
182 0 1 4.987840 4.569230 600.884216
183 0 1 4.899320 4.570650 601.824524
184 0 1 5.008780 4.628530 602.812317
185 0 1 5.251920 5.196830 603.598083
186 0 1 5.516050 5.554640 604.527771
187 0 1 5.648880 5.767680 605.462891
188 0 1 5.570240 6.018080 606.435608
189 0 1 5.389380 6.119990 607.389282
190 0 1 5.331010 6.236080 608.391479
191 0 1 5.079680 6.089710 609.398804
192 0 1 4.754690 6.057780 610.303406
193 0 1 4.327040 5.795940 611.179810
194 0 1 4.055970 5.416730 611.984924
195 0 1 4.088650 5.074960 612.877808
196 0 1 4.130810 4.758800 613.769287
197 0 1 4.141510 4.529540 614.725830
198 0 1 4.210530 4.553570 615.684509
199 0 1 4.222760 4.739510 616.642029
200 0 1 4.315110 5.080280 617.536499
201 0 1 4.489220 5.095390 618.450195
202 0 1 4.704400 4.761590 619.322266
203 0 1 4.919540 4.475380 620.201538
204 0 1 5.287310 4.227930 621.068665
205 0 1 5.743970 4.192050 621.921448
206 0 1 5.869250 3.984490 622.897522
207 0 1 5.978030 3.944150 623.855530
208 0 1 5.955330 4.356490 624.798523
209 0 1 6.005630 4.956690 625.536682
210 0 1 5.765380 5.418830 626.352478
211 0 1 5.514760 5.799660 627.194275
212 0 1 5.245080 6.315560 627.934021
213 0 1 5.058100 6.937350 628.617493
214 0 1 4.959260 7.393957 629.448730
215 0 1 4.527960 7.895543 630.180725
216 0 1 4.136970 8.451468 630.937744
217 0 1 3.740360 8.939518 631.757019
218 0 1 3.634930 9.181050 632.655640
219 0 1 3.498680 9.234700 633.704895
220 0 1 3.396990 9.024330 634.630432
221 0 1 3.127800 8.857426 635.569275
222 0 1 2.779260 8.599058 636.436340
223 0 1 2.412870 8.725127 637.266907
224 0 1 2.113440 8.765473 638.170959
225 0 1 1.882790 8.656657 639.058472
226 0 1 1.723250 9.090370 639.941528
227 0 1 1.733410 9.562360 640.817993
228 0 1 1.815700 9.992040 641.681213
229 0 1 2.130470 10.577250 642.499329
230 0 1 2.346950 11.087320 643.276123
231 0 1 2.370500 11.442960 644.136230
232 0 1 2.818330 11.587379 645.028687
233 0 1 3.262280 11.960330 645.814026
234 0 1 3.809650 12.365440 646.558105
235 0 1 4.044290 12.725941 647.454102
236 0 1 4.202480 13.022690 648.398376
237 0 1 4.709140 13.269620 649.138123
238 0 1 5.326230 13.374331 649.853882
239 0 1 5.950060 13.486020 650.575073
240 0 1 6.477650 13.370960 651.396729
241 0 1 6.846330 13.326370 652.270996
242 0 1 7.217779 13.188260 653.154907
243 0 1 7.474659 12.915030 654.037109
244 0 1 7.993145 12.626320 654.768127
245 0 1 8.252036 12.181049 655.552490
246 0 1 8.800375 11.826480 656.315308
247 0 1 9.242490 11.567760 657.120911
248 0 1 9.304620 11.166250 657.991882
249 0 1 9.222910 10.736361 658.858582
250 0 1 8.891822 10.394290 659.730286
251 0 1 8.708051 10.062240 660.618286
252 0 1 8.440182 9.939190 661.531006
253 0 1 8.250604 9.845750 662.497009
254 0 1 8.336819 9.887671 663.510620
255 0 1 8.485212 9.842200 664.487976
256 0 1 8.553826 9.633090 665.430298
257 0 1 8.616234 9.389090 666.367981
258 0 1 8.836335 9.209870 667.338684
259 0 1 9.002890 8.815409 668.154175
260 0 1 8.935423 8.539606 669.144775
261 0 1 8.861955 8.150568 670.046387
262 0 1 8.769819 7.779842 670.929688
263 0 1 8.651938 7.407985 671.891907
264 0 1 8.497766 6.934440 672.779175
265 0 1 8.293702 6.545440 673.786682
266 0 1 8.205183 6.215680 674.702576
267 0 1 8.065595 5.804790 675.563721
268 0 1 8.059976 5.579000 676.568115
269 0 1 8.446918 5.315930 677.364380
270 0 1 8.650388 4.850170 678.242004
271 0 1 8.915883 4.536370 679.130615
272 0 1 8.944979 4.428430 680.091675
273 0 1 8.867843 4.173610 681.027832
274 0 1 9.108130 4.361630 681.973389
275 0 1 9.706630 4.476990 682.769409
276 0 1 10.210400 4.512460 683.539673
277 0 1 10.652360 4.697940 684.495300
278 0 1 11.011280 4.625620 685.361389
279 0 1 11.323550 4.450020 686.224915
280 0 1 11.959579 4.237530 686.871094
281 0 1 12.605750 4.159930 687.504578
282 0 1 13.086201 4.241620 688.330200
283 0 1 13.341660 4.379910 689.283875
284 0 1 13.275790 4.330600 690.247986
285 0 1 13.214360 4.378690 691.217102
286 0 1 13.051540 4.216740 692.224487
287 0 1 12.991090 4.076070 693.156311
288 0 1 12.978470 3.850140 694.091614
289 0 1 13.151569 3.842700 695.088013
290 0 1 13.449580 3.950720 696.036499
291 0 1 13.773170 4.218540 696.914307
292 0 1 13.847620 4.679540 697.745178
293 0 1 13.794830 4.815950 698.716187
294 0 1 13.884940 4.942080 699.645386
295 0 1 13.596860 4.947530 700.591614
296 0 1 13.212820 4.808400 701.454590
297 0 1 12.659150 4.712280 702.269104
298 0 1 12.187981 4.555470 703.157593
299 0 1 11.529810 4.586270 703.918091
300 0 1 10.829269 4.661570 704.568481
301 0 1 10.190860 4.350930 705.231079
302 0 1 9.573330 4.311510 706.059509
303 0 1 9.229600 4.506870 706.911133
304 0 1 8.730202 4.585900 707.722534
305 0 1 8.459421 4.725860 708.587891
306 0 1 8.292725 4.997400 709.511597
307 0 1 8.166793 5.281330 710.490295
308 0 1 8.014698 5.532470 711.399292
309 0 1 8.107767 5.737160 712.331116
310 0 1 8.298336 5.766220 713.225586
311 0 1 8.638610 6.034820 714.068909
312 0 1 8.912695 5.993100 715.020874
313 0 1 9.121340 6.256570 715.975281
314 0 1 9.424370 6.641000 716.816528
315 0 1 9.482730 7.091856 717.715698
316 0 1 9.597970 7.690456 718.461609
317 0 1 9.573750 8.300147 719.247192
318 0 1 9.750540 8.833743 719.975586
319 0 1 9.782290 9.531010 720.752808
320 0 1 9.682590 10.086300 721.456604
321 0 1 9.616680 10.768950 722.099609
322 0 1 9.595590 11.323111 722.884583
323 0 1 9.859660 11.494090 723.810425
324 0 1 9.853530 11.528151 724.810669
325 0 1 9.792910 11.695890 725.731567
326 0 1 9.624320 11.895480 726.694092
327 0 1 9.237510 12.298290 727.481567
328 0 1 8.841261 12.725690 728.298279
329 0 1 8.636094 13.008750 729.208008
330 0 1 8.564827 13.187660 730.172974
331 0 1 8.309524 13.539230 731.013000
332 0 1 8.005621 13.752581 731.908020
333 0 1 7.757624 13.934490 732.815979
334 0 1 7.930048 14.277580 733.760010
335 0 1 8.164506 14.516160 734.705017
336 0 1 8.339306 14.666910 735.643005
337 0 1 8.348468 14.597509 736.568970
338 0 1 8.307958 14.310560 737.458984
339 0 1 8.273673 13.880970 738.299011
340 0 1 8.417127 13.779680 739.224976
341 0 1 8.965762 13.506350 740.083984
342 0 1 9.453720 13.048700 740.760986
343 0 1 9.697371 12.567940 741.575012
344 0 1 10.290200 11.975940 741.916992
345 0 1 10.711160 11.233630 742.286987
346 0 1 10.847919 10.363520 742.634033
347 0 1 11.005620 9.508850 742.968018
348 0 1 11.100420 8.723814 743.410034
349 0 1 11.283910 7.958027 743.979004
350 0 1 11.465490 7.509735 744.835999
351 0 1 11.571600 7.002653 745.671997
352 0 1 11.747580 6.842060 746.556030
353 0 1 11.771749 6.770480 747.518982
354 0 1 11.941220 6.631730 748.510010
355 0 1 12.022760 6.324950 749.457031
356 0 1 12.300870 5.984060 750.353027
357 0 1 12.575190 5.751250 751.234985
358 0 1 13.014111 5.713390 752.111023
359 0 1 13.435600 5.531830 752.913025
360 0 1 13.480000 5.354930 753.812988
361 0 1 13.624530 5.101800 754.703003
362 0 1 13.350690 4.755300 755.528992
363 0 1 12.811750 4.181420 756.036011
364 0 1 12.344231 3.544510 756.578979
365 0 1 11.761030 3.039580 757.151978
366 0 1 11.286400 2.566430 757.833984
367 0 1 10.834020 2.366340 758.630005
368 0 1 10.312050 2.203580 759.469971
369 0 1 9.905000 1.787150 760.299011
370 0 1 9.715900 1.367150 761.171021
371 0 1 9.450940 1.215230 762.072998
372 0 1 9.269300 1.374490 763.083984
373 0 1 9.043630 1.627190 764.007019
374 0 1 9.003910 2.058240 764.864990
375 0 1 8.963018 2.382660 765.747986
376 0 1 8.880458 2.734440 766.620972
377 0 1 8.900108 3.252710 767.417969
378 0 1 9.001460 3.694060 768.312012
379 0 1 8.959666 4.004240 769.286011
380 0 1 9.028640 4.201690 770.238037
381 0 1 8.894504 4.351740 771.214966
382 0 1 8.706255 4.455140 772.162964
383 0 1 8.320449 4.337420 773.028015
384 0 1 8.132798 4.017940 773.937988
385 0 1 8.067827 3.833300 774.854980
386 0 1 7.834100 3.614680 775.797974
387 0 1 7.718402 3.564220 776.716003
388 0 1 7.547286 3.534760 777.682007
389 0 1 7.169396 3.595480 778.547974
390 0 1 6.761900 3.867810 779.406006
391 0 1 6.467590 4.110970 780.263000
392 0 1 5.912140 4.547890 780.978027
393 0 1 5.586700 5.038700 781.755005
394 0 1 5.276200 5.477270 782.557983
395 0 1 4.981770 5.704510 783.434998
396 0 1 4.640140 6.165560 784.221985
397 0 1 4.289910 6.423110 785.044983
398 0 1 4.097400 6.812510 785.906006
399 0 1 4.190790 7.188237 786.764038
400 0 1 4.088950 7.569024 787.686035
401 0 1 3.956910 7.833538 788.559998
402 0 1 3.684580 8.059821 789.406006
403 0 1 3.653710 8.415401 790.257996
404 0 1 3.672120 8.860830 791.096008
405 0 1 3.815540 8.861132 792.062012
406 0 1 4.107980 9.198140 792.914978
407 0 1 4.423330 9.199020 793.844971
408 0 1 4.793380 9.278460 794.679993
409 0 1 5.189980 9.261920 795.528992
410 0 1 5.445000 9.632180 796.339966
411 0 1 5.328200 10.059130 797.172974
412 0 1 5.260030 10.548310 797.983032
413 0 1 5.089550 10.978910 798.870972
414 0 1 5.001330 11.041980 799.812012
415 0 1 5.019890 11.360229 800.787964
416 0 1 5.040790 11.353410 801.728027
417 0 1 5.143550 11.255020 802.700989
418 0 1 5.382120 11.156440 803.578979
419 0 1 5.518800 11.165710 804.494019
420 0 1 5.597670 11.192380 805.458008
421 0 1 5.799480 11.285350 806.403992
422 0 1 6.276950 11.378571 807.283020
423 0 1 6.835150 11.492380 807.964966
424 0 1 6.947840 11.485090 808.942993
425 0 1 6.752150 11.496620 809.889038
426 0 1 6.463090 11.528890 810.791992
427 0 1 6.400060 11.274240 811.745972
428 0 1 6.369900 11.035240 812.695984
429 0 1 6.542540 11.120020 813.591003
430 0 1 6.805180 11.123899 814.554016
431 0 1 7.080710 11.223710 815.401978
432 0 1 7.286262 11.217790 816.363037
433 0 1 7.755699 11.016630 817.192017
434 0 1 7.960068 10.721720 818.114014
435 0 1 8.272156 10.727770 819.041992
436 0 1 8.640257 10.620240 819.841980
437 0 1 8.907181 10.474649 820.755005
438 0 1 9.247670 10.109520 821.582031
439 0 1 9.764160 9.901730 822.364990
440 0 1 10.232280 9.567330 823.122986
441 0 1 10.845660 9.547720 823.948975
442 0 1 11.148109 9.626170 824.848999
443 0 1 11.157400 9.706520 825.820007
444 0 1 11.084730 9.662510 826.771973
445 0 1 11.122459 9.539600 827.713013
446 0 1 11.212180 9.229400 828.640991
447 0 1 11.158070 8.813830 829.432007
448 0 1 11.213040 8.434378 830.325989
449 0 1 11.601170 8.023955 831.145996
450 0 1 11.849190 7.787705 832.125000
451 0 1 11.890630 7.520259 833.052979
452 0 1 11.534570 7.290196 833.940979
453 0 1 11.133950 7.316072 834.781006
454 0 1 10.646120 7.185716 835.518005
455 0 1 10.167250 6.899510 836.259033
456 0 1 9.363330 6.432960 836.713989
457 0 1 8.616960 6.255010 837.292969
458 0 1 7.823594 6.336780 837.755005
459 0 1 6.915040 6.389830 838.156006
460 0 1 5.973760 6.606350 838.327026
461 0 1 5.055670 6.799580 838.033997
462 0 1 4.271650 7.132904 837.671997
463 0 1 3.494230 7.381898 837.182007
464 0 1 3.005270 7.870344 836.447998
465 0 1 2.551580 8.162407 835.617981
466 0 1 2.027770 8.592194 834.862000
467 0 1 1.647890 9.150580 834.234985
468 0 1 1.655300 9.788020 833.476013
469 0 1 1.915320 10.468500 832.809021
470 0 1 2.356670 11.071320 832.237000
471 0 1 2.873300 11.659480 831.666992
472 0 1 3.254230 12.001540 830.870972
473 0 1 3.805230 12.191710 830.049011
474 0 1 4.402420 12.275140 829.276001
475 0 1 4.865240 12.257760 828.442993
476 0 1 5.475620 12.410720 827.679993
477 0 1 5.960200 13.073259 827.051025
478 0 1 6.482530 13.469030 826.343994
479 0 1 7.089598 13.559510 825.573975
480 0 1 7.488198 13.653310 824.695007
481 0 1 7.910676 13.697821 823.841980
482 0 1 8.333620 13.781281 823.002014
483 0 1 8.786000 13.632950 822.255981
484 0 1 9.076470 13.356609 821.374023
485 0 1 9.132750 13.436630 820.364014
486 0 1 9.329930 13.759610 819.447998
487 0 1 9.516890 13.664660 818.510986
488 0 1 9.485320 13.583750 817.593994
489 0 1 9.697770 13.427190 816.640015
490 0 1 10.006560 13.076250 815.818970
491 0 1 10.404810 12.613689 815.139038
492 0 1 10.770480 12.171880 814.338013
493 0 1 10.930550 11.566060 813.620972
494 0 1 11.178930 10.768900 813.181030
495 0 1 11.615150 10.047380 812.765991
496 0 1 12.036119 9.247580 812.302002
497 0 1 12.157840 8.482873 811.804993
498 0 1 12.038500 7.903136 811.010986
499 0 1 11.723400 7.306974 810.346985
500 0 1 11.312460 6.981690 809.478027
501 0 1 11.055700 6.938230 808.554993
502 0 1 10.524530 6.676030 807.851013
503 0 1 9.926160 6.687070 807.093018
504 0 1 9.372460 6.633110 806.244995
505 0 1 8.836749 6.739300 805.479004
506 0 1 8.401740 6.708810 804.609009
507 0 1 8.192021 6.746060 803.705017
508 0 1 7.843979 6.785670 802.820007
509 0 1 7.722342 6.962600 801.828979
510 0 1 7.632032 7.308937 800.938965
511 0 1 7.750275 7.630303 800.063965
512 0 1 7.669380 8.013880 799.187988
513 0 1 7.590869 8.279314 798.268005
514 0 1 7.625243 8.438448 797.343018
515 0 1 7.591442 8.589864 796.349976
516 0 1 7.707884 9.015490 795.411011
517 0 1 7.939279 8.986900 794.484985
518 0 1 7.867590 8.874542 793.497009
519 0 1 7.825170 8.263271 792.723999
520 0 1 7.725695 7.945294 791.822998
521 0 1 7.770147 7.739207 790.841980
522 0 1 7.785826 7.586738 789.893982
523 0 1 7.496738 7.173493 789.062012
524 0 1 7.413389 6.623300 788.237000
525 0 1 7.231961 6.182470 787.343994
526 0 1 6.739940 5.911710 786.536011
527 0 1 6.222950 5.706680 785.781006
528 0 1 5.875870 5.330480 784.875000
529 0 1 6.075430 5.161290 783.934021
530 0 1 6.258400 4.979810 783.059998
531 0 1 6.609460 4.646360 782.257996
532 0 1 6.987110 4.526000 781.455994
533 0 1 7.368886 4.597460 780.573975
534 0 1 7.500831 4.903890 779.671997
535 0 1 7.608266 5.371600 778.835999
536 0 1 7.745399 5.801180 777.929016
537 0 1 7.738938 5.868350 776.989990
538 0 1 7.542702 6.181970 776.112000
539 0 1 7.539212 6.602800 775.182007
540 0 1 7.661935 6.875060 774.287964
541 0 1 8.084497 7.164185 773.520020
542 0 1 8.842323 7.622629 773.108032
543 0 1 9.260509 8.154267 772.448975
544 0 1 9.717000 8.576849 771.640991
545 0 1 10.023180 9.021120 770.807007
546 0 1 10.078510 9.217710 769.806030
547 0 1 10.235110 8.950957 768.884033
548 0 1 10.207581 8.985553 767.968994
549 0 1 10.158390 9.258290 767.078979
550 0 1 10.056270 9.523290 766.184998
551 0 1 10.164820 9.559280 765.161011
552 0 1 10.401680 9.854250 764.312988
553 0 1 10.251550 10.344960 763.525024
554 0 1 10.343740 10.839050 762.776001
555 0 1 10.210850 11.424510 761.955017
556 0 1 10.243820 12.191640 761.365967
557 0 1 10.235910 12.850670 760.682983
558 0 1 10.392700 13.408680 759.863037
559 0 1 10.495390 13.585730 758.968018
560 0 1 10.627410 13.883860 758.093018
561 0 1 10.758630 13.905710 757.101013
562 0 1 10.904040 13.517500 756.247009
563 0 1 10.918950 13.065460 755.351013
564 0 1 10.899509 12.546520 754.585022
565 0 1 11.014050 11.892550 753.838013
566 0 1 11.102520 11.503790 752.950012
567 0 1 11.152309 11.387960 752.035034
568 0 1 11.171190 11.274440 751.052979
569 0 1 11.241740 10.873100 750.214966
570 0 1 11.332660 10.511499 749.309998
571 0 1 11.155530 9.949890 748.510986
572 0 1 10.874450 9.550740 747.690979
573 0 1 10.711440 9.281919 746.754028
574 0 1 10.343960 9.062200 745.884033
575 0 1 9.979990 8.723680 745.049988
576 0 1 9.560660 8.381943 744.250000
577 0 1 9.023560 7.936437 743.533997
578 0 1 8.723369 7.565008 742.677979
579 0 1 8.756958 7.196702 741.809998
580 0 1 8.994391 7.039411 740.864014
581 0 1 9.402020 6.756100 739.995972
582 0 1 9.753139 6.491220 739.145020
583 0 1 9.958130 6.155480 738.306030
584 0 1 10.019200 5.699870 737.474976
585 0 1 9.828660 5.314470 736.635010
586 0 1 9.884680 4.997060 735.747009
587 0 1 9.974950 4.777120 734.745972
588 0 1 9.855070 4.487510 733.859009
589 0 1 9.792880 4.406810 732.919006
590 0 1 9.780040 4.458460 731.961975
591 0 1 9.613540 4.728310 731.054993
592 0 1 9.443430 4.741140 730.106995
593 0 1 9.099140 4.691760 729.211975
594 0 1 8.601634 4.887080 728.436768
595 0 1 8.018734 5.257840 727.775513
596 0 1 7.384903 5.649650 727.148071
597 0 1 7.183007 6.005810 726.303284
598 0 1 6.994250 6.402960 725.420166
599 0 1 7.013296 7.069953 724.723633
600 0 1 6.984070 7.689837 723.888977
601 0 1 7.221453 8.336218 723.184021
602 0 1 7.099540 9.085200 722.501404
603 0 1 7.075000 9.898080 722.069519
604 0 1 7.026256 10.763230 721.634399
605 0 1 7.036332 11.528240 721.167297
606 0 1 6.710160 12.129610 720.496277
607 0 1 6.464080 12.641060 719.747192
608 0 1 6.266390 13.019560 718.882019
609 0 1 6.253210 12.972290 717.899109
610 0 1 6.198070 13.074360 717.008606
611 0 1 5.841170 13.005381 716.129700
612 0 1 5.777330 12.836760 715.114014
613 0 1 5.701890 12.947121 714.058594
614 0 1 5.622750 12.963090 713.107483
615 0 1 5.751430 12.890390 712.101379
616 0 1 5.843080 12.832850 711.143982
617 0 1 5.928100 12.878890 710.177979
618 0 1 5.938530 13.009581 709.244324
619 0 1 5.920760 13.166590 708.288208
620 0 1 5.994630 13.637510 707.463318
621 0 1 6.274080 13.787439 706.577393
622 0 1 6.584760 13.683559 705.658508
623 0 1 6.852070 13.649670 704.754578
624 0 1 7.167854 13.509570 703.848694
625 0 1 7.489382 12.826380 703.202271
626 0 1 7.561567 12.183950 702.454590
627 0 1 7.746899 11.534140 701.735596
628 0 1 7.933717 11.005569 700.962708
629 0 1 8.157786 10.514220 700.106201
630 0 1 8.448237 10.121510 699.298523
631 0 1 8.680248 9.674590 698.506775
632 0 1 8.751841 9.362550 697.618530
633 0 1 8.766352 8.975497 696.655090
634 0 1 8.766432 8.366621 695.870605
635 0 1 8.450500 7.866799 695.088684
636 0 1 8.142922 7.540256 694.250732
637 0 1 7.584248 7.065237 693.566711
638 0 1 7.083224 6.715490 692.894897
639 0 1 6.610330 6.566020 692.120789
640 0 1 5.989040 6.413870 691.446472
641 0 1 5.320890 6.425200 690.754211
642 0 1 4.813200 6.409360 689.940674
643 0 1 4.281300 6.454050 689.169373
644 0 1 4.049330 6.800610 688.282593
645 0 1 4.153290 7.105214 687.313721
646 0 1 4.259940 7.260604 686.419983
647 0 1 4.176580 7.658890 685.521973
648 0 1 4.099460 8.075323 684.634888
649 0 1 4.068820 8.390216 683.758179
650 0 1 3.967590 8.676635 682.804016
651 0 1 3.647740 8.689679 681.858826
652 0 1 3.455640 8.562229 680.920776
653 0 1 3.486280 8.566850 680.000916
654 0 1 3.225520 8.850339 679.117981
655 0 1 3.282290 8.951195 678.185608
656 0 1 3.189060 8.916361 677.227600
657 0 1 3.140010 9.021760 676.297119
658 0 1 3.315770 8.914535 675.426270
659 0 1 3.411560 8.370154 674.612305
660 0 1 3.591810 7.865813 673.861023
661 0 1 3.953600 7.292942 673.257324
662 0 1 4.393030 6.729510 672.635315
663 0 1 5.064790 6.430670 672.027588
664 0 1 5.739780 6.067740 671.335693
665 0 1 6.432470 5.770870 670.708984
666 0 1 7.053302 5.316970 670.091003
667 0 1 7.658440 5.136640 669.325500
668 0 1 8.216315 4.982180 668.509827
669 0 1 8.647122 5.081890 667.626831
670 0 1 9.247590 5.469890 667.014404
671 0 1 9.744280 5.754310 666.210388
672 0 1 10.409090 5.982270 665.554382
673 0 1 10.794530 6.307310 664.732300
674 0 1 11.052150 6.509940 663.828491
675 0 1 11.307240 6.380890 662.883911
676 0 1 11.347790 6.102720 661.893677
677 0 1 11.265030 5.616980 661.019714
678 0 1 11.120310 5.207760 660.112976
679 0 1 10.792990 4.932640 659.258606
680 0 1 10.588910 4.908990 658.350281
681 0 1 10.483910 4.910930 657.359802
682 0 1 10.654370 5.235740 656.407715
683 0 1 10.734540 5.721780 655.564209
684 0 1 10.911449 6.200050 654.683228
685 0 1 10.967730 6.745670 653.879028
686 0 1 11.245980 7.188689 653.071228
687 0 1 11.508460 7.670110 652.336670
688 0 1 11.614150 8.079069 651.495972
689 0 1 11.761560 8.437609 650.635071
690 0 1 11.932270 8.896811 649.844177
691 0 1 12.239990 9.158130 648.987671
692 0 1 12.384769 9.337049 648.009705
693 0 1 12.393970 9.619850 647.092285
694 0 1 12.041950 9.552040 646.230103
695 0 1 11.591340 9.568660 645.390015
696 0 1 11.245340 9.664250 644.500488
697 0 1 10.845449 9.600060 643.654785
698 0 1 10.702240 9.524070 642.684875
699 0 1 10.237630 9.620720 641.908997
700 0 1 9.981350 9.816700 641.047607
701 0 1 9.694290 9.880070 640.058289
702 0 1 9.371550 9.888309 639.158386
703 0 1 8.790895 9.869470 638.393738
704 0 1 8.489073 9.890920 637.507324
705 0 1 8.114338 9.998140 636.657288
706 0 1 7.825968 9.945980 635.703247
707 0 1 7.330751 10.061470 634.817627
708 0 1 6.683630 10.263330 634.189819
709 0 1 6.054130 10.420210 633.509521
710 0 1 5.677460 10.353580 632.613403
711 0 1 5.406300 10.439030 631.683899
712 0 1 4.947550 10.176390 630.862793
713 0 1 4.666970 10.069390 629.964111
714 0 1 4.363050 9.958720 628.975647
715 0 1 4.063120 10.200570 628.130432
716 0 1 3.931510 10.225930 627.171082
717 0 1 3.799200 10.183960 626.198059
718 0 1 3.680500 10.198100 625.247681
719 0 1 3.774920 10.088380 624.328125
720 0 1 4.029570 10.121480 623.437866
721 0 1 4.522080 10.129980 622.618408
722 0 1 4.747340 10.114850 621.643921
723 0 1 5.151500 10.382270 620.850891
724 0 1 5.355920 10.581409 619.905884
725 0 1 5.658080 10.629240 619.012634
726 0 1 6.027290 11.049760 618.289795
727 0 1 6.300660 11.461309 617.484375
728 0 1 6.312030 11.975930 616.666504
729 0 1 6.742280 12.215230 615.896423
730 0 1 6.781320 12.384460 614.891113
731 0 1 6.648360 12.798630 614.030701
732 0 1 6.575360 12.985600 613.020081
733 0 1 6.448790 13.151640 612.081909
734 0 1 6.556050 13.632760 611.281311
735 0 1 6.734690 13.803101 610.311584
736 0 1 7.127424 13.767990 609.450073
737 0 1 7.659460 13.533210 608.622620
738 0 1 8.333475 13.425600 607.852600
739 0 1 8.937442 13.134970 607.176575
740 0 1 9.719660 12.899490 606.581299
741 0 1 10.206290 12.756701 605.807007
742 0 1 10.689950 12.675800 604.895874
743 0 1 11.099770 12.557660 604.055420
744 0 1 11.424910 12.234460 603.194702
745 0 1 11.788850 11.924191 602.336426
746 0 1 12.066210 12.074619 601.463623
747 0 1 12.098790 12.275721 600.512878
748 0 1 12.372390 12.052589 599.585999
749 0 1 12.422970 11.966480 598.651001
750 0 1 12.362989 11.824950 597.662781
751 0 1 12.204530 11.626790 596.702209
752 0 1 11.876730 11.252620 595.899475
753 0 1 11.635500 11.069910 594.924316
754 0 1 11.415480 10.498390 594.184326
755 0 1 11.441450 9.889390 593.466980
756 0 1 11.209930 9.684260 592.571899
757 0 1 11.132710 9.561890 591.595581
758 0 1 11.058960 9.464470 590.613770
759 0 1 10.850970 9.616270 589.607788
760 0 1 10.633960 9.787110 588.638306
761 0 1 10.508801 10.135139 587.767700
762 0 1 10.375370 10.318030 586.817200
763 0 1 10.331050 10.583430 585.861206
764 0 1 10.275351 11.042160 585.018005
765 0 1 10.347680 11.617520 584.199829
766 0 1 10.312610 12.368179 583.618530
767 0 1 10.418970 13.125760 582.972412
768 0 1 10.281010 13.509920 582.140320
769 0 1 9.897120 13.761380 581.294312
770 0 1 9.461470 14.006760 580.453674
771 0 1 8.909968 14.112570 579.643372
772 0 1 8.602252 14.021690 578.748474
773 0 1 8.001792 14.140289 577.943115
774 0 1 7.292190 14.134260 577.326294
775 0 1 6.790180 14.178410 576.509216
776 0 1 6.269070 14.026300 575.680786
777 0 1 5.849480 13.807899 574.864624
778 0 1 5.316030 13.526569 574.088501
779 0 1 4.921710 13.245450 573.255188
780 0 1 4.788470 12.937810 572.294678
781 0 1 4.704620 12.687750 571.374268
782 0 1 4.737860 12.269890 570.487610
783 0 1 4.550090 11.840240 569.648010
784 0 1 4.538670 11.430090 568.784302
785 0 1 4.666170 10.952520 568.029602
786 0 1 4.882380 10.482140 567.225708
787 0 1 5.085660 9.944970 566.468628
788 0 1 5.412220 9.651360 565.552307
789 0 1 5.800110 9.614150 564.720886
790 0 1 6.180400 9.633190 563.794006