LAMMPS data file via MDAnalysis

        1000  atoms
        1000  bonds
        1000  angles
           0  dihedrals
           0  impropers

           1  atom types
           1  bond types
           1  angle types
           0  dihedral types
           0  improper types

0.000000 16.000000 xlo xhi
0.000000 16.000000 ylo yhi
0.000000 1257.000000 zlo zhi


Masses

1 1.000000

Atoms

1 0 1 10.465910 11.395940 458.966003
2 0 1 10.616301 11.275209 459.903015
3 0 1 10.919140 10.860000 460.750000
4 0 1 10.789110 10.416050 461.606018
5 0 1 10.792780 10.179280 462.582001
6 0 1 10.701850 9.892960 463.490997
7 0 1 10.913930 9.657420 464.460022
8 0 1 10.762350 9.504840 465.411011
9 0 1 11.049459 9.383210 466.380005
10 0 1 11.458590 9.192200 467.212006
11 0 1 12.183010 9.013430 467.789001
12 0 1 12.937880 8.859647 468.364014
13 0 1 13.549740 8.545039 468.994019
14 0 1 14.036739 8.156782 469.800995
15 0 1 14.106000 7.961268 470.708984
16 0 1 14.253290 8.022278 471.712006
17 0 1 14.170410 8.311363 472.601990
18 0 1 14.123110 8.379151 473.578003
19 0 1 13.833120 8.259781 474.497986
20 0 1 13.418190 8.476368 475.315979
21 0 1 12.805950 8.796234 476.031982
22 0 1 12.254410 9.403820 476.576996
23 0 1 11.978251 9.879810 477.292999
24 0 1 11.831980 10.598400 477.889008
25 0 1 11.591780 11.112580 478.675995
26 0 1 11.316800 11.495871 479.523010
27 0 1 11.012300 11.742980 480.466980
28 0 1 10.700250 12.192320 481.177979
29 0 1 10.505490 12.561029 481.968018
30 0 1 10.040540 12.823500 482.796997
31 0 1 9.758720 13.131559 483.602997
32 0 1 9.615910 13.407780 484.494019
33 0 1 9.601900 13.599300 485.444000
34 0 1 9.789450 13.895130 486.362000
35 0 1 9.841350 14.113710 487.247009
36 0 1 9.861110 14.296340 488.187988
37 0 1 9.881130 14.332520 489.156006
38 0 1 10.096130 14.298309 490.088013
39 0 1 10.187160 14.186710 491.062988
40 0 1 10.127700 14.267990 492.052979
41 0 1 10.009970 14.150960 493.026001
42 0 1 9.965470 13.651990 493.854980
43 0 1 9.987460 13.199400 494.695984
44 0 1 9.805200 12.884729 495.628998
45 0 1 9.641790 12.868780 496.572021
46 0 1 9.494061 12.805490 497.539001
47 0 1 9.348280 12.926519 498.544983
48 0 1 9.170650 12.682631 499.468018
49 0 1 9.329660 12.742640 500.421021
50 0 1 9.448600 12.736370 501.434998
51 0 1 9.407220 12.907129 502.399994
52 0 1 9.506150 13.050570 503.365997
53 0 1 9.543290 12.901880 504.307983
54 0 1 9.369200 13.176270 505.269989
55 0 1 9.027040 13.399549 506.123993
56 0 1 8.756509 13.315519 507.018005
57 0 1 8.301824 13.149170 507.890015
58 0 1 7.797838 13.149960 508.751007
59 0 1 7.150562 13.027020 509.487000
60 0 1 6.330450 12.750879 509.828003
61 0 1 5.448330 12.569530 510.213013
62 0 1 4.590600 12.416309 510.541016
63 0 1 3.945110 12.543570 511.212006
64 0 1 3.370950 12.594370 512.082031
65 0 1 2.903630 12.319241 512.874023
66 0 1 2.683160 11.708330 513.552979
67 0 1 2.896330 11.250190 514.410034
68 0 1 3.352310 11.129080 515.216003
69 0 1 3.926500 11.053310 515.961975
70 0 1 4.195380 10.918410 516.875977
71 0 1 4.777000 10.485661 517.448975
72 0 1 5.276730 10.367020 518.285034
73 0 1 5.724910 10.212310 519.101013
74 0 1 6.387570 10.078150 519.817993
75 0 1 6.848570 9.700120 520.653992
76 0 1 6.968830 9.338360 521.530029
77 0 1 6.988640 8.857744 522.330994
78 0 1 6.859740 8.520090 523.283020
79 0 1 6.817910 7.993677 524.035034
80 0 1 6.696660 7.380795 524.773010
81 0 1 6.261530 6.662900 525.252991
82 0 1 5.820150 6.073210 525.916016
83 0 1 5.648990 5.207250 526.317993
84 0 1 5.474310 4.444320 526.830017
85 0 1 5.304820 3.871490 527.578979
86 0 1 5.364210 3.544380 528.533386
87 0 1 5.553290 3.142920 529.406311
88 0 1 5.680700 2.451050 530.107117
89 0 1 5.471340 2.157540 530.995789
90 0 1 5.098840 1.970440 531.927124
91 0 1 4.910470 2.154200 532.860413
92 0 1 4.607120 2.797980 533.547729
93 0 1 4.095470 3.145660 534.248413
94 0 1 3.599330 3.373830 535.026733
95 0 1 3.430110 3.851510 535.863403
96 0 1 3.081190 4.563930 536.567383
97 0 1 2.559300 5.216370 537.229370
98 0 1 2.060660 5.643260 537.900024
99 0 1 1.862990 6.201640 538.756104
100 0 1 1.775660 6.683580 539.596802
101 0 1 1.927810 7.117437 540.411621
102 0 1 2.165230 7.416762 541.337402
103 0 1 2.464380 8.086088 542.037720
104 0 1 2.306580 8.741794 542.692627
105 0 1 2.230250 9.184900 543.587769
106 0 1 2.605230 9.516910 544.372620
107 0 1 2.608430 9.829770 545.262878
108 0 1 2.533690 10.152640 546.114319
109 0 1 2.659260 10.640620 547.039185
110 0 1 2.818030 10.858480 547.991211
111 0 1 2.912250 11.003080 548.990417
112 0 1 3.240190 11.060970 549.953308
113 0 1 3.438350 11.081881 550.879028
114 0 1 3.725350 11.177760 551.798096
115 0 1 4.244880 11.657800 552.446289
116 0 1 4.725870 12.138690 553.097900
117 0 1 5.248380 12.255620 553.844788
118 0 1 5.505960 11.963790 554.702271
119 0 1 5.551390 11.722330 555.589722
120 0 1 5.477530 11.501090 556.528809
121 0 1 5.507500 11.343280 557.485413
122 0 1 5.612750 11.034670 558.364319
123 0 1 5.869160 10.652510 559.217102
124 0 1 6.173380 10.365730 560.152100
125 0 1 6.556980 10.363670 561.058899
126 0 1 6.958230 10.328900 561.995605
127 0 1 7.557003 10.363620 562.755920
128 0 1 8.198303 10.150750 563.478210
129 0 1 8.799214 10.059060 564.182678
130 0 1 9.453430 9.788120 564.888123
131 0 1 9.737300 9.237050 565.604492
132 0 1 9.825171 8.718576 566.378784
133 0 1 10.239100 8.189532 567.135010
134 0 1 10.568410 7.996670 567.989624
135 0 1 10.684669 7.742714 568.890686
136 0 1 10.741970 7.539024 569.774170
137 0 1 11.069870 7.379593 570.680481
138 0 1 11.136180 6.932250 571.540100
139 0 1 11.246000 6.601140 572.424072
140 0 1 11.414170 6.303360 573.358032
141 0 1 11.244680 6.074110 574.294983
142 0 1 10.846710 5.840920 575.251221
143 0 1 10.724550 5.939830 576.234192
144 0 1 10.785550 6.033220 577.155823
145 0 1 10.559940 6.357150 578.067993
146 0 1 10.216681 6.484510 578.984192
147 0 1 10.017400 6.667770 579.889221
148 0 1 9.853540 7.060080 580.720215
149 0 1 9.343420 7.523077 581.393311
150 0 1 8.948181 8.081985 582.096619
151 0 1 8.250610 8.485601 582.591919
152 0 1 7.477542 8.667164 583.109497
153 0 1 6.592570 8.921683 583.659180
154 0 1 5.924790 9.035840 584.407227
155 0 1 5.523770 8.746218 585.214722
156 0 1 5.221760 8.630649 586.047913
157 0 1 5.152210 8.337019 586.999207
158 0 1 5.167160 8.304062 587.983215
159 0 1 5.030830 8.521352 588.903503
160 0 1 5.082420 8.567234 589.856506
161 0 1 5.126160 8.483027 590.796021
162 0 1 4.890200 8.347905 591.756714
163 0 1 4.680790 8.061294 592.664429
164 0 1 4.533970 7.650404 593.576904
165 0 1 4.386130 7.156948 594.376709
166 0 1 4.197020 6.733750 595.177124
167 0 1 4.196260 6.394840 596.031921
168 0 1 3.936320 6.135170 596.943909
169 0 1 3.756140 5.963190 597.872375
170 0 1 3.696600 5.669760 598.780273
171 0 1 3.116030 5.332910 599.449524
172 0 1 2.844570 5.048020 600.352112
173 0 1 2.745300 4.941020 601.316101
174 0 1 3.102560 4.975250 602.184021
175 0 1 3.304160 5.439970 602.960205
176 0 1 3.274450 5.934750 603.800598
177 0 1 3.351680 6.407080 604.635986
178 0 1 3.726190 7.000100 605.285217
179 0 1 4.196120 7.664055 605.831726
180 0 1 4.572940 7.959975 606.641785
181 0 1 4.992270 8.186341 607.484680
182 0 1 5.343460 8.434309 608.321289
183 0 1 5.626930 8.067216 609.240784
184 0 1 5.672780 7.793513 610.182495
185 0 1 5.751070 7.456157 611.046326
186 0 1 5.661340 7.526641 611.977478
187 0 1 5.745090 7.767373 612.970703
188 0 1 6.027410 7.850134 613.854919
189 0 1 6.194340 7.893347 614.789185
190 0 1 6.297170 7.828629 615.699829
191 0 1 6.555340 7.466644 616.568176
192 0 1 6.995540 7.076290 617.325012
193 0 1 7.203275 6.647730 618.161621
194 0 1 7.444415 6.297630 618.960327
195 0 1 7.545352 5.864220 619.823120
196 0 1 7.672317 5.392750 620.697571
197 0 1 7.761160 4.744130 621.336304
198 0 1 7.866631 4.146880 622.134521
199 0 1 8.177537 3.541050 622.797852
200 0 1 7.967847 3.298770 623.683105
201 0 1 7.644183 2.977560 624.550049
202 0 1 7.609023 2.888880 625.516479
203 0 1 7.615124 2.787690 626.437012
204 0 1 7.723644 2.760770 627.362305
205 0 1 7.618701 2.758640 628.305542
206 0 1 7.654699 3.012400 629.277710
207 0 1 7.559970 3.515210 630.147217
208 0 1 7.796989 4.024000 630.934265
209 0 1 8.064232 4.480650 631.759094
210 0 1 8.428906 4.810440 632.592896
211 0 1 8.800876 5.261660 633.376282
212 0 1 9.052150 5.895110 634.157837
213 0 1 9.337200 6.465640 634.822571
214 0 1 9.610790 6.732560 635.698242
215 0 1 9.770670 6.849720 636.642883
216 0 1 10.113610 6.845650 637.515137
217 0 1 10.481160 6.716430 638.424622
218 0 1 10.462350 6.684530 639.399902
219 0 1 10.616540 6.464430 640.374878
220 0 1 10.417720 6.165760 641.250977
221 0 1 9.946239 5.737590 642.058105
222 0 1 9.714740 5.256100 642.911316
223 0 1 9.566050 4.867110 643.755493
224 0 1 9.277710 4.575030 644.591309
225 0 1 9.123920 4.193240 645.497070
226 0 1 8.971826 3.963100 646.410706
227 0 1 8.859490 3.996400 647.394104
228 0 1 8.959271 4.075250 648.326782
229 0 1 9.257040 4.195470 649.277283
230 0 1 9.466220 4.547700 650.139099
231 0 1 9.506701 5.122090 650.871216
232 0 1 9.623690 5.670100 651.685486
233 0 1 9.694901 6.416490 652.368591
234 0 1 9.754300 7.082405 653.081787
235 0 1 9.714970 7.725591 653.819885
236 0 1 9.729880 8.561397 654.288818
237 0 1 9.721610 9.320850 654.857300
238 0 1 9.673429 9.966220 655.549072
239 0 1 9.701620 10.412230 656.390686
240 0 1 9.716870 10.504430 657.306519
241 0 1 9.813980 10.530800 658.278015
242 0 1 10.060580 10.781549 659.183105
243 0 1 10.041770 10.728200 660.151123
244 0 1 9.884130 10.993090 661.052124
245 0 1 9.940120 11.334539 661.963196
246 0 1 9.957390 11.794460 662.796875
247 0 1 10.104219 12.426010 663.523804
248 0 1 10.258590 12.919610 664.353882
249 0 1 10.152309 13.623350 664.982727
250 0 1 9.707680 14.127240 665.706604
251 0 1 9.079741 14.171130 666.475220
252 0 1 8.214062 14.216670 667.026672
253 0 1 7.410014 14.263250 667.524719
254 0 1 6.573650 13.928471 667.843994
255 0 1 5.951190 13.718440 668.544983
256 0 1 5.374170 13.359600 669.207581
257 0 1 4.917590 12.793631 669.841125
258 0 1 4.574790 12.283720 670.562622
259 0 1 4.278600 11.799380 671.325012
260 0 1 4.118310 11.511710 672.237000
261 0 1 4.050690 11.218860 673.114075
262 0 1 3.976050 10.868410 673.952393
263 0 1 3.856910 10.499530 674.844299
264 0 1 3.998810 10.053470 675.738220
265 0 1 4.034330 9.668460 676.587708
266 0 1 3.993950 9.141920 677.419922
267 0 1 3.887850 8.767709 678.310608
268 0 1 3.727390 8.344963 679.162720
269 0 1 3.678600 7.686242 679.832520
270 0 1 3.715670 7.127360 680.667114
271 0 1 3.832460 6.705760 681.510803
272 0 1 3.617750 6.344130 682.392090
273 0 1 3.325930 6.350190 683.304382
274 0 1 2.935040 6.324040 684.127625
275 0 1 2.797190 6.284870 685.087891
276 0 1 2.846860 6.082310 685.981384
277 0 1 3.070510 5.724610 686.858704
278 0 1 3.299190 5.417980 687.737793
279 0 1 3.844830 5.115100 688.475891
280 0 1 4.356470 4.847290 689.264526
281 0 1 4.839150 5.049240 690.073608
282 0 1 5.421640 5.180110 690.812622
283 0 1 6.188510 5.186510 691.317017
284 0 1 6.813570 5.159490 692.018311
285 0 1 7.231920 5.239110 692.921204
286 0 1 7.365882 5.714910 693.780701
287 0 1 7.118044 6.440400 694.393677
288 0 1 6.936130 7.301527 694.852478
289 0 1 7.179788 8.024917 695.467224
290 0 1 7.563244 8.693001 696.240417
291 0 1 8.165217 9.285910 696.629700
292 0 1 8.570220 9.767030 697.361206
293 0 1 8.897518 10.336130 698.058716
294 0 1 8.934299 10.670330 698.954590
295 0 1 8.981237 11.314260 699.654907
296 0 1 8.828896 11.670990 700.516602
297 0 1 8.956082 11.871190 701.468628
298 0 1 8.973761 12.168660 702.387695
299 0 1 8.984568 12.365620 703.327820
300 0 1 9.344840 12.428619 704.235901
301 0 1 9.572160 12.609900 705.246277
302 0 1 9.710011 12.415860 706.205933
303 0 1 9.846810 12.353889 707.105591
304 0 1 9.902570 12.259050 708.110718
305 0 1 9.929470 12.154520 709.072021
306 0 1 9.592480 11.926790 709.954407
307 0 1 9.122310 11.420400 710.542603
308 0 1 8.739521 11.131090 711.417480
309 0 1 8.451334 10.557230 712.164124
310 0 1 8.355272 10.333230 713.108032
311 0 1 8.173802 10.258810 714.064880
312 0 1 7.978400 9.879810 714.956299
313 0 1 7.863196 9.512560 715.809204
314 0 1 7.594032 9.271280 716.722107
315 0 1 7.456164 9.376920 717.686584
316 0 1 7.633756 9.326550 718.711609
317 0 1 7.736368 9.164300 719.636597
318 0 1 7.821830 9.161790 720.603210
319 0 1 7.912654 8.788087 721.493896
320 0 1 8.142085 8.251364 722.283508
321 0 1 8.471131 7.575954 722.863770
322 0 1 8.648826 6.800700 723.369812
323 0 1 8.918486 6.179000 724.039917
324 0 1 8.827225 5.521870 724.752625
325 0 1 8.838427 4.877480 725.539795
326 0 1 8.537365 4.282740 726.225403
327 0 1 8.063044 3.875760 726.954224
328 0 1 7.617793 3.452740 727.696411
329 0 1 7.422043 3.691310 728.630005
330 0 1 6.961430 4.164520 729.260986
331 0 1 6.616140 4.619640 730.020020
332 0 1 5.975320 4.931990 730.630005
333 0 1 5.478230 5.081910 731.375977
334 0 1 4.936030 5.339330 732.130981
335 0 1 4.492890 5.386030 732.966003
336 0 1 4.373200 5.422480 733.896973
337 0 1 4.411080 5.649170 734.851013
338 0 1 4.661750 5.871680 735.776001
339 0 1 4.563660 6.369430 736.677979
340 0 1 4.701140 7.268924 737.064026
341 0 1 5.024000 8.145289 737.339966
342 0 1 5.304940 9.026660 737.395996
343 0 1 5.597500 9.830530 737.791992
344 0 1 5.469990 10.467530 738.481995
345 0 1 5.301890 11.275390 739.093994
346 0 1 5.337830 11.610661 739.989014
347 0 1 5.286000 11.594749 740.945007
348 0 1 5.358760 11.532050 741.924011
349 0 1 5.202090 11.695770 742.830017
350 0 1 4.787990 11.855980 743.651978
351 0 1 4.754710 11.803240 744.575012
352 0 1 4.711780 11.422910 745.460022
353 0 1 4.782730 11.042580 746.327026
354 0 1 5.171000 10.592030 747.115967
355 0 1 5.428000 10.095430 747.858032
356 0 1 5.791160 9.413070 748.453979
357 0 1 5.876100 8.684160 749.156982
358 0 1 6.247190 8.158788 749.851013
359 0 1 6.437310 7.862710 750.780029
360 0 1 6.677380 7.770079 751.713989
361 0 1 7.100231 7.532096 752.554993
362 0 1 7.434476 7.403399 753.484985
363 0 1 7.896867 7.147967 754.296997
364 0 1 8.314069 6.786480 755.112976
365 0 1 8.665955 6.549710 755.932983
366 0 1 8.887104 6.521300 756.825012
367 0 1 9.222010 6.831440 757.702026
368 0 1 9.431280 7.087248 758.681030
369 0 1 9.703560 7.342844 759.544983
370 0 1 9.968460 7.486950 760.516968
371 0 1 10.110661 7.565210 761.479980
372 0 1 10.291300 7.554822 762.481018
373 0 1 10.433001 7.345431 763.333984
374 0 1 10.807510 7.409254 764.200989
375 0 1 10.830260 7.643813 765.146973
376 0 1 10.754641 7.915802 766.096008
377 0 1 10.958050 8.100514 767.018005
378 0 1 11.240980 8.283042 767.947021
379 0 1 11.403111 8.368562 768.863037
380 0 1 11.761630 8.388266 769.860962
381 0 1 11.995110 8.490080 770.799988
382 0 1 11.999640 8.586809 771.771973
383 0 1 12.033751 8.852585 772.672974
384 0 1 11.934510 8.990015 773.583008
385 0 1 11.911320 9.081090 774.575012
386 0 1 12.112130 9.201170 775.502991
387 0 1 12.184430 9.478340 776.497986
388 0 1 12.596300 9.634480 777.426025
389 0 1 12.486900 10.045731 778.318970
390 0 1 12.103210 10.324700 779.125977
391 0 1 11.725250 10.749900 779.950012
392 0 1 11.195971 11.226170 780.692017
393 0 1 10.646030 11.400690 781.471985
394 0 1 10.100500 11.676450 782.252014
395 0 1 9.390360 11.850760 782.906006
396 0 1 8.800260 12.101669 783.604004
397 0 1 8.264328 12.401239 784.363037
398 0 1 7.663213 12.496130 785.047974
399 0 1 7.150400 12.616360 785.867004
400 0 1 6.844010 12.885460 786.716980
401 0 1 6.674720 13.033340 787.656006
402 0 1 6.506720 12.961010 788.614990
403 0 1 6.581930 13.010930 789.557983
404 0 1 6.521590 13.128820 790.582031
405 0 1 6.198370 13.102910 791.450012
406 0 1 5.989040 13.139370 792.408997
407 0 1 5.715440 13.156170 793.317993
408 0 1 5.876040 13.092310 794.289978
409 0 1 6.176340 12.870440 795.166992
410 0 1 6.336170 12.585290 796.054016
411 0 1 6.520960 12.332740 796.983032
412 0 1 6.836110 12.030670 797.828003
413 0 1 7.057509 11.805470 798.789001
414 0 1 7.163398 11.751680 799.783020
415 0 1 7.116229 11.567280 800.755981
416 0 1 7.319918 11.647511 801.731995
417 0 1 7.549671 11.448200 802.671021
418 0 1 7.661477 11.249350 803.603027
419 0 1 7.163548 11.077390 804.421021
420 0 1 7.270951 10.833360 805.344971
421 0 1 7.324044 10.384080 806.140991
422 0 1 7.400109 9.977880 807.070007
423 0 1 7.628604 9.662310 807.964966
424 0 1 7.973731 9.270820 808.781006
425 0 1 8.394970 8.875429 809.588989
426 0 1 8.827233 8.631931 810.406006
427 0 1 8.985582 8.325823 811.273987
428 0 1 8.986003 7.830107 812.177979
429 0 1 8.952923 7.374420 813.072998
430 0 1 8.857402 6.836060 813.888000
431 0 1 8.564201 6.622390 814.742981
432 0 1 8.217284 6.766440 815.653015
433 0 1 7.659728 7.096962 816.289978
434 0 1 6.859910 7.166629 816.789001
435 0 1 6.105230 7.145947 817.349976
436 0 1 5.531480 7.163604 818.143005
437 0 1 4.923330 6.951510 818.804993
438 0 1 4.401150 6.692450 819.562988
439 0 1 3.993550 6.237740 820.436035
440 0 1 3.992250 5.936690 821.372009
441 0 1 3.997820 5.789630 822.354004
442 0 1 4.007300 5.881920 823.273987
443 0 1 4.040580 5.801330 824.229004
444 0 1 3.975190 5.643030 825.207031
445 0 1 3.802570 5.685940 826.120972
446 0 1 3.543610 5.843290 827.059021
447 0 1 3.418600 6.209560 827.931030
448 0 1 3.350360 6.465460 828.832031
449 0 1 3.374580 6.690270 829.768982
450 0 1 3.493890 6.823140 830.716980
451 0 1 3.488350 6.855480 831.707031
452 0 1 3.416450 6.535960 832.599976
453 0 1 3.569310 6.231830 833.557983
454 0 1 3.804220 6.647130 834.356018
455 0 1 4.567140 7.001930 834.877991
456 0 1 5.424330 7.131803 835.359985
457 0 1 6.366470 7.089684 835.320007
458 0 1 7.280865 7.015648 835.570007
459 0 1 8.215406 7.149230 835.504028
460 0 1 9.095960 7.094007 835.139038
461 0 1 9.951650 7.037495 834.655029
462 0 1 10.762890 7.065411 834.135986
463 0 1 11.622459 7.209066 833.716980
464 0 1 12.405280 7.665518 833.497986
465 0 1 12.974470 8.423908 833.151978
466 0 1 13.420040 9.037770 832.662964
467 0 1 13.359500 9.629230 831.926025
468 0 1 13.167830 9.952710 831.067993
469 0 1 12.834630 10.040340 830.140991
470 0 1 12.490990 9.977280 829.192017
471 0 1 12.314950 10.300489 828.330017
472 0 1 12.016420 10.744230 827.510986
473 0 1 11.497540 10.966570 826.677002
474 0 1 11.229080 11.246920 825.754028
475 0 1 10.835011 11.575940 824.936035
476 0 1 10.448650 12.007780 824.151978
477 0 1 10.226640 12.419069 823.247986
478 0 1 10.221700 12.631980 822.304016
479 0 1 10.166510 12.805540 821.348999
480 0 1 9.742970 12.996161 820.531006
481 0 1 9.389310 13.065140 819.630981
482 0 1 9.020770 13.323441 818.705017
483 0 1 8.771751 13.753531 817.843994
484 0 1 8.490433 14.132959 817.005981
485 0 1 8.350426 14.607660 816.195007
486 0 1 8.217209 14.851680 815.257996
487 0 1 8.225487 14.944340 814.259033
488 0 1 7.996751 14.624530 813.414978
489 0 1 7.586346 14.495550 812.565979
490 0 1 7.331466 14.300480 811.737000
491 0 1 7.388045 14.024879 810.828979
492 0 1 7.517165 13.756260 809.917969
493 0 1 7.738362 13.287870 809.106995
494 0 1 8.004452 12.795000 808.320984
495 0 1 8.155790 12.277620 807.525024
496 0 1 8.313691 11.577750 806.825012
497 0 1 8.454301 10.909740 806.156006
498 0 1 8.531295 10.311320 805.405029
499 0 1 8.867583 9.845480 804.651001
500 0 1 9.239620 9.499550 803.835999
501 0 1 9.476870 9.318850 802.843994
502 0 1 9.645360 8.718472 802.041016
503 0 1 9.769020 8.178090 801.250977
504 0 1 9.798220 7.689525 800.346008
505 0 1 9.752950 7.646921 799.414978
506 0 1 9.578770 7.888263 798.513000
507 0 1 9.473430 7.947189 797.561035
508 0 1 9.499670 7.935215 796.565979
509 0 1 9.658290 8.132161 795.608032
510 0 1 9.691210 8.583402 794.786987
511 0 1 9.708310 9.298300 794.075012
512 0 1 9.477040 9.735940 793.229004
513 0 1 9.249160 10.137640 792.389038
514 0 1 8.929118 10.488010 791.559998
515 0 1 8.640605 10.355160 790.716980
516 0 1 8.017757 9.899350 790.130005
517 0 1 7.598014 9.385320 789.412964
518 0 1 7.399007 8.817722 788.679993
519 0 1 7.494359 7.922054 788.238037
520 0 1 7.545568 7.047011 787.832031
521 0 1 7.364639 6.522160 787.103027
522 0 1 7.265296 6.156070 786.195007
523 0 1 7.525894 5.835410 785.320984
524 0 1 7.502765 5.469680 784.426025
525 0 1 7.485248 5.010680 783.556030
526 0 1 7.437725 4.835600 782.565002
527 0 1 7.320011 4.657200 781.655029
528 0 1 7.100514 4.639800 780.773987
529 0 1 7.170053 4.591070 779.804016
530 0 1 7.131465 4.487020 778.898987
531 0 1 6.871740 4.277800 777.969971
532 0 1 6.715270 4.134270 777.035034
533 0 1 6.710710 3.823530 776.083008
534 0 1 6.897010 3.482760 775.151978
535 0 1 7.068398 3.446330 774.179993
536 0 1 7.535125 3.458950 773.332031
537 0 1 7.807866 3.738630 772.485962
538 0 1 8.167542 3.994070 771.575989
539 0 1 8.484525 4.144290 770.692993
540 0 1 8.875010 4.520450 769.927979
541 0 1 9.004670 4.994640 769.130981
542 0 1 9.324460 5.199700 768.238037
543 0 1 9.479480 5.385120 767.281982
544 0 1 9.777960 5.467170 766.364990
545 0 1 10.056970 5.879690 765.565002
546 0 1 10.468821 6.102620 764.734985
547 0 1 11.107460 6.322330 764.015015
548 0 1 11.669160 6.292600 763.210022
549 0 1 12.230880 6.238110 762.422974
550 0 1 12.448410 5.948910 761.515015
551 0 1 12.566401 5.604500 760.660034
552 0 1 12.501980 5.456880 759.775024
553 0 1 12.716400 5.379980 758.844971
554 0 1 13.016630 5.164240 757.945984
555 0 1 12.891420 5.016550 757.014038
556 0 1 12.612010 4.759030 756.164001
557 0 1 12.109290 4.525040 755.434998
558 0 1 11.643980 4.355580 754.661987
559 0 1 10.935390 4.370330 753.978027
560 0 1 10.454070 4.335320 753.203003
561 0 1 10.220890 4.409420 752.322021
562 0 1 9.935830 4.618520 751.445984
563 0 1 9.532810 4.780340 750.599976
564 0 1 9.393910 5.123920 749.718018
565 0 1 9.446370 5.474120 748.763000
566 0 1 9.725210 5.890610 747.851990
567 0 1 10.046420 6.472290 747.141968
568 0 1 10.645550 6.933300 746.549988
569 0 1 11.017450 7.507792 745.835022
570 0 1 11.362740 7.783074 744.960999
571 0 1 11.566280 8.201270 744.122986
572 0 1 11.715100 8.588513 743.297974
573 0 1 11.908700 8.934216 742.427002
574 0 1 11.949990 9.302520 741.541992
575 0 1 11.944890 9.865280 740.773010
576 0 1 11.895860 10.577209 740.146973
577 0 1 11.915930 11.369710 739.643005
578 0 1 11.898430 12.046900 738.968018
579 0 1 11.833350 12.384029 738.127991
580 0 1 11.840870 12.386061 737.195007
581 0 1 11.721010 12.124590 736.231995
582 0 1 11.640280 11.679510 735.385986
583 0 1 11.578620 11.213940 734.567993
584 0 1 11.611890 10.631910 733.796997
585 0 1 11.592609 9.973770 733.091003
586 0 1 11.660690 9.482650 732.231018
587 0 1 11.595320 8.990942 731.317017
588 0 1 11.231791 8.412496 730.624023
589 0 1 10.836720 7.836594 729.990967
590 0 1 10.664480 7.201515 729.234009
591 0 1 10.412690 6.975020 728.289124
592 0 1 10.362150 7.079158 727.341431
593 0 1 10.381580 7.140268 726.370789
594 0 1 10.428950 7.452309 725.429688
595 0 1 10.489320 7.476245 724.484924
596 0 1 10.504080 7.073440 723.603577
597 0 1 10.480761 6.566070 722.836182
598 0 1 10.553750 6.202770 721.874817
599 0 1 10.621140 5.943240 720.929688
600 0 1 10.796810 6.051990 720.035767
601 0 1 11.251560 6.457650 719.246582
602 0 1 11.472549 6.821700 718.305115
603 0 1 11.416520 7.126644 717.397400
604 0 1 11.617250 7.111961 716.508179
605 0 1 11.921300 6.803830 715.623291
606 0 1 12.201630 6.644340 714.692017
607 0 1 12.409150 6.658290 713.760193
608 0 1 12.640739 6.624090 712.838623
609 0 1 12.453300 6.320310 711.953918
610 0 1 12.261160 5.976830 711.037598
611 0 1 12.114901 5.717770 710.120483
612 0 1 12.287600 5.600240 709.146423
613 0 1 12.173450 5.481570 708.224121
614 0 1 12.057961 5.361390 707.240906
615 0 1 12.148109 5.211020 706.320923
616 0 1 12.057980 5.412680 705.402466
617 0 1 12.042860 5.576340 704.441406
618 0 1 11.819170 5.499360 703.503113
619 0 1 11.533770 5.569410 702.534668
620 0 1 11.318780 5.790240 701.605286
621 0 1 10.828320 5.788430 700.680298
622 0 1 10.823410 5.751170 699.748474
623 0 1 10.895010 5.566950 698.777466
624 0 1 11.129370 5.528130 697.894104
625 0 1 11.458020 5.533440 696.923401
626 0 1 11.442650 5.509120 695.953674
627 0 1 11.753030 5.431150 694.970093
628 0 1 11.995790 5.413060 694.057678
629 0 1 12.110291 5.107930 693.089111
630 0 1 11.833400 4.937760 692.118530
631 0 1 11.595290 4.920770 691.215698
632 0 1 11.212709 5.011070 690.362427
633 0 1 10.764270 5.241440 689.549988
634 0 1 10.358130 5.742360 688.916870
635 0 1 9.939100 5.778490 688.069214
636 0 1 9.763090 5.739000 687.172791
637 0 1 9.574500 5.879410 686.117004
638 0 1 9.779980 5.805010 685.115173
639 0 1 10.166330 5.873580 684.260315
640 0 1 10.459100 6.059790 683.389893
641 0 1 10.380480 5.965180 682.437012
642 0 1 10.077900 5.879740 681.526489
643 0 1 9.801300 5.829490 680.625183
644 0 1 9.336590 5.940420 679.792114
645 0 1 8.627145 5.981670 679.074890
646 0 1 7.896051 5.990340 678.474731
647 0 1 7.444686 5.937380 677.537476
648 0 1 6.917820 5.912660 676.726624
649 0 1 6.719370 6.229940 675.904175
650 0 1 6.756920 6.394560 674.963989
651 0 1 6.745380 6.330980 674.035400
652 0 1 6.609080 6.252940 673.097595
653 0 1 6.642420 6.124060 672.145386
654 0 1 6.655390 6.016120 671.155273
655 0 1 6.969780 6.002400 670.265076
656 0 1 6.986310 5.795900 669.297791
657 0 1 6.570700 5.960580 668.448486
658 0 1 6.228210 5.803190 667.575500
659 0 1 5.886230 5.611660 666.682800
660 0 1 5.548670 5.531830 665.733887
661 0 1 5.154990 5.729840 664.811279
662 0 1 4.690900 6.000480 663.991394
663 0 1 4.174070 6.033070 663.184875
664 0 1 3.931030 5.968960 662.199097
665 0 1 3.918350 5.644310 661.272522
666 0 1 3.949750 5.517750 660.297180
667 0 1 3.954010 5.796620 659.384094
668 0 1 4.046580 6.256980 658.521912
669 0 1 3.995360 6.823080 657.760620
670 0 1 3.873060 7.642283 657.194702
671 0 1 3.816460 8.250594 656.400818
672 0 1 4.022780 8.983659 655.815125
673 0 1 4.063050 9.633450 655.194275
674 0 1 3.945510 10.199790 654.445312
675 0 1 4.002330 10.629530 653.626587
676 0 1 4.314920 11.039930 652.756897
677 0 1 4.572540 11.461100 651.945007
678 0 1 4.981770 11.873920 651.220703
679 0 1 5.207850 12.566750 650.489685
680 0 1 5.336920 12.829060 649.573181
681 0 1 5.579600 12.625650 648.685608
682 0 1 6.139050 12.051920 647.973877
683 0 1 6.380790 11.581039 647.192688
684 0 1 6.508400 11.168110 646.282776
685 0 1 6.648430 10.786990 645.437500
686 0 1 6.932750 10.544770 644.568115
687 0 1 7.147885 9.960260 643.846680
688 0 1 7.147186 9.393390 643.088928
689 0 1 6.925030 8.720037 642.451111
690 0 1 6.914490 7.883574 641.949829
691 0 1 7.108079 7.085421 641.439392
692 0 1 7.324744 6.353740 640.873108
693 0 1 7.604022 5.898140 639.999817
694 0 1 8.013944 5.428230 639.144714
695 0 1 8.491418 5.228070 638.288696
696 0 1 8.729258 5.377210 637.404053
697 0 1 9.019310 5.388960 636.494446
698 0 1 9.256040 4.910290 635.663879
699 0 1 9.657510 4.405160 634.816467
700 0 1 9.884740 4.033210 634.023438
701 0 1 10.073540 3.878620 633.075073
702 0 1 10.023211 3.680860 632.167847
703 0 1 10.216579 3.518080 631.257935
704 0 1 10.238060 3.276880 630.313232
705 0 1 10.092730 3.206350 629.332581
706 0 1 10.158740 3.057950 628.411133
707 0 1 10.344000 2.536060 627.632019
708 0 1 10.550810 2.025130 626.870728
709 0 1 10.778120 1.766010 625.931824
710 0 1 11.012450 1.943920 625.022827
711 0 1 11.358900 2.258810 624.118103
712 0 1 11.455690 2.538460 623.189270
713 0 1 10.974500 2.536870 622.335266
714 0 1 10.510660 2.647300 621.495667
715 0 1 9.999040 2.365480 620.759216
716 0 1 9.804360 2.172240 619.899536
717 0 1 9.631990 2.238130 618.945374
718 0 1 9.612250 2.441990 617.948608
719 0 1 9.931620 2.825010 617.099426
720 0 1 10.195130 3.003500 616.216125
721 0 1 10.418350 3.314960 615.297974
722 0 1 10.499371 3.894500 614.485901
723 0 1 10.346880 4.363090 613.632812
724 0 1 10.043600 4.877950 612.917786
725 0 1 9.832920 5.408380 612.090881
726 0 1 9.924470 5.672090 611.171631
727 0 1 10.110960 6.274460 610.449280
728 0 1 10.457160 6.812760 609.659912
729 0 1 10.714260 7.492876 608.980408
730 0 1 11.229200 7.931579 608.296387
731 0 1 11.650249 8.492151 607.599121
732 0 1 12.121201 8.892362 606.856812
733 0 1 12.251230 9.636480 606.254578
734 0 1 12.015580 10.176640 605.426208
735 0 1 11.773100 10.360830 604.478210
736 0 1 11.587980 10.544530 603.582397
737 0 1 11.335580 10.207790 602.685303
738 0 1 11.191980 9.911130 601.802490
739 0 1 11.196460 9.764640 600.864807
740 0 1 11.119520 9.491690 599.917969
741 0 1 11.152490 9.316870 599.012329
742 0 1 11.318020 9.300690 598.075073
743 0 1 11.354640 9.088920 597.145874
744 0 1 11.499480 8.839250 596.203491
745 0 1 11.972060 8.470880 595.491272
746 0 1 11.916790 7.846675 594.704712
747 0 1 11.464140 7.403340 593.978271
748 0 1 10.853740 7.021751 593.416199
749 0 1 10.185440 6.604390 592.807495
750 0 1 9.538610 6.098730 592.437195
751 0 1 8.932689 5.603530 591.861206
752 0 1 8.454560 5.454280 591.056519
753 0 1 8.141191 5.594700 590.165222
754 0 1 7.823859 5.723210 589.284607
755 0 1 7.393673 5.652950 588.436707
756 0 1 7.068849 5.923670 587.579224
757 0 1 6.994340 6.041650 586.654175
758 0 1 7.296352 6.198810 585.756592
759 0 1 7.377596 6.282460 584.798889
760 0 1 7.384654 6.261090 583.810913
761 0 1 7.295297 6.281240 582.836426
762 0 1 7.498358 6.380170 581.835693
763 0 1 7.734175 6.379170 580.929626
764 0 1 8.132632 6.489660 580.087402
765 0 1 8.385846 6.937460 579.248779
766 0 1 8.622580 7.567219 578.533813
767 0 1 8.500902 7.913529 577.631592
768 0 1 8.738310 8.203141 576.782898
769 0 1 8.715389 8.587762 575.889404
770 0 1 8.607006 8.903153 575.018188
771 0 1 8.541564 8.982001 574.100403
772 0 1 8.560264 8.959351 573.200500
773 0 1 8.286270 8.599285 572.311890
774 0 1 8.008244 7.954165 571.668701
775 0 1 7.610617 7.540639 570.901123
776 0 1 7.222277 6.917460 570.275269
777 0 1 6.863970 6.313770 569.697632
778 0 1 6.383060 5.919380 569.004822
779 0 1 5.943070 5.344770 568.295288
780 0 1 5.647460 4.737300 567.549622
781 0 1 5.387080 4.245010 566.726990
782 0 1 5.286460 3.932570 565.794800
783 0 1 5.428300 3.818180 564.842102
784 0 1 5.551170 3.844790 563.869385
785 0 1 5.300420 3.960550 562.975586
786 0 1 5.531570 3.850260 562.048096
787 0 1 5.836410 3.726370 561.194092
788 0 1 6.251070 3.930720 560.364624
789 0 1 6.759580 4.165560 559.500488
790 0 1 7.167509 4.352760 558.584290