LAMMPS data file via MDAnalysis

        1000  atoms
        1000  bonds
        1000  angles
           0  dihedrals
           0  impropers

           1  atom types
           1  bond types
           1  angle types
           0  dihedral types
           0  improper types

0.000000 16.000000 xlo xhi
0.000000 16.000000 ylo yhi
0.000000 1257.000000 zlo zhi


Masses

1 1.000000

Atoms

1 0 1 12.656080 8.894448 444.294983
2 0 1 12.805210 8.732301 445.227997
3 0 1 13.055309 8.376664 446.095001
4 0 1 13.639840 8.341874 446.854004
5 0 1 13.786500 8.406463 447.802002
6 0 1 13.762920 8.695487 448.755005
7 0 1 13.751921 9.135090 449.643982
8 0 1 13.759160 9.608660 450.497009
9 0 1 13.403749 9.953900 451.346008
10 0 1 13.047620 10.049200 452.203979
11 0 1 12.690821 10.191960 453.065979
12 0 1 12.383480 10.603849 453.901978
13 0 1 12.144470 10.909940 454.785004
14 0 1 11.963910 11.322750 455.589996
15 0 1 11.457890 11.700590 456.255005
16 0 1 10.926500 12.244490 456.779999
17 0 1 10.709980 12.693830 457.601990
18 0 1 10.281510 12.790430 458.463989
19 0 1 9.851710 12.819180 459.291992
20 0 1 9.473100 12.820070 460.175995
21 0 1 9.084540 12.484970 461.156006
22 0 1 8.861038 12.053040 462.145996
23 0 1 8.375450 11.535789 462.812012
24 0 1 7.849057 11.045230 463.468994
25 0 1 7.317716 10.600470 464.074005
26 0 1 6.950060 10.327480 464.987000
27 0 1 6.691890 10.297689 465.911987
28 0 1 6.655460 10.154090 466.863007
29 0 1 6.866790 10.191000 467.837006
30 0 1 6.887720 10.305150 468.768982
31 0 1 6.987140 10.214940 469.748993
32 0 1 7.132536 10.160430 470.789978
33 0 1 7.012685 10.158360 471.742004
34 0 1 7.013335 10.336430 472.708008
35 0 1 6.889220 10.312950 473.692017
36 0 1 6.495600 10.034081 474.548004
37 0 1 5.860040 9.901360 475.246002
38 0 1 5.474610 9.871260 476.128998
39 0 1 5.089650 9.670730 476.987000
40 0 1 4.704810 9.463120 477.757996
41 0 1 4.415000 9.193290 478.632019
42 0 1 4.291590 9.211970 479.609009
43 0 1 3.934130 9.338710 480.583008
44 0 1 3.591380 9.570990 481.438995
45 0 1 3.300080 9.682840 482.324005
46 0 1 3.055910 10.019381 483.296021
47 0 1 2.969240 10.239190 484.259003
48 0 1 2.836880 10.400311 485.177002
49 0 1 2.838260 10.399920 486.139008
50 0 1 2.807070 10.694750 487.123993
51 0 1 2.897110 10.808780 488.056000
52 0 1 3.171360 11.001300 488.976990
53 0 1 3.412980 10.890300 489.869019
54 0 1 3.956830 10.619740 490.679016
55 0 1 4.479300 10.394680 491.464996
56 0 1 5.126430 10.257380 492.110992
57 0 1 5.607430 10.081660 492.963989
58 0 1 6.153800 9.975470 493.751007
59 0 1 6.832910 9.648100 494.505981
60 0 1 7.489744 9.485530 495.223022
61 0 1 8.163669 9.588010 496.003998
62 0 1 8.764063 9.814680 496.752014
63 0 1 9.183020 10.076260 497.598999
64 0 1 9.623040 10.441810 498.367981
65 0 1 10.117001 10.703590 499.174011
66 0 1 10.621980 11.031740 499.923004
67 0 1 10.981760 10.925870 500.734985
68 0 1 11.539230 10.858200 501.502014
69 0 1 12.100700 10.850610 502.339996
70 0 1 12.241631 10.856270 503.332001
71 0 1 12.444540 10.788210 504.277008
72 0 1 12.513320 10.899630 505.263000
73 0 1 12.581921 11.203210 506.210999
74 0 1 12.586510 11.170510 507.169983
75 0 1 12.482990 11.040120 508.101990
76 0 1 12.255051 10.963190 509.007019
77 0 1 12.016510 10.932730 510.024994
78 0 1 11.729340 10.877501 510.944000
79 0 1 11.643550 10.495461 511.856018
80 0 1 11.482550 9.975340 512.684998
81 0 1 11.408791 9.550580 513.614990
82 0 1 11.482670 9.305340 514.536987
83 0 1 11.875280 9.194510 515.432007
84 0 1 11.890920 9.116990 516.406006
85 0 1 11.854680 8.918219 517.332031
86 0 1 12.176960 8.607913 518.203003
87 0 1 12.469100 8.173439 518.995972
88 0 1 12.851080 8.024666 519.859009
89 0 1 13.034750 8.027669 520.815979
90 0 1 13.111890 7.800548 521.757996
91 0 1 13.022530 7.651961 522.729980
92 0 1 12.620790 7.654313 523.577026
93 0 1 12.443940 7.620722 524.520020
94 0 1 12.081511 7.692634 525.411011
95 0 1 11.735220 7.757245 526.348999
96 0 1 11.472840 7.613713 527.276978
97 0 1 11.339720 7.424233 528.240967
98 0 1 11.360700 6.947660 529.106079
99 0 1 11.416950 6.560260 529.961426
100 0 1 11.538400 6.321790 530.873108
101 0 1 11.693460 6.246550 531.831482
102 0 1 11.903140 6.233820 532.748718
103 0 1 11.861760 6.444630 533.676086
104 0 1 11.893500 6.535530 534.595886
105 0 1 12.014709 6.344100 535.551392
106 0 1 12.237431 6.435290 536.540527
107 0 1 12.026770 6.404110 537.431030
108 0 1 11.396830 6.056990 538.194702
109 0 1 10.666960 5.692550 538.754028
110 0 1 9.948640 5.482510 539.452576
111 0 1 9.362020 5.387580 540.191406
112 0 1 9.049530 5.444600 541.154602
113 0 1 8.619464 5.633170 542.004517
114 0 1 8.255281 5.760840 542.940002
115 0 1 8.129319 5.586310 543.940918
116 0 1 7.845875 5.640880 544.901123
117 0 1 7.750953 5.771240 545.871399
118 0 1 7.580353 5.807550 546.786499
119 0 1 7.485858 5.725350 547.748169
120 0 1 7.391534 5.309990 548.619629
121 0 1 7.546585 4.948470 549.445618
122 0 1 7.936073 4.915730 550.355225
123 0 1 8.034092 4.773790 551.265869
124 0 1 7.782594 4.497690 552.178589
125 0 1 7.356673 4.098180 552.988281
126 0 1 7.203933 3.795560 553.877930
127 0 1 7.469844 3.688000 554.804382
128 0 1 7.629288 3.554070 555.794312
129 0 1 7.744467 3.667390 556.778992
130 0 1 8.167014 3.814980 557.669006
131 0 1 8.536611 4.136820 558.485229
132 0 1 8.850721 4.644690 559.244019
133 0 1 9.476760 5.275380 559.606567
134 0 1 9.819220 6.000270 560.015320
135 0 1 10.086830 6.748320 560.567627
136 0 1 10.490440 7.305370 561.291199
137 0 1 10.652990 7.789924 562.119873
138 0 1 10.639790 7.988196 563.055420
139 0 1 10.661970 8.183347 563.974731
140 0 1 10.725990 8.144938 564.921021
141 0 1 10.579460 7.906425 565.852112
142 0 1 10.531919 7.341007 566.646423
143 0 1 10.645041 6.736820 567.397705
144 0 1 10.709520 6.174730 568.190186
145 0 1 10.943250 5.695110 569.025269
146 0 1 11.360991 5.513990 569.849915
147 0 1 11.769050 5.199930 570.675293
148 0 1 12.011340 5.024410 571.633789
149 0 1 11.921970 4.947260 572.582703
150 0 1 11.689500 5.175030 573.560608
151 0 1 11.218890 5.405100 574.392517
152 0 1 10.660450 5.475170 575.162476
153 0 1 10.098860 5.501780 575.928284
154 0 1 9.460630 5.633730 576.601196
155 0 1 8.903257 5.387050 577.423584
156 0 1 8.488942 5.046720 578.186279
157 0 1 8.068204 5.052650 579.018616
158 0 1 7.732332 5.124570 579.935608
159 0 1 7.465013 5.018820 580.874207
160 0 1 7.300130 5.167480 581.802124
161 0 1 7.098371 5.354180 582.710022
162 0 1 6.975240 5.221020 583.729919
163 0 1 6.681780 5.193300 584.670288
164 0 1 6.481190 5.036410 585.582520
165 0 1 6.249040 4.682770 586.411987
166 0 1 6.428820 4.622570 587.345825
167 0 1 6.647560 4.370230 588.203369
168 0 1 6.642520 4.131520 589.126282
169 0 1 6.773020 4.071530 590.094482
170 0 1 7.056797 4.101830 591.016907
171 0 1 7.055436 4.170200 591.948181
172 0 1 7.067746 4.230490 592.875427
173 0 1 6.859610 4.343810 593.798401
174 0 1 6.676080 4.358420 594.763611
175 0 1 6.879120 4.418780 595.716125
176 0 1 7.000748 4.516360 596.679321
177 0 1 7.339848 4.397630 597.544983
178 0 1 7.653173 4.387680 598.404724
179 0 1 8.130624 4.206230 599.189880
180 0 1 8.104242 4.101420 600.119873
181 0 1 8.050343 4.014470 601.032288
182 0 1 7.920442 3.973550 602.000122
183 0 1 7.580020 3.733910 602.834717
184 0 1 7.495990 3.604560 603.688171
185 0 1 7.748724 3.160180 604.477173
186 0 1 7.867183 2.888410 605.388489
187 0 1 7.840448 2.745590 606.349976
188 0 1 7.472032 2.624520 607.338623
189 0 1 7.338867 2.533550 608.284790
190 0 1 7.585208 2.543440 609.263977
191 0 1 8.212010 2.426900 610.040100
192 0 1 8.758251 2.692120 610.804016
193 0 1 9.442220 2.736260 611.492981
194 0 1 10.177350 2.742180 612.161987
195 0 1 10.743970 3.091990 612.856384
196 0 1 11.220940 3.455160 613.624695
197 0 1 11.274330 3.725730 614.551025
198 0 1 11.233470 4.202180 615.453125
199 0 1 11.083130 4.442960 616.430786
200 0 1 10.897910 4.680740 617.309387
201 0 1 10.745171 5.204920 618.184326
202 0 1 10.935910 5.759950 618.939026
203 0 1 10.662580 6.200230 619.767822
204 0 1 10.068340 6.490290 620.388733
205 0 1 9.702500 6.732840 621.271301
206 0 1 9.588880 7.177098 622.109070
207 0 1 9.500020 7.608141 623.005188
208 0 1 9.191090 8.230351 623.756470
209 0 1 8.709604 8.850021 624.317932
210 0 1 8.264771 9.551080 624.846069
211 0 1 7.864919 10.251910 625.363037
212 0 1 7.730508 10.586130 626.296326
213 0 1 7.283136 10.636610 627.145264
214 0 1 7.511522 10.626910 628.110535
215 0 1 7.322171 10.649580 629.199585
216 0 1 7.157650 10.434890 630.109558
217 0 1 6.994920 10.418890 631.122131
218 0 1 6.883450 10.148911 632.038330
219 0 1 6.951880 9.396590 632.668152
220 0 1 6.617230 8.758599 633.271484
221 0 1 6.273140 8.545323 634.117249
222 0 1 5.902560 8.330249 634.975708
223 0 1 6.136710 7.922222 635.800293
224 0 1 6.216260 7.562157 636.669983
225 0 1 6.226690 6.996860 637.427673
226 0 1 6.400770 6.610740 638.424927
227 0 1 6.710520 6.292680 639.338196
228 0 1 7.012075 6.393800 640.321594
229 0 1 7.079010 6.484110 641.315002
230 0 1 7.399185 6.747370 642.155090
231 0 1 7.711731 7.152412 643.004517
232 0 1 7.982412 7.659318 643.752930
233 0 1 8.336043 8.045467 644.518188
234 0 1 8.639969 8.392496 645.324585
235 0 1 8.820518 8.349544 646.320679
236 0 1 9.039700 8.334215 647.287476
237 0 1 9.324980 8.242789 648.246216
238 0 1 9.654210 8.072019 649.146118
239 0 1 9.890540 7.723150 649.999390
240 0 1 9.835590 7.618158 650.991699
241 0 1 9.709820 7.435012 651.930298
242 0 1 9.539289 7.232918 652.907288
243 0 1 9.371980 7.075933 653.825012
244 0 1 9.260540 6.965160 654.784729
245 0 1 9.154010 6.755190 655.744873
246 0 1 9.233190 6.376420 656.661804
247 0 1 9.343590 6.185140 657.638977
248 0 1 9.601730 6.116560 658.588989
249 0 1 10.107531 5.952520 659.404297
250 0 1 10.480600 6.098480 660.299683
251 0 1 10.628660 6.258480 661.285278
252 0 1 10.947371 6.679310 662.084900
253 0 1 11.316930 7.122911 662.894409
254 0 1 11.727961 7.377406 663.755920
255 0 1 12.082640 7.607609 664.603577
256 0 1 12.416180 7.806072 665.554810
257 0 1 12.672570 7.877464 666.479004
258 0 1 12.897420 7.902490 667.378784
259 0 1 13.228350 8.182244 668.261108
260 0 1 13.325350 8.144607 669.196411
261 0 1 13.270570 8.131871 670.155212
262 0 1 12.886560 8.096401 671.049927
263 0 1 12.724740 8.491440 672.005371
264 0 1 12.490260 8.822624 672.893188
265 0 1 12.259020 8.743553 673.820312
266 0 1 12.066930 8.870096 674.770691
267 0 1 11.879590 8.887683 675.654602
268 0 1 11.441430 8.928867 676.559387
269 0 1 11.193650 9.094000 677.446106
270 0 1 10.780290 9.177770 678.350403
271 0 1 10.447680 9.226120 679.291870
272 0 1 10.244370 9.249560 680.246704
273 0 1 10.145741 9.424760 681.179504
274 0 1 9.757230 9.432230 682.053284
275 0 1 9.378350 9.568920 682.883789
276 0 1 9.216530 9.772540 683.869873
277 0 1 8.949489 10.147860 684.681702
278 0 1 8.753052 10.516730 685.573120
279 0 1 8.168299 10.645720 686.359985
280 0 1 7.512413 10.971970 687.055115
281 0 1 7.118718 11.218490 687.900696
282 0 1 6.841070 11.427530 688.812622
283 0 1 6.541870 11.453320 689.787231
284 0 1 6.176160 11.178770 690.546509
285 0 1 6.197710 10.966940 691.432983
286 0 1 6.132400 10.872730 692.345520
287 0 1 6.135810 10.962060 693.241699
288 0 1 6.048260 10.780610 694.199280
289 0 1 6.042420 10.475349 695.099304
290 0 1 6.167720 10.235500 696.011475
291 0 1 5.823050 9.966940 696.914612
292 0 1 5.519320 9.557500 697.729675
293 0 1 5.068880 9.196700 698.554321
294 0 1 5.028990 8.897844 699.454468
295 0 1 5.210790 8.526712 700.302795
296 0 1 5.327840 8.350849 701.228882
297 0 1 5.434630 8.143656 702.191101
298 0 1 5.599910 7.899772 703.137085
299 0 1 5.938070 7.690220 703.991821
300 0 1 6.287290 7.708222 704.879517
301 0 1 6.729170 7.583515 705.718506
302 0 1 7.260411 7.246368 706.501709
303 0 1 7.614750 6.703260 707.191772
304 0 1 7.479144 5.980670 707.756714
305 0 1 7.533325 5.362090 708.457214
306 0 1 7.531593 4.849910 709.328186
307 0 1 7.689800 4.380180 710.167603
308 0 1 8.153465 4.125370 710.973816
309 0 1 8.617920 4.041770 711.837585
310 0 1 9.071210 4.024650 712.710571
311 0 1 9.422240 4.210380 713.613220
312 0 1 9.820770 4.225560 714.543091
313 0 1 9.768550 4.446470 715.447327
314 0 1 9.783350 4.726240 716.374634
315 0 1 9.664760 5.027380 717.311890
316 0 1 9.613310 5.232370 718.225098
317 0 1 9.555861 5.306690 719.190918
318 0 1 9.632260 5.258210 720.136108
319 0 1 9.944570 5.089880 721.047729
320 0 1 10.278930 5.325260 721.931519
321 0 1 10.363280 5.272780 722.916199
322 0 1 10.383820 5.384500 723.857300
323 0 1 10.695210 5.242790 724.765686
324 0 1 10.974850 4.840020 725.571594
325 0 1 10.964140 4.918020 726.549683
326 0 1 10.980580 5.242890 727.501526
327 0 1 10.770700 5.308020 728.478882
328 0 1 10.477840 5.488930 729.419983
329 0 1 10.366159 5.491190 730.354004
330 0 1 10.605010 5.610700 731.247986
331 0 1 11.005540 5.748980 732.098999
332 0 1 11.140680 6.240940 732.942017
333 0 1 11.078550 6.508930 733.882996
334 0 1 10.976650 6.517190 734.775024
335 0 1 10.737600 6.420400 735.679016
336 0 1 10.625920 6.208240 736.651001
337 0 1 10.478889 5.978050 737.554016
338 0 1 10.485970 5.845390 738.542969
339 0 1 10.650280 5.821100 739.541016
340 0 1 10.511700 5.687250 740.531982
341 0 1 10.235530 5.620820 741.523987
342 0 1 10.026910 5.356690 742.419006
343 0 1 9.864300 5.041810 743.276001
344 0 1 9.889570 4.693970 744.200012
345 0 1 9.892460 4.055850 745.002991
346 0 1 10.200439 3.470450 745.684021
347 0 1 10.546810 3.037740 746.452026
348 0 1 10.578070 2.600540 747.285034
349 0 1 10.781000 2.589570 748.213989
350 0 1 11.046440 2.813420 749.112000
351 0 1 11.167230 3.312170 750.020020
352 0 1 11.072120 3.891390 750.783997
353 0 1 11.029970 4.521560 751.500977
354 0 1 10.941550 5.212600 752.177979
355 0 1 10.886630 5.918820 752.848022
356 0 1 10.932110 6.827130 753.115967
357 0 1 11.097970 7.670503 753.609009
358 0 1 10.993120 8.370022 754.239990
359 0 1 10.743680 8.774812 755.062012
360 0 1 10.463130 9.031960 755.934998
361 0 1 10.199409 8.835433 756.827026
362 0 1 9.788970 8.458654 757.625000
363 0 1 9.148120 8.432664 758.380005
364 0 1 8.693096 8.428177 759.213989
365 0 1 8.106259 8.198413 759.969971
366 0 1 7.532908 8.263570 760.738037
367 0 1 6.844690 8.146670 761.393005
368 0 1 6.315580 8.109920 762.231018
369 0 1 5.865010 8.230247 763.134033
370 0 1 5.517240 8.389038 764.030029
371 0 1 4.990380 8.392798 764.817993
372 0 1 4.637290 8.371725 765.687988
373 0 1 4.365090 8.747649 766.541016
374 0 1 3.834940 8.953080 767.332031
375 0 1 3.700950 8.995018 768.270996
376 0 1 3.723110 9.012840 769.203003
377 0 1 3.514110 9.109159 770.208984
378 0 1 3.530900 9.219060 771.153015
379 0 1 3.624750 9.326500 772.088989
380 0 1 3.537070 9.207580 773.119995
381 0 1 3.285330 9.144730 774.044006
382 0 1 3.236780 9.243170 774.969971
383 0 1 3.082020 9.460279 775.911987
384 0 1 3.145600 9.654500 776.820984
385 0 1 3.349710 9.576600 777.792969
386 0 1 3.559630 9.774490 778.726990
387 0 1 3.880200 10.083810 779.533997
388 0 1 4.276890 10.117020 780.388000
389 0 1 4.561250 10.259270 781.332031
390 0 1 5.034990 10.498520 782.247009
391 0 1 5.337430 10.815380 783.127014
392 0 1 5.192780 10.952090 784.114990
393 0 1 5.112020 11.264630 785.014038
394 0 1 5.070000 11.365231 785.934021
395 0 1 4.910000 11.695539 786.778015
396 0 1 4.776460 12.200399 787.587036
397 0 1 4.928200 12.704000 788.411987
398 0 1 4.988530 13.000800 789.382019
399 0 1 4.962700 13.019480 790.344971
400 0 1 5.084250 12.980710 791.332031
401 0 1 4.870280 12.704710 792.200012
402 0 1 4.505240 12.514800 793.009033
403 0 1 4.185930 12.116671 793.828003
404 0 1 3.941200 11.634180 794.656006
405 0 1 3.748870 11.116580 795.507996
406 0 1 3.594730 10.816480 796.448975
407 0 1 3.612340 10.970449 797.351990
408 0 1 3.779560 11.088530 798.325989
409 0 1 3.843210 11.409640 799.244019
410 0 1 3.978810 11.448990 800.187012
411 0 1 3.962670 11.247690 801.104004
412 0 1 3.995900 10.811760 801.985962
413 0 1 4.126150 10.316610 802.872986
414 0 1 4.397580 9.816050 803.658020
415 0 1 4.827910 9.499450 804.562012
416 0 1 5.224400 9.256590 805.419006
417 0 1 5.479280 8.733436 806.234985
418 0 1 5.887260 8.196044 806.940002
419 0 1 6.234960 7.799873 807.783997
420 0 1 6.252880 7.487838 808.693970
421 0 1 6.636400 7.273929 809.578979
422 0 1 7.135815 7.162069 810.398010
423 0 1 7.512133 7.059411 811.247986
424 0 1 7.889915 6.978310 812.156982
425 0 1 7.946852 7.093924 813.115967
426 0 1 8.325857 7.140472 814.049988
427 0 1 8.761347 7.245997 814.916016
428 0 1 9.293890 7.577566 815.687012
429 0 1 9.647590 7.586443 816.585999
430 0 1 9.898260 7.114788 817.416016
431 0 1 10.171800 6.946670 818.315002
432 0 1 10.163270 6.626590 819.205017
433 0 1 10.221060 6.436460 820.124023
434 0 1 10.204290 6.388840 821.044006
435 0 1 10.351521 6.560210 821.983032
436 0 1 10.576440 6.654120 822.885010
437 0 1 10.280300 6.702530 823.822998
438 0 1 9.921920 6.637810 824.731018
439 0 1 9.679050 6.319960 825.593018
440 0 1 9.514050 6.128430 826.510986
441 0 1 9.518590 6.071400 827.478027
442 0 1 9.089730 5.940790 828.309021
443 0 1 8.765755 5.823060 829.268982
444 0 1 8.648977 5.500020 830.205017
445 0 1 8.208403 5.407570 831.082031
446 0 1 7.793733 5.347530 831.958008
447 0 1 7.346545 5.181530 832.723022
448 0 1 6.801310 4.961610 833.476990
449 0 1 6.294980 4.674060 834.229980
450 0 1 5.632860 4.537530 834.877991
451 0 1 5.196190 4.780010 835.666016
452 0 1 4.668210 4.989420 836.468018
453 0 1 3.965470 5.108440 837.156982
454 0 1 3.166800 5.626490 837.468994
455 0 1 2.392090 6.190450 837.655029
456 0 1 1.821400 6.898920 837.473999
457 0 1 1.604690 7.834721 837.281982
458 0 1 1.899470 8.704473 837.113037
459 0 1 2.537700 9.358910 836.843018
460 0 1 3.200300 9.939380 836.487000
461 0 1 4.047220 10.498569 836.214966
462 0 1 4.819390 10.922920 835.791016
463 0 1 5.629800 11.171500 835.422974
464 0 1 6.380890 11.452880 834.905029
465 0 1 7.121099 11.576690 834.255005
466 0 1 7.608596 11.858030 833.424011
467 0 1 8.224475 12.173220 832.703979
468 0 1 8.912023 12.221590 832.039978
469 0 1 9.740390 12.174200 831.516968
470 0 1 10.573850 12.151670 831.082031
471 0 1 11.362450 12.249100 830.622009
472 0 1 12.038190 12.234190 829.945007
473 0 1 12.526760 12.044800 829.167969
474 0 1 12.997950 11.803450 828.285034
475 0 1 13.394320 11.290461 827.575012
476 0 1 13.754060 10.762380 826.931030
477 0 1 13.910089 10.111470 826.197021
478 0 1 13.840219 9.373810 825.533997
479 0 1 13.668631 8.646352 824.853027
480 0 1 13.490570 7.830644 824.297974
481 0 1 13.710279 7.047043 823.783020
482 0 1 13.667650 6.264680 823.104004
483 0 1 13.495050 5.500850 822.490967
484 0 1 13.057000 5.067640 821.686035
485 0 1 12.692050 4.775100 820.843994
486 0 1 12.309860 4.633170 820.009033
487 0 1 12.014330 4.533050 819.135986
488 0 1 11.679610 4.564040 818.216003
489 0 1 11.517241 4.611130 817.307983
490 0 1 11.186700 4.720340 816.385010
491 0 1 10.829170 5.034600 815.544983
492 0 1 10.330820 5.237350 814.729004
493 0 1 10.145660 5.320140 813.815979
494 0 1 9.947120 5.569590 812.858032
495 0 1 9.678620 5.760740 811.934998
496 0 1 9.810390 5.775510 810.905029
497 0 1 9.790421 6.113140 810.047974
498 0 1 9.821680 6.496700 809.098999
499 0 1 9.839390 6.529770 808.138000
500 0 1 9.881180 6.603450 807.172974
501 0 1 9.762580 6.845310 806.218018
502 0 1 9.528520 6.934140 805.297974
503 0 1 9.243290 7.126961 804.412964
504 0 1 9.118850 7.182032 803.471008
505 0 1 9.029300 7.305325 802.556030
506 0 1 8.965282 7.452048 801.660034
507 0 1 8.833680 7.428565 800.666992
508 0 1 8.269383 7.427715 799.830994
509 0 1 7.846389 7.147555 799.035034
510 0 1 7.185616 6.876950 798.320007
511 0 1 6.725400 6.692080 797.483032
512 0 1 6.433960 6.620010 796.552002
513 0 1 6.319570 6.723980 795.625977
514 0 1 6.376910 6.935610 794.692017
515 0 1 6.495590 7.135602 793.742981
516 0 1 6.661510 7.122886 792.794006
517 0 1 6.868370 7.318168 791.903015
518 0 1 7.065565 7.145200 790.990967
519 0 1 7.320631 6.922250 790.114014
520 0 1 7.303300 6.717910 789.164978
521 0 1 7.362445 6.555520 788.234009
522 0 1 7.420120 6.392910 787.306030
523 0 1 7.396795 6.160200 786.403992
524 0 1 7.485487 6.271290 785.460022
525 0 1 7.476301 6.274280 784.468994
526 0 1 7.316969 6.046690 783.533997
527 0 1 7.135048 5.819640 782.601013
528 0 1 6.826590 5.534420 781.697998
529 0 1 6.250660 5.265730 780.999023
530 0 1 5.907150 4.836680 780.214966
531 0 1 5.457100 4.500520 779.365967
532 0 1 5.041360 4.239700 778.583984
533 0 1 4.953720 3.706140 777.716003
534 0 1 4.951490 3.392090 776.729980
535 0 1 4.881730 3.006140 775.804993
536 0 1 4.838190 2.668010 774.906982
537 0 1 4.644420 2.555300 774.018982
538 0 1 4.761240 2.420960 773.067993
539 0 1 4.778010 2.298660 772.127014
540 0 1 4.746070 2.084300 771.148010
541 0 1 4.855980 1.843890 770.250000
542 0 1 5.091410 1.822200 769.291016
543 0 1 5.436460 1.789120 768.436035
544 0 1 5.876590 1.811660 767.546021
545 0 1 6.394010 2.335260 766.943970
546 0 1 6.839640 2.477430 766.119995
547 0 1 7.051455 2.739290 765.188965
548 0 1 7.397633 3.401130 764.601013
549 0 1 7.837843 3.865350 763.908997
550 0 1 8.236012 4.172190 763.085999
551 0 1 8.066818 4.117760 762.151978
552 0 1 7.626638 4.526200 761.450012
553 0 1 7.293664 4.801140 760.567993
554 0 1 7.277701 5.252630 759.755981
555 0 1 7.122422 5.804780 758.992981
556 0 1 6.872970 6.444180 758.257019
557 0 1 6.643610 7.149541 757.617981
558 0 1 6.320480 7.803600 757.031982
559 0 1 5.864840 8.310496 756.393982
560 0 1 5.789660 8.902504 755.692993
561 0 1 5.999870 9.385780 754.940002
562 0 1 6.260190 9.906450 754.135986
563 0 1 6.691720 10.277420 753.362976
564 0 1 7.229096 10.714000 752.619019
565 0 1 7.617212 11.098700 751.792969
566 0 1 8.065157 11.256120 750.839966
567 0 1 8.346214 11.343040 749.882019
568 0 1 8.144504 11.331141 748.950012
569 0 1 7.821490 11.163090 748.052002
570 0 1 7.460185 10.649470 747.278992
571 0 1 7.456861 10.167340 746.479004
572 0 1 7.558890 9.593450 745.713013
573 0 1 7.624142 9.060570 744.939026
574 0 1 7.536964 8.672691 744.046997
575 0 1 7.458537 8.419263 743.112976
576 0 1 7.339543 8.139280 742.096008
577 0 1 7.438102 7.660782 741.292969
578 0 1 7.365687 7.287497 740.356995
579 0 1 7.013415 7.152145 739.481995
580 0 1 6.908760 7.141514 738.520020
581 0 1 6.731150 7.227653 737.591003
582 0 1 6.459640 7.309412 736.661011
583 0 1 6.229420 7.636221 735.791016
584 0 1 6.081860 8.224928 734.994019
585 0 1 5.897120 8.907850 734.318970
586 0 1 5.655070 9.357480 733.411011
587 0 1 5.456140 9.794350 732.601013
588 0 1 5.325490 10.258610 731.810974
589 0 1 5.354620 10.901210 731.171997
590 0 1 5.155740 11.323730 730.292969
591 0 1 4.967230 11.797060 729.523987
592 0 1 5.162060 12.020370 728.588013
593 0 1 5.372460 12.035040 727.655396
594 0 1 5.467020 11.742770 726.703308
595 0 1 5.482410 11.333010 725.815918
596 0 1 5.222090 11.207680 724.864685
597 0 1 4.966650 10.961590 723.995972
598 0 1 5.056980 10.972879 723.005127
599 0 1 5.146500 10.971830 722.023621
600 0 1 5.011290 10.840440 721.099609
601 0 1 4.738390 10.681640 720.160889
602 0 1 4.524140 10.789490 719.187378
603 0 1 4.232510 10.818390 718.260132
604 0 1 4.124490 11.060450 717.351990
605 0 1 3.997050 11.207620 716.419495
606 0 1 4.120960 11.610470 715.567383
607 0 1 4.178790 12.222731 714.821533
608 0 1 4.320400 12.594910 713.994873
609 0 1 4.580610 13.047541 713.147705
610 0 1 4.924230 13.179609 712.280396
611 0 1 5.330270 13.222340 711.360718
612 0 1 5.702290 13.160999 710.490784
613 0 1 6.489960 13.123301 709.800415
614 0 1 7.156006 13.056920 709.102417
615 0 1 7.562244 12.903709 708.231689
616 0 1 7.880368 12.658831 707.348206
617 0 1 8.016944 12.583879 706.409912
618 0 1 8.322888 12.520020 705.474487
619 0 1 8.742469 12.477090 704.602478
620 0 1 9.032370 12.606140 703.708374
621 0 1 8.949294 12.715370 702.755188
622 0 1 8.697249 12.740100 701.802185
623 0 1 8.694294 12.490459 700.877991
624 0 1 8.974049 12.073990 700.011230
625 0 1 8.945214 11.577560 699.243713
626 0 1 8.891479 11.018290 698.489868
627 0 1 8.555039 10.538500 697.679626
628 0 1 8.396167 9.833340 697.011230
629 0 1 8.371776 9.036930 696.432373
630 0 1 8.009329 8.399985 695.797913
631 0 1 7.735488 7.697158 695.156494
632 0 1 7.422130 7.315781 694.323120
633 0 1 7.181457 6.750720 693.669006
634 0 1 6.790860 6.775910 692.769897
635 0 1 6.257020 6.834750 692.023804
636 0 1 5.679040 6.792430 691.302673
637 0 1 5.102970 7.023031 690.567993
638 0 1 4.562670 7.072332 689.775818
639 0 1 4.385750 7.322036 688.896118
640 0 1 4.394260 7.542542 687.924683
641 0 1 4.440040 7.660124 686.991577
642 0 1 4.657780 7.759555 686.040100
643 0 1 4.787180 8.168844 685.150024
644 0 1 5.000440 8.750088 684.324280
645 0 1 5.013960 9.019790 683.361084
646 0 1 4.825620 9.329640 682.375305
647 0 1 4.996620 9.565010 681.480103
648 0 1 5.318530 9.556370 680.587891
649 0 1 5.768260 9.879010 679.834778
650 0 1 6.285490 10.041620 679.022278
651 0 1 6.666810 10.387900 678.219788
652 0 1 7.449629 10.404640 677.590820
653 0 1 8.270365 10.439470 677.086609
654 0 1 9.181220 10.488560 676.884583
655 0 1 10.099840 10.476780 676.674805
656 0 1 11.061700 10.307570 676.518616
657 0 1 11.804270 10.080210 675.971497
658 0 1 12.601049 9.838260 675.493713
659 0 1 13.316160 9.535280 674.956909
660 0 1 13.829610 8.907200 674.435120
661 0 1 14.373180 8.535345 673.753418
662 0 1 14.606200 8.186547 672.860474
663 0 1 14.625760 7.838701 671.969971
664 0 1 14.604710 7.314208 671.150085
665 0 1 14.398780 6.817400 670.331604
666 0 1 14.391251 6.457440 669.378174
667 0 1 14.542810 6.203500 668.503479
668 0 1 14.474791 6.174380 667.579895
669 0 1 14.297541 6.159360 666.579285
670 0 1 14.268280 6.047390 665.601196
671 0 1 14.491520 6.181190 664.717590
672 0 1 14.313580 6.206350 663.712585
673 0 1 14.185570 6.304560 662.696472
674 0 1 14.035999 6.574510 661.770020
675 0 1 13.847740 6.852640 660.882812
676 0 1 13.299000 6.801400 660.129822
677 0 1 12.820260 6.510580 659.362976
678 0 1 13.036730 6.302220 658.457825
679 0 1 13.111350 6.180600 657.522522
680 0 1 13.325911 6.007690 656.520081
681 0 1 13.472281 6.148200 655.534485
682 0 1 13.253220 6.015240 654.617493
683 0 1 13.212720 5.918640 653.653931
684 0 1 12.893620 5.889390 652.775696
685 0 1 12.753651 5.844490 651.771729
686 0 1 12.895010 5.717520 650.823792
687 0 1 12.756610 5.371860 649.958191
688 0 1 12.639940 5.183170 648.945007
689 0 1 12.281530 5.224160 648.014404
690 0 1 11.923440 5.344880 647.130798
691 0 1 11.659019 5.401640 646.178772
692 0 1 11.391250 5.445280 645.183105
693 0 1 11.060980 5.577270 644.299500
694 0 1 10.772690 6.151250 643.499878
695 0 1 10.837090 6.660140 642.712097
696 0 1 10.549120 7.094329 641.905273
697 0 1 10.232920 7.316110 640.972107
698 0 1 9.945570 7.890241 640.234985
699 0 1 9.958330 8.277276 639.351685
700 0 1 10.188680 8.426293 638.446960
701 0 1 10.339350 8.353654 637.447754
702 0 1 10.518850 8.279300 636.517273
703 0 1 10.765710 8.141114 635.582581
704 0 1 10.920100 7.968855 634.606445
705 0 1 11.243690 7.682596 633.728943
706 0 1 11.384930 7.650481 632.745361
707 0 1 11.521780 7.844341 631.824768
708 0 1 11.734720 7.939284 630.930969
709 0 1 12.151199 8.240499 630.172424
710 0 1 12.542490 8.411402 629.332336
711 0 1 12.990210 8.690666 628.551392
712 0 1 13.394320 9.157330 627.763062
713 0 1 13.447440 9.870360 627.057373
714 0 1 13.498890 10.583870 626.412476
715 0 1 13.406570 11.054630 625.487976
716 0 1 13.101880 11.533680 624.655334
717 0 1 13.024220 11.921220 623.751770
718 0 1 13.085170 12.256730 622.852295
719 0 1 12.920870 12.167271 621.915588
720 0 1 12.900710 11.840070 621.004761
721 0 1 12.775420 11.573740 620.081970
722 0 1 12.529039 11.453011 619.126038
723 0 1 12.322980 11.060520 618.304199
724 0 1 12.273479 10.407560 617.523621
725 0 1 11.708651 9.756790 617.054199
726 0 1 11.327990 9.150820 616.371521
727 0 1 10.946970 8.653456 615.690002
728 0 1 10.344151 8.424246 614.969788
729 0 1 9.845580 8.320195 614.157288
730 0 1 9.111580 8.376125 613.546326
731 0 1 8.339623 8.376587 612.883911
732 0 1 7.673979 8.443206 612.193298
733 0 1 7.245603 8.279689 611.345886
734 0 1 6.979610 8.454703 610.454224
735 0 1 7.193868 8.511684 609.506714
736 0 1 7.278777 8.468059 608.585571
737 0 1 7.382743 8.145101 607.676025
738 0 1 7.706874 8.082592 606.820129
739 0 1 7.705517 8.037292 605.893005
740 0 1 7.971300 7.918040 604.968628
741 0 1 8.364003 7.437328 604.246216
742 0 1 8.615403 7.034979 603.387207
743 0 1 8.860332 6.538430 602.524719
744 0 1 9.117470 6.257650 601.658203
745 0 1 9.364030 6.030560 600.756409
746 0 1 9.678860 6.036410 599.774475
747 0 1 9.676240 6.153540 598.850830
748 0 1 9.686460 6.228050 597.950623
749 0 1 9.554780 6.514570 597.052307
750 0 1 9.412690 6.916910 596.134399
751 0 1 9.099700 7.312055 595.328369
752 0 1 8.710868 7.711071 594.590820
753 0 1 8.297466 8.050548 593.812378
754 0 1 7.863850 8.481362 593.086914
755 0 1 7.546784 8.902520 592.291382
756 0 1 7.379767 9.096200 591.368225
757 0 1 7.186163 9.240780 590.421021
758 0 1 7.269218 9.526850 589.477905
759 0 1 7.223368 9.713830 588.556885
760 0 1 7.252344 9.677430 587.558411
761 0 1 7.539878 9.970760 586.701599
762 0 1 7.848526 10.258670 585.812195
763 0 1 8.100662 10.163430 584.826416
764 0 1 8.330468 9.958690 583.857178
765 0 1 8.259855 9.903910 582.926208
766 0 1 8.217556 9.721530 581.966797
767 0 1 7.909165 9.309940 581.158691
768 0 1 7.629141 8.616635 580.522827
769 0 1 7.558677 8.015241 579.729309
770 0 1 7.261882 7.253575 579.183411
771 0 1 7.071894 6.605790 578.524109
772 0 1 6.917510 6.014930 577.710510
773 0 1 6.495950 5.775580 576.908020
774 0 1 6.414020 5.362570 576.024780
775 0 1 5.972960 4.990820 575.261902
776 0 1 5.559840 4.928170 574.399780
777 0 1 5.274750 4.914470 573.428223
778 0 1 4.924090 4.859280 572.534912
779 0 1 4.711320 4.975120 571.637329
780 0 1 4.269030 4.965530 570.767700
781 0 1 3.741650 4.892240 569.956482
782 0 1 3.571670 4.887050 569.012085
783 0 1 3.591350 5.112660 568.066895
784 0 1 3.694390 5.240980 567.108887
785 0 1 3.755690 5.528940 566.224792
786 0 1 3.700400 5.851880 565.305115
787 0 1 3.773130 6.162130 564.365417
788 0 1 4.015720 6.667320 563.561707
789 0 1 4.212710 6.920100 562.685791
790 0 1 4.491850 7.253662 561.776489