LAMMPS data file via MDAnalysis

        1000  atoms
        1000  bonds
        1000  angles
           0  dihedrals
           0  impropers

           1  atom types
           1  bond types
           1  angle types
           0  dihedral types
           0  improper types

0.000000 16.000000 xlo xhi
0.000000 16.000000 ylo yhi
0.000000 1257.000000 zlo zhi


Masses

1 1.000000

Atoms

1 0 1 12.151510 6.542400 452.828003
2 0 1 11.865490 6.647920 453.735992
3 0 1 11.857759 6.489000 454.610992
4 0 1 11.776130 6.742860 455.515015
5 0 1 11.593270 7.002702 456.410004
6 0 1 11.384060 6.789250 457.281982
7 0 1 11.153890 6.783810 458.223999
8 0 1 10.880680 6.634850 459.156982
9 0 1 10.635420 6.619030 460.059021
10 0 1 10.415940 6.871770 460.973022
11 0 1 9.935320 6.914330 461.826996
12 0 1 9.496070 7.000456 462.786011
13 0 1 9.341720 7.279592 463.695984
14 0 1 9.146970 7.282086 464.679993
15 0 1 8.946424 7.197219 465.667999
16 0 1 8.780100 7.086514 466.612000
17 0 1 8.534276 7.254153 467.595001
18 0 1 8.251488 7.495429 468.451996
19 0 1 7.914581 7.541701 469.367981
20 0 1 7.739572 7.475400 470.283020
21 0 1 7.575458 7.403778 471.291992
22 0 1 7.329191 7.403540 472.223022
23 0 1 7.075670 7.316786 473.161011
24 0 1 7.190295 7.094535 474.106995
25 0 1 7.438540 6.712140 474.911987
26 0 1 7.756080 6.968940 475.781982
27 0 1 7.924116 7.152590 476.705017
28 0 1 7.899868 7.361005 477.664001
29 0 1 8.132057 7.219748 478.591980
30 0 1 8.534207 6.905140 479.343018
31 0 1 8.933910 6.575880 480.117004
32 0 1 9.370990 6.522410 480.962006
33 0 1 9.918010 6.459650 481.807983
34 0 1 10.169710 6.275180 482.723022
35 0 1 10.436120 6.164380 483.656982
36 0 1 10.989640 6.004580 484.404999
37 0 1 11.511220 5.858760 485.192993
38 0 1 11.821220 5.649120 486.036987
39 0 1 12.090469 5.710830 486.936005
40 0 1 12.544109 5.789800 487.783020
41 0 1 12.821970 5.676080 488.653992
42 0 1 12.961100 5.964080 489.585022
43 0 1 12.929960 6.257390 490.533997
44 0 1 13.201830 6.520710 491.398987
45 0 1 13.563681 6.622830 492.333984
46 0 1 13.424410 6.679150 493.260986
47 0 1 13.616930 6.824110 494.210999
48 0 1 13.750570 6.859840 495.210999
49 0 1 13.849140 7.154313 496.125000
50 0 1 14.196810 7.206008 497.016998
51 0 1 14.189859 7.338488 497.937012
52 0 1 14.017389 7.243025 498.851013
53 0 1 13.663300 7.146067 499.723022
54 0 1 13.305600 7.188811 500.657990
55 0 1 12.595551 7.115554 501.365997
56 0 1 11.942410 7.166917 502.046997
57 0 1 11.374210 7.524376 502.713013
58 0 1 10.970320 8.058715 503.440002
59 0 1 10.731791 8.420859 504.320984
60 0 1 10.567250 8.897096 505.170990
61 0 1 10.259350 8.957174 506.010986
62 0 1 9.940260 9.091000 506.958984
63 0 1 9.589860 9.049630 507.837006
64 0 1 9.368590 8.754875 508.803009
65 0 1 8.741675 8.582240 509.505981
66 0 1 7.969240 8.639626 510.160004
67 0 1 7.456962 8.538432 510.927002
68 0 1 6.914010 8.531566 511.738007
69 0 1 6.383530 8.172218 512.411011
70 0 1 5.553230 7.886361 512.827026
71 0 1 4.749570 7.523252 513.109009
72 0 1 4.096630 6.981400 513.489990
73 0 1 3.466510 6.390090 513.997986
74 0 1 3.131610 5.847190 514.697021
75 0 1 2.743680 5.193440 515.312012
76 0 1 2.418880 4.827460 516.213013
77 0 1 2.336910 4.743590 517.143982
78 0 1 2.454560 5.040600 518.046997
79 0 1 2.563150 5.395440 518.987976
80 0 1 2.624680 5.487920 519.973022
81 0 1 2.718640 5.879680 520.846008
82 0 1 2.897330 6.329130 521.661987
83 0 1 2.916380 6.772490 522.528015
84 0 1 3.119290 7.234260 523.396973
85 0 1 3.222490 7.196422 524.339966
86 0 1 3.466400 7.106952 525.270020
87 0 1 3.746790 6.882020 526.125000
88 0 1 4.296120 6.817680 526.870972
89 0 1 4.826200 6.843900 527.690002
90 0 1 5.022830 6.890710 528.669067
91 0 1 5.230420 6.542990 529.653625
92 0 1 5.533380 6.198670 530.515991
93 0 1 5.791910 5.709010 531.228027
94 0 1 6.112150 5.135990 531.880798
95 0 1 6.541910 4.648200 532.581726
96 0 1 6.872740 3.995280 533.214417
97 0 1 7.059588 3.409130 533.968201
98 0 1 7.012780 3.103840 534.910217
99 0 1 6.872130 2.894050 535.843323
100 0 1 6.967260 2.700150 536.796814
101 0 1 7.042523 2.862440 537.819092
102 0 1 7.014265 3.055640 538.801880
103 0 1 7.043641 3.490970 539.655212
104 0 1 7.047814 4.106240 540.489380
105 0 1 6.745980 4.641880 541.196777
106 0 1 6.724760 5.135670 541.998413
107 0 1 6.632540 5.857850 542.639282
108 0 1 6.588720 6.502100 543.371521
109 0 1 6.598550 7.075684 544.089417
110 0 1 6.762690 7.449721 544.973633
111 0 1 7.033297 7.848618 545.788696
112 0 1 7.321535 8.226225 546.590698
113 0 1 7.622319 8.463920 547.474182
114 0 1 8.039783 8.905246 548.216797
115 0 1 8.249849 9.322580 549.004700
116 0 1 8.453819 9.711770 549.849976
117 0 1 8.640331 10.079990 550.748413
118 0 1 8.885446 10.236710 551.657593
119 0 1 9.209220 10.357950 552.591003
120 0 1 9.769190 10.336150 553.382812
121 0 1 10.334400 10.341220 554.095398
122 0 1 11.118140 10.391650 554.770081
123 0 1 11.641130 10.334070 555.562622
124 0 1 11.890440 10.360160 556.505005
125 0 1 11.758520 10.648109 557.422974
126 0 1 11.756570 10.954700 558.291504
127 0 1 11.746750 10.991660 559.245422
128 0 1 11.773520 10.877200 560.192017
129 0 1 11.724140 10.780450 561.183228
130 0 1 11.822880 10.688800 562.122070
131 0 1 11.568480 10.442870 563.098206
132 0 1 11.281360 10.349300 563.970886
133 0 1 10.970770 10.254950 564.845093
134 0 1 10.766860 10.189130 565.778015
135 0 1 10.368470 10.013820 566.631470
136 0 1 10.008930 10.000900 567.532104
137 0 1 9.920950 9.857900 568.433777
138 0 1 10.059110 9.694490 569.370605
139 0 1 10.354691 9.553560 570.244873
140 0 1 10.656070 9.300440 571.107727
141 0 1 10.966681 9.185660 572.051025
142 0 1 11.038380 9.241720 572.994812
143 0 1 11.144900 9.263810 573.991516
144 0 1 11.519520 9.177150 574.884827
145 0 1 11.870640 9.377920 575.817200
146 0 1 11.978510 9.224550 576.725525
147 0 1 12.001841 8.734970 577.617004
148 0 1 12.236310 8.453813 578.475281
149 0 1 12.364550 8.306102 579.382996
150 0 1 12.498480 8.296059 580.309998
151 0 1 12.567890 8.186220 581.257812
152 0 1 12.479980 8.074177 582.177490
153 0 1 12.346710 7.921329 583.164307
154 0 1 12.141980 7.729404 584.076782
155 0 1 12.026529 7.848531 585.033508
156 0 1 11.904470 8.075637 585.992615
157 0 1 11.846750 8.585832 586.765625
158 0 1 11.817250 9.292720 587.436279
159 0 1 11.663860 9.866000 588.271301
160 0 1 11.453381 10.199650 589.195984
161 0 1 11.353270 10.017850 590.163818
162 0 1 11.367630 9.996840 591.171082
163 0 1 11.172490 10.165830 592.081604
164 0 1 11.140710 10.506390 593.064392
165 0 1 11.072030 10.612610 594.024292
166 0 1 11.186630 10.830009 594.993896
167 0 1 11.281100 11.051340 595.870789
168 0 1 11.361850 11.338970 596.769409
169 0 1 11.586300 11.957870 597.586914
170 0 1 11.801701 12.564430 598.334778
171 0 1 11.895790 12.838261 599.301392
172 0 1 11.579550 12.941060 600.221680
173 0 1 11.055710 12.951340 601.054688
174 0 1 10.474930 12.986879 601.820679
175 0 1 9.998180 12.890779 602.660828
176 0 1 9.494110 12.688360 603.470215
177 0 1 8.893584 12.812730 604.334412
178 0 1 8.663248 12.756470 605.249573
179 0 1 8.597663 12.502780 606.194580
180 0 1 8.739707 12.357580 607.126099
181 0 1 9.028950 12.002280 607.979187
182 0 1 9.340290 11.617430 608.810181
183 0 1 9.335070 11.531090 609.783386
184 0 1 9.298690 11.263420 610.760925
185 0 1 9.195810 10.837780 611.686829
186 0 1 9.023580 10.776830 612.633484
187 0 1 8.840218 10.994050 613.519287
188 0 1 8.549297 11.309390 614.364197
189 0 1 8.239047 11.777390 615.138428
190 0 1 7.991872 12.066240 616.125000
191 0 1 7.788174 11.935101 617.090576
192 0 1 7.520071 11.487090 617.954895
193 0 1 7.288229 11.284451 618.837769
194 0 1 7.134847 11.047870 619.752441
195 0 1 7.074059 11.225220 620.662109
196 0 1 6.761980 11.385320 621.600769
197 0 1 6.561230 11.600200 622.516907
198 0 1 6.429580 11.827140 623.489807
199 0 1 6.299730 12.094049 624.452393
200 0 1 6.406490 12.234850 625.444519
201 0 1 6.576130 12.270220 626.390869
202 0 1 6.710760 12.693211 627.177429
203 0 1 6.842830 13.076611 628.043884
204 0 1 6.710710 13.139521 628.974915
205 0 1 6.574000 12.964180 629.870361
206 0 1 6.625720 12.789830 630.805786
207 0 1 6.556340 12.394840 631.693359
208 0 1 6.674780 12.284960 632.632446
209 0 1 6.562730 12.491230 633.632446
210 0 1 5.999540 12.649731 634.447510
211 0 1 5.492140 12.604490 635.276611
212 0 1 4.865020 12.307720 635.980896
213 0 1 4.251960 11.888520 636.631531
214 0 1 3.661700 11.370810 637.313049
215 0 1 3.221530 10.877860 638.061707
216 0 1 2.900550 10.321130 638.775696
217 0 1 2.721850 9.878630 639.595520
218 0 1 2.413370 9.806810 640.586609
219 0 1 2.158590 9.828110 641.509827
220 0 1 2.236210 9.980560 642.485107
221 0 1 2.234440 9.701700 643.501526
222 0 1 2.479640 9.787951 644.443481
223 0 1 2.622240 9.905440 645.381409
224 0 1 2.898400 10.143440 646.229187
225 0 1 3.004030 10.349020 647.248596
226 0 1 3.364480 10.596320 648.124573
227 0 1 3.612120 10.556740 649.096985
228 0 1 3.979570 10.558800 649.995728
229 0 1 4.475750 10.309140 650.783203
230 0 1 4.973530 10.076220 651.638428
231 0 1 5.367470 10.345040 652.459900
232 0 1 5.517760 10.702660 653.354370
233 0 1 5.725700 11.177691 654.293884
234 0 1 5.493980 11.478300 655.201721
235 0 1 5.243940 11.628760 656.141113
236 0 1 5.381630 11.970230 657.025818
237 0 1 5.543600 12.154739 657.938293
238 0 1 5.761500 12.178400 658.884888
239 0 1 5.851520 12.381910 659.859985
240 0 1 5.990750 12.522910 660.782776
241 0 1 5.907240 12.668950 661.698975
242 0 1 5.793060 12.613770 662.682312
243 0 1 5.318720 12.365900 663.479370
244 0 1 4.817230 12.075450 664.175110
245 0 1 4.564320 11.698960 665.008484
246 0 1 4.641550 11.545460 666.004395
247 0 1 4.629980 11.550680 666.979797
248 0 1 4.574990 11.456290 667.944275
249 0 1 4.503730 11.193090 668.885010
250 0 1 4.690080 10.985410 669.866272
251 0 1 5.142180 10.739290 670.794128
252 0 1 5.461340 10.386340 671.595703
253 0 1 5.925630 9.982520 672.447998
254 0 1 6.222770 9.973860 673.374084
255 0 1 6.397200 9.747510 674.279724
256 0 1 6.755490 9.533689 675.097290
257 0 1 7.112875 9.434930 675.945312
258 0 1 7.382554 9.007390 676.801086
259 0 1 7.908894 8.784461 677.533997
260 0 1 8.196907 8.512029 678.429688
261 0 1 8.546322 8.205804 679.353821
262 0 1 8.620917 7.837144 680.210205
263 0 1 8.538036 7.501735 681.106995
264 0 1 8.548441 7.515889 682.071777
265 0 1 8.263257 7.519821 682.979797
266 0 1 7.884887 7.468899 683.866028
267 0 1 7.391581 7.375560 684.726318
268 0 1 7.134804 7.336287 685.648621
269 0 1 6.817010 7.346280 686.618103
270 0 1 6.788730 7.331917 687.610291
271 0 1 6.653960 7.189799 688.521729
272 0 1 6.676750 7.064441 689.447083
273 0 1 6.848390 7.084830 690.383423
274 0 1 6.829490 7.172554 691.355469
275 0 1 6.907820 7.167405 692.310303
276 0 1 7.086940 7.000239 693.242920
277 0 1 7.143549 6.681990 694.151917
278 0 1 7.327864 6.689220 695.091919
279 0 1 7.739287 6.680210 695.949585
280 0 1 7.938304 6.681760 696.885376
281 0 1 8.020464 6.818460 697.830933
282 0 1 8.165406 7.221068 698.703186
283 0 1 8.370231 7.605170 699.584473
284 0 1 8.491331 7.748798 700.517090
285 0 1 8.590166 7.855627 701.434082
286 0 1 8.704661 8.150557 702.367615
287 0 1 8.535389 8.389267 703.310974
288 0 1 8.339071 8.660239 704.188599
289 0 1 8.155455 8.731858 705.220093
290 0 1 7.652417 8.854132 705.970886
291 0 1 6.892250 8.658415 706.743286
292 0 1 6.459220 8.342637 707.633667
293 0 1 5.973370 8.261125 708.452698
294 0 1 5.541870 8.121387 709.262390
295 0 1 5.069950 7.961190 710.018188
296 0 1 4.821550 7.891967 710.945190
297 0 1 4.628600 8.238337 711.828979
298 0 1 4.580650 8.730942 712.677490
299 0 1 4.462060 9.295060 713.423523
300 0 1 4.486730 9.843170 714.188904
301 0 1 4.525770 10.219580 715.029907
302 0 1 4.323350 10.614380 715.878296
303 0 1 4.069560 11.117840 716.682373
304 0 1 4.044900 11.475349 717.617798
305 0 1 4.153000 11.564680 718.599182
306 0 1 4.652640 11.631969 719.425781
307 0 1 5.130400 11.868530 720.273499
308 0 1 5.896680 12.002000 720.786316
309 0 1 6.683320 11.804230 721.373596
310 0 1 7.291971 11.347800 722.070923
311 0 1 7.745537 11.312060 722.918091
312 0 1 8.376309 10.938180 723.558472
313 0 1 8.601479 10.579870 724.494507
314 0 1 8.427857 10.202890 725.323181
315 0 1 8.091355 10.083950 726.233887
316 0 1 7.737487 9.975090 727.149597
317 0 1 7.403960 9.628990 727.934692
318 0 1 7.035962 9.268970 728.762024
319 0 1 6.439770 8.909688 729.401978
320 0 1 5.672570 8.684579 729.952026
321 0 1 5.084990 8.279065 730.580017
322 0 1 4.630870 8.064240 731.469971
323 0 1 4.279480 7.904361 732.328979
324 0 1 4.096810 7.904458 733.281006
325 0 1 4.049740 8.013104 734.263977
326 0 1 3.851390 7.954260 735.221008
327 0 1 3.826840 7.878954 736.129028
328 0 1 3.813090 7.660698 737.031006
329 0 1 3.667540 7.316387 737.888977
330 0 1 3.459220 7.377547 738.776978
331 0 1 3.707640 7.587826 739.711975
332 0 1 3.866820 7.781350 740.656006
333 0 1 4.094190 7.978238 741.598022
334 0 1 4.549780 8.527139 742.278992
335 0 1 4.701580 8.853425 743.124023
336 0 1 4.867770 9.030020 744.085999
337 0 1 4.964160 9.481990 745.057007
338 0 1 4.927870 9.541460 746.015015
339 0 1 4.878090 9.546930 747.015991
340 0 1 4.481010 9.640530 747.921997
341 0 1 4.015190 9.670270 748.681030
342 0 1 3.338370 9.771720 749.401978
343 0 1 3.176400 9.936560 750.297974
344 0 1 3.131900 10.020910 751.200989
345 0 1 2.866310 10.035170 752.114990
346 0 1 2.567930 10.110550 753.067017
347 0 1 2.227190 10.273560 754.004028
348 0 1 2.147310 10.267120 754.966003
349 0 1 2.154170 10.334030 755.914978
350 0 1 2.204550 10.366380 756.927979
351 0 1 2.523450 10.572800 757.791992
352 0 1 2.311610 10.737680 758.664978
353 0 1 2.277210 10.506720 759.664978
354 0 1 2.434710 10.142340 760.515991
355 0 1 2.532540 9.451800 761.151001
356 0 1 2.744340 8.902225 761.911987
357 0 1 3.051990 8.552854 762.749023
358 0 1 3.303670 8.399128 763.695007
359 0 1 3.818090 8.107145 764.424011
360 0 1 4.122800 7.678420 765.203979
361 0 1 4.317860 7.173527 765.963989
362 0 1 4.727840 6.768320 766.757996
363 0 1 4.934000 6.680590 767.712036
364 0 1 5.166230 6.532520 768.613037
365 0 1 5.506070 6.199550 769.487000
366 0 1 5.592160 6.080910 770.424988
367 0 1 5.955020 6.049800 771.309021
368 0 1 6.593860 6.137150 772.122009
369 0 1 7.192685 6.151900 772.884033
370 0 1 7.623255 6.332430 773.707031
371 0 1 8.299070 6.482820 774.382019
372 0 1 8.944118 6.275850 775.098999
373 0 1 9.274560 6.197170 776.030029
374 0 1 9.587620 6.023410 776.867004
375 0 1 9.956360 6.148180 777.766968
376 0 1 10.253860 6.345850 778.661011
377 0 1 10.559771 6.193340 779.589966
378 0 1 10.820580 5.895260 780.504028
379 0 1 10.955320 5.784150 781.445007
380 0 1 11.098910 5.767530 782.391968
381 0 1 11.065340 5.512960 783.325989
382 0 1 10.865210 5.457830 784.257996
383 0 1 10.887239 5.224360 785.177979
384 0 1 10.910600 4.948030 786.063965
385 0 1 11.203310 5.164230 786.924011
386 0 1 11.221490 5.380340 787.879028
387 0 1 11.410240 5.520690 788.838013
388 0 1 11.236160 5.764880 789.729004
389 0 1 10.875560 5.814870 790.630005
390 0 1 10.367490 6.016730 791.500000
391 0 1 10.264709 6.034870 792.419983
392 0 1 9.912070 5.818800 793.339966
393 0 1 9.644950 5.287720 794.099976
394 0 1 9.418640 4.870670 794.932983
395 0 1 9.008320 4.504490 795.695984
396 0 1 8.631749 3.995880 796.411011
397 0 1 8.232279 3.675700 797.195007
398 0 1 7.853208 3.392940 798.015991
399 0 1 7.265892 3.312350 798.817993
400 0 1 6.720860 3.373150 799.596008
401 0 1 6.290720 3.560820 800.455994
402 0 1 5.917880 4.067780 801.155029
403 0 1 5.486500 4.487270 801.921021
404 0 1 5.029310 5.073360 802.502014
405 0 1 4.815070 5.747480 803.171997
406 0 1 4.833460 6.326950 803.992004
407 0 1 4.727160 6.717670 804.823975
408 0 1 4.512860 7.075826 805.760986
409 0 1 4.403050 7.105918 806.708984
410 0 1 4.470140 7.285647 807.679993
411 0 1 4.255290 7.519755 808.599976
412 0 1 4.277050 7.883128 809.521973
413 0 1 4.163360 8.359677 810.349976
414 0 1 3.987600 8.925104 811.085022
415 0 1 3.873310 9.523620 811.872986
416 0 1 3.661940 10.175390 812.570007
417 0 1 3.630230 10.768260 813.320984
418 0 1 3.718590 11.055080 814.320984
419 0 1 4.135460 11.166491 815.156006
420 0 1 4.647550 11.129570 816.000977
421 0 1 4.793150 11.078030 816.940002
422 0 1 4.952200 10.986310 817.875977
423 0 1 5.131310 10.828930 818.775024
424 0 1 5.301830 10.812300 819.703979
425 0 1 5.471920 10.529779 820.666016
426 0 1 5.491260 10.283080 821.577026
427 0 1 5.595300 10.112061 822.494019
428 0 1 5.528900 9.738840 823.434998
429 0 1 5.635150 9.374500 824.354004
430 0 1 5.814720 8.907892 825.141968
431 0 1 5.951550 8.587613 826.046997
432 0 1 5.859270 8.225917 826.950989
433 0 1 5.893810 7.861925 827.901001
434 0 1 6.007320 7.910029 828.822021
435 0 1 6.098660 8.078104 829.789978
436 0 1 6.294350 8.155645 830.778015
437 0 1 6.145080 8.310645 831.677979
438 0 1 5.875890 8.522693 832.573975
439 0 1 5.769530 8.973399 833.437012
440 0 1 5.714830 9.329590 834.390015
441 0 1 5.807250 9.484110 835.416992
442 0 1 5.842290 9.420800 836.356995
443 0 1 5.836310 9.530890 837.354004
444 0 1 6.282290 9.338070 838.200989
445 0 1 6.748560 9.140990 839.059021
446 0 1 7.298101 8.904575 839.794983
447 0 1 7.963826 8.839763 840.481995
448 0 1 8.698218 8.876151 841.054016
449 0 1 9.437550 9.124290 841.578979
450 0 1 9.999470 9.517420 842.255981
451 0 1 10.534340 10.087610 842.869995
452 0 1 11.046120 10.856200 843.110962
453 0 1 11.281260 11.818700 842.901001
454 0 1 11.462950 12.504390 842.285034
455 0 1 11.705030 12.871090 841.377014
456 0 1 11.978160 13.145730 840.520996
457 0 1 12.326810 13.170870 839.677002
458 0 1 12.268530 13.163850 838.693970
459 0 1 12.075080 13.352720 837.773010
460 0 1 11.700050 13.258910 836.890015
461 0 1 11.352810 12.964040 836.085022
462 0 1 11.095000 12.676849 835.187012
463 0 1 10.761830 12.630610 834.242004
464 0 1 10.758050 12.592279 833.268005
465 0 1 10.783150 12.182631 832.437988
466 0 1 10.720460 11.846130 831.580017
467 0 1 10.751369 11.366110 830.705017
468 0 1 10.852770 11.127120 829.794006
469 0 1 11.045270 10.737080 828.992981
470 0 1 11.317200 10.464170 828.101990
471 0 1 10.898200 10.246610 827.257019
472 0 1 10.430230 10.061960 826.437988
473 0 1 10.166320 9.916580 825.502014
474 0 1 9.961110 9.555200 824.547974
475 0 1 9.522880 9.146990 823.770996
476 0 1 9.349110 8.758314 822.927002
477 0 1 9.219230 8.201079 822.158020
478 0 1 8.967068 8.091831 821.223022
479 0 1 8.549768 7.816748 820.358032
480 0 1 8.197080 7.887053 819.492981
481 0 1 7.815171 7.893104 818.494995
482 0 1 7.608030 7.594603 817.520996
483 0 1 7.612874 7.291788 816.634033
484 0 1 7.560703 7.253466 815.666992
485 0 1 7.486736 7.015814 814.724976
486 0 1 6.962280 6.849080 813.906006
487 0 1 6.295550 6.857160 813.254028
488 0 1 5.577220 6.760510 812.656006
489 0 1 4.901170 6.606970 811.955017
490 0 1 4.518920 6.308070 811.182983
491 0 1 4.006950 5.911170 810.525024
492 0 1 3.555080 5.746610 809.716980
493 0 1 2.986160 5.589110 808.924011
494 0 1 2.553640 5.448730 808.099976
495 0 1 2.224070 5.325420 807.171997
496 0 1 2.148170 5.298550 806.210999
497 0 1 1.917070 5.194940 805.281006
498 0 1 1.899430 5.256900 804.320984
499 0 1 2.140070 5.523450 803.367004
500 0 1 2.293020 5.611860 802.411987
501 0 1 2.435700 5.716130 801.416016
502 0 1 2.753540 6.156720 800.594971
503 0 1 3.032500 6.641530 799.818970
504 0 1 3.443210 7.363592 799.208984
505 0 1 3.645840 7.867691 798.395020
506 0 1 3.726350 8.536103 797.606995
507 0 1 4.151400 8.883712 796.837036
508 0 1 4.117480 9.455640 796.065979
509 0 1 4.157440 10.082980 795.294006
510 0 1 4.286900 10.554290 794.489014
511 0 1 4.449960 10.973650 793.627991
512 0 1 4.702450 11.024810 792.700012
513 0 1 5.095170 11.157240 791.765015
514 0 1 5.755610 11.218970 791.093018
515 0 1 6.471370 11.424360 790.424011
516 0 1 7.090651 11.536100 789.742981
517 0 1 7.628680 11.359510 788.942993
518 0 1 8.070052 11.063840 788.119019
519 0 1 8.466892 11.140300 787.190002
520 0 1 9.009809 11.310180 786.360962
521 0 1 9.300990 11.626070 785.460022
522 0 1 9.438560 11.845620 784.523987
523 0 1 9.432730 12.146400 783.549011
524 0 1 9.590820 12.331810 782.562012
525 0 1 9.492130 12.437590 781.619019
526 0 1 9.527050 12.595900 780.703979
527 0 1 9.696120 12.945520 779.734009
528 0 1 9.829180 12.973050 778.809021
529 0 1 9.791320 12.632530 777.888000
530 0 1 9.556970 12.201820 777.023987
531 0 1 9.395010 11.821620 776.164001
532 0 1 9.311020 11.331820 775.271973
533 0 1 8.820413 10.911110 774.557007
534 0 1 8.443584 10.365150 773.719971
535 0 1 8.237201 9.704960 773.046021
536 0 1 8.165174 9.188020 772.207031
537 0 1 8.111563 8.685028 771.317993
538 0 1 8.310021 8.209220 770.403015
539 0 1 8.066365 7.999772 769.565002
540 0 1 8.202884 7.876346 768.641968
541 0 1 8.074656 7.714234 767.686035
542 0 1 8.088457 7.315051 766.789978
543 0 1 8.299643 6.849010 766.046997
544 0 1 8.715368 6.545440 765.193970
545 0 1 9.367670 6.385380 764.535034
546 0 1 10.033340 6.391260 763.830017
547 0 1 10.507270 6.478560 763.021973
548 0 1 10.681090 6.709760 762.098999
549 0 1 10.562750 6.881860 761.078979
550 0 1 10.674330 7.002735 760.115967
551 0 1 10.756560 7.338603 759.214966
552 0 1 10.870729 7.389744 758.268005
553 0 1 10.887380 7.319581 757.297974
554 0 1 10.711781 7.118414 756.364990
555 0 1 10.717550 7.252624 755.328979
556 0 1 10.708260 7.281998 754.379028
557 0 1 10.238840 6.970040 753.604004
558 0 1 9.650340 6.766910 752.846985
559 0 1 9.282020 6.146620 752.229980
560 0 1 8.935832 5.722130 751.421997
561 0 1 8.652651 5.412600 750.447998
562 0 1 8.561127 5.267300 749.474976
563 0 1 8.545349 5.158230 748.489990
564 0 1 8.510540 5.415090 747.544006
565 0 1 8.577417 6.039520 746.755981
566 0 1 8.888689 6.771740 746.197998
567 0 1 9.323190 7.345260 745.570984
568 0 1 9.429830 7.800282 744.752991
569 0 1 9.642980 7.872984 743.851990
570 0 1 9.550300 7.965792 742.853027
571 0 1 9.241560 7.914204 741.890991
572 0 1 9.094170 7.976005 740.903992
573 0 1 9.191970 7.797134 739.971008
574 0 1 9.541410 7.531772 739.130005
575 0 1 9.954410 6.930600 738.471008
576 0 1 10.189341 6.319650 737.760986
577 0 1 10.358950 5.777360 737.005005
578 0 1 10.446080 5.196960 736.229980
579 0 1 10.698160 4.930790 735.361023
580 0 1 10.846650 4.661710 734.406982
581 0 1 10.668070 4.798860 733.364990
582 0 1 10.750490 5.049560 732.464966
583 0 1 10.809580 5.683340 731.692993
584 0 1 10.904460 6.154890 730.864990
585 0 1 11.091940 6.942950 730.327026
586 0 1 10.946020 7.593202 729.539978
587 0 1 10.959960 8.037961 728.724976
588 0 1 10.769630 8.561396 727.952576
589 0 1 10.229880 8.929015 727.322327
590 0 1 9.925600 9.087360 726.448792
591 0 1 9.491110 9.054600 725.570007
592 0 1 8.987063 9.096230 724.654724
593 0 1 8.318895 8.769191 724.096985
594 0 1 7.739271 8.273251 723.496216
595 0 1 7.263981 7.784660 722.818787
596 0 1 6.657050 7.419618 722.134277
597 0 1 6.187950 7.420484 721.252625
598 0 1 5.670500 7.376324 720.391724
599 0 1 5.169180 7.095379 719.618713
600 0 1 4.829020 6.666360 718.881104
601 0 1 4.687400 6.446810 717.847595
602 0 1 4.489340 6.268180 716.973022
603 0 1 4.522050 5.896570 716.042725
604 0 1 4.764490 5.431160 715.114624
605 0 1 4.945450 4.968870 714.341675
606 0 1 5.190710 4.569320 713.418518
607 0 1 5.497410 4.292010 712.462769
608 0 1 5.728200 3.652870 711.716492
609 0 1 6.128930 3.112590 711.009277
610 0 1 6.591400 2.943550 710.173584
611 0 1 6.709160 2.899510 709.245911
612 0 1 6.562970 2.625000 708.340576
613 0 1 6.465750 2.391440 707.440308
614 0 1 6.338110 2.372080 706.516174
615 0 1 6.118980 2.281440 705.607422
616 0 1 5.879960 2.137440 704.692078
617 0 1 5.827840 1.787120 703.778015
618 0 1 5.851190 1.785330 702.820801
619 0 1 5.829400 1.898230 701.890869
620 0 1 5.958440 1.961430 700.931580
621 0 1 6.039130 1.783920 699.906921
622 0 1 6.373270 1.623040 699.025085
623 0 1 6.980520 1.715050 698.291626
624 0 1 7.600738 1.834640 697.526123
625 0 1 8.223855 1.823900 696.721985
626 0 1 8.813179 1.674260 696.013184
627 0 1 9.112820 1.553290 695.031311
628 0 1 9.100520 1.602040 694.106934
629 0 1 9.116510 1.684190 693.189331
630 0 1 9.325850 1.890680 692.228210
631 0 1 9.425780 1.895980 691.243103
632 0 1 9.523820 2.176360 690.288391
633 0 1 9.867840 2.470270 689.462524
634 0 1 10.127831 2.792180 688.626709
635 0 1 10.077860 2.859770 687.612488
636 0 1 9.846740 2.708560 686.663879
637 0 1 9.596100 2.511400 685.641296
638 0 1 9.592280 2.327850 684.573975
639 0 1 9.470660 2.064720 683.686768
640 0 1 9.785590 1.771600 682.818176
641 0 1 9.778100 1.767460 681.764587
642 0 1 9.665700 1.836290 680.730774
643 0 1 9.615470 2.035080 679.765991
644 0 1 9.343640 2.412430 678.911316
645 0 1 8.860853 2.628230 678.082520
646 0 1 8.327560 2.854470 677.281494
647 0 1 7.858463 2.873380 676.404114
648 0 1 7.652249 2.949710 675.494690
649 0 1 7.402182 3.158650 674.531677
650 0 1 7.233389 3.678500 673.708374
651 0 1 6.808660 4.027750 672.980713
652 0 1 6.593130 4.583860 672.134827
653 0 1 6.435390 5.014110 671.321411
654 0 1 6.527090 5.610940 670.620728
655 0 1 6.561670 6.069610 669.758728
656 0 1 6.997860 6.264620 668.953125
657 0 1 7.203848 6.527040 668.088989
658 0 1 7.509656 6.804670 667.255188
659 0 1 7.842908 6.975700 666.291687
660 0 1 8.273964 6.828360 665.512878
661 0 1 8.822642 6.497710 664.801819
662 0 1 9.130810 6.174540 663.897827
663 0 1 9.216249 5.861580 663.003418
664 0 1 9.427520 5.573830 662.008118
665 0 1 9.569800 5.315250 661.062317
666 0 1 9.589320 5.120010 660.073914
667 0 1 9.625630 5.004450 659.119080
668 0 1 9.748010 5.024510 658.097778
669 0 1 10.079390 5.091010 657.214111
670 0 1 10.447390 5.286140 656.331299
671 0 1 10.696890 5.248390 655.374695
672 0 1 10.658640 5.133800 654.428772
673 0 1 10.689500 5.280910 653.503723
674 0 1 10.591721 5.488130 652.556702
675 0 1 10.715820 5.761860 651.640198
676 0 1 10.681300 6.267690 650.768311
677 0 1 10.685690 6.799040 649.846069
678 0 1 10.492020 7.213647 648.968201
679 0 1 10.226630 7.244684 647.992493
680 0 1 10.182899 7.234226 646.979614
681 0 1 10.179689 7.018822 646.067383
682 0 1 10.389510 6.728550 645.074585
683 0 1 10.684520 6.390420 644.220276
684 0 1 10.916030 5.995210 643.382202
685 0 1 11.017970 5.491250 642.512817
686 0 1 11.023130 5.095690 641.597473
687 0 1 10.851220 4.751540 640.738403
688 0 1 10.742500 4.518540 639.822021
689 0 1 10.735530 4.210390 638.893188
690 0 1 11.055370 4.105660 638.011169
691 0 1 11.245700 4.042930 637.130005
692 0 1 11.107320 3.795430 636.246948
693 0 1 11.065140 3.543520 635.323303
694 0 1 10.880410 3.253870 634.395935
695 0 1 10.922050 3.077220 633.408936
696 0 1 10.794700 2.611270 632.612061
697 0 1 10.311220 2.472150 631.762939
698 0 1 9.766460 2.311720 630.946777
699 0 1 9.329350 2.223820 630.138916
700 0 1 9.187970 2.213900 629.242310
701 0 1 8.867253 2.251220 628.291809
702 0 1 8.550235 2.307890 627.362000
703 0 1 8.242902 2.474740 626.423340
704 0 1 8.115234 3.016890 625.714050
705 0 1 8.049653 3.660140 624.980042
706 0 1 7.927916 4.220770 624.175293
707 0 1 7.825432 5.068640 623.579529
708 0 1 7.784719 5.916290 623.158813
709 0 1 7.607194 6.884010 622.977478
710 0 1 7.394836 7.711320 622.464966
711 0 1 6.922130 8.410502 621.959412
712 0 1 6.553070 9.195760 621.539368
713 0 1 5.962490 9.850430 621.231812
714 0 1 5.204890 10.230970 620.830139
715 0 1 4.469150 10.453160 620.255371
716 0 1 3.969540 10.528540 619.454895
717 0 1 3.452370 10.588490 618.659912
718 0 1 3.183240 10.759439 617.758972
719 0 1 3.007010 10.963440 616.755371
720 0 1 2.593350 10.857130 615.911194
721 0 1 2.399250 11.015600 614.954224
722 0 1 2.411210 11.272739 613.964905
723 0 1 2.487110 11.562090 613.016113
724 0 1 2.689910 11.469250 612.042786
725 0 1 2.802960 11.615150 611.144714
726 0 1 3.014150 11.488430 610.198120
727 0 1 3.159530 11.111219 609.282227
728 0 1 3.206550 10.690969 608.354492
729 0 1 3.119970 10.225310 607.393372
730 0 1 3.019480 9.773830 606.500122
731 0 1 3.008680 8.960586 605.939880
732 0 1 3.079690 8.510616 605.009827
733 0 1 3.403460 8.045746 604.283691
734 0 1 3.846260 7.456212 603.653320
735 0 1 4.244520 7.044102 602.840088
736 0 1 4.710140 6.479900 602.210510
737 0 1 5.365340 6.163740 601.513611
738 0 1 5.799570 6.137710 600.701416
739 0 1 6.038870 6.217410 599.798096
740 0 1 6.210840 6.239130 598.824524
741 0 1 6.171420 6.108660 597.854492
742 0 1 6.262590 6.313610 596.924683
743 0 1 6.414420 6.654910 596.064819
744 0 1 6.390160 6.942700 595.030518
745 0 1 6.266560 7.216780 594.081726
746 0 1 6.178860 7.503913 593.106689
747 0 1 6.234250 7.838142 592.243896
748 0 1 6.107540 7.897631 591.304810
749 0 1 5.954790 7.497663 590.432129
750 0 1 5.774900 7.058795 589.544922
751 0 1 5.743970 6.821720 588.627197
752 0 1 5.741460 6.605030 587.661194
753 0 1 5.762440 6.594210 586.726990
754 0 1 5.768260 6.333520 585.796997
755 0 1 5.991150 6.219770 584.884216
756 0 1 6.262930 6.282600 583.976624
757 0 1 6.651080 6.765710 583.223572
758 0 1 7.161777 7.314243 582.584900
759 0 1 7.550092 7.717943 581.814087
760 0 1 7.635081 8.199389 580.991272
761 0 1 7.082591 8.466861 580.175110
762 0 1 6.681920 8.477780 579.272217
763 0 1 6.396720 8.687883 578.361023
764 0 1 6.184420 8.839929 577.391174
765 0 1 6.192170 8.946715 576.417908
766 0 1 6.009890 8.973269 575.450623
767 0 1 5.984770 8.956716 574.462219
768 0 1 6.075670 8.986148 573.463013
769 0 1 6.317770 9.018320 572.515381
770 0 1 6.259290 9.229670 571.608093
771 0 1 6.238590 9.348680 570.692871
772 0 1 6.298580 9.865450 569.821594
773 0 1 6.654690 10.441970 569.038696
774 0 1 6.964560 10.866570 568.268127
775 0 1 7.042989 11.214890 567.357605
776 0 1 6.938280 11.335711 566.410278
777 0 1 6.730970 11.550070 565.431580
778 0 1 6.617540 11.946320 564.541992
779 0 1 6.513450 12.056110 563.533569
780 0 1 6.282820 12.035180 562.607788
781 0 1 5.823830 11.992720 561.708801
782 0 1 5.786760 11.715651 560.825378
783 0 1 5.525230 11.368320 559.961609
784 0 1 5.259360 11.233750 559.054688
785 0 1 4.943610 10.756240 558.250183
786 0 1 4.640770 10.364340 557.384827
787 0 1 4.279800 9.925190 556.576111
788 0 1 4.123040 9.552390 555.662598
789 0 1 4.232520 9.358260 554.757568
790 0 1 4.467020 9.222240 553.866394
791 0 1 4.642210 9.119820 552.947205
792 0 1 4.890650 8.709771 552.047302