LAMMPS data file via MDAnalysis

        1000  atoms
        1000  bonds
        1000  angles
           0  dihedrals
           0  impropers

           1  atom types
           1  bond types
           1  angle types
           0  dihedral types
           0  improper types

0.000000 16.000000 xlo xhi
0.000000 16.000000 ylo yhi
0.000000 1257.000000 zlo zhi


Masses

1 1.000000

Atoms

1 0 1 9.008540 9.068020 452.065979
2 0 1 8.692196 9.185270 452.994995
3 0 1 8.628259 9.535320 453.830994
4 0 1 8.598580 9.716320 454.734985
5 0 1 8.620772 10.181300 455.632019
6 0 1 8.568109 10.278660 456.591980
7 0 1 8.274761 10.414249 457.542999
8 0 1 8.144135 10.513230 458.511993
9 0 1 7.848901 10.321160 459.434021
10 0 1 7.449595 10.314899 460.296021
11 0 1 7.236894 10.559959 461.197998
12 0 1 7.071351 10.805270 462.098999
13 0 1 6.984840 11.200700 462.976013
14 0 1 7.052489 11.659230 463.774994
15 0 1 6.828500 12.196751 464.575012
16 0 1 6.555580 12.746981 465.286011
17 0 1 6.378800 13.063490 466.226990
18 0 1 6.319260 13.196680 467.190979
19 0 1 6.253110 13.343980 468.166016
20 0 1 6.288250 13.338990 469.179016
21 0 1 6.421780 13.461901 470.088989
22 0 1 6.599440 13.365590 471.065979
23 0 1 6.655170 13.076710 471.923004
24 0 1 6.715540 13.217080 472.862000
25 0 1 6.645640 13.568710 473.846008
26 0 1 6.731840 13.784130 474.764008
27 0 1 7.019288 14.031420 475.645020
28 0 1 7.277982 14.150909 476.596008
29 0 1 7.440477 14.287600 477.567993
30 0 1 7.381364 14.133490 478.492004
31 0 1 7.109136 14.155380 479.500000
32 0 1 7.150984 14.141160 480.438995
33 0 1 7.194867 13.944950 481.391998
34 0 1 7.278760 13.596630 482.252014
35 0 1 7.498063 13.319620 483.145996
36 0 1 7.805037 13.143431 484.039978
37 0 1 7.876004 12.825251 485.044006
38 0 1 7.903322 12.290541 485.898987
39 0 1 7.708881 11.753970 486.727997
40 0 1 7.903862 10.998850 487.317017
41 0 1 7.950651 10.398690 488.088989
42 0 1 7.888547 9.621770 488.667999
43 0 1 7.629147 8.917312 489.352997
44 0 1 7.387629 8.232993 490.018005
45 0 1 6.788410 7.908323 490.721008
46 0 1 6.370780 7.482466 491.484985
47 0 1 6.148770 6.839740 492.194000
48 0 1 5.955190 6.263170 492.924011
49 0 1 5.724620 6.264500 493.877014
50 0 1 5.632470 6.042880 494.838989
51 0 1 5.654120 5.961360 495.812988
52 0 1 5.552750 5.661730 496.734985
53 0 1 5.586350 5.396680 497.645996
54 0 1 5.468650 5.229280 498.583008
55 0 1 5.024650 5.137820 499.431000
56 0 1 4.624560 5.033980 500.270996
57 0 1 4.199050 5.009490 501.097992
58 0 1 3.844400 4.799700 501.934998
59 0 1 3.327010 4.605110 502.694000
60 0 1 2.944630 4.376330 503.523010
61 0 1 2.845380 4.239500 504.505005
62 0 1 2.614590 3.842550 505.333008
63 0 1 2.635420 3.750320 506.306000
64 0 1 2.610090 3.741470 507.281982
65 0 1 2.763880 3.546620 508.214996
66 0 1 3.073680 3.296190 509.109985
67 0 1 3.328850 3.103150 510.013000
68 0 1 3.699560 2.757410 510.865997
69 0 1 4.097290 2.631230 511.660004
70 0 1 4.303410 2.663280 512.578979
71 0 1 4.485210 2.444740 513.523987
72 0 1 4.642300 2.386830 514.442993
73 0 1 4.909960 2.224280 515.315002
74 0 1 5.326480 2.016740 516.148010
75 0 1 5.931690 2.236540 516.794983
76 0 1 6.277370 2.572410 517.658997
77 0 1 6.032550 2.854580 518.564026
78 0 1 5.741400 3.165230 519.464966
79 0 1 5.591430 3.278900 520.401978
80 0 1 5.237240 3.421810 521.354980
81 0 1 5.238670 3.438700 522.286987
82 0 1 5.258970 3.479560 523.244019
83 0 1 5.141190 3.520740 524.244019
84 0 1 5.158030 3.226790 525.164001
85 0 1 5.135950 3.091120 526.171997
86 0 1 5.218550 3.207720 527.098022
87 0 1 5.159880 3.518110 528.023010
88 0 1 5.092640 4.086060 528.859619
89 0 1 5.007710 4.771500 529.510315
90 0 1 4.841340 5.508180 530.164978
91 0 1 4.706670 6.228670 530.807007
92 0 1 4.854400 6.855360 531.493530
93 0 1 5.049400 7.266238 532.315674
94 0 1 5.202300 7.571936 533.277222
95 0 1 5.526370 7.730589 534.161316
96 0 1 5.623320 8.038920 535.052490
97 0 1 5.600480 8.415122 535.874390
98 0 1 5.477980 8.701403 536.812500
99 0 1 5.274150 8.713825 537.818115
100 0 1 5.071990 8.442886 538.752197
101 0 1 5.021320 8.219364 539.670898
102 0 1 4.895980 8.166537 540.577087
103 0 1 4.681330 8.214331 541.515015
104 0 1 4.541690 8.254638 542.477905
105 0 1 4.967100 8.213118 543.353088
106 0 1 5.609960 8.329114 544.118408
107 0 1 6.166240 8.548547 544.861694
108 0 1 6.726810 8.839544 545.560181
109 0 1 7.224743 8.935888 546.431702
110 0 1 7.598710 9.310460 547.325073
111 0 1 7.892945 9.434710 548.241821
112 0 1 8.122416 9.067620 549.108887
113 0 1 8.339031 8.725232 550.020508
114 0 1 8.520108 8.175849 550.812195
115 0 1 8.991000 7.575667 551.509583
116 0 1 9.685880 6.986920 551.889771
117 0 1 10.009680 6.466720 552.642578
118 0 1 10.149540 5.953430 553.479370
119 0 1 10.491690 5.555090 554.263184
120 0 1 10.929600 5.442380 555.142517
121 0 1 11.206810 5.282770 556.043701
122 0 1 11.301030 5.066600 556.979309
123 0 1 11.828310 4.962010 557.794312
124 0 1 12.041969 4.837070 558.722778
125 0 1 12.372800 4.761710 559.633484
126 0 1 12.665791 4.741420 560.544800
127 0 1 12.881990 4.496980 561.455383
128 0 1 12.901820 4.126070 562.340820
129 0 1 12.871099 4.111990 563.224426
130 0 1 12.594550 4.352950 564.138000
131 0 1 12.358110 4.626060 565.015869
132 0 1 11.829210 4.959170 565.756287
133 0 1 11.101419 5.142720 566.329224
134 0 1 10.502439 5.533280 566.972778
135 0 1 10.101030 5.943460 567.732727
136 0 1 9.497370 6.167100 568.418823
137 0 1 8.904179 6.349100 569.265320
138 0 1 8.419387 6.803240 570.049988
139 0 1 7.737460 7.195428 570.564026
140 0 1 7.172306 7.483190 571.208618
141 0 1 6.654090 7.675763 571.966187
142 0 1 6.095300 7.845552 572.768005
143 0 1 5.852090 8.152816 573.596924
144 0 1 5.637650 8.507632 574.427917
145 0 1 5.275080 8.720133 575.320984
146 0 1 4.931430 8.871655 576.197327
147 0 1 4.412460 9.085180 577.057495
148 0 1 4.135280 9.259210 577.921997
149 0 1 3.776370 9.496250 578.790771
150 0 1 3.521930 9.552190 579.719604
151 0 1 3.589830 9.290140 580.646484
152 0 1 4.236250 8.915117 581.337280
153 0 1 4.825280 8.985952 582.085205
154 0 1 5.392670 9.101570 582.833984
155 0 1 5.856300 9.368950 583.624878
156 0 1 6.114890 9.422300 584.536316
157 0 1 6.443160 9.542820 585.431030
158 0 1 6.504830 9.436110 586.411072
159 0 1 6.505860 9.536500 587.430176
160 0 1 6.277270 9.701960 588.352722
161 0 1 5.669870 9.710250 589.063110
162 0 1 5.229950 9.703460 589.941772
163 0 1 4.678200 9.801650 590.703796
164 0 1 4.119680 9.783590 591.474426
165 0 1 3.610210 9.567790 592.306274
166 0 1 3.057880 9.549150 593.170288
167 0 1 2.358010 9.281370 593.734985
168 0 1 1.827640 9.321870 594.548584
169 0 1 1.549170 9.305810 595.503723
170 0 1 1.612200 9.523480 596.453674
171 0 1 1.752610 9.879210 597.396179
172 0 1 2.007790 10.195680 598.252319
173 0 1 2.209560 10.651310 599.036011
174 0 1 2.520460 10.857870 599.964722
175 0 1 2.836780 11.134340 600.844604
176 0 1 3.112840 11.408780 601.758606
177 0 1 3.392190 11.649660 602.721619
178 0 1 3.733960 11.840010 603.648071
179 0 1 4.024750 12.238520 604.565674
180 0 1 4.569360 12.617490 605.273315
181 0 1 4.978860 13.007750 606.011597
182 0 1 5.400720 13.263940 606.853210
183 0 1 5.987030 13.278360 607.628784
184 0 1 6.491610 13.286790 608.456482
185 0 1 6.901220 13.472000 609.324402
186 0 1 7.473031 13.575900 610.060425
187 0 1 8.229315 13.785950 610.740295
188 0 1 8.827163 14.056240 611.580078
189 0 1 9.293810 14.012540 612.403992
190 0 1 9.476110 13.681620 613.304871
191 0 1 9.533510 13.544900 614.198425
192 0 1 9.737780 13.065269 615.052185
193 0 1 9.733459 12.707930 615.938721
194 0 1 9.790170 12.257010 616.846008
195 0 1 9.888580 11.636450 617.596619
196 0 1 9.627810 11.033720 618.286682
197 0 1 9.379240 10.395000 618.981750
198 0 1 9.307950 9.698330 619.655151
199 0 1 9.204160 9.229050 620.507385
200 0 1 9.050300 8.796058 621.360779
201 0 1 8.872210 8.127148 622.090027
202 0 1 8.434391 7.745003 622.905151
203 0 1 8.032194 7.491404 623.699951
204 0 1 7.832875 7.277153 624.624817
205 0 1 7.569593 7.033706 625.505249
206 0 1 6.957360 6.876300 626.202942
207 0 1 6.178060 6.896250 626.807129
208 0 1 5.499290 6.865480 627.568359
209 0 1 5.019890 6.729270 628.361450
210 0 1 4.564000 6.757230 629.235168
211 0 1 4.143400 6.757320 630.078918
212 0 1 3.696990 6.812800 630.949524
213 0 1 3.257990 6.982900 631.818115
214 0 1 3.078960 7.048328 632.746033
215 0 1 2.888170 7.116970 633.706909
216 0 1 2.762430 7.139709 634.662170
217 0 1 2.672790 7.090782 635.593506
218 0 1 2.818100 6.926510 636.538147
219 0 1 2.897770 6.649990 637.443481
220 0 1 3.191440 6.715520 638.321350
221 0 1 3.664790 6.755850 639.111694
222 0 1 3.889980 6.806000 640.117615
223 0 1 4.170970 6.915570 641.020630
224 0 1 4.249420 6.992570 641.948975
225 0 1 4.379270 6.889670 642.899414
226 0 1 4.617090 6.717910 643.796021
227 0 1 4.884060 6.686870 644.771301
228 0 1 4.831080 6.784980 645.757019
229 0 1 4.713610 6.968170 646.726807
230 0 1 4.498950 6.823090 647.674072
231 0 1 4.440190 6.781380 648.602173
232 0 1 4.171010 6.605790 649.496521
233 0 1 3.965700 6.725470 650.437378
234 0 1 3.948450 6.783200 651.385986
235 0 1 3.926790 6.646020 652.323486
236 0 1 3.938880 6.553980 653.341309
237 0 1 4.369570 6.320850 654.297607
238 0 1 4.783230 6.306090 655.197571
239 0 1 4.789300 6.264720 656.190002
240 0 1 4.621610 6.286320 657.117798
241 0 1 4.764060 6.307680 658.054382
242 0 1 4.880110 6.421310 659.043274
243 0 1 5.356510 6.487420 659.918579
244 0 1 5.833890 6.661780 660.709473
245 0 1 5.886370 6.742820 661.702209
246 0 1 5.911410 6.841350 662.692871
247 0 1 6.286630 6.744350 663.546509
248 0 1 6.994060 6.560470 664.254028
249 0 1 7.775359 6.700910 664.741821
250 0 1 8.600059 6.776570 665.325806
251 0 1 9.265450 7.009403 665.982422
252 0 1 9.720220 7.308390 666.757568
253 0 1 9.915370 7.909810 667.455688
254 0 1 10.113470 8.763760 667.932312
255 0 1 10.359370 9.468460 668.580994
256 0 1 10.605721 10.062670 669.348694
257 0 1 10.891479 10.518890 670.138184
258 0 1 11.316270 10.629620 671.040710
259 0 1 11.673059 10.696730 671.913208
260 0 1 11.955520 10.526850 672.755005
261 0 1 12.007690 10.504920 673.812500
262 0 1 12.056920 10.468920 674.749023
263 0 1 12.088659 10.443560 675.685791
264 0 1 12.127510 10.238910 676.632568
265 0 1 12.186800 9.817770 677.497620
266 0 1 12.347130 9.631960 678.387085
267 0 1 12.537840 9.482650 679.230774
268 0 1 12.771111 9.238040 680.160583
269 0 1 13.119619 8.735985 680.876831
270 0 1 13.279560 8.410729 681.773926
271 0 1 13.451960 8.420359 682.798706
272 0 1 13.739799 8.563920 683.648682
273 0 1 13.844640 8.688955 684.634216
274 0 1 13.795919 8.655590 685.623291
275 0 1 13.734660 8.600361 686.551697
276 0 1 13.678181 8.604966 687.467407
277 0 1 13.899300 8.767676 688.421387
278 0 1 13.881990 8.632947 689.359802
279 0 1 13.893721 8.195084 690.195679
280 0 1 13.955891 8.050992 691.207092
281 0 1 14.045150 7.711739 692.095215
282 0 1 13.856541 7.404775 693.047913
283 0 1 13.641541 7.054880 693.919678
284 0 1 13.463520 7.023651 694.861389
285 0 1 13.507790 6.948850 695.891602
286 0 1 13.368031 6.732170 696.800720
287 0 1 13.353291 6.418450 697.750000
288 0 1 13.340160 6.285200 698.707581
289 0 1 13.239930 6.327670 699.658569
290 0 1 12.957951 6.143760 700.562988
291 0 1 12.633170 5.913540 701.440186
292 0 1 12.397881 5.624650 702.302917
293 0 1 12.179609 5.273630 703.151611
294 0 1 11.941860 4.860310 704.021729
295 0 1 11.782160 4.659130 704.919800
296 0 1 11.569250 4.591220 705.853882
297 0 1 11.623671 4.696790 706.821777
298 0 1 11.445840 4.784050 707.747681
299 0 1 11.296300 5.188930 708.583191
300 0 1 10.909000 5.716750 709.340698
301 0 1 10.429630 6.234530 710.000610
302 0 1 9.999070 6.564580 710.785095
303 0 1 9.406450 6.714320 711.549927
304 0 1 8.991096 7.084013 712.316284
305 0 1 8.395815 7.532839 713.106995
306 0 1 8.213858 8.204207 713.770020
307 0 1 7.844572 8.769251 714.557312
308 0 1 7.330257 9.056480 715.328003
309 0 1 6.891710 8.752781 716.182922
310 0 1 6.575960 8.264700 716.921021
311 0 1 6.001760 7.795062 717.616211
312 0 1 5.550340 7.288594 718.301025
313 0 1 5.575600 6.672900 718.999634
314 0 1 5.377720 6.054240 719.806885
315 0 1 5.191800 5.885560 720.699280
316 0 1 5.208200 5.617700 721.654785
317 0 1 4.875920 5.457930 722.536377
318 0 1 4.585470 5.443640 723.466797
319 0 1 4.242410 5.473650 724.369324
320 0 1 4.178740 5.273590 725.353699
321 0 1 4.311470 5.039800 726.308228
322 0 1 4.692500 5.028390 727.218628
323 0 1 4.996190 4.968600 728.106018
324 0 1 5.101530 4.923700 729.072021
325 0 1 5.332350 5.148810 729.929016
326 0 1 5.427060 5.375280 730.856995
327 0 1 5.530320 5.473330 731.823975
328 0 1 5.717050 6.053980 732.593018
329 0 1 5.896760 6.594040 733.390991
330 0 1 5.940630 6.947810 734.351013
331 0 1 5.586530 7.179200 735.281006
332 0 1 5.432300 7.602597 736.158020
333 0 1 5.338250 8.039583 737.035034
334 0 1 5.193130 8.402281 737.932007
335 0 1 4.907620 8.784605 738.781006
336 0 1 4.570790 9.497040 739.362000
337 0 1 4.374820 10.075140 740.140991
338 0 1 4.101200 10.470600 740.969971
339 0 1 3.766420 10.548100 741.830994
340 0 1 3.417540 10.318530 742.716003
341 0 1 3.326840 10.355080 743.627991
342 0 1 3.498820 10.624300 744.538025
343 0 1 3.742950 10.455570 745.416016
344 0 1 3.826350 10.396310 746.364990
345 0 1 4.335610 10.263500 747.155029
346 0 1 4.767940 10.337500 748.000000
347 0 1 5.096180 10.385150 748.979004
348 0 1 5.683190 10.411940 749.684021
349 0 1 5.995350 10.302731 750.533020
350 0 1 6.249760 10.318000 751.432007
351 0 1 6.398060 10.506250 752.390015
352 0 1 6.490430 10.684090 753.356995
353 0 1 6.796710 10.979890 754.260010
354 0 1 7.236623 11.136850 755.059998
355 0 1 7.544726 10.948630 755.966003
356 0 1 8.136574 10.712420 756.785034
357 0 1 8.649067 10.522200 757.603027
358 0 1 9.080270 10.880490 758.406006
359 0 1 9.435040 11.115140 759.231018
360 0 1 9.768579 11.513130 760.075012
361 0 1 10.075769 11.698339 760.974976
362 0 1 10.547689 11.820030 761.781982
363 0 1 11.135839 12.022400 762.535034
364 0 1 11.493070 11.983990 763.437012
365 0 1 11.807261 12.021310 764.370972
366 0 1 11.898720 12.152100 765.307983
367 0 1 11.750260 12.333450 766.231018
368 0 1 11.977770 12.423090 767.182007
369 0 1 12.320330 12.340150 768.114014
370 0 1 12.895520 12.290880 768.921021
371 0 1 13.008039 12.237940 769.885010
372 0 1 12.922689 12.190880 770.859009
373 0 1 12.851800 11.999200 771.802002
374 0 1 12.782721 11.832610 772.729004
375 0 1 12.684690 11.623250 773.625000
376 0 1 12.713079 11.376300 774.575012
377 0 1 12.921619 11.171490 775.552979
378 0 1 12.771231 11.066420 776.502014
379 0 1 12.715760 11.210200 777.518982
380 0 1 12.844040 11.331550 778.523987
381 0 1 12.941290 11.376230 779.464966
382 0 1 13.095921 11.473160 780.365967
383 0 1 12.898890 11.494699 781.297974
384 0 1 12.676770 11.667970 782.216003
385 0 1 12.670879 12.058500 783.030029
386 0 1 12.739520 12.127460 784.016968
387 0 1 12.514959 12.256460 784.973022
388 0 1 12.407750 12.306650 785.916992
389 0 1 12.349239 12.543700 786.848999
390 0 1 12.053870 12.746640 787.747986
391 0 1 11.997829 12.946020 788.656982
392 0 1 12.025850 13.033290 789.565979
393 0 1 12.124160 12.763411 790.443970
394 0 1 12.383650 12.637320 791.382019
395 0 1 12.597000 12.305019 792.254028
396 0 1 12.700470 12.044701 793.174011
397 0 1 13.123540 11.954470 794.072998
398 0 1 13.259729 11.748199 794.997986
399 0 1 13.284670 11.429399 795.874023
400 0 1 13.216700 10.960080 796.695007
401 0 1 12.915300 10.524480 797.624023
402 0 1 12.493350 10.206290 798.455994
403 0 1 12.149549 9.821230 799.312012
404 0 1 11.964040 9.586970 800.255005
405 0 1 12.047979 9.363670 801.179993
406 0 1 11.855840 9.366720 802.109985
407 0 1 11.458680 9.174970 802.971985
408 0 1 11.058440 8.706083 803.757996
409 0 1 10.652030 8.437916 804.604980
410 0 1 10.291130 8.103440 805.421997
411 0 1 9.871400 7.907108 806.268005
412 0 1 9.467650 7.740807 807.150024
413 0 1 9.296500 7.659090 808.125977
414 0 1 9.164700 7.626111 809.041016
415 0 1 9.253220 7.582384 809.976013
416 0 1 9.215520 7.693498 810.937988
417 0 1 9.331420 7.659189 811.911011
418 0 1 9.331310 7.547101 812.914001
419 0 1 9.176420 7.145820 813.742981
420 0 1 8.870846 6.820570 814.535034
421 0 1 8.644397 6.578920 815.434021
422 0 1 8.461177 6.579090 816.395996
423 0 1 8.329476 6.348940 817.327026
424 0 1 7.974381 6.398550 818.203003
425 0 1 7.579377 6.494220 819.054993
426 0 1 7.331876 6.563230 819.979004
427 0 1 7.128844 6.503340 821.000000
428 0 1 7.102405 6.538410 821.903992
429 0 1 6.738840 6.788790 822.786011
430 0 1 6.608880 6.975820 823.832031
431 0 1 6.327960 7.234751 824.713013
432 0 1 5.754240 7.497235 825.421997
433 0 1 5.333690 7.204032 826.247986
434 0 1 5.134370 6.857730 827.072021
435 0 1 4.830510 6.368870 827.854980
436 0 1 4.638770 5.835270 828.583008
437 0 1 4.177620 5.322200 829.351990
438 0 1 3.567430 4.905210 830.059021
439 0 1 3.065650 4.409500 830.761963
440 0 1 2.850090 3.951370 831.596008
441 0 1 2.891590 3.557820 832.492981
442 0 1 3.040180 3.404680 833.390991
443 0 1 3.092760 3.198210 834.270996
444 0 1 3.271490 3.309600 835.193970
445 0 1 3.544200 3.528530 836.085022
446 0 1 3.975320 3.628550 836.960999
447 0 1 4.487030 3.561290 837.740967
448 0 1 5.131140 3.037910 838.164978
449 0 1 5.664830 2.494220 838.785034
450 0 1 6.376400 1.905000 839.205017
451 0 1 7.123737 1.499940 839.679993
452 0 1 7.967304 1.359570 840.106995
453 0 1 8.954334 1.442560 840.091980
454 0 1 9.800650 1.795740 839.731995
455 0 1 10.508660 2.231840 839.312012
456 0 1 10.892590 2.709860 838.565002
457 0 1 11.159850 3.136590 837.754028
458 0 1 11.292620 3.267650 836.832031
459 0 1 11.580550 3.516480 835.947021
460 0 1 12.033030 3.848310 835.188965
461 0 1 12.392300 3.925260 834.306030
462 0 1 12.839920 4.034370 833.442017
463 0 1 13.130489 4.194050 832.567017
464 0 1 13.142469 4.337840 831.587036
465 0 1 13.185850 4.527000 830.575012
466 0 1 13.078310 4.868710 829.726013
467 0 1 12.928761 5.404290 828.859985
468 0 1 12.642321 5.596520 827.958984
469 0 1 12.135460 5.855730 827.127991
470 0 1 11.851250 6.080550 826.192993
471 0 1 11.299550 5.803860 825.410034
472 0 1 10.601040 5.611000 824.820984
473 0 1 10.076500 5.194040 824.122986
474 0 1 9.722360 4.879270 823.309998
475 0 1 9.587620 4.548770 822.440002
476 0 1 9.425830 4.007110 821.612000
477 0 1 9.108340 3.581760 820.781006
478 0 1 8.802545 3.326150 819.906006
479 0 1 8.440664 3.206810 818.964966
480 0 1 8.062609 3.050340 818.067017
481 0 1 7.769427 3.139050 817.129028
482 0 1 7.412149 3.158400 816.179993
483 0 1 6.816610 3.195160 815.393005
484 0 1 6.394920 3.091410 814.526978
485 0 1 6.079020 2.747740 813.639038
486 0 1 5.670560 2.703710 812.820007
487 0 1 5.122470 2.579080 812.039001
488 0 1 4.571900 2.535130 811.202026
489 0 1 4.096370 2.455740 810.317993
490 0 1 3.860600 2.632280 809.414978
491 0 1 3.766890 3.112490 808.601990
492 0 1 3.772460 3.555310 807.718018
493 0 1 3.899900 3.731080 806.811035
494 0 1 3.914500 3.833100 805.906982
495 0 1 3.973020 3.995680 804.955017
496 0 1 4.187610 4.092310 803.947021
497 0 1 4.432640 4.101290 802.989014
498 0 1 4.768820 4.173640 802.068970
499 0 1 5.130480 4.551360 801.244019
500 0 1 5.487340 4.884490 800.483032
501 0 1 5.702940 5.246340 799.615967
502 0 1 6.179820 5.391730 798.778015
503 0 1 6.790950 5.371650 798.067017
504 0 1 7.176495 5.444570 797.203979
505 0 1 7.644576 5.601480 796.382996
506 0 1 8.070076 5.730540 795.565002
507 0 1 8.362557 5.892340 794.682983
508 0 1 8.582582 6.050480 793.757019
509 0 1 8.776306 6.283800 792.843018
510 0 1 9.010780 6.557830 791.989014
511 0 1 8.865265 6.624430 791.046021
512 0 1 8.910820 6.458260 790.021973
513 0 1 8.946383 6.206370 789.106018
514 0 1 8.822151 5.995380 788.176025
515 0 1 8.689177 6.020100 787.210022
516 0 1 8.293949 6.329320 786.322021
517 0 1 8.012556 6.613480 785.468994
518 0 1 7.852467 6.757910 784.494019
519 0 1 7.477167 6.885080 783.638000
520 0 1 7.244811 7.215676 782.792969
521 0 1 6.845290 7.362264 781.891968
522 0 1 6.538320 7.206645 780.981018
523 0 1 6.113860 6.697870 780.187012
524 0 1 5.903270 6.277750 779.369995
525 0 1 5.928350 5.606040 778.588013
526 0 1 5.991830 4.965360 777.931030
527 0 1 6.022150 4.345510 777.162964
528 0 1 6.125430 3.987130 776.278015
529 0 1 6.080570 3.512750 775.406006
530 0 1 5.901730 3.286600 774.455994
531 0 1 5.749760 2.919150 773.599976
532 0 1 5.458300 2.644420 772.723022
533 0 1 5.247330 2.416890 771.807983
534 0 1 5.168330 2.308530 770.768982
535 0 1 5.133710 2.241750 769.780029
536 0 1 5.279470 2.240420 768.848999
537 0 1 5.496440 2.601790 767.969971
538 0 1 5.556020 2.777410 767.072021
539 0 1 5.583260 2.834790 766.143982
540 0 1 5.712690 2.842040 765.120972
541 0 1 5.862560 2.828650 764.177002
542 0 1 6.194720 2.866650 763.200989
543 0 1 6.742580 2.927500 762.408020
544 0 1 7.296082 2.869290 761.604980
545 0 1 7.830279 2.999970 760.837036
546 0 1 8.659762 3.359530 760.311035
547 0 1 9.335770 3.794150 759.770020
548 0 1 9.950400 4.293850 759.291992
549 0 1 10.514420 4.852550 758.697998
550 0 1 10.969700 5.458510 758.129028
551 0 1 11.408091 5.993120 757.478027
552 0 1 11.845430 6.711280 756.958984
553 0 1 12.296761 7.359586 756.443970
554 0 1 12.657021 7.946169 755.796997
555 0 1 12.761459 8.593690 755.184998
556 0 1 12.865860 9.269570 754.471008
557 0 1 12.887091 9.832230 753.718994
558 0 1 12.785870 10.298491 752.911987
559 0 1 12.585030 10.473610 751.983032
560 0 1 12.585330 10.638090 751.018005
561 0 1 12.639891 10.844760 750.044983
562 0 1 12.527491 11.211380 749.190979
563 0 1 12.565590 11.396339 748.291992
564 0 1 12.647790 11.409480 747.358032
565 0 1 12.745570 11.402160 746.416992
566 0 1 12.854800 11.351440 745.510010
567 0 1 12.835210 11.452440 744.531006
568 0 1 12.728130 11.663000 743.591980
569 0 1 12.775930 11.814230 742.645020
570 0 1 12.532200 12.263300 741.832031
571 0 1 12.411240 12.471170 740.896973
572 0 1 12.410789 12.684350 739.968994
573 0 1 12.488440 12.747880 739.030029
574 0 1 12.627140 12.899759 738.098022
575 0 1 12.689350 12.852160 737.120972
576 0 1 12.437410 12.576500 736.247986
577 0 1 11.809900 12.481470 735.538025
578 0 1 11.387750 12.375380 734.723999
579 0 1 11.108570 12.151091 733.856018
580 0 1 10.923560 11.674530 733.042969
581 0 1 10.799320 11.233470 732.218018
582 0 1 11.077539 10.645679 731.528992
583 0 1 10.881340 10.309700 730.658997
584 0 1 10.903340 10.072210 729.676025
585 0 1 10.886340 9.868390 728.749023
586 0 1 10.693010 9.414710 727.958130
587 0 1 10.574960 8.821601 727.145020
588 0 1 10.568990 8.318186 726.354675
589 0 1 10.711050 7.935654 725.496521
590 0 1 10.970870 7.610972 724.621277
591 0 1 10.999100 7.316428 723.719177
592 0 1 11.020360 6.851600 722.831116
593 0 1 11.042510 6.357610 722.083801
594 0 1 11.234750 5.898250 721.290894
595 0 1 11.162690 5.597670 720.387695
596 0 1 10.999760 5.232190 719.565979
597 0 1 11.096090 4.829230 718.609314
598 0 1 10.821711 4.547340 717.740784
599 0 1 10.588900 4.216940 716.875732
600 0 1 10.226180 4.117920 716.018982
601 0 1 9.585900 4.000600 715.333618
602 0 1 8.907477 3.672830 714.675293
603 0 1 8.406816 3.508300 713.871826
604 0 1 8.065624 3.549510 712.895203
605 0 1 7.861357 3.637760 711.945190
606 0 1 7.755005 3.842890 711.044189
607 0 1 7.600038 4.393330 710.257019
608 0 1 7.486108 5.115750 709.605713
609 0 1 7.832981 5.695970 708.896790
610 0 1 8.002515 6.175760 708.068420
611 0 1 8.248408 6.737410 707.294617
612 0 1 8.618622 7.115004 706.422913
613 0 1 9.052810 7.240967 705.584900
614 0 1 9.235540 7.245003 704.575928
615 0 1 9.139140 7.101733 703.632385
616 0 1 9.163310 6.780780 702.688599
617 0 1 8.973413 6.471790 701.783691
618 0 1 8.990859 6.160030 700.842590
619 0 1 9.075730 5.676700 699.991577
620 0 1 9.223560 5.188790 699.170288
621 0 1 9.578430 4.587170 698.441589
622 0 1 9.924100 4.086220 697.731689
623 0 1 10.081370 3.933140 696.807922
624 0 1 10.022940 3.930200 695.822998
625 0 1 9.660040 3.779060 694.970886
626 0 1 9.515290 3.903180 694.059814
627 0 1 9.124900 3.944530 693.187683
628 0 1 8.883867 3.803390 692.299500
629 0 1 8.705429 3.832970 691.320374
630 0 1 8.881149 3.728410 690.351074
631 0 1 9.231990 3.702420 689.488586
632 0 1 9.587800 3.554380 688.559021
633 0 1 10.040830 3.447940 687.740479
634 0 1 10.350540 3.207050 686.844299
635 0 1 10.604480 3.258120 685.837585
636 0 1 10.797150 3.444760 684.906799
637 0 1 11.155470 3.506610 684.062378
638 0 1 11.527460 3.569920 683.145203
639 0 1 11.798310 3.680050 682.201904
640 0 1 11.993270 3.923690 681.304321
641 0 1 12.222490 3.731140 680.364502
642 0 1 12.133720 3.750490 679.335510
643 0 1 12.158131 3.862480 678.324524
644 0 1 12.072510 3.966190 677.368286
645 0 1 11.881440 3.816380 676.408997
646 0 1 11.500120 3.721830 675.507568
647 0 1 10.948760 3.805110 674.672791
648 0 1 10.688820 3.685810 673.683105
649 0 1 10.226490 3.518660 672.868591
650 0 1 9.747740 3.412210 671.999023
651 0 1 9.372460 3.559830 671.042297
652 0 1 8.716894 3.441830 670.348999
653 0 1 7.881304 3.636850 669.930176
654 0 1 7.223898 3.740730 669.237610
655 0 1 6.543110 3.766860 668.495911
656 0 1 5.977530 3.793810 667.741089
657 0 1 5.712340 3.809600 666.757324
658 0 1 5.544700 4.038210 665.687988
659 0 1 5.594500 4.279210 664.746704
660 0 1 5.902190 4.303870 663.869080
661 0 1 6.147350 4.460100 662.917969
662 0 1 6.417730 4.492450 662.019592
663 0 1 6.787090 4.568370 661.172485
664 0 1 7.125260 4.837690 660.303589
665 0 1 7.676522 5.002920 659.501892
666 0 1 8.159365 4.988260 658.673218
667 0 1 8.676928 5.039470 657.882812
668 0 1 9.111400 5.116060 656.985413
669 0 1 9.440040 5.196540 656.121277
670 0 1 10.016360 5.236980 655.390320
671 0 1 10.735360 5.614020 654.745728
672 0 1 11.145940 5.781420 653.886719
673 0 1 11.376310 5.759110 652.928528
674 0 1 11.510360 6.057640 652.023499
675 0 1 11.685520 6.013880 651.116699
676 0 1 11.908130 6.119340 650.134094
677 0 1 12.106230 6.134350 649.194275
678 0 1 12.180560 6.058560 648.211304
679 0 1 12.347540 5.794220 647.293701
680 0 1 12.363290 5.828250 646.368408
681 0 1 12.347651 5.749380 645.376587
682 0 1 12.462570 5.873100 644.394775
683 0 1 12.591579 6.338340 643.539124
684 0 1 12.635450 6.627510 642.609009
685 0 1 12.505110 6.649450 641.618896
686 0 1 12.295450 6.816750 640.668030
687 0 1 12.173019 6.822800 639.656189
688 0 1 12.103650 6.627320 638.680115
689 0 1 12.192850 6.604530 637.779053
690 0 1 12.168301 6.413580 636.862427
691 0 1 11.791310 6.052100 636.085327
692 0 1 11.597321 5.480690 635.298584
693 0 1 11.340250 5.355040 634.381897
694 0 1 11.195410 5.087730 633.487061
695 0 1 11.120100 4.719470 632.565308
696 0 1 11.367110 4.253130 631.667053
697 0 1 11.569040 3.897850 630.798279
698 0 1 11.488440 3.520500 629.915161
699 0 1 11.492980 2.948640 629.157288
700 0 1 11.388330 2.487010 628.326660
701 0 1 11.543290 2.248390 627.423401
702 0 1 11.339460 2.237560 626.510498
703 0 1 11.197150 2.052380 625.595825
704 0 1 11.290040 2.305050 624.631592
705 0 1 11.375980 2.625820 623.732056
706 0 1 11.709090 2.930100 622.868164
707 0 1 11.816410 3.531050 622.075195
708 0 1 11.863210 4.192600 621.328247
709 0 1 11.800850 4.574900 620.405212
710 0 1 12.124320 4.656460 619.475037
711 0 1 12.485080 4.389550 618.505981
712 0 1 12.938490 4.102460 617.705627
713 0 1 13.080410 3.958560 616.809021
714 0 1 12.975060 3.809020 615.784180
715 0 1 12.687260 3.897640 614.880676
716 0 1 12.320190 4.213990 613.951599
717 0 1 11.805630 4.528900 613.178284
718 0 1 11.235590 4.951210 612.510071
719 0 1 10.764250 5.466660 611.941528
720 0 1 10.107380 6.032970 611.478210
721 0 1 9.461440 6.573430 611.013611
722 0 1 8.796931 6.871960 610.389221
723 0 1 8.045987 7.135980 609.852417
724 0 1 7.363278 7.678484 609.436890
725 0 1 6.994790 8.342579 608.951111
726 0 1 6.785770 9.183599 608.344299
727 0 1 6.766290 9.874000 607.676575
728 0 1 6.722530 10.390970 606.924500
729 0 1 6.653820 10.765540 606.032410
730 0 1 6.366390 11.040560 605.184998
731 0 1 6.044980 11.276070 604.310303
732 0 1 5.799020 11.278830 603.388977
733 0 1 5.711760 11.229340 602.440796
734 0 1 5.520540 11.301180 601.494202
735 0 1 5.603170 11.333440 600.522217
736 0 1 5.605660 11.085920 599.612793
737 0 1 5.639930 10.942530 598.654419
738 0 1 5.681740 11.122430 597.716309
739 0 1 5.626950 11.433020 596.780396
740 0 1 5.904940 11.355300 595.805298
741 0 1 5.790180 11.244470 594.854309
742 0 1 5.708430 11.152900 593.860229
743 0 1 5.830060 11.156520 592.914673
744 0 1 6.025950 11.163270 592.026611
745 0 1 6.107940 11.257700 591.058411
746 0 1 5.918890 11.376130 590.107605
747 0 1 5.916720 11.633890 589.183899
748 0 1 5.737350 12.067810 588.328918
749 0 1 5.514640 12.314690 587.376831
750 0 1 5.070850 12.398760 586.533203
751 0 1 4.869380 12.759720 585.701477
752 0 1 4.935710 13.217831 584.850830
753 0 1 4.866900 13.729370 584.003296
754 0 1 5.115220 14.044880 583.193298
755 0 1 5.779070 14.265881 582.390015
756 0 1 6.478310 14.406330 581.730225
757 0 1 7.292740 14.429990 581.102600
758 0 1 8.143105 14.273211 580.731018
759 0 1 8.979982 13.954520 580.367310
760 0 1 9.788150 13.563900 579.994080
761 0 1 10.408610 13.201270 579.395996
762 0 1 11.145560 12.798330 579.021301
763 0 1 11.605810 12.083460 578.541687
764 0 1 12.082951 11.474610 578.013611
765 0 1 12.598370 10.707809 577.632507
766 0 1 13.009980 9.969620 577.197693
767 0 1 13.438510 9.146290 576.904602
768 0 1 13.857990 8.403432 576.412292
769 0 1 13.989130 7.773429 575.735107
770 0 1 14.022910 6.962510 575.155884
771 0 1 13.887260 6.304630 574.406677
772 0 1 13.774731 5.917290 573.524902
773 0 1 13.508540 5.620450 572.690308
774 0 1 13.238530 5.536970 571.749817
775 0 1 12.816390 5.159390 571.006592
776 0 1 12.277730 4.632030 570.373901
777 0 1 11.680070 4.138050 569.846924
778 0 1 11.427470 3.737410 568.992615
779 0 1 10.987710 3.397740 568.158508
780 0 1 10.581970 3.136070 567.320312
781 0 1 10.416730 2.875230 566.450317
782 0 1 10.203070 2.820830 565.497620
783 0 1 10.188040 3.157710 564.558289
784 0 1 10.264970 3.279870 563.557129
785 0 1 9.917880 3.577510 562.672424
786 0 1 9.563750 3.847000 561.801514
787 0 1 9.086280 4.472080 561.204102
788 0 1 8.648715 5.090990 560.581482
789 0 1 8.060686 5.621440 560.048279
790 0 1 7.567587 6.041370 559.356995