LAMMPS data file via MDAnalysis

        1000  atoms
        1000  bonds
        1000  angles
           0  dihedrals
           0  impropers

           1  atom types
           1  bond types
           1  angle types
           0  dihedral types
           0  improper types

0.000000 16.000000 xlo xhi
0.000000 16.000000 ylo yhi
0.000000 1257.000000 zlo zhi


Masses

1 1.000000

Atoms

1 0 1 9.635600 7.296386 450.921021
2 0 1 9.250460 7.696175 451.699005
3 0 1 8.490085 7.974297 452.257996
4 0 1 7.655217 7.847859 452.787994
5 0 1 6.882290 7.758997 453.333008
6 0 1 6.238110 7.527971 454.018982
7 0 1 5.866270 7.403029 454.882996
8 0 1 5.937000 7.318028 455.846008
9 0 1 5.865180 7.213526 456.830994
10 0 1 5.711440 7.340495 457.744995
11 0 1 5.831580 7.288543 458.720001
12 0 1 5.999480 6.982000 459.623993
13 0 1 6.091830 6.734710 460.554016
14 0 1 6.447140 6.295290 461.421997
15 0 1 7.035324 6.116530 462.223999
16 0 1 7.596193 5.626220 462.895020
17 0 1 7.894255 5.044100 463.588013
18 0 1 7.712207 4.432680 464.286011
19 0 1 7.616100 4.181570 465.227997
20 0 1 7.206514 4.041160 466.098022
21 0 1 6.876700 3.683410 466.859009
22 0 1 6.717910 3.267200 467.705017
23 0 1 6.634620 2.875790 468.596985
24 0 1 6.474330 2.553630 469.468994
25 0 1 6.455450 2.483170 470.477997
26 0 1 6.186480 2.492780 471.360992
27 0 1 6.201110 2.749090 472.324005
28 0 1 5.812910 3.007690 473.123993
29 0 1 5.574660 3.343840 473.968018
30 0 1 5.369920 3.640320 474.885986
31 0 1 5.384460 3.948250 475.768005
32 0 1 5.795850 3.822730 476.606018
33 0 1 6.164750 4.014180 477.476990
34 0 1 6.472130 4.095030 478.406982
35 0 1 6.713610 4.294620 479.341003
36 0 1 7.092327 4.231900 480.263000
37 0 1 7.447093 4.074320 481.171021
38 0 1 7.795881 3.968260 482.123993
39 0 1 8.292773 3.982160 482.934998
40 0 1 8.882966 4.510600 483.660004
41 0 1 9.166680 4.992320 484.520020
42 0 1 9.687370 5.399300 485.234009
43 0 1 10.180830 5.942170 485.878998
44 0 1 10.309440 6.344670 486.679993
45 0 1 10.599280 6.659420 487.533020
46 0 1 10.733800 6.807720 488.533020
47 0 1 10.704460 6.826910 489.541992
48 0 1 10.677160 6.993760 490.497986
49 0 1 11.065110 7.417733 491.252014
50 0 1 11.653880 7.915101 491.807983
51 0 1 12.309600 7.821022 492.583008
52 0 1 12.835939 7.942233 493.330017
53 0 1 13.312719 8.089294 494.257019
54 0 1 13.731390 8.162317 495.109009
55 0 1 13.849850 8.369383 496.054993
56 0 1 14.123910 8.605961 496.927979
57 0 1 14.196060 8.594470 497.851013
58 0 1 13.971050 8.808046 498.798004
59 0 1 13.638121 9.109990 499.700012
60 0 1 13.309450 9.317440 500.574005
61 0 1 13.073530 9.234710 501.567017
62 0 1 12.610770 9.439020 502.411987
63 0 1 12.360100 9.939810 503.247986
64 0 1 12.186300 10.236540 504.127991
65 0 1 11.870900 10.499990 505.005005
66 0 1 11.691740 10.754240 505.859985
67 0 1 11.526950 10.949590 506.781982
68 0 1 11.136430 10.860970 507.665009
69 0 1 10.712350 10.794600 508.561005
70 0 1 10.051300 10.875170 509.244019
71 0 1 9.691600 10.599640 510.102997
72 0 1 9.138110 10.516350 510.946991
73 0 1 8.638224 10.536470 511.804016
74 0 1 8.053020 10.625260 512.499023
75 0 1 7.349062 10.639570 513.184998
76 0 1 6.789840 10.554410 514.028015
77 0 1 6.345680 10.773060 514.882019
78 0 1 5.886700 10.705030 515.689026
79 0 1 5.552470 10.559731 516.585022
80 0 1 5.513360 10.553640 517.572998
81 0 1 5.348820 10.928950 518.411011
82 0 1 5.165860 11.180861 519.296021
83 0 1 4.974980 11.365650 520.260986
84 0 1 5.148810 12.011470 521.002991
85 0 1 5.480660 12.663139 521.567017
86 0 1 5.772960 13.374240 522.127014
87 0 1 6.246790 13.828899 522.856018
88 0 1 6.644480 14.035891 523.684021
89 0 1 7.146605 13.971980 524.500000
90 0 1 7.564095 13.921740 525.492004
91 0 1 7.783222 13.777610 526.447021
92 0 1 7.624582 13.641830 527.416992
93 0 1 7.677058 13.570330 528.400024
94 0 1 7.270968 13.735929 529.286011
95 0 1 7.189960 13.598150 530.247986
96 0 1 6.912790 13.443380 531.207397
97 0 1 6.861120 13.442030 532.132812
98 0 1 6.614460 13.418550 533.075928
99 0 1 6.331360 13.517340 534.037598
100 0 1 5.807970 13.483419 534.851379
101 0 1 5.480660 13.386570 535.797485
102 0 1 5.206700 13.135230 536.696533
103 0 1 4.791180 12.724960 537.454712
104 0 1 4.543850 12.612249 538.360901
105 0 1 4.302440 12.309170 539.230896
106 0 1 4.212680 12.030190 540.097717
107 0 1 3.849580 11.927299 541.009399
108 0 1 3.546470 11.534050 541.899597
109 0 1 3.330970 11.403730 542.763977
110 0 1 2.942640 11.514960 543.750183
111 0 1 2.368190 11.266320 544.480713
112 0 1 2.213250 11.053140 545.436890
113 0 1 2.098320 10.764230 546.317871
114 0 1 2.180510 10.429670 547.222168
115 0 1 2.435990 10.124860 548.104675
116 0 1 2.819240 9.705940 548.792297
117 0 1 3.370340 9.542020 549.532776
118 0 1 4.037710 9.058750 550.041077
119 0 1 4.595010 8.431256 550.564087
120 0 1 4.721830 7.584436 551.134583
121 0 1 5.100180 7.193805 551.954407
122 0 1 5.438890 6.718620 552.773621
123 0 1 6.150610 6.498060 553.388428
124 0 1 6.930080 6.331940 553.914978
125 0 1 7.615402 5.911420 554.489990
126 0 1 8.385044 5.757120 554.996521
127 0 1 9.029690 5.631080 555.691528
128 0 1 9.569110 5.500480 556.496582
129 0 1 10.168760 5.466910 557.330322
130 0 1 10.625240 5.586690 558.157227
131 0 1 11.286140 5.575640 558.810181
132 0 1 11.828220 5.583780 559.601074
133 0 1 11.999940 5.533570 560.528931
134 0 1 12.020830 5.555480 561.544495
135 0 1 12.156520 5.593790 562.518188
136 0 1 12.423660 5.692790 563.454712
137 0 1 12.446180 5.766520 564.428406
138 0 1 12.248810 5.650070 565.354126
139 0 1 11.983570 5.705820 566.304993
140 0 1 11.695490 5.719040 567.325317
141 0 1 11.043080 5.748430 568.025879
142 0 1 10.669330 5.544700 568.884827
143 0 1 10.286630 5.490760 569.770508
144 0 1 10.165751 5.779210 570.677673
145 0 1 9.839700 5.917810 571.582520
146 0 1 9.416270 5.885520 572.435791
147 0 1 9.396000 5.791570 573.382874
148 0 1 9.614720 5.470030 574.241821
149 0 1 9.694180 5.124150 575.152527
150 0 1 9.887360 5.291480 576.148010
151 0 1 9.821770 5.568120 577.024780
152 0 1 9.946160 6.039200 577.878784
153 0 1 9.847430 6.628950 578.638489
154 0 1 9.992510 6.973600 579.534424
155 0 1 9.979250 7.380706 580.367676
156 0 1 10.024611 7.830456 581.246399
157 0 1 10.320680 8.020258 582.108398
158 0 1 10.774450 8.254203 582.885681
159 0 1 11.111720 8.576692 583.683289
160 0 1 11.489690 8.601360 584.603027
161 0 1 11.829810 8.506616 585.542175
162 0 1 12.141640 8.460946 586.412781
163 0 1 12.312690 8.806435 587.341003
164 0 1 12.279970 8.812249 588.260681
165 0 1 12.107019 8.554815 589.115723
166 0 1 11.877120 8.232972 589.960022
167 0 1 11.456610 7.862415 590.777893
168 0 1 11.126801 7.335277 591.472168
169 0 1 10.652081 6.771210 592.139893
170 0 1 10.561050 6.276540 592.960083
171 0 1 10.765560 5.541650 593.560425
172 0 1 10.506590 4.862580 594.262817
173 0 1 10.037900 4.218810 594.856018
174 0 1 9.673730 3.852780 595.615479
175 0 1 9.572170 3.728020 596.570374
176 0 1 9.793460 3.791090 597.552002
177 0 1 9.806980 3.688610 598.476807
178 0 1 9.743670 3.507390 599.413086
179 0 1 9.964690 3.265030 600.332520
180 0 1 10.130180 2.723630 601.127502
181 0 1 10.192801 2.080530 601.893311
182 0 1 9.977430 1.721560 602.817200
183 0 1 9.789750 1.647800 603.732422
184 0 1 9.391660 1.874820 604.580200
185 0 1 9.053370 2.159740 605.421875
186 0 1 8.732977 2.326130 606.283203
187 0 1 8.345396 2.142700 607.105225
188 0 1 8.112161 2.081540 608.082214
189 0 1 7.862916 2.171710 609.009399
190 0 1 7.472720 2.451700 609.874695
191 0 1 6.977210 2.865890 610.641174
192 0 1 6.890740 2.965550 611.564697
193 0 1 6.867970 3.197400 612.512024
194 0 1 7.042048 3.652680 613.379883
195 0 1 7.006899 4.320250 614.134705
196 0 1 6.967810 4.695030 615.140320
197 0 1 6.881260 4.818660 616.107483
198 0 1 6.781720 5.043910 617.061523
199 0 1 6.697640 5.601190 617.878906
200 0 1 6.650530 6.250550 618.610107
201 0 1 7.002954 6.977500 619.129944
202 0 1 7.164233 7.701255 619.755127
203 0 1 7.273785 8.383587 620.405579
204 0 1 7.511967 8.961719 621.150818
205 0 1 7.729563 9.530870 621.886169
206 0 1 7.399118 10.043660 622.637878
207 0 1 7.349491 10.493890 623.468140
208 0 1 7.086102 10.934470 624.223755
209 0 1 6.784120 11.573480 624.869934
210 0 1 6.126470 11.829950 625.554016
211 0 1 5.320440 11.968950 626.017578
212 0 1 4.792830 11.991400 626.795837
213 0 1 4.209890 11.764111 627.578979
214 0 1 3.741680 11.344810 628.310791
215 0 1 3.124340 10.997400 628.952026
216 0 1 2.783040 10.640380 629.750183
217 0 1 2.512470 10.205270 630.583069
218 0 1 2.576760 9.736430 631.452209
219 0 1 2.713340 9.134109 632.192871
220 0 1 2.936230 8.671612 633.042175
221 0 1 2.915320 8.393152 633.950745
222 0 1 3.037430 7.985509 634.760132
223 0 1 3.424350 7.859062 635.641357
224 0 1 3.654350 8.052808 636.548218
225 0 1 3.900720 8.394202 637.456421
226 0 1 3.910900 8.764296 638.382996
227 0 1 4.080890 9.245240 639.108398
228 0 1 4.159260 9.757810 639.942200
229 0 1 4.453350 10.051510 640.841614
230 0 1 4.706400 10.298470 641.732117
231 0 1 5.143240 10.264240 642.605774
232 0 1 5.667340 10.033490 643.342590
233 0 1 6.225170 9.683370 644.091003
234 0 1 6.771100 9.184840 644.752014
235 0 1 7.046873 8.603965 645.437195
236 0 1 7.178414 8.203634 646.365479
237 0 1 7.174022 7.684538 647.179321
238 0 1 6.777630 7.317137 647.926880
239 0 1 6.081330 6.967440 648.627502
240 0 1 5.468440 6.443030 649.181885
241 0 1 5.089500 6.052450 650.061096
242 0 1 4.869600 5.896270 650.949280
243 0 1 4.969430 5.988900 651.913879
244 0 1 5.166080 5.998620 652.851074
245 0 1 5.314550 5.898770 653.826477
246 0 1 5.284070 5.589300 654.786987
247 0 1 5.234700 5.430110 655.738281
248 0 1 5.121060 5.284560 656.673218
249 0 1 4.879890 5.493100 657.581726
250 0 1 4.508630 5.782970 658.454529
251 0 1 4.377680 5.923230 659.336304
252 0 1 4.326760 5.889660 660.359497
253 0 1 4.235140 5.635740 661.305603
254 0 1 4.273000 5.453770 662.229309
255 0 1 4.396040 5.396510 663.180176
256 0 1 5.039940 5.398160 663.931885
257 0 1 5.909960 5.410200 664.412415
258 0 1 6.579400 5.751080 665.009399
259 0 1 7.178834 6.010350 665.671082
260 0 1 7.630808 6.499490 666.349915
261 0 1 8.009431 6.830640 667.168213
262 0 1 8.126870 7.412075 667.913818
263 0 1 8.092635 7.864400 668.772095
264 0 1 8.148112 8.222725 669.618286
265 0 1 8.240626 8.490672 670.544189
266 0 1 8.079322 8.839509 671.428223
267 0 1 8.010468 9.272480 672.245728
268 0 1 8.053527 9.632700 673.117493
269 0 1 7.996624 10.201870 673.993896
270 0 1 8.249313 10.331290 674.918091
271 0 1 8.345572 10.451500 675.880371
272 0 1 8.480823 10.560290 676.788818
273 0 1 8.914401 10.557660 677.590393
274 0 1 9.320710 10.369910 678.435791
275 0 1 9.826270 10.156790 679.132812
276 0 1 10.279280 9.970330 679.960510
277 0 1 10.779430 9.943520 680.771973
278 0 1 11.124360 9.824650 681.679626
279 0 1 11.267920 9.684230 682.614502
280 0 1 11.542380 9.869540 683.482117
281 0 1 12.035820 9.905120 684.336670
282 0 1 12.475590 9.439300 685.005615
283 0 1 12.836081 8.941275 685.754089
284 0 1 13.175930 8.514530 686.572815
285 0 1 13.424630 8.039809 687.385803
286 0 1 13.739830 7.673390 688.181396
287 0 1 13.866830 7.283129 689.076416
288 0 1 13.721680 7.011420 689.977295
289 0 1 13.352240 6.745810 690.861511
290 0 1 13.070410 6.397330 691.728088
291 0 1 12.820869 5.953300 692.603271
292 0 1 12.960930 5.521550 693.444824
293 0 1 12.958350 5.562630 694.430176
294 0 1 13.019011 5.387080 695.363098
295 0 1 12.754419 5.258060 696.312195
296 0 1 12.263630 5.396450 697.111572
297 0 1 11.521610 5.371900 697.741089
298 0 1 10.801661 5.363950 698.325378
299 0 1 9.999820 5.282220 698.878113
300 0 1 9.118600 5.363360 699.360718
301 0 1 8.293132 5.670610 699.853821
302 0 1 7.615284 6.019080 700.490295
303 0 1 6.884720 6.466220 700.879028
304 0 1 6.287960 6.754520 701.562500
305 0 1 5.724760 7.177671 702.228027
306 0 1 5.426340 7.803349 702.923096
307 0 1 5.388730 8.421429 703.649414
308 0 1 5.347800 9.015900 704.390015
309 0 1 5.501500 9.526950 705.174805
310 0 1 5.534920 10.259230 705.758911
311 0 1 5.287460 11.013790 706.332031
312 0 1 5.156120 11.724421 707.019897
313 0 1 5.173700 12.223850 707.907227
314 0 1 5.418290 12.574329 708.843384
315 0 1 5.520710 12.806480 709.774719
316 0 1 5.781640 13.010651 710.688599
317 0 1 5.823360 12.914030 711.667114
318 0 1 5.793940 12.945140 712.583984
319 0 1 5.615730 12.689740 713.539490
320 0 1 5.321470 12.532761 714.402222
321 0 1 5.386260 12.352409 715.386108
322 0 1 5.376320 12.453890 716.349121
323 0 1 5.611270 12.582420 717.286621
324 0 1 5.834830 12.529620 718.221008
325 0 1 6.226350 12.711730 719.055481
326 0 1 6.738040 12.862500 719.868713
327 0 1 7.338503 12.957470 720.642883
328 0 1 8.086839 13.047239 721.248108
329 0 1 9.046620 12.982840 721.598999
330 0 1 9.777719 13.118771 722.158691
331 0 1 10.446350 13.336190 722.847900
332 0 1 11.015600 13.346210 723.620728
333 0 1 11.374070 13.008160 724.490479
334 0 1 11.650990 12.582310 725.341797
335 0 1 11.727060 12.300489 726.244507
336 0 1 11.769370 12.316210 727.177917
337 0 1 11.577140 12.060310 728.085693
338 0 1 11.251600 11.803500 728.927979
339 0 1 10.680970 11.673200 729.606018
340 0 1 10.009190 11.490960 730.318970
341 0 1 9.496970 11.238640 731.140991
342 0 1 9.043950 11.109480 732.041992
343 0 1 8.551428 11.038880 732.960999
344 0 1 8.304640 10.891090 733.926025
345 0 1 7.986648 10.529551 734.742981
346 0 1 7.504607 10.335890 735.591980
347 0 1 7.120845 10.159360 736.502014
348 0 1 6.797200 10.168200 737.401978
349 0 1 6.556450 10.357360 738.255981
350 0 1 6.451010 10.473880 739.231018
351 0 1 6.176360 10.770630 740.140015
352 0 1 6.162170 11.295740 740.943970
353 0 1 6.179070 11.955610 741.658020
354 0 1 5.970490 12.168770 742.609009
355 0 1 5.763460 12.287580 743.515015
356 0 1 5.353570 12.251240 744.431030
357 0 1 5.069980 12.126500 745.393005
358 0 1 5.099510 12.276030 746.339966
359 0 1 5.060950 12.137990 747.317017
360 0 1 4.891370 11.903510 748.221985
361 0 1 4.774880 11.471630 749.041016
362 0 1 4.548400 11.034320 749.869019
363 0 1 4.197770 10.712530 750.658020
364 0 1 3.830050 10.458839 751.489014
365 0 1 3.431940 10.432210 752.388000
366 0 1 2.872780 10.517360 753.213013
367 0 1 2.608840 10.673410 754.200012
368 0 1 2.444300 10.799710 755.166016
369 0 1 2.209920 10.867180 756.057983
370 0 1 1.937410 10.881890 756.984985
371 0 1 2.034610 11.018740 757.948975
372 0 1 2.370070 11.413040 758.799011
373 0 1 2.820670 11.769690 759.632996
374 0 1 3.162910 11.889720 760.499023
375 0 1 3.237150 12.092569 761.414001
376 0 1 3.261530 12.131500 762.382019
377 0 1 3.286320 12.125990 763.338013
378 0 1 3.378250 11.700560 764.162964
379 0 1 3.653690 11.546980 765.127014
380 0 1 3.653710 11.430570 766.015015
381 0 1 3.805240 11.433520 766.963013
382 0 1 4.043950 11.544930 767.869995
383 0 1 3.869570 11.311390 768.770996
384 0 1 3.563910 10.956730 769.603027
385 0 1 3.548420 10.801889 770.615967
386 0 1 3.360420 10.835440 771.580017
387 0 1 3.172300 10.822701 772.479980
388 0 1 2.976480 10.686710 773.481018
389 0 1 2.954340 10.670230 774.458008
390 0 1 3.063680 10.805930 775.466980
391 0 1 3.483380 11.116350 776.260010
392 0 1 3.839420 11.359980 777.125977
393 0 1 4.520760 11.325490 777.885986
394 0 1 5.208590 11.375680 778.489014
395 0 1 5.874420 11.046940 779.093994
396 0 1 6.647150 10.635320 779.546021
397 0 1 7.320556 10.133560 779.974976
398 0 1 8.114457 9.818501 780.432007
399 0 1 8.922623 9.644480 780.921997
400 0 1 9.598380 9.361800 781.559021
401 0 1 10.190290 9.038240 782.233032
402 0 1 10.905740 8.776883 782.947021
403 0 1 11.605750 8.600525 783.578003
404 0 1 11.961090 8.356426 784.502991
405 0 1 11.993980 8.219676 785.421997
406 0 1 12.154980 7.964982 786.306030
407 0 1 12.566910 7.544416 787.085999
408 0 1 12.426060 7.288014 788.020020
409 0 1 12.310350 7.167571 789.007019
410 0 1 12.374821 6.871760 789.903992
411 0 1 12.433701 6.838080 790.893005
412 0 1 12.205760 6.348350 791.745972
413 0 1 12.131390 5.750110 792.429993
414 0 1 12.055260 5.330790 793.273987
415 0 1 11.915660 5.102040 794.240967
416 0 1 11.564050 5.016160 795.112000
417 0 1 11.184970 4.921410 796.026978
418 0 1 10.957500 4.804870 796.990967
419 0 1 10.805210 4.462940 797.903992
420 0 1 10.747440 4.393940 798.931030
421 0 1 10.778540 4.288280 799.860962
422 0 1 10.846490 4.330520 800.872009
423 0 1 10.734850 4.210200 801.862000
424 0 1 10.812080 4.311600 802.794983
425 0 1 11.018909 4.617910 803.724976
426 0 1 11.272940 5.146490 804.478027
427 0 1 11.418159 5.565340 805.348999
428 0 1 11.570220 6.134310 806.169983
429 0 1 11.499229 6.382760 807.114990
430 0 1 11.709810 6.304990 808.099976
431 0 1 11.994960 6.344020 808.973999
432 0 1 12.263470 6.201700 809.875000
433 0 1 12.654090 6.292730 810.737000
434 0 1 13.156860 6.419730 811.479980
435 0 1 13.343220 6.641680 812.346985
436 0 1 13.491529 6.726160 813.302979
437 0 1 13.601080 6.901550 814.278015
438 0 1 13.653400 6.768480 815.323975
439 0 1 13.485730 6.743970 816.302979
440 0 1 13.248430 6.804480 817.250000
441 0 1 13.152540 6.766890 818.207031
442 0 1 13.351910 6.675810 819.155029
443 0 1 13.195070 6.342830 820.059021
444 0 1 13.000240 5.923520 820.921021
445 0 1 12.840429 5.552890 821.781982
446 0 1 12.451700 5.315530 822.609985
447 0 1 11.980710 5.422420 823.386963
448 0 1 11.548890 5.532370 824.255981
449 0 1 10.937700 5.787090 824.945007
450 0 1 10.630569 6.118770 825.853027
451 0 1 10.543640 6.300390 826.812012
452 0 1 10.521560 6.578060 827.749023
453 0 1 10.312520 6.808450 828.630981
454 0 1 9.966530 7.161301 829.507019
455 0 1 9.820410 7.224988 830.471008
456 0 1 9.722940 7.647381 831.351013
457 0 1 9.603080 8.267400 832.059021
458 0 1 9.589560 8.796973 832.885010
459 0 1 9.456500 9.163920 833.773010
460 0 1 9.593610 9.129910 834.781006
461 0 1 9.355860 8.944667 835.735962
462 0 1 9.059060 8.692478 836.640991
463 0 1 8.912839 8.142909 837.391968
464 0 1 8.841809 7.312571 838.061035
465 0 1 8.709603 6.451390 838.421997
466 0 1 8.609598 5.477380 838.479980
467 0 1 8.495712 4.524900 838.289978
468 0 1 7.999860 3.895070 837.718018
469 0 1 7.769556 3.351480 836.940979
470 0 1 7.506535 2.840980 836.156982
471 0 1 7.561203 2.274520 835.343018
472 0 1 7.314339 1.938050 834.455994
473 0 1 7.549239 1.774180 833.526978
474 0 1 7.866620 1.771490 832.622009
475 0 1 8.133806 1.771650 831.731018
476 0 1 8.343611 1.613090 830.832031
477 0 1 8.544168 1.544090 829.794006
478 0 1 8.138003 1.448060 828.911011
479 0 1 7.817796 1.410770 827.937012
480 0 1 7.615137 1.554970 827.056030
481 0 1 7.281453 1.822130 826.216980
482 0 1 7.135996 2.021350 825.304016
483 0 1 6.950350 2.291020 824.358032
484 0 1 6.711530 2.809310 823.552979
485 0 1 6.396280 3.203410 822.669006
486 0 1 6.170500 3.682120 821.781006
487 0 1 6.014780 4.163680 821.010010
488 0 1 5.860210 4.642560 820.229004
489 0 1 5.676650 4.962710 819.354980
490 0 1 5.461590 5.332110 818.487000
491 0 1 5.101450 5.618850 817.645020
492 0 1 4.693960 5.712710 816.744995
493 0 1 4.280250 5.780350 815.870972
494 0 1 3.712140 5.835260 815.110962
495 0 1 3.487560 5.760420 814.093018
496 0 1 3.501890 5.952550 813.108032
497 0 1 3.653630 6.442880 812.335022
498 0 1 3.806000 6.912100 811.514038
499 0 1 3.701820 7.357688 810.708984
500 0 1 3.478540 7.814721 809.950012
501 0 1 3.382970 8.315133 809.083008
502 0 1 3.409820 8.984938 808.431030
503 0 1 3.224460 9.651200 807.734009
504 0 1 3.213830 10.288361 807.072998
505 0 1 3.130090 10.880890 806.252014
506 0 1 2.973640 11.208580 805.393982
507 0 1 3.106310 11.071180 804.490967
508 0 1 3.329010 11.000590 803.565979
509 0 1 3.694810 10.942790 802.544006
510 0 1 4.144830 11.084750 801.716003
511 0 1 4.339160 11.380610 800.856018
512 0 1 4.084500 11.679140 799.971008
513 0 1 3.554640 11.819980 799.200989
514 0 1 3.061690 11.900500 798.333008
515 0 1 2.713490 11.899090 797.429016
516 0 1 2.715020 11.998790 796.460999
517 0 1 2.782100 11.725790 795.489990
518 0 1 2.874580 11.209780 794.653015
519 0 1 2.952460 10.598450 793.854004
520 0 1 2.856940 9.857130 793.275024
521 0 1 2.757350 9.317920 792.434021
522 0 1 2.757010 8.847828 791.610962
523 0 1 2.956410 8.249769 790.885010
524 0 1 3.460270 7.581315 790.351013
525 0 1 3.851400 7.100211 789.536987
526 0 1 4.136270 6.809520 788.671021
527 0 1 4.545330 6.493890 787.879028
528 0 1 4.952730 6.061860 787.140991
529 0 1 5.315450 5.728260 786.306030
530 0 1 5.683590 5.457980 785.462036
531 0 1 6.184890 5.162290 784.682983
532 0 1 6.398170 5.118470 783.759033
533 0 1 6.722630 5.194230 782.839966
534 0 1 6.820660 5.272410 781.844971
535 0 1 7.273002 5.247510 780.984009
536 0 1 7.468564 4.862690 780.070984
537 0 1 7.564517 4.839640 779.057983
538 0 1 7.617429 5.116590 778.115967
539 0 1 7.858181 5.197750 777.203003
540 0 1 8.224523 5.314180 776.318970
541 0 1 8.490705 5.074520 775.391968
542 0 1 8.800058 4.867660 774.502014
543 0 1 9.021300 4.532950 773.622009
544 0 1 9.185061 4.193350 772.723022
545 0 1 9.205600 3.934520 771.792969
546 0 1 9.470490 3.814970 770.820984
547 0 1 9.518530 3.810490 769.817993
548 0 1 9.407780 3.987710 768.825012
549 0 1 9.531300 3.927880 767.817993
550 0 1 9.542010 3.888420 766.822998
551 0 1 9.897660 3.984200 765.926025
552 0 1 10.470490 4.000160 765.166016
553 0 1 10.684959 4.427370 764.271973
554 0 1 10.851789 4.682690 763.286987
555 0 1 10.696780 4.955720 762.343994
556 0 1 10.808300 5.458450 761.488037
557 0 1 10.944520 6.161510 760.820007
558 0 1 10.880290 6.620390 760.025024
559 0 1 10.732640 6.871510 759.132019
560 0 1 10.598910 7.126864 758.242981
561 0 1 10.404490 7.007837 757.289001
562 0 1 10.359050 6.869880 756.343018
563 0 1 10.630610 6.736980 755.429016
564 0 1 11.003880 6.737960 754.473022
565 0 1 11.071630 6.885050 753.562988
566 0 1 11.173540 6.956920 752.539001
567 0 1 10.946990 6.650220 751.638000
568 0 1 10.710100 6.073890 750.856995
569 0 1 10.370770 5.632200 750.114990
570 0 1 10.301610 5.348840 749.122986
571 0 1 10.042250 5.145310 748.216003
572 0 1 9.696390 5.037730 747.351013
573 0 1 9.119580 5.035550 746.531006
574 0 1 8.365363 5.154930 745.872009
575 0 1 7.761256 5.129800 745.171997
576 0 1 7.113470 5.096930 744.466003
577 0 1 6.499950 4.949960 743.739014
578 0 1 5.785340 4.567740 743.208008
579 0 1 5.163200 4.031550 742.702026
580 0 1 4.860330 3.567410 741.895996
581 0 1 4.823710 3.068540 741.083008
582 0 1 4.838340 2.879160 740.132019
583 0 1 4.951720 2.693820 739.141968
584 0 1 5.133650 2.667020 738.205017
585 0 1 5.404920 2.758220 737.336975
586 0 1 5.519840 2.416640 736.471008
587 0 1 5.508790 2.141010 735.570984
588 0 1 5.543340 1.962600 734.640991
589 0 1 5.995150 1.804080 733.781982
590 0 1 6.522090 1.522430 733.036011
591 0 1 7.067397 1.272020 732.314026
592 0 1 7.571200 1.431580 731.489990
593 0 1 7.985060 1.416390 730.640015
594 0 1 8.219443 1.658300 729.770996
595 0 1 8.323314 1.911680 728.877014
596 0 1 8.239206 2.053000 727.962708
597 0 1 8.236912 2.197500 727.037415
598 0 1 8.104467 2.137240 726.066528
599 0 1 8.063802 2.039470 725.104797
600 0 1 8.100545 1.821670 724.171509
601 0 1 8.089784 2.044910 723.200195
602 0 1 7.982102 2.324240 722.250977
603 0 1 8.083348 2.543830 721.240295
604 0 1 8.272534 2.773870 720.357117
605 0 1 8.942084 2.854760 719.604492
606 0 1 9.200540 2.968860 718.653076
607 0 1 9.352850 3.284040 717.695618
608 0 1 9.530700 3.571010 716.809692
609 0 1 9.335780 3.435940 715.858887
610 0 1 8.931416 3.224770 715.069214
611 0 1 8.540489 3.329580 714.199524
612 0 1 8.224762 3.344770 713.270630
613 0 1 7.972044 3.810590 712.427917
614 0 1 7.727787 4.134230 711.548401
615 0 1 7.492655 4.497020 710.661194
616 0 1 7.771414 4.817670 709.780090
617 0 1 8.081608 5.205620 708.906677
618 0 1 8.330698 5.548180 708.045898
619 0 1 8.692855 5.663490 707.192688
620 0 1 8.907299 5.703150 706.261414
621 0 1 9.066090 6.080950 705.389771
622 0 1 8.871337 6.311430 704.446106
623 0 1 8.880677 6.722780 703.529602
624 0 1 8.952979 6.872180 702.599182
625 0 1 9.267680 6.910450 701.680420
626 0 1 9.339770 7.338081 700.748718
627 0 1 9.466340 7.820752 699.911926
628 0 1 9.567820 8.226592 699.045288
629 0 1 9.823080 8.449393 698.088013
630 0 1 10.028300 8.734135 697.227722
631 0 1 10.183690 8.968696 696.316284
632 0 1 10.514500 9.144920 695.435425
633 0 1 10.517070 9.241620 694.489685
634 0 1 10.516420 9.388940 693.538025
635 0 1 10.599840 9.648980 692.625610
636 0 1 10.586600 10.067080 691.710388
637 0 1 10.497850 10.616600 690.828125
638 0 1 10.232990 11.216830 690.175110
639 0 1 9.661730 11.619840 689.437012
640 0 1 9.117830 12.017941 688.826294
641 0 1 8.644161 12.797310 688.440125
642 0 1 8.489325 13.527070 687.725830
643 0 1 8.477663 14.185659 687.021729
644 0 1 8.296347 14.730740 686.249695
645 0 1 7.967321 14.826420 685.325806
646 0 1 7.379033 14.858280 684.546997
647 0 1 6.925560 14.600410 683.726685
648 0 1 6.617030 14.271210 682.830688
649 0 1 6.203030 13.845170 681.973511
650 0 1 5.661480 13.499660 681.216675
651 0 1 5.277540 13.100210 680.424805
652 0 1 5.094310 12.739330 679.528198
653 0 1 4.780340 12.412140 678.636108
654 0 1 4.460160 12.028960 677.855103
655 0 1 4.165010 11.596889 677.094116
656 0 1 3.917520 11.036230 676.362671
657 0 1 3.738050 10.399340 675.653076
658 0 1 3.872180 9.629480 675.080872
659 0 1 4.087490 8.843473 674.551025
660 0 1 4.125170 7.980162 674.133179
661 0 1 3.998240 7.052691 673.673706
662 0 1 3.796520 6.231780 673.245728
663 0 1 3.378290 5.476080 672.822998
664 0 1 2.780370 4.990240 672.298828
665 0 1 2.467870 4.612410 671.489990
666 0 1 2.489650 4.236950 670.574829
667 0 1 2.447560 3.889170 669.688232
668 0 1 2.525970 4.029180 668.701599
669 0 1 2.827760 4.235740 667.775085
670 0 1 3.309620 4.576840 667.031311
671 0 1 4.009460 5.052180 666.444519
672 0 1 4.463350 5.534020 665.739075
673 0 1 4.853000 6.100640 665.069580
674 0 1 5.058860 6.549290 664.233521
675 0 1 5.296560 6.875210 663.352783
676 0 1 5.430600 7.296820 662.459229
677 0 1 5.399130 7.764740 661.671021
678 0 1 5.420080 8.060968 660.750610
679 0 1 5.335270 8.150457 659.789795
680 0 1 5.201680 8.172132 658.856323
681 0 1 5.014100 8.137002 657.850098
682 0 1 4.863810 8.087756 656.892578
683 0 1 4.837070 8.173433 655.911194
684 0 1 4.804210 8.572978 654.982971
685 0 1 4.777490 8.991541 654.146606
686 0 1 4.635090 9.458241 653.323730
687 0 1 4.563730 10.105400 652.509399
688 0 1 4.572360 10.707550 651.785095
689 0 1 4.352000 11.173740 650.969910
690 0 1 4.521250 11.711781 650.193481
691 0 1 4.873350 12.238220 649.455872
692 0 1 5.244800 12.577260 648.636475
693 0 1 5.629040 12.964520 647.807007
694 0 1 5.981560 13.206591 646.930115
695 0 1 6.495880 13.237450 646.081116
696 0 1 6.973460 13.588540 645.324707
697 0 1 7.314126 13.381430 644.405212
698 0 1 7.675775 13.216110 643.507690
699 0 1 7.918150 12.930000 642.629700
700 0 1 8.251620 12.608250 641.793518
701 0 1 8.615179 12.014441 641.113892
702 0 1 9.052370 11.281930 640.584412
703 0 1 9.217210 10.530100 640.006409
704 0 1 9.182740 9.888160 639.294983
705 0 1 8.911733 9.388900 638.559021
706 0 1 8.315958 9.053750 637.855103
707 0 1 7.843755 8.918152 637.081055
708 0 1 7.283301 8.859867 636.322876
709 0 1 6.923280 8.984083 635.403503
710 0 1 6.621760 9.262170 634.572144
711 0 1 6.066600 9.439500 633.794678
712 0 1 5.748020 9.645830 632.843384
713 0 1 5.362530 9.765210 631.928345
714 0 1 5.048680 9.709590 630.996094
715 0 1 4.538120 9.601560 630.124817
716 0 1 4.090890 9.539640 629.242126
717 0 1 3.917060 9.586720 628.266663
718 0 1 4.110160 9.653550 627.283264
719 0 1 3.973270 9.738530 626.310242
720 0 1 3.568600 9.917740 625.455444
721 0 1 3.352440 10.200010 624.561157
722 0 1 3.028010 10.363310 623.629700
723 0 1 2.682890 10.412870 622.707703
724 0 1 2.584320 10.514339 621.773499
725 0 1 2.625870 10.497920 620.813721
726 0 1 2.715600 10.493230 619.793701
727 0 1 2.897820 10.493060 618.876038
728 0 1 3.149910 10.810550 618.055786
729 0 1 3.372360 11.064060 617.145325
730 0 1 3.600610 11.422000 616.216309
731 0 1 3.896250 11.596680 615.279785
732 0 1 4.183950 11.746580 614.355103
733 0 1 4.343100 11.853340 613.371216
734 0 1 4.653960 11.990459 612.460571
735 0 1 4.909900 11.890400 611.562622
736 0 1 5.165640 11.892480 610.631287
737 0 1 5.139510 11.927800 609.684998
738 0 1 4.830210 11.833480 608.798523
739 0 1 4.891280 11.331730 607.887695
740 0 1 4.898480 11.123250 606.912109
741 0 1 4.693250 10.889100 606.065796
742 0 1 4.155350 10.684650 605.289490
743 0 1 3.738810 10.465400 604.439209
744 0 1 3.252200 10.073640 603.710022
745 0 1 2.951340 9.318740 603.093201
746 0 1 2.677490 8.503416 602.578613
747 0 1 2.683910 7.657923 602.134888
748 0 1 2.663150 6.868520 601.639893
749 0 1 3.053850 6.246600 601.107910
750 0 1 3.583290 5.623750 600.644592
751 0 1 3.960120 4.886760 600.072571
752 0 1 4.263410 4.043440 599.531311
753 0 1 4.621290 3.416060 598.947083
754 0 1 5.256540 3.257850 598.274475
755 0 1 5.716000 3.221060 597.405212
756 0 1 6.165480 3.579590 596.617615
757 0 1 6.660020 3.902690 595.881714
758 0 1 7.079178 4.094600 595.013489
759 0 1 7.664923 4.259300 594.188293
760 0 1 8.120059 4.645140 593.452026
761 0 1 8.474615 4.791980 592.538879
762 0 1 8.626849 4.605200 591.590027
763 0 1 8.447245 4.623180 590.682800
764 0 1 8.078043 4.617110 589.730774
765 0 1 7.587610 4.667220 588.870300
766 0 1 7.098058 4.572200 588.041077
767 0 1 6.912320 4.048380 587.296997
768 0 1 6.594480 3.643430 586.442322
769 0 1 6.460320 2.948790 585.759094
770 0 1 6.534450 2.528860 584.834412
771 0 1 6.730650 2.131430 583.974976
772 0 1 6.762110 2.184840 583.043518
773 0 1 6.660420 2.611830 582.204224
774 0 1 6.769850 2.886390 581.276184
775 0 1 6.544550 3.087690 580.310181
776 0 1 6.255790 3.379960 579.409424
777 0 1 6.412440 3.718050 578.493530
778 0 1 6.406940 3.896310 577.535095
779 0 1 6.716000 4.383080 576.739868
780 0 1 6.704300 4.856580 575.930115
781 0 1 6.504970 5.476590 575.220398
782 0 1 6.324120 6.010650 574.422791
783 0 1 6.138930 6.672350 573.709900
784 0 1 6.015200 7.261885 572.924194
785 0 1 5.946300 7.580608 572.017273
786 0 1 6.031400 7.606400 571.111389
787 0 1 5.887580 7.593493 570.073425
788 0 1 5.861640 7.329386 569.151611
789 0 1 5.671660 7.134033 568.204712
790 0 1 5.598180 6.691810 567.326416
791 0 1 5.738160 6.564120 566.374390