LAMMPS data file via MDAnalysis

        1000  atoms
        1000  bonds
        1000  angles
           0  dihedrals
           0  impropers

           1  atom types
           1  bond types
           1  angle types
           0  dihedral types
           0  improper types

0.000000 16.000000 xlo xhi
0.000000 16.000000 ylo yhi
0.000000 1257.000000 zlo zhi


Masses

1 1.000000

Atoms

1 0 1 6.026040 10.758950 444.485992
2 0 1 6.380980 10.024690 444.989990
3 0 1 6.859640 9.474890 445.570007
4 0 1 7.280112 9.209020 446.404999
5 0 1 7.404330 8.925024 447.307007
6 0 1 7.658141 8.793321 448.261993
7 0 1 7.838747 8.681390 449.221985
8 0 1 7.732175 8.791506 450.171021
9 0 1 7.549812 9.073270 451.052002
10 0 1 7.707339 9.223850 452.031006
11 0 1 7.974204 9.575030 452.871002
12 0 1 8.221622 9.491840 453.830017
13 0 1 8.208731 9.433840 454.804993
14 0 1 8.141604 9.278130 455.785004
15 0 1 8.162218 8.998820 456.708984
16 0 1 8.009389 8.574292 457.544006
17 0 1 7.781222 8.141980 458.359985
18 0 1 7.832279 7.887007 459.302002
19 0 1 8.095748 7.436992 460.160004
20 0 1 8.486715 7.226093 461.048004
21 0 1 8.742719 6.709590 461.846008
22 0 1 9.385880 6.449010 462.588989
23 0 1 9.960130 6.164100 463.384003
24 0 1 10.709850 5.944680 464.023010
25 0 1 11.246980 5.748730 464.825989
26 0 1 11.748890 5.777450 465.648987
27 0 1 11.912189 5.599330 466.602997
28 0 1 12.153740 5.732800 467.470001
29 0 1 12.376240 5.495660 468.388000
30 0 1 12.282690 5.235120 469.320984
31 0 1 12.281509 4.874100 470.289978
32 0 1 12.383580 4.815360 471.231995
33 0 1 12.489870 4.654340 472.158020
34 0 1 12.415871 4.453160 473.114990
35 0 1 12.267179 3.870980 473.888000
36 0 1 11.962700 3.386370 474.639008
37 0 1 11.462500 2.768420 475.276001
38 0 1 11.053950 2.472540 476.057007
39 0 1 10.767890 2.186640 476.937988
40 0 1 10.384970 1.830160 477.757019
41 0 1 10.072160 1.746220 478.684021
42 0 1 9.840900 1.716190 479.593994
43 0 1 9.343600 1.797720 480.391998
44 0 1 9.074520 2.154700 481.184998
45 0 1 8.674950 2.342930 482.028015
46 0 1 8.326032 2.297580 482.973022
47 0 1 7.995404 2.454350 483.856995
48 0 1 7.857285 2.628840 484.750000
49 0 1 7.638617 2.859150 485.677002
50 0 1 7.301795 3.118570 486.489014
51 0 1 7.303940 3.446380 487.399994
52 0 1 7.052846 3.594730 488.307007
53 0 1 6.935500 3.456170 489.244019
54 0 1 6.811100 3.728260 490.160004
55 0 1 6.736820 3.786050 491.175995
56 0 1 6.846490 3.782340 492.141998
57 0 1 6.989620 4.062060 493.044006
58 0 1 7.292645 4.108980 493.924988
59 0 1 7.687699 4.162800 494.798004
60 0 1 8.426383 4.472200 495.436005
61 0 1 9.212870 4.742770 495.838013
62 0 1 10.104020 4.944190 496.125000
63 0 1 10.833750 5.220900 496.674011
64 0 1 11.634010 5.662900 496.852997
65 0 1 12.396730 6.095120 497.377014
66 0 1 12.818280 6.761040 497.898987
67 0 1 13.343660 7.271413 498.535004
68 0 1 13.683510 7.750709 499.315979
69 0 1 13.918530 8.330716 500.063995
70 0 1 14.338230 8.322048 500.962006
71 0 1 14.469601 8.263854 501.949005
72 0 1 14.203330 8.296912 502.864990
73 0 1 14.061200 8.104150 503.786987
74 0 1 14.011620 7.967192 504.717010
75 0 1 14.108070 8.072504 505.654999
76 0 1 14.085970 7.791073 506.589996
77 0 1 13.917070 7.457352 507.481018
78 0 1 13.798440 7.288168 508.395996
79 0 1 13.562150 7.133077 509.377014
80 0 1 13.258350 6.866420 510.237000
81 0 1 13.027690 6.530950 511.053009
82 0 1 12.559010 6.570780 511.886993
83 0 1 12.094590 6.700640 512.755981
84 0 1 11.628440 6.956730 513.562012
85 0 1 11.191600 7.339944 514.315002
86 0 1 10.687099 7.585230 515.172974
87 0 1 10.468430 8.097551 515.885986
88 0 1 10.283680 8.825917 516.554016
89 0 1 10.106720 9.333040 517.478027
90 0 1 9.852970 9.667780 518.309021
91 0 1 9.760710 10.081079 519.193970
92 0 1 9.430710 10.236790 520.075012
93 0 1 9.254360 10.312260 520.990967
94 0 1 8.988366 10.146580 521.896973
95 0 1 8.699477 9.930290 522.809021
96 0 1 8.388835 9.896060 523.729004
97 0 1 8.181076 9.904590 524.679993
98 0 1 7.938206 10.074460 525.612976
99 0 1 7.733132 10.220330 526.539978
100 0 1 7.624811 10.170700 527.479004
101 0 1 7.674695 10.055531 528.432007
102 0 1 7.696283 9.942360 529.418884
103 0 1 7.770895 9.984250 530.376587
104 0 1 7.872949 9.743800 531.317627
105 0 1 7.882726 9.725560 532.262512
106 0 1 7.950934 10.110650 533.117920
107 0 1 7.664298 10.541161 533.989380
108 0 1 7.298056 10.649940 534.928284
109 0 1 7.148477 10.800961 535.867188
110 0 1 7.230029 10.914200 536.830811
111 0 1 6.905230 10.639880 537.747925
112 0 1 6.347050 10.704380 538.564087
113 0 1 5.950240 10.808440 539.411987
114 0 1 5.404890 10.913330 540.290527
115 0 1 5.006470 10.769110 541.212402
116 0 1 4.867410 10.648300 542.168091
117 0 1 4.522600 10.432529 543.081604
118 0 1 4.236980 10.217440 543.968689
119 0 1 3.728570 10.107070 544.916382
120 0 1 3.515030 9.808690 545.818726
121 0 1 3.173770 9.473750 546.681274
122 0 1 3.083850 9.233440 547.613586
123 0 1 3.067960 9.397920 548.599304
124 0 1 3.128550 9.485940 549.602722
125 0 1 3.240710 9.658400 550.508911
126 0 1 3.548970 9.892320 551.473999
127 0 1 3.960900 10.082340 552.369202
128 0 1 4.394270 10.366110 553.124878
129 0 1 4.577740 10.766870 553.960388
130 0 1 4.531820 11.190850 554.821167
131 0 1 4.348580 11.710110 555.701416
132 0 1 4.561460 12.122971 556.525085
133 0 1 4.916570 12.567699 557.283875
134 0 1 5.293010 13.187450 557.867615
135 0 1 5.561750 13.639589 558.722168
136 0 1 5.663350 13.982170 559.653992
137 0 1 5.729710 14.097401 560.542969
138 0 1 5.901710 14.145710 561.486023
139 0 1 5.991970 13.630421 562.331116
140 0 1 6.146510 12.991610 563.067810
141 0 1 6.325120 12.620020 563.945312
142 0 1 6.451760 12.029160 564.672424
143 0 1 6.801530 11.463181 565.325928
144 0 1 7.173798 10.858160 565.875000
145 0 1 7.858984 10.542610 566.410217
146 0 1 8.462140 10.793270 567.126282
147 0 1 9.041821 10.928320 567.918274
148 0 1 9.488460 10.982950 568.810669
149 0 1 9.872700 10.842000 569.681824
150 0 1 10.039440 10.567120 570.593872
151 0 1 10.006520 10.208200 571.543579
152 0 1 10.140310 9.596220 572.309998
153 0 1 10.322630 9.043840 573.086121
154 0 1 10.832100 8.622381 573.793579
155 0 1 11.223440 8.465757 574.743591
156 0 1 11.672750 8.040890 575.511597
157 0 1 11.994230 7.776015 576.366089
158 0 1 12.319330 7.946806 577.273804
159 0 1 12.773380 7.975700 578.154297
160 0 1 13.131650 8.112756 579.027222
161 0 1 13.023130 8.197687 580.030212
162 0 1 13.047450 8.377916 580.911682
163 0 1 12.900890 8.724893 581.837219
164 0 1 12.869780 9.240990 582.655396
165 0 1 12.611080 9.756930 583.399414
166 0 1 12.121420 10.071760 584.149170
167 0 1 11.938770 10.136840 585.064819
168 0 1 11.566360 10.239720 585.959229
169 0 1 11.146220 10.241390 586.867188
170 0 1 10.739450 9.876920 587.645508
171 0 1 10.302290 9.461620 588.426208
172 0 1 9.908620 9.137150 589.231018
173 0 1 9.669220 8.877060 590.167969
174 0 1 9.436870 8.535282 591.002808
175 0 1 9.249740 8.411941 591.894226
176 0 1 9.049450 8.216201 592.841431
177 0 1 9.103400 8.165100 593.766602
178 0 1 8.943080 8.269393 594.652405
179 0 1 8.832720 8.353180 595.595520
180 0 1 8.656417 8.344077 596.492126
181 0 1 8.455715 8.282390 597.415894
182 0 1 8.391249 8.101325 598.336609
183 0 1 8.473504 7.922286 599.277527
184 0 1 8.615037 7.610593 600.267395
185 0 1 8.744392 7.596420 601.219116
186 0 1 8.581039 7.665861 602.174316
187 0 1 8.664703 7.432404 603.115173
188 0 1 9.006590 7.071198 603.942993
189 0 1 9.294520 6.614120 604.699097
190 0 1 9.467050 6.498070 605.617798
191 0 1 9.746490 6.167390 606.467590
192 0 1 9.775090 5.972870 607.477478
193 0 1 9.969590 5.754010 608.438110
194 0 1 10.301310 5.545380 609.309814
195 0 1 10.473090 5.465560 610.251526
196 0 1 10.894140 5.420060 611.149597
197 0 1 11.270070 5.236280 611.993286
198 0 1 11.460570 4.945430 612.888306
199 0 1 11.665890 4.691820 613.800476
200 0 1 11.961590 4.499300 614.690979
201 0 1 12.238260 4.597130 615.612793
202 0 1 12.425750 4.534460 616.514404
203 0 1 12.374990 4.643000 617.447876
204 0 1 12.572530 4.702730 618.480286
205 0 1 12.663090 4.682560 619.446716
206 0 1 12.760220 4.820290 620.423828
207 0 1 13.007460 5.151260 621.262268
208 0 1 13.274361 5.371220 622.181152
209 0 1 13.088140 5.674200 623.062317
210 0 1 12.976290 5.832720 624.012085
211 0 1 12.763161 6.042510 624.925110
212 0 1 12.734690 6.676560 625.639221
213 0 1 13.001930 7.239548 626.420288
214 0 1 13.217620 7.500012 627.261169
215 0 1 13.406760 7.607034 628.214600
216 0 1 13.462070 7.702364 629.185852
217 0 1 13.134211 7.560925 630.072876
218 0 1 12.860170 7.480032 630.941833
219 0 1 12.440590 7.514747 631.847168
220 0 1 11.793880 7.607019 632.539612
221 0 1 11.260650 7.511600 633.337158
222 0 1 10.715460 7.062432 634.057739
223 0 1 10.215360 6.552460 634.715210
224 0 1 9.823280 6.012060 635.434021
225 0 1 9.178800 5.561030 635.979004
226 0 1 8.752122 5.039710 636.631958
227 0 1 8.278095 4.557680 637.424500
228 0 1 7.738557 4.421680 638.192078
229 0 1 7.249519 4.399710 639.009888
230 0 1 6.893220 4.041090 639.870972
231 0 1 6.486960 3.951760 640.757019
232 0 1 6.271660 3.914890 641.696106
233 0 1 6.020290 4.070500 642.556885
234 0 1 5.664870 4.175730 643.473694
235 0 1 5.624620 4.234360 644.452576
236 0 1 5.773930 4.591920 645.370728
237 0 1 6.015170 4.622030 646.309387
238 0 1 6.431690 4.621350 647.177429
239 0 1 6.596090 4.859580 648.070496
240 0 1 6.209110 5.174510 648.942993
241 0 1 5.793660 5.406460 649.788330
242 0 1 5.447830 5.627600 650.718628
243 0 1 5.316350 5.817110 651.641785
244 0 1 4.981730 5.675220 652.546204
245 0 1 4.578090 5.517230 653.386108
246 0 1 4.434650 5.535580 654.390503
247 0 1 4.466690 5.660130 655.369690
248 0 1 4.582730 5.636380 656.330078
249 0 1 4.485280 5.868590 657.194580
250 0 1 4.510080 5.898660 658.196289
251 0 1 4.660620 6.112880 659.155396
252 0 1 5.014850 6.377020 660.014893
253 0 1 5.248650 6.406430 660.933472
254 0 1 5.599760 6.004810 661.730225
255 0 1 6.034400 5.895260 662.661804
256 0 1 6.326470 5.925170 663.550171
257 0 1 6.562440 5.964980 664.484314
258 0 1 6.452620 5.946100 665.422485
259 0 1 6.342860 5.608070 666.297729
260 0 1 6.505470 5.259880 667.138489
261 0 1 6.493850 5.110680 668.052490
262 0 1 6.645020 4.882750 668.969727
263 0 1 6.594740 4.828740 669.976379
264 0 1 6.426030 4.718390 670.956909
265 0 1 6.597260 4.983020 671.906189
266 0 1 6.922380 5.105980 672.875488
267 0 1 6.681070 5.367410 673.757385
268 0 1 6.486510 5.492410 674.715698
269 0 1 6.191020 5.682970 675.569397
270 0 1 5.833040 5.740280 676.453491
271 0 1 5.404110 5.962690 677.391479
272 0 1 4.859510 6.155030 678.211426
273 0 1 4.310050 6.264460 679.006409
274 0 1 3.999530 6.431250 679.937805
275 0 1 3.860500 6.834190 680.823486
276 0 1 3.942730 7.606403 681.492126
277 0 1 4.146360 8.191605 682.259399
278 0 1 4.353110 8.549717 683.142395
279 0 1 4.785980 9.105680 683.797485
280 0 1 5.421010 9.432850 684.510498
281 0 1 5.754330 9.545620 685.465027
282 0 1 6.270930 9.485050 686.305298
283 0 1 6.831450 9.262560 687.087585
284 0 1 7.397591 9.003050 687.862305
285 0 1 7.924782 8.447542 688.436890
286 0 1 8.316574 7.689803 688.883911
287 0 1 8.948351 7.303333 689.516174
288 0 1 9.493930 6.981850 690.258301
289 0 1 9.795490 6.576980 691.073608
290 0 1 10.152860 6.077300 691.752625
291 0 1 10.421130 5.630500 692.606323
292 0 1 10.899630 5.123270 693.259216
293 0 1 11.184071 4.637510 694.074219
294 0 1 11.659940 4.033430 694.668579
295 0 1 12.222919 3.707470 695.343994
296 0 1 12.361990 3.470490 696.281372
297 0 1 12.376170 3.631320 697.235229
298 0 1 12.516069 3.976300 698.176697
299 0 1 12.551610 4.306580 699.144409
300 0 1 12.339911 4.801330 699.991577
301 0 1 12.382020 5.528350 700.587219
302 0 1 12.672680 6.083720 701.337219
303 0 1 12.726690 6.669060 702.128113
304 0 1 12.401800 7.301765 702.751709
305 0 1 12.300760 7.631165 703.645508
306 0 1 12.103371 7.768305 704.527100
307 0 1 11.776080 7.924850 705.443604
308 0 1 11.183770 7.965755 706.221924
309 0 1 10.642930 8.201465 706.982666
310 0 1 9.992450 8.212674 707.623474
311 0 1 9.379601 8.131899 708.323486
312 0 1 8.835507 7.996879 709.176392
313 0 1 8.380858 7.995969 710.004395
314 0 1 7.825454 8.030654 710.788696
315 0 1 7.212995 8.027506 711.547729
316 0 1 6.605680 7.810346 712.254517
317 0 1 6.134920 7.716259 713.030518
318 0 1 6.001600 7.597171 713.935303
319 0 1 5.924270 7.200954 714.809875
320 0 1 5.999870 6.580940 715.576111
321 0 1 5.917570 5.896420 716.287903
322 0 1 5.783230 5.429010 717.161682
323 0 1 5.918870 5.157430 718.094177
324 0 1 6.214680 4.981360 718.997803
325 0 1 6.395800 4.839190 719.971497
326 0 1 6.490690 4.693300 720.866821
327 0 1 6.547630 4.699200 721.824280
328 0 1 6.687910 4.699410 722.711182
329 0 1 6.547750 4.678150 723.597900
330 0 1 6.585800 4.626630 724.579407
331 0 1 6.551120 4.577130 725.556702
332 0 1 6.432180 4.751110 726.523499
333 0 1 6.405570 4.938720 727.531616
334 0 1 6.369800 5.152050 728.490479
335 0 1 6.364930 5.267390 729.439026
336 0 1 6.443910 5.361140 730.393005
337 0 1 6.602000 5.553870 731.367004
338 0 1 6.814350 5.752890 732.260986
339 0 1 6.718690 6.004860 733.189026
340 0 1 7.077837 6.116520 734.036011
341 0 1 7.370354 6.172110 734.958984
342 0 1 7.427940 6.439850 735.854980
343 0 1 7.175541 6.948500 736.664978
344 0 1 6.833040 7.292742 737.481995
345 0 1 6.704350 7.078641 738.411987
346 0 1 6.261860 7.112939 739.234009
347 0 1 6.040930 7.222036 740.229980
348 0 1 5.890040 7.082465 741.161011
349 0 1 5.931120 7.083568 742.115967
350 0 1 6.150850 7.005384 743.031006
351 0 1 6.492730 7.065278 743.934021
352 0 1 6.348080 7.369204 744.788025
353 0 1 6.108420 7.820556 745.693970
354 0 1 5.944500 8.283707 746.523010
355 0 1 6.074250 8.494159 747.453979
356 0 1 6.239840 8.527851 748.393005
357 0 1 6.525710 8.606959 749.353027
358 0 1 6.826270 8.491694 750.259033
359 0 1 6.873960 8.410508 751.223022
360 0 1 7.126245 8.363294 752.219971
361 0 1 7.738397 8.599080 752.984009
362 0 1 8.293858 8.477939 753.797974
363 0 1 9.072830 8.374611 754.328003
364 0 1 9.865030 8.143583 754.818970
365 0 1 10.651810 8.304718 755.369995
366 0 1 11.391740 8.419992 756.015015
367 0 1 11.692329 8.674911 756.924988
368 0 1 11.896260 8.863003 757.828979
369 0 1 12.014441 9.000820 758.738037
370 0 1 12.085840 9.082070 759.710022
371 0 1 12.411810 9.135790 760.630981
372 0 1 12.739861 8.951448 761.469971
373 0 1 13.052940 8.703627 762.401978
374 0 1 12.813530 8.428075 763.349976
375 0 1 12.526350 8.332473 764.247986
376 0 1 12.230289 8.333728 765.171021
377 0 1 12.479060 8.069070 766.015015
378 0 1 12.574770 7.791524 766.927979
379 0 1 12.465250 7.767113 767.874023
380 0 1 12.580561 7.566559 768.812012
381 0 1 12.535280 7.398561 769.770996
382 0 1 12.373711 7.270016 770.719971
383 0 1 12.354230 7.040979 771.690979
384 0 1 12.494350 6.820540 772.599976
385 0 1 12.563440 6.573150 773.528992
386 0 1 12.497020 6.252730 774.401978
387 0 1 11.924050 6.106080 775.080017
388 0 1 11.395660 5.875910 775.757996
389 0 1 10.888010 5.831200 776.562988
390 0 1 10.815460 5.692660 777.523010
391 0 1 10.276200 5.520250 778.281982
392 0 1 10.036040 5.357150 779.171997
393 0 1 9.787480 5.133960 780.109985
394 0 1 9.464080 5.342240 780.994995
395 0 1 9.128850 5.525690 781.896973
396 0 1 8.870070 5.637250 782.860962
397 0 1 9.054970 5.800070 783.858032
398 0 1 9.200340 5.975760 784.807007
399 0 1 9.514840 6.175190 785.688965
400 0 1 10.057159 6.137730 786.476990
401 0 1 10.239600 6.071450 787.502991
402 0 1 10.537300 5.936020 788.462036
403 0 1 10.753330 5.793280 789.453003
404 0 1 11.099800 5.577670 790.306030
405 0 1 11.440730 5.454720 791.184998
406 0 1 11.613610 5.469140 792.156006
407 0 1 12.060790 5.519200 793.026001
408 0 1 12.300440 5.516080 794.000977
409 0 1 12.777531 5.816720 794.771973
410 0 1 13.042971 6.177440 795.594971
411 0 1 13.433290 6.522040 796.410034
412 0 1 13.786400 6.998260 797.193970
413 0 1 13.819370 7.331447 798.255981
414 0 1 13.831079 7.552491 799.177002
415 0 1 13.569241 7.329974 800.109009
416 0 1 13.192720 7.107261 800.958984
417 0 1 12.602110 6.992980 801.692017
418 0 1 12.154600 6.693870 802.497986
419 0 1 11.963480 6.284700 803.364014
420 0 1 11.799240 5.841090 804.174988
421 0 1 11.592550 5.408270 805.044006
422 0 1 11.135839 4.929960 805.731018
423 0 1 10.782120 4.443280 806.515991
424 0 1 10.377890 4.159000 807.346985
425 0 1 9.659540 3.906190 807.947021
426 0 1 9.060540 3.632440 808.702026
427 0 1 8.582212 3.321640 809.429016
428 0 1 8.290614 3.054200 810.322998
429 0 1 8.263480 2.822920 811.221985
430 0 1 8.360356 2.580970 812.138000
431 0 1 8.688241 2.169800 813.002014
432 0 1 8.905079 1.882980 813.875977
433 0 1 9.334420 1.766320 814.710999
434 0 1 9.444640 1.574180 815.648987
435 0 1 9.482540 1.696860 816.666016
436 0 1 9.268490 1.974070 817.518982
437 0 1 8.845629 2.363840 818.327026
438 0 1 8.696273 2.469320 819.301025
439 0 1 8.395747 2.266870 820.226990
440 0 1 8.105915 2.088320 821.151978
441 0 1 7.790210 2.107200 822.065979
442 0 1 7.357846 2.197030 822.858032
443 0 1 6.695990 2.366610 823.580994
444 0 1 6.239340 2.453280 824.432983
445 0 1 5.707000 2.862140 825.223022
446 0 1 5.284430 3.156860 826.005981
447 0 1 4.794040 3.631830 826.669983
448 0 1 4.489260 4.132190 827.505981
449 0 1 4.355200 4.486860 828.389038
450 0 1 4.092170 4.539120 829.297974
451 0 1 4.346390 4.722830 830.212036
452 0 1 4.354960 5.060670 831.091980
453 0 1 4.487740 5.413180 831.958008
454 0 1 4.581550 6.099880 832.660034
455 0 1 4.677900 6.651460 833.429016
456 0 1 4.847480 7.028770 834.335022
457 0 1 4.790180 7.323194 835.278015
458 0 1 4.754960 7.629189 836.122986
459 0 1 4.884690 8.074263 836.922974
460 0 1 5.099280 8.469404 837.742004
461 0 1 5.395710 9.009280 838.500977
462 0 1 6.018400 9.530210 838.987000
463 0 1 6.634740 10.046710 839.458984
464 0 1 7.422280 10.649470 839.526978
465 0 1 8.240485 11.129050 839.497009
466 0 1 8.900469 11.664270 839.083984
467 0 1 9.614040 11.974410 838.463013
468 0 1 10.173429 12.000959 837.601990
469 0 1 10.410089 12.278060 836.667969
470 0 1 10.606890 12.744830 835.890015
471 0 1 10.858840 13.017220 835.016968
472 0 1 11.048480 13.234890 834.099976
473 0 1 10.990089 13.218850 833.096008
474 0 1 10.825420 13.030550 832.140015
475 0 1 10.566200 12.827940 831.216980
476 0 1 10.494620 12.235439 830.473022
477 0 1 10.465240 11.548130 829.903015
478 0 1 10.450060 10.998190 829.145996
479 0 1 10.761030 10.667419 828.296997
480 0 1 10.944030 10.234980 827.447998
481 0 1 10.996220 10.122110 826.537964
482 0 1 11.113170 9.791650 825.588989
483 0 1 11.531281 9.543640 824.765991
484 0 1 11.778740 8.999570 823.999023
485 0 1 11.851049 8.346290 823.276978
486 0 1 11.739810 8.109769 822.391968
487 0 1 11.483260 8.062963 821.412964
488 0 1 11.246360 7.954974 820.500977
489 0 1 11.330350 7.876311 819.565979
490 0 1 11.783649 7.922147 818.716003
491 0 1 12.072070 8.075806 817.832031
492 0 1 12.342340 8.260796 816.901978
493 0 1 12.394440 8.335409 815.952026
494 0 1 12.679990 8.415454 815.009033
495 0 1 12.718531 8.403191 814.023010
496 0 1 12.838600 8.587688 813.093018
497 0 1 12.556950 8.612456 812.208008
498 0 1 12.530080 8.646106 811.226013
499 0 1 12.711790 8.842531 810.280029
500 0 1 12.712690 9.043040 809.330994
501 0 1 12.711660 9.105410 808.322021
502 0 1 12.395081 9.162120 807.422974
503 0 1 12.166719 8.896230 806.531006
504 0 1 11.777950 8.547801 805.664001
505 0 1 11.540870 8.184004 804.757996
506 0 1 11.353690 7.913430 803.860962
507 0 1 11.073820 7.774488 802.921021
508 0 1 10.888490 7.833909 801.896973
509 0 1 10.585920 7.749111 800.999023
510 0 1 10.512800 8.033034 800.120972
511 0 1 10.471400 8.248032 799.231018
512 0 1 10.264009 8.511642 798.335999
513 0 1 9.890170 8.961581 797.580017
514 0 1 9.453960 9.052580 796.738037
515 0 1 8.612070 9.067380 796.237000
516 0 1 7.828985 8.805047 795.789001
517 0 1 7.362875 8.421751 795.007019
518 0 1 7.173583 7.936249 794.226013
519 0 1 7.205223 7.411436 793.468994
520 0 1 7.279964 6.976670 792.552002
521 0 1 7.508476 6.550290 791.716980
522 0 1 7.603176 5.887770 791.044006
523 0 1 7.474452 5.093000 790.497009
524 0 1 7.523995 4.401550 789.833984
525 0 1 7.847544 3.923020 789.035034
526 0 1 7.938893 3.664770 788.080017
527 0 1 8.042831 3.469960 787.129028
528 0 1 8.079041 3.210970 786.156006
529 0 1 7.972524 2.838840 785.238037
530 0 1 7.832324 2.782750 784.214966
531 0 1 7.714862 2.888280 783.260010
532 0 1 7.406020 3.165020 782.369019
533 0 1 7.400644 3.411500 781.389038
534 0 1 7.276084 3.333080 780.335999
535 0 1 7.134144 3.270600 779.370972
536 0 1 6.910500 3.414620 778.393005
537 0 1 7.328207 3.712400 777.580994
538 0 1 7.589873 4.010350 776.686035
539 0 1 7.564452 4.323480 775.825012
540 0 1 7.517936 4.602690 774.942993
541 0 1 7.569379 4.739990 773.917969
542 0 1 7.518488 4.784990 772.947021
543 0 1 7.787944 4.581940 772.049988
544 0 1 7.959179 4.786500 771.135010
545 0 1 8.017939 4.894520 770.239014
546 0 1 7.857992 5.151710 769.337036
547 0 1 8.122608 5.417180 768.436035
548 0 1 8.519550 5.679670 767.629028
549 0 1 9.142320 5.837240 766.927979
550 0 1 9.718200 5.909700 766.140015
551 0 1 10.257290 6.063830 765.320007
552 0 1 10.764020 6.290680 764.455017
553 0 1 11.075310 6.761350 763.632019
554 0 1 11.305510 7.288460 762.835999
555 0 1 11.680240 7.600313 761.971008
556 0 1 12.256110 7.764156 761.229980
557 0 1 12.804960 7.631361 760.440002
558 0 1 13.137360 7.633798 759.495972
559 0 1 13.358770 7.496157 758.603027
560 0 1 13.225121 7.518830 757.606995
561 0 1 12.935160 7.955403 756.702026
562 0 1 12.786489 8.584066 755.910034
563 0 1 12.853310 9.209520 755.161987
564 0 1 13.112579 9.962270 754.572998
565 0 1 13.032740 10.809990 754.075012
566 0 1 12.825860 11.476789 753.341003
567 0 1 12.430890 11.819790 752.567017
568 0 1 11.985661 11.704930 751.705994
569 0 1 11.639680 11.352420 750.888000
570 0 1 11.351590 11.045550 750.033020
571 0 1 10.992670 10.638870 749.171021
572 0 1 11.019680 10.564880 748.148010
573 0 1 10.894960 10.434090 747.200012
574 0 1 10.776870 10.336400 746.226990
575 0 1 10.469140 10.341530 745.343018
576 0 1 10.058380 10.430330 744.431030
577 0 1 9.588240 10.553270 743.606995
578 0 1 9.533660 10.605560 742.627991
579 0 1 9.533570 10.314620 741.671021
580 0 1 9.505680 10.110600 740.705017
581 0 1 9.273570 10.044570 739.702026
582 0 1 9.181760 9.895760 738.783997
583 0 1 9.097580 9.764160 737.809021
584 0 1 9.135060 9.615690 736.856995
585 0 1 9.231780 9.454160 735.895996
586 0 1 9.501070 9.442560 734.922974
587 0 1 9.838170 9.401610 734.059021
588 0 1 10.364690 9.478150 733.185974
589 0 1 10.824400 9.754910 732.304993
590 0 1 10.965370 9.613570 731.330994
591 0 1 11.231350 9.676260 730.398010
592 0 1 11.556470 9.717930 729.512024
593 0 1 11.799680 10.029600 728.523987
594 0 1 11.996970 10.290980 727.599976
595 0 1 12.208651 10.312350 726.630676
596 0 1 12.276600 10.407380 725.707092
597 0 1 12.473909 10.620640 724.814697
598 0 1 12.537680 10.797370 723.803284
599 0 1 12.668730 10.999900 722.856201
600 0 1 12.616510 11.152930 721.927612
601 0 1 12.672480 11.196600 720.987000
602 0 1 12.581261 10.793870 720.106201
603 0 1 12.243910 10.206870 719.412476
604 0 1 12.062230 9.796520 718.549622
605 0 1 11.882620 9.475990 717.640686
606 0 1 11.842030 8.779380 716.943420
607 0 1 11.686350 8.239643 716.136780
608 0 1 11.657150 8.198243 715.213806
609 0 1 11.791670 8.240696 714.341187
610 0 1 11.870800 8.700195 713.499817
611 0 1 11.788800 9.220430 712.746277
612 0 1 11.625810 9.853680 712.033081
613 0 1 11.303340 10.395350 711.359802
614 0 1 11.045850 11.067900 710.747375
615 0 1 10.679240 11.689000 710.179626
616 0 1 10.545430 12.366760 709.527893
617 0 1 10.110480 12.999290 708.888977
618 0 1 9.734790 13.328700 708.069397
619 0 1 9.369960 13.577370 707.203125
620 0 1 8.823146 13.649070 706.347168
621 0 1 8.305071 13.456810 705.569397
622 0 1 7.779547 13.601690 704.755615
623 0 1 7.272945 13.709490 703.873474
624 0 1 6.890480 13.505870 702.959717
625 0 1 6.829830 13.242001 702.044495
626 0 1 6.696750 13.452010 701.067993
627 0 1 6.509700 13.313220 700.149109
628 0 1 6.458500 13.165930 699.174500
629 0 1 6.348190 12.897610 698.271912
630 0 1 5.883110 12.633770 697.491577
631 0 1 5.613680 12.125589 696.763672
632 0 1 5.373000 11.763980 695.895386
633 0 1 5.131940 11.345079 695.040894
634 0 1 4.956960 10.973960 694.171326
635 0 1 4.514990 10.470720 693.464600
636 0 1 3.952010 9.974040 692.827087
637 0 1 3.507920 9.830610 692.016602
638 0 1 3.155020 9.505620 691.191528
639 0 1 2.952630 9.536150 690.169128
640 0 1 2.940120 9.668150 689.216797
641 0 1 2.804850 9.806610 688.190186
642 0 1 2.920020 9.898410 687.160889
643 0 1 2.931930 9.776011 686.219788
644 0 1 2.675890 9.635050 685.267578
645 0 1 2.657110 9.828080 684.298828
646 0 1 2.647450 10.222270 683.447388
647 0 1 2.618980 10.828800 682.713989
648 0 1 2.483330 11.165689 681.820007
649 0 1 2.547250 11.413950 680.891113
650 0 1 2.604820 11.460279 679.938232
651 0 1 2.825480 11.274860 679.061218
652 0 1 3.048760 10.828540 678.211121
653 0 1 3.645000 10.565350 677.496277
654 0 1 4.218010 10.480710 676.750793
655 0 1 4.666500 10.098100 676.044006
656 0 1 5.186160 9.545170 675.391785
657 0 1 5.615380 9.024030 674.716675
658 0 1 6.195340 8.695346 674.026917
659 0 1 6.552450 8.912090 673.159302
660 0 1 6.547750 9.291790 672.260986
661 0 1 6.392580 9.668680 671.365173
662 0 1 6.082440 10.052430 670.489014
663 0 1 5.794980 10.272890 669.559570
664 0 1 5.510840 10.667350 668.731812
665 0 1 5.225970 10.878920 667.852478
666 0 1 5.300890 11.110480 666.928284
667 0 1 5.428010 11.187531 665.941589
668 0 1 5.210530 11.439341 665.069397
669 0 1 5.268750 11.763250 664.140869
670 0 1 5.337340 11.927370 663.207886
671 0 1 5.514850 11.924089 662.266602
672 0 1 5.811420 11.809031 661.378113
673 0 1 6.310860 12.063590 660.624268
674 0 1 6.956690 12.224270 659.970276
675 0 1 7.348116 11.708900 659.164917
676 0 1 7.830129 11.078800 658.539978
677 0 1 8.167627 10.487620 657.904907
678 0 1 8.290676 10.076650 657.065430
679 0 1 8.895932 9.851640 656.298706
680 0 1 9.677370 9.595140 655.791504
681 0 1 10.548019 9.193640 655.537415
682 0 1 11.200720 8.810755 654.930786
683 0 1 11.642750 8.508478 654.125305
684 0 1 12.189620 8.376357 653.260620
685 0 1 12.463580 8.407119 652.361572
686 0 1 12.558100 8.773591 651.473572
687 0 1 12.497180 8.712571 650.543823
688 0 1 12.367280 9.038910 649.576904
689 0 1 12.253040 9.468990 648.751099
690 0 1 11.980440 9.961070 648.011292
691 0 1 11.920510 9.977230 647.019592
692 0 1 11.983990 10.256960 646.077087
693 0 1 11.918390 10.695539 645.241699
694 0 1 11.702400 11.130730 644.460571
695 0 1 11.441540 11.529770 643.616882
696 0 1 11.033340 11.975200 642.817383
697 0 1 10.568780 12.341180 642.103394
698 0 1 10.140940 12.573310 641.249329
699 0 1 10.011990 12.894011 640.330200
700 0 1 9.727350 12.937759 639.386902
701 0 1 9.438760 12.668320 638.487610
702 0 1 8.674127 12.474660 637.816650
703 0 1 8.005371 12.360830 637.185486
704 0 1 7.361908 11.802430 636.569153
705 0 1 6.673140 11.545370 635.955383
706 0 1 5.863580 11.210920 635.448242
707 0 1 5.405090 10.538850 634.968811
708 0 1 5.076660 9.730160 634.699829
709 0 1 4.950480 8.791810 634.362488
710 0 1 5.215940 7.962208 634.049683
711 0 1 5.596360 7.053980 633.916992
712 0 1 6.072580 6.227550 633.927063
713 0 1 6.697850 5.520800 633.672668
714 0 1 7.266059 4.907660 633.266235
715 0 1 7.601093 4.250940 632.722107
716 0 1 7.944156 3.523710 632.122803
717 0 1 7.940550 2.852350 631.452332
718 0 1 8.063662 2.314970 630.658142
719 0 1 8.152913 1.757180 629.912476
720 0 1 8.807886 1.525410 629.234253
721 0 1 9.350950 1.399950 628.448486
722 0 1 9.703730 1.453450 627.589050
723 0 1 9.956070 1.567800 626.645935
724 0 1 10.542590 1.898990 625.894897
725 0 1 10.969340 2.307250 625.148743
726 0 1 11.081620 2.624020 624.226868
727 0 1 10.780790 2.897410 623.375610
728 0 1 10.475121 3.128860 622.471313
729 0 1 10.263390 3.360970 621.493164
730 0 1 9.902280 3.399610 620.591003
731 0 1 9.465010 3.203570 619.804565
732 0 1 9.071740 2.787270 619.032471
733 0 1 8.221466 2.601000 618.501465
734 0 1 7.479143 2.352340 617.870972
735 0 1 6.763590 2.481340 617.242188
736 0 1 6.266110 2.818340 616.585876
737 0 1 5.661790 3.158720 615.882690
738 0 1 5.038220 3.333940 615.210876
739 0 1 4.279830 3.524970 614.767395
740 0 1 3.468480 3.667490 614.241699
741 0 1 2.784620 3.937080 613.603271
742 0 1 2.241570 4.386360 612.945374
743 0 1 1.964600 5.007120 612.132202
744 0 1 1.929320 5.443650 611.337402
745 0 1 2.092230 5.943610 610.592224
746 0 1 2.570620 6.140010 609.771179
747 0 1 2.943520 6.303390 608.889709
748 0 1 3.052290 6.264260 607.967590
749 0 1 2.997570 6.274420 606.981628
750 0 1 2.939450 6.239340 606.040771
751 0 1 2.868570 6.116180 605.078003
752 0 1 2.854230 6.167810 604.081604
753 0 1 2.846500 6.138620 603.078491
754 0 1 2.882120 6.089840 602.084290
755 0 1 3.340200 5.970100 601.188293
756 0 1 3.832420 5.565420 600.476685
757 0 1 4.252700 5.080060 599.681274
758 0 1 4.511050 4.757560 598.832703
759 0 1 4.697250 4.668760 597.874817
760 0 1 5.184010 4.813820 597.062988
761 0 1 5.348720 5.046350 596.134827
762 0 1 5.480580 4.986920 595.184387
763 0 1 5.908070 4.868750 594.354919
764 0 1 6.222830 4.687100 593.472473
765 0 1 6.098020 4.624450 592.484375
766 0 1 6.002970 4.756130 591.571716
767 0 1 5.817300 5.070840 590.707275
768 0 1 5.631320 5.284970 589.783813
769 0 1 5.242320 5.397660 588.934570
770 0 1 4.748090 5.461670 588.110291
771 0 1 4.479080 5.246610 587.195190
772 0 1 4.227900 5.264880 586.292908
773 0 1 4.121800 5.198830 585.343628
774 0 1 4.124310 5.167330 584.384216
775 0 1 4.358790 5.227750 583.458008
776 0 1 4.610550 5.296500 582.527283
777 0 1 4.703700 5.280040 581.588684
778 0 1 4.956590 5.390670 580.603577
779 0 1 5.162860 5.427780 579.687317
780 0 1 5.285070 5.862140 578.849121
781 0 1 5.158500 6.103190 577.960876
782 0 1 5.072010 6.541920 577.064697
783 0 1 5.110580 6.624250 576.115173
784 0 1 5.251380 6.512440 575.151489
785 0 1 5.371070 6.157840 574.217773
786 0 1 5.268680 5.771430 573.357483
787 0 1 5.249670 5.200370 572.565491
788 0 1 5.175540 4.846720 571.592773
789 0 1 5.272520 4.494150 570.693604
790 0 1 5.313410 4.323370 569.722717