LAMMPS data file via MDAnalysis

        1000  atoms
        1000  bonds
        1000  angles
           0  dihedrals
           0  impropers

           1  atom types
           1  bond types
           1  angle types
           0  dihedral types
           0  improper types

0.000000 16.000000 xlo xhi
0.000000 16.000000 ylo yhi
0.000000 1257.000000 zlo zhi


Masses

1 1.000000

Atoms

1 0 1 5.187210 8.189875 460.237000
2 0 1 5.646290 8.002913 461.127991
3 0 1 5.783070 7.908386 462.127014
4 0 1 5.846430 7.470589 463.028015
5 0 1 5.856870 7.163564 463.994995
6 0 1 5.790060 6.873730 464.940979
7 0 1 5.786460 6.397090 465.714996
8 0 1 5.756400 5.659800 466.377991
9 0 1 5.848250 4.878860 466.923004
10 0 1 6.063830 4.168740 467.550995
11 0 1 6.190820 3.692320 468.317017
12 0 1 6.471340 3.139980 469.029999
13 0 1 6.497080 2.631080 469.872986
14 0 1 6.284610 2.282650 470.760986
15 0 1 6.256740 1.924570 471.600006
16 0 1 6.326660 1.729130 472.476013
17 0 1 6.380090 1.533190 473.421021
18 0 1 6.586660 1.620950 474.343018
19 0 1 7.076169 1.734280 475.127014
20 0 1 7.531148 1.983570 475.897003
21 0 1 7.946740 2.024540 476.802979
22 0 1 8.266341 1.833290 477.671021
23 0 1 8.498784 1.711440 478.583008
24 0 1 8.614277 1.947500 479.492981
25 0 1 8.788877 2.439260 480.411987
26 0 1 9.191220 2.901760 481.135010
27 0 1 9.490710 3.148650 482.003998
28 0 1 9.767879 3.491700 482.878998
29 0 1 9.855360 3.672420 483.885986
30 0 1 10.048180 3.767850 484.867981
31 0 1 10.197910 3.878660 485.820984
32 0 1 10.315030 4.021200 486.800995
33 0 1 10.546520 3.968320 487.748993
34 0 1 10.718440 3.904670 488.687988
35 0 1 11.033140 3.892920 489.632996
36 0 1 11.596340 3.721170 490.346008
37 0 1 11.881410 3.402920 491.188995
38 0 1 12.273190 3.205650 492.061005
39 0 1 12.480890 3.044630 492.997009
40 0 1 12.656240 2.954980 493.890991
41 0 1 12.810160 3.223130 494.772003
42 0 1 12.558170 3.472250 495.664978
43 0 1 12.212660 3.904850 496.485992
44 0 1 11.851260 4.321810 497.208008
45 0 1 11.646140 4.848770 498.054993
46 0 1 11.616350 5.208450 498.953979
47 0 1 11.521370 5.883060 499.737000
48 0 1 11.460870 6.592040 500.423004
49 0 1 11.757800 7.136429 501.152008
50 0 1 11.880341 7.463633 502.053009
51 0 1 11.959220 8.008187 502.813995
52 0 1 11.658470 8.372261 503.644989
53 0 1 11.320160 8.792437 504.431000
54 0 1 10.827630 9.345870 505.015015
55 0 1 10.373720 9.787610 505.705017
56 0 1 10.157050 10.491270 506.356018
57 0 1 9.813420 11.231170 506.864014
58 0 1 9.584340 11.811060 507.654999
59 0 1 9.376480 12.286551 508.407990
60 0 1 9.361320 12.429000 509.343994
61 0 1 9.396749 12.544180 510.359009
62 0 1 9.325660 12.834990 511.290009
63 0 1 9.448030 13.150829 512.192017
64 0 1 9.631910 13.136880 513.122009
65 0 1 9.932930 13.197880 514.134033
66 0 1 10.416940 13.089520 514.942993
67 0 1 11.110790 13.010080 515.726013
68 0 1 11.426280 12.916810 516.648010
69 0 1 11.457360 12.932119 517.606995
70 0 1 11.180080 12.975451 518.612000
71 0 1 10.927320 12.961830 519.582031
72 0 1 10.650800 13.129990 520.507019
73 0 1 9.986120 13.228889 521.174988
74 0 1 9.453400 13.229071 521.976990
75 0 1 8.753950 13.204720 522.645020
76 0 1 8.239582 13.072599 523.458008
77 0 1 7.660832 12.915930 524.200989
78 0 1 7.145638 12.568110 524.945007
79 0 1 6.660930 12.340090 525.723999
80 0 1 6.290320 12.116320 526.588989
81 0 1 6.042210 11.829630 527.439026
82 0 1 5.906850 11.565660 528.330017
83 0 1 5.826540 11.003469 529.047607
84 0 1 5.457090 10.363590 529.710083
85 0 1 5.376390 9.518120 530.179504
86 0 1 5.603590 8.893816 530.819214
87 0 1 5.718600 8.021735 531.295410
88 0 1 5.964660 7.164523 531.608704
89 0 1 6.535080 6.587990 532.120117
90 0 1 6.726990 5.970420 532.854370
91 0 1 7.091758 5.462730 533.653320
92 0 1 7.656946 4.934000 534.293579
93 0 1 7.983843 4.384350 535.026123
94 0 1 8.005459 3.911280 535.973511
95 0 1 8.033987 3.479720 536.796387
96 0 1 7.984311 3.259930 537.760315
97 0 1 7.934187 2.867390 538.648987
98 0 1 7.825183 2.684040 539.602905
99 0 1 7.687396 2.647290 540.538208
100 0 1 7.587205 2.716460 541.454468
101 0 1 7.596969 2.791400 542.428589
102 0 1 7.671573 3.084190 543.334900
103 0 1 7.861351 3.685280 544.133667
104 0 1 7.798006 4.026240 545.094604
105 0 1 7.653320 4.324190 546.014587
106 0 1 7.733498 4.782570 546.934387
107 0 1 7.879220 5.166480 547.837524
108 0 1 7.807369 5.557540 548.767883
109 0 1 7.929765 5.735870 549.663330
110 0 1 8.164214 5.928050 550.609924
111 0 1 8.465400 6.153850 551.505188
112 0 1 8.969123 6.414700 552.299927
113 0 1 9.103670 6.575970 553.259216
114 0 1 9.172990 6.366710 554.254028
115 0 1 9.133300 6.087600 555.145386
116 0 1 8.980543 5.731410 556.037781
117 0 1 8.969903 5.374800 556.959412
118 0 1 8.596512 5.194170 557.831604
119 0 1 7.948072 5.260690 558.599915
120 0 1 7.472462 5.232970 559.394409
121 0 1 7.234333 5.125160 560.372192
122 0 1 7.274230 5.331010 561.309998
123 0 1 7.241133 5.686250 562.221985
124 0 1 7.234397 6.166420 563.052368
125 0 1 7.262174 6.647520 563.876709
126 0 1 7.290252 7.058117 564.800415
127 0 1 7.195403 7.501168 565.624390
128 0 1 6.988390 7.715012 566.573303
129 0 1 6.829020 7.700696 567.502686
130 0 1 6.539330 7.703346 568.470581
131 0 1 6.181450 7.427369 569.264404
132 0 1 5.758900 6.995270 570.053589
133 0 1 5.401710 6.862470 570.945190
134 0 1 4.752660 6.912580 571.630493
135 0 1 3.948730 6.885240 572.158997
136 0 1 3.270080 7.064179 572.719482
137 0 1 2.731540 7.063884 573.491882
138 0 1 2.174190 7.128143 574.391113
139 0 1 1.921900 7.351799 575.244202
140 0 1 1.998050 7.594111 576.237793
141 0 1 2.223190 7.612341 577.167480
142 0 1 2.298440 7.508195 578.071228
143 0 1 2.260370 7.470889 579.014221
144 0 1 2.114200 7.339240 579.937317
145 0 1 2.136190 7.298944 580.919373
146 0 1 2.218860 7.156028 581.901917
147 0 1 2.505820 7.017908 582.780823
148 0 1 2.922950 6.917640 583.668213
149 0 1 3.311350 6.786820 584.622070
150 0 1 3.800090 6.765500 585.388428
151 0 1 4.093430 6.685550 586.287781
152 0 1 4.469510 6.915900 587.130188
153 0 1 4.846610 6.800630 587.970093
154 0 1 5.424280 6.782190 588.764587
155 0 1 6.050980 6.747250 589.535889
156 0 1 6.578620 6.559450 590.329590
157 0 1 7.294886 6.396210 591.020630
158 0 1 7.787038 6.328290 591.934326
159 0 1 8.153894 6.420850 592.776672
160 0 1 8.493140 6.757490 593.575928
161 0 1 8.618784 7.117573 594.482300
162 0 1 8.413714 7.583700 595.320312
163 0 1 8.596898 7.942504 596.155273
164 0 1 8.956338 8.113918 597.084778
165 0 1 9.191610 8.445555 597.945190
166 0 1 8.981417 8.826852 598.906311
167 0 1 8.392895 9.014580 599.633911
168 0 1 7.927156 9.060030 600.495483
169 0 1 7.145236 8.895339 600.964294
170 0 1 6.336000 8.761845 601.491272
171 0 1 5.697110 8.795366 602.248413
172 0 1 4.972560 8.839095 602.893311
173 0 1 4.261290 9.039160 603.605469
174 0 1 3.557260 9.057730 604.268127
175 0 1 3.014260 9.071120 605.076172
176 0 1 2.502580 8.779344 605.844299
177 0 1 2.320860 8.242255 606.636902
178 0 1 2.100720 7.730226 607.455383
179 0 1 1.730090 7.330554 608.300293
180 0 1 1.565840 6.965240 609.146423
181 0 1 1.603690 6.650820 610.050415
182 0 1 1.719900 6.360140 610.959717
183 0 1 1.916380 6.130280 611.805786
184 0 1 2.060020 6.059810 612.744873
185 0 1 2.443020 6.116530 613.692993
186 0 1 2.637960 6.090230 614.590698
187 0 1 2.876750 5.873070 615.473816
188 0 1 3.095170 5.365870 616.203125
189 0 1 3.063150 4.938190 617.112000
190 0 1 3.041320 4.224010 617.738525
191 0 1 3.091100 3.657780 618.508423
192 0 1 3.300790 3.511210 619.457153
193 0 1 3.217450 3.338780 620.380371
194 0 1 3.152010 3.249080 621.380554
195 0 1 3.360750 3.435550 622.292603
196 0 1 3.820590 3.637190 623.087097
197 0 1 4.132130 3.772750 624.016357
198 0 1 4.477790 3.789740 624.979431
199 0 1 4.736500 3.826460 625.885071
200 0 1 4.804300 4.071160 626.790649
201 0 1 4.635070 4.083720 627.731079
202 0 1 4.293050 4.160450 628.633728
203 0 1 4.300380 4.082000 629.601318
204 0 1 4.567080 4.099800 630.564453
205 0 1 4.757960 3.883700 631.477905
206 0 1 4.755690 3.489410 632.393188
207 0 1 4.508760 3.104790 633.315186
208 0 1 4.420390 3.009660 634.244080
209 0 1 4.235740 3.071490 635.144531
210 0 1 4.202670 3.285420 636.094543
211 0 1 4.222510 3.776960 636.939941
212 0 1 4.219460 4.337440 637.788147
213 0 1 3.983680 4.770490 638.628601
214 0 1 4.127710 5.427660 639.271484
215 0 1 4.393620 6.054810 640.071594
216 0 1 4.788950 6.539180 640.763428
217 0 1 5.039470 7.302738 641.368713
218 0 1 5.272900 7.900416 642.078186
219 0 1 5.473260 8.452139 642.855408
220 0 1 5.552130 8.668080 643.740173
221 0 1 5.895230 9.066190 644.597717
222 0 1 6.158170 9.607440 645.368896
223 0 1 6.534480 9.877831 646.233398
224 0 1 6.743850 9.961520 647.140015
225 0 1 7.005966 9.890520 648.185120
226 0 1 7.088722 9.638290 649.079712
227 0 1 7.410313 9.160410 649.882629
228 0 1 7.806464 9.226260 650.739685
229 0 1 8.150992 9.185170 651.669312
230 0 1 8.678552 9.165650 652.517517
231 0 1 8.902293 9.420440 653.473572
232 0 1 9.244160 9.246270 654.383301
233 0 1 9.564860 9.003531 655.253174
234 0 1 10.008280 8.798983 656.131226
235 0 1 10.383690 8.815570 657.091614
236 0 1 10.329910 8.808924 658.107178
237 0 1 10.396339 8.403933 658.994873
238 0 1 10.105740 8.223144 659.856506
239 0 1 9.786600 8.072447 660.764771
240 0 1 9.513730 7.886035 661.658997
241 0 1 9.357160 7.793341 662.598816
242 0 1 9.249370 7.386580 663.483826
243 0 1 8.854323 6.845400 664.287292
244 0 1 8.593859 6.151010 664.879211
245 0 1 8.459102 5.859460 665.777588
246 0 1 8.451791 5.594880 666.630493
247 0 1 8.087456 5.194690 667.501526
248 0 1 7.986680 4.888800 668.455811
249 0 1 7.940636 5.028880 669.405396
250 0 1 7.961982 5.193980 670.327698
251 0 1 7.638143 5.238610 671.238586
252 0 1 7.558724 5.340950 672.148315
253 0 1 7.674410 5.416190 673.142578
254 0 1 7.988376 5.356260 674.020691
255 0 1 8.195516 5.337110 674.952087
256 0 1 8.349857 5.132270 675.912231
257 0 1 8.380319 4.850990 676.915405
258 0 1 8.755015 4.808960 677.898682
259 0 1 8.996786 4.835910 678.827026
260 0 1 9.188110 4.920720 679.801819
261 0 1 9.458850 5.333470 680.653687
262 0 1 9.518070 5.308620 681.608887
263 0 1 9.613220 5.136420 682.499695
264 0 1 9.727330 5.091060 683.503784
265 0 1 9.827350 4.998800 684.439880
266 0 1 9.752720 4.974730 685.385681
267 0 1 9.449970 5.076160 686.306885
268 0 1 9.169870 5.448130 687.159973
269 0 1 8.886141 5.539160 688.057129
270 0 1 8.591103 5.808510 688.946411
271 0 1 8.014852 6.020820 689.744629
272 0 1 7.787293 6.152900 690.694275
273 0 1 7.578175 6.048390 691.628723
274 0 1 7.221458 6.211850 692.520813
275 0 1 6.810360 6.401750 693.419312
276 0 1 6.354840 6.628340 694.245911
277 0 1 5.889400 6.820960 695.033691
278 0 1 5.758230 6.929010 696.002625
279 0 1 5.685270 6.811650 696.971680
280 0 1 5.833460 6.647310 697.971497
281 0 1 5.656620 6.650710 698.865417
282 0 1 5.620400 6.631200 699.811707
283 0 1 5.911430 6.838930 700.694885
284 0 1 6.039320 7.094987 701.656006
285 0 1 5.944360 7.506362 702.465210
286 0 1 5.818910 7.974617 703.346497
287 0 1 5.677290 8.689463 703.966431
288 0 1 5.803700 9.434530 704.578491
289 0 1 5.786090 10.022160 705.347168
290 0 1 5.775230 10.443330 706.229309
291 0 1 5.872260 10.293170 707.136292
292 0 1 6.110860 10.160640 708.094421
293 0 1 6.403300 9.935520 708.931030
294 0 1 6.507160 9.636870 709.836670
295 0 1 6.435140 9.610690 710.817505
296 0 1 6.507450 9.654250 711.830322
297 0 1 6.691590 9.588590 712.758606
298 0 1 6.983460 9.344850 713.612915
299 0 1 7.345813 9.065740 714.504272
300 0 1 7.784532 9.149580 715.346008
301 0 1 8.163728 9.007980 716.215576
302 0 1 8.690674 9.154970 717.017700
303 0 1 9.067020 9.264370 717.889526
304 0 1 9.247370 9.460400 718.863220
305 0 1 9.097630 9.784781 719.807678
306 0 1 8.911306 9.991190 720.685608
307 0 1 8.732041 9.765640 721.608398
308 0 1 8.380194 9.650980 722.547974
309 0 1 8.089376 9.971080 723.427307
310 0 1 7.936605 10.161190 724.390076
311 0 1 7.996388 10.492110 725.307800
312 0 1 8.118398 10.625510 726.249390
313 0 1 8.402097 10.479670 727.130310
314 0 1 8.760199 10.340540 728.017578
315 0 1 8.892960 10.067020 728.953003
316 0 1 8.658459 9.966360 729.942017
317 0 1 8.420199 9.921240 730.882996
318 0 1 8.195669 9.882130 731.865967
319 0 1 7.767121 9.797830 732.752991
320 0 1 7.688655 9.745990 733.692993
321 0 1 7.574193 9.762370 734.619019
322 0 1 7.066799 9.912810 735.486023
323 0 1 6.803360 9.560240 736.292969
324 0 1 6.442060 9.262980 737.137024
325 0 1 5.919680 8.824149 737.814026
326 0 1 5.610150 8.296659 738.591003
327 0 1 5.350890 7.606401 739.172974
328 0 1 5.160790 6.828080 739.710022
329 0 1 5.024220 6.068290 740.252991
330 0 1 4.649590 5.575760 740.992004
331 0 1 4.282840 5.078860 741.747009
332 0 1 4.139260 4.620630 742.586975
333 0 1 4.119900 4.143570 743.393982
334 0 1 4.210050 3.539500 744.132996
335 0 1 4.173770 2.895170 744.880981
336 0 1 4.158920 2.726540 745.952026
337 0 1 4.335560 2.943870 746.992981
338 0 1 4.552420 3.225640 747.890991
339 0 1 4.696090 3.568410 748.804993
340 0 1 4.495720 3.944810 749.737000
341 0 1 4.563180 3.994620 750.714966
342 0 1 4.656510 3.993820 751.660034
343 0 1 4.694680 3.862820 752.565979
344 0 1 4.588690 3.651120 753.497986
345 0 1 4.523360 3.546280 754.460999
346 0 1 4.431080 3.309980 755.354980
347 0 1 4.649650 3.060680 756.260986
348 0 1 4.927530 2.732270 757.176025
349 0 1 5.369100 2.482190 757.963989
350 0 1 5.988030 2.394470 758.708008
351 0 1 6.497700 2.475580 759.510986
352 0 1 6.865060 2.530690 760.403015
353 0 1 6.936060 2.218070 761.356018
354 0 1 7.013883 1.820910 762.265991
355 0 1 7.093332 1.728960 763.174988
356 0 1 7.113438 1.585100 764.143982
357 0 1 7.266778 1.651150 765.057007
358 0 1 7.406947 1.557040 765.992004
359 0 1 7.486575 1.686610 766.955017
360 0 1 7.644918 1.913980 767.843994
361 0 1 7.873294 2.204990 768.664978
362 0 1 8.152294 2.631050 769.541016
363 0 1 8.484167 2.920950 770.528992
364 0 1 8.831332 3.192260 771.364990
365 0 1 9.228720 3.429270 772.202026
366 0 1 9.517160 3.887750 773.108032
367 0 1 9.892670 4.383250 773.880005
368 0 1 10.460840 4.573340 774.724976
369 0 1 11.091840 5.043740 775.271973
370 0 1 11.880939 5.597680 775.596008
371 0 1 12.338910 6.020670 776.309998
372 0 1 12.755580 6.499630 777.124023
373 0 1 12.605150 6.840360 778.052002
374 0 1 12.417430 7.254890 778.943970
375 0 1 12.014481 7.339251 779.869019
376 0 1 11.795130 7.242308 780.802002
377 0 1 11.469790 7.259847 781.687988
378 0 1 11.149410 7.417935 782.606995
379 0 1 10.691840 7.092629 783.385010
380 0 1 9.988640 6.739360 783.962036
381 0 1 9.360410 6.424490 784.655029
382 0 1 9.006100 6.408360 785.554016
383 0 1 8.575716 6.264080 786.414001
384 0 1 8.310050 6.242030 787.339966
385 0 1 7.974659 6.322260 788.291992
386 0 1 7.745970 6.389510 789.216980
387 0 1 7.740545 6.562200 790.130005
388 0 1 7.934509 7.021708 790.934021
389 0 1 8.026188 7.713664 791.787964
390 0 1 8.232045 8.242604 792.567017
391 0 1 8.413910 8.913936 793.228027
392 0 1 8.891314 9.318380 793.916992
393 0 1 9.292510 9.727510 794.690002
394 0 1 9.614799 10.004980 795.492981
395 0 1 10.069201 10.170731 796.351990
396 0 1 10.247630 10.430720 797.234009
397 0 1 10.240680 10.477080 798.182983
398 0 1 9.843820 10.367900 799.044983
399 0 1 9.631880 10.521760 799.960999
400 0 1 9.411380 10.862970 800.844971
401 0 1 9.150880 11.253770 801.773010
402 0 1 8.890424 11.568850 802.695984
403 0 1 9.119150 12.035960 803.533020
404 0 1 9.091080 12.383380 804.442993
405 0 1 9.169621 12.763050 805.307007
406 0 1 8.963569 13.033630 806.169006
407 0 1 8.659303 13.288700 807.070007
408 0 1 8.245958 13.441240 807.889038
409 0 1 7.991653 13.291269 808.833008
410 0 1 7.782397 13.403880 809.773987
411 0 1 7.388213 13.581141 810.627014
412 0 1 7.126777 13.491470 811.562988
413 0 1 6.792130 13.211520 812.494995
414 0 1 6.640770 12.761990 813.322021
415 0 1 6.380260 12.201361 814.067993
416 0 1 6.053740 11.533440 814.634033
417 0 1 5.576230 10.811190 815.011963
418 0 1 5.212480 9.998120 815.240967
419 0 1 4.807410 9.201630 815.518982
420 0 1 4.366150 8.553612 816.083008
421 0 1 4.004360 7.950525 816.776978
422 0 1 3.511650 7.428902 817.343018
423 0 1 3.185170 7.105590 818.166016
424 0 1 2.952390 6.778620 819.010010
425 0 1 2.694220 6.484210 819.854004
426 0 1 2.440000 6.068590 820.698975
427 0 1 2.233010 5.554830 821.526001
428 0 1 1.943200 5.315390 822.468994
429 0 1 1.991560 5.062040 823.484985
430 0 1 2.166540 4.904670 824.403015
431 0 1 2.236380 4.724120 825.341003
432 0 1 2.423560 4.669780 826.240967
433 0 1 2.562140 4.658260 827.176025
434 0 1 2.521450 4.683290 828.153015
435 0 1 2.602430 4.652860 829.078979
436 0 1 2.926450 4.745190 830.002991
437 0 1 3.218560 4.701570 830.957031
438 0 1 3.547610 4.974890 831.817993
439 0 1 3.992390 5.174080 832.656006
440 0 1 4.153710 5.591620 833.499023
441 0 1 4.116600 5.631550 834.432007
442 0 1 4.296020 5.637880 835.436035
443 0 1 4.500590 5.858200 836.333984
444 0 1 4.638970 6.156270 837.216003
445 0 1 5.322860 6.265190 838.014038
446 0 1 6.138990 6.366730 838.362000
447 0 1 7.002042 6.699010 838.327026
448 0 1 7.793038 7.107897 838.073975
449 0 1 8.483743 7.579489 837.624023
450 0 1 9.193530 7.826215 837.026001
451 0 1 9.913250 7.732729 836.286011
452 0 1 10.040740 7.597112 835.395996
453 0 1 9.978370 7.579093 834.453003
454 0 1 10.056850 7.807711 833.473022
455 0 1 10.199010 7.951113 832.526001
456 0 1 10.490129 8.089024 831.603027
457 0 1 10.719670 8.126682 830.702026
458 0 1 10.630410 8.114614 829.734985
459 0 1 10.470470 8.361342 828.872986
460 0 1 10.119960 8.725373 827.940002
461 0 1 9.604570 8.935831 827.161011
462 0 1 9.196380 9.077620 826.328979
463 0 1 8.867054 8.935134 825.448975
464 0 1 8.726890 8.797441 824.426025
465 0 1 9.066280 8.565204 823.561035
466 0 1 9.196570 8.510614 822.598999
467 0 1 9.387730 8.203348 821.639038
468 0 1 9.703110 7.927253 820.744995
469 0 1 9.819130 7.735769 819.799988
470 0 1 9.520570 7.795206 818.841980
471 0 1 9.145600 7.810225 817.984985
472 0 1 8.537659 7.582616 817.265991
473 0 1 7.959435 7.619392 816.535034
474 0 1 7.691811 7.717224 815.573975
475 0 1 7.343869 8.006446 814.747009
476 0 1 6.834100 8.140217 813.942993
477 0 1 6.199260 8.005575 813.216980
478 0 1 5.941460 7.683563 812.299011
479 0 1 5.407030 7.298269 811.557983
480 0 1 4.982010 6.895040 810.761963
481 0 1 5.030450 6.693000 809.846008
482 0 1 5.129200 6.540380 808.885986
483 0 1 5.358760 6.392750 807.989990
484 0 1 5.275240 6.133190 807.044983
485 0 1 5.027540 5.803030 806.177979
486 0 1 4.899510 5.451330 805.252991
487 0 1 4.529590 5.364590 804.388000
488 0 1 4.082260 5.393560 803.572021
489 0 1 3.708940 5.338000 802.695007
490 0 1 3.312180 5.565950 801.879028
491 0 1 2.787000 5.846680 801.044006
492 0 1 2.708330 6.232940 800.161011
493 0 1 2.934430 6.628130 799.231995
494 0 1 3.212140 6.835140 798.309998
495 0 1 3.602370 6.998650 797.360962
496 0 1 3.895250 7.181147 796.464966
497 0 1 4.107200 7.349466 795.554016
498 0 1 4.167490 7.756455 794.692017
499 0 1 4.186810 8.149825 793.833008
500 0 1 4.381840 8.442103 792.942993
501 0 1 5.020180 8.754494 792.286987
502 0 1 5.623070 9.113010 791.632019
503 0 1 6.389000 9.227610 791.039978
504 0 1 7.105951 9.190030 790.523010
505 0 1 7.685349 9.373770 789.648987
506 0 1 7.959852 9.657090 788.801025
507 0 1 8.167762 9.974190 787.844971
508 0 1 8.099261 10.447920 786.945007
509 0 1 8.036627 10.797540 786.082031
510 0 1 7.996946 11.278430 785.265991
511 0 1 7.907439 11.920160 784.567993
512 0 1 8.126980 12.403800 783.752014
513 0 1 8.239942 12.713551 782.837036
514 0 1 8.084272 12.746040 781.854980
515 0 1 7.972333 12.693140 780.859985
516 0 1 7.735376 12.598410 779.927979
517 0 1 7.093625 12.421590 779.208008
518 0 1 6.612770 11.733870 778.692017
519 0 1 6.184490 10.907681 778.268005
520 0 1 6.056160 10.002390 777.932007
521 0 1 6.040150 9.060690 777.645020
522 0 1 5.900880 8.218724 777.226013
523 0 1 6.026930 7.560626 776.513000
524 0 1 6.362630 7.104080 775.775024
525 0 1 6.611520 6.750800 774.942993
526 0 1 6.768220 6.515120 773.955994
527 0 1 6.881460 6.555620 772.989990
528 0 1 6.978270 6.720990 772.033020
529 0 1 6.725770 6.731470 771.093018
530 0 1 6.715800 6.590600 770.146973
531 0 1 6.684810 6.373600 769.229004
532 0 1 6.444270 5.985170 768.436035
533 0 1 5.917180 5.889690 767.580994
534 0 1 5.461260 5.867450 766.739990
535 0 1 5.396910 6.118580 765.794006
536 0 1 5.415750 6.181570 764.750977
537 0 1 5.321670 6.206360 763.783020
538 0 1 5.066310 6.153570 762.867981
539 0 1 4.524080 6.137170 762.070984
540 0 1 4.307320 6.483020 761.238037
541 0 1 4.289850 6.653930 760.270020
542 0 1 3.994330 6.836610 759.417969
543 0 1 3.924940 7.187409 758.570984
544 0 1 3.787480 7.707438 757.734009
545 0 1 3.935880 8.212167 756.825989
546 0 1 4.199970 8.816162 756.103027
547 0 1 4.557650 9.247740 755.260986
548 0 1 4.968370 9.512660 754.401978
549 0 1 5.464670 9.766380 753.596985
550 0 1 5.775180 9.990180 752.714966
551 0 1 6.118640 10.084440 751.820007
552 0 1 6.437180 10.250840 750.922974
553 0 1 6.965960 10.300290 750.130005
554 0 1 7.412699 10.249599 749.233032
555 0 1 8.020230 10.089830 748.575989
556 0 1 8.310776 9.992920 747.700989
557 0 1 8.423470 9.594030 746.763000
558 0 1 8.255473 9.082360 745.934998
559 0 1 8.404312 8.334388 745.315002
560 0 1 8.388309 7.542527 744.752991
561 0 1 8.506740 6.897160 744.062988
562 0 1 8.883037 6.171230 743.588013
563 0 1 9.238220 5.359850 743.294006
564 0 1 9.477020 4.671740 742.635010
565 0 1 9.934770 4.062050 742.033997
566 0 1 10.135550 3.552290 741.294006
567 0 1 10.158000 3.245750 740.400024
568 0 1 10.158689 3.162250 739.455994
569 0 1 10.442300 3.224170 738.495972
570 0 1 10.607640 3.513480 737.575989
571 0 1 10.826540 3.475660 736.577026
572 0 1 11.108180 3.522300 735.660034
573 0 1 11.163640 3.973400 734.780029
574 0 1 10.845921 4.396500 733.931030
575 0 1 10.757710 4.579630 733.002014
576 0 1 10.824300 4.878760 732.124023
577 0 1 10.914510 5.218720 731.207031
578 0 1 10.867750 5.377870 730.254028
579 0 1 10.863170 5.308790 729.299988
580 0 1 10.911580 5.394380 728.334717
581 0 1 10.983310 5.491650 727.402405
582 0 1 10.877910 5.259950 726.520386
583 0 1 10.651540 5.199020 725.605225
584 0 1 10.369850 4.957270 724.737976
585 0 1 10.125680 4.722860 723.832031
586 0 1 10.117559 4.084500 723.068420
587 0 1 10.086010 3.537300 722.235779
588 0 1 10.032310 2.780800 721.580017
589 0 1 10.247860 2.524140 720.647522
590 0 1 10.494040 2.287520 719.757080
591 0 1 10.538960 2.163340 718.821411
592 0 1 10.555690 1.933670 717.858521
593 0 1 10.423770 1.773420 716.958374
594 0 1 10.447150 2.200280 716.106567
595 0 1 10.608160 2.595700 715.234924
596 0 1 10.701700 3.122800 714.374634
597 0 1 10.741930 3.462540 713.471802
598 0 1 10.704190 3.618160 712.501221
599 0 1 10.482170 3.938850 711.675415
600 0 1 10.512550 4.370720 710.813721
601 0 1 10.522640 4.908620 710.035767
602 0 1 10.470410 5.335600 709.147217
603 0 1 10.309310 5.673460 708.265808
604 0 1 10.048900 5.933350 707.416382
605 0 1 9.701080 6.203050 706.555603
606 0 1 9.171550 6.510480 705.821289
607 0 1 8.702009 6.603140 704.933411
608 0 1 8.427480 6.504800 704.056030
609 0 1 8.317214 6.454940 703.087708
610 0 1 8.428783 6.468740 702.164917
611 0 1 8.665232 6.822430 701.277466
612 0 1 8.884157 7.184645 700.409912
613 0 1 9.189030 7.552215 699.536621
614 0 1 9.498160 7.925233 698.649719
615 0 1 9.620910 8.503837 697.861816
616 0 1 9.928050 9.168660 697.150513
617 0 1 10.142139 9.725040 696.399109
618 0 1 10.270150 10.538770 695.837219
619 0 1 10.326941 11.343250 695.308105
620 0 1 10.475290 12.199141 694.875305
621 0 1 10.250190 13.003719 694.452209
622 0 1 10.006520 13.644620 693.766785
623 0 1 9.605610 13.870680 692.948303
624 0 1 9.305290 14.064810 692.089600
625 0 1 9.222060 14.125811 691.133789
626 0 1 8.950626 14.393780 690.259583
627 0 1 8.743512 14.402280 689.331116
628 0 1 8.540286 14.008921 688.454224
629 0 1 7.984692 13.575830 687.665283
630 0 1 7.337659 13.021060 687.181030
631 0 1 7.013011 12.552000 686.326904
632 0 1 6.510260 12.053890 685.679504
633 0 1 5.874000 11.773550 684.943726
634 0 1 5.610560 11.636660 684.061523
635 0 1 5.506700 11.196860 683.205688
636 0 1 5.163830 10.919310 682.357422
637 0 1 5.061600 10.504880 681.538879
638 0 1 4.842170 10.123560 680.632080
639 0 1 4.867120 9.778390 679.727905
640 0 1 4.846790 9.200910 678.960876
641 0 1 4.670410 8.578311 678.290894
642 0 1 4.443710 8.466941 677.365723
643 0 1 4.496670 8.062414 676.496826
644 0 1 4.691360 7.870937 675.600098
645 0 1 4.856050 7.881850 674.665771
646 0 1 5.272440 7.831906 673.797485
647 0 1 5.824810 7.634836 673.031128
648 0 1 6.173200 7.541264 672.104614
649 0 1 6.612380 7.862111 671.289490
650 0 1 7.214083 8.219628 670.623169
651 0 1 7.737711 8.220192 669.808105
652 0 1 8.073615 8.247411 668.930115
653 0 1 8.450480 8.571523 668.060486
654 0 1 8.713050 8.932927 667.247070
655 0 1 9.198480 9.441540 666.571289
656 0 1 9.810190 9.851730 665.971313
657 0 1 10.433790 9.986990 665.264893
658 0 1 10.846420 10.337910 664.510193
659 0 1 11.343040 10.688980 663.697083
660 0 1 11.697110 10.875210 662.890625
661 0 1 12.004160 11.222850 662.080994
662 0 1 11.939450 11.666850 661.225403
663 0 1 11.975470 12.137730 660.396790
664 0 1 11.902770 12.158260 659.345581
665 0 1 11.728650 12.044280 658.338196
666 0 1 11.516380 11.924730 657.400024
667 0 1 11.193710 11.437860 656.583191
668 0 1 11.034570 10.763760 655.886597
669 0 1 11.034930 10.158730 655.054688
670 0 1 10.990690 9.603360 654.315002
671 0 1 10.879860 8.844168 653.657227
672 0 1 11.021230 8.087381 653.046997
673 0 1 11.045830 7.158460 652.646729
674 0 1 10.953850 6.377760 652.075073
675 0 1 10.511209 5.798340 651.442383
676 0 1 10.085330 5.347640 650.741211
677 0 1 9.934731 4.584980 650.085083
678 0 1 10.050190 3.946110 649.368591
679 0 1 9.925310 3.626770 648.500122
680 0 1 10.063271 3.377730 647.602173
681 0 1 10.241130 3.208180 646.679688
682 0 1 10.203011 3.303480 645.745117
683 0 1 10.306200 3.826840 644.887085
684 0 1 10.286850 4.246590 644.036072
685 0 1 10.597020 4.493200 643.195618
686 0 1 10.717000 5.006500 642.307495
687 0 1 10.777910 5.471540 641.503418
688 0 1 10.748980 5.683660 640.563293
689 0 1 10.842120 5.996990 639.631226
690 0 1 11.180759 6.114640 638.735107
691 0 1 11.409210 6.187840 637.816833
692 0 1 11.468390 6.326180 636.865295
693 0 1 11.143681 6.357170 635.938599
694 0 1 10.698250 6.100980 635.134338
695 0 1 10.162189 5.689100 634.437439
696 0 1 9.756370 5.538920 633.639771
697 0 1 9.499280 5.229510 632.773071
698 0 1 8.852763 5.076130 632.114624
699 0 1 8.136699 5.079310 631.405090
700 0 1 7.420539 5.069330 630.707642
701 0 1 6.829960 5.456110 629.918945
702 0 1 6.170690 5.838960 629.310181
703 0 1 5.734280 6.350510 628.651123
704 0 1 5.209180 7.008042 628.184570
705 0 1 4.666510 7.535317 627.612061
706 0 1 4.040440 8.092601 626.942627
707 0 1 3.623280 8.643245 626.234741
708 0 1 3.375370 9.056880 625.370117
709 0 1 3.081420 9.630490 624.680847
710 0 1 3.233880 9.926680 623.781860
711 0 1 3.447600 10.311860 622.874817
712 0 1 3.493930 10.711010 621.970398
713 0 1 3.344180 10.748390 621.030823
714 0 1 3.621650 10.823900 620.085327
715 0 1 3.968980 10.947150 619.201172
716 0 1 4.280250 11.093990 618.334778
717 0 1 4.687770 11.015380 617.502808
718 0 1 4.883740 11.005820 616.610779
719 0 1 5.003810 11.033270 615.651123
720 0 1 4.738580 11.254520 614.735779
721 0 1 4.489880 11.542850 613.869629
722 0 1 4.234540 12.069220 613.091125
723 0 1 4.076770 12.490459 612.235291
724 0 1 3.977100 12.631110 611.333496
725 0 1 3.946700 12.675100 610.448975
726 0 1 4.045830 12.764151 609.528198
727 0 1 3.968080 12.902030 608.600281
728 0 1 3.826420 12.921289 607.653809
729 0 1 3.938020 12.911390 606.704102
730 0 1 4.240080 12.460529 605.787415
731 0 1 4.432380 11.994390 604.968689
732 0 1 4.751410 11.919160 604.025818
733 0 1 5.052990 11.671460 603.182617
734 0 1 5.140600 11.384000 602.260803
735 0 1 5.360270 11.114861 601.396301
736 0 1 5.191880 10.581020 600.578125
737 0 1 5.030180 10.327880 599.657898
738 0 1 4.953580 9.819540 598.801270
739 0 1 5.044160 9.442010 597.989014
740 0 1 5.235350 9.180150 597.065491
741 0 1 5.558610 9.017860 596.241821
742 0 1 5.636580 8.698510 595.334595
743 0 1 5.690530 8.619243 594.364197
744 0 1 5.806200 8.751023 593.382080
745 0 1 5.946460 8.758527 592.376221
746 0 1 6.132930 8.942270 591.447510
747 0 1 6.159980 8.876719 590.459900
748 0 1 6.464820 8.680670 589.572510
749 0 1 6.741840 8.697632 588.674988
750 0 1 6.840560 8.905873 587.723877
751 0 1 6.898200 9.229480 586.788818
752 0 1 6.964160 9.494310 585.912415
753 0 1 7.087333 9.710070 585.005615
754 0 1 7.318534 10.160500 584.165588
755 0 1 7.282951 10.693200 583.386292
756 0 1 7.395965 11.369820 582.667114
757 0 1 7.154808 11.844320 581.817810
758 0 1 7.029496 12.227140 580.943726
759 0 1 7.009789 12.714560 580.111816
760 0 1 7.211253 12.738581 579.165283
761 0 1 7.283153 12.506390 578.215698
762 0 1 7.394848 12.434259 577.286926
763 0 1 7.655925 12.360889 576.289673
764 0 1 7.615781 12.142879 575.362488
765 0 1 7.470574 12.327690 574.392517
766 0 1 7.270958 11.964640 573.560425
767 0 1 6.974540 11.438800 572.789917
768 0 1 6.697600 11.131150 571.937622
769 0 1 6.310180 11.062690 571.097412
770 0 1 5.833880 10.709670 570.320496
771 0 1 5.450390 10.631790 569.457214
772 0 1 5.376130 10.701750 568.549988
773 0 1 5.332780 10.616730 567.572876
774 0 1 5.391120 10.539249 566.630676
775 0 1 5.783090 10.692020 565.803711
776 0 1 6.134470 10.806520 564.907593
777 0 1 6.470860 10.616460 564.083374
778 0 1 6.869600 10.219760 563.255005
779 0 1 7.398024 9.752340 562.633606
780 0 1 7.753339 9.253100 561.943726
781 0 1 7.984449 8.773464 561.142517
782 0 1 8.126056 8.421308 560.204590
783 0 1 8.218599 8.275940 559.170898
784 0 1 8.073714 8.278394 558.212585
785 0 1 7.756654 8.391491 557.287720
786 0 1 7.646854 8.489643 556.349792
787 0 1 7.415274 8.780651 555.425598
788 0 1 7.160211 8.898538 554.475525
789 0 1 6.801860 9.164670 553.542725
790 0 1 6.660840 9.368610 552.546875
791 0 1 6.804670 9.903040 551.753906
792 0 1 6.791330 10.236810 550.867981
793 0 1 6.986460 10.520760 550.021606
794 0 1 7.069095 10.800500 549.107788