LAMMPS data file via MDAnalysis

        1000  atoms
        1000  bonds
        1000  angles
           0  dihedrals
           0  impropers

           1  atom types
           1  bond types
           1  angle types
           0  dihedral types
           0  improper types

0.000000 16.000000 xlo xhi
0.000000 16.000000 ylo yhi
0.000000 1257.000000 zlo zhi


Masses

1 1.000000

Atoms

1 0 1 10.935820 5.155460 459.096985
2 0 1 10.920480 6.046870 459.423004
3 0 1 10.781460 6.941620 459.809998
4 0 1 10.398220 7.731473 460.296021
5 0 1 10.121690 8.255058 461.065979
6 0 1 9.704970 8.799214 461.776001
7 0 1 9.798540 9.629960 462.265015
8 0 1 9.883180 10.277730 462.983002
9 0 1 9.807230 10.736210 463.799988
10 0 1 10.028350 11.039450 464.674011
11 0 1 9.985910 10.962430 465.596008
12 0 1 9.796380 10.830020 466.520996
13 0 1 9.791460 10.647200 467.434998
14 0 1 9.785270 10.247450 468.395996
15 0 1 9.662800 9.856220 469.251007
16 0 1 9.758090 9.746410 470.218018
17 0 1 9.665520 9.467790 471.177979
18 0 1 9.737420 9.324250 472.130005
19 0 1 9.329180 8.948235 472.908997
20 0 1 8.786633 8.525727 473.604980
21 0 1 8.370179 8.076985 474.320007
22 0 1 7.750474 7.668831 474.937988
23 0 1 7.192017 7.304345 475.664001
24 0 1 6.666100 7.206815 476.450989
25 0 1 6.564470 7.042387 477.388000
26 0 1 6.448570 6.716860 478.304993
27 0 1 6.303170 6.723280 479.261993
28 0 1 6.367150 6.680290 480.187988
29 0 1 6.162270 6.686640 481.128998
30 0 1 5.936470 6.813150 482.057983
31 0 1 5.649200 7.198212 482.893005
32 0 1 5.417660 7.548004 483.781006
33 0 1 5.401570 7.894484 484.739014
34 0 1 5.092850 8.146290 485.628998
35 0 1 4.704830 8.572265 486.373993
36 0 1 4.395830 9.180090 487.044983
37 0 1 4.320620 9.821800 487.755981
38 0 1 4.387740 10.468510 488.510010
39 0 1 4.702140 10.675270 489.395020
40 0 1 4.605250 10.782579 490.330994
41 0 1 4.485970 11.079150 491.248993
42 0 1 4.127290 11.263950 492.114014
43 0 1 4.007920 11.445570 493.057983
44 0 1 4.175070 11.504840 493.981018
45 0 1 4.456230 11.466840 494.994019
46 0 1 4.947420 11.496650 495.799988
47 0 1 5.438240 11.773310 496.557983
48 0 1 5.900010 11.844090 497.377991
49 0 1 6.521300 12.034140 498.143005
50 0 1 6.838270 12.169840 499.036011
51 0 1 7.096859 12.211840 499.957001
52 0 1 7.153275 12.276920 500.919006
53 0 1 7.306792 12.608931 501.912994
54 0 1 7.477905 12.784070 502.820984
55 0 1 7.449626 12.780001 503.789001
56 0 1 7.568892 12.943581 504.799011
57 0 1 7.749301 13.008250 505.859009
58 0 1 7.801217 13.078590 506.807007
59 0 1 7.669479 12.957689 507.703003
60 0 1 7.518218 12.456520 508.516998
61 0 1 7.310411 11.942260 509.328003
62 0 1 7.048470 11.696011 510.252014
63 0 1 6.771660 11.303840 511.057007
64 0 1 6.611560 10.995600 511.971985
65 0 1 6.471760 10.731610 512.924988
66 0 1 6.736040 10.636311 513.839966
67 0 1 6.825420 10.555490 514.768982
68 0 1 7.101864 10.161119 515.648987
69 0 1 7.456042 9.797970 516.427002
70 0 1 8.061900 9.754340 517.169006
71 0 1 8.482697 9.787820 518.002014
72 0 1 8.771234 9.675710 518.947998
73 0 1 9.165860 9.392910 519.742981
74 0 1 9.416950 9.260100 520.729004
75 0 1 9.632110 8.979774 521.638977
76 0 1 10.154140 8.617286 522.320007
77 0 1 10.688390 8.033904 522.901001
78 0 1 10.981540 7.445220 523.677979
79 0 1 10.832130 7.005663 524.526001
80 0 1 10.795919 6.830800 525.468018
81 0 1 10.756100 6.585720 526.379028
82 0 1 10.627100 6.213860 527.228027
83 0 1 10.424510 5.915280 528.167969
84 0 1 9.968710 5.740050 529.070923
85 0 1 9.662251 5.776240 530.050781
86 0 1 9.387420 6.035300 530.884521
87 0 1 9.178790 6.181100 531.877197
88 0 1 9.074160 6.097910 532.824829
89 0 1 8.965541 5.933590 533.784119
90 0 1 8.871991 5.830090 534.783875
91 0 1 9.069520 5.644020 535.758789
92 0 1 9.184990 5.576080 536.711792
93 0 1 8.896356 5.253740 537.535034
94 0 1 8.742727 5.332260 538.486694
95 0 1 8.316728 5.580610 539.320312
96 0 1 7.846192 5.784940 540.156372
97 0 1 7.309016 5.912220 540.949402
98 0 1 7.135499 5.876380 541.871704
99 0 1 6.967590 5.965030 542.932983
100 0 1 6.657330 6.212520 543.821899
101 0 1 6.470770 6.506290 544.764709
102 0 1 6.288370 6.619360 545.725281
103 0 1 5.882140 6.943230 546.622803
104 0 1 5.796180 7.477689 547.520325
105 0 1 5.655290 8.054090 548.275879
106 0 1 6.006590 8.734059 548.828918
107 0 1 5.995320 9.423410 549.550415
108 0 1 6.117170 9.910870 550.395325
109 0 1 5.972080 10.369580 551.186096
110 0 1 5.990360 10.893560 552.037720
111 0 1 5.710610 11.178010 552.982422
112 0 1 5.857950 11.458090 553.846924
113 0 1 6.341310 11.684760 554.637573
114 0 1 6.816500 11.901390 555.438904
115 0 1 7.171583 11.769500 556.363770
116 0 1 7.346875 11.703030 557.366516
117 0 1 7.327164 11.388580 558.316528
118 0 1 7.092204 11.045400 559.275879
119 0 1 6.925420 10.841681 560.158386
120 0 1 6.796290 10.658700 561.077515
121 0 1 6.840860 10.392490 561.983704
122 0 1 6.585170 10.095010 562.864075
123 0 1 6.307970 9.827271 563.716003
124 0 1 5.954860 9.568810 564.610107
125 0 1 5.873460 9.208460 565.440430
126 0 1 5.890370 8.667009 566.278076
127 0 1 5.805960 8.277844 567.146790
128 0 1 5.456010 7.584626 567.721191
129 0 1 5.194620 7.294818 568.587402
130 0 1 5.043720 7.154007 569.516968
131 0 1 4.916950 7.039207 570.461792
132 0 1 4.661550 6.863820 571.368896
133 0 1 4.475950 6.798820 572.327087
134 0 1 4.116160 6.831240 573.229004
135 0 1 3.861570 7.003449 574.135681
136 0 1 3.536740 7.237328 575.043579
137 0 1 3.464560 7.383760 575.998901
138 0 1 3.607320 7.518327 576.944885
139 0 1 4.029110 7.563281 577.792175
140 0 1 4.488900 7.517058 578.624878
141 0 1 4.793650 7.455260 579.507080
142 0 1 5.101070 7.022248 580.384827
143 0 1 5.172670 6.378260 581.034973
144 0 1 5.384770 5.744530 581.807129
145 0 1 5.859070 5.591010 582.695801
146 0 1 6.300370 5.402100 583.469116
147 0 1 6.611850 5.169170 584.313293
148 0 1 6.572200 5.088760 585.224487
149 0 1 6.709250 4.846940 586.130310
150 0 1 7.056168 4.846720 587.060120
151 0 1 7.415778 5.324940 587.754211
152 0 1 7.705134 5.856720 588.451599
153 0 1 8.054309 6.464880 589.183899
154 0 1 8.131376 7.284128 589.869873
155 0 1 8.185852 7.910089 590.574524
156 0 1 8.561484 8.327992 591.348022
157 0 1 8.645765 8.678321 592.260010
158 0 1 8.350800 8.891104 593.168884
159 0 1 8.188960 9.215760 594.070496
160 0 1 8.238294 9.682910 594.883301
161 0 1 8.125198 10.332750 595.566895
162 0 1 8.151871 10.720670 596.513000
163 0 1 8.293847 10.840179 597.560974
164 0 1 7.938806 10.948570 598.469788
165 0 1 7.608009 11.120150 599.361206
166 0 1 7.434053 11.228730 600.385498
167 0 1 7.553650 11.296550 601.339294
168 0 1 7.453491 11.204910 602.286987
169 0 1 7.292737 10.868540 603.153381
170 0 1 7.037384 10.714130 604.150391
171 0 1 6.701890 10.426460 605.007629
172 0 1 6.235090 9.913330 605.646973
173 0 1 5.753230 9.414640 606.342102
174 0 1 5.221510 8.856919 606.864014
175 0 1 4.780300 8.409497 607.572388
176 0 1 4.375880 8.007203 608.348572
177 0 1 4.110380 7.668751 609.275513
178 0 1 3.823730 7.255874 610.113281
179 0 1 3.624790 6.811710 610.979980
180 0 1 3.820960 6.467310 611.875793
181 0 1 4.137500 6.020450 612.659485
182 0 1 4.526090 5.512850 613.353699
183 0 1 4.879270 4.704660 613.955872
184 0 1 5.170940 4.050640 614.638428
185 0 1 5.471260 3.668040 615.453979
186 0 1 5.496470 3.433160 616.348816
187 0 1 5.575320 3.278450 617.283325
188 0 1 5.961240 2.987730 618.091797
189 0 1 6.460060 2.597460 618.858582
190 0 1 6.534180 2.157780 619.674805
191 0 1 6.474110 2.001480 620.626831
192 0 1 6.539860 2.022820 621.601562
193 0 1 6.531260 2.471640 622.460510
194 0 1 6.409830 3.048660 623.187073
195 0 1 6.234290 3.566620 624.001709
196 0 1 6.139830 3.853130 624.948059
197 0 1 6.275330 4.263290 625.771240
198 0 1 6.343450 4.485660 626.677368
199 0 1 6.178780 4.713070 627.552490
200 0 1 6.085760 4.793750 628.539795
201 0 1 5.779290 5.048210 629.479614
202 0 1 5.780290 5.473460 630.311768
203 0 1 5.799150 6.029040 631.044373
204 0 1 5.803310 6.669830 631.767273
205 0 1 5.546870 7.029721 632.643799
206 0 1 5.523720 7.371117 633.536865
207 0 1 5.514270 7.421960 634.550659
208 0 1 5.609360 7.496735 635.493835
209 0 1 5.872990 7.384786 636.441101
210 0 1 6.068320 7.504329 637.323303
211 0 1 6.175260 7.220087 638.212219
212 0 1 5.987200 7.107504 639.159912
213 0 1 5.830620 7.087512 640.080322
214 0 1 5.588120 7.150431 641.000488
215 0 1 5.371910 7.729426 641.684570
216 0 1 5.236470 8.151678 642.502197
217 0 1 5.252970 8.480314 643.358093
218 0 1 5.556890 8.677312 644.245605
219 0 1 5.840770 8.844262 645.173828
220 0 1 5.958790 8.979269 646.195312
221 0 1 5.844520 8.997178 647.143372
222 0 1 5.936470 9.170360 648.054871
223 0 1 6.086500 9.178150 649.010986
224 0 1 6.459920 9.390790 649.908691
225 0 1 6.797250 9.655360 650.716309
226 0 1 7.050304 9.976290 651.606995
227 0 1 7.468012 10.087920 652.515503
228 0 1 8.144757 10.168270 653.195496
229 0 1 8.725063 10.601950 653.818787
230 0 1 9.377200 11.194790 654.260376
231 0 1 10.025770 11.591510 654.913513
232 0 1 10.716440 12.183990 655.495422
233 0 1 11.113110 12.649850 656.207825
234 0 1 11.576139 12.860189 657.080200
235 0 1 11.768150 13.160470 657.942871
236 0 1 11.689450 12.788700 658.795898
237 0 1 11.469049 12.305510 659.715576
238 0 1 11.051540 11.847730 660.468506
239 0 1 11.071090 11.341410 661.308105
240 0 1 11.075080 10.937571 662.226501
241 0 1 11.152220 10.513500 663.098694
242 0 1 11.319241 10.390430 664.025574
243 0 1 11.560480 10.365760 665.004822
244 0 1 11.400990 10.434190 665.866577
245 0 1 11.142580 10.215020 666.822632
246 0 1 10.875560 10.113280 667.774109
247 0 1 10.869550 10.021280 668.697693
248 0 1 10.598510 9.691440 669.585815
249 0 1 10.703880 9.480710 670.566772
250 0 1 11.094700 9.183290 671.467529
251 0 1 11.290649 8.664820 672.216675
252 0 1 11.425859 8.180194 673.047607
253 0 1 11.582930 7.742030 673.889709
254 0 1 11.783160 7.312189 674.660706
255 0 1 12.078290 6.830360 675.466003
256 0 1 12.019620 6.218780 676.218079
257 0 1 12.038280 5.692900 677.011414
258 0 1 11.988950 5.254620 677.911926
259 0 1 12.297640 5.029000 678.763977
260 0 1 12.510000 4.685860 679.656128
261 0 1 12.640409 4.706130 680.642090
262 0 1 13.006081 4.754770 681.509094
263 0 1 13.039070 5.186700 682.440491
264 0 1 13.179670 5.165080 683.423401
265 0 1 13.212690 5.529560 684.343384
266 0 1 13.152140 5.723950 685.273193
267 0 1 12.897200 5.520240 686.161926
268 0 1 12.696620 5.108380 687.052795
269 0 1 12.460569 4.989030 687.960815
270 0 1 12.085899 4.986330 688.855225
271 0 1 11.625669 5.012950 689.708130
272 0 1 11.126870 5.066730 690.570923
273 0 1 10.627980 5.194490 691.385681
274 0 1 10.311800 5.166180 692.315002
275 0 1 10.120860 5.104620 693.260498
276 0 1 10.013500 5.275890 694.251099
277 0 1 9.875140 5.821950 695.103271
278 0 1 9.783400 6.375600 695.903931
279 0 1 9.689470 6.655480 696.812988
280 0 1 9.365460 6.889810 697.678833
281 0 1 9.183710 7.239574 698.509888
282 0 1 8.872689 7.678072 699.345703
283 0 1 8.454672 8.411203 699.813293
284 0 1 8.069072 9.094700 700.391113
285 0 1 7.732069 9.607290 701.144409
286 0 1 7.591214 10.087340 702.005493
287 0 1 7.539996 10.415190 702.922729
288 0 1 7.282084 10.576990 703.866516
289 0 1 6.899600 10.852780 704.741516
290 0 1 6.603670 11.111470 705.653015
291 0 1 6.602650 11.151370 706.589966
292 0 1 6.840500 11.045540 707.519714
293 0 1 7.055245 10.516190 708.331177
294 0 1 7.392984 10.028470 709.024170
295 0 1 7.786560 9.580620 709.778320
296 0 1 8.227113 9.213420 710.517395
297 0 1 8.763859 9.071850 711.266174
298 0 1 9.024110 8.763041 712.088379
299 0 1 9.048840 8.538726 713.049988
300 0 1 9.254930 8.386083 713.963989
301 0 1 9.305870 8.532903 714.910095
302 0 1 9.473240 8.744897 715.859314
303 0 1 9.498800 8.804120 716.813599
304 0 1 9.464820 9.129610 717.774109
305 0 1 9.063020 9.420310 718.649475
306 0 1 8.558565 9.542640 719.436523
307 0 1 8.074141 9.641890 720.260132
308 0 1 7.673124 9.891330 721.141785
309 0 1 7.318575 10.108750 721.983826
310 0 1 6.871620 10.359420 722.724487
311 0 1 6.527920 10.546270 723.646729
312 0 1 6.171200 10.748210 724.538208
313 0 1 6.028860 10.545040 725.462891
314 0 1 5.712630 10.335150 726.370178
315 0 1 5.670260 10.273000 727.311401
316 0 1 6.115710 10.146290 728.183777
317 0 1 6.600930 9.877850 728.955017
318 0 1 7.028382 9.775580 729.843994
319 0 1 7.653748 9.597740 730.520020
320 0 1 8.364262 9.459020 731.174011
321 0 1 9.018900 9.308710 731.796021
322 0 1 9.330860 9.075480 732.690979
323 0 1 9.917790 9.068150 733.473022
324 0 1 10.597919 9.012070 734.237000
325 0 1 11.184240 8.747191 734.968994
326 0 1 11.527480 8.567646 735.781006
327 0 1 12.127310 8.476540 736.664001
328 0 1 12.593309 8.158389 737.442993
329 0 1 13.132240 7.993633 738.219971
330 0 1 13.597270 7.762100 739.010986
331 0 1 13.813570 7.793250 739.921997
332 0 1 13.852510 7.984826 740.885010
333 0 1 13.655090 8.092339 741.809021
334 0 1 13.332270 8.166480 742.656982
335 0 1 13.033810 8.434089 743.526978
336 0 1 12.551070 8.364559 744.365967
337 0 1 12.365789 8.532115 745.280029
338 0 1 12.109370 8.446165 746.203979
339 0 1 11.910049 8.157648 747.083008
340 0 1 11.928690 7.738819 747.973022
341 0 1 12.074369 7.558080 748.914978
342 0 1 12.105380 7.252682 749.830017
343 0 1 12.030510 6.894380 750.679993
344 0 1 11.943950 6.251810 751.533997
345 0 1 12.057631 5.577670 752.192017
346 0 1 11.955490 4.911540 752.916016
347 0 1 11.841909 4.440550 753.778015
348 0 1 11.509190 3.930720 754.541992
349 0 1 11.190720 3.423610 755.255981
350 0 1 10.963170 3.040650 756.080017
351 0 1 11.001820 2.700570 756.976990
352 0 1 10.839640 2.308150 757.838013
353 0 1 10.686670 2.201870 758.869995
354 0 1 10.617040 2.281620 759.864990
355 0 1 10.348010 2.077300 760.710022
356 0 1 10.135660 1.875210 761.612000
357 0 1 9.858790 1.740020 762.513000
358 0 1 9.603710 1.872370 763.403015
359 0 1 9.503810 1.867980 764.398987
360 0 1 9.203240 1.958730 765.296997
361 0 1 8.982411 1.763600 766.200989
362 0 1 9.106610 1.844120 767.167969
363 0 1 9.297940 1.910910 768.161987
364 0 1 9.225840 1.917720 769.085999
365 0 1 8.812936 1.893580 769.995972
366 0 1 8.674026 1.901120 770.927002
367 0 1 8.775092 2.055380 771.853027
368 0 1 9.031580 2.057520 772.828979
369 0 1 9.240530 2.042510 773.794006
370 0 1 8.866650 1.994650 774.770996
371 0 1 8.580679 2.241720 775.624023
372 0 1 8.461872 2.388920 776.578979
373 0 1 8.196940 2.364090 777.483032
374 0 1 8.232481 2.253600 778.408020
375 0 1 8.449434 2.170790 779.306030
376 0 1 8.464917 1.934070 780.223022
377 0 1 8.451619 1.997300 781.229004
378 0 1 8.266782 1.916300 782.169006
379 0 1 8.495988 1.902280 783.077026
380 0 1 8.495457 1.710150 784.065979
381 0 1 8.532750 1.468390 784.994019
382 0 1 8.757774 1.370940 785.952026
383 0 1 9.236310 1.861920 786.619019
384 0 1 9.740870 2.322230 787.338013
385 0 1 10.192500 2.771260 788.062988
386 0 1 10.659190 2.921980 788.895996
387 0 1 11.036940 3.038680 789.786011
388 0 1 11.405050 3.146620 790.661011
389 0 1 11.691170 2.829160 791.478027
390 0 1 11.872690 2.721300 792.405029
391 0 1 11.876280 2.725290 793.385010
392 0 1 11.802250 2.891800 794.304016
393 0 1 11.942640 3.042340 795.265015
394 0 1 11.993210 3.112850 796.250977
395 0 1 11.895600 2.981330 797.221985
396 0 1 11.702909 2.724020 798.113037
397 0 1 11.485730 2.737200 799.002014
398 0 1 11.026649 2.799680 799.900024
399 0 1 10.440440 3.166880 800.622009
400 0 1 9.967030 3.516760 801.471985
401 0 1 9.265540 3.570520 802.229980
402 0 1 8.680126 3.596820 802.953003
403 0 1 8.171069 3.527790 803.742981
404 0 1 7.725858 3.362980 804.664001
405 0 1 7.418783 3.263870 805.523987
406 0 1 7.229427 3.183650 806.421997
407 0 1 6.935060 3.041020 807.320984
408 0 1 6.926950 3.113090 808.223999
409 0 1 7.001131 3.288370 809.127991
410 0 1 7.128101 3.219190 810.101990
411 0 1 7.252269 3.320960 811.042969
412 0 1 7.441365 3.300350 811.994019
413 0 1 7.902943 3.119330 812.856995
414 0 1 8.217300 3.083320 813.775024
415 0 1 8.215942 2.954100 814.765015
416 0 1 8.165806 2.872000 815.757996
417 0 1 8.431324 2.973270 816.682983
418 0 1 8.506394 3.262690 817.606995
419 0 1 8.432497 3.432490 818.619019
420 0 1 8.250448 3.614250 819.507996
421 0 1 8.159483 3.527740 820.434998
422 0 1 7.679200 3.555120 821.231995
423 0 1 7.369501 3.677210 822.145996
424 0 1 7.102519 4.010870 822.981995
425 0 1 6.828120 4.597430 823.653992
426 0 1 6.400730 5.131610 824.286987
427 0 1 6.385590 5.492670 825.174011
428 0 1 6.300190 5.689990 826.109009
429 0 1 6.336330 5.628070 827.020020
430 0 1 6.131050 5.297870 827.898987
431 0 1 5.642330 5.135910 828.738037
432 0 1 5.386850 4.821650 829.624023
433 0 1 5.179870 4.392890 830.463013
434 0 1 5.356970 4.280820 831.421021
435 0 1 5.653580 4.235080 832.385986
436 0 1 6.067310 4.144050 833.233032
437 0 1 6.586590 4.276900 834.096008
438 0 1 7.337187 4.573150 834.763000
439 0 1 8.095288 4.980050 835.184021
440 0 1 8.517081 5.653660 835.745972
441 0 1 8.948533 6.390730 836.198975
442 0 1 9.038800 7.117755 836.851013
443 0 1 9.130960 7.891622 837.389038
444 0 1 9.276230 8.695397 837.953979
445 0 1 9.367560 9.659520 838.190002
446 0 1 9.367410 10.629100 838.242981
447 0 1 9.223470 11.441200 837.827026
448 0 1 8.767568 11.936260 837.146973
449 0 1 8.313730 12.566100 836.541992
450 0 1 8.005555 13.242820 835.854004
451 0 1 7.999177 13.824090 835.160034
452 0 1 7.939054 14.433650 834.382019
453 0 1 8.046968 14.738150 833.505005
454 0 1 8.419502 14.859390 832.622009
455 0 1 8.579747 14.579430 831.723022
456 0 1 8.877598 14.377260 830.833008
457 0 1 9.233521 14.098970 830.026001
458 0 1 9.403120 13.879590 829.101990
459 0 1 9.786660 13.702450 828.273987
460 0 1 10.334740 13.373990 827.570984
461 0 1 10.652790 13.166690 826.708008
462 0 1 10.941110 13.222330 825.815002
463 0 1 10.956310 13.264500 824.828979
464 0 1 10.891400 13.146820 823.858032
465 0 1 10.675740 12.797530 822.963013
466 0 1 10.383150 12.669710 822.122009
467 0 1 10.176991 12.644400 821.182983
468 0 1 10.035840 12.475531 820.213989
469 0 1 9.716290 12.199310 819.338013
470 0 1 9.348540 12.339170 818.410034
471 0 1 9.167050 12.421080 817.440979
472 0 1 9.473310 12.490990 816.533020
473 0 1 9.232710 12.566990 815.619995
474 0 1 9.138870 12.768620 814.619019
475 0 1 9.069160 12.873460 813.681030
476 0 1 8.862536 12.823170 812.708984
477 0 1 8.299025 12.658810 811.929016
478 0 1 7.664793 12.351419 811.257996
479 0 1 6.847210 12.188810 810.778992
480 0 1 6.110900 11.688550 810.476013
481 0 1 5.304540 11.333179 810.161011
482 0 1 4.635680 10.868020 809.641968
483 0 1 4.005950 10.258770 809.223022
484 0 1 3.456620 9.668060 808.731018
485 0 1 3.045240 9.092890 808.062988
486 0 1 3.094110 8.352975 807.481018
487 0 1 3.362850 7.714394 806.880981
488 0 1 3.748880 7.264227 806.174988
489 0 1 4.172780 6.853140 805.364014
490 0 1 4.533910 6.465250 804.578003
491 0 1 4.709120 6.107020 803.731018
492 0 1 5.053900 5.668540 802.940002
493 0 1 5.281290 4.946050 802.291992
494 0 1 5.426280 4.342590 801.557983
495 0 1 5.703700 3.828880 800.770996
496 0 1 6.053240 3.290850 800.005005
497 0 1 6.235470 3.001130 799.124023
498 0 1 6.681040 2.687920 798.377991
499 0 1 7.321958 2.772880 797.669983
500 0 1 7.686891 3.075750 796.903992
501 0 1 8.127261 3.562670 796.141968
502 0 1 8.652088 3.901540 795.445984
503 0 1 9.359591 4.336390 794.950989
504 0 1 10.054380 4.835880 794.492981
505 0 1 10.548990 5.097240 793.734009
506 0 1 10.857520 5.675830 793.041016
507 0 1 11.027500 6.196330 792.125000
508 0 1 11.432000 6.537890 791.278015
509 0 1 11.508220 6.837350 790.375000
510 0 1 11.672660 6.920850 789.367981
511 0 1 11.330240 7.122838 788.481018
512 0 1 11.503930 7.343875 787.567993
513 0 1 11.513411 7.649242 786.714966
514 0 1 11.370740 7.747833 785.799011
515 0 1 11.020470 7.962547 784.990967
516 0 1 10.502190 8.122701 784.226013
517 0 1 9.710610 8.269609 783.716003
518 0 1 9.107630 8.324097 782.921997
519 0 1 8.796689 8.412297 781.987000
520 0 1 8.664989 8.483645 781.000000
521 0 1 8.469515 8.698104 780.028992
522 0 1 8.265407 8.865120 779.125000
523 0 1 8.315290 8.835765 778.143982
524 0 1 8.645894 8.680035 777.234985
525 0 1 9.056960 8.708473 776.359009
526 0 1 9.505440 8.726587 775.515015
527 0 1 9.832760 8.774099 774.561035
528 0 1 10.135139 8.756217 773.666016
529 0 1 10.641670 8.559848 772.846985
530 0 1 10.941510 8.180653 771.995972
531 0 1 11.276279 7.868006 771.138000
532 0 1 11.532550 7.403154 770.359009
533 0 1 11.727680 6.869670 769.591003
534 0 1 11.975710 6.464170 768.708984
535 0 1 11.692650 5.937390 767.837036
536 0 1 11.557680 5.632660 766.922974
537 0 1 11.410049 5.352020 766.072998
538 0 1 11.003050 5.045990 765.285034
539 0 1 10.403130 4.716630 764.622986
540 0 1 9.805540 4.682550 763.768005
541 0 1 9.495200 4.948260 762.898010
542 0 1 9.397300 5.340240 762.013000
543 0 1 9.439350 5.843370 761.203003
544 0 1 9.868630 6.511910 760.431030
545 0 1 10.486219 6.924660 759.781006
546 0 1 10.847440 7.302998 758.945007
547 0 1 10.629230 7.821987 758.124023
548 0 1 10.579420 8.414339 757.410034
549 0 1 10.555020 8.950665 756.624023
550 0 1 10.495210 9.477000 755.835022
551 0 1 10.314990 9.970500 755.035034
552 0 1 10.078810 10.056850 754.073975
553 0 1 9.773450 10.090281 753.130981
554 0 1 9.696460 10.184860 752.182983
555 0 1 9.654300 10.536140 751.233032
556 0 1 9.419850 10.640680 750.304016
557 0 1 9.511070 10.471560 749.343994
558 0 1 9.386020 10.305970 748.460999
559 0 1 9.422380 10.064569 747.568970
560 0 1 9.729900 10.036921 746.638000
561 0 1 10.026140 10.070960 745.765991
562 0 1 10.230160 10.385509 744.903992
563 0 1 10.462800 10.542930 744.046021
564 0 1 10.663660 10.976030 743.192993
565 0 1 10.962490 11.590030 742.460022
566 0 1 11.149030 11.707880 741.572021
567 0 1 11.281500 12.100770 740.676025
568 0 1 11.094690 12.683889 739.906006
569 0 1 11.227350 13.153870 739.033020
570 0 1 11.201060 13.608749 738.189026
571 0 1 11.200730 13.863380 737.203003
572 0 1 11.150370 13.944500 736.208984
573 0 1 11.078480 13.773530 735.262024
574 0 1 10.674891 13.344160 734.505981
575 0 1 10.243020 12.907830 733.768005
576 0 1 10.001431 12.215160 733.150024
577 0 1 9.709740 11.574330 732.533020
578 0 1 9.618540 11.101780 731.671997
579 0 1 9.527030 10.769030 730.807007
580 0 1 9.173010 10.072190 730.155029
581 0 1 8.851483 9.825680 729.307983
582 0 1 8.505600 9.435960 728.512024
583 0 1 8.489451 8.816677 727.825806
584 0 1 8.655487 8.162573 727.212708
585 0 1 9.024270 7.526781 726.565613
586 0 1 9.327310 6.881420 725.886108
587 0 1 9.639860 6.411690 725.077271
588 0 1 10.020290 5.995240 724.278503
589 0 1 10.238450 5.577240 723.397583
590 0 1 10.379550 4.849660 722.728271
591 0 1 10.413800 4.341530 721.949097
592 0 1 10.431880 3.932470 721.042603
593 0 1 10.220380 3.803680 720.032104
594 0 1 9.945240 3.535020 719.145508
595 0 1 9.899370 3.519120 718.231018
596 0 1 10.193430 3.307660 717.254211
597 0 1 10.459970 3.105830 716.323914
598 0 1 10.604259 2.910520 715.278015
599 0 1 10.488640 2.938250 714.283691
600 0 1 10.622790 2.928120 713.370728
601 0 1 10.581881 2.941650 712.439331
602 0 1 10.282740 3.304070 711.622375
603 0 1 9.802320 3.651980 710.794617
604 0 1 9.272060 4.065970 710.027832
605 0 1 8.784816 4.492190 709.315613
606 0 1 8.318977 4.842930 708.514587
607 0 1 7.793150 5.007540 707.742676
608 0 1 7.260686 5.470190 707.041687
609 0 1 6.763840 5.939660 706.355286
610 0 1 5.978630 6.058270 705.742920
611 0 1 5.369390 6.122160 705.013672
612 0 1 4.897900 6.612810 704.363770
613 0 1 4.836060 7.149944 703.594971
614 0 1 4.841910 7.605177 702.718384
615 0 1 5.065870 7.855354 701.757019
616 0 1 5.072230 8.229472 700.880981
617 0 1 4.979300 8.410880 699.906189
618 0 1 5.201480 8.481996 699.008667
619 0 1 5.442220 8.398879 698.116394
620 0 1 5.577800 8.486073 697.157104
621 0 1 5.995480 8.387057 696.250183
622 0 1 6.447780 8.341714 695.358826
623 0 1 6.789990 8.006093 694.497681
624 0 1 7.166269 7.792598 693.651917
625 0 1 7.454111 7.443828 692.649170
626 0 1 7.699983 7.146723 691.677673
627 0 1 7.849213 6.892730 690.707275
628 0 1 8.141478 6.683680 689.821289
629 0 1 8.404981 6.347610 688.968811
630 0 1 8.443980 6.434050 688.022522
631 0 1 8.507917 6.423560 687.042114
632 0 1 8.922185 6.230990 686.204773
633 0 1 9.251020 5.893570 685.372192
634 0 1 9.553750 5.480620 684.508301
635 0 1 9.775050 5.153640 683.615112
636 0 1 9.947060 5.056830 682.662109
637 0 1 10.004930 5.205910 681.663574
638 0 1 10.057400 5.627180 680.838379
639 0 1 10.344570 5.499790 679.890808
640 0 1 10.549340 5.439480 679.007507
641 0 1 10.438690 5.539190 678.087219
642 0 1 10.413750 5.625290 677.197388
643 0 1 10.224490 5.869970 676.296692
644 0 1 10.027140 5.957840 675.330383
645 0 1 9.827390 6.041900 674.405090
646 0 1 9.806310 5.962590 673.448792
647 0 1 9.780630 6.038240 672.453491
648 0 1 9.444020 6.028990 671.504517
649 0 1 9.244320 6.327880 670.608826
650 0 1 9.266270 6.843310 669.742188
651 0 1 9.334300 7.445760 669.020691
652 0 1 9.630200 7.908362 668.278503
653 0 1 9.709200 8.233529 667.421814
654 0 1 9.901980 8.627541 666.541626
655 0 1 9.998170 9.170380 665.728699
656 0 1 10.095940 9.501470 664.846191
657 0 1 10.258990 9.774790 663.913818
658 0 1 10.184940 9.778090 663.000427
659 0 1 9.721630 10.085420 662.192200
660 0 1 9.128890 10.475630 661.484375
661 0 1 8.807156 10.925010 660.653015
662 0 1 8.158821 11.271690 659.971680
663 0 1 7.360146 11.869160 659.604614
664 0 1 6.568460 12.240829 659.203796
665 0 1 5.721940 12.561979 658.805786
666 0 1 5.024760 13.023310 658.296509
667 0 1 4.807600 13.308411 657.366699
668 0 1 4.825940 13.298600 656.368286
669 0 1 5.156330 13.170520 655.435913
670 0 1 5.655520 13.144310 654.623718
671 0 1 6.244380 13.002029 653.756287
672 0 1 6.626450 13.128550 652.915771
673 0 1 7.032046 13.412540 652.083008
674 0 1 7.264315 13.721500 651.195007
675 0 1 7.561216 13.952920 650.299377
676 0 1 8.004661 13.779030 649.440613
677 0 1 8.516029 13.687370 648.584106
678 0 1 8.996070 13.640190 647.789124
679 0 1 9.429940 13.581010 646.893982
680 0 1 9.995120 13.195650 646.187317
681 0 1 10.631890 13.165501 645.481201
682 0 1 10.857840 12.886810 644.601318
683 0 1 10.786090 12.535530 643.658691
684 0 1 10.985950 12.435989 642.714111
685 0 1 11.135310 12.527840 641.737915
686 0 1 10.951480 12.494770 640.791687
687 0 1 10.541380 12.582450 639.973206
688 0 1 10.123529 12.479100 639.106384
689 0 1 9.819390 12.451630 638.148010
690 0 1 9.304560 12.175520 637.343994
691 0 1 8.853890 12.053110 636.531494
692 0 1 8.625232 11.983210 635.597107
693 0 1 8.278566 12.228690 634.757996
694 0 1 7.776372 12.312321 633.933960
695 0 1 7.427400 12.526810 633.100220
696 0 1 7.162775 12.457450 632.140625
697 0 1 6.761580 12.180090 631.336731
698 0 1 6.438220 11.876910 630.496704
699 0 1 6.315810 11.433371 629.676270
700 0 1 6.293150 10.959140 628.837097
701 0 1 6.339510 10.715790 627.905884
702 0 1 6.388130 10.231689 627.093750
703 0 1 6.619940 9.752950 626.269348
704 0 1 7.001008 9.209810 625.563232
705 0 1 7.589621 8.950929 624.846558
706 0 1 8.029457 8.590207 624.095459
707 0 1 8.465101 8.235390 623.287720
708 0 1 8.731078 7.902131 622.348511
709 0 1 9.213970 7.517921 621.556091
710 0 1 9.552400 7.172338 620.785217
711 0 1 9.851970 6.697930 619.963318
712 0 1 10.302700 6.243860 619.125671
713 0 1 10.792160 5.926020 618.312378
714 0 1 11.307050 5.905930 617.526123
715 0 1 11.516390 5.679080 616.666992
716 0 1 11.480761 5.545040 615.748901
717 0 1 11.568640 5.573420 614.790222
718 0 1 11.542419 5.508710 613.818909
719 0 1 11.561150 5.614760 612.796509
720 0 1 11.658010 5.525320 611.813904
721 0 1 11.756190 5.290230 610.903931
722 0 1 11.647500 5.076480 609.851379
723 0 1 11.342290 4.713270 609.015808
724 0 1 11.082450 4.495290 608.167297
725 0 1 10.770510 4.496970 607.214722
726 0 1 10.233660 4.802970 606.507874
727 0 1 9.697340 4.908780 605.724182
728 0 1 9.292400 4.850900 604.864075
729 0 1 8.970827 4.673080 603.964783
730 0 1 8.768149 4.367110 603.050293
731 0 1 8.636984 4.190600 602.127197
732 0 1 8.449965 4.137940 601.185608
733 0 1 8.120110 4.026390 600.262512
734 0 1 7.964103 3.997440 599.320679
735 0 1 7.835004 4.117660 598.353210
736 0 1 7.747100 4.174410 597.422913
737 0 1 7.798348 4.060790 596.420898
738 0 1 7.735112 3.636050 595.494019
739 0 1 7.867538 3.378230 594.570801
740 0 1 7.809889 2.920470 593.711609
741 0 1 7.783763 2.565560 592.757568
742 0 1 7.672652 2.457920 591.825806
743 0 1 7.703124 2.374200 590.881226
744 0 1 7.993421 2.437600 589.944519
745 0 1 7.931099 2.527730 588.937622
746 0 1 8.024863 2.584420 587.958008
747 0 1 7.808273 2.792090 587.095886
748 0 1 7.921058 3.093550 586.216309
749 0 1 8.107998 3.410910 585.346069
750 0 1 8.364908 3.771030 584.497925
751 0 1 8.747604 4.177720 583.779297
752 0 1 9.243430 4.228420 582.890686
753 0 1 9.903860 4.467150 582.199707
754 0 1 10.624400 5.018210 581.742493
755 0 1 11.388680 5.345700 581.250000
756 0 1 11.966850 5.964200 580.784302
757 0 1 12.541620 6.347750 580.164795
758 0 1 13.120670 6.989990 579.675720
759 0 1 13.371560 7.422011 578.846985
760 0 1 13.454460 7.774583 577.933105
761 0 1 13.641541 8.130862 577.010803
762 0 1 13.682830 8.482919 576.135376
763 0 1 13.574270 8.975223 575.305481
764 0 1 13.687719 9.357300 574.457886
765 0 1 14.002840 9.381760 573.449402
766 0 1 14.033310 9.535070 572.473816
767 0 1 14.180670 9.419270 571.528687
768 0 1 14.199890 9.201240 570.599487
769 0 1 14.426081 9.019200 569.723389
770 0 1 14.589701 8.845071 568.788696
771 0 1 14.468660 9.041059 567.843018
772 0 1 14.408560 9.575160 567.076904
773 0 1 14.143570 9.951580 566.196106
774 0 1 13.904390 9.871030 565.216797
775 0 1 13.669400 9.831440 564.239624
776 0 1 13.488400 9.804950 563.290527
777 0 1 13.545020 9.724430 562.253418
778 0 1 13.399879 9.624920 561.287720
779 0 1 13.250240 9.623030 560.347168
780 0 1 13.045670 9.769990 559.410522
781 0 1 12.896310 10.068630 558.503296
782 0 1 12.816140 10.200150 557.558716
783 0 1 12.883280 10.527190 556.660034
784 0 1 12.813330 10.950080 555.853577
785 0 1 12.876680 11.005190 554.873718
786 0 1 13.084641 11.121960 553.909119
787 0 1 13.173100 11.314920 553.000366
788 0 1 12.984930 11.233380 552.052185
789 0 1 12.627069 11.204720 551.161133
790 0 1 12.707550 11.528880 550.271179