LAMMPS data file via MDAnalysis

        1000  atoms
        1000  bonds
        1000  angles
           0  dihedrals
           0  impropers

           1  atom types
           1  bond types
           1  angle types
           0  dihedral types
           0  improper types

0.000000 16.000000 xlo xhi
0.000000 16.000000 ylo yhi
0.000000 1257.000000 zlo zhi


Masses

1 1.000000

Atoms

1 0 1 12.248751 4.567770 452.294006
2 0 1 12.210190 4.731060 453.213013
3 0 1 12.107040 4.699850 454.187012
4 0 1 12.406960 4.737970 455.122009
5 0 1 12.406860 4.971880 456.031006
6 0 1 12.387051 5.564280 456.773987
7 0 1 12.234330 6.178690 457.455994
8 0 1 12.077400 6.528310 458.359985
9 0 1 11.908890 6.514720 459.385986
10 0 1 11.504560 6.153370 460.213989
11 0 1 10.923759 6.051840 461.000000
12 0 1 10.430550 5.970750 461.833984
13 0 1 10.136550 5.975040 462.748993
14 0 1 9.846220 5.849370 463.653015
15 0 1 10.017010 5.763170 464.647003
16 0 1 9.832470 6.024870 465.548004
17 0 1 9.976780 6.043010 466.520020
18 0 1 9.558530 5.815560 467.382996
19 0 1 9.271811 5.458720 468.212006
20 0 1 8.889767 4.984390 468.966980
21 0 1 8.613633 4.635540 469.742004
22 0 1 8.357236 4.332810 470.601990
23 0 1 8.408284 4.040090 471.492981
24 0 1 8.157687 3.878200 472.481018
25 0 1 7.832536 3.955260 473.364990
26 0 1 7.432607 4.072140 474.292999
27 0 1 7.186626 4.235700 475.253998
28 0 1 7.070872 4.407760 476.179993
29 0 1 7.041125 4.846010 477.046021
30 0 1 7.373837 5.199550 477.854004
31 0 1 7.614440 5.689830 478.671021
32 0 1 8.142859 5.946230 479.450012
33 0 1 8.645302 6.274390 480.126007
34 0 1 9.057510 6.797550 480.789001
35 0 1 9.346310 7.315908 481.589996
36 0 1 9.537410 7.832852 482.325012
37 0 1 9.946910 8.153530 483.108002
38 0 1 10.412720 8.508065 483.843994
39 0 1 10.611190 8.692089 484.746002
40 0 1 10.587640 8.801893 485.701996
41 0 1 10.446199 8.982253 486.604004
42 0 1 10.016769 8.790248 487.533997
43 0 1 9.807770 8.498829 488.444000
44 0 1 9.495950 8.077316 489.322998
45 0 1 9.284680 7.994385 490.229004
46 0 1 9.466350 7.670740 491.153992
47 0 1 9.782510 7.763739 492.010010
48 0 1 10.146210 7.913116 492.937988
49 0 1 10.287630 8.485927 493.710999
50 0 1 10.191960 9.268700 494.296997
51 0 1 10.012320 9.960810 494.867981
52 0 1 9.880870 10.788160 495.380981
53 0 1 9.415230 11.359410 495.910004
54 0 1 8.735370 11.858200 496.468994
55 0 1 8.301412 12.086710 497.315002
56 0 1 8.180478 12.045270 498.345001
57 0 1 8.019237 12.138660 499.312012
58 0 1 7.818490 12.149050 500.272003
59 0 1 7.726714 12.243629 501.259003
60 0 1 7.923541 12.423230 502.153015
61 0 1 8.135713 12.759010 502.985992
62 0 1 8.231149 13.025180 503.924011
63 0 1 8.626119 13.322451 504.799988
64 0 1 8.836750 13.362000 505.705017
65 0 1 9.298170 13.406429 506.570984
66 0 1 9.688710 13.382080 507.489014
67 0 1 10.025180 13.228550 508.358002
68 0 1 10.475910 12.805670 509.076996
69 0 1 10.780030 12.348550 509.940002
70 0 1 10.968170 11.696150 510.760010
71 0 1 11.160700 11.006310 511.388000
72 0 1 11.706320 10.810320 512.189026
73 0 1 12.037399 10.901580 513.083008
74 0 1 12.057950 10.954800 514.160034
75 0 1 12.022200 10.955111 515.080994
76 0 1 12.204420 11.147511 516.025024
77 0 1 12.149810 11.358760 516.976013
78 0 1 11.854740 11.627180 517.835999
79 0 1 11.494710 11.669590 518.740967
80 0 1 11.148790 11.693680 519.625000
81 0 1 10.824890 11.589310 520.601990
82 0 1 10.930450 11.522960 521.541992
83 0 1 11.092430 11.321910 522.445984
84 0 1 11.208981 11.051500 523.429016
85 0 1 10.929180 11.069230 524.388000
86 0 1 10.388550 10.935600 525.172974
87 0 1 10.209150 10.647570 526.122986
88 0 1 10.012120 10.414330 527.056030
89 0 1 9.606860 9.880490 527.763977
90 0 1 9.226550 9.333611 528.524597
91 0 1 9.002540 8.714597 529.189697
92 0 1 8.571097 8.090399 529.781616
93 0 1 8.184152 7.349695 530.264099
94 0 1 7.879514 6.609190 530.866333
95 0 1 7.563177 5.869480 531.424622
96 0 1 6.936070 5.315760 531.932495
97 0 1 6.287300 5.080370 532.591187
98 0 1 5.636470 4.853540 533.303406
99 0 1 5.119240 4.544810 534.076111
100 0 1 4.564000 4.254940 534.734375
101 0 1 4.027000 4.018720 535.556702
102 0 1 3.438760 4.024310 536.320496
103 0 1 3.011710 4.078550 537.209290
104 0 1 2.574930 4.251000 538.087219
105 0 1 2.328630 4.718170 538.917786
106 0 1 2.287760 4.988220 539.867920
107 0 1 2.199640 4.907850 540.811768
108 0 1 2.162450 5.112480 541.790222
109 0 1 2.299510 5.013600 542.705933
110 0 1 2.461600 4.697830 543.597412
111 0 1 2.576720 4.487110 544.506409
112 0 1 2.579370 4.613890 545.476807
113 0 1 2.775170 4.826320 546.379822
114 0 1 2.942740 4.855060 547.349731
115 0 1 3.102480 4.915290 548.361877
116 0 1 3.307660 5.135680 549.289185
117 0 1 3.557610 5.506070 550.132324
118 0 1 3.445500 5.899320 550.973816
119 0 1 3.412710 6.168110 551.895081
120 0 1 3.388880 6.333020 552.817200
121 0 1 3.454420 6.643630 553.756287
122 0 1 3.543840 6.594060 554.714478
123 0 1 3.394360 6.479680 555.657593
124 0 1 3.439310 6.120330 556.547180
125 0 1 3.403170 6.061710 557.459229
126 0 1 3.648280 5.725430 558.333984
127 0 1 3.629210 5.511680 559.261414
128 0 1 3.662430 5.125870 560.164001
129 0 1 3.646260 5.002320 561.094604
130 0 1 3.700980 5.029220 562.086792
131 0 1 3.671730 5.096390 563.013916
132 0 1 3.728460 5.029670 564.065002
133 0 1 4.056070 4.918940 565.028992
134 0 1 4.057250 4.739460 565.990417
135 0 1 4.201510 4.632160 566.925903
136 0 1 4.568470 4.295700 567.696228
137 0 1 4.965430 3.893670 568.436890
138 0 1 5.303950 3.520380 569.271118
139 0 1 5.416810 3.343340 570.185791
140 0 1 5.630650 3.225760 571.065796
141 0 1 6.038890 2.925700 571.935669
142 0 1 6.419130 2.725390 572.846619
143 0 1 6.802550 2.492560 573.741394
144 0 1 7.230689 2.348270 574.604614
145 0 1 7.584292 2.285340 575.504028
146 0 1 7.999500 2.271230 576.370911
147 0 1 8.492597 2.194170 577.336487
148 0 1 8.770880 1.986920 578.260620
149 0 1 8.936147 1.757120 579.189880
150 0 1 8.924609 1.557430 580.104614
151 0 1 8.850166 1.535070 581.053284
152 0 1 8.965431 1.410370 581.980469
153 0 1 8.956186 1.466650 582.961426
154 0 1 9.059180 1.405360 584.012390
155 0 1 8.874856 1.567820 585.046997
156 0 1 8.459258 1.684000 585.869080
157 0 1 8.088849 1.937190 586.783569
158 0 1 7.494990 2.230650 587.517273
159 0 1 6.991560 2.839530 588.093384
160 0 1 6.457910 3.439920 588.631287
161 0 1 5.947150 4.051440 589.273621
162 0 1 5.461190 4.492170 589.982117
163 0 1 4.885810 4.955830 590.751526
164 0 1 4.397420 5.325540 591.500793
165 0 1 3.742290 5.693820 592.226929
166 0 1 3.117040 5.996860 593.026184
167 0 1 2.573700 6.538120 593.621521
168 0 1 2.108200 6.770290 594.508728
169 0 1 1.623290 7.239252 595.206909
170 0 1 1.106360 7.436734 596.031128
171 0 1 1.205380 7.411226 596.943420
172 0 1 1.471740 7.109651 597.798584
173 0 1 1.530060 6.470130 598.524414
174 0 1 1.944210 5.805190 599.038330
175 0 1 2.432130 5.202120 599.611389
176 0 1 3.145300 4.657440 599.910583
177 0 1 3.835790 4.382040 600.503906
178 0 1 4.388400 4.308450 601.253113
179 0 1 4.852920 4.061150 602.081787
180 0 1 5.213880 3.906590 602.912415
181 0 1 5.392860 3.634410 603.876709
182 0 1 5.529320 3.394960 604.876831
183 0 1 5.754840 3.212560 605.810913
184 0 1 6.154000 3.020750 606.692017
185 0 1 6.639070 3.040690 607.630798
186 0 1 7.204620 3.454860 608.401611
187 0 1 7.738128 3.856270 609.172302
188 0 1 8.134305 4.621430 609.602783
189 0 1 8.480523 5.379890 610.098694
190 0 1 8.836971 5.886930 610.866211
191 0 1 9.274200 6.074040 611.661499
192 0 1 9.837840 6.111430 612.474304
193 0 1 10.553340 6.042130 613.188904
194 0 1 11.084539 6.246900 614.042603
195 0 1 11.360690 6.449220 614.931396
196 0 1 11.454710 6.563740 615.892578
197 0 1 11.296510 6.991300 616.738281
198 0 1 11.076830 7.466080 617.574219
199 0 1 11.119061 7.905064 618.503296
200 0 1 11.048250 8.060740 619.415833
201 0 1 10.846581 8.414432 620.301086
202 0 1 10.811810 8.553345 621.255371
203 0 1 10.869640 8.761768 622.159485
204 0 1 11.053810 9.111600 623.055725
205 0 1 11.233829 9.461680 623.972473
206 0 1 11.418880 9.760180 624.826843
207 0 1 11.775260 10.200040 625.612122
208 0 1 12.066339 10.417230 626.474182
209 0 1 12.666260 10.345280 627.212341
210 0 1 13.137690 10.279119 627.980652
211 0 1 13.684860 9.895679 628.713501
212 0 1 14.207541 9.656120 629.504028
213 0 1 14.515030 9.348320 630.390808
214 0 1 14.690269 8.868627 631.198486
215 0 1 14.665930 8.629667 632.109863
216 0 1 14.615910 8.067401 632.894470
217 0 1 14.622180 7.759949 633.832825
218 0 1 14.672911 7.448550 634.755493
219 0 1 14.811810 7.330769 635.674744
220 0 1 14.529470 6.842540 636.438599
221 0 1 14.482600 6.381480 637.320312
222 0 1 14.180030 5.995860 638.174561
223 0 1 13.853670 5.909860 639.180298
224 0 1 13.775560 5.601100 640.089783
225 0 1 13.439671 5.528320 640.979492
226 0 1 12.975330 5.445000 641.793213
227 0 1 12.426270 5.688010 642.498474
228 0 1 11.759010 5.683850 643.194092
229 0 1 11.023540 5.754130 643.820679
230 0 1 10.212890 5.877290 644.375977
231 0 1 9.540280 6.194980 644.957214
232 0 1 9.158460 6.659040 645.642090
233 0 1 8.964000 6.949060 646.480103
234 0 1 8.917737 7.121114 647.410522
235 0 1 9.027530 6.917340 648.383789
236 0 1 8.905978 6.814670 649.370483
237 0 1 8.591013 6.844850 650.288879
238 0 1 8.446213 7.087276 651.211670
239 0 1 8.448568 7.388864 652.148010
240 0 1 8.451553 7.673355 653.091125
241 0 1 8.470076 7.734245 654.115417
242 0 1 8.510226 7.695082 655.067688
243 0 1 8.092038 7.722663 655.883972
244 0 1 7.752207 7.637786 656.802490
245 0 1 7.481132 7.366643 657.657715
246 0 1 7.620769 7.106246 658.533081
247 0 1 7.521039 6.636830 659.405579
248 0 1 7.461709 6.011810 660.188782
249 0 1 7.472253 5.481440 661.019287
250 0 1 7.341863 5.103210 661.930481
251 0 1 7.146525 4.500220 662.709595
252 0 1 6.741890 4.213140 663.539124
253 0 1 6.422840 3.750210 664.281616
254 0 1 6.128770 3.341030 665.088379
255 0 1 6.014970 3.112300 666.080078
256 0 1 6.057790 3.051290 667.060120
257 0 1 6.108360 2.994410 667.997803
258 0 1 6.431600 2.987240 668.917725
259 0 1 6.565890 2.889550 669.820312
260 0 1 6.814740 2.575550 670.671204
261 0 1 7.033269 2.062400 671.560974
262 0 1 7.278201 1.813470 672.405396
263 0 1 7.381164 1.709550 673.375977
264 0 1 7.629758 1.331340 674.176819
265 0 1 8.014544 1.197510 675.072083
266 0 1 8.520740 1.241100 675.854370
267 0 1 8.785223 1.602890 676.775696
268 0 1 8.712262 2.061350 677.689819
269 0 1 8.300423 2.711190 678.312927
270 0 1 7.946598 3.502030 678.825378
271 0 1 7.982350 4.217760 679.422729
272 0 1 7.841959 5.012630 679.898804
273 0 1 7.886503 5.584010 680.640381
274 0 1 8.077387 6.015240 681.473022
275 0 1 8.117984 6.284100 682.403015
276 0 1 8.109291 6.506190 683.370911
277 0 1 8.203322 6.498160 684.291870
278 0 1 8.292442 6.758570 685.198975
279 0 1 8.290045 7.021979 686.165100
280 0 1 8.530863 7.113968 687.125305
281 0 1 8.614942 7.097936 688.066711
282 0 1 8.681878 7.304003 689.004028
283 0 1 8.593781 7.456685 689.965576
284 0 1 8.560770 7.357731 690.985779
285 0 1 8.395579 6.995050 691.891907
286 0 1 8.383806 6.745640 692.888489
287 0 1 8.444596 6.319780 693.748291
288 0 1 8.297209 5.743840 694.598816
289 0 1 7.960930 4.945300 695.038391
290 0 1 7.357467 4.285030 695.463684
291 0 1 6.832540 3.790800 696.103516
292 0 1 6.359390 3.520550 696.868530
293 0 1 5.887720 3.437050 697.678833
294 0 1 5.536550 3.655280 698.573120
295 0 1 5.345020 4.010740 699.433472
296 0 1 5.351660 4.108210 700.387817
297 0 1 5.482350 4.110540 701.317993
298 0 1 5.311650 4.345430 702.207031
299 0 1 5.179890 4.219850 703.154419
300 0 1 4.955120 4.500610 704.104126
301 0 1 4.824630 4.600590 705.030579
302 0 1 4.841310 4.891100 705.915527
303 0 1 4.699280 5.236580 706.861572
304 0 1 4.259580 5.629540 707.636414
305 0 1 3.703240 5.985320 708.325989
306 0 1 3.398280 6.010580 709.206726
307 0 1 2.987290 6.005240 710.042969
308 0 1 2.473780 6.168030 710.854126
309 0 1 2.444460 6.563640 711.842224
310 0 1 2.488080 6.825320 712.828491
311 0 1 2.474250 6.981340 713.793213
312 0 1 2.522120 7.037718 714.756226
313 0 1 2.751810 6.770450 715.697021
314 0 1 2.935250 6.630760 716.709290
315 0 1 2.877300 6.782890 717.644409
316 0 1 2.593030 6.809720 718.544434
317 0 1 2.289450 6.789250 719.457031
318 0 1 2.137400 6.845450 720.484985
319 0 1 1.975680 6.802670 721.411621
320 0 1 1.957390 6.457750 722.304993
321 0 1 2.314730 6.395150 723.220093
322 0 1 2.596310 6.217460 724.069092
323 0 1 3.027190 6.006610 724.881897
324 0 1 3.405750 5.570720 725.618530
325 0 1 3.563480 5.446000 726.646912
326 0 1 3.782330 5.470120 727.605469
327 0 1 3.710740 5.503440 728.515991
328 0 1 3.433270 5.705400 729.416992
329 0 1 3.200350 6.086600 730.268005
330 0 1 3.064440 6.530760 731.140991
331 0 1 3.006530 6.612120 732.098999
332 0 1 3.162710 6.652060 733.067017
333 0 1 3.163730 6.660370 734.064026
334 0 1 2.849990 6.335380 734.968994
335 0 1 2.728750 6.208450 735.888000
336 0 1 2.895930 5.937010 736.792969
337 0 1 2.799510 5.626980 737.765015
338 0 1 2.825700 5.296150 738.671021
339 0 1 2.798620 4.945970 739.531982
340 0 1 2.701420 4.769390 740.450012
341 0 1 2.471000 4.561160 741.356995
342 0 1 2.222580 4.653590 742.234985
343 0 1 2.116640 4.579170 743.143982
344 0 1 2.421550 4.517160 744.018982
345 0 1 2.862210 4.149570 744.737976
346 0 1 3.173370 4.110490 745.684998
347 0 1 3.223090 4.190090 746.674011
348 0 1 3.094050 4.209570 747.656982
349 0 1 3.068080 4.379800 748.632019
350 0 1 3.109460 4.723580 749.499023
351 0 1 3.438150 5.213680 750.273010
352 0 1 3.532290 5.819320 751.033020
353 0 1 3.688150 6.364590 751.752991
354 0 1 4.000730 7.100411 752.289978
355 0 1 3.809050 8.020809 752.528992
356 0 1 4.101440 8.863166 752.814026
357 0 1 4.306460 9.729990 753.192993
358 0 1 4.803390 10.404270 753.724976
359 0 1 5.573680 10.666019 754.278992
360 0 1 6.257340 10.650909 754.934021
361 0 1 6.909010 10.790880 755.612976
362 0 1 7.430524 10.805770 756.458984
363 0 1 7.811022 10.826370 757.304016
364 0 1 8.147330 10.722140 758.187988
365 0 1 8.517826 10.827681 759.083008
366 0 1 8.879812 10.955280 759.924988
367 0 1 9.265900 11.125160 760.787964
368 0 1 9.621810 11.458100 761.598022
369 0 1 9.992450 11.584909 762.504028
370 0 1 10.491080 11.640680 763.292969
371 0 1 10.694241 11.659870 764.317017
372 0 1 10.695080 11.666019 765.302979
373 0 1 10.527130 11.744590 766.234009
374 0 1 10.273670 11.820890 767.171021
375 0 1 10.157970 12.136670 768.110962
376 0 1 9.929720 12.471100 768.960022
377 0 1 9.589581 12.867620 769.804016
378 0 1 9.438500 13.329300 770.645020
379 0 1 9.168940 13.628730 771.572998
380 0 1 8.917956 13.908970 772.489014
381 0 1 8.551948 13.917490 773.427979
382 0 1 8.311465 13.716790 774.318970
383 0 1 7.898610 13.239990 775.087036
384 0 1 7.592738 12.660669 775.733032
385 0 1 7.349801 12.123730 776.551025
386 0 1 7.008874 11.799640 777.429016
387 0 1 6.844020 11.777470 778.348022
388 0 1 6.677040 11.399360 779.271973
389 0 1 7.031502 11.248380 780.104980
390 0 1 7.137318 10.885170 781.005981
391 0 1 7.304111 10.532290 781.940979
392 0 1 7.513118 10.390960 782.872986
393 0 1 7.816413 10.468590 783.811035
394 0 1 8.248523 10.673340 784.661987
395 0 1 8.691021 10.972950 785.463989
396 0 1 9.267980 11.244050 786.239990
397 0 1 9.777670 11.675830 786.943970
398 0 1 10.166790 11.960490 787.796021
399 0 1 10.159170 12.095270 788.780029
400 0 1 9.768770 12.129210 789.702026
401 0 1 9.348930 11.991859 790.594971
402 0 1 9.044000 12.096120 791.489014
403 0 1 8.795282 12.020781 792.432007
404 0 1 8.648108 12.054060 793.370972
405 0 1 8.256347 11.959550 794.249023
406 0 1 7.817280 11.722800 795.044983
407 0 1 7.485224 11.497060 795.927979
408 0 1 7.143895 11.640050 796.825989
409 0 1 7.176521 11.618700 797.877014
410 0 1 6.978960 11.738230 798.848022
411 0 1 6.610550 11.881790 799.761963
412 0 1 6.222670 12.197860 800.591003
413 0 1 5.918440 12.229959 801.589966
414 0 1 5.817080 12.196730 802.549011
415 0 1 5.911160 11.897440 803.468018
416 0 1 6.033210 11.709200 804.442993
417 0 1 6.098540 11.447599 805.354980
418 0 1 6.165670 11.518380 806.356995
419 0 1 6.512810 11.085060 807.197021
420 0 1 7.098989 10.716450 807.919006
421 0 1 7.693403 10.383420 808.603027
422 0 1 8.276808 10.049810 809.338013
423 0 1 8.606619 9.914600 810.202026
424 0 1 9.237930 9.612800 810.877991
425 0 1 9.752760 9.214260 811.622009
426 0 1 10.165760 8.676739 812.487000
427 0 1 10.484650 8.437716 813.301025
428 0 1 10.738370 8.128943 814.218994
429 0 1 10.759820 7.673410 815.083984
430 0 1 10.933040 7.359733 816.013000
431 0 1 10.997540 7.072803 816.950012
432 0 1 10.787230 6.671320 817.739014
433 0 1 10.726690 6.343920 818.651978
434 0 1 10.584930 6.233990 819.573975
435 0 1 10.462160 6.158770 820.458984
436 0 1 10.481290 6.138280 821.453003
437 0 1 10.269570 6.067180 822.414978
438 0 1 10.097110 5.820640 823.353027
439 0 1 9.910130 5.677450 824.379028
440 0 1 9.826710 5.584790 825.325012
441 0 1 10.074730 5.713980 826.291016
442 0 1 10.349360 5.646170 827.184998
443 0 1 10.594060 5.523960 828.085022
444 0 1 10.899260 5.263340 828.929016
445 0 1 11.106800 4.727180 829.764038
446 0 1 11.392030 4.178380 830.502014
447 0 1 11.639090 3.803160 831.338013
448 0 1 11.741810 3.682460 832.307007
449 0 1 11.729120 3.655780 833.265015
450 0 1 11.521000 3.670640 834.200989
451 0 1 11.259000 3.841170 835.150024
452 0 1 10.904360 4.014870 836.057983
453 0 1 10.169070 4.111210 836.682007
454 0 1 9.498640 4.450130 837.244995
455 0 1 8.946178 4.871120 837.985962
456 0 1 8.549100 5.570170 838.490967
457 0 1 7.995636 6.277270 838.773987
458 0 1 7.468315 7.094380 838.759033
459 0 1 7.453567 7.887082 838.192017
460 0 1 7.285237 8.620045 837.634033
461 0 1 7.159329 9.270630 836.891968
462 0 1 7.337935 9.849860 836.146973
463 0 1 7.578196 10.412410 835.414001
464 0 1 7.813037 10.828300 834.612000
465 0 1 8.221458 11.523880 833.997009
466 0 1 8.537306 11.964330 833.255981
467 0 1 8.685696 12.207820 832.339966
468 0 1 8.507156 12.399490 831.414001
469 0 1 8.459778 12.770679 830.585022
470 0 1 8.666029 13.138680 829.718018
471 0 1 8.877117 13.486860 828.820984
472 0 1 8.867155 13.963699 828.014038
473 0 1 8.731705 14.286610 827.151001
474 0 1 8.839018 14.521680 826.257996
475 0 1 9.031570 14.508050 825.341003
476 0 1 9.129480 14.085800 824.445007
477 0 1 9.008630 13.613140 823.614990
478 0 1 8.705122 12.910800 822.960022
479 0 1 8.752232 12.379829 822.169006
480 0 1 8.751149 11.732630 821.492004
481 0 1 8.507193 11.138190 820.768982
482 0 1 8.495134 10.475019 820.119019
483 0 1 8.386616 9.699680 819.515991
484 0 1 8.088724 8.952688 818.981018
485 0 1 7.791874 8.174356 818.556030
486 0 1 7.801817 7.376071 818.083984
487 0 1 7.871483 6.644010 817.468018
488 0 1 8.090754 6.195260 816.666016
489 0 1 8.504549 5.952070 815.844971
490 0 1 8.692376 5.849630 814.919006
491 0 1 8.755863 5.907400 814.011963
492 0 1 8.708875 5.726870 813.042969
493 0 1 8.808632 5.912940 812.132996
494 0 1 8.524837 6.111150 811.265991
495 0 1 8.213611 6.425320 810.405029
496 0 1 7.813145 6.585220 809.562988
497 0 1 7.514551 6.711510 808.684021
498 0 1 7.110757 6.994780 807.890991
499 0 1 6.716970 7.183769 807.037964
500 0 1 6.054840 7.354453 806.349976
501 0 1 5.636260 7.600710 805.511963
502 0 1 5.165330 7.943487 804.739990
503 0 1 4.730730 8.372578 803.973999
504 0 1 4.235930 8.981898 803.411987
505 0 1 3.582400 9.525710 802.770996
506 0 1 3.459830 9.971350 801.863037
507 0 1 3.606730 10.294590 800.989990
508 0 1 3.842710 10.603889 800.062012
509 0 1 3.958260 10.804990 799.134033
510 0 1 4.193030 11.047831 798.231995
511 0 1 4.275470 11.076160 797.296997
512 0 1 4.202500 11.243580 796.333984
513 0 1 4.519160 11.136020 795.390991
514 0 1 4.494070 10.887170 794.442017
515 0 1 4.384940 10.898951 793.539001
516 0 1 4.374370 10.979980 792.617981
517 0 1 4.392350 11.260941 791.655029
518 0 1 4.614610 11.602090 790.737000
519 0 1 4.548990 11.918250 789.768005
520 0 1 4.788800 12.025810 788.875000
521 0 1 4.928160 11.867170 787.962036
522 0 1 4.915770 11.398400 787.106018
523 0 1 5.015580 10.776200 786.380981
524 0 1 4.886500 10.087860 785.684021
525 0 1 4.765490 9.380020 785.046997
526 0 1 4.607910 8.622274 784.525024
527 0 1 4.489130 8.035884 783.738037
528 0 1 4.521640 7.674761 782.820007
529 0 1 4.511080 7.840526 781.846985
530 0 1 4.374370 7.830556 780.885986
531 0 1 4.084350 8.054075 779.966003
532 0 1 3.888410 8.065518 778.997986
533 0 1 3.943160 8.063066 778.025024
534 0 1 4.162930 8.000626 777.073975
535 0 1 4.414090 7.785181 776.221008
536 0 1 4.694670 7.594871 775.335999
537 0 1 4.986570 7.235876 774.509033
538 0 1 5.115360 6.879780 773.608032
539 0 1 5.457690 6.631890 772.682007
540 0 1 5.932640 6.080830 772.004028
541 0 1 6.557200 5.721730 771.322998
542 0 1 7.299124 5.507580 770.775024
543 0 1 7.996372 5.274390 770.158020
544 0 1 8.478734 5.156150 769.382019
545 0 1 9.148580 5.286200 768.708008
546 0 1 9.645250 5.493600 767.931030
547 0 1 9.893030 5.949180 767.018982
548 0 1 9.853080 6.284450 766.082031
549 0 1 9.832940 6.690920 765.228027
550 0 1 9.761980 7.075810 764.323975
551 0 1 9.389910 7.616717 763.609985
552 0 1 9.165051 8.019617 762.721985
553 0 1 9.076890 8.591530 762.000977
554 0 1 8.711770 8.965293 761.177002
555 0 1 8.896541 9.258430 760.286987
556 0 1 9.015310 9.636690 759.434021
557 0 1 8.828541 9.968370 758.526978
558 0 1 8.583544 10.078170 757.594971
559 0 1 8.802205 10.266109 756.708008
560 0 1 9.164040 10.549920 755.846985
561 0 1 9.637360 10.385201 754.994995
562 0 1 10.060930 10.181660 754.127014
563 0 1 10.578080 10.142930 753.268982
564 0 1 11.235040 9.858750 752.585022
565 0 1 11.764500 9.467420 751.879028
566 0 1 12.299271 9.177580 751.093018
567 0 1 12.759100 8.985421 750.278015
568 0 1 13.213290 9.103590 749.453979
569 0 1 13.179000 9.426991 748.562012
570 0 1 12.500870 9.230140 747.903015
571 0 1 12.019831 8.877823 747.138000
572 0 1 11.424570 8.518846 746.369995
573 0 1 10.855080 8.209004 745.575012
574 0 1 10.216660 8.037193 744.888000
575 0 1 9.937450 7.408126 744.163025
576 0 1 9.726060 7.147921 743.260986
577 0 1 9.248350 7.136343 742.417969
578 0 1 8.848794 6.869360 741.612000
579 0 1 8.489018 6.618790 740.768982
580 0 1 8.598316 6.499900 739.799011
581 0 1 8.722355 6.156610 738.901978
582 0 1 8.759703 5.690190 738.052002
583 0 1 8.905343 5.309160 737.213013
584 0 1 8.549341 5.046130 736.263977
585 0 1 8.292498 5.067690 735.291992
586 0 1 8.002584 5.071210 734.328003
587 0 1 7.846395 5.099910 733.414001
588 0 1 7.361765 5.205550 732.556030
589 0 1 6.681780 5.477870 731.908997
590 0 1 5.996280 5.547260 731.240967
591 0 1 5.671230 5.764150 730.335999
592 0 1 5.508620 5.935360 729.390991
593 0 1 5.484500 6.310220 728.460205
594 0 1 5.023150 6.693360 727.626831
595 0 1 4.845100 6.569870 726.706299
596 0 1 5.034220 6.340050 725.792969
597 0 1 5.274740 6.151970 724.799805
598 0 1 5.301650 5.981710 723.864624
599 0 1 5.474720 5.733520 723.002319
600 0 1 5.754940 5.515800 722.104309
601 0 1 6.153820 5.206310 721.330322
602 0 1 6.771950 5.007980 720.542969
603 0 1 7.081510 5.012490 719.647888
604 0 1 7.390479 5.061570 718.762817
605 0 1 7.690914 5.187240 717.818420
606 0 1 7.964559 5.253210 716.877930
607 0 1 8.351973 5.606050 716.040405
608 0 1 8.785374 5.653070 715.188904
609 0 1 9.317050 5.920970 714.409790
610 0 1 9.529380 6.265510 713.542419
611 0 1 10.036551 6.564230 712.745178
612 0 1 10.359350 6.579640 711.843628
613 0 1 10.546640 6.290020 710.932373
614 0 1 10.505370 6.032830 709.939209
615 0 1 10.531060 6.067850 709.001526
616 0 1 10.728490 5.977770 708.072327
617 0 1 11.078720 5.808690 707.153320
618 0 1 11.429870 5.778610 706.207520
619 0 1 11.506950 5.638700 705.298584
620 0 1 11.741050 5.877370 704.355896
621 0 1 11.699010 6.374500 703.474487
622 0 1 11.806950 6.777880 702.608276
623 0 1 11.745570 6.980220 701.720398
624 0 1 11.838449 7.355918 700.783875
625 0 1 11.956440 7.276749 699.840332
626 0 1 11.897970 7.287119 698.935913
627 0 1 11.701740 7.258365 698.017212
628 0 1 11.747120 6.976270 697.096313
629 0 1 11.417840 6.415760 696.436218
630 0 1 10.794080 5.854600 696.043884
631 0 1 10.211140 5.314280 695.500000
632 0 1 9.436310 4.853820 695.072388
633 0 1 8.878000 4.353620 694.540588
634 0 1 8.231065 4.120340 693.858521
635 0 1 7.644221 4.074600 693.139526
636 0 1 7.043046 3.969350 692.423096
637 0 1 6.450830 3.769850 691.651794
638 0 1 6.028660 3.725740 690.774902
639 0 1 5.932950 3.706450 689.789673
640 0 1 5.786040 3.769900 688.832214
641 0 1 5.736030 4.066600 687.866577
642 0 1 5.914240 4.375390 686.912292
643 0 1 5.951670 4.576310 685.978699
644 0 1 6.111740 4.483620 685.044922
645 0 1 6.227810 4.522070 684.077393
646 0 1 6.358390 4.498630 683.065308
647 0 1 6.549270 4.590060 682.145813
648 0 1 6.464970 4.852580 681.241516
649 0 1 6.626790 5.112350 680.331299
650 0 1 6.597890 5.326770 679.416870
651 0 1 6.697910 5.561220 678.474182
652 0 1 7.034962 5.882350 677.580200
653 0 1 7.187826 6.274540 676.729492
654 0 1 7.271940 6.543570 675.807617
655 0 1 7.279152 7.113549 675.029419
656 0 1 7.304288 7.619230 674.237671
657 0 1 7.108645 8.041510 673.378601
658 0 1 7.075606 8.046048 672.375122
659 0 1 6.909100 8.168182 671.427368
660 0 1 6.665060 8.228629 670.464600
661 0 1 6.610410 8.124820 669.481079
662 0 1 6.706000 8.160312 668.416321
663 0 1 6.939090 8.222061 667.517395
664 0 1 7.330195 8.285468 666.660278
665 0 1 7.674255 8.634279 665.802124
666 0 1 8.011056 8.771664 664.896729
667 0 1 8.620409 9.130460 664.114380
668 0 1 9.149520 9.312770 663.299316
669 0 1 9.777460 9.336370 662.632812
670 0 1 10.406210 9.364520 661.936707
671 0 1 11.074490 9.505700 661.227173
672 0 1 11.530180 9.349890 660.410095
673 0 1 12.148550 8.942537 659.765686
674 0 1 12.423740 8.817922 658.843506
675 0 1 12.749390 8.532117 658.006592
676 0 1 12.882060 8.313164 657.057617
677 0 1 12.777830 8.442444 656.116516
678 0 1 12.697580 8.345657 655.148376
679 0 1 12.189350 8.451585 654.238770
680 0 1 11.790120 8.701894 653.396912
681 0 1 11.962460 8.968391 652.495728
682 0 1 11.919790 9.026810 651.495117
683 0 1 11.894860 8.693588 650.488708
684 0 1 11.756010 8.578497 649.430115
685 0 1 11.790840 8.423857 648.487000
686 0 1 11.728080 8.269574 647.547913
687 0 1 11.363410 8.148101 646.651611
688 0 1 11.074739 8.159585 645.670898
689 0 1 10.487010 8.062643 644.938721
690 0 1 10.005140 8.036305 644.062805
691 0 1 9.696130 7.701497 643.249329
692 0 1 9.575970 7.264854 642.399719
693 0 1 9.612310 6.768310 641.556580
694 0 1 9.303180 6.502650 640.678711
695 0 1 8.993349 6.487550 639.789001
696 0 1 9.173000 6.744310 638.887817
697 0 1 9.535310 6.930820 638.005859
698 0 1 9.510670 7.177517 637.091675
699 0 1 9.586250 7.019403 636.100037
700 0 1 9.322580 6.935750 635.209900
701 0 1 8.962705 6.842480 634.339966
702 0 1 8.546617 6.797270 633.505310
703 0 1 8.099668 6.793280 632.644409
704 0 1 7.588854 7.039559 631.884399
705 0 1 7.189987 7.264746 631.047180
706 0 1 6.741190 7.278562 630.216248
707 0 1 6.396820 7.266249 629.314148
708 0 1 5.842180 7.065838 628.544434
709 0 1 5.437960 6.886540 627.739624
710 0 1 5.318270 6.567860 626.821533
711 0 1 5.117850 6.126940 626.051697
712 0 1 4.802760 5.839830 625.161011
713 0 1 4.616530 5.447650 624.338440
714 0 1 4.449810 5.143820 623.417358
715 0 1 4.267770 4.758470 622.495483
716 0 1 3.773020 4.504850 621.710083
717 0 1 3.212400 4.560230 620.978394
718 0 1 2.951940 4.597690 620.104126
719 0 1 2.701220 4.727910 619.156677
720 0 1 2.460930 5.255540 618.406677
721 0 1 2.067150 5.825020 617.697998
722 0 1 1.580200 6.466110 617.224792
723 0 1 1.689010 7.144089 616.537903
724 0 1 1.971660 7.796205 615.935730
725 0 1 2.257750 8.264495 615.196899
726 0 1 2.572050 8.661932 614.376404
727 0 1 3.029370 8.766954 613.586304
728 0 1 3.614440 8.979760 612.862305
729 0 1 4.090890 8.908092 612.016479
730 0 1 4.724420 9.246090 611.353699
731 0 1 5.309230 9.496780 610.625671
732 0 1 5.639190 9.679390 609.725586
733 0 1 5.996370 9.841880 608.902283
734 0 1 6.493920 10.081090 608.093811
735 0 1 6.832920 10.472450 607.171692
736 0 1 6.927590 10.823111 606.210693
737 0 1 6.984900 11.009050 605.230896
738 0 1 7.166882 11.570311 604.467285
739 0 1 7.238831 11.897580 603.508301
740 0 1 7.504577 12.281780 602.674927
741 0 1 7.831946 12.662030 601.854004
742 0 1 7.732960 12.814920 600.957092
743 0 1 7.765671 12.961000 599.969116
744 0 1 7.820083 12.954180 598.957092
745 0 1 7.814328 12.834550 597.959778
746 0 1 7.758287 12.923241 596.961182
747 0 1 7.610863 12.786409 596.011414
748 0 1 7.557727 12.623970 595.069702
749 0 1 7.498328 12.440741 594.108582
750 0 1 7.334162 12.278009 593.143921
751 0 1 7.486603 12.277240 592.228882
752 0 1 7.968153 11.805640 591.451172
753 0 1 8.455177 11.621560 590.620728
754 0 1 8.935243 11.338680 589.867004
755 0 1 9.414940 11.018150 589.083618
756 0 1 9.563530 10.770930 588.139404
757 0 1 9.653500 10.463079 587.235107
758 0 1 10.085390 10.484870 586.432190
759 0 1 10.612310 10.425310 585.636902
760 0 1 11.098820 10.228770 584.827881
761 0 1 11.300261 9.772330 583.931091
762 0 1 11.385680 9.672050 582.964478
763 0 1 11.289340 9.538310 582.016418
764 0 1 11.284030 9.283560 581.144287
765 0 1 11.096040 8.950889 580.274597
766 0 1 10.713230 8.660246 579.426025
767 0 1 10.074360 8.725180 578.657776
768 0 1 9.591910 8.818966 577.809082
769 0 1 9.305230 8.801246 576.919617
770 0 1 9.096120 8.840524 575.992188
771 0 1 8.658865 8.787769 575.098022
772 0 1 7.958142 8.773540 574.392273
773 0 1 7.434302 8.810236 573.631470
774 0 1 7.125397 8.804751 572.743225
775 0 1 6.510360 8.894489 571.998718
776 0 1 6.062570 8.767115 571.113525
777 0 1 5.778720 8.767706 570.202515
778 0 1 5.546280 9.143810 569.370483
779 0 1 5.351460 9.336990 568.482910
780 0 1 5.290690 9.648960 567.543274
781 0 1 5.071190 10.249670 566.849731
782 0 1 4.877990 10.793870 566.073792
783 0 1 4.562860 11.212040 565.267517
784 0 1 4.296880 11.367500 564.253723
785 0 1 4.268680 11.619101 563.348999
786 0 1 4.118050 11.869270 562.429382
787 0 1 4.072970 12.190630 561.536316
788 0 1 3.958930 12.437490 560.605225
789 0 1 3.866070 12.638000 559.705566
790 0 1 3.677260 12.589251 558.780518
791 0 1 3.405740 12.463440 557.823792
792 0 1 3.255080 12.406590 556.924011
793 0 1 3.558070 12.060890 556.075500