LAMMPS data file via MDAnalysis

        1000  atoms
        1000  bonds
        1000  angles
           0  dihedrals
           0  impropers

           1  atom types
           1  bond types
           1  angle types
           0  dihedral types
           0  improper types

0.000000 16.000000 xlo xhi
0.000000 16.000000 ylo yhi
0.000000 1257.000000 zlo zhi


Masses

1 1.000000

Atoms

1 0 1 12.579240 5.662650 434.286011
2 0 1 12.638480 5.818620 435.231018
3 0 1 12.708630 5.967240 436.218994
4 0 1 12.485411 5.943610 437.162994
5 0 1 12.054810 6.101310 437.976990
6 0 1 11.771430 6.401030 438.838013
7 0 1 11.535450 6.717490 439.703003
8 0 1 11.252150 7.306462 440.440979
9 0 1 11.123030 7.820686 441.263000
10 0 1 10.580111 8.156236 441.977997
11 0 1 10.253640 7.984343 442.841003
12 0 1 9.763160 8.329799 443.562988
13 0 1 9.121790 8.391027 444.203979
14 0 1 8.421570 8.687748 444.677002
15 0 1 7.819037 9.154910 445.432007
16 0 1 7.117995 9.536420 446.002991
17 0 1 6.526780 9.955550 446.572998
18 0 1 6.159690 10.378469 447.343994
19 0 1 6.012460 10.761840 448.242004
20 0 1 5.934580 10.919480 449.139008
21 0 1 5.861810 11.277130 450.042999
22 0 1 5.884390 11.081690 450.949005
23 0 1 5.840640 11.081020 451.960022
24 0 1 5.657190 11.343610 452.884003
25 0 1 5.362290 11.802610 453.684998
26 0 1 5.192440 12.169260 454.523987
27 0 1 5.112180 12.538830 455.518005
28 0 1 5.025720 12.826670 456.421021
29 0 1 5.283920 13.155769 457.238007
30 0 1 5.781220 13.175720 458.042999
31 0 1 6.024840 13.013220 458.984009
32 0 1 6.512700 12.978170 459.824005
33 0 1 6.922450 12.964650 460.681000
34 0 1 7.329702 12.747641 461.552979
35 0 1 7.975699 12.604900 462.252991
36 0 1 8.647851 12.459311 463.000000
37 0 1 9.141430 12.254730 463.811005
38 0 1 9.422330 11.847780 464.628998
39 0 1 9.710760 11.488260 465.475006
40 0 1 9.814020 11.164320 466.395996
41 0 1 10.034679 10.992830 467.389008
42 0 1 9.821820 10.838190 468.335022
43 0 1 9.622090 10.987830 469.312988
44 0 1 9.760201 10.699880 470.273987
45 0 1 9.670370 10.245010 471.119019
46 0 1 9.413970 9.792570 471.963013
47 0 1 9.402500 9.494560 472.944000
48 0 1 9.405170 9.102760 473.890015
49 0 1 9.365690 8.674468 474.739990
50 0 1 9.399440 8.089124 475.541992
51 0 1 9.410400 7.671934 476.432007
52 0 1 9.292930 7.403471 477.320007
53 0 1 8.928767 7.614401 478.223022
54 0 1 8.546616 7.752689 479.138000
55 0 1 8.265717 7.835711 480.067993
56 0 1 8.196009 7.611479 480.988007
57 0 1 8.031333 7.521705 481.901978
58 0 1 7.859823 7.446380 482.880005
59 0 1 7.668118 7.529090 483.774994
60 0 1 7.342151 7.836639 484.617004
61 0 1 7.307556 8.152067 485.489014
62 0 1 7.320882 8.255529 486.450989
63 0 1 7.421039 8.523462 487.356018
64 0 1 7.751690 8.514075 488.259003
65 0 1 7.757348 8.921940 489.135986
66 0 1 7.943570 9.331670 490.024994
67 0 1 7.853461 9.718400 490.953979
68 0 1 7.853961 9.890110 491.880005
69 0 1 7.894189 10.158110 492.772003
70 0 1 7.954555 10.016730 493.772003
71 0 1 7.955236 9.885880 494.772003
72 0 1 7.978165 10.129720 495.695007
73 0 1 8.133795 10.052440 496.634003
74 0 1 8.124205 9.835370 497.589996
75 0 1 8.165808 9.619260 498.578979
76 0 1 8.215537 9.519979 499.554016
77 0 1 8.200483 9.234730 500.440979
78 0 1 8.127518 8.694402 501.286987
79 0 1 7.933207 8.374512 502.182007
80 0 1 7.770094 8.218598 503.096985
81 0 1 7.595239 8.228986 504.031006
82 0 1 7.444621 8.187448 505.023987
83 0 1 7.275972 7.969771 505.919006
84 0 1 7.071599 8.076092 506.903015
85 0 1 6.960880 8.224665 507.848999
86 0 1 6.773170 8.458717 508.791016
87 0 1 6.325860 8.677481 509.649994
88 0 1 6.059780 9.045560 510.524994
89 0 1 5.693910 9.161551 511.463013
90 0 1 5.152450 9.503440 512.140991
91 0 1 4.965750 10.106910 512.890015
92 0 1 4.620620 10.507190 513.723022
93 0 1 4.477430 10.848870 514.643005
94 0 1 4.390140 11.010350 515.593994
95 0 1 4.381030 11.497680 516.335022
96 0 1 4.247980 11.734320 517.252991
97 0 1 4.513010 12.174860 518.161987
98 0 1 4.530730 12.422110 519.127991
99 0 1 4.261530 12.586330 520.059998
100 0 1 3.928260 12.731279 520.911011
101 0 1 3.778470 12.778550 521.922974
102 0 1 4.113570 12.704690 522.854004
103 0 1 4.626900 12.642550 523.661011
104 0 1 5.040850 12.353320 524.513000
105 0 1 5.446080 11.857570 525.263000
106 0 1 5.563410 11.336990 526.094971
107 0 1 5.719910 10.905960 526.934021
108 0 1 5.800620 10.520530 527.752014
109 0 1 5.575010 10.153390 528.650085
110 0 1 5.423340 9.739310 529.476013
111 0 1 5.259300 9.574630 530.415771
112 0 1 5.090180 9.513190 531.349609
113 0 1 5.218020 9.271210 532.291809
114 0 1 5.226140 9.017040 533.267334
115 0 1 5.643700 8.440214 533.953308
116 0 1 5.938810 8.263857 534.917908
117 0 1 6.284900 8.067641 535.801697
118 0 1 6.679020 7.734233 536.564209
119 0 1 6.868520 7.553491 537.476685
120 0 1 7.216174 7.245250 538.303101
121 0 1 7.436333 6.983360 539.177490
122 0 1 7.233403 6.809500 540.091431
123 0 1 7.033332 6.648180 541.035706
124 0 1 7.215757 6.530240 542.035706
125 0 1 7.489291 6.613960 543.029175
126 0 1 7.803724 6.695740 543.910400
127 0 1 8.229923 6.816120 544.786316
128 0 1 8.629366 6.655750 545.627197
129 0 1 8.902785 6.761070 546.571899
130 0 1 9.341360 6.782080 547.471313
131 0 1 9.426610 7.015605 548.453308
132 0 1 9.287040 7.477107 549.369690
133 0 1 8.977285 7.659511 550.251221
134 0 1 8.731106 7.777710 551.145874
135 0 1 8.530953 8.076997 552.021973
136 0 1 8.323671 8.338554 552.914795
137 0 1 8.548894 8.453968 553.818115
138 0 1 8.846897 8.762818 554.674805
139 0 1 9.050940 9.180600 555.438416
140 0 1 9.298610 9.464920 556.310791
141 0 1 9.373790 9.782570 557.232422
142 0 1 9.641850 10.042060 558.122620
143 0 1 10.071230 10.723910 558.713623
144 0 1 10.326230 11.152309 559.577820
145 0 1 10.232140 11.164061 560.500916
146 0 1 10.312360 11.212070 561.489380
147 0 1 10.067060 11.173491 562.421875
148 0 1 9.629260 11.171320 563.242981
149 0 1 9.066510 11.122900 564.067017
150 0 1 8.613829 11.535950 564.934998
151 0 1 7.954182 11.582430 565.685608
152 0 1 7.557042 11.810300 566.507080
153 0 1 7.369460 11.940800 567.434021
154 0 1 7.301738 12.167880 568.386780
155 0 1 7.426883 12.045050 569.393127
156 0 1 7.327771 12.173429 570.417786
157 0 1 7.071913 12.322170 571.290588
158 0 1 6.855710 12.508329 572.257874
159 0 1 6.937400 12.673531 573.206482
160 0 1 7.097095 12.943700 574.123474
161 0 1 7.231919 13.271250 575.038574
162 0 1 7.673168 13.316930 575.865173
163 0 1 7.941765 13.122720 576.807678
164 0 1 8.014462 12.925510 577.737427
165 0 1 8.211700 12.806700 578.681213
166 0 1 8.523734 12.633270 579.582214
167 0 1 8.310999 12.711540 580.547302
168 0 1 7.940938 12.840139 581.435608
169 0 1 7.726857 12.828350 582.343628
170 0 1 7.560351 12.781879 583.307495
171 0 1 7.402426 12.568980 584.252808
172 0 1 7.043751 12.002610 584.942993
173 0 1 6.590320 11.310920 585.519775
174 0 1 6.435000 10.607830 586.189697
175 0 1 6.162440 10.263990 587.061768
176 0 1 5.846300 9.994840 587.894592
177 0 1 5.259020 9.910851 588.664978
178 0 1 4.668940 9.758400 589.378723
179 0 1 4.423430 9.290970 590.183899
180 0 1 4.326030 8.776861 590.988770
181 0 1 4.424800 8.528946 591.862305
182 0 1 4.391430 8.226490 592.793701
183 0 1 4.228530 8.031642 593.655396
184 0 1 4.117490 7.852031 594.592224
185 0 1 4.001820 7.735523 595.560974
186 0 1 3.864620 7.696196 596.487427
187 0 1 3.507360 7.734609 597.357483
188 0 1 3.361610 7.798284 598.332397
189 0 1 3.419400 8.028359 599.241272
190 0 1 3.346490 8.008228 600.210083
191 0 1 3.195450 8.327272 601.137207
192 0 1 3.356540 8.795843 601.969727
193 0 1 3.729900 9.055850 602.802612
194 0 1 3.896010 9.137760 603.715698
195 0 1 4.225510 9.051170 604.598694
196 0 1 4.523140 8.720130 605.418701
197 0 1 5.007280 8.509895 606.224915
198 0 1 5.609320 7.940626 606.739319
199 0 1 5.818490 7.247657 607.364929
200 0 1 6.083700 6.859190 608.211304
201 0 1 6.039040 6.692830 609.115112
202 0 1 6.112760 6.550400 610.031982
203 0 1 6.176060 6.501430 611.028625
204 0 1 5.987950 6.478020 611.907288
205 0 1 5.862960 6.526580 612.974304
206 0 1 6.120210 6.413700 613.924500
207 0 1 6.436070 6.209590 614.793274
208 0 1 6.723090 6.555700 615.666626
209 0 1 6.746810 6.955770 616.559998
210 0 1 6.582790 7.296417 617.442627
211 0 1 6.630850 7.650070 618.319275
212 0 1 6.697280 8.126623 619.230896
213 0 1 6.802800 8.294050 620.182434
214 0 1 7.199021 8.220376 621.083252
215 0 1 7.472100 8.045220 621.971924
216 0 1 7.876985 7.869281 622.844238
217 0 1 7.934834 7.632837 623.725159
218 0 1 7.810096 7.399260 624.635071
219 0 1 7.796910 7.128953 625.542542
220 0 1 7.772880 6.953730 626.486816
221 0 1 7.850447 7.091070 627.448914
222 0 1 8.206823 7.269022 628.342834
223 0 1 8.321918 7.198697 629.299744
224 0 1 8.661070 7.285147 630.166138
225 0 1 8.837671 7.170554 631.075806
226 0 1 8.484779 6.838870 631.820312
227 0 1 8.036473 6.535940 632.544312
228 0 1 7.610146 5.936610 633.206726
229 0 1 7.404938 5.594210 634.056396
230 0 1 7.326503 5.300320 635.028259
231 0 1 7.103346 4.797470 635.831482
232 0 1 6.949340 4.262720 636.620239
233 0 1 6.547640 4.130290 637.444763
234 0 1 6.389600 4.248120 638.349792
235 0 1 6.134940 4.264760 639.313110
236 0 1 5.892120 4.388410 640.220825
237 0 1 5.703740 4.729440 641.043884
238 0 1 5.546260 5.122860 641.874207
239 0 1 5.505640 5.040470 642.880920
240 0 1 5.382210 4.850840 643.816406
241 0 1 5.481670 4.838140 644.774170
242 0 1 5.390570 4.842700 645.728210
243 0 1 5.226480 4.938150 646.713928
244 0 1 5.529700 4.810100 647.599487
245 0 1 5.839390 4.935050 648.498291
246 0 1 6.272280 5.107090 649.309570
247 0 1 6.581780 5.236390 650.232788
248 0 1 6.991550 5.505640 651.153320
249 0 1 7.595811 5.914210 651.828918
250 0 1 8.236490 6.209430 652.561279
251 0 1 8.887246 6.516330 653.270813
252 0 1 9.423260 6.940140 653.969116
253 0 1 10.128520 7.349422 654.470398
254 0 1 10.731510 7.764738 655.107483
255 0 1 11.110291 8.409769 655.654175
256 0 1 11.486361 8.642872 656.511719
257 0 1 11.867590 9.006070 657.288879
258 0 1 12.244110 9.506530 658.053223
259 0 1 12.374290 10.023750 658.827698
260 0 1 12.520790 10.546540 659.641418
261 0 1 12.790720 10.809100 660.550781
262 0 1 12.779810 10.693140 661.530090
263 0 1 12.520861 10.443560 662.401672
264 0 1 12.294041 9.983970 663.283508
265 0 1 11.957951 9.554260 664.018372
266 0 1 11.627600 9.243400 664.828918
267 0 1 11.235730 9.148030 665.778625
268 0 1 10.958879 9.217530 666.719116
269 0 1 10.741489 9.341280 667.630615
270 0 1 10.594390 9.207520 668.534180
271 0 1 10.524390 9.039210 669.470398
272 0 1 10.366859 8.783657 670.386780
273 0 1 10.472640 8.338523 671.232605
274 0 1 10.351180 7.891398 672.085510
275 0 1 10.409860 7.641900 673.050598
276 0 1 10.380190 7.319348 673.928589
277 0 1 10.200740 7.323218 674.916870
278 0 1 10.051701 7.074116 675.792175
279 0 1 10.131280 6.924920 676.707092
280 0 1 10.345960 6.733890 677.676208
281 0 1 10.306010 6.947910 678.613770
282 0 1 10.077260 6.826710 679.556580
283 0 1 9.703180 6.489820 680.402710
284 0 1 9.445910 6.327490 681.348328
285 0 1 9.035280 6.193360 682.203003
286 0 1 8.771239 6.256930 683.114014
287 0 1 8.589133 6.365980 684.113403
288 0 1 8.479707 6.444410 685.084229
289 0 1 8.149844 6.734390 685.928711
290 0 1 7.631609 7.115194 686.685120
291 0 1 7.045019 7.022991 687.458801
292 0 1 6.570030 7.040175 688.275269
293 0 1 6.213520 6.675570 689.132874
294 0 1 6.087850 6.356130 690.086975
295 0 1 5.901140 5.941280 690.930176
296 0 1 5.694360 5.484110 691.734802
297 0 1 5.283380 4.979730 692.497192
298 0 1 4.816460 4.436270 693.178101
299 0 1 4.243550 3.887890 693.863892
300 0 1 4.081090 3.425610 694.736694
301 0 1 4.161790 3.052620 695.602783
302 0 1 4.241240 2.755820 696.541687
303 0 1 4.154270 2.469910 697.489624
304 0 1 4.001350 2.381660 698.441223
305 0 1 4.410470 2.540410 699.359924
306 0 1 4.691200 2.529750 700.283997
307 0 1 4.998040 2.475250 701.159607
308 0 1 5.226590 2.694890 702.085815
309 0 1 5.184700 2.965310 702.968018
310 0 1 4.771870 3.409280 703.802124
311 0 1 4.538460 3.983160 704.637207
312 0 1 4.298870 4.783370 705.136475
313 0 1 4.101400 5.691460 705.524597
314 0 1 4.302670 6.591900 705.644226
315 0 1 4.678570 7.369702 706.060425
316 0 1 5.075100 8.162946 706.457397
317 0 1 5.611630 8.864529 706.834229
318 0 1 6.112660 9.634830 707.325195
319 0 1 6.398240 10.420940 707.854004
320 0 1 6.646720 11.036350 708.478516
321 0 1 6.897330 11.470720 709.261719
322 0 1 7.173579 12.076010 709.961426
323 0 1 7.580760 12.793739 710.494507
324 0 1 7.942106 13.032380 711.304688
325 0 1 8.185933 13.043520 712.228271
326 0 1 8.206230 12.985640 713.147217
327 0 1 7.900449 12.482030 713.948486
328 0 1 7.350713 11.916500 714.531311
329 0 1 6.544720 11.576720 714.909485
330 0 1 5.996290 11.122470 715.599304
331 0 1 5.671740 10.876960 716.496521
332 0 1 5.623800 10.643320 717.453308
333 0 1 5.560630 10.196090 718.334595
334 0 1 5.885520 9.527140 718.983887
335 0 1 6.011370 8.996486 719.741333
336 0 1 5.836220 8.507214 720.554077
337 0 1 5.937740 8.348699 721.468018
338 0 1 5.818660 8.367341 722.372986
339 0 1 5.413190 8.654619 723.280029
340 0 1 5.307460 8.635339 724.226379
341 0 1 5.433360 8.813026 725.113098
342 0 1 5.829450 8.793567 725.986206
343 0 1 6.075470 8.688844 726.931030
344 0 1 5.985470 8.730263 727.889587
345 0 1 5.908650 8.563160 728.856995
346 0 1 5.993980 8.418397 729.791016
347 0 1 6.081020 8.046693 730.643982
348 0 1 6.277820 7.837983 731.620972
349 0 1 6.550960 7.760119 732.546021
350 0 1 6.666070 7.734371 733.486023
351 0 1 6.848890 7.566143 734.487976
352 0 1 6.891650 7.165703 735.448975
353 0 1 6.741250 6.960390 736.388000
354 0 1 6.697500 6.722680 737.323975
355 0 1 6.989460 6.847060 738.244995
356 0 1 7.072989 6.950560 739.153015
357 0 1 7.098987 6.970360 740.127991
358 0 1 7.131758 7.389629 741.049011
359 0 1 7.376152 7.472366 741.942017
360 0 1 7.780766 7.649316 742.778992
361 0 1 7.883081 7.685010 743.697998
362 0 1 8.126806 7.880795 744.601013
363 0 1 8.601854 7.944854 745.466003
364 0 1 8.898394 8.353050 746.297974
365 0 1 9.151880 8.892572 747.000000
366 0 1 9.712360 9.235960 747.763977
367 0 1 10.162320 9.445410 748.578003
368 0 1 10.735970 9.697570 749.395020
369 0 1 11.490730 9.874220 750.051025
370 0 1 12.217410 10.136971 750.667969
371 0 1 12.682220 10.254140 751.502014
372 0 1 13.280680 10.407650 752.323975
373 0 1 13.385310 10.271690 753.244019
374 0 1 13.293620 10.047610 754.195984
375 0 1 13.166800 10.021811 755.252991
376 0 1 12.963580 9.798290 756.179993
377 0 1 12.718100 9.640060 757.158997
378 0 1 12.563920 9.259330 758.030029
379 0 1 12.413799 8.857451 758.859985
380 0 1 12.074130 8.405534 759.614014
381 0 1 11.520560 8.057620 760.330994
382 0 1 10.973030 7.851079 761.130005
383 0 1 10.344330 7.756152 761.900024
384 0 1 9.809550 7.737358 762.705017
385 0 1 9.298930 7.755409 763.468018
386 0 1 8.530024 7.769175 764.051025
387 0 1 7.765343 7.788361 764.721008
388 0 1 7.072517 7.814261 765.411011
389 0 1 6.327270 7.708547 766.004028
390 0 1 5.892620 7.675896 766.833008
391 0 1 5.553370 7.397667 767.712036
392 0 1 5.143860 7.107999 768.537964
393 0 1 4.903650 6.481440 769.283020
394 0 1 4.607820 6.176800 770.143005
395 0 1 4.631930 6.197880 771.160034
396 0 1 4.892130 5.829690 772.007019
397 0 1 5.177600 5.425150 772.794006
398 0 1 5.831760 5.098390 773.523010
399 0 1 6.262330 4.818890 774.312012
400 0 1 6.975250 4.505070 774.968994
401 0 1 7.541269 4.379060 775.719971
402 0 1 8.091879 4.399030 776.500977
403 0 1 8.743273 4.423210 777.188965
404 0 1 9.347670 4.672830 777.900024
405 0 1 10.129169 5.011940 778.556030
406 0 1 10.598030 5.325560 779.359985
407 0 1 11.200800 5.688970 780.075989
408 0 1 11.802950 5.993370 780.692993
409 0 1 12.540490 6.184450 781.221985
410 0 1 13.230160 6.440170 781.773010
411 0 1 13.728621 6.605980 782.598999
412 0 1 13.939140 6.838740 783.466980
413 0 1 14.077579 6.987950 784.422974
414 0 1 14.346420 6.813530 785.338989
415 0 1 14.492790 6.413420 786.184998
416 0 1 14.454929 6.123570 787.120972
417 0 1 14.248930 5.970660 788.010010
418 0 1 14.134470 5.815610 788.948975
419 0 1 13.671090 5.805840 789.792969
420 0 1 13.309710 6.117460 790.671021
421 0 1 12.912360 6.310010 791.500977
422 0 1 12.878920 6.624170 792.419006
423 0 1 12.796471 7.043100 793.302979
424 0 1 12.928550 7.225926 794.229004
425 0 1 12.969960 7.383022 795.197021
426 0 1 13.083390 7.608799 796.122009
427 0 1 13.096991 7.559427 797.023987
428 0 1 12.817890 7.614107 797.934021
429 0 1 12.313681 7.817328 798.778015
430 0 1 11.975300 7.866323 799.690979
431 0 1 11.615330 7.963441 800.640015
432 0 1 11.165230 7.861196 801.391968
433 0 1 10.338921 7.863926 801.942017
434 0 1 9.508080 7.675137 802.390015
435 0 1 8.721976 7.601439 802.942017
436 0 1 8.085373 7.384792 803.643005
437 0 1 7.343511 7.287495 804.255981
438 0 1 6.735030 7.289308 805.101990
439 0 1 6.363490 7.234782 806.007996
440 0 1 5.969960 7.288067 806.837036
441 0 1 5.841400 7.402889 807.804016
442 0 1 5.641930 7.797427 808.739990
443 0 1 5.385280 8.005480 809.676025
444 0 1 5.190860 8.238971 810.577026
445 0 1 4.828640 8.523483 811.419006
446 0 1 4.621580 8.779920 812.315979
447 0 1 4.435400 9.108850 813.203003
448 0 1 4.576090 9.316860 814.139038
449 0 1 4.338360 9.425790 815.052979
450 0 1 4.100790 9.433120 815.992004
451 0 1 3.871140 9.474060 816.893005
452 0 1 4.024240 9.462880 817.839966
453 0 1 4.316710 9.410160 818.759033
454 0 1 4.332730 9.243700 819.723022
455 0 1 4.288060 8.943928 820.601990
456 0 1 4.126130 8.498764 821.489990
457 0 1 4.086560 7.903450 822.240967
458 0 1 3.882820 7.212394 822.929016
459 0 1 3.611500 6.872230 823.768982
460 0 1 3.216630 6.434210 824.536987
461 0 1 2.976430 6.158120 825.460022
462 0 1 2.733160 6.249310 826.337036
463 0 1 2.917060 6.511870 827.285034
464 0 1 3.360820 6.248960 828.062988
465 0 1 3.987490 6.211080 828.820984
466 0 1 4.651410 5.944910 829.464966
467 0 1 5.085330 5.892480 830.375977
468 0 1 5.461160 5.929860 831.250000
469 0 1 5.681440 5.929880 832.207031
470 0 1 5.824710 5.935000 833.171021
471 0 1 6.264170 5.830300 833.979004
472 0 1 6.803500 6.092960 834.700989
473 0 1 7.278162 6.411510 835.393005
474 0 1 7.674206 6.873420 836.187988
475 0 1 7.895109 7.228184 837.130981
476 0 1 8.423365 7.676065 837.735962
477 0 1 8.981985 8.315691 838.181030
478 0 1 9.741550 8.885979 838.233032
479 0 1 10.423161 9.587530 837.966980
480 0 1 11.059720 10.191390 837.469971
481 0 1 11.537740 10.777790 836.809021
482 0 1 11.840620 10.934620 835.858032
483 0 1 11.791700 11.041980 834.895020
484 0 1 11.574770 10.826430 834.000977
485 0 1 11.385670 10.580920 833.122009
486 0 1 11.501150 10.282200 832.098999
487 0 1 11.899260 10.080550 831.207031
488 0 1 12.419590 9.618900 830.528015
489 0 1 12.656150 8.957316 829.879028
490 0 1 12.983240 8.343158 829.289001
491 0 1 13.199640 7.851955 828.500977
492 0 1 13.411510 7.184258 827.853027
493 0 1 13.377760 6.595510 827.110962
494 0 1 13.500680 6.202750 826.239014
495 0 1 13.537030 5.724620 825.393005
496 0 1 13.299280 5.316370 824.541016
497 0 1 12.877831 4.838140 823.797974
498 0 1 12.596530 4.320090 822.966003
499 0 1 12.265680 4.113970 822.080994
500 0 1 11.877069 4.109700 821.224976
501 0 1 11.900780 4.159890 820.287964
502 0 1 11.715830 3.900170 819.395020
503 0 1 11.708580 3.653190 818.419983
504 0 1 11.584410 3.630890 817.442017
505 0 1 11.430960 3.636470 816.510986
506 0 1 11.396240 3.986860 815.578003
507 0 1 11.305090 4.240440 814.651978
508 0 1 11.501670 4.462520 813.705017
509 0 1 11.559500 4.552870 812.698975
510 0 1 11.658630 4.632950 811.726990
511 0 1 12.217370 4.804450 810.948975
512 0 1 12.728240 5.045520 810.210022
513 0 1 13.373529 5.369140 809.635010
514 0 1 13.783480 5.593230 808.799988
515 0 1 14.025530 5.761100 807.921021
516 0 1 14.082340 6.116550 807.002991
517 0 1 14.011030 6.529810 806.184021
518 0 1 14.020700 6.822530 805.264038
519 0 1 13.782010 7.325823 804.426025
520 0 1 13.622840 7.578654 803.499023
521 0 1 13.237909 7.543159 802.636963
522 0 1 12.853889 7.095934 801.812012
523 0 1 12.519421 6.993570 800.893982
524 0 1 12.500589 6.660340 800.028015
525 0 1 12.387060 6.387890 799.106995
526 0 1 12.651791 6.214770 798.101990
527 0 1 12.674480 6.154370 797.166016
528 0 1 12.668320 6.003420 796.237000
529 0 1 12.497940 6.064540 795.312988
530 0 1 12.376110 5.835390 794.395996
531 0 1 12.285840 5.596950 793.438965
532 0 1 12.156099 5.173710 792.554993
533 0 1 11.797140 4.792710 791.723022
534 0 1 11.177850 4.503240 791.026001
535 0 1 10.750580 4.136000 790.240967
536 0 1 10.564850 3.658530 789.473022
537 0 1 10.233600 3.268170 788.710999
538 0 1 9.881070 2.838150 787.966003
539 0 1 9.193410 2.647180 787.403015
540 0 1 8.349432 2.646770 786.931030
541 0 1 7.649651 2.607650 786.158997
542 0 1 6.989480 2.853160 785.556030
543 0 1 6.370770 3.284050 784.927002
544 0 1 5.765370 3.596660 784.210999
545 0 1 4.987250 4.100020 783.932007
546 0 1 4.189600 4.410090 783.479004
547 0 1 3.606690 4.813090 782.783020
548 0 1 3.071420 5.032410 781.979004
549 0 1 2.903020 4.997650 780.971985
550 0 1 2.567690 4.993120 780.005981
551 0 1 2.166920 4.885380 779.103027
552 0 1 1.827770 4.916900 778.179016
553 0 1 1.964910 5.116890 777.255005
554 0 1 2.372120 5.342010 776.429993
555 0 1 2.969230 5.628300 775.697998
556 0 1 3.438290 5.946340 774.973999
557 0 1 3.969050 6.364460 774.255981
558 0 1 4.669140 6.601300 773.601013
559 0 1 5.311990 6.783620 772.898987
560 0 1 5.669930 7.021250 772.054016
561 0 1 6.022090 7.226525 771.203979
562 0 1 6.420180 7.480774 770.424011
563 0 1 6.937820 7.829941 769.688965
564 0 1 7.561185 8.133237 769.073975
565 0 1 8.144007 8.485762 768.354980
566 0 1 8.687449 8.957810 767.763000
567 0 1 9.357070 9.116980 767.085022
568 0 1 9.839890 8.950861 766.219971
569 0 1 10.224220 8.581689 765.419983
570 0 1 10.504260 8.403427 764.544983
571 0 1 11.049310 8.483930 763.718994
572 0 1 11.399000 8.725023 762.872986
573 0 1 11.307840 8.766273 761.856018
574 0 1 11.253510 9.029240 760.844971
575 0 1 11.191020 9.142390 759.867981
576 0 1 10.947880 9.146980 758.885986
577 0 1 10.938460 9.202420 757.942017
578 0 1 10.730410 9.163820 757.020996
579 0 1 10.701330 9.252060 756.049988
580 0 1 10.614700 9.204690 755.082031
581 0 1 10.714020 9.015050 754.156006
582 0 1 10.648040 8.759403 753.187988
583 0 1 10.700330 8.454564 752.250977
584 0 1 10.776250 8.303191 751.341980
585 0 1 11.076170 8.343419 750.382019
586 0 1 11.243450 8.315545 749.414001
587 0 1 11.140950 8.243525 748.463989
588 0 1 10.827650 8.140255 747.536987
589 0 1 10.272050 7.792051 746.835999
590 0 1 10.106640 7.508979 745.973999
591 0 1 9.865090 7.537371 745.026001
592 0 1 9.551110 7.241491 744.177002
593 0 1 9.365290 7.112658 743.242981
594 0 1 9.100520 6.943430 742.343994
595 0 1 8.443112 6.709400 741.655029
596 0 1 7.969409 6.367890 740.841980
597 0 1 8.122112 6.371950 739.906006
598 0 1 8.426244 6.513890 738.999023
599 0 1 8.866045 6.595710 738.179016
600 0 1 9.184590 6.549510 737.263000
601 0 1 9.406970 6.485100 736.268005
602 0 1 9.755020 6.305080 735.377991
603 0 1 10.085260 6.077510 734.528015
604 0 1 10.351690 6.258040 733.638000
605 0 1 10.559690 6.551770 732.679016
606 0 1 10.704420 6.732020 731.713989
607 0 1 10.945240 7.089712 730.830017
608 0 1 10.926189 7.042262 729.910034
609 0 1 11.196120 7.091171 728.971008
610 0 1 11.339581 7.532892 728.128723
611 0 1 11.260970 8.096318 727.304382
612 0 1 11.148790 8.660950 726.420105
613 0 1 11.066830 9.239520 725.460876
614 0 1 11.005010 9.652020 724.523682
615 0 1 11.013570 9.733590 723.579285
616 0 1 10.987950 9.586830 722.623596
617 0 1 10.845850 9.314810 721.732483
618 0 1 10.659389 8.652454 721.009399
619 0 1 10.208900 8.150265 720.367676
620 0 1 9.814480 7.995032 719.450500
621 0 1 9.598790 7.653284 718.569214
622 0 1 9.438110 7.559300 717.603088
623 0 1 9.082340 7.339772 716.738281
624 0 1 8.839711 7.122048 715.784668
625 0 1 8.645473 6.654760 714.906677
626 0 1 8.487021 6.202760 714.067993
627 0 1 8.331710 5.643200 713.320007
628 0 1 8.093946 5.117400 712.591125
629 0 1 7.970051 4.769470 711.686523
630 0 1 8.044948 4.275960 710.869080
631 0 1 8.150946 3.758740 710.045105
632 0 1 8.180320 3.516280 709.135376
633 0 1 8.546304 3.365630 708.252625
634 0 1 8.941086 3.155940 707.394287
635 0 1 9.518040 2.976930 706.625366
636 0 1 9.991150 2.680980 705.833191
637 0 1 10.285460 2.249040 704.973083
638 0 1 10.616400 1.988900 704.067200
639 0 1 10.619699 1.910260 703.114197
640 0 1 10.767520 1.684950 702.254028
641 0 1 10.634530 1.839280 701.334106
642 0 1 10.520430 2.209500 700.472290
643 0 1 10.115089 2.382010 699.571533
644 0 1 9.603100 2.147740 698.777710
645 0 1 9.153840 1.983560 697.974915
646 0 1 8.593676 1.816020 697.161194
647 0 1 8.180748 1.940980 696.303101
648 0 1 7.858885 2.211710 695.457397
649 0 1 7.440180 2.413060 694.578674
650 0 1 7.138028 3.000430 693.873413
651 0 1 6.935220 3.618180 693.156494
652 0 1 6.730770 4.222840 692.481201
653 0 1 6.696690 4.802190 691.716492
654 0 1 6.650260 5.214530 690.803406
655 0 1 6.475490 5.256770 689.867676
656 0 1 6.334290 5.408880 688.936890
657 0 1 6.260170 5.405570 687.959473
658 0 1 6.130620 5.509360 686.970215
659 0 1 5.967940 5.991850 686.155884
660 0 1 5.864470 6.209710 685.208496
661 0 1 5.711300 6.541130 684.300110
662 0 1 5.494470 6.869240 683.381409
663 0 1 5.177050 7.063349 682.548584
664 0 1 4.817990 7.199536 681.646118
665 0 1 4.440120 7.625099 680.959290
666 0 1 4.076470 8.078076 680.142822
667 0 1 3.760820 8.398843 679.339111
668 0 1 3.323630 8.578594 678.483582
669 0 1 3.064920 8.642982 677.593323
670 0 1 2.998690 8.599127 676.672302
671 0 1 2.762090 8.707716 675.766907
672 0 1 2.715100 8.898386 674.892090
673 0 1 2.586380 9.260750 673.955383
674 0 1 2.409230 9.857550 673.142883
675 0 1 2.352760 10.326050 672.228210
676 0 1 2.521390 10.708440 671.423889
677 0 1 2.813280 11.115280 670.602905
678 0 1 3.168180 11.583110 669.859314
679 0 1 3.437290 11.866560 669.002930
680 0 1 3.862220 12.163710 668.236816
681 0 1 4.511620 11.993410 667.597168
682 0 1 4.963510 11.897980 666.781006
683 0 1 5.179440 11.856570 665.802612
684 0 1 5.390040 11.986410 664.860474
685 0 1 5.789670 12.173830 664.053711
686 0 1 6.079700 12.294230 663.119202
687 0 1 6.401770 12.517630 662.240723
688 0 1 6.886860 12.738380 661.456482
689 0 1 7.451018 12.939610 660.725098
690 0 1 7.892450 12.909740 659.896790
691 0 1 8.563568 12.849979 659.180481
692 0 1 9.359880 12.805950 658.639587
693 0 1 10.207680 13.011360 658.232178
694 0 1 10.787450 13.339190 657.574890
695 0 1 11.214280 13.255660 656.696899
696 0 1 11.400430 13.067200 655.776123
697 0 1 11.397860 12.828510 654.829529
698 0 1 11.218679 12.588070 653.929993
699 0 1 11.047720 12.131149 653.100403
700 0 1 10.932640 11.986480 652.203491
701 0 1 10.384280 11.974600 651.438904
702 0 1 9.888750 11.875360 650.594727
703 0 1 9.416070 11.737180 649.802429
704 0 1 9.115410 11.493290 648.841614
705 0 1 9.124920 11.370820 647.913391
706 0 1 9.105090 11.244170 646.935120
707 0 1 9.176500 11.249650 645.967529
708 0 1 9.608860 11.060080 645.135925
709 0 1 9.974020 10.786221 644.300171
710 0 1 10.043210 10.337550 643.470215
711 0 1 9.725650 9.894710 642.674194
712 0 1 9.551690 9.424610 641.857178
713 0 1 9.410390 9.155830 640.924622
714 0 1 9.594430 9.019040 639.979797
715 0 1 9.847830 8.949232 639.053894
716 0 1 10.240380 8.711479 638.155151
717 0 1 10.355940 8.371484 637.255737
718 0 1 10.739960 8.288976 636.369385
719 0 1 11.311399 7.984791 635.680664
720 0 1 11.546410 7.647897 634.814148
721 0 1 11.712400 7.463330 633.868408
722 0 1 12.004140 7.217474 633.011658
723 0 1 12.325470 7.147246 632.085144
724 0 1 12.525801 7.145907 631.170410
725 0 1 12.351540 7.066595 630.221375
726 0 1 12.139080 6.907800 629.260010
727 0 1 12.050190 6.653410 628.306763
728 0 1 12.085060 6.338110 627.403442
729 0 1 11.962481 6.143620 626.473083
730 0 1 11.810480 5.957300 625.543945
731 0 1 11.866660 5.704780 624.626648
732 0 1 11.876141 5.601950 623.668213
733 0 1 11.882290 5.299010 622.735596
734 0 1 11.890890 5.208710 621.696655
735 0 1 11.836890 5.211370 620.682739
736 0 1 11.606560 5.246620 619.747559
737 0 1 11.408940 5.446490 618.829346
738 0 1 11.282730 5.898790 617.970581
739 0 1 10.988480 6.481410 617.148499
740 0 1 10.921510 7.124696 616.507019
741 0 1 10.852720 7.574885 615.664124
742 0 1 10.857690 8.317197 614.981323
743 0 1 10.729150 8.842025 614.181030
744 0 1 10.718070 9.374120 613.391907
745 0 1 10.422390 9.918560 612.662170
746 0 1 10.139420 10.655109 612.154175
747 0 1 10.033220 11.328110 611.474182
748 0 1 9.707300 11.896730 610.816406
749 0 1 9.240250 12.215040 610.072815
750 0 1 8.745907 12.071671 609.269226
751 0 1 8.592058 12.052250 608.311584
752 0 1 8.501291 11.910970 607.334290
753 0 1 8.612835 11.902930 606.369690
754 0 1 8.834289 12.057261 605.450989
755 0 1 8.969975 12.230260 604.511597
756 0 1 9.097040 12.251540 603.584106
757 0 1 9.117410 12.186110 602.634888
758 0 1 9.274470 11.993670 601.713989
759 0 1 9.397040 11.712720 600.802307
760 0 1 9.581620 11.652150 599.855408
761 0 1 9.787760 11.484790 598.916809
762 0 1 9.940450 11.294150 597.960388
763 0 1 10.217110 11.307130 597.006714
764 0 1 10.410089 11.302600 596.072021
765 0 1 10.337690 10.909030 595.172180
766 0 1 9.951280 10.637720 594.342896
767 0 1 9.693210 10.542450 593.415283
768 0 1 9.414670 10.123060 592.612610
769 0 1 9.228830 9.569570 591.812927
770 0 1 9.038940 9.184720 590.908569
771 0 1 9.075970 8.962178 589.935974
772 0 1 9.289370 8.866477 588.976685
773 0 1 9.458980 8.858376 587.963501
774 0 1 9.898911 8.821691 587.114075
775 0 1 10.299160 8.956418 586.198975
776 0 1 10.290610 9.099470 585.153381
777 0 1 10.205280 9.073410 584.264587
778 0 1 10.184920 8.693804 583.334412
779 0 1 10.274230 8.261875 582.462402
780 0 1 10.459330 7.623426 581.719910
781 0 1 10.513860 6.980410 581.051086
782 0 1 10.444640 6.486020 580.258606
783 0 1 10.183410 6.317100 579.332214
784 0 1 10.143930 6.159610 578.416504
785 0 1 10.449290 5.930070 577.573425
786 0 1 10.518430 5.528000 576.643921
787 0 1 10.464849 5.120860 575.833496
788 0 1 10.256910 4.646500 574.933899
789 0 1 9.997820 3.959080 574.302979
790 0 1 9.848860 3.483510 573.469788
791 0 1 9.671850 3.293230 572.546021