LAMMPS data file via MDAnalysis

        1000  atoms
        1000  bonds
        1000  angles
           0  dihedrals
           0  impropers

           1  atom types
           1  bond types
           1  angle types
           0  dihedral types
           0  improper types

0.000000 16.000000 xlo xhi
0.000000 16.000000 ylo yhi
0.000000 1257.000000 zlo zhi


Masses

1 1.000000

Atoms

1 0 1 4.402750 9.658930 456.404999
2 0 1 4.333860 9.355320 457.304016
3 0 1 3.962100 8.770090 458.130005
4 0 1 3.976860 8.248184 458.904999
5 0 1 4.169300 7.905620 459.760010
6 0 1 4.578290 7.431615 460.513000
7 0 1 4.912960 6.902610 461.171997
8 0 1 5.281750 6.711440 462.054016
9 0 1 5.928020 6.574270 462.735992
10 0 1 6.541780 6.348650 463.427979
11 0 1 7.435728 6.309930 463.848999
12 0 1 8.175227 6.673870 464.348999
13 0 1 8.587630 6.914170 465.186005
14 0 1 8.748339 7.281130 466.072998
15 0 1 9.075210 7.516056 466.931000
16 0 1 9.608610 7.706871 467.785004
17 0 1 9.887970 8.008628 468.692017
18 0 1 10.141860 8.314787 469.580017
19 0 1 10.320800 8.736781 470.432007
20 0 1 10.480030 9.223850 471.235992
21 0 1 10.598579 9.675080 472.042999
22 0 1 10.127680 9.658600 472.885010
23 0 1 10.013540 9.382060 473.772003
24 0 1 9.880900 9.074330 474.666992
25 0 1 9.644700 8.652415 475.591003
26 0 1 9.285510 8.397161 476.481018
27 0 1 8.696118 7.958678 477.054016
28 0 1 8.110614 7.325487 477.522003
29 0 1 7.337078 6.900500 477.979980
30 0 1 6.784570 6.347640 478.604004
31 0 1 6.252440 6.057530 479.403992
32 0 1 5.840850 6.109440 480.278015
33 0 1 5.535140 6.355080 481.259003
34 0 1 5.368310 6.657480 482.098999
35 0 1 5.276970 6.850360 483.062988
36 0 1 5.201710 7.018039 484.009003
37 0 1 4.821040 6.931940 484.835999
38 0 1 4.673560 6.933690 485.744995
39 0 1 4.617050 6.958260 486.705994
40 0 1 4.432900 7.017835 487.690979
41 0 1 4.459400 6.832990 488.601013
42 0 1 4.621290 6.361440 489.437988
43 0 1 4.941130 6.117440 490.335022
44 0 1 5.254260 6.117590 491.187012
45 0 1 5.755470 5.760300 491.908997
46 0 1 5.971410 5.378850 492.851990
47 0 1 6.108910 5.094290 493.845001
48 0 1 6.288610 4.889780 494.759003
49 0 1 6.688430 4.946430 495.643005
50 0 1 6.811980 5.082110 496.563995
51 0 1 7.165619 5.106340 497.488007
52 0 1 7.436731 5.289370 498.354004
53 0 1 7.829828 5.669620 499.158997
54 0 1 8.301463 5.963510 499.937012
55 0 1 8.672105 6.164120 500.799011
56 0 1 9.012840 6.092630 501.688995
57 0 1 9.250450 6.125050 502.677002
58 0 1 9.543940 6.415080 503.489014
59 0 1 9.543910 6.981180 504.350006
60 0 1 9.681340 7.715540 505.092010
61 0 1 9.744040 8.450937 505.644989
62 0 1 10.063570 9.113220 506.248993
63 0 1 10.005920 9.955290 506.778015
64 0 1 9.910380 10.470090 507.587006
65 0 1 9.568660 11.000980 508.296997
66 0 1 9.076810 11.273470 509.059998
67 0 1 8.692591 11.618680 509.842010
68 0 1 8.397812 11.670259 510.773987
69 0 1 8.234109 11.829400 511.760010
70 0 1 8.100456 11.923950 512.679993
71 0 1 7.863902 12.101360 513.603027
72 0 1 7.696046 12.486190 514.455017
73 0 1 7.522391 12.825670 515.315979
74 0 1 7.474237 12.852280 516.320984
75 0 1 7.583433 12.738310 517.233032
76 0 1 7.989480 12.524630 518.125977
77 0 1 8.355058 12.208150 519.005981
78 0 1 8.488635 11.686430 519.794983
79 0 1 8.280588 11.096920 520.515991
80 0 1 8.199467 10.509790 521.270020
81 0 1 7.978924 9.842140 521.953979
82 0 1 8.152463 9.190020 522.650024
83 0 1 8.319389 8.667165 523.489990
84 0 1 8.642314 7.960788 524.108032
85 0 1 8.947237 7.375758 524.809021
86 0 1 9.069980 6.629850 525.333984
87 0 1 9.240940 6.254530 526.158020
88 0 1 9.475570 5.778430 526.947021
89 0 1 9.581740 5.600030 527.895996
90 0 1 9.532840 5.524660 528.889771
91 0 1 9.647230 5.443450 529.820618
92 0 1 10.054540 5.457690 530.744202
93 0 1 10.476510 5.242840 531.595215
94 0 1 10.873410 5.009800 532.503174
95 0 1 11.447860 5.109270 533.238098
96 0 1 11.853000 5.433480 534.062134
97 0 1 12.009880 5.880450 534.954285
98 0 1 11.987510 6.149340 535.834717
99 0 1 11.983620 6.095230 536.750366
100 0 1 11.935620 6.068140 537.685120
101 0 1 11.862870 6.416200 538.602905
102 0 1 11.570590 6.615860 539.500488
103 0 1 11.485189 6.639240 540.466125
104 0 1 11.192460 7.114323 541.186218
105 0 1 10.928289 7.534503 541.992798
106 0 1 10.600389 7.634761 542.846069
107 0 1 10.163640 7.866394 543.620789
108 0 1 9.615390 7.787445 544.414978
109 0 1 9.312550 7.865552 545.269287
110 0 1 9.405180 8.293857 546.144592
111 0 1 9.309750 8.217979 547.047913
112 0 1 9.104380 8.213024 548.025513
113 0 1 8.969016 8.144025 548.921631
114 0 1 8.771675 8.064419 549.900208
115 0 1 8.655289 8.089404 550.915405
116 0 1 8.248326 8.153674 551.807373
117 0 1 7.801541 8.014372 552.645691
118 0 1 7.177933 7.968706 553.360291
119 0 1 6.790430 7.737610 554.198914
120 0 1 6.421510 7.497674 555.041504
121 0 1 6.173060 7.381868 555.981323
122 0 1 5.967230 7.305281 556.930420
123 0 1 5.779410 7.250308 557.846069
124 0 1 5.684540 6.935000 558.739807
125 0 1 5.773580 6.546410 559.655518
126 0 1 5.966640 6.362990 560.580566
127 0 1 6.316070 6.460130 561.446777
128 0 1 6.237180 6.585910 562.385132
129 0 1 6.239080 6.932870 563.274292
130 0 1 6.016540 7.069263 564.147095
131 0 1 5.828880 7.235540 565.103394
132 0 1 6.080420 7.316753 565.999512
133 0 1 6.528440 7.360795 566.874695
134 0 1 7.060049 7.148581 567.612976
135 0 1 7.303838 6.788560 568.443970
136 0 1 7.333601 6.623980 569.373108
137 0 1 7.538755 6.445800 570.315491
138 0 1 7.892555 6.358670 571.154907
139 0 1 8.282923 6.280350 571.981018
140 0 1 8.615498 6.363890 572.858032
141 0 1 8.618503 6.304520 573.824280
142 0 1 8.968464 6.340750 574.732727
143 0 1 9.204730 6.120970 575.658020
144 0 1 9.839460 6.040590 576.378906
145 0 1 10.359390 6.229760 577.197021
146 0 1 10.970740 6.320010 578.028809
147 0 1 11.586320 6.308870 578.807495
148 0 1 12.071520 6.373660 579.626404
149 0 1 12.359529 6.531130 580.541016
150 0 1 12.451600 6.639780 581.576904
151 0 1 12.559361 7.116334 582.432129
152 0 1 12.800250 7.647360 583.202271
153 0 1 12.943050 8.067197 584.084412
154 0 1 12.764610 8.599485 584.875000
155 0 1 12.616671 9.181680 585.635681
156 0 1 12.260670 9.804580 586.321289
157 0 1 11.715580 10.189160 587.064880
158 0 1 11.236420 10.186000 587.884521
159 0 1 10.685580 10.152920 588.630798
160 0 1 10.001101 10.179100 589.259583
161 0 1 9.457470 9.958410 590.120605
162 0 1 9.189840 9.517570 590.935181
163 0 1 9.244540 9.055260 591.763977
164 0 1 9.430050 8.629076 592.625916
165 0 1 9.414100 8.599943 593.624207
166 0 1 9.458560 8.391652 594.524109
167 0 1 9.705940 8.343508 595.453491
168 0 1 10.028940 8.629907 596.301025
169 0 1 10.562429 8.954695 596.981323
170 0 1 10.718000 9.004530 597.954773
171 0 1 11.185270 9.017040 598.785217
172 0 1 11.694910 8.854706 599.582825
173 0 1 12.196470 8.859085 600.399109
174 0 1 12.333340 8.784231 601.342590
175 0 1 12.489019 8.903343 602.311218
176 0 1 12.779739 9.081850 603.181030
177 0 1 13.002740 9.215430 604.152710
178 0 1 13.145990 9.529110 605.053894
179 0 1 13.171850 9.693980 606.065674
180 0 1 12.910550 9.672000 607.038391
181 0 1 12.821480 9.588580 607.945496
182 0 1 12.554871 9.357390 608.854187
183 0 1 12.293200 9.250100 609.801697
184 0 1 11.836250 9.273820 610.661804
185 0 1 11.287920 9.491850 611.415588
186 0 1 10.692560 9.966780 611.970886
187 0 1 10.306160 10.296910 612.795105
188 0 1 10.089340 10.668500 613.626526
189 0 1 9.762671 10.623569 614.555908
190 0 1 9.632190 10.599421 615.500122
191 0 1 9.729920 10.537840 616.535400
192 0 1 9.891970 10.172840 617.410217
193 0 1 9.834249 9.877980 618.349487
194 0 1 9.597240 9.574510 619.264709
195 0 1 9.297380 9.268300 620.125000
196 0 1 9.128690 9.105280 621.116699
197 0 1 9.114510 9.000150 622.071960
198 0 1 9.133270 8.931907 623.041260
199 0 1 9.298390 8.994248 624.037048
200 0 1 9.021749 9.325020 624.885376
201 0 1 8.672885 9.410830 625.846619
202 0 1 8.155095 9.439730 626.638245
203 0 1 7.748594 9.295040 627.528198
204 0 1 7.354834 9.118630 628.403748
205 0 1 7.276409 9.035620 629.339783
206 0 1 7.375500 8.943358 630.300232
207 0 1 7.395796 8.912565 631.250610
208 0 1 7.594351 8.871445 632.196838
209 0 1 8.057691 8.680849 632.992432
210 0 1 8.323818 8.596126 633.890320
211 0 1 8.664135 8.654194 634.800415
212 0 1 9.032350 8.879123 635.679321
213 0 1 9.525140 9.113490 636.533386
214 0 1 9.881550 9.116930 637.448853
215 0 1 10.154260 9.062770 638.369934
216 0 1 10.194210 9.106380 639.320312
217 0 1 10.561080 9.285050 640.287292
218 0 1 10.889310 9.637970 641.114014
219 0 1 11.315750 9.676720 641.997498
220 0 1 11.426750 9.642540 642.954407
221 0 1 11.537940 9.859140 643.906921
222 0 1 11.233690 10.220660 644.729004
223 0 1 10.894350 10.667130 645.554504
224 0 1 10.617790 10.637020 646.444519
225 0 1 10.637569 10.647260 647.397522
226 0 1 10.834490 10.869640 648.291504
227 0 1 10.936510 11.128080 649.195312
228 0 1 11.045600 11.429820 650.093384
229 0 1 11.204940 11.616159 651.017090
230 0 1 11.642960 11.574150 651.893616
231 0 1 11.811650 11.522810 652.831482
232 0 1 11.679410 11.784910 653.862122
233 0 1 11.843220 11.773990 654.792297
234 0 1 12.017160 11.479919 655.658691
235 0 1 12.145260 11.063590 656.580383
236 0 1 12.020411 10.639240 657.490906
237 0 1 11.707590 10.136909 658.192383
238 0 1 11.479361 9.678950 659.010010
239 0 1 11.096880 9.148520 659.685303
240 0 1 10.768020 8.801996 660.532898
241 0 1 10.522779 8.259509 661.343811
242 0 1 10.521260 7.456913 661.899719
243 0 1 10.640181 6.809710 662.629822
244 0 1 10.789540 6.500810 663.477600
245 0 1 11.144279 6.416600 664.385986
246 0 1 11.286800 6.231960 665.439209
247 0 1 11.201880 6.044430 666.360718
248 0 1 11.129120 5.612320 667.227112
249 0 1 10.952260 5.128470 668.053101
250 0 1 10.877430 4.750290 668.912720
251 0 1 11.000340 4.675350 669.846069
252 0 1 11.149830 4.474320 670.783081
253 0 1 11.215990 4.188880 671.669983
254 0 1 11.086610 3.848680 672.607483
255 0 1 10.767500 3.562910 673.525391
256 0 1 10.740690 3.204780 674.382690
257 0 1 10.723410 3.255760 675.332703
258 0 1 10.551200 3.313810 676.289307
259 0 1 10.290960 3.218560 677.216125
260 0 1 9.909710 3.344390 678.135803
261 0 1 9.840770 3.757960 679.068787
262 0 1 9.436720 4.303690 679.786621
263 0 1 8.774685 4.359530 680.574097
264 0 1 8.440523 4.453110 681.485474
265 0 1 8.186433 4.696570 682.401794
266 0 1 7.920307 4.948030 683.283875
267 0 1 7.788016 5.125900 684.207581
268 0 1 7.684222 5.272470 685.197876
269 0 1 7.360617 5.519570 686.084290
270 0 1 6.819350 5.686700 686.915405
271 0 1 6.492910 5.527940 687.800110
272 0 1 6.229080 5.558310 688.679932
273 0 1 6.226830 5.526460 689.614014
274 0 1 6.306780 5.739720 690.550720
275 0 1 6.723400 6.294790 691.232178
276 0 1 7.122300 6.938820 691.859009
277 0 1 7.546795 7.331483 692.677490
278 0 1 7.913255 7.769871 693.458008
279 0 1 8.243212 8.044524 694.343323
280 0 1 8.507310 8.101020 695.272217
281 0 1 8.817264 8.010097 696.182800
282 0 1 8.932655 7.794181 697.097290
283 0 1 9.181830 7.731905 698.049011
284 0 1 9.807070 7.957382 698.707031
285 0 1 10.351350 8.359584 699.407471
286 0 1 10.734460 8.682214 700.194885
287 0 1 11.145190 9.143070 701.003784
288 0 1 11.630120 9.609650 701.696777
289 0 1 12.071330 9.974490 702.491577
290 0 1 12.495689 10.391790 703.229004
291 0 1 12.889680 10.810830 704.016174
292 0 1 12.962980 11.022960 704.956787
293 0 1 13.032610 11.097970 705.883118
294 0 1 12.816851 10.922000 706.757080
295 0 1 12.533630 10.884439 707.670410
296 0 1 12.370780 10.789890 708.592102
297 0 1 12.246810 10.833620 709.519592
298 0 1 12.371861 10.681850 710.435974
299 0 1 12.299540 10.497271 711.406128
300 0 1 12.104031 10.304140 712.312134
301 0 1 12.064569 10.592710 713.241211
302 0 1 11.931630 10.804290 714.119995
303 0 1 11.942270 11.356510 714.894714
304 0 1 11.774800 11.994860 715.690613
305 0 1 11.456480 12.638760 716.289185
306 0 1 11.065300 13.258181 716.836975
307 0 1 10.377160 13.783580 717.314819
308 0 1 9.698940 14.072550 717.981689
309 0 1 9.040960 13.899170 718.685608
310 0 1 8.373915 13.668660 719.406494
311 0 1 7.830576 13.413710 720.160217
312 0 1 7.465516 12.911290 720.945190
313 0 1 7.099073 12.442070 721.692627
314 0 1 6.953800 11.808570 722.419983
315 0 1 6.872900 11.305080 723.181396
316 0 1 6.741940 10.741010 723.895081
317 0 1 6.545380 10.473060 724.806519
318 0 1 6.341320 10.204600 725.668579
319 0 1 6.411020 9.869890 726.588989
320 0 1 6.639410 9.623580 727.513000
321 0 1 6.977990 9.185300 728.278320
322 0 1 7.127034 8.658875 729.119019
323 0 1 7.399532 8.045069 729.961975
324 0 1 7.755030 7.672905 730.797974
325 0 1 8.124521 7.316730 731.625000
326 0 1 8.129981 7.078900 732.593018
327 0 1 7.853552 6.454240 733.286987
328 0 1 7.577871 5.991970 734.062988
329 0 1 7.439007 5.552800 734.913025
330 0 1 7.362924 5.200130 735.814026
331 0 1 7.413984 4.859990 736.719971
332 0 1 7.577253 4.527590 737.630981
333 0 1 7.890759 4.177330 738.504028
334 0 1 8.401119 3.749220 739.223022
335 0 1 8.671973 3.499220 740.096008
336 0 1 8.791188 2.984540 740.885010
337 0 1 9.196939 2.646490 741.739014
338 0 1 9.370440 2.351370 742.682983
339 0 1 9.611680 1.972910 743.598022
340 0 1 9.850530 1.835970 744.458008
341 0 1 9.847190 2.044090 745.395020
342 0 1 9.754200 2.219340 746.349976
343 0 1 9.536930 2.301630 747.338013
344 0 1 9.307250 2.546950 748.179993
345 0 1 9.065250 2.764300 749.127991
346 0 1 8.642180 2.970620 749.973022
347 0 1 8.274882 3.415290 750.794983
348 0 1 8.323175 4.053500 751.500000
349 0 1 8.413640 4.724910 752.141968
350 0 1 8.660233 5.101280 752.973022
351 0 1 9.064230 5.178800 753.877014
352 0 1 9.208800 5.392970 754.856995
353 0 1 9.183670 5.578020 755.832031
354 0 1 9.292610 5.562430 756.760010
355 0 1 9.362850 5.884880 757.676025
356 0 1 9.735590 6.296740 758.523010
357 0 1 10.133990 6.239310 759.391968
358 0 1 10.297060 6.356310 760.309998
359 0 1 10.193910 6.320320 761.257019
360 0 1 10.191780 6.114050 762.239014
361 0 1 10.174390 6.032900 763.234009
362 0 1 10.037550 5.906920 764.203979
363 0 1 9.846020 5.990140 765.177002
364 0 1 9.826520 5.850480 766.083984
365 0 1 9.817980 5.495310 766.976990
366 0 1 9.724400 4.969660 767.823975
367 0 1 9.864300 4.404290 768.671997
368 0 1 9.654220 3.924970 769.521973
369 0 1 9.320971 3.623360 770.398987
370 0 1 9.194910 3.519670 771.337036
371 0 1 8.985006 3.760180 772.283997
372 0 1 9.011640 4.130150 773.141968
373 0 1 9.263930 4.404930 774.036987
374 0 1 9.377750 4.736530 774.942993
375 0 1 9.470610 5.138670 775.789001
376 0 1 9.315140 5.340190 776.705994
377 0 1 9.191390 5.333980 777.666016
378 0 1 8.826589 5.164740 778.635986
379 0 1 8.479795 5.235580 779.528015
380 0 1 8.100015 5.241690 780.421021
381 0 1 7.654158 5.313380 781.318970
382 0 1 7.172597 5.243050 782.177979
383 0 1 6.888870 5.048070 783.054016
384 0 1 6.477080 4.754020 783.841980
385 0 1 6.055790 4.475320 784.703979
386 0 1 5.902690 4.265640 785.729980
387 0 1 5.871580 4.159880 786.708008
388 0 1 6.010220 4.258420 787.645996
389 0 1 6.160580 4.485090 788.583008
390 0 1 6.532160 4.923070 789.417969
391 0 1 6.508580 5.320700 790.315979
392 0 1 6.532470 5.519470 791.229980
393 0 1 6.599190 5.723080 792.153992
394 0 1 6.590840 5.989990 793.049988
395 0 1 6.326090 5.868090 793.994995
396 0 1 6.340300 5.624590 794.942017
397 0 1 6.427200 5.097960 795.823975
398 0 1 6.351160 4.493800 796.513000
399 0 1 6.409250 3.964720 797.335999
400 0 1 6.670440 3.599690 798.226013
401 0 1 7.005900 3.389280 799.188965
402 0 1 7.413799 3.376490 800.091003
403 0 1 7.701720 3.447390 800.992981
404 0 1 7.839193 3.595540 801.985962
405 0 1 8.136042 4.145490 802.785034
406 0 1 8.394573 4.737880 803.526978
407 0 1 8.297009 5.604480 804.054016
408 0 1 8.413890 6.539830 804.235962
409 0 1 8.257650 7.440066 804.572021
410 0 1 8.215850 8.113761 805.291016
411 0 1 8.096791 8.859774 805.882996
412 0 1 7.904229 9.485790 806.585999
413 0 1 7.430640 10.036980 807.179993
414 0 1 6.732270 10.466619 807.719971
415 0 1 6.239860 10.958990 808.393982
416 0 1 5.445070 11.340170 808.983032
417 0 1 4.584870 11.526300 809.445984
418 0 1 3.808900 11.616590 810.127014
419 0 1 3.090710 11.507430 810.765991
420 0 1 2.704200 11.173140 811.552979
421 0 1 2.757210 10.932980 812.445007
422 0 1 2.998360 10.672530 813.313965
423 0 1 3.605570 10.554190 814.020996
424 0 1 4.174780 10.801889 814.710999
425 0 1 4.638820 11.333480 815.351990
426 0 1 5.164700 11.743570 815.932007
427 0 1 5.635990 12.113230 816.739990
428 0 1 5.757200 12.336810 817.690979
429 0 1 6.074110 12.666161 818.520020
430 0 1 6.114480 12.876270 819.414978
431 0 1 6.060440 13.267050 820.261963
432 0 1 6.262020 13.375750 821.228027
433 0 1 6.466250 13.799610 822.080994
434 0 1 6.613150 14.136530 822.953979
435 0 1 6.850740 14.410260 823.872986
436 0 1 7.126841 14.514690 824.766968
437 0 1 7.387441 14.692440 825.645996
438 0 1 7.049310 14.722020 826.514038
439 0 1 6.711520 14.756240 827.463013
440 0 1 6.759410 14.731279 828.478027
441 0 1 6.873940 14.750010 829.400024
442 0 1 6.806400 14.818560 830.328003
443 0 1 6.841370 14.639111 831.302979
444 0 1 6.774150 14.293280 832.239014
445 0 1 6.533860 14.284121 833.182983
446 0 1 6.391550 14.388920 834.109009
447 0 1 6.385140 14.393061 835.088013
448 0 1 6.274320 14.532040 836.057983
449 0 1 6.261180 14.525110 837.013000
450 0 1 5.790830 14.274410 837.820984
451 0 1 5.366300 13.721230 838.568970
452 0 1 4.869880 13.097750 839.129028
453 0 1 4.341410 12.260740 839.260986
454 0 1 3.830620 11.471610 839.127014
455 0 1 3.608600 10.694780 838.546021
456 0 1 3.449340 9.899270 838.115967
457 0 1 3.522530 9.157600 837.513000
458 0 1 3.411920 8.336432 837.036011
459 0 1 3.426940 7.746312 836.221008
460 0 1 3.413930 7.203148 835.483032
461 0 1 3.561680 6.744180 834.698975
462 0 1 3.691970 6.570930 833.749023
463 0 1 3.809400 6.492300 832.802979
464 0 1 4.013850 6.564260 831.934998
465 0 1 4.201350 6.623250 830.981995
466 0 1 4.469290 6.401430 830.063965
467 0 1 4.593160 6.128820 829.197998
468 0 1 4.732610 5.827300 828.294006
469 0 1 5.153370 5.329650 827.526001
470 0 1 5.410970 4.977040 826.632996
471 0 1 5.532770 4.656920 825.773010
472 0 1 5.705470 4.464510 824.825012
473 0 1 6.086370 4.324010 823.843018
474 0 1 6.530320 4.128070 823.014038
475 0 1 6.556970 4.020880 822.013000
476 0 1 6.819790 3.722300 821.136963
477 0 1 7.271410 3.562740 820.309021
478 0 1 7.654482 3.164410 819.382019
479 0 1 7.792358 2.995140 818.403015
480 0 1 7.842895 3.072600 817.447998
481 0 1 7.780449 3.397450 816.533997
482 0 1 7.981748 3.693750 815.646973
483 0 1 8.138322 3.686490 814.713013
484 0 1 8.271866 4.049920 813.830994
485 0 1 8.589434 4.339640 813.004028
486 0 1 8.886069 4.559240 812.172974
487 0 1 9.693540 4.477640 811.619995
488 0 1 10.238140 4.231390 810.858032
489 0 1 10.909451 4.229240 810.125977
490 0 1 11.288010 4.480970 809.281982
491 0 1 11.560801 4.467690 808.369995
492 0 1 11.890881 4.686600 807.497986
493 0 1 12.357590 4.858670 806.687988
494 0 1 12.649500 4.685330 805.679993
495 0 1 12.755711 4.187520 804.839966
496 0 1 12.740250 3.627870 804.051025
497 0 1 12.763180 3.527060 803.085999
498 0 1 12.283990 3.434710 802.244019
499 0 1 11.965480 3.092500 801.431030
500 0 1 11.391650 2.649510 800.783020
501 0 1 10.798650 2.296080 800.151001
502 0 1 10.240550 2.111460 799.356018
503 0 1 9.876690 2.091500 798.429993
504 0 1 9.399180 2.090240 797.562988
505 0 1 9.245890 2.226590 796.596985
506 0 1 9.019160 2.236370 795.650024
507 0 1 8.619239 2.216690 794.747986
508 0 1 8.258125 2.380050 793.919983
509 0 1 8.403338 2.706990 793.068970
510 0 1 8.553865 2.869490 792.106018
511 0 1 8.394117 3.055880 791.169983
512 0 1 8.196956 3.362230 790.291016
513 0 1 7.910316 3.669850 789.416992
514 0 1 7.848210 4.009910 788.531006
515 0 1 7.574701 4.557770 787.724976
516 0 1 7.364012 5.223890 787.061035
517 0 1 7.321241 5.975930 786.474976
518 0 1 7.356421 6.798510 785.950989
519 0 1 7.379640 7.522318 785.302002
520 0 1 7.270124 8.312388 784.733032
521 0 1 7.098882 9.067030 784.187988
522 0 1 6.670520 9.702230 783.645996
523 0 1 6.312800 10.264840 782.903992
524 0 1 5.950990 10.493600 781.997986
525 0 1 5.828160 10.764260 781.088013
526 0 1 5.582250 11.230260 780.278015
527 0 1 5.468830 11.463170 779.358032
528 0 1 5.362580 11.804520 778.513000
529 0 1 4.901070 12.177530 777.728027
530 0 1 4.573690 12.697500 777.057007
531 0 1 4.483570 13.173360 776.250000
532 0 1 4.517520 13.575080 775.384033
533 0 1 4.747810 13.789660 774.453003
534 0 1 4.915110 13.713640 773.476013
535 0 1 4.935050 13.511440 772.488037
536 0 1 4.665560 13.440620 771.614014
537 0 1 4.361560 13.344610 770.729980
538 0 1 4.331440 13.164650 769.747986
539 0 1 4.398040 13.081980 768.781982
540 0 1 4.341400 13.091021 767.817993
541 0 1 4.559990 13.168470 766.856018
542 0 1 4.606250 13.302691 765.882019
543 0 1 4.792950 13.482161 764.903015
544 0 1 5.094370 13.760440 764.011963
545 0 1 5.427210 13.753770 763.082031
546 0 1 5.504490 13.474461 762.148010
547 0 1 5.518450 13.514460 761.190002
548 0 1 5.467480 13.853210 760.283020
549 0 1 5.579510 14.187580 759.341980
550 0 1 5.692410 14.369989 758.363037
551 0 1 6.003840 14.250060 757.499023
552 0 1 6.488230 13.718440 756.867981
553 0 1 6.936770 13.319420 756.106018
554 0 1 7.114245 12.576270 755.401001
555 0 1 7.045471 11.747829 754.875000
556 0 1 7.013495 11.016380 754.265991
557 0 1 6.904900 10.589300 753.419983
558 0 1 7.031816 10.295210 752.560974
559 0 1 7.438081 10.177401 751.690002
560 0 1 7.760953 10.264400 750.765991
561 0 1 7.931939 10.019090 749.882996
562 0 1 7.896105 9.773920 748.934021
563 0 1 7.946314 9.460210 747.992004
564 0 1 8.284882 9.265490 747.096985
565 0 1 8.415784 8.783667 746.270020
566 0 1 8.373124 8.202541 745.497009
567 0 1 8.344243 7.805093 744.645020
568 0 1 8.336173 7.651826 743.677979
569 0 1 8.782142 7.708965 742.864014
570 0 1 9.121570 7.587450 741.924011
571 0 1 9.318040 7.486231 740.953003
572 0 1 9.504840 7.572403 739.890991
573 0 1 9.655160 7.874555 739.031006
574 0 1 9.583270 8.115412 738.096985
575 0 1 9.516080 8.121904 737.059998
576 0 1 9.400360 8.220601 736.141968
577 0 1 9.169470 8.643756 735.309998
578 0 1 8.804445 9.139470 734.562988
579 0 1 8.435434 9.580870 733.765015
580 0 1 8.122942 9.832110 732.901001
581 0 1 7.819535 10.116040 731.986023
582 0 1 7.847857 10.216520 731.051025
583 0 1 8.022364 10.294300 730.080017
584 0 1 8.376582 10.346189 729.192017
585 0 1 8.600521 10.127871 728.325500
586 0 1 8.929689 9.908940 727.464478
587 0 1 9.303070 9.506360 726.681702
588 0 1 9.567039 9.245650 725.759216
589 0 1 9.621770 8.790802 724.903809
590 0 1 9.482570 8.366628 724.035583
591 0 1 9.521630 7.978160 723.174683
592 0 1 9.532870 7.592485 722.269592
593 0 1 9.445680 6.987920 721.482666
594 0 1 9.214911 6.448260 720.592529
595 0 1 9.215460 5.969180 719.671997
596 0 1 9.235680 5.746940 718.673889
597 0 1 9.198050 5.388590 717.766602
598 0 1 9.316020 5.226380 716.768616
599 0 1 9.380690 5.088190 715.846985
600 0 1 9.500160 4.794010 714.964233
601 0 1 9.755380 4.288010 714.096191
602 0 1 9.830441 4.006060 713.224304
603 0 1 10.114380 3.715550 712.383118
604 0 1 10.392890 3.335530 711.523499
605 0 1 10.721370 3.208980 710.610107
606 0 1 10.822890 3.063640 709.617615
607 0 1 11.082750 2.789230 708.734314
608 0 1 11.260650 2.717020 707.785767
609 0 1 11.315910 2.932630 706.848083
610 0 1 11.108540 3.209190 705.947021
611 0 1 10.690580 3.638560 705.104797
612 0 1 10.484780 3.982510 704.201599
613 0 1 10.572630 4.523070 703.393677
614 0 1 10.488180 5.352420 702.975220
615 0 1 10.332490 5.968140 702.250610
616 0 1 10.390841 6.611910 701.533875
617 0 1 10.503760 6.842490 700.624023
618 0 1 10.963500 6.854090 699.794922
619 0 1 11.445601 6.761950 699.009827
620 0 1 11.862710 6.824230 698.137695
621 0 1 12.066360 6.693580 697.202271
622 0 1 12.573071 6.350590 696.461792
623 0 1 12.615860 5.715700 695.686768
624 0 1 12.789750 5.177840 694.892822
625 0 1 12.623110 4.541790 694.182617
626 0 1 12.418540 3.800730 693.554626
627 0 1 12.041140 3.104670 692.929382
628 0 1 11.840430 2.663180 692.083374
629 0 1 11.592370 2.493100 691.096375
630 0 1 11.081970 2.543150 690.312683
631 0 1 10.502050 2.473210 689.530579
632 0 1 9.922240 2.417040 688.822876
633 0 1 9.142780 2.550610 688.231995
634 0 1 8.422843 2.707510 687.587524
635 0 1 7.922661 2.391700 686.765320
636 0 1 7.645240 2.100450 685.901306
637 0 1 7.791301 1.593600 685.110718
638 0 1 7.687969 1.492070 684.170776
639 0 1 7.569429 1.664810 683.239685
640 0 1 7.523938 1.847240 682.300110
641 0 1 7.628382 2.195880 681.366699
642 0 1 7.543434 2.542210 680.453003
643 0 1 7.297770 2.919960 679.582031
644 0 1 7.014217 3.178690 678.700195
645 0 1 6.847470 3.615970 677.839172
646 0 1 6.630590 4.063300 676.974731
647 0 1 6.704900 4.537470 676.143372
648 0 1 6.675000 5.010390 675.312073
649 0 1 6.626400 5.464140 674.438416
650 0 1 6.738620 5.710060 673.499573
651 0 1 7.200982 5.823810 672.632690
652 0 1 7.532082 6.215130 671.778809
653 0 1 7.423140 6.569800 670.937195
654 0 1 7.287954 7.114965 670.195496
655 0 1 7.137751 7.559728 669.349121
656 0 1 7.023439 8.203421 668.599121
657 0 1 6.653660 8.639514 667.845886
658 0 1 6.208680 8.844844 667.030518
659 0 1 6.076510 9.161540 666.106689
660 0 1 5.686690 9.647800 665.346191
661 0 1 5.269610 9.745440 664.509888
662 0 1 4.617570 9.583010 663.811218
663 0 1 4.389900 9.171700 663.015686
664 0 1 4.333390 8.887627 662.081177
665 0 1 4.319890 8.292226 661.345886
666 0 1 4.245960 7.986819 660.471313
667 0 1 4.106070 7.434655 659.702209
668 0 1 3.846200 6.938440 658.863281
669 0 1 3.908090 6.466330 658.005676
670 0 1 4.295010 6.087170 657.127319
671 0 1 4.660070 5.935490 656.139893
672 0 1 4.870100 5.578840 655.278076
673 0 1 5.433500 5.306360 654.541077
674 0 1 5.944640 4.941340 653.775208
675 0 1 6.592660 4.621640 653.108398
676 0 1 7.118056 4.415630 652.340881
677 0 1 7.849070 4.106300 651.744629
678 0 1 8.488808 3.660380 651.226074
679 0 1 9.260940 3.370080 650.785217
680 0 1 9.980860 3.170350 650.153076
681 0 1 10.395850 3.143590 649.255798
682 0 1 10.592190 3.298630 648.332397
683 0 1 10.966640 3.244060 647.485779
684 0 1 11.130210 3.260910 646.495728
685 0 1 11.250810 3.507480 645.530823
686 0 1 11.371080 3.299040 644.649719
687 0 1 11.378180 3.453980 643.708191
688 0 1 10.987830 3.292130 642.804199
689 0 1 10.574739 3.238940 641.902222
690 0 1 10.313840 3.043400 640.971985
691 0 1 10.314130 3.037710 639.978271
692 0 1 10.390790 3.081950 638.989624
693 0 1 10.335200 3.395240 638.061096
694 0 1 10.342740 3.519490 637.130432
695 0 1 10.287040 3.371370 636.179810
696 0 1 10.405820 3.213460 635.255676
697 0 1 10.036770 3.021940 634.368958
698 0 1 9.643370 2.798030 633.450989
699 0 1 9.288330 2.350760 632.585815
700 0 1 9.041860 1.830300 631.810547
701 0 1 8.863496 1.680880 630.887573
702 0 1 8.498850 1.804270 630.025940
703 0 1 8.399627 1.971100 629.073242
704 0 1 8.539230 1.985770 628.136597
705 0 1 8.534350 1.884690 627.192383
706 0 1 8.274928 1.901120 626.256592
707 0 1 8.327633 1.952980 625.297913
708 0 1 8.512877 1.967220 624.343994
709 0 1 8.846242 1.982620 623.395020
710 0 1 9.182730 2.146930 622.502014
711 0 1 9.388880 2.241610 621.478760
712 0 1 9.390110 2.642540 620.561035
713 0 1 9.559940 3.044420 619.705261
714 0 1 9.972630 3.361710 618.871216
715 0 1 10.462780 3.687970 618.077881
716 0 1 10.489810 3.772030 617.096069
717 0 1 10.743000 4.005100 616.257996
718 0 1 10.982161 3.959880 615.247925
719 0 1 11.304670 3.861070 614.319824
720 0 1 11.316401 3.528240 613.385071
721 0 1 11.377050 3.379960 612.481873
722 0 1 11.161221 3.071320 611.458801
723 0 1 10.943950 2.926530 610.538208
724 0 1 10.771390 2.979710 609.560791
725 0 1 10.748520 2.958360 608.630127
726 0 1 10.501920 3.268150 607.724426
727 0 1 10.404020 3.419370 606.772583
728 0 1 10.344049 3.602300 605.790405
729 0 1 10.087560 3.996620 605.001221
730 0 1 9.991760 4.599980 604.281494
731 0 1 9.862030 4.946150 603.396606
732 0 1 9.826010 5.301170 602.484497
733 0 1 9.590410 5.358000 601.586609
734 0 1 9.362650 5.568330 600.714172
735 0 1 9.218860 5.981490 599.818176
736 0 1 8.902245 6.575510 599.051270
737 0 1 8.729484 7.166604 598.353516
738 0 1 8.636713 7.963376 597.808716
739 0 1 8.530109 8.724134 597.214294
740 0 1 8.354439 9.553680 596.817505
741 0 1 8.125913 10.328630 596.349182
742 0 1 7.797233 10.989520 595.717285
743 0 1 7.407412 11.425640 594.978271
744 0 1 6.884190 11.622169 594.178589
745 0 1 6.333760 11.772500 593.399292
746 0 1 6.205750 11.687469 592.505920
747 0 1 6.163450 11.611990 591.590088
748 0 1 6.000420 11.629670 590.562805
749 0 1 6.271570 11.684450 589.635010
750 0 1 6.469570 11.940920 588.618713
751 0 1 6.868540 11.991380 587.675781
752 0 1 7.042928 11.864720 586.754089
753 0 1 7.294601 11.694990 585.890198
754 0 1 7.408667 11.588010 584.911987
755 0 1 7.285231 11.580890 583.955017
756 0 1 7.031751 11.261400 583.056580
757 0 1 7.015524 10.771040 582.260132
758 0 1 6.707340 10.380540 581.463318
759 0 1 6.081080 10.001170 580.836304
760 0 1 5.529250 9.502730 580.250916
761 0 1 5.105520 8.883891 579.699402
762 0 1 4.478440 8.351843 579.174500
763 0 1 4.066450 7.834165 578.522705
764 0 1 3.597630 7.457040 577.774719
765 0 1 3.375960 7.338263 576.852905
766 0 1 3.320350 6.918530 575.989868
767 0 1 3.404890 6.624560 575.027405
768 0 1 3.692140 6.485000 574.162109
769 0 1 4.101090 6.320430 573.268982
770 0 1 4.401680 5.896580 572.410278
771 0 1 4.661990 5.847350 571.384705
772 0 1 5.116430 5.827030 570.543701
773 0 1 5.630100 5.699850 569.790222
774 0 1 6.237760 5.553300 569.014771
775 0 1 6.558740 5.551250 568.115723
776 0 1 7.003011 5.249000 567.328369
777 0 1 7.365956 4.969560 566.426697
778 0 1 7.507351 4.558490 565.589294
779 0 1 7.571635 4.007320 564.809021
780 0 1 7.648578 3.584010 563.868286
781 0 1 7.402716 3.409920 562.938721
782 0 1 6.836610 3.156820 562.198120
783 0 1 6.143860 2.851310 561.503113
784 0 1 5.756160 2.545670 560.650513
785 0 1 5.587600 2.203340 559.765198
786 0 1 5.453620 1.849740 558.832520
787 0 1 5.402100 1.784470 557.854614
788 0 1 5.627670 1.874520 556.924927
789 0 1 5.991660 1.846770 556.012817
790 0 1 6.236510 1.938350 555.068176
791 0 1 6.727070 2.209290 554.374268
792 0 1 7.018991 2.653130 553.482666