LAMMPS data file via MDAnalysis

        1000  atoms
        1000  bonds
        1000  angles
           0  dihedrals
           0  impropers

           1  atom types
           1  bond types
           1  angle types
           0  dihedral types
           0  improper types

0.000000 16.000000 xlo xhi
0.000000 16.000000 ylo yhi
0.000000 1257.000000 zlo zhi


Masses

1 1.000000

Atoms

1 0 1 5.256780 3.281570 442.864014
2 0 1 4.732060 3.554660 443.634003
3 0 1 4.141120 3.752100 444.417999
4 0 1 3.639570 3.985320 445.218018
5 0 1 3.540080 4.295120 446.255981
6 0 1 3.407320 4.305480 447.199005
7 0 1 3.199270 4.125900 448.078979
8 0 1 3.166440 3.821520 449.001007
9 0 1 3.196100 3.550970 449.932007
10 0 1 3.250790 3.454950 450.890015
11 0 1 3.340000 3.609110 451.804016
12 0 1 3.294440 3.824380 452.699005
13 0 1 3.458230 3.978510 453.720001
14 0 1 3.710090 4.405990 454.507019
15 0 1 4.144290 4.693540 455.322998
16 0 1 4.671240 4.938070 456.041016
17 0 1 5.353290 5.058690 456.734009
18 0 1 6.064880 5.308710 457.410004
19 0 1 6.869270 5.585520 458.011993
20 0 1 7.498891 6.083770 458.507019
21 0 1 8.033381 6.484590 459.388000
22 0 1 8.661207 6.817110 460.119995
23 0 1 9.269670 6.997650 460.893005
24 0 1 9.611770 6.891420 461.783997
25 0 1 9.408100 6.741460 462.735992
26 0 1 9.066580 6.419010 463.542999
27 0 1 8.799935 6.193880 464.483002
28 0 1 8.319055 6.399370 465.286987
29 0 1 7.974669 6.626090 466.182983
30 0 1 7.673781 7.152210 466.990997
31 0 1 7.627985 7.734899 467.824005
32 0 1 7.606157 8.289766 468.591980
33 0 1 7.750254 8.765697 469.541992
34 0 1 7.902934 9.087470 470.447021
35 0 1 7.878575 9.302780 471.341980
36 0 1 7.896338 9.419320 472.268005
37 0 1 8.087730 9.508210 473.188995
38 0 1 8.273878 9.607970 474.117981
39 0 1 8.538883 9.979600 474.981018
40 0 1 8.603723 10.202030 475.908020
41 0 1 9.054700 10.404530 476.815002
42 0 1 9.296300 10.674280 477.725006
43 0 1 9.523530 10.552310 478.648987
44 0 1 9.593770 10.472879 479.580994
45 0 1 9.567240 10.605420 480.565002
46 0 1 9.470840 10.441390 481.520996
47 0 1 9.195370 10.144210 482.393005
48 0 1 8.962391 9.840690 483.263000
49 0 1 8.679318 9.515740 484.151978
50 0 1 8.145349 9.469720 484.921021
51 0 1 7.486772 9.413040 485.651978
52 0 1 7.020471 9.266660 486.398010
53 0 1 6.671220 9.493380 487.274994
54 0 1 6.659200 9.953880 488.125000
55 0 1 6.869510 10.556980 488.804016
56 0 1 6.735950 10.996759 489.596008
57 0 1 6.804820 11.698840 490.365997
58 0 1 6.900510 12.412090 491.135986
59 0 1 6.783500 12.914310 491.997009
60 0 1 6.664840 13.096760 492.872986
61 0 1 6.943530 13.060150 493.825012
62 0 1 7.246522 12.797720 494.697998
63 0 1 7.700766 12.554050 495.481995
64 0 1 7.995567 12.381741 496.475006
65 0 1 8.360443 12.074200 497.289978
66 0 1 8.467562 11.596740 498.096985
67 0 1 8.684836 11.225640 498.997009
68 0 1 8.734032 10.933740 499.903992
69 0 1 9.202680 10.725030 500.757019
70 0 1 9.706600 10.494761 501.554993
71 0 1 10.082340 10.020840 502.351013
72 0 1 10.167250 9.613580 503.235992
73 0 1 10.378300 9.141090 504.057983
74 0 1 10.434470 8.465581 504.760010
75 0 1 10.369101 7.871334 505.450989
76 0 1 10.124620 7.341085 506.322998
77 0 1 9.789200 7.118043 507.182007
78 0 1 9.701390 7.032885 508.160004
79 0 1 9.257890 6.832190 509.033997
80 0 1 8.997526 6.655150 509.919983
81 0 1 8.814212 6.507950 510.834991
82 0 1 8.550250 6.327440 511.705994
83 0 1 8.327079 5.912630 512.515015
84 0 1 8.183864 5.676610 513.528015
85 0 1 8.242528 5.322110 514.484985
86 0 1 8.458292 5.164480 515.447021
87 0 1 8.503422 4.767750 516.309021
88 0 1 8.383952 4.507610 517.229004
89 0 1 8.045922 4.401210 518.179993
90 0 1 7.757104 4.328440 519.083008
91 0 1 7.636307 4.333230 520.033997
92 0 1 7.424190 4.655680 520.989990
93 0 1 7.352896 4.710650 521.943970
94 0 1 7.596313 4.668370 522.836975
95 0 1 8.128587 4.655800 523.705994
96 0 1 8.423909 4.615800 524.625977
97 0 1 8.582705 4.766000 525.533020
98 0 1 8.675051 5.310600 526.281006
99 0 1 8.960162 5.890950 526.994019
100 0 1 8.914497 6.273950 527.858032
101 0 1 8.636029 6.792540 528.587402
102 0 1 8.558923 7.335908 529.443420
103 0 1 8.414661 7.550454 530.386475
104 0 1 8.574453 8.024375 531.225220
105 0 1 8.558736 8.676536 531.943970
106 0 1 8.332290 9.158640 532.724731
107 0 1 8.176386 9.459870 533.657288
108 0 1 7.930113 9.650280 534.592285
109 0 1 7.629879 9.444220 535.534912
110 0 1 7.397967 9.458611 536.501709
111 0 1 7.349545 9.354680 537.442810
112 0 1 7.300181 9.316480 538.393982
113 0 1 6.830950 9.630590 539.113220
114 0 1 6.169980 9.690890 539.784668
115 0 1 5.724630 9.849680 540.616394
116 0 1 5.123890 9.903610 541.375977
117 0 1 4.400640 10.258420 541.883667
118 0 1 3.706650 10.668100 542.348877
119 0 1 3.189150 11.160680 543.010315
120 0 1 2.795710 11.566930 543.776917
121 0 1 2.397740 11.737910 544.648804
122 0 1 2.165600 11.322350 545.519714
123 0 1 1.971180 10.877900 546.324097
124 0 1 1.955130 10.208509 546.984009
125 0 1 2.382550 9.553061 547.605896
126 0 1 2.867280 8.998550 548.252686
127 0 1 3.366840 8.538111 548.963074
128 0 1 3.887330 8.162004 549.645813
129 0 1 4.564780 7.798768 550.122681
130 0 1 4.794870 7.317189 550.981201
131 0 1 4.844710 6.960270 551.945190
132 0 1 4.925670 6.422530 552.739014
133 0 1 5.155170 6.188640 553.625916
134 0 1 5.514460 6.171490 554.536987
135 0 1 5.584370 6.055550 555.480103
136 0 1 5.766250 6.152980 556.485596
137 0 1 5.824520 6.443680 557.430420
138 0 1 5.763510 6.644220 558.408325
139 0 1 5.841050 6.761400 559.408691
140 0 1 5.965340 6.833670 560.351807
141 0 1 5.928820 7.015208 561.333374
142 0 1 6.055330 7.480642 562.168884
143 0 1 6.424310 7.946066 562.875122
144 0 1 6.520810 8.481715 563.661621
145 0 1 6.451820 8.988906 564.482483
146 0 1 6.388500 9.635610 565.137390
147 0 1 6.549070 9.913370 566.067322
148 0 1 6.849770 10.321880 566.838928
149 0 1 7.359736 10.488490 567.675720
150 0 1 7.612515 10.173491 568.615906
151 0 1 7.744374 10.066830 569.571411
152 0 1 7.873995 10.061900 570.485901
153 0 1 7.778588 10.144020 571.448975
154 0 1 7.452846 10.128320 572.424622
155 0 1 7.231605 10.259480 573.341309
156 0 1 7.215438 10.353490 574.278503
157 0 1 7.078958 10.191530 575.227112
158 0 1 6.850400 10.195010 576.159180
159 0 1 6.692600 10.224400 577.182373
160 0 1 6.423530 10.341570 578.107727
161 0 1 6.199260 10.333390 579.037415
162 0 1 5.759700 10.458910 579.889709
163 0 1 5.581570 10.562140 580.838684
164 0 1 5.369790 10.311640 581.759521
165 0 1 5.401450 10.159200 582.689697
166 0 1 5.298490 9.834520 583.611511
167 0 1 5.214640 9.322830 584.410522
168 0 1 5.223250 9.170790 585.357117
169 0 1 4.939070 9.069110 586.293579
170 0 1 4.633010 8.894312 587.190979
171 0 1 4.124150 8.872369 588.091675
172 0 1 3.843270 8.919693 588.983704
173 0 1 3.593920 9.001930 589.917480
174 0 1 3.704570 9.219530 590.821228
175 0 1 3.913850 9.203820 591.793274
176 0 1 4.289750 8.928598 592.643311
177 0 1 4.761550 8.792120 593.551208
178 0 1 5.234200 8.552025 594.274414
179 0 1 5.767260 8.124149 595.024597
180 0 1 6.379160 7.999465 595.836914
181 0 1 6.616800 7.873586 596.737427
182 0 1 6.828570 8.096848 597.655823
183 0 1 6.961470 8.326497 598.508911
184 0 1 7.377379 8.479580 599.394714
185 0 1 7.948370 8.568440 600.158691
186 0 1 8.340734 8.383905 600.999329
187 0 1 8.700270 8.327189 601.922485
188 0 1 8.881103 8.154369 602.851013
189 0 1 9.207460 7.873653 603.728516
190 0 1 9.452400 7.640412 604.556519
191 0 1 9.448370 7.368583 605.479309
192 0 1 9.652290 6.723440 606.187012
193 0 1 9.700730 6.236610 607.039124
194 0 1 9.862070 5.721010 607.842407
195 0 1 9.995040 5.255070 608.682495
196 0 1 10.130260 4.948700 609.600891
197 0 1 10.266550 4.611270 610.540100
198 0 1 10.507970 4.237450 611.401001
199 0 1 10.503450 4.098560 612.324402
200 0 1 10.592770 4.073290 613.292114
201 0 1 10.794000 4.045110 614.273376
202 0 1 10.669880 4.053150 615.205811
203 0 1 10.461390 3.829140 616.070496
204 0 1 10.206460 3.549770 616.922791
205 0 1 9.928660 3.447080 617.825317
206 0 1 9.506480 3.504330 618.718384
207 0 1 9.155590 3.772430 619.639282
208 0 1 8.924770 4.402760 620.291565
209 0 1 8.826821 4.877040 621.127747
210 0 1 8.544241 5.243920 621.980286
211 0 1 8.540357 5.284020 622.931641
212 0 1 8.468609 5.169320 623.935425
213 0 1 8.494268 5.030590 624.958557
214 0 1 8.215525 4.869130 625.891785
215 0 1 8.163905 4.423470 626.713379
216 0 1 8.522899 4.223370 627.589050
217 0 1 8.897230 4.098200 628.427734
218 0 1 9.494710 4.251990 629.274902
219 0 1 9.583850 4.433310 630.179138
220 0 1 9.880800 4.582040 631.166992
221 0 1 9.723600 4.416130 632.165344
222 0 1 9.520790 4.604380 633.106628
223 0 1 9.345860 4.804350 634.027344
224 0 1 9.244890 5.496890 634.762695
225 0 1 9.111190 6.000300 635.559753
226 0 1 8.857336 6.466880 636.291565
227 0 1 8.564761 7.042954 637.077454
228 0 1 8.630487 7.665929 637.773682
229 0 1 8.480728 8.311952 638.441345
230 0 1 8.211349 8.673094 639.339600
231 0 1 7.868515 8.867893 640.198730
232 0 1 7.568709 8.926407 641.072571
233 0 1 7.592542 8.982475 641.995911
234 0 1 7.612512 8.972351 642.974915
235 0 1 7.821386 9.115880 643.918518
236 0 1 8.249189 9.392110 644.756104
237 0 1 8.583669 9.482740 645.715820
238 0 1 8.642527 9.741880 646.682617
239 0 1 8.778666 9.805920 647.661377
240 0 1 9.176830 9.720119 648.570312
241 0 1 9.660650 9.629970 649.461609
242 0 1 9.656620 9.612490 650.458191
243 0 1 9.639590 9.498860 651.391724
244 0 1 9.753280 9.252110 652.369812
245 0 1 9.821260 8.953143 653.265015
246 0 1 9.873900 8.675230 654.166199
247 0 1 9.895890 8.489854 655.090515
248 0 1 9.887240 8.521138 656.058594
249 0 1 9.779230 8.417986 657.012817
250 0 1 9.670680 8.149194 657.911072
251 0 1 9.527100 7.693782 658.760620
252 0 1 9.101110 7.765346 659.642029
253 0 1 8.833545 7.984253 660.562378
254 0 1 8.559214 8.455308 661.356506
255 0 1 8.258499 8.856347 662.193787
256 0 1 7.935620 9.215030 663.080688
257 0 1 7.770249 9.070060 664.060120
258 0 1 7.542426 9.007150 665.020081
259 0 1 7.274856 9.081170 665.992126
260 0 1 6.816590 9.211420 666.882690
261 0 1 6.567250 9.332210 667.819275
262 0 1 6.376100 9.847480 668.638489
263 0 1 5.862610 10.013980 669.529785
264 0 1 5.354920 10.115430 670.359985
265 0 1 4.991620 10.038670 671.261108
266 0 1 4.920540 10.154860 672.264221
267 0 1 4.616130 10.583860 673.147095
268 0 1 4.269490 10.789010 674.044373
269 0 1 3.745310 10.978200 674.854492
270 0 1 3.177060 10.819260 675.651184
271 0 1 2.970480 10.711990 676.613098
272 0 1 2.591260 10.838090 677.494812
273 0 1 2.162920 10.917080 678.372803
274 0 1 1.886780 11.088190 679.274292
275 0 1 2.091860 11.075020 680.195068
276 0 1 2.431910 10.853820 681.038696
277 0 1 3.048700 10.888520 681.722168
278 0 1 3.848650 10.876480 682.279114
279 0 1 4.446280 10.799990 683.053284
280 0 1 4.757190 10.764310 684.012573
281 0 1 5.118370 10.816760 684.948914
282 0 1 5.394390 10.649640 685.859924
283 0 1 5.660570 10.632470 686.787415
284 0 1 5.890940 10.830441 687.674988
285 0 1 5.956470 10.972430 688.618408
286 0 1 6.053210 10.926500 689.583191
287 0 1 5.976840 11.017040 690.539917
288 0 1 5.750680 11.065741 691.429199
289 0 1 5.728890 11.305380 692.307983
290 0 1 5.819400 11.685200 693.201111
291 0 1 5.807370 11.953000 694.158691
292 0 1 5.611000 12.131920 695.051819
293 0 1 5.359260 12.226240 695.953674
294 0 1 5.078400 12.340250 696.853088
295 0 1 4.972630 12.377970 697.836914
296 0 1 5.248830 12.330610 698.744385
297 0 1 5.554440 11.938300 699.539917
298 0 1 6.127240 11.592830 700.234680
299 0 1 6.695320 11.304750 700.943420
300 0 1 7.088876 11.040359 701.756470
301 0 1 7.340689 10.897270 702.658569
302 0 1 7.525514 10.937730 703.576172
303 0 1 7.510085 10.858740 704.544434
304 0 1 7.416221 10.573600 705.478516
305 0 1 7.361063 10.349730 706.397217
306 0 1 7.701675 10.407490 707.306213
307 0 1 8.274313 10.340300 708.087097
308 0 1 8.746676 9.987680 708.820618
309 0 1 9.229030 9.813040 709.618774
310 0 1 9.288450 9.491300 710.453186
311 0 1 9.362300 9.197070 711.436523
312 0 1 8.857083 9.073140 712.286682
313 0 1 8.599535 8.853875 713.194702
314 0 1 8.113932 8.501554 713.989990
315 0 1 7.606416 7.965638 714.616089
316 0 1 7.254577 7.401046 715.264709
317 0 1 6.792530 6.898580 715.968018
318 0 1 6.440120 6.301090 716.632080
319 0 1 5.982800 5.743840 717.264709
320 0 1 5.870670 5.368410 718.112610
321 0 1 5.803140 5.215080 719.074707
322 0 1 5.608390 5.051220 720.070984
323 0 1 5.619780 5.195250 721.029114
324 0 1 5.705310 5.138670 722.000000
325 0 1 5.458530 4.893620 722.940430
326 0 1 5.461300 4.856460 723.875977
327 0 1 5.532430 4.960470 724.802612
328 0 1 5.962070 5.229310 725.651794
329 0 1 6.312260 5.637700 726.535522
330 0 1 6.384750 6.120870 727.393311
331 0 1 6.362540 6.589770 728.231567
332 0 1 6.513130 7.205718 728.924011
333 0 1 6.565600 7.760069 729.713989
334 0 1 6.533530 8.404540 730.497986
335 0 1 6.152550 8.945679 731.179993
336 0 1 5.939250 9.575470 732.010010
337 0 1 5.594530 10.206440 732.752014
338 0 1 5.107050 10.696810 733.468994
339 0 1 4.713840 11.128429 734.273987
340 0 1 4.346840 11.147170 735.314026
341 0 1 3.875090 10.949390 736.098999
342 0 1 3.370480 10.787310 736.898010
343 0 1 2.901020 10.340990 737.677979
344 0 1 2.366220 9.933590 738.362000
345 0 1 2.250980 9.546980 739.273987
346 0 1 2.592600 9.237130 740.160034
347 0 1 3.137620 8.999218 740.859985
348 0 1 3.858250 8.745507 741.544983
349 0 1 4.567380 8.701894 742.250977
350 0 1 5.310430 8.837520 742.864014
351 0 1 6.038620 9.004200 743.469971
352 0 1 6.683770 9.213830 744.135010
353 0 1 7.033908 9.543420 744.937988
354 0 1 7.270363 9.699200 745.822021
355 0 1 7.508931 9.970970 746.750000
356 0 1 7.499450 10.244431 747.674988
357 0 1 7.627566 10.467609 748.593994
358 0 1 7.938589 10.642810 749.510010
359 0 1 8.161071 10.361020 750.401978
360 0 1 8.219790 10.091930 751.299011
361 0 1 8.332317 9.970630 752.254028
362 0 1 8.746311 9.792560 753.093994
363 0 1 8.993983 9.687920 754.002991
364 0 1 9.312490 9.706490 754.968018
365 0 1 9.589250 10.033570 755.796997
366 0 1 9.960760 10.391880 756.582031
367 0 1 10.170031 10.794580 757.424988
368 0 1 10.395380 11.169780 758.325989
369 0 1 10.535710 11.177120 759.309998
370 0 1 10.712300 11.216800 760.218994
371 0 1 10.777640 11.296570 761.164978
372 0 1 10.693610 11.564520 762.057983
373 0 1 10.273000 11.725940 762.921997
374 0 1 10.105090 11.674720 763.841980
375 0 1 10.077380 11.566100 764.804016
376 0 1 10.179670 11.363010 765.735962
377 0 1 10.471889 11.217700 766.658997
378 0 1 10.761271 11.451700 767.601990
379 0 1 10.608710 11.476010 768.502991
380 0 1 10.660120 11.665210 769.437988
381 0 1 10.681700 11.573771 770.416016
382 0 1 10.575800 11.680161 771.382996
383 0 1 10.729980 11.573920 772.382019
384 0 1 10.453400 11.439020 773.377014
385 0 1 10.213280 11.417130 774.391968
386 0 1 9.823200 11.623159 775.313965
387 0 1 9.617830 11.861840 776.233032
388 0 1 9.441420 12.081830 777.177979
389 0 1 9.376140 12.070490 778.153992
390 0 1 9.035170 11.896749 779.018982
391 0 1 8.352143 12.048810 779.666992
392 0 1 7.675407 12.191970 780.328003
393 0 1 7.089146 12.304581 781.096985
394 0 1 6.782050 12.473900 782.000977
395 0 1 6.188050 12.098080 782.744995
396 0 1 5.764150 11.577830 783.453003
397 0 1 5.457800 10.980810 784.139038
398 0 1 5.017810 10.188869 784.583008
399 0 1 4.810020 9.424860 785.213013
400 0 1 4.658770 8.816525 785.924988
401 0 1 4.642650 8.074920 786.617981
402 0 1 4.716450 7.314750 787.208008
403 0 1 4.843630 6.595170 787.856995
404 0 1 4.910420 6.080040 788.671021
405 0 1 5.051990 6.009910 789.690979
406 0 1 5.320580 6.267350 790.603027
407 0 1 5.627200 6.663530 791.393982
408 0 1 5.683470 7.042974 792.254028
409 0 1 5.770920 7.307554 793.197021
410 0 1 5.919280 7.442890 794.174011
411 0 1 5.996240 7.607212 795.070984
412 0 1 6.080440 7.673064 795.995972
413 0 1 6.194150 7.598842 796.947021
414 0 1 6.390310 7.777526 797.914001
415 0 1 6.501020 7.960247 798.838989
416 0 1 6.441670 8.209934 799.768982
417 0 1 6.640900 8.260579 800.710022
418 0 1 6.796040 8.348582 801.622009
419 0 1 6.931310 8.263554 802.588989
420 0 1 7.105804 8.258378 803.580017
421 0 1 7.331630 7.971796 804.505005
422 0 1 7.620151 7.422675 805.312988
423 0 1 7.800931 6.965400 806.104004
424 0 1 7.558996 6.569070 807.010986
425 0 1 7.258153 6.138010 807.890015
426 0 1 7.028707 5.857810 808.838013
427 0 1 6.779920 5.497280 809.677002
428 0 1 6.544030 5.389520 810.578003
429 0 1 6.364930 5.031030 811.396973
430 0 1 6.674420 4.831350 812.291992
431 0 1 6.999170 4.670150 813.229980
432 0 1 7.402377 4.695740 814.051025
433 0 1 7.888307 4.945390 814.880981
434 0 1 8.543189 5.155960 815.535034
435 0 1 9.280060 5.374410 816.213013
436 0 1 9.911600 5.822430 816.760986
437 0 1 10.388240 6.294240 817.481995
438 0 1 11.106400 6.638910 818.143982
439 0 1 11.613740 7.235698 818.707031
440 0 1 12.157320 7.863009 819.429993
441 0 1 12.662170 8.237230 820.145996
442 0 1 13.130170 8.548058 820.934021
443 0 1 13.566339 8.798403 821.729004
444 0 1 13.626670 8.871052 822.625977
445 0 1 13.556271 8.859213 823.614990
446 0 1 13.648590 8.914788 824.559998
447 0 1 13.534121 8.775397 825.471985
448 0 1 13.630620 9.022470 826.390991
449 0 1 13.962820 9.013710 827.360962
450 0 1 14.406500 9.110200 828.195984
451 0 1 14.472960 9.594290 828.976990
452 0 1 14.329580 9.980650 829.874023
453 0 1 14.202700 10.267970 830.820007
454 0 1 14.085850 10.502330 831.716980
455 0 1 14.024080 10.640160 832.744995
456 0 1 13.805241 10.821011 833.666992
457 0 1 13.709740 11.016600 834.713013
458 0 1 13.763861 11.510130 835.549011
459 0 1 13.722620 11.672700 836.485962
460 0 1 13.700439 11.958310 837.377991
461 0 1 13.571680 11.987220 838.358032
462 0 1 13.291531 12.289761 839.197998
463 0 1 12.960560 12.749060 839.911011
464 0 1 12.349939 13.120290 840.484009
465 0 1 11.543470 13.382540 840.906982
466 0 1 10.670700 13.738810 840.924011
467 0 1 9.802400 14.121850 840.749023
468 0 1 8.894826 14.244181 840.484985
469 0 1 8.046652 14.045470 840.067017
470 0 1 7.625019 13.677520 839.292969
471 0 1 6.949710 13.457000 838.608032
472 0 1 6.382930 13.056220 837.940979
473 0 1 6.211030 12.644150 837.093018
474 0 1 5.781800 12.201740 836.365967
475 0 1 5.497810 11.940741 835.448975
476 0 1 5.287700 11.753020 834.523010
477 0 1 5.297930 11.429080 833.594971
478 0 1 5.021730 10.858410 832.893982
479 0 1 4.472110 10.947750 832.136963
480 0 1 4.183440 10.868040 831.158997
481 0 1 4.065660 10.766670 830.221008
482 0 1 3.905990 10.794440 829.289001
483 0 1 3.623780 10.577510 828.370972
484 0 1 3.504520 10.365340 827.427979
485 0 1 3.644050 10.360040 826.502014
486 0 1 3.686020 10.172350 825.601013
487 0 1 3.648660 10.268730 824.625977
488 0 1 3.678520 10.434480 823.578979
489 0 1 3.496150 10.644680 822.664001
490 0 1 3.477430 10.710970 821.723022
491 0 1 3.442430 10.850440 820.747986
492 0 1 3.451510 10.746250 819.781006
493 0 1 3.523680 10.684361 818.786987
494 0 1 3.621180 10.534270 817.786987
495 0 1 3.594050 10.296761 816.851990
496 0 1 3.774650 9.936820 815.940979
497 0 1 3.760290 9.340350 815.213989
498 0 1 3.777000 8.719742 814.370972
499 0 1 3.963610 8.338301 813.536987
500 0 1 4.367490 7.957482 812.734985
501 0 1 4.806300 8.006368 811.872986
502 0 1 5.370150 8.175849 811.065979
503 0 1 5.781310 8.211969 810.190002
504 0 1 6.042850 8.377973 809.276978
505 0 1 6.252300 8.363875 808.325989
506 0 1 6.826040 8.375938 807.582031
507 0 1 7.491355 8.352959 806.765991
508 0 1 8.035032 8.603199 806.000977
509 0 1 8.322226 8.975892 805.132019
510 0 1 8.655949 9.491830 804.377991
511 0 1 8.886742 9.936040 803.490967
512 0 1 9.322360 10.231410 802.721985
513 0 1 9.767020 10.444670 801.856995
514 0 1 10.249560 10.862750 801.151978
515 0 1 10.593210 11.244780 800.372009
516 0 1 10.734880 11.253000 799.344971
517 0 1 11.040730 11.372169 798.440002
518 0 1 11.536460 11.596300 797.643982
519 0 1 11.835860 11.769220 796.712036
520 0 1 11.808630 11.536200 795.716003
521 0 1 11.540440 11.340530 794.735962
522 0 1 11.074440 11.249660 793.953979
523 0 1 10.561359 11.062350 793.119995
524 0 1 10.390800 10.890500 792.187988
525 0 1 10.156219 10.956750 791.216003
526 0 1 10.286119 10.791180 790.234009
527 0 1 10.853840 10.666520 789.462036
528 0 1 11.348070 10.554980 788.638000
529 0 1 11.788060 10.128860 787.877014
530 0 1 12.266530 9.627840 787.156982
531 0 1 12.746070 9.266640 786.351990
532 0 1 12.765980 8.877252 785.497009
533 0 1 12.782080 8.409487 784.593994
534 0 1 12.941500 8.006472 783.721985
535 0 1 13.270800 7.585574 782.893982
536 0 1 13.525600 7.342925 781.985962
537 0 1 13.649410 7.094704 781.026978
538 0 1 13.746810 7.181210 780.020996
539 0 1 13.670900 7.396623 779.018982
540 0 1 13.409420 7.684092 778.101990
541 0 1 13.259689 7.755834 777.176025
542 0 1 12.989640 7.737437 776.283997
543 0 1 12.771950 7.905915 775.362000
544 0 1 12.486811 8.135391 774.515991
545 0 1 11.800830 8.555016 774.052002
546 0 1 11.149190 9.154730 773.692993
547 0 1 10.526520 9.176291 772.960999
548 0 1 10.320700 8.729071 772.167969
549 0 1 10.124010 8.350941 771.270996
550 0 1 10.062840 8.192132 770.335999
551 0 1 10.197340 8.181402 769.408997
552 0 1 10.067590 8.196966 768.432007
553 0 1 10.104890 8.208403 767.476013
554 0 1 10.149270 8.227101 766.526001
555 0 1 10.380650 8.438348 765.603027
556 0 1 10.223220 8.393948 764.646973
557 0 1 9.937630 8.350622 763.687012
558 0 1 9.495540 8.321711 762.797974
559 0 1 9.148290 8.137478 761.924011
560 0 1 8.600346 8.165997 761.158997
561 0 1 8.059599 8.047546 760.406006
562 0 1 7.753865 7.861653 759.552979
563 0 1 7.689115 7.451464 758.686035
564 0 1 7.590829 7.123558 757.768005
565 0 1 7.522767 6.686950 756.874023
566 0 1 7.247828 6.104280 756.073975
567 0 1 7.121951 5.609160 755.276978
568 0 1 7.046364 5.226400 754.421021
569 0 1 7.080964 5.109830 753.450012
570 0 1 6.851140 4.921250 752.432007
571 0 1 6.947700 5.036400 751.437988
572 0 1 7.243990 4.975370 750.484009
573 0 1 7.512134 5.361370 749.661011
574 0 1 7.828646 5.753720 748.825989
575 0 1 7.763951 6.047370 747.900024
576 0 1 7.500814 6.412260 747.064026
577 0 1 7.558032 6.816670 746.093994
578 0 1 7.853749 7.023642 745.161011
579 0 1 7.657086 7.122613 744.231018
580 0 1 7.232387 7.054403 743.398010
581 0 1 7.111090 6.625120 742.589966
582 0 1 6.857250 6.201950 741.749023
583 0 1 6.969010 6.034800 740.839966
584 0 1 7.308975 5.630490 740.065002
585 0 1 7.462989 5.456630 739.158020
586 0 1 7.664397 5.631020 738.257996
587 0 1 8.069661 5.664200 737.367004
588 0 1 8.323745 5.591130 736.455017
589 0 1 8.748479 5.400650 735.539001
590 0 1 9.285770 5.302700 734.814026
591 0 1 9.865940 5.286980 734.016968
592 0 1 10.491500 5.203680 733.234985
593 0 1 10.669650 5.186410 732.294983
594 0 1 10.888870 4.905400 731.388000
595 0 1 10.929660 4.506820 730.577026
596 0 1 10.767509 4.197870 729.718018
597 0 1 10.515000 3.791340 728.919006
598 0 1 10.158930 3.516770 728.068481
599 0 1 9.494230 3.165070 727.348877
600 0 1 8.837244 2.893270 726.684326
601 0 1 8.075423 2.696340 726.125305
602 0 1 7.297007 2.490490 725.500488
603 0 1 6.576250 2.532270 724.908508
604 0 1 6.311540 2.520260 723.993896
605 0 1 6.150930 2.446390 723.078918
606 0 1 5.917510 2.716930 722.190308
607 0 1 6.195420 2.875860 721.239380
608 0 1 6.365830 3.028150 720.351318
609 0 1 6.385120 3.413800 719.396912
610 0 1 6.361260 4.103930 718.636475
611 0 1 6.656590 4.686320 717.955078
612 0 1 7.103947 5.151350 717.244019
613 0 1 7.555079 5.392210 716.433411
614 0 1 7.918550 5.482290 715.507812
615 0 1 8.273254 5.740970 714.626099
616 0 1 8.589262 6.077790 713.770996
617 0 1 9.012650 6.071650 712.868225
618 0 1 9.068380 6.232810 711.945984
619 0 1 9.115270 6.163910 711.009399
620 0 1 9.353000 6.356280 710.060974
621 0 1 9.642960 6.431990 709.102722
622 0 1 10.218870 6.289890 708.317200
623 0 1 10.911310 6.191150 707.553833
624 0 1 11.485650 5.919290 706.819824
625 0 1 12.064800 6.065870 706.053284
626 0 1 12.632410 6.274370 705.243286
627 0 1 13.249701 6.434480 704.503113
628 0 1 13.845551 6.667820 703.794678
629 0 1 14.372040 6.823110 703.055603
630 0 1 14.578370 7.244564 702.186401
631 0 1 14.671670 7.682762 701.356506
632 0 1 14.551849 8.090426 700.466919
633 0 1 14.450439 8.146551 699.557312
634 0 1 14.382640 8.274481 698.598267
635 0 1 14.316999 8.194336 697.643005
636 0 1 14.007481 8.133036 696.730774
637 0 1 13.575980 8.153690 695.877380
638 0 1 13.079781 8.106151 695.038574
639 0 1 12.670930 8.111913 694.152405
640 0 1 12.259911 7.938931 693.297791
641 0 1 11.742280 7.742513 692.495911
642 0 1 11.057430 7.687640 691.842590
643 0 1 10.585440 7.433336 690.998901
644 0 1 10.274410 7.551662 690.143372
645 0 1 9.957570 7.638369 689.293396
646 0 1 9.543000 7.797802 688.455688
647 0 1 9.060900 8.294739 687.690186
648 0 1 8.517449 8.330005 686.887573
649 0 1 8.404815 8.422482 685.926819
650 0 1 8.189866 8.327699 684.992615
651 0 1 8.038494 8.362680 684.024170
652 0 1 7.602606 8.261828 683.193604
653 0 1 7.104108 8.397883 682.362610
654 0 1 6.567750 8.603188 681.567505
655 0 1 5.876230 8.623637 680.882080
656 0 1 5.352870 8.434924 680.070312
657 0 1 4.770140 8.195761 679.370911
658 0 1 4.482840 7.779444 678.594482
659 0 1 4.468890 7.703700 677.606079
660 0 1 4.444900 7.553818 676.640320
661 0 1 4.519150 7.557065 675.609497
662 0 1 4.566200 7.657256 674.635681
663 0 1 4.708290 7.894842 673.689209
664 0 1 4.719580 7.919345 672.696106
665 0 1 4.614680 7.929816 671.707703
666 0 1 4.552640 8.016461 670.752502
667 0 1 4.421000 8.341327 669.888428
668 0 1 4.127090 8.547971 668.933594
669 0 1 3.956090 8.745436 668.036377
670 0 1 3.825260 8.991013 667.122681
671 0 1 3.661300 9.487310 666.343323
672 0 1 3.383470 10.129620 665.643799
673 0 1 3.468190 10.937180 665.155273
674 0 1 3.714610 11.608710 664.508118
675 0 1 3.967560 11.996610 663.689819
676 0 1 4.347890 12.237940 662.810669
677 0 1 4.939390 12.100491 661.943787
678 0 1 5.342380 11.813740 661.057373
679 0 1 5.644010 11.595160 660.199097
680 0 1 5.940350 11.540500 659.252380
681 0 1 6.170530 11.385509 658.302185
682 0 1 6.533510 11.095551 657.450073
683 0 1 6.845020 10.739410 656.637817
684 0 1 7.085293 10.320520 655.789001
685 0 1 7.390868 9.709440 655.062073
686 0 1 7.534760 9.266020 654.213196
687 0 1 7.676114 8.582672 653.482605
688 0 1 7.393460 8.126083 652.711609
689 0 1 6.892570 7.856825 651.948425
690 0 1 6.715940 7.447546 650.995483
691 0 1 6.880880 6.989610 650.149170
692 0 1 6.950120 6.599480 649.287109
693 0 1 7.060518 6.342610 648.432495
694 0 1 7.196333 5.987980 647.523010
695 0 1 7.548635 5.721930 646.658386
696 0 1 7.756913 5.262080 645.865173
697 0 1 7.917531 4.957590 645.018616
698 0 1 7.859898 4.843990 644.059814
699 0 1 7.876551 4.701400 643.117920
700 0 1 7.593626 4.495460 642.166504
701 0 1 7.071518 4.470980 641.339905
702 0 1 6.586910 4.839540 640.572388
703 0 1 6.282540 5.342480 639.738403
704 0 1 5.951410 5.522280 638.875977
705 0 1 5.495150 5.850560 638.114380
706 0 1 5.047890 6.200290 637.334595
707 0 1 5.010400 6.987010 636.716553
708 0 1 4.929850 7.434357 635.869385
709 0 1 4.792430 7.653442 634.892090
710 0 1 4.726600 8.002382 633.960205
711 0 1 4.631020 8.236061 633.043457
712 0 1 4.261380 8.631290 632.201416
713 0 1 4.216470 9.223900 631.387268
714 0 1 4.435150 9.654690 630.508179
715 0 1 4.209170 9.926780 629.596191
716 0 1 3.985500 10.415590 628.816162
717 0 1 3.741580 10.961150 628.063293
718 0 1 3.761400 11.428070 627.183716
719 0 1 3.892690 11.774320 626.326782
720 0 1 4.216780 11.788660 625.374207
721 0 1 4.352280 11.777740 624.448547
722 0 1 4.631040 11.830530 623.480286
723 0 1 4.753980 11.803370 622.500061
724 0 1 4.980330 11.997510 621.548584
725 0 1 5.438740 12.189070 620.730408
726 0 1 5.756600 12.465290 619.881348
727 0 1 6.185850 12.603320 619.016174
728 0 1 6.664580 12.998360 618.304871
729 0 1 7.004104 13.045321 617.401611
730 0 1 7.332880 13.459300 616.526794
731 0 1 7.515580 13.712470 615.596375
732 0 1 7.643004 13.292950 614.735229
733 0 1 7.712125 12.948521 613.853516
734 0 1 7.533909 12.705390 612.969116
735 0 1 7.578436 12.477970 612.048218
736 0 1 7.222309 12.289830 611.088501
737 0 1 6.989300 11.985559 610.177124
738 0 1 6.810450 11.674940 609.309326
739 0 1 6.732900 11.103700 608.467224
740 0 1 6.613400 10.740750 607.546997
741 0 1 6.505180 10.286270 606.715027
742 0 1 6.326370 10.169050 605.727905
743 0 1 5.802030 9.822220 604.947693
744 0 1 5.686240 9.663120 604.006592
745 0 1 5.645490 9.272240 603.104187
746 0 1 5.493060 8.581546 602.400879
747 0 1 5.373500 8.106421 601.590515
748 0 1 5.399910 7.446053 600.838928
749 0 1 5.312500 6.917030 599.993225
750 0 1 5.279970 6.372670 599.167786
751 0 1 5.525380 6.124570 598.280273
752 0 1 5.808780 5.954440 597.354492
753 0 1 6.285600 5.804410 596.526306
754 0 1 6.396980 5.565850 595.574890
755 0 1 6.579560 5.369420 594.594727
756 0 1 6.898470 5.111220 593.681396
757 0 1 7.333258 4.999710 592.817627
758 0 1 7.765505 5.007180 591.999084
759 0 1 8.126276 5.367080 591.136475
760 0 1 8.682587 5.566350 590.372803
761 0 1 8.763288 6.169110 589.594604
762 0 1 8.957227 6.811420 588.810425
763 0 1 9.383530 7.330995 588.163879
764 0 1 9.887730 7.837031 587.552002
765 0 1 10.574380 8.473853 587.166199
766 0 1 10.932110 9.174390 586.653076
767 0 1 10.999640 9.845860 585.940918
768 0 1 11.187640 10.215570 585.104980
769 0 1 11.141640 10.605400 584.143494
770 0 1 11.141000 10.850190 583.161072
771 0 1 11.031630 11.364260 582.340698
772 0 1 10.926460 12.124200 581.757812
773 0 1 10.551150 12.358500 580.914307
774 0 1 10.308840 12.523460 580.005371
775 0 1 10.087570 12.994270 579.221802
776 0 1 10.053530 13.508150 578.380493
777 0 1 10.302550 13.952860 577.542175
778 0 1 10.458570 13.926220 576.593994
779 0 1 10.485050 13.554680 575.715393
780 0 1 10.961470 13.273090 574.914001
781 0 1 11.296350 12.656310 574.209412
782 0 1 11.600180 12.020280 573.559326
783 0 1 11.544490 11.467270 572.823425
784 0 1 11.240490 11.145170 571.945618
785 0 1 10.778230 10.892460 571.160706
786 0 1 10.123569 10.655450 570.384216
787 0 1 9.760380 10.664630 569.532410
788 0 1 9.427040 10.480870 568.644592
789 0 1 9.036220 10.316870 567.811279
790 0 1 8.926672 10.056080 566.930786
791 0 1 8.956853 10.030190 565.898499