LAMMPS data file via MDAnalysis

        1000  atoms
        1000  bonds
        1000  angles
           0  dihedrals
           0  impropers

           1  atom types
           1  bond types
           1  angle types
           0  dihedral types
           0  improper types

0.000000 16.000000 xlo xhi
0.000000 16.000000 ylo yhi
0.000000 1257.000000 zlo zhi


Masses

1 1.000000

Atoms

1 0 1 11.739270 8.103593 440.205017
2 0 1 11.811100 7.462302 440.846008
3 0 1 11.973830 7.115686 441.742981
4 0 1 12.065360 6.739050 442.634003
5 0 1 12.107941 6.368930 443.561005
6 0 1 12.145330 5.958400 444.414001
7 0 1 12.483410 5.604480 445.239014
8 0 1 12.528790 5.044140 446.029999
9 0 1 12.515141 4.361470 446.746002
10 0 1 12.536990 3.715690 447.476990
11 0 1 12.485200 3.090610 448.197021
12 0 1 12.291800 2.648620 449.117004
13 0 1 11.903660 2.518290 449.989990
14 0 1 11.674350 2.344550 450.890991
15 0 1 11.463280 2.126190 451.721008
16 0 1 11.104361 1.921320 452.622986
17 0 1 10.411760 2.131300 453.304016
18 0 1 9.986790 2.684600 454.015015
19 0 1 9.401330 3.063400 454.791992
20 0 1 8.823144 3.418540 455.468994
21 0 1 8.560998 3.524550 456.447021
22 0 1 8.645631 3.374980 457.427002
23 0 1 8.572864 3.290020 458.378998
24 0 1 8.829718 3.320540 459.325012
25 0 1 9.048700 3.183070 460.302979
26 0 1 9.122040 3.355510 461.235992
27 0 1 9.446360 3.376310 462.122009
28 0 1 9.755500 3.522020 463.018005
29 0 1 9.886390 3.795380 463.877014
30 0 1 10.078680 3.881310 464.820984
31 0 1 10.552350 3.805920 465.648987
32 0 1 11.040440 3.727840 466.419006
33 0 1 11.581660 3.567130 467.272003
34 0 1 11.912280 3.525990 468.182983
35 0 1 12.042561 3.690340 469.065002
36 0 1 12.142210 3.494220 469.994019
37 0 1 12.019051 3.554030 470.957001
38 0 1 11.935400 3.469070 471.924011
39 0 1 11.642450 3.409890 472.917999
40 0 1 11.402190 3.362920 473.825989
41 0 1 11.094310 3.607160 474.708984
42 0 1 10.975440 3.946750 475.638000
43 0 1 10.870831 4.124140 476.567993
44 0 1 10.715900 4.100590 477.541992
45 0 1 10.315380 4.068280 478.471008
46 0 1 10.193850 4.141910 479.423004
47 0 1 9.918250 4.179220 480.341980
48 0 1 9.444990 4.360360 481.169006
49 0 1 9.015860 4.268960 481.990997
50 0 1 8.428358 4.190200 482.768982
51 0 1 7.971707 4.069630 483.598999
52 0 1 7.906096 4.222230 484.550995
53 0 1 7.537983 4.497110 485.401978
54 0 1 7.154583 4.823480 486.223999
55 0 1 6.534060 4.879190 486.937012
56 0 1 6.209090 5.146110 487.802002
57 0 1 5.769550 5.618930 488.518982
58 0 1 5.465030 6.180180 489.255981
59 0 1 5.367280 6.796370 489.875000
60 0 1 5.592270 7.380479 490.667999
61 0 1 5.942360 7.846536 491.473999
62 0 1 6.215420 8.216886 492.397003
63 0 1 6.530470 8.458366 493.337006
64 0 1 6.662170 8.627020 494.255005
65 0 1 6.843850 8.671981 495.143005
66 0 1 6.860160 8.593615 496.117004
67 0 1 6.774450 8.589771 497.119019
68 0 1 6.846770 8.310701 498.082001
69 0 1 7.001285 7.962950 498.994019
70 0 1 7.279213 7.432249 499.802979
71 0 1 7.161557 6.714360 500.386993
72 0 1 6.974890 5.958640 500.934998
73 0 1 6.716660 5.303650 501.600006
74 0 1 6.326540 4.661100 502.201996
75 0 1 5.971410 4.188350 502.988007
76 0 1 5.902060 3.840230 503.852997
77 0 1 5.932230 3.525620 504.773010
78 0 1 6.062650 3.313250 505.794983
79 0 1 6.282640 3.378240 506.763000
80 0 1 6.291500 3.311560 507.705017
81 0 1 6.189990 3.178180 508.764008
82 0 1 6.450300 2.875130 509.654999
83 0 1 6.629970 2.840620 510.595001
84 0 1 6.436540 3.175090 511.434998
85 0 1 6.013850 3.263240 512.317017
86 0 1 6.049900 3.318320 513.283997
87 0 1 5.814500 3.434320 514.185974
88 0 1 5.509880 3.441190 515.056030
89 0 1 5.042260 3.517910 515.922974
90 0 1 5.029180 3.802550 516.841003
91 0 1 4.942970 3.577490 517.844971
92 0 1 5.213330 3.710630 518.802979
93 0 1 5.559080 3.939980 519.692993
94 0 1 5.856670 4.048670 520.570984
95 0 1 6.270080 3.991410 521.432007
96 0 1 6.723210 3.707190 522.296021
97 0 1 6.902080 3.615010 523.223022
98 0 1 7.054862 3.633660 524.203979
99 0 1 7.081937 3.659810 525.169006
100 0 1 7.069295 3.699840 526.132019
101 0 1 7.081443 3.418130 526.979004
102 0 1 7.060659 3.046730 527.900024
103 0 1 7.050535 2.764770 528.863892
104 0 1 6.865390 2.396050 529.693604
105 0 1 6.669300 2.174520 530.545898
106 0 1 6.473750 1.947640 531.519897
107 0 1 6.297770 1.865570 532.407776
108 0 1 6.191400 1.881300 533.354919
109 0 1 6.176140 1.897870 534.269287
110 0 1 6.083040 1.682030 535.178284
111 0 1 6.145310 1.590020 536.176270
112 0 1 6.399170 1.688580 537.080078
113 0 1 6.534350 1.957320 537.988708
114 0 1 6.749680 2.240790 538.893921
115 0 1 6.590550 2.833280 539.631714
116 0 1 6.482150 3.424540 540.403809
117 0 1 6.628220 4.161040 541.055298
118 0 1 7.177006 4.545730 541.759277
119 0 1 7.427718 4.875380 542.635925
120 0 1 7.462119 5.291660 543.456421
121 0 1 7.682627 5.683980 544.374268
122 0 1 7.860736 5.972050 545.266296
123 0 1 8.011677 5.884400 546.170532
124 0 1 8.103311 5.645550 547.108887
125 0 1 8.088863 5.650430 548.075073
126 0 1 7.849406 5.807370 549.029602
127 0 1 7.714963 5.474710 549.964966
128 0 1 7.731929 5.195590 550.874207
129 0 1 7.797894 4.939880 551.798584
130 0 1 7.907450 5.085630 552.788086
131 0 1 8.134583 5.170770 553.721191
132 0 1 8.000137 5.093440 554.645691
133 0 1 7.598165 4.941020 555.560608
134 0 1 7.358395 4.806170 556.517883
135 0 1 7.281889 4.536720 557.447083
136 0 1 7.199253 4.610240 558.432922
137 0 1 6.979650 4.946520 559.352112
138 0 1 6.790140 5.413530 560.225403
139 0 1 6.629040 5.923630 560.998108
140 0 1 6.155910 6.412890 561.627380
141 0 1 5.882860 6.786620 562.506897
142 0 1 5.791440 6.829040 563.485718
143 0 1 6.093710 6.769720 564.383301
144 0 1 6.606310 6.795700 565.176697
145 0 1 7.167150 6.848750 565.975220
146 0 1 7.639594 6.877570 566.837891
147 0 1 7.804404 6.992720 567.797729
148 0 1 7.818171 7.357614 568.690125
149 0 1 8.067300 7.655224 569.537415
150 0 1 7.993002 7.983611 570.464905
151 0 1 8.340258 8.304387 571.288025
152 0 1 8.431726 8.529281 572.200623
153 0 1 8.787481 8.669191 573.063782
154 0 1 8.804406 8.524240 574.037781
155 0 1 8.654764 8.419374 574.972595
156 0 1 8.596678 8.205363 575.867493
157 0 1 8.590882 8.056403 576.796631
158 0 1 8.711445 7.941746 577.698730
159 0 1 8.605484 7.895978 578.671692
160 0 1 8.238746 7.855218 579.567078
161 0 1 7.968411 7.728716 580.509216
162 0 1 7.679236 8.144494 581.260010
163 0 1 7.093821 8.353321 581.976990
164 0 1 6.837900 8.483011 582.879822
165 0 1 6.941150 8.625260 583.858887
166 0 1 7.163994 8.814338 584.743774
167 0 1 7.403586 9.013160 585.677795
168 0 1 7.497647 8.855370 586.579102
169 0 1 7.354216 8.579013 587.502075
170 0 1 7.500765 8.130205 588.345703
171 0 1 7.723714 7.907884 589.247498
172 0 1 7.731238 7.553084 590.126526
173 0 1 7.486221 7.123934 590.954285
174 0 1 7.159338 6.945610 591.858582
175 0 1 6.536380 6.901360 592.554382
176 0 1 6.051010 6.741920 593.399597
177 0 1 5.545460 6.835800 594.218628
178 0 1 5.010880 6.775660 594.968811
179 0 1 4.473230 6.707320 595.797180
180 0 1 3.759070 6.408620 596.459717
181 0 1 3.198530 6.232610 597.322327
182 0 1 3.149340 6.147530 598.304016
183 0 1 3.321220 6.316950 599.183472
184 0 1 3.935540 6.573770 599.847290
185 0 1 4.542370 6.771240 600.494080
186 0 1 5.169630 7.005223 601.144409
187 0 1 6.007810 7.188841 601.484924
188 0 1 6.795940 7.176680 602.066528
189 0 1 7.533396 7.365819 602.706116
190 0 1 8.133729 7.856770 603.353882
191 0 1 8.656846 7.874425 604.255798
192 0 1 9.458390 7.905864 604.871582
193 0 1 9.763360 7.690803 605.707397
194 0 1 10.102551 7.902203 606.632507
195 0 1 10.044120 7.717643 607.560120
196 0 1 9.718090 7.570816 608.477783
197 0 1 9.360710 7.630203 609.360291
198 0 1 8.818906 7.807471 610.154480
199 0 1 8.136464 7.697135 610.889771
200 0 1 7.763783 7.578936 611.738281
201 0 1 7.320772 7.510441 612.586182
202 0 1 6.727710 7.254580 613.329895
203 0 1 6.245050 6.996230 614.072510
204 0 1 5.831990 6.579610 614.924927
205 0 1 5.394750 6.162750 615.686401
206 0 1 4.977610 5.512280 616.282104
207 0 1 4.887130 4.863080 617.058228
208 0 1 4.936710 4.622380 617.999573
209 0 1 4.698340 4.456440 618.948669
210 0 1 4.548750 4.207550 619.843018
211 0 1 4.753190 3.879380 620.735962
212 0 1 4.600870 3.730910 621.647095
213 0 1 4.519490 3.796840 622.560913
214 0 1 4.373190 3.869190 623.487671
215 0 1 4.261820 4.053170 624.483704
216 0 1 4.178940 4.125120 625.420166
217 0 1 3.917160 3.837710 626.282837
218 0 1 3.748640 3.607540 627.242798
219 0 1 3.625280 3.224450 628.176147
220 0 1 3.731830 3.075270 629.106934
221 0 1 4.046040 2.858190 630.002441
222 0 1 4.609530 2.834980 630.811951
223 0 1 5.184660 2.715090 631.563599
224 0 1 5.102650 2.952300 632.517273
225 0 1 5.014660 3.355600 633.369934
226 0 1 4.823900 3.689810 634.202759
227 0 1 4.883960 3.825770 635.184082
228 0 1 4.954860 3.938600 636.094666
229 0 1 5.335300 4.039140 636.973083
230 0 1 5.933980 4.218030 637.707886
231 0 1 6.575420 4.582590 638.409912
232 0 1 7.111539 5.044310 639.036194
233 0 1 7.674896 5.468470 639.778198
234 0 1 8.161209 5.740390 640.549316
235 0 1 8.222145 6.317910 641.365784
236 0 1 8.726857 6.701900 642.167114
237 0 1 9.010910 6.956990 643.034180
238 0 1 9.517170 7.265186 643.819214
239 0 1 10.001220 7.397067 644.668213
240 0 1 10.377831 7.570714 645.498108
241 0 1 10.501490 7.670363 646.417969
242 0 1 10.542120 7.399848 647.374329
243 0 1 10.786740 7.117184 648.261475
244 0 1 11.096390 6.866210 649.180725
245 0 1 11.395741 6.384610 649.965698
246 0 1 11.503220 5.980850 650.853271
247 0 1 11.714080 5.706560 651.765869
248 0 1 11.737460 5.228610 652.609131
249 0 1 11.715940 4.740300 653.463379
250 0 1 11.696000 4.425170 654.386414
251 0 1 11.632450 4.285990 655.310303
252 0 1 11.673640 4.304700 656.241272
253 0 1 11.526979 4.251100 657.153381
254 0 1 11.056010 4.204590 658.117615
255 0 1 10.621550 4.229510 658.935913
256 0 1 10.606990 4.614130 659.837524
257 0 1 10.396390 4.941980 660.772888
258 0 1 10.445110 5.180010 661.727722
259 0 1 10.469120 5.238070 662.639282
260 0 1 10.157940 5.609400 663.508301
261 0 1 9.912900 5.859420 664.396973
262 0 1 9.527230 5.988220 665.296875
263 0 1 9.021400 5.970160 666.097900
264 0 1 8.625606 5.791320 666.983582
265 0 1 8.382494 5.467540 667.952820
266 0 1 8.116781 5.215120 668.790222
267 0 1 8.089738 5.173770 669.762512
268 0 1 8.189601 5.059810 670.716919
269 0 1 7.951776 5.230840 671.601074
270 0 1 7.509956 5.240660 672.442810
271 0 1 7.074725 5.487100 673.248108
272 0 1 6.857950 5.762850 674.176575
273 0 1 6.653990 6.166880 675.034119
274 0 1 6.793360 6.744140 675.820679
275 0 1 7.069971 7.282798 676.559204
276 0 1 7.318049 7.968525 677.251831
277 0 1 7.658340 8.476608 677.972717
278 0 1 7.893136 9.176110 678.565979
279 0 1 7.946959 9.631020 679.378296
280 0 1 8.045479 9.874530 680.268982
281 0 1 8.284947 10.102340 681.207092
282 0 1 8.542212 10.391670 682.041687
283 0 1 8.768274 10.734910 682.952393
284 0 1 8.820122 10.693130 683.930908
285 0 1 8.900752 10.414100 684.866028
286 0 1 9.088530 10.017900 685.730591
287 0 1 9.279340 9.474880 686.533325
288 0 1 9.699840 9.068660 687.221619
289 0 1 10.016610 8.867777 688.114807
290 0 1 10.121190 8.581915 689.006775
291 0 1 10.003910 8.609443 689.980774
292 0 1 9.745450 8.883286 690.860474
293 0 1 9.484710 9.141440 691.738220
294 0 1 9.158260 8.882035 692.635376
295 0 1 9.005510 8.420869 693.484619
296 0 1 8.971640 8.031020 694.366089
297 0 1 8.911733 7.644631 695.278625
298 0 1 8.580009 7.517080 696.138306
299 0 1 8.049055 7.385861 696.888672
300 0 1 7.722894 7.055494 697.749084
301 0 1 7.370921 6.805790 698.686218
302 0 1 7.275609 6.590830 699.681030
303 0 1 7.456408 6.381320 700.572205
304 0 1 7.598205 6.474820 701.588989
305 0 1 7.587205 6.715320 702.575806
306 0 1 7.652523 7.025674 703.495605
307 0 1 7.729032 7.172336 704.450989
308 0 1 7.834822 7.489619 705.448120
309 0 1 8.068875 7.709652 706.425781
310 0 1 8.290692 7.896077 707.437317
311 0 1 8.472503 8.099732 708.419006
312 0 1 8.559404 8.561722 709.312805
313 0 1 8.563896 9.275970 709.872009
314 0 1 8.400904 9.743280 710.691101
315 0 1 8.148995 10.206340 711.506409
316 0 1 8.011475 10.430620 712.412415
317 0 1 7.940238 10.778130 713.312683
318 0 1 8.032590 11.027150 714.195801
319 0 1 8.081696 11.308969 715.136780
320 0 1 8.202730 11.291290 716.111572
321 0 1 8.125064 11.241710 717.109802
322 0 1 7.973392 11.065220 718.054199
323 0 1 7.936255 11.129490 719.020691
324 0 1 7.694518 11.322170 719.926514
325 0 1 7.116881 11.355590 720.680420
326 0 1 6.513990 11.264510 721.426270
327 0 1 6.036180 11.256580 722.252014
328 0 1 5.810500 11.374320 723.194702
329 0 1 5.747060 11.304600 724.202698
330 0 1 5.552860 10.956480 725.079224
331 0 1 5.431680 10.545100 725.915710
332 0 1 5.446770 10.031870 726.719971
333 0 1 5.457730 9.463820 727.526733
334 0 1 5.258710 9.026440 728.431274
335 0 1 5.296570 8.924004 729.424988
336 0 1 5.599940 8.806405 730.332031
337 0 1 6.039250 9.056520 731.106995
338 0 1 6.607570 9.395890 731.810974
339 0 1 6.977760 9.141690 732.635986
340 0 1 7.387806 9.258320 733.413025
341 0 1 7.860234 9.428110 734.192017
342 0 1 8.214646 9.540689 735.059021
343 0 1 8.100293 9.596550 736.067017
344 0 1 7.857467 9.425610 736.976013
345 0 1 7.603157 9.295670 737.895020
346 0 1 7.412372 9.075580 738.796997
347 0 1 7.262175 9.002760 739.828003
348 0 1 6.899470 8.694525 740.708984
349 0 1 6.437230 8.406778 741.479004
350 0 1 6.130400 7.944596 742.250977
351 0 1 6.037540 7.814025 743.218018
352 0 1 5.762530 7.997872 744.208008
353 0 1 5.844230 8.052141 745.195984
354 0 1 5.911420 8.114518 746.208008
355 0 1 6.109140 8.113345 747.115967
356 0 1 6.284990 7.833313 747.984985
357 0 1 6.169140 7.507939 748.851013
358 0 1 5.815080 7.157259 749.697021
359 0 1 5.500380 6.821960 750.557007
360 0 1 4.957880 6.796520 751.374023
361 0 1 4.722700 6.658760 752.302002
362 0 1 4.454460 6.597150 753.184998
363 0 1 4.348100 6.471000 754.122009
364 0 1 4.323810 6.243540 755.070007
365 0 1 4.026610 5.937340 755.963989
366 0 1 4.305480 6.181970 756.865967
367 0 1 4.769360 6.668730 757.614990
368 0 1 5.204000 7.297172 758.245972
369 0 1 5.588160 7.798763 759.057983
370 0 1 5.978920 8.087389 759.908020
371 0 1 6.509300 8.305062 760.643982
372 0 1 6.815860 8.761733 761.401001
373 0 1 7.112805 9.258370 762.162964
374 0 1 7.374101 9.739020 763.023010
375 0 1 8.008262 10.155170 763.598999
376 0 1 8.443273 10.445330 764.419983
377 0 1 8.830679 10.829639 765.247009
378 0 1 9.435850 11.129271 765.911987
379 0 1 10.101151 11.549200 766.515015
380 0 1 10.482750 11.524460 767.466003
381 0 1 10.647290 11.596340 768.414978
382 0 1 10.825260 11.501920 769.436035
383 0 1 11.066940 11.575950 770.338013
384 0 1 11.330060 11.465690 771.249023
385 0 1 11.512300 11.491859 772.212036
386 0 1 11.713620 11.694210 773.161987
387 0 1 11.623280 11.950790 774.072998
388 0 1 11.513781 11.879271 775.052979
389 0 1 11.235100 11.950320 776.059998
390 0 1 10.996180 12.031450 777.026001
391 0 1 10.754780 11.704580 777.936035
392 0 1 10.556350 11.391140 778.838989
393 0 1 10.595890 11.132480 779.744995
394 0 1 10.706820 10.963650 780.645996
395 0 1 10.453210 11.031080 781.598022
396 0 1 10.458860 10.885300 782.549988
397 0 1 10.416000 10.863000 783.476013
398 0 1 10.033940 10.588150 784.338989
399 0 1 9.613780 10.314930 785.106018
400 0 1 9.088480 10.275530 785.856995
401 0 1 8.596793 10.368959 786.677002
402 0 1 8.121862 10.015280 787.478027
403 0 1 7.605074 10.102970 788.346985
404 0 1 7.090854 10.066960 789.177002
405 0 1 6.718430 10.110650 790.057983
406 0 1 6.395920 10.316510 790.948975
407 0 1 6.215230 10.214581 791.921021
408 0 1 5.996860 10.438160 792.822998
409 0 1 5.606550 10.897881 793.604980
410 0 1 5.250020 11.136539 794.526001
411 0 1 4.916180 11.202200 795.411987
412 0 1 4.900400 11.240680 796.372009
413 0 1 5.111940 11.424789 797.266968
414 0 1 5.587290 11.575670 798.139038
415 0 1 5.954320 11.876580 798.971985
416 0 1 6.577490 12.133780 799.752014
417 0 1 6.926560 11.994740 800.651001
418 0 1 7.197029 12.130370 801.552979
419 0 1 7.519389 12.019370 802.455017
420 0 1 7.610205 11.457660 803.174988
421 0 1 7.506522 10.988910 804.031006
422 0 1 7.636501 10.570160 804.947998
423 0 1 8.045755 10.289610 805.765015
424 0 1 8.359551 10.320810 806.682007
425 0 1 8.836374 10.214380 807.587036
426 0 1 9.252740 10.010990 808.447998
427 0 1 9.548710 10.103590 809.339966
428 0 1 9.704240 9.975490 810.294983
429 0 1 9.955360 10.156440 811.245972
430 0 1 10.204420 10.353519 812.141968
431 0 1 10.167850 10.604219 813.093018
432 0 1 10.281590 10.729800 814.004028
433 0 1 10.039780 10.765070 814.953003
434 0 1 9.932590 11.083070 815.851013
435 0 1 9.586120 11.372590 816.731995
436 0 1 9.449610 11.660521 817.629028
437 0 1 8.912231 11.856390 818.432983
438 0 1 8.328553 11.791400 819.212036
439 0 1 8.062777 11.460170 820.106995
440 0 1 8.134741 10.767981 820.765015
441 0 1 7.974829 10.071320 821.389038
442 0 1 8.166838 9.628139 822.259033
443 0 1 8.226080 9.263790 823.140991
444 0 1 8.359460 8.804190 823.974976
445 0 1 8.160810 8.350151 824.822998
446 0 1 7.887673 7.985347 825.708008
447 0 1 7.625400 7.329186 826.364014
448 0 1 7.424722 6.612940 827.023010
449 0 1 7.197652 6.149090 827.760010
450 0 1 6.800220 5.700230 828.603027
451 0 1 6.750680 5.130970 829.500977
452 0 1 7.141894 4.673670 830.259033
453 0 1 7.753856 4.280060 830.870972
454 0 1 8.115458 3.765220 831.485962
455 0 1 8.420459 3.082930 832.085999
456 0 1 8.700027 2.458130 832.856995
457 0 1 9.125750 2.216910 833.688965
458 0 1 9.726880 2.300840 834.424011
459 0 1 10.516200 2.485540 834.927002
460 0 1 11.138070 2.828520 835.630005
461 0 1 11.285180 3.580770 836.218994
462 0 1 11.001210 4.285000 836.776001
463 0 1 10.431360 4.889760 837.299011
464 0 1 9.841030 5.371820 837.898010
465 0 1 9.399100 6.045300 838.405029
466 0 1 8.989912 6.804620 838.843018
467 0 1 8.446467 7.558283 839.085022
468 0 1 7.785439 8.147043 839.437988
469 0 1 7.063910 8.726913 839.740967
470 0 1 6.154900 9.030800 839.891968
471 0 1 5.225510 9.396690 839.812012
472 0 1 4.482980 9.961080 839.580017
473 0 1 3.855940 10.377350 839.031982
474 0 1 3.209290 10.500900 838.276001
475 0 1 2.806180 10.520781 837.390015
476 0 1 2.332440 10.802140 836.588989
477 0 1 1.999170 11.033140 835.682007
478 0 1 2.037950 11.102140 834.705994
479 0 1 2.000980 10.830900 833.770020
480 0 1 2.450600 10.598660 832.919006
481 0 1 2.894390 10.514680 832.104004
482 0 1 3.092430 10.389160 831.195984
483 0 1 3.129920 10.189671 830.221008
484 0 1 3.093000 10.296450 829.287964
485 0 1 3.201630 10.213830 828.325012
486 0 1 3.519830 10.178750 827.388000
487 0 1 3.805920 10.081810 826.481018
488 0 1 3.808960 9.923250 825.559998
489 0 1 3.763530 9.755040 824.634033
490 0 1 4.106740 9.506790 823.807007
491 0 1 4.232760 9.146570 822.890015
492 0 1 4.321170 9.265260 821.921997
493 0 1 4.471590 9.457600 820.989990
494 0 1 4.853180 9.813110 820.176025
495 0 1 5.081100 9.731850 819.218994
496 0 1 5.392600 9.576780 818.315002
497 0 1 5.821480 9.219220 817.541016
498 0 1 6.095360 8.725726 816.697021
499 0 1 6.105160 8.242058 815.885986
500 0 1 5.937130 7.659196 815.099976
501 0 1 5.953250 7.033043 814.362000
502 0 1 6.022390 6.610480 813.536987
503 0 1 5.930110 6.364280 812.593018
504 0 1 5.715360 6.198790 811.651001
505 0 1 5.573450 6.195910 810.742981
506 0 1 5.398370 6.282940 809.843994
507 0 1 5.206970 6.558980 808.890015
508 0 1 4.974810 6.828860 807.984009
509 0 1 4.773870 7.119621 807.101013
510 0 1 4.264250 7.411074 806.306030
511 0 1 3.699480 7.712453 805.575989
512 0 1 3.121380 7.607797 804.781006
513 0 1 2.793460 7.343903 803.817017
514 0 1 2.300020 7.474117 802.885986
515 0 1 1.957940 7.529364 802.041016
516 0 1 1.589780 7.518976 801.056030
517 0 1 1.540090 7.550475 800.077026
518 0 1 1.512550 7.582967 799.135010
519 0 1 1.226620 7.373441 798.283997
520 0 1 1.137550 7.320355 797.325989
521 0 1 1.163720 7.652218 796.455994
522 0 1 1.123740 7.951372 795.585999
523 0 1 1.531100 8.008982 794.747986
524 0 1 2.160670 8.294825 794.061035
525 0 1 2.693220 8.723945 793.356995
526 0 1 3.395400 8.935782 792.672974
527 0 1 3.920190 8.884933 791.888000
528 0 1 4.299480 8.953221 790.994019
529 0 1 4.644620 8.898274 790.059998
530 0 1 4.690710 8.810581 789.103027
531 0 1 5.010700 8.534114 788.229980
532 0 1 5.158020 8.199265 787.395996
533 0 1 5.354170 7.726971 786.619019
534 0 1 5.534720 7.289247 785.812988
535 0 1 5.771500 6.843650 785.009033
536 0 1 5.635140 6.637220 784.068970
537 0 1 5.415070 6.418830 783.109009
538 0 1 5.653970 5.980480 782.257019
539 0 1 6.078030 5.541180 781.523010
540 0 1 6.285420 5.141980 780.702026
541 0 1 6.493850 5.024810 779.807007
542 0 1 6.687920 5.139880 778.906006
543 0 1 6.876960 5.328790 778.007019
544 0 1 7.145839 5.381450 777.051025
545 0 1 7.544022 5.406450 776.167969
546 0 1 7.948038 5.342140 775.323975
547 0 1 8.497698 5.214910 774.549011
548 0 1 8.881161 5.024860 773.684998
549 0 1 9.436390 4.997160 772.888000
550 0 1 9.667730 4.922540 771.981018
551 0 1 9.730500 5.124110 770.999023
552 0 1 10.023530 5.106250 770.075012
553 0 1 10.154130 5.053780 769.158997
554 0 1 10.276870 4.957950 768.179016
555 0 1 10.418330 5.070620 767.247986
556 0 1 10.600660 5.186000 766.332031
557 0 1 10.792840 5.404950 765.432007
558 0 1 11.179490 5.695820 764.583984
559 0 1 11.388590 5.966450 763.622009
560 0 1 11.661940 6.355000 762.760010
561 0 1 11.817780 6.641800 761.856018
562 0 1 11.922810 6.863920 760.922974
563 0 1 12.096450 7.134907 759.976013
564 0 1 12.262650 7.412549 759.072998
565 0 1 12.354660 7.576457 758.070984
566 0 1 12.262360 7.891165 757.125000
567 0 1 11.984280 8.264965 756.299988
568 0 1 11.881480 8.383166 755.361023
569 0 1 11.919680 8.596869 754.419006
570 0 1 12.073540 8.758075 753.478027
571 0 1 11.925090 8.916923 752.497009
572 0 1 11.633390 9.095170 751.609985
573 0 1 11.734190 9.068760 750.609009
574 0 1 11.870940 8.936734 749.705017
575 0 1 11.644290 8.905551 748.801025
576 0 1 11.564640 9.108550 747.810974
577 0 1 11.741950 9.268390 746.846985
578 0 1 12.031590 9.404780 745.958008
579 0 1 12.159170 9.414590 744.987976
580 0 1 12.057631 9.337650 744.052979
581 0 1 11.859280 9.372110 743.161011
582 0 1 11.803329 9.219780 742.190979
583 0 1 11.373390 9.171030 741.275024
584 0 1 11.421070 9.172000 740.257019
585 0 1 11.412840 9.669490 739.442017
586 0 1 11.591290 10.035360 738.515015
587 0 1 11.985070 10.278111 737.708984
588 0 1 12.318439 10.530000 736.825989
589 0 1 12.482300 10.883910 735.891968
590 0 1 12.329990 10.975340 734.987000
591 0 1 12.110741 10.870920 733.997986
592 0 1 12.144859 10.873550 733.067993
593 0 1 12.246070 10.669780 732.132996
594 0 1 12.575310 10.479060 731.221985
595 0 1 12.882780 10.421710 730.328003
596 0 1 13.020800 10.367001 729.369995
597 0 1 13.155001 10.294020 728.392395
598 0 1 13.082270 10.401290 727.450989
599 0 1 12.983820 10.658310 726.510925
600 0 1 12.810650 10.452160 725.594177
601 0 1 12.465160 10.135080 724.760193
602 0 1 12.093370 9.700910 723.938232
603 0 1 11.437150 9.287080 723.334717
604 0 1 10.824841 9.026210 722.598022
605 0 1 10.174360 8.819546 721.925415
606 0 1 9.429530 8.556404 721.380127
607 0 1 8.805645 8.215205 720.764526
608 0 1 7.924958 8.099613 720.364319
609 0 1 7.108465 7.813491 719.910522
610 0 1 6.145020 7.770926 719.650818
611 0 1 5.297000 7.396314 719.326172
612 0 1 4.701710 7.009749 718.682617
613 0 1 4.111110 6.592700 718.003418
614 0 1 3.667760 6.367740 717.227478
615 0 1 3.199950 6.478420 716.342590
616 0 1 2.939200 6.819370 715.513977
617 0 1 2.817710 7.125069 714.595886
618 0 1 2.917530 7.335451 713.656189
619 0 1 2.825520 7.285304 712.678101
620 0 1 2.980050 7.549683 711.770996
621 0 1 3.009120 7.850802 710.863708
622 0 1 3.114920 8.417330 710.031982
623 0 1 3.182070 8.477583 709.083496
624 0 1 3.197320 8.749173 708.172607
625 0 1 3.167410 9.075050 707.260925
626 0 1 3.211400 9.384880 706.330322
627 0 1 3.235250 9.707000 705.487915
628 0 1 3.199040 9.912189 704.520386
629 0 1 3.192940 9.789650 703.547424
630 0 1 3.257090 9.504660 702.684509
631 0 1 3.443910 9.055060 701.791504
632 0 1 3.367540 8.601540 700.974976
633 0 1 3.290850 7.958667 700.293518
634 0 1 3.482490 7.236877 699.646423
635 0 1 3.538730 6.599910 698.833923
636 0 1 3.444740 6.165900 697.951172
637 0 1 3.410640 5.990880 697.018616
638 0 1 3.612350 5.795490 696.130798
639 0 1 3.615280 5.633030 695.202576
640 0 1 3.632770 5.614960 694.216431
641 0 1 3.436410 5.541120 693.271973
642 0 1 3.144490 5.665820 692.299316
643 0 1 3.145700 5.985370 691.334778
644 0 1 3.415630 6.153830 690.369812
645 0 1 3.733430 6.244110 689.486328
646 0 1 3.913440 6.348930 688.539124
647 0 1 3.998370 6.463120 687.568298
648 0 1 3.734270 6.785500 686.694824
649 0 1 3.707630 7.119463 685.828613
650 0 1 3.477370 7.559106 684.977600
651 0 1 3.338040 8.102573 684.250000
652 0 1 3.344400 8.802597 683.586975
653 0 1 3.292510 9.373380 682.854797
654 0 1 3.642890 9.923410 682.132324
655 0 1 3.717050 10.375390 681.310120
656 0 1 3.973760 10.667020 680.454712
657 0 1 4.140210 10.781430 679.471924
658 0 1 4.394370 10.992210 678.529114
659 0 1 4.768390 10.905380 677.656921
660 0 1 5.204590 10.689240 676.850586
661 0 1 5.829820 10.341880 676.230286
662 0 1 6.469610 10.390600 675.531982
663 0 1 7.171621 10.733880 675.018494
664 0 1 7.650478 11.074240 674.252991
665 0 1 7.995635 11.484529 673.459900
666 0 1 8.132148 11.669110 672.508789
667 0 1 8.507051 11.806200 671.633301
668 0 1 8.732161 11.944580 670.728210
669 0 1 8.839273 12.078930 669.713196
670 0 1 9.062360 12.178989 668.736877
671 0 1 9.033930 12.252640 667.748596
672 0 1 9.124460 12.222080 666.819214
673 0 1 9.064939 12.217970 665.791870
674 0 1 8.950752 12.486780 664.875122
675 0 1 8.703160 12.781130 663.933411
676 0 1 8.507303 12.901400 662.947327
677 0 1 8.419125 12.872700 662.007080
678 0 1 8.337379 12.671120 661.022217
679 0 1 8.082997 12.301920 660.189575
680 0 1 7.952403 11.763660 659.372009
681 0 1 7.601002 11.062930 658.860474
682 0 1 7.478378 10.314520 658.273621
683 0 1 7.187826 9.538220 657.798828
684 0 1 7.077610 8.888403 657.129822
685 0 1 6.793450 8.432998 656.413696
686 0 1 6.863160 8.106608 655.513123
687 0 1 7.136269 8.002231 654.595825
688 0 1 7.152525 7.784342 653.647583
689 0 1 7.053059 7.606845 652.662903
690 0 1 7.050972 7.344904 651.760315
691 0 1 7.236591 7.046458 650.834290
692 0 1 7.266831 7.005574 649.869812
693 0 1 7.275057 6.707970 648.918396
694 0 1 7.338595 6.210270 648.114929
695 0 1 7.347240 6.083200 647.130371
696 0 1 7.285600 5.947550 646.157593
697 0 1 7.398219 5.944660 645.255615
698 0 1 7.554812 5.771250 644.325073
699 0 1 7.752797 5.467690 643.339417
700 0 1 7.734226 5.143720 642.386719
701 0 1 7.771533 4.802270 641.416199
702 0 1 7.953612 4.459280 640.457886
703 0 1 8.075453 4.086050 639.571899
704 0 1 8.200898 3.707450 638.741882
705 0 1 8.095461 3.422280 637.884827
706 0 1 7.869917 2.908390 637.022034
707 0 1 7.551425 2.547020 636.230957
708 0 1 7.455449 2.071020 635.413757
709 0 1 7.395971 1.790830 634.484009
710 0 1 7.174960 1.890230 633.437134
711 0 1 6.890120 2.271190 632.596436
712 0 1 6.661580 2.608630 631.744080
713 0 1 6.206960 2.686660 630.871643
714 0 1 5.743920 2.917350 630.030640
715 0 1 5.283520 3.352060 629.323547
716 0 1 5.124590 3.925430 628.579773
717 0 1 5.057110 4.249760 627.721863
718 0 1 5.087270 4.501130 626.802246
719 0 1 5.125180 4.700970 625.849976
720 0 1 5.364520 4.925960 624.983948
721 0 1 5.782930 5.135620 624.185303
722 0 1 5.932960 5.551850 623.292358
723 0 1 6.217760 6.120180 622.557373
724 0 1 6.311510 6.731490 621.783203
725 0 1 6.413900 7.444965 621.052917
726 0 1 6.615630 8.167956 620.394226
727 0 1 6.783480 8.888643 619.768311
728 0 1 6.885000 9.696830 619.303955
729 0 1 6.976390 10.405090 618.680481
730 0 1 7.116869 10.915490 617.814819
731 0 1 7.129567 11.130450 616.914978
732 0 1 7.463485 11.517550 616.072327
733 0 1 7.989682 11.779790 615.284607
734 0 1 8.636557 12.029830 614.683228
735 0 1 9.175100 12.423210 613.949524
736 0 1 9.692520 12.616560 613.063416
737 0 1 10.095400 12.883120 612.225525
738 0 1 10.435680 13.261330 611.389587
739 0 1 10.293690 13.308730 610.426392
740 0 1 10.058110 13.209120 609.495972
741 0 1 9.925660 12.940030 608.628601
742 0 1 9.864030 12.816320 607.687073
743 0 1 9.643310 12.663600 606.730225
744 0 1 9.426229 12.596581 605.796997
745 0 1 8.849718 12.436279 605.025208
746 0 1 8.550199 12.392970 604.133301
747 0 1 8.474408 12.302130 603.215393
748 0 1 8.352744 12.239241 602.296387
749 0 1 8.390386 11.991830 601.380310
750 0 1 8.530222 11.643800 600.491211
751 0 1 8.787905 11.330780 599.599304
752 0 1 8.996713 11.434450 598.644714
753 0 1 9.189600 11.619380 597.771179
754 0 1 9.535970 11.785830 596.886230
755 0 1 9.837790 11.793740 595.972168
756 0 1 10.201050 11.920300 595.092773
757 0 1 10.573811 11.849540 594.212097
758 0 1 10.814370 11.912149 593.282288
759 0 1 10.943700 11.863780 592.345215
760 0 1 10.897130 11.826571 591.328125
761 0 1 11.020970 11.676889 590.367188
762 0 1 11.112580 11.386900 589.481384
763 0 1 11.197630 10.858270 588.588501
764 0 1 11.408290 10.447980 587.776672
765 0 1 11.407920 10.098340 586.915283
766 0 1 11.487680 9.602790 586.152405
767 0 1 11.380540 9.188950 585.343872
768 0 1 11.327539 8.857625 584.421204
769 0 1 11.262910 8.558842 583.548523
770 0 1 11.349730 8.195271 582.671509
771 0 1 11.522300 7.905075 581.736816
772 0 1 11.393880 7.311596 581.022827
773 0 1 11.205890 6.815840 580.220581
774 0 1 11.127069 6.291140 579.394226
775 0 1 11.099270 5.943420 578.452209
776 0 1 10.979321 5.496110 577.607910
777 0 1 10.824540 5.195030 576.659607
778 0 1 10.634260 5.163630 575.681824
779 0 1 10.651850 5.069080 574.709290
780 0 1 11.111010 4.668090 573.969421
781 0 1 11.558070 4.451960 573.130798
782 0 1 12.077391 4.537450 572.334412
783 0 1 12.366400 4.814350 571.429016
784 0 1 12.765850 5.097650 570.566528
785 0 1 13.004021 5.455990 569.678589
786 0 1 13.059299 5.796000 568.810791
787 0 1 13.252649 6.136450 567.904480
788 0 1 13.503440 6.507580 566.987183
789 0 1 13.641570 6.522730 566.062195
790 0 1 13.462440 6.761920 565.136230
791 0 1 13.141670 6.866570 564.243896
792 0 1 12.777810 7.241734 563.428101
793 0 1 12.356710 7.490675 562.457397