LAMMPS data file via MDAnalysis

        1000  atoms
        1000  bonds
        1000  angles
           0  dihedrals
           0  impropers

           1  atom types
           1  bond types
           1  angle types
           0  dihedral types
           0  improper types

0.000000 16.000000 xlo xhi
0.000000 16.000000 ylo yhi
0.000000 1257.000000 zlo zhi


Masses

1 1.000000

Atoms

1 0 1 7.443381 7.575728 441.523010
2 0 1 7.825846 7.780530 442.354980
3 0 1 8.220983 7.876587 443.234009
4 0 1 8.678615 7.899775 444.083984
5 0 1 8.999413 7.797652 445.020020
6 0 1 9.369530 7.760444 445.932983
7 0 1 9.806900 7.653692 446.721985
8 0 1 10.194330 7.357933 447.572998
9 0 1 10.713520 7.224837 448.304993
10 0 1 11.280390 7.089702 449.091003
11 0 1 11.522120 7.298616 449.958008
12 0 1 12.082420 7.528922 450.729980
13 0 1 12.376801 7.606285 451.671997
14 0 1 13.061911 7.838112 452.322021
15 0 1 13.475360 8.434847 452.979980
16 0 1 14.149500 8.897292 453.473999
17 0 1 14.434000 9.386460 454.192993
18 0 1 14.403760 9.694390 455.083984
19 0 1 14.153160 9.978110 456.035004
20 0 1 13.774580 9.833090 456.884003
21 0 1 13.388870 9.551360 457.684998
22 0 1 13.077499 9.261000 458.593018
23 0 1 13.147881 8.905169 459.445007
24 0 1 13.277590 8.362229 460.252014
25 0 1 13.346970 8.001060 461.132996
26 0 1 13.260500 7.697276 462.057007
27 0 1 13.269609 7.649447 463.002014
28 0 1 13.481070 7.638166 463.938995
29 0 1 13.604060 7.703024 464.859985
30 0 1 13.726339 7.638001 465.854004
31 0 1 13.741540 7.855464 466.806000
32 0 1 13.557170 7.914524 467.757996
33 0 1 13.717060 8.317863 468.565979
34 0 1 13.706480 8.583428 469.544983
35 0 1 13.550819 8.495941 470.510986
36 0 1 13.759300 8.133532 471.377991
37 0 1 13.693439 7.833319 472.285004
38 0 1 13.685030 7.720512 473.174011
39 0 1 13.759530 7.370822 474.135986
40 0 1 13.607050 7.183969 475.063995
41 0 1 13.316020 7.353620 475.994019
42 0 1 13.286961 7.700534 476.973999
43 0 1 13.163850 7.863929 477.914978
44 0 1 13.071400 7.819064 478.893005
45 0 1 13.088940 8.043976 479.812988
46 0 1 12.932250 8.257792 480.796021
47 0 1 12.910920 8.184178 481.764008
48 0 1 12.665970 8.041301 482.667999
49 0 1 12.547640 8.341024 483.598999
50 0 1 12.292500 8.588800 484.440979
51 0 1 12.028950 9.077890 485.252014
52 0 1 11.802350 9.600560 485.973022
53 0 1 11.287760 10.200180 486.455994
54 0 1 10.675360 10.827670 486.958984
55 0 1 9.875500 11.033930 487.552002
56 0 1 9.335460 11.443860 488.143005
57 0 1 8.660208 11.786480 488.737000
58 0 1 8.298465 11.727230 489.744019
59 0 1 8.021082 11.520530 490.666016
60 0 1 8.027281 11.345010 491.614014
61 0 1 7.950179 11.197330 492.639008
62 0 1 7.579682 11.149970 493.520020
63 0 1 7.315301 11.110810 494.429016
64 0 1 6.785550 11.149680 495.270996
65 0 1 6.602750 11.108910 496.149994
66 0 1 6.310450 10.943040 497.078979
67 0 1 5.901600 10.664630 497.919006
68 0 1 5.644090 10.471080 498.763000
69 0 1 5.215720 10.089940 499.575989
70 0 1 4.940810 9.720630 500.399994
71 0 1 4.978750 9.398130 501.289001
72 0 1 5.065000 9.276040 502.257019
73 0 1 5.164510 9.075960 503.196991
74 0 1 5.209490 8.737406 504.141998
75 0 1 5.119140 8.626040 505.097992
76 0 1 5.231400 8.483450 506.019989
77 0 1 5.020690 8.202077 506.950012
78 0 1 4.933920 8.246623 507.899994
79 0 1 4.985270 8.581065 508.817017
80 0 1 5.544810 8.597010 509.552002
81 0 1 6.299620 8.939586 510.110992
82 0 1 6.975190 9.011120 510.811005
83 0 1 7.725617 8.563020 511.252014
84 0 1 8.401656 8.181789 511.886993
85 0 1 9.139320 7.821894 512.351013
86 0 1 9.951420 7.482006 512.714966
87 0 1 10.432550 6.926200 513.294006
88 0 1 10.675920 6.566670 514.184021
89 0 1 10.777790 6.505920 515.124023
90 0 1 10.784210 6.660210 516.041992
91 0 1 10.537760 6.584750 516.932007
92 0 1 10.229930 6.672680 517.844971
93 0 1 9.587010 6.836370 518.474976
94 0 1 9.151900 6.632170 519.335022
95 0 1 8.701191 6.264170 520.169006
96 0 1 8.513524 5.802240 521.056030
97 0 1 8.253999 5.163870 521.736023
98 0 1 8.111612 4.642290 522.497009
99 0 1 8.327488 4.045830 523.273010
100 0 1 8.645448 3.924080 524.155029
101 0 1 9.092540 4.216990 525.039001
102 0 1 9.500130 4.192030 525.927979
103 0 1 9.617160 4.092470 526.911011
104 0 1 9.786330 4.154660 527.789978
105 0 1 9.945660 4.119660 528.739624
106 0 1 10.093490 4.255650 529.645508
107 0 1 10.236750 4.415590 530.605591
108 0 1 10.445210 4.558450 531.500793
109 0 1 10.172370 4.553230 532.451416
110 0 1 10.047150 4.439300 533.389709
111 0 1 10.276740 4.241730 534.237976
112 0 1 10.363180 4.088110 535.202393
113 0 1 10.496260 4.065550 536.129822
114 0 1 10.239480 4.152080 537.021606
115 0 1 9.945300 4.320090 537.848694
116 0 1 9.686700 4.607710 538.760925
117 0 1 9.423000 4.517220 539.676392
118 0 1 9.093019 4.725180 540.591125
119 0 1 8.545139 4.900670 541.412903
120 0 1 8.225290 5.181640 542.273315
121 0 1 7.882086 5.570710 543.069580
122 0 1 7.212947 5.707700 543.780701
123 0 1 6.546600 5.841160 544.449097
124 0 1 5.938130 5.968450 545.145813
125 0 1 5.445930 6.108930 545.933594
126 0 1 4.920680 6.094590 546.744385
127 0 1 4.612330 6.243140 547.640381
128 0 1 4.392400 6.335900 548.597717
129 0 1 4.103510 6.658670 549.468079
130 0 1 3.636410 6.936530 550.252075
131 0 1 3.586910 7.058321 551.214478
132 0 1 3.746350 7.311179 552.049072
133 0 1 4.112630 7.741381 552.792419
134 0 1 4.453580 8.136080 553.589783
135 0 1 4.842050 8.450698 554.422974
136 0 1 5.529280 8.653749 555.038513
137 0 1 6.287360 8.809920 555.658997
138 0 1 7.023527 8.763520 556.331482
139 0 1 7.803577 8.962210 556.905090
140 0 1 8.717367 8.988303 557.280884
141 0 1 9.502640 9.034490 557.832581
142 0 1 9.946070 8.940024 558.781128
143 0 1 10.080930 8.920732 559.749084
144 0 1 10.264940 8.965312 560.787781
145 0 1 10.449880 9.236030 561.688416
146 0 1 10.608931 9.586280 562.569580
147 0 1 10.679810 9.762900 563.518921
148 0 1 10.770030 10.032470 564.508911
149 0 1 11.058360 10.082040 565.406494
150 0 1 11.327440 10.001790 566.328796
151 0 1 11.609600 9.887680 567.178101
152 0 1 11.544270 9.747130 568.101624
153 0 1 11.512790 9.367010 568.982300
154 0 1 11.590040 8.969715 569.834717
155 0 1 11.515630 8.715871 570.794312
156 0 1 11.445030 8.372863 571.673401
157 0 1 11.431820 8.065527 572.593811
158 0 1 11.496360 7.871164 573.591614
159 0 1 11.295280 7.806596 574.578186
160 0 1 10.988540 8.009246 575.442810
161 0 1 10.886190 8.402992 576.353821
162 0 1 10.763170 8.780057 577.212585
163 0 1 10.584840 9.143750 578.110413
164 0 1 10.221030 9.141520 579.010620
165 0 1 10.183870 9.007620 579.963379
166 0 1 10.038390 8.852694 580.924500
167 0 1 9.892290 8.622386 581.851990
168 0 1 9.726210 8.016505 582.624512
169 0 1 9.694520 7.815452 583.575378
170 0 1 9.477240 7.947874 584.527588
171 0 1 9.108170 7.708240 585.413513
172 0 1 8.889057 7.679049 586.340515
173 0 1 8.336789 7.954716 587.077515
174 0 1 7.792876 8.247314 587.819824
175 0 1 7.277890 8.738441 588.404907
176 0 1 6.774450 9.163080 589.066101
177 0 1 6.556960 9.844660 589.678772
178 0 1 6.287160 10.495100 590.299683
179 0 1 5.824310 11.110260 590.897705
180 0 1 5.593000 11.660310 591.641785
181 0 1 5.375990 12.140511 592.489868
182 0 1 5.172200 12.281970 593.388428
183 0 1 4.858860 12.419930 594.346680
184 0 1 4.468110 12.634130 595.190491
185 0 1 4.519080 12.592680 596.162231
186 0 1 4.639000 12.339520 597.139526
187 0 1 4.913880 12.157431 598.102112
188 0 1 4.870630 11.918630 599.054871
189 0 1 5.098870 11.571490 599.967407
190 0 1 5.174380 10.848670 600.697083
191 0 1 4.951040 10.316200 601.512085
192 0 1 4.696510 9.779500 602.267090
193 0 1 4.602900 9.268820 603.017700
194 0 1 4.573370 8.840446 603.896118
195 0 1 4.526150 8.818565 604.823181
196 0 1 4.516300 8.911850 605.755371
197 0 1 4.626670 8.651470 606.710388
198 0 1 5.066970 8.310904 607.489319
199 0 1 5.786640 8.077717 608.060669
200 0 1 6.636670 8.245512 608.638489
201 0 1 7.380612 8.025955 609.289185
202 0 1 8.191968 7.904337 609.668823
203 0 1 9.012500 7.734178 610.192993
204 0 1 9.818630 7.707366 610.704895
205 0 1 10.395760 7.855876 611.445984
206 0 1 10.927180 7.969389 612.278198
207 0 1 11.331470 8.355792 613.101807
208 0 1 11.701790 8.640608 613.904480
209 0 1 12.136710 8.874163 614.751770
210 0 1 12.556220 8.891182 615.648071
211 0 1 13.014800 8.772424 616.485901
212 0 1 13.101020 9.089870 617.361572
213 0 1 13.198330 9.446370 618.226624
214 0 1 13.472110 9.723060 619.081970
215 0 1 13.695690 9.912480 619.960815
216 0 1 13.826310 10.096770 620.839966
217 0 1 13.967040 10.042160 621.804077
218 0 1 13.982531 10.187350 622.762085
219 0 1 14.102489 10.194510 623.761902
220 0 1 14.433760 9.862740 624.647949
221 0 1 14.433331 9.637970 625.638306
222 0 1 14.661360 9.465650 626.574524
223 0 1 14.471940 9.348980 627.488220
224 0 1 13.986031 9.229930 628.307983
225 0 1 13.708530 9.028430 629.198853
226 0 1 13.201630 9.024170 630.093567
227 0 1 12.817860 8.784573 630.996277
228 0 1 12.269260 8.909546 631.832764
229 0 1 11.820760 9.188240 632.619934
230 0 1 11.039490 9.410800 633.186157
231 0 1 10.316360 9.701320 633.727173
232 0 1 9.500010 10.170880 634.092773
233 0 1 8.748154 10.709090 634.301941
234 0 1 8.121870 11.304610 634.743225
235 0 1 7.556159 11.822250 635.344360
236 0 1 6.980960 12.042280 636.059814
237 0 1 6.529190 11.837760 636.863464
238 0 1 6.172760 11.641040 637.742737
239 0 1 6.260630 11.338300 638.661987
240 0 1 6.448460 11.057310 639.607178
241 0 1 6.727390 10.687480 640.463501
242 0 1 6.924800 10.634570 641.448486
243 0 1 7.140202 10.602110 642.367676
244 0 1 7.504935 10.642340 643.224182
245 0 1 7.988228 10.526680 644.064026
246 0 1 8.280085 10.644800 645.024414
247 0 1 8.448357 10.752410 645.983704
248 0 1 8.888048 10.959990 646.824524
249 0 1 9.370430 11.330260 647.542480
250 0 1 9.483510 11.701630 648.395081
251 0 1 9.505790 12.256050 649.225891
252 0 1 9.681890 12.307690 650.125183
253 0 1 10.048710 12.649099 650.932495
254 0 1 10.054230 12.861560 651.875122
255 0 1 9.857710 12.807610 652.845215
256 0 1 9.738140 12.637190 653.813293
257 0 1 9.552270 12.623960 654.761902
258 0 1 9.417770 12.543790 655.676270
259 0 1 9.272220 12.078120 656.534302
260 0 1 8.940729 11.863430 657.418396
261 0 1 8.786465 11.759830 658.383423
262 0 1 8.454133 11.379210 659.287598
263 0 1 7.922859 11.544830 660.059814
264 0 1 7.681959 11.765070 660.888306
265 0 1 7.313281 12.023109 661.715393
266 0 1 7.399481 12.356609 662.615723
267 0 1 7.201625 12.571421 663.563110
268 0 1 7.256006 12.977341 664.431030
269 0 1 7.627397 13.524090 665.263306
270 0 1 7.895398 13.828400 666.127502
271 0 1 8.131300 13.960899 667.009277
272 0 1 8.156693 13.983280 667.965027
273 0 1 8.122610 13.954530 668.915100
274 0 1 8.126882 13.860170 669.837769
275 0 1 8.298531 13.551500 670.731018
276 0 1 8.599818 13.038031 671.490112
277 0 1 8.878045 12.462790 672.187073
278 0 1 9.072900 11.707650 672.797485
279 0 1 9.348160 10.874120 673.265625
280 0 1 9.619800 10.254180 673.897400
281 0 1 9.670080 9.585400 674.656677
282 0 1 9.936970 9.279480 675.533386
283 0 1 10.206690 9.034440 676.426086
284 0 1 10.450480 8.652846 677.292786
285 0 1 10.338660 8.302508 678.152710
286 0 1 9.993160 8.186087 679.084778
287 0 1 9.812030 7.951145 680.035095
288 0 1 9.454350 7.431417 680.808411
289 0 1 9.034380 6.978600 681.553528
290 0 1 8.979374 6.951190 682.485229
291 0 1 8.809531 7.041905 683.418518
292 0 1 8.891993 7.348599 684.361877
293 0 1 9.091190 7.331636 685.290771
294 0 1 9.227221 7.363560 686.216797
295 0 1 9.364950 7.542706 687.155212
296 0 1 9.608459 7.783393 688.042908
297 0 1 10.013450 7.893756 688.954285
298 0 1 9.993680 7.722088 689.895081
299 0 1 9.875980 7.473072 690.857178
300 0 1 9.772570 7.577265 691.847107
301 0 1 9.684340 7.552146 692.831177
302 0 1 9.652250 7.568195 693.817383
303 0 1 9.523250 7.620524 694.755615
304 0 1 9.122400 7.280336 695.613403
305 0 1 8.954583 7.133435 696.534607
306 0 1 8.692928 6.874870 697.434814
307 0 1 8.248768 6.321900 698.139587
308 0 1 7.848628 6.039900 698.960999
309 0 1 7.218951 6.090040 699.701111
310 0 1 6.615620 6.161080 700.438293
311 0 1 6.212210 6.268570 701.274109
312 0 1 5.912660 6.434240 702.197998
313 0 1 5.624140 6.626020 703.054077
314 0 1 5.472770 6.817040 703.977905
315 0 1 5.320660 7.392818 704.749390
316 0 1 5.297430 7.726567 705.648682
317 0 1 5.257770 8.035833 706.580322
318 0 1 5.091320 7.987148 707.602112
319 0 1 5.032620 8.060294 708.531921
320 0 1 4.945630 8.117753 709.481323
321 0 1 4.993630 8.445403 710.384888
322 0 1 4.973330 8.551826 711.304199
323 0 1 4.740700 8.806253 712.205566
324 0 1 4.358880 8.968270 713.145325
325 0 1 4.100400 9.179130 714.126099
326 0 1 3.927040 9.426920 715.058105
327 0 1 3.662460 9.696750 715.942322
328 0 1 3.264250 10.032790 716.776306
329 0 1 2.844900 10.170670 717.613586
330 0 1 2.587460 10.264490 718.515076
331 0 1 2.420360 10.090219 719.398682
332 0 1 2.433750 9.745910 720.333801
333 0 1 2.642300 9.722180 721.262085
334 0 1 2.496180 9.769390 722.188904
335 0 1 2.626180 9.727620 723.169006
336 0 1 2.960690 9.896430 724.026794
337 0 1 3.416550 10.153760 724.857605
338 0 1 3.687380 10.466240 725.717590
339 0 1 3.798100 10.936420 726.575928
340 0 1 4.042360 11.480800 727.284302
341 0 1 4.237480 11.932199 728.119019
342 0 1 4.394930 12.275990 729.009033
343 0 1 4.774180 12.768980 729.775024
344 0 1 5.161330 13.357460 730.421997
345 0 1 5.832300 13.706270 731.051025
346 0 1 6.575120 13.537371 731.658997
347 0 1 7.274458 13.389800 732.278015
348 0 1 7.906368 13.272200 732.992004
349 0 1 8.413537 13.012990 733.838989
350 0 1 9.131470 12.774530 734.549011
351 0 1 9.805880 12.539850 735.234985
352 0 1 10.281510 12.098790 736.033020
353 0 1 10.619400 12.032830 736.994995
354 0 1 11.146330 11.903340 737.792969
355 0 1 11.479860 11.977060 738.765015
356 0 1 11.534130 11.907590 739.801025
357 0 1 11.396830 11.696000 740.718018
358 0 1 11.086130 11.276690 741.507019
359 0 1 10.842080 10.804250 742.393005
360 0 1 10.632080 10.297750 743.244995
361 0 1 10.794110 9.980150 744.135986
362 0 1 11.028430 9.585480 744.952026
363 0 1 10.938310 9.371990 745.898010
364 0 1 10.880710 9.197140 746.835999
365 0 1 10.725290 8.784844 747.685974
366 0 1 10.728680 8.368964 748.588989
367 0 1 10.822880 7.989153 749.437012
368 0 1 10.778310 7.591403 750.263000
369 0 1 10.861890 6.979860 750.916016
370 0 1 10.667810 6.389890 751.697998
371 0 1 10.367810 5.994130 752.494995
372 0 1 10.044980 5.722910 753.377014
373 0 1 9.894310 5.579140 754.328979
374 0 1 9.671310 5.349910 755.273010
375 0 1 9.336170 5.152660 756.158997
376 0 1 9.098080 4.949640 757.088013
377 0 1 8.996863 4.688300 758.054016
378 0 1 8.975694 4.373040 758.938965
379 0 1 9.126790 3.910870 759.760010
380 0 1 9.451460 3.459890 760.520996
381 0 1 10.049750 3.230110 761.296021
382 0 1 10.734030 3.154140 762.025024
383 0 1 11.217250 3.114260 762.806030
384 0 1 11.907681 3.232680 763.411987
385 0 1 12.317860 3.394820 764.197998
386 0 1 12.660610 3.460490 765.083984
387 0 1 12.973499 3.760310 766.049988
388 0 1 13.112590 4.033680 766.926025
389 0 1 13.036160 4.095100 767.919983
390 0 1 13.023849 4.109420 768.938965
391 0 1 12.794580 4.000630 769.884033
392 0 1 12.541901 3.626780 770.809998
393 0 1 12.243310 3.381330 771.692993
394 0 1 11.963170 3.188730 772.598999
395 0 1 11.717570 2.977190 773.557007
396 0 1 11.508240 2.475790 774.348999
397 0 1 11.315650 2.200750 775.247009
398 0 1 11.233360 1.929220 776.164001
399 0 1 11.083330 2.069220 777.065979
400 0 1 10.936820 2.571990 777.848022
401 0 1 10.723220 3.068110 778.664978
402 0 1 10.555470 3.295460 779.562012
403 0 1 10.289870 3.586710 780.403015
404 0 1 9.997820 4.059980 781.177002
405 0 1 9.701410 4.283210 782.082031
406 0 1 9.667360 4.779570 782.914001
407 0 1 9.669830 5.017960 783.783997
408 0 1 9.674620 5.124200 784.802979
409 0 1 9.576840 5.355080 785.712036
410 0 1 9.635300 5.649460 786.629028
411 0 1 9.649060 5.822880 787.598022
412 0 1 9.651410 5.977540 788.551025
413 0 1 9.669330 6.023420 789.466003
414 0 1 9.743270 6.035100 790.474976
415 0 1 9.521080 6.113030 791.386963
416 0 1 9.579650 6.268700 792.346008
417 0 1 9.498160 6.806710 793.205017
418 0 1 9.442580 7.006297 794.140991
419 0 1 9.354770 6.993010 795.112000
420 0 1 9.240860 6.940010 796.026001
421 0 1 9.056550 6.959470 797.039001
422 0 1 8.906623 6.717340 797.963989
423 0 1 8.745676 6.271570 798.835999
424 0 1 8.799871 6.219050 799.770996
425 0 1 8.556643 6.265360 800.708008
426 0 1 8.398408 6.497660 801.599976
427 0 1 8.143461 6.462430 802.505005
428 0 1 8.246811 6.321380 803.458984
429 0 1 8.304445 6.212060 804.463989
430 0 1 8.088356 6.117710 805.468994
431 0 1 7.542347 6.090700 806.268982
432 0 1 7.023151 5.775160 807.036011
433 0 1 6.752640 5.738310 807.966980
434 0 1 6.446850 5.918930 808.908997
435 0 1 6.170900 6.002350 809.796997
436 0 1 5.672980 6.165840 810.572021
437 0 1 5.275590 6.600030 811.421997
438 0 1 5.130840 6.949630 812.255981
439 0 1 5.151790 7.560541 813.031006
440 0 1 4.995390 8.027754 813.854004
441 0 1 4.719440 8.497663 814.604004
442 0 1 4.586730 8.872427 815.515015
443 0 1 4.832570 9.054760 816.427002
444 0 1 4.833200 9.051550 817.356018
445 0 1 4.699390 8.816279 818.289001
446 0 1 4.492870 8.681828 819.228027
447 0 1 3.992860 8.563373 820.089966
448 0 1 3.156390 8.422247 820.614014
449 0 1 2.530460 8.237470 821.299988
450 0 1 2.152680 7.828090 822.057007
451 0 1 1.975780 7.381211 822.952026
452 0 1 2.071510 7.388725 823.929993
453 0 1 2.267920 7.262012 824.880981
454 0 1 2.287260 7.318072 825.870972
455 0 1 2.628830 6.987950 826.703003
456 0 1 2.760270 6.684390 827.645020
457 0 1 2.798450 6.596510 828.585022
458 0 1 3.042270 6.429230 829.447021
459 0 1 3.712870 6.135710 830.184021
460 0 1 4.401240 5.734460 830.723022
461 0 1 5.077760 5.285710 831.197021
462 0 1 5.651670 4.813900 831.812012
463 0 1 6.174990 4.637010 832.617981
464 0 1 6.504640 4.442270 833.500000
465 0 1 7.019770 4.599230 834.315979
466 0 1 7.628548 5.029090 834.945984
467 0 1 8.154074 5.693540 835.492004
468 0 1 8.681556 6.553770 835.585022
469 0 1 9.345119 7.232028 835.615967
470 0 1 9.998590 7.929371 835.565002
471 0 1 10.774190 8.453342 835.464966
472 0 1 11.437330 8.861983 834.950989
473 0 1 12.095100 9.412951 834.620972
474 0 1 12.761850 10.078420 834.252991
475 0 1 13.463950 10.601700 833.796997
476 0 1 13.765450 11.229470 833.020020
477 0 1 13.572411 11.521790 832.046021
478 0 1 13.453381 11.414560 831.080994
479 0 1 13.331390 11.034910 830.208984
480 0 1 13.022631 10.636850 829.412964
481 0 1 12.797649 10.109159 828.674011
482 0 1 12.664619 9.499350 827.914978
483 0 1 12.377080 8.969796 827.205994
484 0 1 12.101330 8.548609 826.457031
485 0 1 11.809090 8.159119 825.645020
486 0 1 11.457770 7.852613 824.739990
487 0 1 11.444410 7.552817 823.809021
488 0 1 11.710051 7.221009 822.906006
489 0 1 11.824160 7.191610 821.890015
490 0 1 11.958250 6.935180 821.028992
491 0 1 12.371370 6.617470 820.187988
492 0 1 12.671801 6.338230 819.299988
493 0 1 13.247540 6.203450 818.520996
494 0 1 13.641930 6.163150 817.575012
495 0 1 13.820570 6.052420 816.627014
496 0 1 13.947620 5.872670 815.726013
497 0 1 13.988831 5.622950 814.770020
498 0 1 14.017370 5.479750 813.859009
499 0 1 14.140380 5.417280 812.919006
500 0 1 14.069440 5.441220 812.036987
501 0 1 13.754829 5.132510 811.174988
502 0 1 13.466750 4.988540 810.223999
503 0 1 13.327890 4.915790 809.235962
504 0 1 13.253260 5.047000 808.283020
505 0 1 13.221570 5.154310 807.320007
506 0 1 13.395050 5.148650 806.382019
507 0 1 13.511021 5.017410 805.422974
508 0 1 13.269450 4.563590 804.521973
509 0 1 13.088449 4.181410 803.651978
510 0 1 12.802710 3.656330 802.927002
511 0 1 12.568649 3.010860 802.259033
512 0 1 12.370640 2.684690 801.370972
513 0 1 12.213329 2.548510 800.403015
514 0 1 12.120131 2.758390 799.481018
515 0 1 12.275050 3.156180 798.609009
516 0 1 12.307440 3.306000 797.669006
517 0 1 12.480200 3.451890 796.731018
518 0 1 12.466360 3.817230 795.889038
519 0 1 12.483271 4.507140 795.247009
520 0 1 12.840820 5.109030 794.533997
521 0 1 13.260691 5.608250 793.856018
522 0 1 13.553600 6.073370 793.065979
523 0 1 13.853720 6.645320 792.339966
524 0 1 14.026920 7.219842 791.653992
525 0 1 14.067739 7.941748 791.028015
526 0 1 14.006620 8.805538 790.609985
527 0 1 13.747540 9.486620 790.020996
528 0 1 13.498671 10.255720 789.523010
529 0 1 13.325911 10.860710 788.781982
530 0 1 13.153191 11.131440 787.879028
531 0 1 13.096300 11.228960 786.906006
532 0 1 12.739540 11.163589 786.000000
533 0 1 12.326410 10.939020 785.169983
534 0 1 11.613160 10.851670 784.453979
535 0 1 10.697770 10.674740 784.210022
536 0 1 9.868230 10.409940 783.716003
537 0 1 9.293910 10.186250 782.979980
538 0 1 8.525348 10.113470 782.445984
539 0 1 7.779685 10.319960 781.843994
540 0 1 7.231312 10.370871 781.062012
541 0 1 6.627030 11.009520 780.669983
542 0 1 5.851030 11.384530 780.281982
543 0 1 4.991570 11.665670 779.968994
544 0 1 4.222710 11.547940 779.372986
545 0 1 3.512430 11.242900 778.778992
546 0 1 3.086680 10.819430 778.059998
547 0 1 2.779700 10.438660 777.202026
548 0 1 2.688900 10.090190 776.307983
549 0 1 2.562000 10.102420 775.330994
550 0 1 2.619630 9.779490 774.471008
551 0 1 2.581950 9.509360 773.604004
552 0 1 2.227350 9.309560 772.744019
553 0 1 2.113920 9.040980 771.820984
554 0 1 1.712780 8.758801 770.937988
555 0 1 1.538550 8.555176 770.047974
556 0 1 1.472630 8.844518 769.114014
557 0 1 1.608620 9.052460 768.156982
558 0 1 1.641370 8.958799 767.190002
559 0 1 1.965300 8.861156 766.304016
560 0 1 2.436650 8.854227 765.463989
561 0 1 3.255220 9.022540 764.919983
562 0 1 4.074810 9.137300 764.322998
563 0 1 4.741380 9.522570 763.775024
564 0 1 5.453590 9.945020 763.341003
565 0 1 6.156380 10.150450 762.718018
566 0 1 6.734900 10.208120 761.974976
567 0 1 7.270980 10.095330 761.169983
568 0 1 7.355961 10.120880 760.213013
569 0 1 7.527179 9.909630 759.281982
570 0 1 7.910567 10.166470 758.408020
571 0 1 8.164229 10.531020 757.578979
572 0 1 8.573322 10.953040 756.757019
573 0 1 8.678711 11.215140 755.828979
574 0 1 9.145430 11.127541 754.973022
575 0 1 9.113120 11.330910 753.950989
576 0 1 9.177950 11.746580 753.054016
577 0 1 9.255880 11.914460 752.120972
578 0 1 9.340030 12.126310 751.169983
579 0 1 8.959675 11.933270 750.323975
580 0 1 8.605365 11.880580 749.348999
581 0 1 8.296138 11.601390 748.448975
582 0 1 7.848891 11.453270 747.622986
583 0 1 7.348172 11.249440 746.792969
584 0 1 6.852560 11.155710 746.020996
585 0 1 6.522090 10.839750 745.161987
586 0 1 6.428450 10.667490 744.202026
587 0 1 6.408870 10.534019 743.299011
588 0 1 6.371820 10.408660 742.237976
589 0 1 6.121050 10.186960 741.374023
590 0 1 5.880590 10.252970 740.453979
591 0 1 5.405050 10.311660 739.572021
592 0 1 4.984270 10.473949 738.750000
593 0 1 4.850480 10.632130 737.839966
594 0 1 4.631310 10.796400 736.924011
595 0 1 4.361740 10.833760 735.968994
596 0 1 4.217920 10.871440 734.937012
597 0 1 4.180070 10.765380 733.932983
598 0 1 3.966190 10.581900 733.015015
599 0 1 3.790090 10.420560 732.067017
600 0 1 3.700800 10.242400 731.138977
601 0 1 3.969330 10.279310 730.145020
602 0 1 4.289330 10.199039 729.197021
603 0 1 4.546110 10.078270 728.239685
604 0 1 4.465900 9.739670 727.318787
605 0 1 4.262560 9.628580 726.295410
606 0 1 4.230900 9.543190 725.316101
607 0 1 4.449900 9.161700 724.434387
608 0 1 4.685080 8.496389 723.783875
609 0 1 4.988530 8.043839 723.005371
610 0 1 5.043860 7.435537 722.213379
611 0 1 5.302940 6.856300 721.515869
612 0 1 5.642160 6.192770 720.824402
613 0 1 5.811760 5.632910 720.005676
614 0 1 6.267840 5.004980 719.378296
615 0 1 7.064265 4.777940 718.903503
616 0 1 7.924730 4.496110 718.633423
617 0 1 8.801051 4.428010 718.266174
618 0 1 9.721360 4.577270 718.063293
619 0 1 10.591110 4.652730 717.688293
620 0 1 11.379140 4.983920 717.317078
621 0 1 12.034980 5.356020 716.674011
622 0 1 12.662479 5.803540 716.094971
623 0 1 13.043360 6.363340 715.420288
624 0 1 13.081470 6.977670 714.719116
625 0 1 13.163010 7.491872 713.874390
626 0 1 13.029480 7.606486 712.940002
627 0 1 13.023390 7.837716 711.978882
628 0 1 12.918449 8.144923 711.076721
629 0 1 13.060471 8.723134 710.301392
630 0 1 13.169970 9.409070 709.589722
631 0 1 13.199680 10.180750 709.020020
632 0 1 13.311710 10.814730 708.229370
633 0 1 13.246400 11.457780 707.491516
634 0 1 13.083700 11.860430 706.660400
635 0 1 12.744830 12.026580 705.713806
636 0 1 12.334391 11.777060 704.925415
637 0 1 12.185190 11.453569 703.944885
638 0 1 12.193600 10.853849 703.201294
639 0 1 12.142040 10.234400 702.413696
640 0 1 12.233200 9.740790 701.569519
641 0 1 12.373040 9.616630 700.629028
642 0 1 12.529301 9.442420 699.695679
643 0 1 12.831680 9.634171 698.706482
644 0 1 13.067120 9.872250 697.838867
645 0 1 12.929630 9.792270 696.913086
646 0 1 12.863630 9.525620 695.958801
647 0 1 12.885530 9.338890 695.024597
648 0 1 12.896070 9.243030 694.057800
649 0 1 12.750290 9.099770 693.087402
650 0 1 12.479230 9.055070 692.175903
651 0 1 12.315559 8.870961 691.263000
652 0 1 12.235540 8.612794 690.261902
653 0 1 11.975420 8.265801 689.362793
654 0 1 11.903870 8.052781 688.449524
655 0 1 11.931499 7.966785 687.531921
656 0 1 11.903730 7.872001 686.555420
657 0 1 11.864260 7.688496 685.651917
658 0 1 11.810340 7.677048 684.715088
659 0 1 11.886250 7.745074 683.731506
660 0 1 11.802190 8.031870 682.845276
661 0 1 11.928530 8.305644 681.883484
662 0 1 12.061590 8.564736 681.032593
663 0 1 12.166250 8.623832 680.004700
664 0 1 12.273190 8.682864 679.025513
665 0 1 12.290010 8.321446 678.126404
666 0 1 12.562140 7.776024 677.320068
667 0 1 12.643330 7.312413 676.479614
668 0 1 12.270110 6.988760 675.606384
669 0 1 11.834300 6.593510 674.877075
670 0 1 11.257690 6.292530 674.182495
671 0 1 10.821199 5.681050 673.501709
672 0 1 10.306970 5.229060 672.786499
673 0 1 9.712320 4.912280 672.086609
674 0 1 9.366440 4.654430 671.249817
675 0 1 9.258500 4.299680 670.351501
676 0 1 8.885481 4.263290 669.438110
677 0 1 8.752837 4.368450 668.471375
678 0 1 8.612127 4.381550 667.520203
679 0 1 8.294026 4.296040 666.684509
680 0 1 7.952618 4.154360 665.831116
681 0 1 7.413751 3.890230 665.101807
682 0 1 6.816710 3.629400 664.417480
683 0 1 6.221420 3.101450 663.826599
684 0 1 5.422590 2.942840 663.350220
685 0 1 4.721290 2.944850 662.691101
686 0 1 4.457980 3.153920 661.822815
687 0 1 4.245560 3.469770 660.974182
688 0 1 4.039650 3.955580 660.200928
689 0 1 3.938010 4.428600 659.409180
690 0 1 3.850010 5.112900 658.710510
691 0 1 4.206630 5.439960 657.828186
692 0 1 4.522080 5.782370 656.984009
693 0 1 4.842580 5.999080 656.114990
694 0 1 5.440540 6.065370 655.355408
695 0 1 6.125690 6.202330 654.705383
696 0 1 6.436340 6.535120 653.849731
697 0 1 6.879750 6.947630 653.147217
698 0 1 6.993050 7.618824 652.529602
699 0 1 7.082725 8.328649 651.841675
700 0 1 7.004135 8.878616 651.088989
701 0 1 6.902740 9.282450 650.200989
702 0 1 6.816330 9.761860 649.309814
703 0 1 6.558550 10.164430 648.419800
704 0 1 6.290710 10.379090 647.478088
705 0 1 6.399510 10.074450 646.548523
706 0 1 6.362250 9.594620 645.648621
707 0 1 6.212930 9.189631 644.849304
708 0 1 6.006650 9.152360 643.850891
709 0 1 5.913450 9.290670 642.908203
710 0 1 5.623600 9.067390 642.044006
711 0 1 5.438160 8.709579 641.193909
712 0 1 5.249570 8.411280 640.253906
713 0 1 5.226380 8.168332 639.364075
714 0 1 4.945690 8.112056 638.417786
715 0 1 4.710500 7.974640 637.510132
716 0 1 4.531470 7.592366 636.629028
717 0 1 4.336560 7.145660 635.763672
718 0 1 4.077250 6.626550 634.945984
719 0 1 3.939340 6.404350 634.066772
720 0 1 4.185570 5.985490 633.205139
721 0 1 4.617790 5.579040 632.420227
722 0 1 5.033010 5.286310 631.624939
723 0 1 5.570530 4.837520 630.802124
724 0 1 5.913090 4.842660 629.957458
725 0 1 6.390280 5.012570 629.144958
726 0 1 6.876520 4.968400 628.354309
727 0 1 7.031122 4.756710 627.402161
728 0 1 7.444608 4.749750 626.481995
729 0 1 7.598482 4.743390 625.546692
730 0 1 8.005462 4.676850 624.689209
731 0 1 8.616460 4.608430 623.987732
732 0 1 8.897142 4.451640 623.012817
733 0 1 9.346920 4.686060 622.147949
734 0 1 9.834030 5.098780 621.400024
735 0 1 10.182500 5.352560 620.508850
736 0 1 10.210660 5.481910 619.584290
737 0 1 10.317699 5.625840 618.653931
738 0 1 10.492620 5.568780 617.657410
739 0 1 10.539870 5.481040 616.729919
740 0 1 10.303101 5.318790 615.816711
741 0 1 9.832270 5.166010 615.014587
742 0 1 9.237570 4.735100 614.299683
743 0 1 8.489537 4.637150 613.742981
744 0 1 7.648978 4.534990 613.217285
745 0 1 7.118625 4.472620 612.438904
746 0 1 6.682170 4.498420 611.565491
747 0 1 6.127660 4.843560 610.846069
748 0 1 5.798440 5.111100 610.003784
749 0 1 5.813710 5.561420 609.172791
750 0 1 5.815990 5.744120 608.157593
751 0 1 5.878720 5.866650 607.193420
752 0 1 5.824230 5.955700 606.208313
753 0 1 5.801670 6.385300 605.379211
754 0 1 5.691380 6.840200 604.507812
755 0 1 5.674300 7.198760 603.580383
756 0 1 5.606550 7.444184 602.650391
757 0 1 5.639760 7.505491 601.673584
758 0 1 5.543910 7.860172 600.741272
759 0 1 5.273000 7.793371 599.830627
760 0 1 4.984070 7.809786 598.933899
761 0 1 4.775260 8.279985 598.149902
762 0 1 4.613790 8.672592 597.335022
763 0 1 4.320920 9.153830 596.557617
764 0 1 4.185220 9.461800 595.630188
765 0 1 4.312670 9.680540 594.676575
766 0 1 4.144030 9.496210 593.674072
767 0 1 4.049180 9.328090 592.703308
768 0 1 3.892230 9.400249 591.745728
769 0 1 3.822620 9.002430 590.825623
770 0 1 3.768110 8.662643 589.810669
771 0 1 3.535590 8.386064 588.932129
772 0 1 3.444190 8.072286 588.063110
773 0 1 3.498270 8.298141 587.117310
774 0 1 3.749820 8.678664 586.201416
775 0 1 3.605490 8.724234 585.298828
776 0 1 3.602140 8.656834 584.359192
777 0 1 4.026360 8.493960 583.497620
778 0 1 4.322980 8.741098 582.553772
779 0 1 4.362220 9.265420 581.782898
780 0 1 3.989910 9.577410 580.921875
781 0 1 3.594830 10.078070 580.224487
782 0 1 3.205700 10.748140 579.582092
783 0 1 2.779280 11.372890 579.047791
784 0 1 2.695910 11.825090 578.232727
785 0 1 2.552010 12.041389 577.328979
786 0 1 2.754200 12.322810 576.419495
787 0 1 3.132140 12.643539 575.630920
788 0 1 3.439800 12.970310 574.804993
789 0 1 3.796860 12.784870 573.979675