LAMMPS data file via MDAnalysis

        1000  atoms
        1000  bonds
        1000  angles
           0  dihedrals
           0  impropers

           1  atom types
           1  bond types
           1  angle types
           0  dihedral types
           0  improper types

0.000000 16.000000 xlo xhi
0.000000 16.000000 ylo yhi
0.000000 1257.000000 zlo zhi


Masses

1 1.000000

Atoms

1 0 1 11.526160 10.516080 482.792999
2 0 1 11.213930 10.388260 483.710999
3 0 1 11.271720 10.393720 484.729004
4 0 1 11.237260 10.384000 485.734009
5 0 1 10.829000 10.782370 486.523010
6 0 1 10.475861 11.150351 487.395996
7 0 1 10.317360 11.358290 488.299011
8 0 1 10.140490 11.520950 489.250000
9 0 1 9.844160 11.897130 490.042999
10 0 1 9.931460 12.170540 490.971008
11 0 1 10.080100 12.152760 491.937988
12 0 1 10.150620 12.197470 492.964996
13 0 1 9.886830 12.297580 493.921021
14 0 1 9.489180 12.500040 494.822998
15 0 1 9.082530 12.675020 495.643005
16 0 1 8.964268 12.634890 496.587006
17 0 1 8.775181 12.624800 497.510986
18 0 1 8.676353 12.588830 498.450989
19 0 1 8.294747 12.906940 499.322998
20 0 1 8.071323 13.440620 500.093018
21 0 1 7.853752 14.094940 500.794983
22 0 1 7.507142 14.251380 501.692993
23 0 1 7.383811 14.294240 502.639008
24 0 1 7.258266 14.471420 503.593018
25 0 1 7.276759 14.664770 504.548004
26 0 1 7.249106 14.613000 505.468994
27 0 1 7.241052 14.596830 506.472992
28 0 1 7.447047 14.476120 507.438995
29 0 1 7.449470 14.403339 508.412994
30 0 1 7.386160 14.565630 509.390991
31 0 1 7.310272 14.563169 510.401001
32 0 1 7.332681 14.698870 511.311005
33 0 1 7.532213 14.355750 512.280029
34 0 1 7.532105 13.981070 513.221008
35 0 1 7.666614 13.319719 513.913025
36 0 1 7.663844 12.576190 514.487000
37 0 1 7.650463 11.740320 515.059021
38 0 1 7.744725 10.971390 515.687012
39 0 1 8.037201 10.450280 516.437988
40 0 1 8.652153 9.962910 516.922974
41 0 1 9.404960 9.549580 517.375000
42 0 1 10.242080 9.177610 517.658997
43 0 1 10.988480 8.862355 518.124023
44 0 1 11.668080 8.739153 518.887024
45 0 1 12.094891 8.590246 519.739990
46 0 1 12.449730 8.282843 520.585022
47 0 1 12.982970 8.081034 521.343994
48 0 1 13.312389 8.126919 522.276978
49 0 1 13.109650 8.311301 523.221985
50 0 1 12.717609 8.719868 524.009033
51 0 1 12.509330 9.260139 524.737000
52 0 1 12.126070 9.609340 525.497009
53 0 1 11.635130 9.443550 526.302979
54 0 1 11.355040 9.134510 527.153015
55 0 1 11.050030 8.668193 527.953979
56 0 1 10.631930 8.256722 528.784180
57 0 1 10.348980 7.926290 529.638611
58 0 1 10.013900 7.532883 530.434875
59 0 1 10.145100 7.048731 531.246582
60 0 1 10.495760 6.672770 532.039307
61 0 1 10.559790 6.445020 532.937195
62 0 1 10.548220 6.411850 533.915588
63 0 1 10.488689 6.126130 534.838074
64 0 1 10.425700 5.991380 535.838684
65 0 1 10.299800 5.890870 536.796997
66 0 1 10.226060 5.593840 537.704407
67 0 1 10.293410 5.662920 538.642700
68 0 1 10.329180 5.854180 539.599609
69 0 1 10.231650 6.103480 540.515869
70 0 1 10.186930 6.202750 541.467590
71 0 1 10.146320 6.382770 542.494202
72 0 1 10.420740 6.452800 543.413879
73 0 1 10.728430 6.533360 544.363770
74 0 1 10.957530 6.510680 545.275085
75 0 1 11.259180 6.344420 546.215210
76 0 1 11.369610 6.348200 547.150208
77 0 1 11.584830 6.351950 548.096375
78 0 1 11.953381 6.300300 549.023682
79 0 1 12.170660 6.232760 549.954712
80 0 1 12.475110 5.911820 550.884583
81 0 1 12.573629 5.651450 551.820190
82 0 1 12.721690 5.150480 552.640076
83 0 1 12.784990 4.656200 553.459778
84 0 1 12.621490 4.308840 554.332092
85 0 1 12.407940 3.973550 555.253906
86 0 1 12.250080 3.732400 556.122681
87 0 1 12.338840 3.668690 557.088196
88 0 1 11.983330 4.090010 557.921997
89 0 1 11.717940 4.637720 558.718872
90 0 1 11.466440 5.095790 559.544922
91 0 1 10.920130 5.530670 560.190002
92 0 1 10.199550 5.754950 560.777588
93 0 1 9.538880 5.997210 561.441406
94 0 1 8.998834 6.562690 561.952393
95 0 1 8.470093 7.102612 562.592712
96 0 1 7.899351 7.855952 562.970398
97 0 1 7.794765 8.719790 563.333679
98 0 1 7.615612 9.571040 563.751221
99 0 1 7.608299 10.333390 564.276184
100 0 1 7.652788 11.062350 564.904785
101 0 1 7.415316 11.451560 565.739624
102 0 1 7.228627 11.690680 566.663208
103 0 1 6.977460 11.888320 567.606812
104 0 1 6.850790 12.372931 568.471680
105 0 1 6.713400 12.772409 569.325623
106 0 1 6.623980 13.135640 570.195312
107 0 1 6.571470 13.227680 571.179016
108 0 1 6.257290 12.998700 572.043274
109 0 1 5.883880 12.868470 572.849426
110 0 1 5.561650 12.627171 573.700195
111 0 1 5.221510 12.199921 574.507080
112 0 1 5.055870 11.968840 575.469971
113 0 1 4.817100 11.604140 576.302368
114 0 1 4.434830 11.202690 577.123169
115 0 1 3.974360 10.820240 577.839783
116 0 1 3.462320 10.475719 578.513977
117 0 1 2.912640 9.829480 579.083618
118 0 1 2.655770 9.439600 580.011902
119 0 1 2.687540 9.123490 580.892822
120 0 1 2.608740 9.023680 581.858887
121 0 1 2.495340 9.034600 582.794128
122 0 1 2.070570 8.901225 583.739014
123 0 1 2.217530 9.096540 584.694824
124 0 1 2.481730 9.248010 585.587219
125 0 1 2.642700 9.501840 586.541504
126 0 1 2.906170 9.427430 587.481506
127 0 1 3.097850 9.381430 588.387695
128 0 1 3.096080 9.397779 589.441895
129 0 1 3.099770 9.735080 590.348022
130 0 1 3.378720 10.253010 591.205811
131 0 1 3.498690 10.914061 591.833008
132 0 1 3.665460 11.645960 592.452271
133 0 1 3.801090 12.151711 593.257874
134 0 1 4.153680 12.680930 593.999695
135 0 1 4.575120 13.290770 594.608032
136 0 1 4.966860 13.635170 595.445984
137 0 1 4.981190 13.913850 596.384277
138 0 1 5.172280 13.991280 597.293091
139 0 1 4.986450 13.985400 598.259827
140 0 1 5.072310 14.171740 599.140869
141 0 1 5.098590 14.242250 600.081421
142 0 1 5.302340 14.378110 601.019775
143 0 1 5.329210 14.286720 601.977417
144 0 1 5.330460 14.138790 602.953369
145 0 1 5.006090 13.914920 603.853027
146 0 1 4.814120 13.802390 604.758484
147 0 1 4.738920 13.797609 605.711121
148 0 1 4.709690 13.746300 606.732483
149 0 1 4.810210 13.320230 607.593201
150 0 1 5.277570 12.709320 608.270813
151 0 1 5.532350 11.961390 608.855103
152 0 1 5.548770 11.194730 609.306213
153 0 1 5.850980 10.444190 609.929626
154 0 1 6.312870 9.801770 610.510315
155 0 1 6.622280 9.029800 610.976501
156 0 1 7.076043 8.246370 611.247803
157 0 1 7.522066 7.508769 611.727600
158 0 1 7.904552 6.617370 611.974182
159 0 1 8.209596 5.769540 612.332275
160 0 1 8.389375 5.086950 612.964172
161 0 1 8.483779 4.385060 613.581116
162 0 1 8.955523 3.834830 614.123901
163 0 1 9.451890 3.292940 614.746094
164 0 1 9.798370 2.615880 615.334778
165 0 1 10.187680 2.218380 616.082397
166 0 1 10.480690 1.843990 616.991882
167 0 1 10.390850 1.786590 617.930298
168 0 1 10.443550 2.004600 618.819641
169 0 1 10.679710 1.982890 619.792175
170 0 1 10.972480 1.883270 620.705383
171 0 1 11.113310 1.854710 621.684021
172 0 1 11.179860 2.126900 622.616943
173 0 1 11.087650 2.160850 623.541382
174 0 1 11.044540 2.175430 624.467346
175 0 1 10.866110 2.077040 625.382446
176 0 1 10.508369 2.106040 626.285034
177 0 1 10.232050 2.223700 627.283875
178 0 1 9.875150 2.291300 628.239746
179 0 1 9.509270 2.680500 629.016235
180 0 1 9.438910 2.835690 629.974243
181 0 1 9.188850 3.050610 630.904602
182 0 1 9.038200 2.996770 631.902466
183 0 1 8.905857 3.363830 632.804382
184 0 1 8.735931 3.289050 633.729736
185 0 1 8.490143 3.476570 634.601624
186 0 1 8.173826 3.786970 635.464600
187 0 1 7.848256 3.712000 636.357666
188 0 1 7.330816 4.072150 637.159241
189 0 1 6.879020 4.395730 637.990356
190 0 1 6.581460 4.761490 638.815613
191 0 1 6.515120 5.140980 639.664978
192 0 1 6.453030 5.177490 640.600403
193 0 1 6.404890 5.244030 641.579285
194 0 1 6.382820 5.008200 642.533020
195 0 1 6.280660 4.652170 643.365479
196 0 1 6.387460 4.563850 644.342712
197 0 1 6.517680 4.694040 645.291016
198 0 1 6.697830 4.861810 646.295776
199 0 1 7.181401 4.666330 647.182983
200 0 1 7.517629 4.719530 648.077209
201 0 1 7.977444 4.557810 648.928284
202 0 1 8.549109 4.313170 649.665710
203 0 1 8.941310 4.177060 650.545410
204 0 1 9.475030 4.028700 651.318420
205 0 1 9.828780 3.666600 652.164001
206 0 1 10.131250 3.555780 653.035889
207 0 1 10.169000 3.529400 654.028198
208 0 1 10.022890 3.722560 654.959595
209 0 1 9.657030 3.546960 655.909729
210 0 1 9.210070 3.552700 656.723511
211 0 1 9.140980 3.584100 657.702209
212 0 1 8.876536 3.676220 658.585876
213 0 1 8.736732 3.732980 659.507385
214 0 1 8.442332 4.023220 660.374817
215 0 1 8.290344 4.546950 661.232117
216 0 1 8.132409 5.055660 662.029114
217 0 1 8.044518 5.359680 662.860229
218 0 1 7.792589 5.604980 663.723328
219 0 1 7.505005 5.711050 664.688477
220 0 1 7.169062 6.190610 665.525513
221 0 1 6.662860 6.547690 666.219971
222 0 1 6.114420 6.895940 666.954895
223 0 1 5.739970 7.174254 667.824890
224 0 1 5.504900 7.760813 668.599976
225 0 1 5.247410 8.384052 669.295776
226 0 1 5.096280 8.909811 670.023193
227 0 1 4.883730 9.195490 670.981079
228 0 1 4.563810 9.290600 671.881897
229 0 1 4.412770 9.072430 672.767883
230 0 1 4.462210 8.843082 673.718811
231 0 1 5.031010 8.566219 674.484802
232 0 1 5.480790 8.187983 675.271179
233 0 1 5.745450 7.580136 675.995422
234 0 1 6.033040 6.869310 676.581909
235 0 1 6.582690 6.346780 677.187378
236 0 1 6.938390 5.693670 677.777893
237 0 1 7.305963 4.968990 678.263000
238 0 1 7.635272 4.311420 678.872009
239 0 1 8.008467 3.613150 679.413513
240 0 1 8.462509 3.168940 680.108826
241 0 1 8.999687 2.535900 680.545593
242 0 1 9.410940 2.235220 681.354126
243 0 1 9.813560 2.523580 682.192871
244 0 1 10.163900 2.855940 683.036682
245 0 1 10.308150 3.208310 683.903809
246 0 1 10.209870 3.786330 684.697815
247 0 1 10.122920 4.289980 685.475586
248 0 1 10.261560 4.700630 686.364685
249 0 1 10.729760 5.038340 687.172974
250 0 1 11.075390 5.240280 688.078308
251 0 1 11.455370 5.532380 688.909790
252 0 1 11.759580 5.916820 689.760315
253 0 1 11.757410 6.191460 690.714294
254 0 1 11.685050 6.518600 691.583984
255 0 1 11.591240 6.955880 692.461609
256 0 1 11.195480 7.299365 693.283813
257 0 1 11.134930 7.909228 694.012512
258 0 1 11.128480 8.308050 694.930786
259 0 1 10.813100 8.582785 695.789124
260 0 1 10.147270 8.615442 696.562500
261 0 1 9.819510 8.512430 697.552185
262 0 1 9.311831 8.601501 698.401611
263 0 1 8.955906 8.834776 699.263794
264 0 1 8.699352 9.152570 700.109924
265 0 1 8.074977 9.513210 700.702881
266 0 1 7.612627 9.667930 701.565308
267 0 1 7.222180 9.913910 702.406006
268 0 1 6.856830 10.186410 703.275818
269 0 1 6.554820 10.389360 704.194275
270 0 1 6.442850 10.446120 705.108521
271 0 1 6.150120 10.534170 706.025696
272 0 1 5.945490 10.353090 706.905273
273 0 1 5.768050 10.380730 707.837280
274 0 1 5.700500 10.575030 708.801697
275 0 1 5.693750 11.021920 709.685608
276 0 1 5.625980 11.652180 710.386475
277 0 1 5.423370 12.094990 711.175110
278 0 1 5.289860 12.418520 712.052002
279 0 1 5.544800 12.594030 712.940796
280 0 1 5.937090 12.879400 713.785706
281 0 1 6.330350 13.136450 714.625183
282 0 1 6.762310 13.378480 715.411804
283 0 1 6.921040 13.325090 716.356079
284 0 1 7.010913 13.294390 717.330505
285 0 1 7.075618 13.482370 718.214294
286 0 1 7.394506 13.838699 719.068115
287 0 1 7.545735 14.261311 719.935974
288 0 1 7.732435 14.326670 720.930481
289 0 1 7.845175 14.310780 721.865601
290 0 1 7.791926 14.172810 722.890381
291 0 1 7.524924 14.048070 723.800720
292 0 1 7.473830 13.820110 724.714111
293 0 1 7.675717 13.663110 725.702515
294 0 1 7.718528 13.443010 726.606201
295 0 1 7.702941 13.382380 727.580017
296 0 1 7.450465 13.372730 728.536987
297 0 1 7.070665 13.311520 729.393982
298 0 1 6.862890 13.401440 730.359009
299 0 1 6.711340 13.318621 731.276001
300 0 1 6.530030 12.964760 732.135010
301 0 1 6.384940 12.515480 732.966003
302 0 1 6.373200 12.215981 733.869019
303 0 1 6.462990 11.654960 734.745972
304 0 1 6.527020 10.908930 735.270996
305 0 1 6.651400 10.376960 736.041016
306 0 1 6.531020 9.906440 736.953979
307 0 1 6.023970 9.319890 737.643005
308 0 1 5.724060 8.613366 738.203979
309 0 1 5.511380 8.019862 738.976990
310 0 1 5.446270 7.556475 739.817017
311 0 1 5.517920 6.817000 740.380005
312 0 1 5.523210 6.176970 741.106018
313 0 1 5.468100 5.571500 741.807983
314 0 1 5.693620 4.953370 742.567017
315 0 1 6.036680 4.359140 743.205017
316 0 1 6.480150 3.977130 743.992004
317 0 1 7.244409 3.541090 744.509033
318 0 1 7.922359 3.236890 745.106018
319 0 1 8.394174 2.937440 745.872009
320 0 1 9.083740 2.796660 746.544006
321 0 1 9.613540 2.785020 747.309021
322 0 1 10.294680 3.014180 747.968994
323 0 1 10.958260 3.148610 748.658997
324 0 1 11.650360 3.287640 749.364990
325 0 1 12.237970 3.650950 750.035034
326 0 1 12.792000 3.827550 750.820007
327 0 1 13.215450 4.011710 751.697998
328 0 1 13.353570 4.283540 752.588989
329 0 1 13.404830 4.574660 753.500000
330 0 1 13.359529 4.888100 754.466003
331 0 1 13.254430 5.153660 755.377014
332 0 1 13.394410 5.408770 756.304016
333 0 1 13.530090 6.068770 756.968994
334 0 1 13.155550 6.603800 757.692993
335 0 1 12.856030 7.058077 758.525024
336 0 1 12.696360 7.578520 759.333008
337 0 1 12.794240 8.192137 760.096985
338 0 1 12.885230 8.662454 760.962036
339 0 1 13.129440 9.066360 761.799988
340 0 1 13.474060 9.618100 762.570007
341 0 1 13.844740 10.221310 763.260986
342 0 1 13.966850 10.519870 764.177979
343 0 1 13.934950 10.843019 765.046021
344 0 1 13.790051 10.993910 766.015991
345 0 1 13.547570 11.136311 766.929016
346 0 1 13.361300 11.243310 767.828003
347 0 1 13.059690 11.175159 768.708984
348 0 1 12.734640 10.752120 769.549988
349 0 1 12.570721 10.495359 770.427979
350 0 1 12.268080 10.381160 771.307983
351 0 1 12.098619 10.337190 772.247009
352 0 1 11.714530 10.373180 773.156006
353 0 1 11.331690 10.243330 774.026978
354 0 1 10.984631 10.114780 774.976990
355 0 1 10.798970 10.011700 775.856995
356 0 1 10.469430 10.007910 776.812988
357 0 1 9.931660 9.782840 777.625000
358 0 1 9.271980 9.511770 778.296997
359 0 1 8.677334 9.656100 779.044006
360 0 1 8.159674 9.748440 779.822998
361 0 1 7.673841 9.955390 780.620972
362 0 1 7.342994 10.219700 781.455994
363 0 1 6.892210 10.552720 782.234985
364 0 1 6.689870 11.022520 783.063965
365 0 1 6.525330 11.323990 783.952026
366 0 1 6.433450 11.256741 784.890015
367 0 1 6.174910 11.141840 785.799011
368 0 1 6.205360 11.133640 786.785034
369 0 1 6.200750 11.092630 787.734009
370 0 1 6.291200 11.048690 788.651001
371 0 1 6.124850 11.049020 789.646973
372 0 1 5.780940 11.281160 790.533997
373 0 1 5.772340 11.480430 791.485962
374 0 1 5.787020 11.520679 792.400024
375 0 1 5.562240 11.761020 793.322998
376 0 1 5.213210 11.921670 794.210999
377 0 1 5.152520 11.815460 795.119019
378 0 1 5.307730 11.616330 796.059998
379 0 1 5.162300 11.324180 796.952026
380 0 1 4.974260 10.888340 797.757019
381 0 1 5.164740 10.548600 798.630005
382 0 1 5.129730 9.886170 799.358032
383 0 1 5.150450 9.142070 799.950989
384 0 1 5.215460 8.487731 800.672974
385 0 1 5.079510 7.710058 801.276001
386 0 1 5.251930 7.010054 801.932983
387 0 1 5.164570 6.569780 802.827026
388 0 1 5.190990 6.172740 803.723999
389 0 1 5.156930 6.118430 804.646973
390 0 1 5.359500 6.018740 805.614014
391 0 1 5.776990 5.928500 806.533020
392 0 1 6.100220 5.486280 807.417969
393 0 1 6.217720 4.941280 808.216003
394 0 1 6.028470 4.610830 809.109985
395 0 1 5.925100 4.779990 810.005981
396 0 1 5.917490 4.766570 811.004028
397 0 1 5.990460 4.947000 811.964966
398 0 1 6.197890 5.315740 812.911011
399 0 1 6.095800 5.732500 813.738037
400 0 1 5.847780 6.174440 814.617981
401 0 1 5.557400 6.568710 815.450012
402 0 1 5.715990 7.113689 816.263000
403 0 1 5.949640 7.767662 816.867981
404 0 1 6.117500 8.554700 817.354004
405 0 1 6.228350 9.305010 817.919983
406 0 1 6.471630 10.091530 818.494019
407 0 1 6.446930 10.815110 819.153992
408 0 1 6.703520 11.426929 819.838013
409 0 1 6.858200 11.811501 820.721008
410 0 1 7.054115 12.307540 821.528015
411 0 1 7.254479 12.991420 822.276978
412 0 1 7.488091 13.454980 823.088989
413 0 1 7.990028 13.569901 823.963989
414 0 1 8.290744 13.926490 824.874023
415 0 1 8.532525 13.817450 825.766968
416 0 1 8.508169 13.973010 826.764038
417 0 1 8.709529 14.058880 827.686035
418 0 1 8.580828 14.364640 828.518005
419 0 1 8.413795 14.537530 829.494019
420 0 1 8.252535 14.284121 830.414978
421 0 1 8.431305 13.821990 831.252014
422 0 1 8.744774 13.561860 832.136963
423 0 1 9.090770 13.196870 832.895996
424 0 1 9.407420 12.741119 833.726013
425 0 1 9.707790 12.148410 834.421021
426 0 1 10.011100 11.724080 835.234985
427 0 1 10.668570 11.156030 835.635986
428 0 1 10.840010 10.272039 835.926025
429 0 1 10.954670 9.335130 835.723022
430 0 1 11.173870 8.389833 835.458008
431 0 1 11.147680 7.579167 835.015991
432 0 1 10.848750 6.752680 834.547974
433 0 1 10.720881 6.065590 833.905029
434 0 1 10.806150 5.471650 833.153992
435 0 1 10.718630 4.963570 832.395996
436 0 1 10.569220 4.367200 831.658020
437 0 1 10.425770 3.717940 830.877014
438 0 1 10.288500 3.198670 830.042969
439 0 1 10.236620 2.928020 829.067993
440 0 1 9.903811 3.099700 828.136963
441 0 1 9.406160 3.269930 827.317017
442 0 1 9.115840 3.712520 826.561035
443 0 1 9.016930 4.189110 825.744995
444 0 1 8.930437 4.765130 824.966003
445 0 1 8.849332 5.239580 824.161011
446 0 1 9.082690 5.751540 823.414978
447 0 1 9.307190 6.321630 822.674011
448 0 1 9.478970 6.770810 821.791016
449 0 1 9.375520 6.968400 820.801025
450 0 1 9.363420 7.248863 819.877991
451 0 1 9.457650 7.480484 819.036011
452 0 1 9.412400 7.682684 818.033997
453 0 1 9.417760 7.776383 817.101013
454 0 1 9.436060 8.133033 816.244995
455 0 1 9.381770 8.704777 815.526001
456 0 1 9.108550 9.246250 814.809998
457 0 1 8.860986 9.903880 814.177002
458 0 1 8.496948 10.612700 813.656006
459 0 1 7.933773 11.109900 813.042969
460 0 1 7.359889 11.303650 812.294006
461 0 1 7.088234 11.190530 811.346008
462 0 1 7.334315 11.107700 810.389038
463 0 1 7.446610 10.930190 809.453003
464 0 1 7.679305 11.280180 808.640015
465 0 1 7.838096 11.579050 807.747009
466 0 1 7.846639 11.514090 806.781006
467 0 1 7.922915 11.394140 805.849976
468 0 1 8.004134 11.163430 804.917969
469 0 1 7.990188 10.911690 804.020020
470 0 1 8.069899 10.864230 803.065979
471 0 1 7.962890 10.738350 802.114990
472 0 1 7.832497 10.688030 801.093018
473 0 1 8.183909 10.405630 800.278015
474 0 1 8.407920 9.840090 799.608032
475 0 1 8.588653 9.344110 798.734009
476 0 1 8.378939 9.173250 797.828979
477 0 1 8.107893 9.148730 796.895996
478 0 1 7.860946 9.278830 795.989990
479 0 1 7.658419 9.259830 795.016968
480 0 1 7.692495 9.406070 794.077026
481 0 1 7.559896 9.283430 793.156006
482 0 1 7.827158 9.237440 792.234009
483 0 1 8.095718 9.293221 791.320984
484 0 1 8.463063 9.630950 790.443970
485 0 1 8.878080 10.099590 789.759033
486 0 1 9.394120 10.465060 788.960999
487 0 1 9.690160 10.810220 788.150024
488 0 1 10.068769 11.175210 787.309021
489 0 1 10.273410 11.531570 786.396973
490 0 1 10.560080 12.091530 785.639038
491 0 1 10.606100 12.300910 784.752991
492 0 1 10.907391 12.525320 783.843994
493 0 1 11.129630 12.685881 782.916992
494 0 1 11.397090 12.951099 782.070007
495 0 1 11.488689 13.140640 781.083008
496 0 1 11.459800 13.073050 780.103027
497 0 1 11.167140 12.844790 779.228027
498 0 1 10.988050 12.625560 778.339966
499 0 1 11.016920 12.580500 777.372009
500 0 1 10.937540 12.653811 776.388000
501 0 1 10.855110 12.988979 775.489990
502 0 1 10.353770 13.163080 774.714966
503 0 1 10.251699 13.241020 773.733032
504 0 1 9.995540 13.472160 772.854980
505 0 1 9.745300 13.518061 771.953979
506 0 1 9.350120 13.611560 771.106018
507 0 1 8.687642 13.704610 770.390991
508 0 1 7.979720 13.840350 769.739014
509 0 1 7.252513 13.683400 768.995972
510 0 1 6.606090 13.616910 768.296997
511 0 1 5.863780 13.337770 767.744019
512 0 1 5.174380 12.907530 767.283020
513 0 1 4.635880 12.512060 766.525024
514 0 1 4.188090 12.420270 765.610962
515 0 1 3.815830 12.113900 764.737000
516 0 1 3.612420 11.893480 763.830017
517 0 1 3.420000 12.062799 762.932983
518 0 1 3.311720 12.101580 762.025024
519 0 1 3.296720 12.289450 761.046021
520 0 1 3.525850 12.980949 760.408020
521 0 1 3.851840 13.359030 759.585999
522 0 1 4.249680 13.668500 758.697998
523 0 1 4.650000 13.812710 757.817993
524 0 1 4.930690 13.646720 756.890015
525 0 1 5.132200 13.619350 755.992004
526 0 1 5.009000 13.386539 755.018005
527 0 1 5.296610 12.827150 754.255981
528 0 1 5.591160 12.802509 753.263977
529 0 1 5.661510 12.457460 752.333008
530 0 1 5.498660 12.077789 751.492981
531 0 1 5.654640 11.537630 750.723999
532 0 1 5.706380 10.683580 750.171997
533 0 1 5.929730 9.759320 749.913025
534 0 1 6.080120 8.909204 749.495972
535 0 1 6.269330 8.266127 748.801025
536 0 1 6.440330 7.723214 748.062012
537 0 1 6.882500 7.186716 747.325012
538 0 1 7.144573 6.820370 746.437012
539 0 1 7.235775 6.693420 745.531982
540 0 1 7.392537 6.470830 744.492981
541 0 1 7.421735 5.859280 743.734985
542 0 1 7.416243 5.197120 743.078979
543 0 1 7.509928 4.757300 742.276978
544 0 1 7.729599 4.479350 741.367981
545 0 1 7.966610 4.246130 740.455017
546 0 1 8.132541 4.096170 739.536987
547 0 1 8.283371 3.817040 738.679993
548 0 1 8.504500 3.658290 737.719971
549 0 1 8.721592 3.576800 736.759033
550 0 1 8.989705 3.738490 735.879028
551 0 1 9.475740 3.914050 735.033997
552 0 1 9.764290 4.126660 734.108032
553 0 1 10.018740 4.301880 733.216003
554 0 1 10.567841 4.296290 732.341980
555 0 1 11.037630 4.584580 731.562988
556 0 1 11.174720 4.643990 730.646973
557 0 1 11.391760 4.464850 729.682007
558 0 1 11.549610 4.549410 728.739014
559 0 1 11.760090 4.792600 727.789185
560 0 1 11.781170 4.978760 726.829590
561 0 1 11.466610 5.134630 725.908997
562 0 1 11.188860 5.324420 725.001099
563 0 1 11.102551 5.743970 724.174316
564 0 1 11.217550 6.242360 723.346924
565 0 1 11.016620 6.719110 722.559875
566 0 1 10.852300 7.338084 721.869019
567 0 1 10.799720 7.960907 721.160278
568 0 1 10.555550 8.485944 720.423828
569 0 1 10.707510 8.887220 719.578613
570 0 1 10.882330 8.779784 718.701904
571 0 1 10.988520 8.753139 717.737976
572 0 1 10.872030 8.869081 716.762207
573 0 1 10.897640 8.450259 715.833496
574 0 1 10.970840 8.105168 714.932983
575 0 1 11.078910 7.790798 714.019531
576 0 1 11.172580 7.275351 713.130127
577 0 1 11.360380 6.701540 712.441772
578 0 1 11.499820 6.416520 711.508118
579 0 1 11.512080 6.444420 710.541687
580 0 1 11.367710 6.281960 709.589600
581 0 1 11.560870 6.091930 708.702087
582 0 1 11.818680 5.880900 707.731689
583 0 1 12.101530 5.788380 706.849915
584 0 1 12.320601 5.903890 705.915710
585 0 1 12.344570 5.946030 704.960693
586 0 1 12.459940 6.085770 704.058716
587 0 1 12.665550 5.987870 703.132324
588 0 1 12.603041 6.024390 702.076782
589 0 1 12.559930 5.755690 701.143616
590 0 1 12.580891 5.202190 700.289795
591 0 1 12.638750 4.680410 699.399170
592 0 1 12.790390 4.371340 698.497620
593 0 1 12.875731 4.236930 697.469116
594 0 1 13.163540 4.069690 696.586609
595 0 1 13.113770 3.781620 695.657410
596 0 1 13.084330 3.548630 694.688599
597 0 1 12.955650 3.419610 693.754578
598 0 1 12.901360 3.352860 692.773376
599 0 1 12.794519 3.479210 691.805176
600 0 1 12.616040 3.750410 690.870972
601 0 1 12.769159 4.215380 690.052002
602 0 1 12.695630 4.928050 689.340820
603 0 1 12.608110 5.695120 688.755981
604 0 1 12.895161 6.185240 687.987671
605 0 1 12.921539 6.663010 687.174316
606 0 1 12.782770 6.917860 686.296021
607 0 1 12.719920 7.112238 685.366028
608 0 1 12.846519 7.159540 684.403503
609 0 1 13.079290 6.823460 683.468384
610 0 1 13.133690 6.410630 682.603882
611 0 1 13.092780 6.177120 681.675171
612 0 1 13.118390 5.957220 680.738098
613 0 1 13.144990 5.781640 679.761230
614 0 1 13.071500 5.742630 678.778076
615 0 1 12.985889 5.659650 677.816528
616 0 1 12.802430 5.507280 676.897705
617 0 1 12.908740 5.339590 675.974121
618 0 1 13.037479 5.079380 675.090820
619 0 1 12.892740 5.012430 674.102600
620 0 1 12.512830 5.071090 673.204712
621 0 1 12.300290 5.160260 672.248474
622 0 1 12.227921 5.319840 671.284973
623 0 1 12.282249 5.514930 670.360779
624 0 1 11.948410 5.891480 669.535706
625 0 1 11.639950 6.177880 668.598328
626 0 1 11.628480 6.214660 667.607300
627 0 1 11.581730 6.206260 666.544495
628 0 1 11.348010 6.410400 665.633423
629 0 1 11.094270 6.732280 664.734619
630 0 1 11.234080 6.933400 663.855225
631 0 1 11.295270 7.110995 662.928589
632 0 1 11.423470 7.454783 662.021729
633 0 1 11.531710 7.969221 661.141602
634 0 1 11.852449 8.288912 660.284607
635 0 1 12.293110 8.765772 659.565186
636 0 1 12.801610 8.832912 658.740906
637 0 1 13.305070 9.176790 658.038208
638 0 1 13.823589 9.378040 657.271729
639 0 1 13.678170 9.377580 656.250610
640 0 1 13.404961 9.512260 655.319275
641 0 1 12.762290 9.565940 654.608582
642 0 1 12.079520 9.874200 653.980286
643 0 1 11.447060 10.236890 653.355225
644 0 1 10.538020 10.432740 653.008911
645 0 1 9.690331 10.259610 652.617126
646 0 1 8.918328 10.047600 652.152100
647 0 1 8.146995 9.484790 651.820618
648 0 1 7.408573 9.152790 651.277771
649 0 1 6.656490 8.865811 650.666870
650 0 1 5.906960 8.609703 650.079529
651 0 1 5.365810 8.506086 649.293579
652 0 1 5.201530 8.323537 648.407715
653 0 1 5.018450 8.174848 647.453186
654 0 1 5.155450 7.879170 646.508728
655 0 1 5.369220 7.676010 645.557800
656 0 1 5.631880 7.872096 644.649597
657 0 1 5.351480 8.024540 643.711121
658 0 1 5.031940 7.814914 642.807007
659 0 1 4.762060 7.791471 641.856323
660 0 1 4.611950 8.009213 640.927612
661 0 1 4.778390 8.364008 640.024109
662 0 1 5.200540 8.378871 639.197693
663 0 1 5.819090 8.597326 638.520996
664 0 1 6.540030 8.956389 637.997070
665 0 1 7.285566 9.385480 637.510986
666 0 1 8.087992 9.655530 636.997559
667 0 1 8.700636 9.784650 636.271606
668 0 1 9.166530 9.953320 635.423279
669 0 1 9.675130 9.901740 634.618347
670 0 1 10.189700 9.947120 633.832275
671 0 1 10.731461 9.869100 633.049316
672 0 1 11.388320 9.976770 632.356201
673 0 1 12.040700 9.865820 631.694336
674 0 1 12.623650 9.861130 630.923462
675 0 1 12.639400 9.808100 629.934814
676 0 1 12.656000 9.454970 629.027588
677 0 1 12.753500 9.194000 628.024231
678 0 1 12.667339 8.851622 627.105530
679 0 1 12.393560 8.878763 626.177734
680 0 1 12.187469 8.897245 625.266479
681 0 1 11.935260 9.112070 624.360657
682 0 1 11.673990 9.407760 623.521301
683 0 1 11.335080 9.689900 622.685364
684 0 1 11.068450 10.141800 621.852112
685 0 1 10.785810 10.606020 621.041687
686 0 1 10.681910 11.107560 620.195374
687 0 1 10.468260 11.359200 619.281616
688 0 1 10.325769 11.745240 618.364319
689 0 1 9.900280 11.973630 617.530884
690 0 1 9.451190 11.992390 616.715698
691 0 1 8.854979 12.182230 616.004578
692 0 1 8.358997 12.063990 615.220886
693 0 1 8.299383 12.335920 614.370300
694 0 1 8.291344 12.517590 613.381226
695 0 1 8.089715 12.924540 612.580200
696 0 1 7.775155 13.215611 611.694397
697 0 1 7.544059 13.437110 610.755920
698 0 1 7.221861 13.790270 609.854309
699 0 1 6.944630 13.825140 608.989380
700 0 1 6.704600 13.616920 608.056702
701 0 1 6.708870 13.411580 607.090088
702 0 1 6.587620 13.380290 606.145508
703 0 1 6.435170 13.280350 605.218994
704 0 1 6.125400 13.396709 604.287903
705 0 1 5.799240 13.097839 603.401123
706 0 1 5.327430 12.686890 602.630188
707 0 1 4.845090 12.148470 601.992493
708 0 1 4.395150 11.428240 601.512024
709 0 1 4.327830 10.590830 601.007019
710 0 1 4.359000 9.928420 600.270020
711 0 1 4.488080 9.583290 599.468201
712 0 1 4.690190 9.050580 598.671997
713 0 1 4.898000 8.541195 597.853088
714 0 1 4.910860 7.935994 597.033569
715 0 1 5.099470 7.489961 596.226624
716 0 1 5.358040 7.081232 595.380981
717 0 1 5.340880 6.463200 594.640686
718 0 1 5.397760 5.810810 593.860474
719 0 1 5.682690 5.130590 593.203979
720 0 1 5.947930 4.450700 592.546814
721 0 1 6.563700 3.894090 592.030701
722 0 1 6.926340 3.438980 591.302490
723 0 1 7.144423 2.942990 590.450500
724 0 1 7.267768 2.818000 589.531311
725 0 1 7.367129 2.958380 588.523682
726 0 1 7.512401 3.312150 587.658875
727 0 1 7.642137 3.606300 586.755493
728 0 1 7.683797 4.003530 585.878174
729 0 1 7.789479 4.441140 585.042297
730 0 1 7.945351 4.711040 584.129578
731 0 1 8.041931 4.652080 583.113708
732 0 1 8.167692 4.595460 582.077393
733 0 1 8.344020 4.591400 581.106812
734 0 1 8.642137 4.340800 580.187500
735 0 1 8.417231 4.244100 579.261780
736 0 1 8.245525 4.093490 578.311401
737 0 1 8.286015 3.933930 577.340027
738 0 1 8.451905 3.925160 576.411926
739 0 1 8.649060 4.119390 575.465698
740 0 1 8.753511 4.273840 574.490601
741 0 1 8.866718 4.368320 573.530518
742 0 1 8.722743 4.450920 572.541992
743 0 1 8.725082 4.683950 571.590576
744 0 1 8.690945 4.910720 570.633972
745 0 1 8.673794 5.051470 569.663025
746 0 1 8.600664 5.011840 568.689575
747 0 1 8.803726 4.941220 567.678528
748 0 1 8.879258 4.749790 566.786987
749 0 1 8.841104 4.768840 565.798889
750 0 1 8.928185 4.650030 564.827698
751 0 1 8.560544 4.543580 563.996704
752 0 1 8.185460 4.648830 563.061768
753 0 1 7.731039 4.725610 562.242004
754 0 1 7.448577 4.787140 561.348022
755 0 1 7.280397 5.129200 560.444214
756 0 1 6.815840 5.411090 559.630920
757 0 1 6.402750 5.744960 558.819092
758 0 1 6.360610 6.091110 557.903625
759 0 1 6.159300 6.760400 557.189514
760 0 1 5.879420 7.119945 556.299988
761 0 1 5.889680 7.592516 555.426086
762 0 1 5.937550 7.948627 554.532776
763 0 1 6.176190 8.345247 553.630981
764 0 1 6.491740 8.791315 552.833130
765 0 1 6.700730 9.166250 551.941711
766 0 1 6.964520 9.600180 551.122070
767 0 1 7.415794 10.109770 550.515503
768 0 1 7.701450 10.874060 549.960022
769 0 1 8.061515 11.308950 549.211609
770 0 1 8.465742 11.425780 548.363098
771 0 1 8.208703 11.838900 547.571411
772 0 1 7.967422 12.134190 546.699829
773 0 1 7.662022 12.626460 545.942627
774 0 1 7.341454 12.994490 545.062988
775 0 1 7.171787 13.301661 544.215576
776 0 1 7.346088 13.206989 543.301697
777 0 1 7.452825 12.736441 542.435486
778 0 1 7.493375 12.147511 541.564819
779 0 1 7.150252 11.682850 540.873413
780 0 1 6.619740 11.235910 540.216492
781 0 1 6.202680 10.498440 539.817017
782 0 1 5.808750 9.690680 539.423706
783 0 1 5.130030 9.064920 539.145874
784 0 1 4.858860 8.135235 538.901123
785 0 1 4.777120 7.261620 538.434875
786 0 1 4.499750 6.768780 537.647827
787 0 1 4.510030 6.344610 536.702576
788 0 1 4.510750 6.063680 535.817017