LAMMPS data file via MDAnalysis

        1000  atoms
        1000  bonds
        1000  angles
           0  dihedrals
           0  impropers

           1  atom types
           1  bond types
           1  angle types
           0  dihedral types
           0  improper types

0.000000 16.000000 xlo xhi
0.000000 16.000000 ylo yhi
0.000000 1257.000000 zlo zhi


Masses

1 1.000000

Atoms

1 0 1 5.828300 7.496257 453.359985
2 0 1 5.916180 7.752545 454.265015
3 0 1 6.320370 8.004754 455.122986
4 0 1 6.554040 8.033744 456.026001
5 0 1 6.506130 8.182016 457.000000
6 0 1 6.176920 8.113008 457.904999
7 0 1 6.054730 8.039675 458.904999
8 0 1 5.897260 7.864298 459.807983
9 0 1 5.916840 7.786351 460.800995
10 0 1 5.732190 7.648316 461.783997
11 0 1 5.589630 7.697260 462.713989
12 0 1 5.396350 7.933091 463.552002
13 0 1 5.519530 8.152771 464.526978
14 0 1 6.159040 8.089769 465.273010
15 0 1 6.811690 8.139745 465.988007
16 0 1 7.409428 8.009380 466.739014
17 0 1 7.977796 8.000118 467.559021
18 0 1 8.316593 7.912279 468.442017
19 0 1 8.627992 7.943779 469.341980
20 0 1 9.056910 8.038084 470.238007
21 0 1 9.576870 8.206311 471.036987
22 0 1 10.021870 8.584167 471.856018
23 0 1 10.321301 8.685173 472.734009
24 0 1 10.791780 8.741776 473.614014
25 0 1 11.264130 8.493827 474.468018
26 0 1 11.559660 8.409823 475.367004
27 0 1 11.946290 8.515552 476.299011
28 0 1 12.429300 8.497090 477.098022
29 0 1 12.855040 8.481684 477.919983
30 0 1 12.855670 8.352024 478.837006
31 0 1 12.912371 8.151858 479.791016
32 0 1 12.949591 8.000568 480.692993
33 0 1 12.819500 7.980213 481.636993
34 0 1 12.623620 7.932259 482.606995
35 0 1 12.451030 7.729423 483.523987
36 0 1 12.353140 7.773071 484.513000
37 0 1 12.164630 7.835347 485.518982
38 0 1 12.112460 8.059451 486.425995
39 0 1 11.911680 8.353716 487.356018
40 0 1 11.733650 8.649905 488.333008
41 0 1 11.580020 9.151730 489.203979
42 0 1 11.411950 9.434240 490.251007
43 0 1 11.302259 9.958740 491.098022
44 0 1 11.014200 10.163589 492.041016
45 0 1 10.756440 10.471130 492.889008
46 0 1 10.297740 10.640980 493.700012
47 0 1 9.562150 10.548429 494.333008
48 0 1 8.759863 10.441680 494.789001
49 0 1 7.938401 9.987410 495.088013
50 0 1 7.327871 9.421010 495.494019
51 0 1 6.975980 8.911308 496.190002
52 0 1 6.616070 8.670368 496.992004
53 0 1 6.212170 8.575345 497.914978
54 0 1 5.932870 8.513057 498.882996
55 0 1 5.522570 8.454929 499.751007
56 0 1 5.333840 8.321412 500.760010
57 0 1 5.532240 7.901812 501.622009
58 0 1 5.523130 7.884971 502.648987
59 0 1 5.278320 7.827427 503.585999
60 0 1 5.028720 7.647105 504.591003
61 0 1 4.833120 7.367886 505.514008
62 0 1 4.368520 7.207758 506.380981
63 0 1 3.768350 6.998560 507.151001
64 0 1 3.110900 6.843040 507.901001
65 0 1 2.678500 6.863840 508.776001
66 0 1 2.554050 6.497500 509.720001
67 0 1 2.621570 6.088500 510.669006
68 0 1 2.516300 5.613220 511.549011
69 0 1 2.554770 5.359340 512.464966
70 0 1 2.582650 4.993690 513.369995
71 0 1 2.748250 4.739300 514.247986
72 0 1 2.857930 4.418970 515.127014
73 0 1 2.941450 4.051200 515.984009
74 0 1 3.174970 3.883010 516.950989
75 0 1 3.571760 3.954920 517.882996
76 0 1 3.871300 4.077080 518.812012
77 0 1 4.444500 4.301850 519.552002
78 0 1 5.184780 4.680370 520.031982
79 0 1 6.045900 4.991150 520.203003
80 0 1 6.867140 5.264540 520.687012
81 0 1 7.338495 5.588370 521.531006
82 0 1 7.769871 5.875270 522.299988
83 0 1 8.226411 6.110700 523.140991
84 0 1 8.526546 6.294160 524.018005
85 0 1 8.565397 6.564910 524.924988
86 0 1 8.421992 6.597260 525.865967
87 0 1 8.526564 6.689730 526.835022
88 0 1 8.521550 6.830880 527.766968
89 0 1 8.461686 7.066211 528.682190
90 0 1 8.556326 7.360612 529.555115
91 0 1 8.650201 7.630074 530.483521
92 0 1 8.758665 7.729189 531.461182
93 0 1 8.785769 7.724561 532.377380
94 0 1 8.825478 7.771344 533.285217
95 0 1 8.660686 8.065061 534.120422
96 0 1 8.017885 8.270151 534.832825
97 0 1 7.385409 8.317616 535.566406
98 0 1 6.931120 8.433621 536.393677
99 0 1 6.737650 8.597149 537.335999
100 0 1 7.138753 8.742183 538.203979
101 0 1 7.881291 8.782603 538.809509
102 0 1 8.505428 8.853013 539.490112
103 0 1 9.156540 8.991650 540.146118
104 0 1 9.754760 9.161100 540.886902
105 0 1 10.115540 9.394530 541.698730
106 0 1 10.270560 9.579830 542.734619
107 0 1 10.329470 9.587200 543.755981
108 0 1 10.221000 9.638670 544.744385
109 0 1 9.944890 9.656400 545.640381
110 0 1 9.761440 9.830640 546.604614
111 0 1 9.635600 10.234470 547.450500
112 0 1 9.525130 10.447100 548.340088
113 0 1 9.467930 11.059790 549.050110
114 0 1 9.670600 11.356650 549.933777
115 0 1 9.715590 11.534000 550.833496
116 0 1 9.848240 11.943030 551.723083
117 0 1 10.008680 12.323490 552.589600
118 0 1 10.243470 12.754110 553.453308
119 0 1 10.545950 12.929319 554.321594
120 0 1 10.750920 13.018180 555.266418
121 0 1 10.807980 13.229250 556.224915
122 0 1 11.098160 13.241420 557.154480
123 0 1 11.454390 13.197660 558.049500
124 0 1 11.467720 13.330720 558.972107
125 0 1 11.589220 13.565460 559.866516
126 0 1 11.513890 13.358840 560.755371
127 0 1 11.404680 12.990700 561.658813
128 0 1 11.149509 12.715480 562.616089
129 0 1 10.646990 12.645350 563.488525
130 0 1 10.146870 12.269150 564.260925
131 0 1 9.782160 11.771490 565.027527
132 0 1 9.736350 11.596951 565.990601
133 0 1 9.811230 11.710800 566.906128
134 0 1 9.613260 11.527580 567.825623
135 0 1 9.288210 11.670820 568.674805
136 0 1 8.840308 11.861490 569.534973
137 0 1 8.467205 11.968360 570.382690
138 0 1 8.084794 12.265699 571.280029
139 0 1 7.676916 12.384940 572.135376
140 0 1 7.079789 12.344151 572.891418
141 0 1 6.327640 12.500830 573.434692
142 0 1 5.643370 12.326950 574.099731
143 0 1 4.930080 12.035900 574.755981
144 0 1 4.420340 11.823130 575.558289
145 0 1 3.793280 11.682090 576.229797
146 0 1 3.302350 11.380630 576.959412
147 0 1 3.100270 10.800990 577.727722
148 0 1 3.084230 10.331350 578.609619
149 0 1 3.126880 9.838350 579.502625
150 0 1 2.863580 9.268870 580.291809
151 0 1 2.720970 8.533277 580.976501
152 0 1 2.773700 8.048671 581.789795
153 0 1 2.896990 7.721461 582.667419
154 0 1 3.004190 7.652264 583.625610
155 0 1 3.169530 7.800435 584.548279
156 0 1 3.312790 7.846688 585.538330
157 0 1 3.535890 8.049305 586.421631
158 0 1 3.762000 8.376680 587.341614
159 0 1 3.623080 8.641068 588.254883
160 0 1 3.647630 9.078630 589.143311
161 0 1 3.464640 9.459810 590.068970
162 0 1 3.460980 9.538670 591.008301
163 0 1 3.454790 9.723680 591.959473
164 0 1 3.516500 9.817620 592.951477
165 0 1 3.488250 9.835649 593.985596
166 0 1 3.556940 10.071530 594.901672
167 0 1 3.500420 10.309910 595.880005
168 0 1 3.876810 10.242701 596.771484
169 0 1 4.158520 10.123520 597.637024
170 0 1 4.383290 10.339270 598.601318
171 0 1 4.502890 10.246380 599.501892
172 0 1 4.854070 10.107350 600.412476
173 0 1 4.963640 10.115510 601.362610
174 0 1 5.115050 9.965340 602.284729
175 0 1 5.543340 9.844760 603.167969
176 0 1 5.803250 9.739340 604.087891
177 0 1 5.945980 9.745550 605.018616
178 0 1 6.144700 9.728610 605.921631
179 0 1 6.267070 9.691610 606.950073
180 0 1 6.428570 9.966900 607.877014
181 0 1 6.719770 10.096710 608.737671
182 0 1 6.691490 10.060240 609.684082
183 0 1 6.381950 10.214050 610.567017
184 0 1 6.186550 10.414340 611.474426
185 0 1 6.151100 10.730640 612.368286
186 0 1 6.204490 11.065630 613.304382
187 0 1 6.405020 11.405290 614.192383
188 0 1 6.463860 11.610780 615.103699
189 0 1 6.717630 11.680210 616.033691
190 0 1 7.288752 11.821400 616.797974
191 0 1 7.800574 11.962550 617.558411
192 0 1 7.963914 12.368470 618.390015
193 0 1 7.918477 12.562820 619.317322
194 0 1 8.118893 12.512230 620.255920
195 0 1 8.455517 12.606670 621.161133
196 0 1 8.749354 12.915030 622.058960
197 0 1 9.202510 13.149040 622.919678
198 0 1 9.608690 13.246520 623.785767
199 0 1 9.880640 13.306490 624.789673
200 0 1 9.795330 13.392460 625.769775
201 0 1 9.870570 13.323140 626.678528
202 0 1 10.027490 13.293690 627.644043
203 0 1 10.185970 13.111691 628.541565
204 0 1 10.219840 12.877930 629.481750
205 0 1 10.067900 12.768440 630.413208
206 0 1 9.962210 12.672530 631.335266
207 0 1 9.642500 12.790740 632.413879
208 0 1 9.730940 13.231820 633.270142
209 0 1 9.849080 13.553960 634.172607
210 0 1 10.135080 13.706900 635.062500
211 0 1 10.392800 13.890500 635.945251
212 0 1 10.789880 14.140181 636.739319
213 0 1 10.919450 14.038420 637.721069
214 0 1 10.843760 13.909861 638.656494
215 0 1 10.931000 13.654790 639.565430
216 0 1 10.919300 13.426371 640.491516
217 0 1 11.121140 13.050610 641.442322
218 0 1 11.406510 12.579960 642.154419
219 0 1 11.431750 12.271320 643.146973
220 0 1 11.394700 11.827650 643.957520
221 0 1 11.472390 11.350451 644.770081
222 0 1 11.789920 11.104230 645.572083
223 0 1 11.837151 11.025790 646.481506
224 0 1 11.629760 11.021410 647.396790
225 0 1 11.280951 11.132610 648.309570
226 0 1 11.222460 11.458611 649.251709
227 0 1 11.264330 11.753630 650.194824
228 0 1 11.025510 11.764880 651.095276
229 0 1 10.550310 11.461970 651.869324
230 0 1 10.024860 11.004400 652.521790
231 0 1 9.529520 10.521260 653.190674
232 0 1 9.068290 10.357040 653.987793
233 0 1 8.966096 10.034040 654.847473
234 0 1 9.323000 9.863910 655.704285
235 0 1 9.630660 9.964250 656.641418
236 0 1 9.806550 9.915100 657.626526
237 0 1 10.057170 9.960550 658.598206
238 0 1 10.082520 10.209960 659.588989
239 0 1 10.128050 10.341550 660.543091
240 0 1 10.055890 10.423770 661.564514
241 0 1 10.514530 10.160880 662.365112
242 0 1 11.189529 10.110470 663.071472
243 0 1 11.707150 9.926450 663.817200
244 0 1 12.235910 9.587240 664.558899
245 0 1 12.648260 9.164210 665.346191
246 0 1 13.067230 9.053500 666.212097
247 0 1 13.335260 8.971414 667.125610
248 0 1 13.591721 9.176291 668.062317
249 0 1 13.619471 9.398780 668.967285
250 0 1 13.299980 9.483150 669.897278
251 0 1 12.901410 9.715070 670.714417
252 0 1 12.195470 9.835390 671.353882
253 0 1 11.533190 10.050030 671.955811
254 0 1 10.830690 10.210080 672.549072
255 0 1 10.202980 10.541861 673.193726
256 0 1 9.626060 10.813920 673.896179
257 0 1 9.344520 10.914600 674.819702
258 0 1 8.965599 11.195680 675.654785
259 0 1 8.824509 11.579140 676.525208
260 0 1 8.709636 11.934740 677.385376
261 0 1 8.831013 12.294970 678.258301
262 0 1 8.709848 12.528610 679.151428
263 0 1 8.561466 12.698561 680.151917
264 0 1 8.337519 12.759060 681.066895
265 0 1 8.095428 12.568100 682.000183
266 0 1 7.728176 12.462620 682.920227
267 0 1 7.577087 12.070290 683.839478
268 0 1 7.328360 11.716220 684.700928
269 0 1 6.970130 11.208611 685.425415
270 0 1 6.984000 10.577430 686.125000
271 0 1 6.719040 9.970310 686.860901
272 0 1 6.861030 9.208900 687.483276
273 0 1 6.808980 8.499527 688.193115
274 0 1 6.915670 7.743399 688.850891
275 0 1 6.915240 6.828140 689.153931
276 0 1 7.382506 6.058260 689.505371
277 0 1 7.973231 5.353280 689.894531
278 0 1 8.627413 4.749050 690.227173
279 0 1 9.407880 4.388730 690.621887
280 0 1 10.186630 4.125480 691.173279
281 0 1 10.857930 3.749440 691.732117
282 0 1 11.180330 3.460400 692.595886
283 0 1 11.604370 3.389040 693.438232
284 0 1 12.037809 3.506430 694.247009
285 0 1 12.178471 3.738720 695.210205
286 0 1 11.848840 4.102740 696.018005
287 0 1 11.594030 4.605140 696.845215
288 0 1 11.045000 4.858900 697.564819
289 0 1 10.746080 5.254370 698.398621
290 0 1 10.073530 5.341180 699.130310
291 0 1 9.432050 5.633690 699.829712
292 0 1 8.836143 5.927770 700.401611
293 0 1 8.140397 6.228440 700.932922
294 0 1 7.809712 6.731380 701.711609
295 0 1 7.695935 7.302444 702.564880
296 0 1 7.690620 7.513705 703.508179
297 0 1 7.682926 7.756011 704.469727
298 0 1 8.000959 7.709289 705.390503
299 0 1 8.180433 7.657574 706.352783
300 0 1 8.487589 7.552755 707.282410
301 0 1 8.367414 7.407167 708.227722
302 0 1 8.512533 7.600382 709.148315
303 0 1 8.499767 7.867685 710.052185
304 0 1 8.510622 8.337779 710.873474
305 0 1 8.491386 9.092330 711.484924
306 0 1 8.364529 9.821420 712.100281
307 0 1 8.335629 10.600910 712.601929
308 0 1 8.387866 11.213160 713.404297
309 0 1 8.459865 11.787230 714.204468
310 0 1 8.383674 12.153240 715.115784
311 0 1 8.252537 12.367490 716.084473
312 0 1 7.948678 12.299160 717.068726
313 0 1 7.788173 12.088890 717.994507
314 0 1 7.404257 11.983470 718.955200
315 0 1 7.060904 11.605670 719.734009
316 0 1 7.135046 11.319070 720.676514
317 0 1 7.213730 11.123960 721.623596
318 0 1 7.385402 10.768430 722.568298
319 0 1 7.477899 10.281850 723.467712
320 0 1 7.696369 9.619880 724.160706
321 0 1 7.709768 9.029800 724.919800
322 0 1 7.653957 8.658942 725.899780
323 0 1 7.283375 8.102365 726.657410
324 0 1 6.780570 7.781550 727.511292
325 0 1 6.272830 7.485341 728.308228
326 0 1 5.618400 7.183030 728.953003
327 0 1 5.167390 6.956720 729.848999
328 0 1 4.766490 6.884900 730.733032
329 0 1 4.401080 6.606010 731.559998
330 0 1 4.259480 6.107390 732.479980
331 0 1 4.347780 5.587580 733.249023
332 0 1 4.588670 5.315880 734.143005
333 0 1 4.935400 5.257250 735.039978
334 0 1 5.171830 4.682220 735.752014
335 0 1 5.664680 4.184280 736.417969
336 0 1 6.390870 3.713430 737.002014
337 0 1 7.100014 3.207530 737.377014
338 0 1 7.791186 2.873550 737.958984
339 0 1 8.362559 2.599270 738.765015
340 0 1 8.960412 2.542840 739.463013
341 0 1 9.665900 2.799410 740.117981
342 0 1 10.416750 3.225360 740.476013
343 0 1 10.774270 3.816020 741.130981
344 0 1 11.205170 4.542600 741.677002
345 0 1 11.720440 5.062990 742.338013
346 0 1 12.282021 5.605490 742.940002
347 0 1 12.379180 6.110260 743.786011
348 0 1 12.367670 6.331840 744.681030
349 0 1 12.327650 6.367110 745.651001
350 0 1 12.346730 6.222150 746.586975
351 0 1 12.014299 6.195740 747.445007
352 0 1 11.986520 5.672880 748.216003
353 0 1 12.131340 5.428930 749.171021
354 0 1 12.093679 5.379110 750.070007
355 0 1 11.862870 5.359390 751.018982
356 0 1 11.561480 5.473180 751.905029
357 0 1 11.738900 5.564280 752.869995
358 0 1 11.791850 5.563230 753.865967
359 0 1 11.472120 5.476990 754.802979
360 0 1 11.446341 5.345800 755.786011
361 0 1 11.308770 5.417700 756.812012
362 0 1 11.030890 5.443240 757.681030
363 0 1 10.732660 5.335140 758.614014
364 0 1 10.338100 5.426420 759.437012
365 0 1 9.780700 5.721460 760.229004
366 0 1 9.142320 5.727720 760.893005
367 0 1 8.578459 5.936890 761.658020
368 0 1 8.218120 6.035770 762.583008
369 0 1 7.841179 6.350910 763.426025
370 0 1 7.368778 6.704780 764.193970
371 0 1 6.923340 7.040066 764.958008
372 0 1 6.885520 7.511342 765.822021
373 0 1 7.052318 7.989476 766.653992
374 0 1 7.253974 8.620361 767.354980
375 0 1 7.463519 9.182650 768.134033
376 0 1 7.761222 9.416440 769.009033
377 0 1 7.753968 9.685710 769.953003
378 0 1 7.747586 9.675180 770.922974
379 0 1 7.811983 9.931810 771.862000
380 0 1 7.873071 9.985810 772.880981
381 0 1 8.234441 9.690010 773.757996
382 0 1 8.632326 9.503060 774.617004
383 0 1 8.644276 9.128520 775.502991
384 0 1 8.323550 8.586821 776.285034
385 0 1 8.022347 8.026965 777.011963
386 0 1 7.662972 7.702705 777.848022
387 0 1 7.440350 7.461287 778.710022
388 0 1 6.857100 7.066392 779.412964
389 0 1 6.366790 6.517080 780.059998
390 0 1 5.983370 6.093460 780.765991
391 0 1 5.516430 5.770800 781.567993
392 0 1 5.124220 5.726720 782.464966
393 0 1 4.852590 5.537990 783.367004
394 0 1 4.871830 5.510600 784.333008
395 0 1 4.672190 5.248370 785.242004
396 0 1 4.804990 4.982310 786.119019
397 0 1 5.043980 4.775000 786.990967
398 0 1 5.192310 4.543870 787.869995
399 0 1 5.638500 4.180130 788.672974
400 0 1 5.944220 3.705130 789.516968
401 0 1 6.237680 3.627460 790.442017
402 0 1 6.486710 3.420150 791.287964
403 0 1 6.543810 3.365820 792.276001
404 0 1 6.564280 3.293060 793.203003
405 0 1 6.922140 3.263640 794.120972
406 0 1 6.965300 3.322520 795.108032
407 0 1 7.170387 3.125200 795.992004
408 0 1 7.259611 3.028580 796.960999
409 0 1 7.156183 2.834070 797.903992
410 0 1 6.670650 2.569590 798.686035
411 0 1 6.092360 2.382030 799.393982
412 0 1 5.473080 2.193870 800.109985
413 0 1 5.114900 1.952500 801.002014
414 0 1 4.816760 1.996540 801.911987
415 0 1 4.648710 2.048440 802.882019
416 0 1 4.650480 1.998570 803.851990
417 0 1 4.989630 1.947610 804.778015
418 0 1 5.280690 2.149750 805.708008
419 0 1 5.469290 2.511850 806.518005
420 0 1 5.957800 2.855160 807.296997
421 0 1 6.178390 2.784400 808.221985
422 0 1 6.617060 2.548440 809.065979
423 0 1 7.261552 2.426990 809.817993
424 0 1 7.979795 2.315690 810.511963
425 0 1 8.589219 2.706710 811.145020
426 0 1 9.115600 3.095750 811.885010
427 0 1 9.440950 3.646320 812.632019
428 0 1 9.588670 4.153720 813.432007
429 0 1 9.797510 4.800470 814.059021
430 0 1 10.027600 5.549620 814.614014
431 0 1 10.295210 6.212570 815.257019
432 0 1 10.529119 6.884770 815.924011
433 0 1 10.772320 7.470781 816.739014
434 0 1 11.044100 7.951545 817.492004
435 0 1 11.224649 8.252953 818.403015
436 0 1 11.176900 8.562953 819.306030
437 0 1 11.343370 8.917835 820.139038
438 0 1 11.479740 9.491770 820.921997
439 0 1 11.686131 9.637020 821.885986
440 0 1 11.860780 9.770940 822.872009
441 0 1 11.789440 10.002090 823.799988
442 0 1 11.598830 10.245029 824.708984
443 0 1 11.432360 10.370670 825.653992
444 0 1 11.338900 10.380190 826.653015
445 0 1 11.318160 10.179190 827.583984
446 0 1 11.489110 9.904780 828.485962
447 0 1 11.654530 9.366750 829.273010
448 0 1 12.031250 9.095240 830.169006
449 0 1 12.025240 8.890406 831.075012
450 0 1 12.043950 8.555564 831.995972
451 0 1 12.022460 8.366157 832.952026
452 0 1 11.837090 8.212730 833.872009
453 0 1 11.638050 7.997845 834.833008
454 0 1 11.364759 7.437486 835.593994
455 0 1 11.057710 6.753760 836.226990
456 0 1 10.784370 6.097900 836.940979
457 0 1 10.265890 5.295260 837.338989
458 0 1 9.588910 4.850250 837.811035
459 0 1 8.700349 4.400070 837.985962
460 0 1 7.844666 3.957600 837.849976
461 0 1 7.041179 3.515360 837.801025
462 0 1 6.301240 3.121260 837.393005
463 0 1 5.919490 2.611280 836.643982
464 0 1 5.685150 2.066290 835.859009
465 0 1 5.407090 1.630790 835.020996
466 0 1 5.420480 1.582910 834.062012
467 0 1 5.497970 1.736600 833.124023
468 0 1 5.562610 1.857720 832.156006
469 0 1 5.663500 1.974830 831.182983
470 0 1 5.430180 2.236000 830.304016
471 0 1 5.022160 2.728660 829.596008
472 0 1 4.804750 3.318460 828.833984
473 0 1 4.608120 3.844820 828.088989
474 0 1 4.251310 4.418670 827.367981
475 0 1 3.893480 4.959310 826.666016
476 0 1 3.499280 5.329290 825.828979
477 0 1 2.987690 5.844710 825.094971
478 0 1 2.714750 6.291360 824.291016
479 0 1 2.443560 6.629490 823.421997
480 0 1 2.169970 7.064332 822.588989
481 0 1 1.996820 7.532837 821.822021
482 0 1 1.900780 8.067994 821.047974
483 0 1 1.685560 8.464162 820.233032
484 0 1 1.622940 8.725288 819.276978
485 0 1 1.401300 8.481469 818.356018
486 0 1 1.190380 8.153769 817.466980
487 0 1 1.338410 7.874051 816.552979
488 0 1 1.313890 7.764596 815.557007
489 0 1 1.536800 7.494394 814.693970
490 0 1 1.830510 7.299571 813.737000
491 0 1 2.389420 7.148353 812.966980
492 0 1 3.179630 7.046781 812.445984
493 0 1 3.832800 7.359346 811.807007
494 0 1 4.561200 7.290690 811.213013
495 0 1 5.096610 7.257380 810.419983
496 0 1 5.653800 7.031471 809.572998
497 0 1 5.946250 6.565290 808.815002
498 0 1 6.347850 6.391970 808.023010
499 0 1 6.486140 6.392750 807.070007
500 0 1 6.718880 6.456200 806.065002
501 0 1 6.931770 6.535900 805.135986
502 0 1 6.847420 6.541250 804.186035
503 0 1 6.837590 6.782830 803.218994
504 0 1 6.768930 7.057480 802.309021
505 0 1 6.741930 7.220684 801.346985
506 0 1 6.652660 7.356231 800.390015
507 0 1 6.695440 7.726872 799.513000
508 0 1 6.826510 8.143264 798.655029
509 0 1 7.180781 8.323617 797.783020
510 0 1 7.411483 8.305266 796.879028
511 0 1 7.516427 8.227780 795.926025
512 0 1 7.492408 7.924248 795.015991
513 0 1 7.918986 7.723419 794.109009
514 0 1 7.877921 7.323473 793.221008
515 0 1 8.071413 6.946860 792.327026
516 0 1 8.050263 6.944280 791.364014
517 0 1 8.084164 6.837890 790.379028
518 0 1 8.085199 6.801640 789.351990
519 0 1 8.475347 6.821790 788.450989
520 0 1 8.865459 6.713690 787.625000
521 0 1 8.928758 6.707310 786.625000
522 0 1 9.189660 6.829120 785.740967
523 0 1 9.524000 6.871960 784.839966
524 0 1 9.880130 6.805170 783.936035
525 0 1 10.142150 7.024347 783.000000
526 0 1 10.307290 7.522105 782.203003
527 0 1 10.432730 7.897391 781.309021
528 0 1 10.536850 8.159427 780.380981
529 0 1 10.882050 8.469774 779.559021
530 0 1 10.943439 8.489263 778.580017
531 0 1 10.865129 8.203077 777.684021
532 0 1 11.145480 7.834156 776.828003
533 0 1 11.380420 7.312532 775.994019
534 0 1 11.627690 6.943640 775.122986
535 0 1 11.836900 6.647180 774.233032
536 0 1 12.078020 6.259970 773.304993
537 0 1 12.445450 5.872520 772.417969
538 0 1 12.821500 5.565660 771.549011
539 0 1 13.216820 5.460160 770.567017
540 0 1 13.620550 5.242330 769.686035
541 0 1 13.774900 5.099950 768.738037
542 0 1 13.950650 4.731550 767.839966
543 0 1 13.945410 4.501700 766.895020
544 0 1 13.688311 4.469750 766.007019
545 0 1 13.246120 4.680640 765.203003
546 0 1 13.093980 4.869240 764.276001
547 0 1 13.077050 4.867830 763.328979
548 0 1 13.196341 4.984250 762.365967
549 0 1 13.270041 5.159780 761.380005
550 0 1 13.169200 5.634370 760.588013
551 0 1 13.138940 6.053140 759.773010
552 0 1 12.980370 6.326900 758.879028
553 0 1 12.662800 6.628200 758.046997
554 0 1 12.253540 7.000806 757.265015
555 0 1 12.093210 7.499277 756.434021
556 0 1 11.958630 8.089522 755.765991
557 0 1 11.825890 8.849543 755.109009
558 0 1 12.041440 9.497470 754.464966
559 0 1 12.217710 10.055910 753.617004
560 0 1 12.245100 10.564100 752.817017
561 0 1 11.881610 10.608840 751.940002
562 0 1 11.678720 10.291830 751.026001
563 0 1 11.354880 10.304640 750.134033
564 0 1 11.317780 10.053070 749.187988
565 0 1 11.207150 10.158440 748.231995
566 0 1 11.136670 9.906210 747.354004
567 0 1 11.018320 9.542310 746.473022
568 0 1 10.968500 9.313340 745.481018
569 0 1 10.765980 9.231710 744.513977
570 0 1 10.352420 9.316780 743.672974
571 0 1 10.199340 9.574050 742.771973
572 0 1 9.946060 9.888040 741.789978
573 0 1 9.692580 10.292089 740.963013
574 0 1 9.251580 10.482650 740.117981
575 0 1 8.730610 10.784870 739.354004
576 0 1 8.283244 11.037600 738.504028
577 0 1 8.071108 11.276830 737.617981
578 0 1 7.751811 11.545959 736.697998
579 0 1 7.668409 11.959681 735.765991
580 0 1 7.993576 12.044750 734.885986
581 0 1 8.444964 12.270229 734.065002
582 0 1 8.735437 12.421761 733.187012
583 0 1 9.132310 12.608040 732.356995
584 0 1 9.394570 12.770309 731.408020
585 0 1 9.576800 12.951450 730.515991
586 0 1 9.538780 13.059970 729.559998
587 0 1 9.654260 13.203410 728.624023
588 0 1 9.625400 13.280610 727.648376
589 0 1 9.713210 13.490020 726.719727
590 0 1 9.637040 13.863990 725.825989
591 0 1 9.416020 14.065900 724.899170
592 0 1 9.033020 13.900200 724.002930
593 0 1 8.675983 13.774509 723.163391
594 0 1 8.518897 13.854361 722.254822
595 0 1 8.379009 13.933500 721.258179
596 0 1 7.948690 13.767600 720.491516
597 0 1 7.657647 13.571529 719.618896
598 0 1 7.227487 13.358160 718.812134
599 0 1 6.448570 13.310220 718.181396
600 0 1 5.818850 13.226851 717.503723
601 0 1 5.220290 12.827000 716.886597
602 0 1 4.510260 12.374540 716.460510
603 0 1 3.958370 11.757990 715.934387
604 0 1 3.493230 11.283820 715.279907
605 0 1 2.990600 10.625280 714.732666
606 0 1 2.622380 10.065001 714.109314
607 0 1 2.220490 9.396590 713.556702
608 0 1 1.914650 8.657377 712.910767
609 0 1 1.720850 7.925851 712.225708
610 0 1 1.411320 7.295709 711.595520
611 0 1 1.395280 6.700400 710.778687
612 0 1 1.539860 6.021360 710.087219
613 0 1 1.928120 5.391010 709.505310
614 0 1 2.351070 4.590620 709.096375
615 0 1 2.913550 4.061650 708.542480
616 0 1 3.429030 3.563140 707.867981
617 0 1 3.981550 3.010730 707.303406
618 0 1 4.699490 2.713650 706.725220
619 0 1 5.310240 2.768580 705.937195
620 0 1 5.614940 2.583640 705.055176
621 0 1 5.940410 2.325630 704.179626
622 0 1 6.067830 2.362890 703.216919
623 0 1 5.907310 2.411220 702.291016
624 0 1 5.262920 2.511300 701.588867
625 0 1 4.806360 2.417040 700.664307
626 0 1 4.566340 2.582890 699.725098
627 0 1 4.744570 2.593640 698.810974
628 0 1 4.962950 2.630110 697.929810
629 0 1 5.103160 2.733520 696.942322
630 0 1 5.200270 2.641020 695.982300
631 0 1 5.458530 2.720090 695.080505
632 0 1 5.914170 2.837410 694.229370
633 0 1 6.320130 2.441970 693.500305
634 0 1 6.770040 2.291620 692.643066
635 0 1 6.898720 2.306450 691.734680
636 0 1 6.864020 2.834920 690.980591
637 0 1 6.985430 3.668300 690.532410
638 0 1 6.894360 4.138930 689.720886
639 0 1 6.851440 4.584990 688.881897
640 0 1 6.371030 5.024850 688.115601
641 0 1 6.028800 5.624630 687.507812
642 0 1 5.569210 6.272030 686.929932
643 0 1 5.354550 6.760660 686.086487
644 0 1 5.196980 7.258560 685.268677
645 0 1 5.247820 7.751542 684.414429
646 0 1 5.169760 8.006724 683.421326
647 0 1 5.336170 8.001991 682.423584
648 0 1 5.608080 7.816294 681.530701
649 0 1 5.845920 7.609756 680.603271
650 0 1 5.863780 7.359405 679.700806
651 0 1 6.060300 7.274852 678.770996
652 0 1 5.943420 7.361386 677.797119
653 0 1 5.827010 7.107746 676.899780
654 0 1 5.396780 6.638090 676.190796
655 0 1 4.850940 6.279260 675.477905
656 0 1 4.207480 5.982580 674.775513
657 0 1 3.664100 5.873080 674.013184
658 0 1 3.105340 6.085840 673.224182
659 0 1 2.705580 6.288410 672.375427
660 0 1 2.687990 6.690060 671.510132
661 0 1 2.649130 6.884230 670.563904
662 0 1 2.878690 7.004100 669.632690
663 0 1 3.193630 7.153963 668.714172
664 0 1 3.630530 7.175639 667.828674
665 0 1 4.208420 7.237031 667.042480
666 0 1 4.736380 7.261361 666.244812
667 0 1 5.346150 7.165356 665.432678
668 0 1 5.782420 7.252038 664.578186
669 0 1 6.322080 7.538341 663.754028
670 0 1 7.024212 7.730910 663.150574
671 0 1 7.383569 7.690158 662.218018
672 0 1 7.765862 7.468467 661.339905
673 0 1 7.947676 7.081032 660.522095
674 0 1 7.762335 6.910400 659.565979
675 0 1 7.474785 7.112046 658.587524
676 0 1 6.756500 7.205796 657.873108
677 0 1 6.245650 7.494330 657.201721
678 0 1 5.978500 7.981559 656.472778
679 0 1 5.648050 8.421285 655.689697
680 0 1 5.406780 8.685796 654.751282
681 0 1 5.046840 8.764193 653.844971
682 0 1 4.929880 8.747401 652.926697
683 0 1 4.822190 9.042410 651.981384
684 0 1 4.592590 9.188480 651.066711
685 0 1 4.455420 9.425060 650.103882
686 0 1 4.607720 9.619600 649.179871
687 0 1 4.836820 10.066090 648.248413
688 0 1 5.264920 10.414420 647.431580
689 0 1 5.638300 10.749040 646.646790
690 0 1 5.798550 10.965820 645.727112
691 0 1 6.224110 11.220630 644.850525
692 0 1 6.617660 11.357510 643.989624
693 0 1 7.255939 11.561131 643.300476
694 0 1 7.889212 11.487740 642.539978
695 0 1 8.542619 11.426570 641.862305
696 0 1 9.145260 11.211910 641.160583
697 0 1 9.389340 10.639300 640.432007
698 0 1 9.279600 10.022790 639.716980
699 0 1 9.168720 9.566920 638.816223
700 0 1 9.320110 9.268530 637.919800
701 0 1 9.576270 9.028970 637.045654
702 0 1 9.763371 8.556160 636.175781
703 0 1 9.693030 8.350538 635.245178
704 0 1 9.579500 8.182930 634.283630
705 0 1 9.293260 7.947867 633.349487
706 0 1 8.774601 7.821291 632.502625
707 0 1 8.284432 7.772077 631.626526
708 0 1 7.997093 7.898722 630.774109
709 0 1 7.720212 7.924264 629.832764
710 0 1 7.811587 8.048880 628.891602
711 0 1 7.870379 7.997751 627.970581
712 0 1 7.987700 8.173091 626.967590
713 0 1 7.924824 8.458703 626.041321
714 0 1 8.065470 8.734814 625.125854
715 0 1 8.080213 8.806053 624.144775
716 0 1 7.961494 8.787497 623.184814
717 0 1 7.980955 8.978465 622.222717
718 0 1 8.257464 9.113560 621.276062
719 0 1 8.315077 8.800676 620.351196
720 0 1 8.729559 8.743168 619.468628
721 0 1 9.124950 8.657723 618.629883
722 0 1 9.133250 8.573739 617.652893
723 0 1 9.132330 8.601301 616.712585
724 0 1 9.158000 8.651778 615.768005
725 0 1 8.987251 8.446935 614.849121
726 0 1 8.585488 8.142626 613.987793
727 0 1 8.307890 7.701563 613.186523
728 0 1 7.676823 7.718629 612.391724
729 0 1 7.400480 7.705247 611.512085
730 0 1 7.158215 7.714751 610.554321
731 0 1 7.042047 7.608806 609.599976
732 0 1 7.097830 7.407290 608.580383
733 0 1 6.936500 7.172159 607.646179
734 0 1 6.666950 7.086647 606.690918
735 0 1 6.362150 6.851990 605.794983
736 0 1 6.179020 6.699050 604.873901
737 0 1 5.965170 6.655890 603.929077
738 0 1 5.874000 6.939210 603.053711
739 0 1 5.739550 7.006004 602.102722
740 0 1 5.953490 7.094532 601.134827
741 0 1 6.304240 7.054849 600.155823
742 0 1 6.502070 7.001816 599.203796
743 0 1 6.688110 6.794460 598.209229
744 0 1 7.202221 6.856450 597.318420
745 0 1 7.771753 7.031985 596.556519
746 0 1 8.471356 7.076256 595.730286
747 0 1 8.932595 7.325836 594.895874
748 0 1 9.168690 7.617235 594.003113
749 0 1 9.369450 7.898543 593.103882
750 0 1 9.355420 8.160607 592.148926
751 0 1 9.279840 8.684245 591.356018
752 0 1 9.059400 9.357320 590.679504
753 0 1 9.071760 9.742180 589.842407
754 0 1 9.054740 10.101570 588.906006
755 0 1 8.899458 10.253790 587.932495
756 0 1 8.709015 10.671650 587.051392
757 0 1 8.502887 10.892970 586.124023
758 0 1 8.234945 11.219749 585.260193
759 0 1 7.988577 11.142870 584.339905
760 0 1 7.516717 11.250410 583.427002
761 0 1 7.373581 11.612391 582.543579
762 0 1 7.518100 11.724030 581.538696
763 0 1 7.287361 11.981900 580.629578
764 0 1 7.134976 11.795400 579.685303
765 0 1 7.090738 11.484850 578.787781
766 0 1 7.360610 11.287810 577.904724
767 0 1 7.465821 11.061280 576.945312
768 0 1 7.602465 10.898610 576.010498
769 0 1 7.850837 10.484310 575.154907
770 0 1 8.346270 10.166930 574.432617
771 0 1 8.661876 9.886540 573.541870
772 0 1 9.004500 9.787720 572.611816
773 0 1 9.363310 9.881210 571.760376
774 0 1 9.665770 9.765530 570.842285
775 0 1 10.061831 9.315600 570.068176
776 0 1 10.363580 8.912924 569.283569
777 0 1 10.244510 8.504512 568.354980
778 0 1 9.949290 8.153014 567.340698
779 0 1 10.142960 7.898714 566.376282
780 0 1 10.324340 7.589967 565.520325
781 0 1 10.221930 7.334891 564.579712
782 0 1 10.164930 7.259718 563.609497
783 0 1 10.072210 7.263141 562.626221
784 0 1 10.163651 7.232959 561.654480
785 0 1 10.219930 7.047498 560.680908
786 0 1 10.504700 7.028242 559.709595
787 0 1 10.636070 6.751030 558.783020
788 0 1 11.001050 6.578950 557.906189
789 0 1 11.358900 5.985830 557.280884
790 0 1 11.552031 5.381320 556.604675
791 0 1 11.740561 4.884250 555.785583