LAMMPS data file via MDAnalysis

        1000  atoms
        1000  bonds
        1000  angles
           0  dihedrals
           0  impropers

           1  atom types
           1  bond types
           1  angle types
           0  dihedral types
           0  improper types

0.000000 16.000000 xlo xhi
0.000000 16.000000 ylo yhi
0.000000 1257.000000 zlo zhi


Masses

1 1.000000

Atoms

1 0 1 9.560170 12.096331 448.640991
2 0 1 9.462210 12.414000 449.513000
3 0 1 9.674120 12.617800 450.393005
4 0 1 9.964640 12.712080 451.319000
5 0 1 10.037830 12.584391 452.279999
6 0 1 9.879550 12.366110 453.167999
7 0 1 9.723170 11.855150 453.947998
8 0 1 9.634460 11.479380 454.843018
9 0 1 9.569560 11.262110 455.871002
10 0 1 9.626820 11.288180 456.838989
11 0 1 9.546710 11.364320 457.859985
12 0 1 9.467640 11.476770 458.864014
13 0 1 9.472540 11.301740 459.807983
14 0 1 9.229780 11.196100 460.686005
15 0 1 9.261980 11.179029 461.640015
16 0 1 9.369330 11.064899 462.565979
17 0 1 9.767120 10.765600 463.425995
18 0 1 9.816460 10.006599 463.979004
19 0 1 9.711880 9.258160 464.588989
20 0 1 9.758039 8.498054 465.182983
21 0 1 9.762710 7.880720 465.914001
22 0 1 9.684680 7.405686 466.747986
23 0 1 9.534010 6.963740 467.595001
24 0 1 9.305780 6.414540 468.398987
25 0 1 9.029930 5.996410 469.190979
26 0 1 8.810198 5.746340 470.109985
27 0 1 8.578960 5.771080 471.080994
28 0 1 8.155424 5.738820 472.024994
29 0 1 8.105137 5.503680 473.020996
30 0 1 7.939527 5.488700 473.899994
31 0 1 8.144257 5.706770 474.807983
32 0 1 8.479893 5.838370 475.776001
33 0 1 8.919440 6.143730 476.634003
34 0 1 9.140020 6.198670 477.554993
35 0 1 9.151640 6.126550 478.585022
36 0 1 8.905433 6.072440 479.494995
37 0 1 8.722141 5.930310 480.453979
38 0 1 8.508317 5.714020 481.373993
39 0 1 8.575323 5.914700 482.351013
40 0 1 8.680474 6.331010 483.253998
41 0 1 8.902979 6.520310 484.186005
42 0 1 9.187970 6.827720 485.010010
43 0 1 9.321180 7.126956 485.914978
44 0 1 9.215950 7.279101 486.815979
45 0 1 9.059320 7.520077 487.752014
46 0 1 8.723115 7.719625 488.664978
47 0 1 8.419085 7.768902 489.567993
48 0 1 8.092046 7.841850 490.511993
49 0 1 7.879151 7.924456 491.471985
50 0 1 7.691495 7.849751 492.380005
51 0 1 7.746007 7.758471 493.385010
52 0 1 7.767290 7.572385 494.442017
53 0 1 7.847917 7.595900 495.369019
54 0 1 7.613005 7.382237 496.261993
55 0 1 7.101088 7.457326 497.098999
56 0 1 6.507060 7.546252 497.850006
57 0 1 5.952860 7.616307 498.664978
58 0 1 5.292280 7.344217 499.382996
59 0 1 4.648150 7.116214 500.039001
60 0 1 4.028510 6.855820 500.712006
61 0 1 3.541240 6.341420 501.378998
62 0 1 3.338070 5.530010 501.963013
63 0 1 3.061710 4.717940 502.505981
64 0 1 2.991300 4.068160 503.175995
65 0 1 3.505090 3.675360 503.891998
66 0 1 3.973630 3.596780 504.740997
67 0 1 4.301180 3.863230 505.649994
68 0 1 4.376540 4.442260 506.425995
69 0 1 4.038690 4.942740 507.182983
70 0 1 3.772210 5.529010 507.815002
71 0 1 3.863220 6.157890 508.602997
72 0 1 4.227790 6.587600 509.382996
73 0 1 4.488680 7.169031 510.165009
74 0 1 4.778640 7.381868 511.031006
75 0 1 5.142110 7.667049 511.906006
76 0 1 5.547950 7.844258 512.708984
77 0 1 5.923790 7.842494 513.634033
78 0 1 6.296010 7.574970 514.468018
79 0 1 6.817450 7.297410 515.242981
80 0 1 7.338501 6.892900 515.964966
81 0 1 7.870820 6.328350 516.523987
82 0 1 8.549238 5.868650 517.015015
83 0 1 9.240220 5.812530 517.609985
84 0 1 9.792020 5.809270 518.510010
85 0 1 10.145700 6.010840 519.379028
86 0 1 10.207500 6.170080 520.335022
87 0 1 10.092890 6.410460 521.265015
88 0 1 9.952670 6.916970 522.085999
89 0 1 9.499920 7.498010 522.692017
90 0 1 9.035380 7.784609 523.463989
91 0 1 8.591496 7.980395 524.307007
92 0 1 8.001842 8.452231 524.990967
93 0 1 7.218366 8.645200 525.507019
94 0 1 6.658930 8.766442 526.265991
95 0 1 5.999290 8.705209 527.047974
96 0 1 5.758680 8.887861 527.890991
97 0 1 5.862630 9.244280 528.774780
98 0 1 6.081910 9.331770 529.665894
99 0 1 6.525690 9.433180 530.511292
100 0 1 6.991950 9.524790 531.368713
101 0 1 7.285322 9.562860 532.298523
102 0 1 7.528607 9.424720 533.210022
103 0 1 7.773520 9.187520 534.099792
104 0 1 7.909328 8.972841 535.069824
105 0 1 8.018321 8.961230 535.978210
106 0 1 8.186184 9.168940 536.987671
107 0 1 8.116907 9.491280 537.884888
108 0 1 7.994009 9.797450 538.841614
109 0 1 8.077422 9.960300 539.759521
110 0 1 8.445252 10.202530 540.586792
111 0 1 8.612195 10.230790 541.544495
112 0 1 8.962315 10.046970 542.460388
113 0 1 9.096360 10.156670 543.389526
114 0 1 9.302080 10.400949 544.301514
115 0 1 9.516730 10.433140 545.310791
116 0 1 9.387910 10.338670 546.310913
117 0 1 9.324010 9.897710 547.254395
118 0 1 9.167170 9.810170 548.229797
119 0 1 8.843772 9.518760 549.084717
120 0 1 8.572598 9.121320 549.865479
121 0 1 8.327643 8.925067 550.717590
122 0 1 7.966468 8.716104 551.536926
123 0 1 7.530816 8.564387 552.348694
124 0 1 7.046384 8.556151 553.203003
125 0 1 6.718840 8.749883 554.129272
126 0 1 6.565040 8.805152 555.143982
127 0 1 6.377520 8.931930 556.029480
128 0 1 6.101090 9.316170 556.936218
129 0 1 5.913540 9.980560 557.673523
130 0 1 5.912080 10.561370 558.463501
131 0 1 5.978250 10.865650 559.388977
132 0 1 5.978010 11.098600 560.325806
133 0 1 6.122930 11.194000 561.257202
134 0 1 6.199800 11.341940 562.217224
135 0 1 6.150700 11.190720 563.205688
136 0 1 6.234540 10.822840 564.129028
137 0 1 6.148490 10.306380 564.939331
138 0 1 5.917900 9.966040 565.819214
139 0 1 5.739930 9.663100 566.794128
140 0 1 5.721230 9.709560 567.750732
141 0 1 5.890200 9.616630 568.713318
142 0 1 5.970790 9.770020 569.644226
143 0 1 5.994250 9.868380 570.638794
144 0 1 6.013340 9.929060 571.557678
145 0 1 6.242470 9.961100 572.554626
146 0 1 6.743100 10.005460 573.383728
147 0 1 7.379696 9.794860 574.021484
148 0 1 8.006101 9.485530 574.677795
149 0 1 8.360673 9.251530 575.578003
150 0 1 8.572416 9.025180 576.482788
151 0 1 9.010620 8.690979 577.275391
152 0 1 9.502640 8.629394 578.093018
153 0 1 9.861270 8.450372 579.032776
154 0 1 10.107410 8.454703 579.944275
155 0 1 9.944160 8.203162 580.880798
156 0 1 9.875400 8.062395 581.838196
157 0 1 9.906820 8.073318 582.828003
158 0 1 9.798270 8.331567 583.749512
159 0 1 9.449240 8.376309 584.666199
160 0 1 9.389250 8.238214 585.583374
161 0 1 9.164940 8.062200 586.539490
162 0 1 8.428734 7.859992 587.200012
163 0 1 7.693627 7.621405 587.816223
164 0 1 7.006664 7.451385 588.376709
165 0 1 6.291470 7.637361 589.007568
166 0 1 5.554180 7.601954 589.800781
167 0 1 5.238180 7.716861 590.684387
168 0 1 4.793330 7.479577 591.455383
169 0 1 4.773700 7.357099 592.392822
170 0 1 4.533170 7.073166 593.315491
171 0 1 4.737420 6.520550 594.108582
172 0 1 4.626490 5.894510 594.880371
173 0 1 4.592220 5.177020 595.504822
174 0 1 4.495330 4.323800 595.924927
175 0 1 4.718160 3.790860 596.622192
176 0 1 5.154360 3.652830 597.450500
177 0 1 5.534170 3.735800 598.328003
178 0 1 5.593260 3.835440 599.305420
179 0 1 5.732940 3.994650 600.201111
180 0 1 5.859400 4.296520 601.098572
181 0 1 6.038990 4.734210 601.902222
182 0 1 6.129640 5.013010 602.865112
183 0 1 6.327850 5.457330 603.740784
184 0 1 6.713090 5.762520 604.536987
185 0 1 7.147429 5.937050 605.364075
186 0 1 7.734698 6.215980 606.081909
187 0 1 8.221495 6.647720 606.821899
188 0 1 8.547912 7.251963 607.463501
189 0 1 8.810736 7.943090 608.153931
190 0 1 9.035880 8.642927 608.718201
191 0 1 8.992322 9.382850 609.349976
192 0 1 9.069360 9.661330 610.245789
193 0 1 8.990937 9.987900 611.123291
194 0 1 9.051060 10.242860 612.074890
195 0 1 9.039780 9.981100 613.023499
196 0 1 8.963004 9.866270 613.938782
197 0 1 8.756703 9.763960 614.882385
198 0 1 8.301963 9.898300 615.705505
199 0 1 7.519589 10.020750 616.190613
200 0 1 6.694850 10.330250 616.612671
201 0 1 5.986390 10.250690 617.256287
202 0 1 5.855780 9.674320 618.086670
203 0 1 5.731170 9.186590 618.925110
204 0 1 5.751570 8.873118 619.823181
205 0 1 5.495340 8.609346 620.662415
206 0 1 5.221920 8.297109 621.616882
207 0 1 5.008220 8.347337 622.624390
208 0 1 4.662800 8.543337 623.580750
209 0 1 4.617760 8.399653 624.491760
210 0 1 4.368170 8.220032 625.375183
211 0 1 4.090580 8.079698 626.301819
212 0 1 4.164890 7.850457 627.317932
213 0 1 4.278620 7.899381 628.302673
214 0 1 4.502190 7.892690 629.224060
215 0 1 4.624040 8.078235 630.097534
216 0 1 4.718090 7.922215 631.011780
217 0 1 4.852890 8.045683 631.964417
218 0 1 4.798810 8.393926 632.993530
219 0 1 5.308960 8.559009 633.840393
220 0 1 5.575850 8.769764 634.802307
221 0 1 6.104440 9.082040 635.526550
222 0 1 6.500120 9.645080 636.159973
223 0 1 7.072174 10.113600 636.765198
224 0 1 7.701341 10.254310 637.497131
225 0 1 8.188040 10.458740 638.306580
226 0 1 8.384601 10.238980 639.222778
227 0 1 8.217846 9.921360 640.153076
228 0 1 7.885296 9.684650 640.992676
229 0 1 7.390906 9.798680 641.857117
230 0 1 6.965880 10.089320 642.624695
231 0 1 6.518100 10.562429 643.382874
232 0 1 6.425620 11.210350 644.100891
233 0 1 6.224860 11.712780 644.936890
234 0 1 6.207410 12.106060 645.856018
235 0 1 6.457490 12.521160 646.699219
236 0 1 6.616900 12.660920 647.637329
237 0 1 6.806900 12.643620 648.654175
238 0 1 6.754330 12.695021 649.599304
239 0 1 6.682790 12.443130 650.581909
240 0 1 6.596230 12.256060 651.485229
241 0 1 6.641450 12.045800 652.421692
242 0 1 6.757460 11.796980 653.370911
243 0 1 6.727180 11.768470 654.314514
244 0 1 6.681240 11.801380 655.309998
245 0 1 6.683140 11.587811 656.204590
246 0 1 6.440060 11.330130 657.132507
247 0 1 6.001180 11.278230 658.052490
248 0 1 5.799170 11.464680 658.979614
249 0 1 5.568630 11.718730 659.843811
250 0 1 5.404980 11.882050 660.755310
251 0 1 5.255090 12.122040 661.702820
252 0 1 5.154160 12.341090 662.649719
253 0 1 5.030320 12.264410 663.633179
254 0 1 4.849590 12.031651 664.556396
255 0 1 4.598140 11.939860 665.446716
256 0 1 4.812820 11.512540 666.293701
257 0 1 4.485560 11.146740 667.133484
258 0 1 4.205590 10.468210 667.837524
259 0 1 3.825130 9.820190 668.419189
260 0 1 3.288840 9.162690 668.975098
261 0 1 2.768010 8.511028 669.413818
262 0 1 2.485700 7.801067 669.997498
263 0 1 2.237000 7.096379 670.575623
264 0 1 2.194050 6.364920 671.255005
265 0 1 2.311300 5.942770 672.062988
266 0 1 2.374170 5.301990 672.846008
267 0 1 2.699350 4.694390 673.516724
268 0 1 3.354150 4.187660 674.164124
269 0 1 4.117260 4.090750 674.803894
270 0 1 4.903580 4.287570 675.306824
271 0 1 5.729550 4.602990 675.779602
272 0 1 6.295270 5.358120 676.067871
273 0 1 6.921190 5.752350 676.680176
274 0 1 7.341343 6.251230 677.372192
275 0 1 8.018728 6.705380 677.879211
276 0 1 8.689380 7.145364 678.425293
277 0 1 9.231570 7.598046 679.038391
278 0 1 9.583500 8.085505 679.781982
279 0 1 9.966770 8.611540 680.437317
280 0 1 9.908200 9.293340 681.041321
281 0 1 10.081520 10.101120 681.643188
282 0 1 10.308460 10.981540 681.978516
283 0 1 10.307720 11.835780 682.498779
284 0 1 10.283270 12.620940 683.079895
285 0 1 10.706490 13.120370 683.801208
286 0 1 10.917800 13.425940 684.748596
287 0 1 11.101210 13.468670 685.693787
288 0 1 11.428400 13.371260 686.582214
289 0 1 11.869250 13.252490 687.455688
290 0 1 12.265961 12.947880 688.244019
291 0 1 12.551240 12.531890 689.131409
292 0 1 13.046880 12.241750 689.875427
293 0 1 13.236259 12.035210 690.805481
294 0 1 13.512260 11.806100 691.676025
295 0 1 13.738520 11.608231 692.592285
296 0 1 13.877100 11.429470 693.465881
297 0 1 13.624580 11.023220 694.296814
298 0 1 13.452190 10.636730 695.164124
299 0 1 13.467649 10.190860 695.956116
300 0 1 13.577311 9.596680 696.659424
301 0 1 13.642350 8.965155 697.344604
302 0 1 13.455999 8.698036 698.233215
303 0 1 13.139050 8.470531 699.170105
304 0 1 13.009510 8.101959 700.047913
305 0 1 12.787951 7.709195 700.943726
306 0 1 12.177919 7.640729 701.673828
307 0 1 11.647160 7.391090 702.419922
308 0 1 10.842421 7.220178 702.960815
309 0 1 9.919170 7.250314 703.548706
310 0 1 9.343360 7.092205 704.292480
311 0 1 8.653551 7.023068 705.096191
312 0 1 7.912575 7.051453 705.711304
313 0 1 7.078550 7.398870 706.109009
314 0 1 6.435590 7.575511 706.765503
315 0 1 5.934440 7.953331 707.609192
316 0 1 5.588150 8.263070 708.441895
317 0 1 4.931910 8.657180 709.140869
318 0 1 4.449490 8.580702 709.997192
319 0 1 4.132930 8.619234 710.860291
320 0 1 3.845650 8.682532 711.779907
321 0 1 3.649250 8.724823 712.762512
322 0 1 3.561590 8.804103 713.740967
323 0 1 3.383610 8.763858 714.719421
324 0 1 3.351520 9.126980 715.647095
325 0 1 3.503510 9.228450 716.598694
326 0 1 3.659940 9.605610 717.571533
327 0 1 3.901200 10.135070 718.301392
328 0 1 4.185120 10.552120 719.092224
329 0 1 4.226340 10.936700 719.954895
330 0 1 4.518430 10.920550 720.843628
331 0 1 5.043750 11.309771 721.587219
332 0 1 5.471240 11.579940 722.417908
333 0 1 5.699950 11.665250 723.322876
334 0 1 5.763730 12.026850 724.259033
335 0 1 5.832500 12.468040 725.061096
336 0 1 6.011570 12.814600 725.954468
337 0 1 6.509450 12.811900 726.765686
338 0 1 6.873160 12.554250 727.650208
339 0 1 7.206373 12.219220 728.486877
340 0 1 7.537408 11.820080 729.323975
341 0 1 7.324846 11.465930 730.187012
342 0 1 7.097876 11.148960 731.047974
343 0 1 7.090972 10.959500 731.963013
344 0 1 6.997650 10.954720 732.952026
345 0 1 6.783900 10.842240 733.877014
346 0 1 6.727940 10.867370 734.880981
347 0 1 6.983000 10.828620 735.770996
348 0 1 7.428673 10.689600 736.734985
349 0 1 7.686154 10.166770 737.544983
350 0 1 8.332160 9.766700 738.143982
351 0 1 8.975281 9.530600 738.768982
352 0 1 9.334910 9.174210 739.596008
353 0 1 9.808930 8.767398 740.349976
354 0 1 10.372840 8.410711 741.004028
355 0 1 10.777140 8.199424 741.893005
356 0 1 11.078720 7.966502 742.778992
357 0 1 11.102660 7.858526 743.687012
358 0 1 10.983240 7.778185 744.619019
359 0 1 10.770340 7.499569 745.521973
360 0 1 10.535170 7.413614 746.489990
361 0 1 10.360110 7.410692 747.432007
362 0 1 10.242200 7.348649 748.414001
363 0 1 10.389930 7.372818 749.406006
364 0 1 10.533990 7.692229 750.318970
365 0 1 10.745530 7.769659 751.237976
366 0 1 10.834420 7.634596 752.237000
367 0 1 10.796120 7.411850 753.203979
368 0 1 11.184970 7.577833 754.039978
369 0 1 11.622180 7.927460 754.884033
370 0 1 11.946780 8.443458 755.622009
371 0 1 12.162750 8.916526 756.528992
372 0 1 11.933030 9.420959 757.286987
373 0 1 11.674530 10.177980 757.884033
374 0 1 11.077480 10.763550 758.281982
375 0 1 10.439070 11.241470 758.901978
376 0 1 9.911250 11.342780 759.692993
377 0 1 9.530860 11.459690 760.554993
378 0 1 9.078140 11.533689 761.440002
379 0 1 9.026610 11.087310 762.252014
380 0 1 8.790949 10.832120 763.127014
381 0 1 8.638872 10.597260 764.033020
382 0 1 8.495405 10.539840 764.973999
383 0 1 8.407277 10.536860 765.893982
384 0 1 8.351139 10.602070 766.903992
385 0 1 8.555701 10.788290 767.799988
386 0 1 8.683295 11.132490 768.695984
387 0 1 8.675249 11.269540 769.681030
388 0 1 8.490734 11.568230 770.559998
389 0 1 8.353276 11.504890 771.542969
390 0 1 8.139170 11.380650 772.460999
391 0 1 7.888720 11.038580 773.309998
392 0 1 7.646597 10.447380 774.005981
393 0 1 7.333575 10.083260 774.815979
394 0 1 7.081691 9.956230 775.739014
395 0 1 7.033285 9.980330 776.656982
396 0 1 7.174201 10.278830 777.591003
397 0 1 6.991440 10.363610 778.562012
398 0 1 6.707350 10.418600 779.464966
399 0 1 6.606940 10.405510 780.422974
400 0 1 6.388650 10.345400 781.330994
401 0 1 6.344100 10.115650 782.268005
402 0 1 6.435070 9.776970 783.197021
403 0 1 6.398230 9.713140 784.119995
404 0 1 6.499230 9.511460 785.078003
405 0 1 6.395630 9.161551 785.945984
406 0 1 6.144720 8.666844 786.796021
407 0 1 5.909370 8.322355 787.620972
408 0 1 5.611560 7.811602 788.502014
409 0 1 5.384010 7.264563 789.195007
410 0 1 5.382050 6.676140 789.911011
411 0 1 5.335710 6.447040 790.828979
412 0 1 5.241630 6.440280 791.755005
413 0 1 5.313840 6.691950 792.764038
414 0 1 5.485260 7.062027 793.604004
415 0 1 5.541050 7.124451 794.541992
416 0 1 5.703030 6.726180 795.460022
417 0 1 5.939650 6.119580 796.166016
418 0 1 6.066920 5.717350 797.085999
419 0 1 6.653200 5.356240 797.806030
420 0 1 7.411333 5.135420 798.395020
421 0 1 8.004063 5.068970 799.151978
422 0 1 8.521023 4.948640 799.908020
423 0 1 9.048260 4.743190 800.734009
424 0 1 9.448510 4.579370 801.554016
425 0 1 10.093700 4.745500 802.315002
426 0 1 10.768050 4.933120 803.042969
427 0 1 11.191280 5.101370 803.908997
428 0 1 11.430090 5.087950 804.846008
429 0 1 11.868310 5.176780 805.698975
430 0 1 12.121840 5.235770 806.634033
431 0 1 12.409781 5.277820 807.551025
432 0 1 12.856010 5.246790 808.410034
433 0 1 13.318951 5.171270 809.237000
434 0 1 13.938760 5.261850 810.049011
435 0 1 14.334550 5.760620 810.812988
436 0 1 14.508960 6.178820 811.648987
437 0 1 14.567210 6.672070 812.471008
438 0 1 14.507690 7.106186 813.328003
439 0 1 14.351550 7.441379 814.195984
440 0 1 14.100340 7.687434 815.054016
441 0 1 13.866261 7.866486 815.942017
442 0 1 13.433060 8.302738 816.662964
443 0 1 13.126190 8.920089 817.442993
444 0 1 13.023650 9.694820 818.083008
445 0 1 12.917430 10.330050 818.796997
446 0 1 12.760590 10.903560 819.557983
447 0 1 12.667470 11.684550 820.051025
448 0 1 12.594561 12.200530 820.893005
449 0 1 12.336590 12.313990 821.817993
450 0 1 12.301970 12.044069 822.700989
451 0 1 12.223330 11.320670 823.437012
452 0 1 12.531190 10.551130 823.945007
453 0 1 12.634040 9.718310 824.473999
454 0 1 12.653400 9.225810 825.343018
455 0 1 12.433620 8.871065 826.167969
456 0 1 12.390170 8.631517 827.143982
457 0 1 12.664690 8.589640 828.078003
458 0 1 12.692760 8.530429 829.000977
459 0 1 12.632360 8.537402 829.938965
460 0 1 12.435870 8.359583 830.906006
461 0 1 12.039570 8.121480 831.809021
462 0 1 11.674000 8.059331 832.721008
463 0 1 11.305170 8.133034 833.615967
464 0 1 10.941290 7.949865 834.510010
465 0 1 10.368320 7.806680 835.266968
466 0 1 9.807990 7.251293 835.820007
467 0 1 9.140350 6.776170 836.337036
468 0 1 8.414426 6.321230 836.742004
469 0 1 7.481020 6.023800 836.906006
470 0 1 6.656560 5.652840 836.903992
471 0 1 5.716430 5.548080 836.669006
472 0 1 4.792470 5.421800 836.198975
473 0 1 4.073630 5.490150 835.520996
474 0 1 3.414010 5.562130 834.770020
475 0 1 2.887620 5.811580 834.049011
476 0 1 2.503220 6.276240 833.338013
477 0 1 2.224850 6.759990 832.561035
478 0 1 1.957030 6.861980 831.598999
479 0 1 1.733240 7.000941 830.729980
480 0 1 1.636250 7.096353 829.770996
481 0 1 1.489840 7.119680 828.765991
482 0 1 1.307240 7.231812 827.797974
483 0 1 1.304430 7.366260 826.820007
484 0 1 1.499430 7.592376 825.867004
485 0 1 1.870510 7.960383 825.039001
486 0 1 2.276040 8.612016 824.363037
487 0 1 2.566910 9.274200 823.735962
488 0 1 2.655500 9.852980 823.002991
489 0 1 2.634300 10.540830 822.229004
490 0 1 2.721200 11.226210 821.546997
491 0 1 2.944670 11.691470 820.723022
492 0 1 3.048050 11.920480 819.804016
493 0 1 3.455080 12.298510 818.999023
494 0 1 3.877000 12.710020 818.182983
495 0 1 4.236170 12.586250 817.250977
496 0 1 4.649080 12.249550 816.489990
497 0 1 4.684660 11.739930 815.734985
498 0 1 4.771710 11.130590 814.987000
499 0 1 4.932140 10.639410 814.164001
500 0 1 5.067110 10.428500 813.271973
501 0 1 4.978140 10.143390 812.343994
502 0 1 4.899950 9.772350 811.474976
503 0 1 4.632700 9.350300 810.615967
504 0 1 4.324080 8.961184 809.765015
505 0 1 4.163170 8.243430 809.091980
506 0 1 4.279240 7.329558 808.707031
507 0 1 4.352750 6.690420 808.010010
508 0 1 4.274930 6.339530 807.114014
509 0 1 4.659180 6.038650 806.286987
510 0 1 4.943910 5.532280 805.556030
511 0 1 5.137330 5.082110 804.687988
512 0 1 5.284980 4.651930 803.818970
513 0 1 5.526970 4.396610 802.966003
514 0 1 5.644720 4.105920 802.062012
515 0 1 5.700340 3.848490 801.179016
516 0 1 5.836450 3.723000 800.182983
517 0 1 6.179070 3.570900 799.322021
518 0 1 6.598150 3.493840 798.497986
519 0 1 7.252813 3.582670 797.838013
520 0 1 7.743458 3.574830 797.085999
521 0 1 8.363184 3.601640 796.421997
522 0 1 9.148390 3.636310 795.815002
523 0 1 9.711510 3.580060 795.083008
524 0 1 10.272430 3.412750 794.333984
525 0 1 10.952800 3.162630 793.710022
526 0 1 11.736090 3.052890 793.065979
527 0 1 12.242479 2.935430 792.270020
528 0 1 12.526490 3.060690 791.333984
529 0 1 12.223600 3.090090 790.405029
530 0 1 11.959930 3.129580 789.466980
531 0 1 11.703840 3.282360 788.608032
532 0 1 11.799940 3.503910 787.700989
533 0 1 11.809669 3.859830 786.846985
534 0 1 11.641780 4.221700 785.994019
535 0 1 11.428730 4.496470 785.104004
536 0 1 11.343490 4.920020 784.278015
537 0 1 11.338010 5.261670 783.384033
538 0 1 11.221700 5.555630 782.398987
539 0 1 11.093850 5.582820 781.488037
540 0 1 11.366640 5.738230 780.606995
541 0 1 11.474120 6.069800 779.716980
542 0 1 11.548640 6.239240 778.755981
543 0 1 11.283230 6.504690 777.773987
544 0 1 11.063590 6.644120 776.820007
545 0 1 11.148640 6.727120 775.908020
546 0 1 11.460030 6.682010 774.953979
547 0 1 11.779470 6.397190 774.052002
548 0 1 12.239480 6.152220 773.250000
549 0 1 12.457140 6.465790 772.309021
550 0 1 12.760469 6.937110 771.514038
551 0 1 12.965919 7.304115 770.594971
552 0 1 13.543290 7.803100 769.927002
553 0 1 13.736071 8.376050 769.091980
554 0 1 13.486640 8.775824 768.223999
555 0 1 13.318710 9.192130 767.375977
556 0 1 13.018510 9.687860 766.630005
557 0 1 12.602739 10.001250 765.778015
558 0 1 12.007230 10.336639 764.932983
559 0 1 11.847890 10.472640 764.014038
560 0 1 11.717751 10.034960 763.179016
561 0 1 11.543680 9.764080 762.268005
562 0 1 11.326000 9.343210 761.380005
563 0 1 10.823550 9.032670 760.612000
564 0 1 10.210210 8.905690 759.919006
565 0 1 9.674320 8.881529 759.161011
566 0 1 9.435090 9.002980 758.292969
567 0 1 9.163050 8.981927 757.393982
568 0 1 9.006701 8.946553 756.439026
569 0 1 8.943161 8.955997 755.481018
570 0 1 8.925915 8.963564 754.542969
571 0 1 8.856120 9.058780 753.588989
572 0 1 8.682786 9.072530 752.648987
573 0 1 8.822151 9.334380 751.721008
574 0 1 8.915676 9.790660 750.927002
575 0 1 8.679300 10.213370 750.088989
576 0 1 8.481883 10.248350 749.164001
577 0 1 8.468176 9.986710 748.216003
578 0 1 8.328332 9.632150 747.273010
579 0 1 8.001775 9.340570 746.443970
580 0 1 7.406141 8.689310 746.218994
581 0 1 7.029905 8.131358 745.427979
582 0 1 6.635860 7.536244 744.737976
583 0 1 6.121300 7.008663 744.086975
584 0 1 6.016780 6.441600 743.275024
585 0 1 5.890680 6.174590 742.339966
586 0 1 6.023140 6.257810 741.367981
587 0 1 5.988520 6.177370 740.406006
588 0 1 5.976610 6.236080 739.408020
589 0 1 5.994380 6.308460 738.405029
590 0 1 5.782070 6.407940 737.463989
591 0 1 5.481260 6.351830 736.505005
592 0 1 5.553510 6.423010 735.492981
593 0 1 5.631760 6.594180 734.567017
594 0 1 5.769260 6.674730 733.559998
595 0 1 6.072060 6.737610 732.614014
596 0 1 6.264920 6.716410 731.632996
597 0 1 6.509380 6.890000 730.690002
598 0 1 6.892300 7.133138 729.849976
599 0 1 7.640994 7.236929 729.221985
600 0 1 8.394977 7.242748 728.565002
601 0 1 9.017760 7.105297 727.793579
602 0 1 9.628890 6.780830 727.011414
603 0 1 10.491000 6.537210 726.533325
604 0 1 11.123060 6.137080 725.961670
605 0 1 11.487240 6.028000 725.085022
606 0 1 11.617380 5.857380 724.033875
607 0 1 11.609780 5.858780 723.066528
608 0 1 11.692580 5.723850 722.110779
609 0 1 11.536790 5.738830 721.167114
610 0 1 11.315550 5.658920 720.269531
611 0 1 10.925740 5.524690 719.404724
612 0 1 10.712070 5.408570 718.418091
613 0 1 10.707520 5.547520 717.498474
614 0 1 10.954760 5.700550 716.619202
615 0 1 11.000410 5.580740 715.654114
616 0 1 11.087180 5.472290 714.660706
617 0 1 11.043310 5.416560 713.697083
618 0 1 11.062620 5.190370 712.741516
619 0 1 11.116930 4.833710 711.859497
620 0 1 10.751940 4.527060 710.917419
621 0 1 10.547660 3.984640 710.171875
622 0 1 10.573270 3.605540 709.299683
623 0 1 10.332240 3.427610 708.393799
624 0 1 10.528080 3.442950 707.458801
625 0 1 10.896080 3.433110 706.537415
626 0 1 11.142160 3.446030 705.607422
627 0 1 11.253640 3.438610 704.699524
628 0 1 11.586800 3.438420 703.720398
629 0 1 11.603940 3.639890 702.777283
630 0 1 11.604500 3.949100 701.872620
631 0 1 11.179580 4.384080 701.078613
632 0 1 10.775940 4.787390 700.318481
633 0 1 10.620950 5.264280 699.492981
634 0 1 10.623060 5.624950 698.597595
635 0 1 10.415070 5.795160 697.611023
636 0 1 10.288490 5.960990 696.672485
637 0 1 9.979280 5.899060 695.776917
638 0 1 10.052780 5.931500 694.848999
639 0 1 10.264830 5.967430 693.945496
640 0 1 10.598220 5.894120 692.992004
641 0 1 10.578790 5.608530 692.049377
642 0 1 10.591030 5.253460 691.171692
643 0 1 10.832290 4.656330 690.346191
644 0 1 10.926291 4.705040 689.414490
645 0 1 11.083920 4.469470 688.425476
646 0 1 11.325630 4.230060 687.512085
647 0 1 11.384480 3.909620 686.582214
648 0 1 11.143300 3.708360 685.523987
649 0 1 10.763230 3.891520 684.644226
650 0 1 10.489850 4.108660 683.714783
651 0 1 10.577480 4.681670 682.926514
652 0 1 10.968140 5.312020 682.338318
653 0 1 11.375580 5.934240 681.764893
654 0 1 11.457610 6.346860 680.907776
655 0 1 11.615750 6.624280 680.011780
656 0 1 12.008210 6.444220 679.211426
657 0 1 12.257771 6.414670 678.240295
658 0 1 12.488860 6.167660 677.264404
659 0 1 12.365931 5.757290 676.402222
660 0 1 12.111660 5.647410 675.489807
661 0 1 11.794519 5.506820 674.617920
662 0 1 11.386971 5.326780 673.704285
663 0 1 11.068399 5.313440 672.823120
664 0 1 10.637671 5.074620 672.023010
665 0 1 10.317530 4.920360 671.144775
666 0 1 10.032850 4.592480 670.321106
667 0 1 9.725610 4.343020 669.409485
668 0 1 9.467670 4.110490 668.516907
669 0 1 9.206390 3.901420 667.617676
670 0 1 9.059880 3.873060 666.655701
671 0 1 9.040800 3.997760 665.683899
672 0 1 8.953107 4.047990 664.717529
673 0 1 9.108150 3.892030 663.785400
674 0 1 9.460820 4.239650 662.844971
675 0 1 9.910520 4.388560 661.963013
676 0 1 10.488570 4.570890 661.194580
677 0 1 11.160780 4.567120 660.492615
678 0 1 11.491970 4.535320 659.599609
679 0 1 11.758060 4.590420 658.586304
680 0 1 11.796570 4.632340 657.650696
681 0 1 11.470440 4.600400 656.749573
682 0 1 11.080450 4.847260 655.896179
683 0 1 10.728010 5.278120 655.108582
684 0 1 10.647680 5.644630 654.233826
685 0 1 10.632730 6.024400 653.326111
686 0 1 10.956500 6.519280 652.513916
687 0 1 11.318510 6.763440 651.616821
688 0 1 11.549789 6.983460 650.712891
689 0 1 11.781760 7.164530 649.824280
690 0 1 11.863970 7.115119 648.833313
691 0 1 11.915100 6.896050 647.882202
692 0 1 11.927810 6.669810 646.962219
693 0 1 11.848770 6.543210 645.984802
694 0 1 12.025470 6.626340 645.039673
695 0 1 12.293050 6.889690 644.102905
696 0 1 12.822491 6.894550 643.262329
697 0 1 13.226570 7.077867 642.375000
698 0 1 13.169780 7.141434 641.462402
699 0 1 12.870340 7.034684 640.492615
700 0 1 12.585831 7.009046 639.519409
701 0 1 12.737511 7.129738 638.566101
702 0 1 12.686300 7.053518 637.579285
703 0 1 12.654039 7.053336 636.587341
704 0 1 12.463810 7.189760 635.672546
705 0 1 12.235620 7.363870 634.788513
706 0 1 12.035460 7.606270 633.876831
707 0 1 11.551820 7.640356 633.072083
708 0 1 11.070830 7.442674 632.227600
709 0 1 10.590780 7.552760 631.373291
710 0 1 9.953510 7.508640 630.577820
711 0 1 9.346260 7.403065 629.888062
712 0 1 8.737865 7.238751 629.139282
713 0 1 8.159105 7.119064 628.345764
714 0 1 7.676373 6.781270 627.650757
715 0 1 7.348709 6.600870 626.798462
716 0 1 7.125985 6.527010 625.832642
717 0 1 6.875820 6.310300 624.948059
718 0 1 6.713660 6.261830 624.007385
719 0 1 6.513960 5.968490 623.114746
720 0 1 6.065510 5.722080 622.276428
721 0 1 5.556060 5.785740 621.483337
722 0 1 4.980710 5.966200 620.723145
723 0 1 4.666550 6.069340 619.848267
724 0 1 4.341730 6.146880 619.012329
725 0 1 4.259640 6.048150 618.061279
726 0 1 4.527760 6.057230 617.096619
727 0 1 4.921960 6.227750 616.283875
728 0 1 5.423470 6.185920 615.479370
729 0 1 5.995540 6.010920 614.717285
730 0 1 6.755720 6.109570 614.127991
731 0 1 7.473238 5.984800 613.511292
732 0 1 8.137912 5.777380 612.767212
733 0 1 8.748777 5.703540 612.070129
734 0 1 9.154250 5.762330 611.223999
735 0 1 9.523820 5.868760 610.341675
736 0 1 9.897770 5.629980 609.490723
737 0 1 9.942590 5.408730 608.539185
738 0 1 9.691710 4.906480 607.809326
739 0 1 9.563850 4.566260 606.907410
740 0 1 9.540510 4.556830 605.960693
741 0 1 9.472430 4.400000 605.007812
742 0 1 9.132920 4.133210 604.116516
743 0 1 8.611586 4.067410 603.307800
744 0 1 8.105349 3.884580 602.487793
745 0 1 7.629592 3.519740 601.763184
746 0 1 7.048144 3.402810 600.936401
747 0 1 6.825220 3.074980 600.006104
748 0 1 6.853470 2.997010 599.058228
749 0 1 6.856530 2.804330 598.117981
750 0 1 6.814580 2.878870 597.177979
751 0 1 6.748370 3.255490 596.249390
752 0 1 6.874490 3.464620 595.312805
753 0 1 7.129834 3.682550 594.317810
754 0 1 7.527676 3.767790 593.390198
755 0 1 7.798675 4.065420 592.576904
756 0 1 7.904915 4.392340 591.665283
757 0 1 7.552398 4.818410 590.912781
758 0 1 7.309560 5.109490 589.977478
759 0 1 6.788110 5.586090 589.323608
760 0 1 6.154870 5.998240 588.749573
761 0 1 5.530820 6.413880 588.228882
762 0 1 4.902070 6.569040 587.565002
763 0 1 4.223190 6.756180 586.903076
764 0 1 3.649020 6.838730 586.199097
765 0 1 3.021950 6.988890 585.479004
766 0 1 2.500780 6.941060 584.721680
767 0 1 1.895030 6.469490 584.120972
768 0 1 1.679490 5.990960 583.321716
769 0 1 1.698820 5.467020 582.500427
770 0 1 2.044350 5.246780 581.636597
771 0 1 2.358360 5.194880 580.744629
772 0 1 2.648240 5.547260 579.897217
773 0 1 2.890670 5.992170 579.066101
774 0 1 3.178630 6.419810 578.231873
775 0 1 3.516590 6.349180 577.327393
776 0 1 3.715100 6.208460 576.320190
777 0 1 3.975020 6.203540 575.427185
778 0 1 4.383090 6.287850 574.565979
779 0 1 4.764110 6.318670 573.660278
780 0 1 5.052010 6.398370 572.733215
781 0 1 5.193780 6.330670 571.820679
782 0 1 5.070580 6.479470 570.848572
783 0 1 5.030940 6.402100 569.879700
784 0 1 4.801970 6.565880 568.924500
785 0 1 4.724720 6.648900 567.972168
786 0 1 4.614590 6.660760 566.966187
787 0 1 4.684050 6.708830 566.043274
788 0 1 4.865080 6.673400 565.018494
789 0 1 5.070070 6.940840 564.124878
790 0 1 5.330100 6.952660 563.237427
791 0 1 5.617110 6.909420 562.358887
792 0 1 6.096270 6.622730 561.558411