LAMMPS data file via MDAnalysis

        1000  atoms
        1000  bonds
        1000  angles
           0  dihedrals
           0  impropers

           1  atom types
           1  bond types
           1  angle types
           0  dihedral types
           0  improper types

0.000000 16.000000 xlo xhi
0.000000 16.000000 ylo yhi
0.000000 1257.000000 zlo zhi


Masses

1 1.000000

Atoms

1 0 1 8.221949 3.888450 442.143005
2 0 1 8.736787 3.798910 442.981995
3 0 1 9.257500 3.826960 443.789001
4 0 1 9.799110 3.901830 444.602997
5 0 1 10.280519 4.035430 445.373993
6 0 1 10.806740 4.282800 446.112000
7 0 1 11.066250 4.364950 447.039978
8 0 1 11.161510 4.843880 447.812012
9 0 1 11.220130 5.331960 448.718018
10 0 1 11.398060 5.802090 449.593018
11 0 1 11.688300 5.939660 450.528015
12 0 1 11.811640 5.958420 451.466980
13 0 1 11.701420 6.059730 452.377991
14 0 1 11.547820 6.183840 453.354980
15 0 1 11.361870 6.443030 454.320984
16 0 1 11.525410 6.593250 455.240997
17 0 1 11.699380 6.620720 456.174988
18 0 1 11.746901 6.782120 457.143982
19 0 1 11.813410 6.822570 458.125000
20 0 1 11.874580 7.115002 458.979980
21 0 1 11.941190 7.109849 459.947998
22 0 1 12.087060 7.050504 460.852997
23 0 1 12.502930 7.365003 461.653992
24 0 1 12.796460 7.546445 462.559998
25 0 1 13.183810 7.903106 463.330994
26 0 1 13.251340 8.077328 464.324005
27 0 1 13.266920 8.504304 465.268005
28 0 1 13.215080 8.886940 466.171997
29 0 1 13.094960 9.203860 467.119019
30 0 1 13.043070 9.077590 468.078979
31 0 1 12.958480 9.294190 468.951996
32 0 1 12.908300 9.340740 469.924988
33 0 1 12.634430 9.242430 470.841003
34 0 1 12.491480 8.896680 471.744019
35 0 1 12.198660 8.397216 472.496002
36 0 1 11.682460 7.953818 473.169006
37 0 1 11.198390 7.735574 473.966003
38 0 1 10.762890 7.445071 474.773987
39 0 1 10.265490 7.137817 475.539978
40 0 1 10.068950 7.006661 476.476013
41 0 1 9.891250 6.759820 477.348999
42 0 1 9.285100 6.491070 478.056000
43 0 1 8.814049 6.443970 478.846985
44 0 1 8.117109 6.446440 479.515015
45 0 1 7.266215 6.353520 480.026001
46 0 1 6.589750 6.155500 480.703979
47 0 1 5.948230 6.210690 481.390991
48 0 1 5.583990 6.372360 482.287994
49 0 1 5.419320 6.448710 483.221985
50 0 1 5.297800 6.393040 484.221008
51 0 1 5.021510 6.356900 485.132019
52 0 1 4.765030 6.608980 486.127014
53 0 1 4.688440 6.808160 487.156006
54 0 1 4.491850 7.017015 488.080994
55 0 1 4.148400 7.113134 488.966980
56 0 1 4.007310 7.472071 489.856018
57 0 1 4.204720 7.775074 490.822021
58 0 1 4.134160 7.854938 491.742004
59 0 1 3.663030 7.914198 492.533997
60 0 1 3.422300 8.202841 493.382019
61 0 1 3.425080 8.531693 494.260986
62 0 1 3.683000 9.006920 495.083984
63 0 1 4.005420 9.489600 495.851990
64 0 1 4.327550 9.928990 496.593018
65 0 1 4.905710 10.455040 497.218994
66 0 1 5.408580 10.650300 498.035004
67 0 1 5.883230 10.842500 498.864014
68 0 1 6.107210 11.159480 499.796021
69 0 1 6.246970 11.402360 500.718994
70 0 1 6.712860 11.154409 501.505005
71 0 1 7.156003 10.735000 502.277008
72 0 1 7.557123 10.360980 503.171997
73 0 1 7.578498 9.933420 504.057007
74 0 1 7.856225 9.638990 504.906982
75 0 1 8.133270 9.305320 505.779999
76 0 1 8.404213 8.933109 506.644989
77 0 1 8.545339 8.410728 507.438995
78 0 1 8.567501 8.125615 508.333008
79 0 1 8.520943 7.699576 509.210999
80 0 1 8.597056 6.996430 509.927002
81 0 1 8.867682 6.294110 510.501007
82 0 1 8.921828 5.686870 511.229004
83 0 1 8.610036 5.245630 511.990997
84 0 1 8.053861 5.071270 512.822998
85 0 1 7.753736 4.665480 513.624023
86 0 1 7.283788 4.382660 514.416016
87 0 1 6.838920 4.252060 515.219971
88 0 1 6.469640 4.150070 516.134033
89 0 1 6.400700 4.044400 517.093018
90 0 1 6.365550 3.811100 518.039001
91 0 1 6.169110 3.581130 518.947998
92 0 1 5.986710 3.410010 519.950989
93 0 1 5.913540 3.036410 520.799988
94 0 1 5.911090 3.133880 521.750977
95 0 1 5.606040 3.345180 522.713013
96 0 1 5.166930 3.226730 523.588013
97 0 1 4.742290 3.320420 524.408020
98 0 1 4.636840 3.494820 525.297974
99 0 1 4.370910 3.494250 526.270996
100 0 1 3.969120 3.611280 527.101013
101 0 1 3.449730 3.631650 527.963013
102 0 1 3.190600 3.728540 528.890198
103 0 1 2.959100 3.855310 529.812134
104 0 1 2.982260 3.721610 530.761475
105 0 1 3.098070 3.836800 531.677124
106 0 1 3.087040 3.968670 532.615417
107 0 1 3.244890 4.083990 533.528076
108 0 1 3.339970 4.100060 534.448303
109 0 1 3.314900 4.285090 535.396973
110 0 1 2.892340 4.520640 536.235718
111 0 1 2.774190 4.692700 537.130615
112 0 1 2.908760 4.488880 538.122314
113 0 1 2.937290 4.535680 539.057617
114 0 1 3.269740 4.584400 539.967529
115 0 1 3.837010 4.894650 540.708130
116 0 1 4.237090 5.023120 541.530029
117 0 1 4.533520 5.041870 542.433411
118 0 1 4.795340 5.120290 543.373718
119 0 1 4.979620 5.232860 544.308777
120 0 1 5.188550 5.576460 545.208801
121 0 1 5.333660 5.709600 546.216980
122 0 1 5.113310 5.749550 547.170898
123 0 1 5.144910 6.011980 548.111023
124 0 1 5.083510 5.952260 549.086182
125 0 1 5.305280 5.909520 550.056396
126 0 1 5.776800 5.839390 550.960327
127 0 1 6.025090 5.630350 551.892090
128 0 1 6.489840 5.491300 552.726501
129 0 1 6.907830 5.011550 553.393982
130 0 1 7.140256 4.520540 554.295105
131 0 1 7.448059 4.396300 555.219727
132 0 1 7.768626 4.471990 556.091980
133 0 1 7.949932 4.753500 557.054382
134 0 1 8.157586 4.867760 557.982117
135 0 1 8.451290 5.064290 558.919067
136 0 1 8.721577 5.010850 559.854797
137 0 1 8.944956 5.224860 560.768066
138 0 1 9.017090 5.582960 561.692871
139 0 1 9.268760 6.174790 562.495972
140 0 1 9.570400 6.459530 563.418701
141 0 1 9.695500 6.951210 564.262573
142 0 1 9.804070 7.565216 564.926819
143 0 1 9.931840 8.149391 565.645203
144 0 1 10.122190 8.691452 566.392273
145 0 1 10.419880 9.044180 567.283386
146 0 1 10.809731 9.267990 568.116272
147 0 1 11.167010 9.420540 569.000916
148 0 1 11.619960 9.642020 569.790710
149 0 1 12.176519 9.816690 570.597107
150 0 1 12.478951 10.130090 571.448730
151 0 1 12.356350 10.366470 572.386902
152 0 1 12.098949 10.378070 573.257690
153 0 1 11.741170 10.324680 574.125793
154 0 1 11.240730 10.247060 574.933411
155 0 1 10.789050 10.216200 575.773010
156 0 1 10.345130 10.030800 576.590881
157 0 1 10.154770 9.746469 577.564026
158 0 1 10.005199 9.094160 578.258118
159 0 1 10.180750 8.686032 579.145996
160 0 1 10.447450 8.197632 579.918274
161 0 1 10.804990 7.848560 580.755676
162 0 1 10.976460 7.551506 581.721313
163 0 1 11.506480 7.417532 582.524780
164 0 1 11.798750 7.165399 583.368103
165 0 1 11.748260 7.333178 584.289185
166 0 1 11.581650 7.518001 585.191223
167 0 1 11.034370 7.530434 585.997314
168 0 1 10.637430 7.705230 586.844299
169 0 1 10.188470 7.813693 587.686890
170 0 1 9.483480 7.633309 588.354919
171 0 1 8.842375 7.457147 589.070618
172 0 1 8.256201 7.195458 589.859497
173 0 1 7.968652 6.720250 590.668518
174 0 1 7.749808 6.327600 591.498474
175 0 1 7.451854 5.910980 592.360107
176 0 1 7.202380 5.629210 593.293701
177 0 1 7.217008 5.219650 594.232300
178 0 1 7.260150 4.822990 595.070007
179 0 1 7.418959 4.441650 595.978516
180 0 1 7.722537 4.184190 596.838196
181 0 1 7.874144 3.882390 597.775208
182 0 1 7.972206 3.652060 598.714722
183 0 1 7.948852 3.297480 599.675598
184 0 1 7.920758 3.045030 600.609009
185 0 1 8.064045 3.114260 601.520325
186 0 1 8.308726 3.321730 602.431885
187 0 1 8.641711 3.655040 603.352783
188 0 1 9.110229 3.920470 604.113770
189 0 1 9.578920 3.918280 605.017578
190 0 1 10.014160 4.053180 605.808472
191 0 1 10.645890 4.179750 606.500671
192 0 1 11.204010 4.346850 607.265686
193 0 1 11.856680 4.799990 607.909302
194 0 1 12.455669 5.197880 608.503723
195 0 1 12.871960 5.471800 609.313721
196 0 1 13.164160 5.570600 610.169128
197 0 1 13.300110 5.495080 611.112793
198 0 1 13.492411 5.615960 612.077576
199 0 1 13.418400 5.519780 612.993286
200 0 1 13.495490 5.510040 613.920593
201 0 1 13.357470 5.699370 614.811890
202 0 1 13.132940 5.813970 615.677795
203 0 1 13.164000 5.906590 616.722412
204 0 1 13.118890 6.109960 617.685974
205 0 1 12.972750 6.333910 618.617188
206 0 1 12.656099 6.675440 619.486084
207 0 1 12.229700 7.093914 620.289062
208 0 1 11.607370 7.357290 620.937012
209 0 1 11.136650 7.820466 621.635803
210 0 1 10.630540 8.099400 622.428711
211 0 1 10.477880 8.350200 623.321045
212 0 1 10.514520 8.506046 624.301819
213 0 1 10.475680 8.528846 625.247131
214 0 1 10.361920 8.097996 626.194397
215 0 1 10.464100 7.603376 627.049377
216 0 1 10.516550 6.937800 627.715881
217 0 1 10.567730 6.255750 628.534912
218 0 1 10.691500 5.780460 629.381042
219 0 1 10.749140 5.292280 630.145264
220 0 1 10.729290 5.065030 631.109009
221 0 1 10.683430 4.914960 632.027893
222 0 1 10.631840 4.950460 633.040222
223 0 1 10.694770 4.907380 633.999146
224 0 1 10.443660 4.367670 634.784241
225 0 1 10.568090 3.802110 635.536133
226 0 1 10.792950 3.213010 636.270996
227 0 1 10.610440 2.927540 637.169800
228 0 1 10.344330 2.711520 638.045898
229 0 1 10.037730 2.464610 638.912170
230 0 1 9.945971 2.357650 639.854614
231 0 1 10.227340 2.358590 640.771973
232 0 1 10.388470 2.472220 641.758789
233 0 1 10.272640 2.750770 642.679871
234 0 1 10.211340 3.248920 643.450317
235 0 1 10.113310 3.600650 644.260071
236 0 1 9.802740 3.532180 645.140320
237 0 1 9.713350 3.511920 646.088379
238 0 1 9.757230 3.435300 647.059326
239 0 1 9.691010 3.755950 647.893677
240 0 1 9.541059 4.181350 648.754211
241 0 1 9.464950 4.595270 649.596191
242 0 1 9.520760 4.979730 650.491882
243 0 1 9.565750 5.254580 651.448730
244 0 1 9.652060 5.766000 652.335999
245 0 1 9.830030 6.100810 653.205017
246 0 1 10.257190 6.437260 653.925720
247 0 1 10.742331 6.861500 654.604675
248 0 1 11.194480 7.242986 655.421814
249 0 1 11.413710 7.802189 656.205200
250 0 1 11.792730 8.460998 656.810425
251 0 1 12.006170 9.078910 657.543579
252 0 1 12.077340 9.664520 658.425781
253 0 1 12.196500 10.133760 659.288574
254 0 1 12.137950 10.556150 660.152283
255 0 1 11.854520 10.944310 660.970703
256 0 1 11.547620 11.302290 661.893677
257 0 1 11.178570 11.501360 662.762573
258 0 1 10.668770 11.531200 663.555603
259 0 1 10.192730 11.574390 664.335022
260 0 1 9.684710 11.605770 665.159424
261 0 1 9.109280 11.517611 665.968018
262 0 1 8.387181 11.477890 666.628784
263 0 1 7.953645 11.587470 667.477173
264 0 1 7.654659 11.844120 668.325623
265 0 1 7.475895 11.803810 669.289917
266 0 1 7.176368 11.965160 670.241089
267 0 1 6.714190 12.032890 671.082703
268 0 1 6.544840 11.857550 672.005981
269 0 1 6.512110 11.844730 673.025574
270 0 1 6.367360 11.703360 673.964783
271 0 1 6.192600 11.911330 674.888672
272 0 1 6.211830 11.882730 675.791870
273 0 1 6.259950 11.452300 676.683777
274 0 1 6.294610 10.825610 677.472717
275 0 1 6.301780 10.144950 678.135986
276 0 1 6.514980 9.630680 678.877930
277 0 1 6.737920 9.172310 679.729980
278 0 1 6.544460 8.838260 680.613586
279 0 1 6.389170 8.560802 681.521790
280 0 1 6.294720 8.488943 682.453125
281 0 1 6.415780 8.647020 683.372375
282 0 1 6.400000 8.968510 684.354004
283 0 1 6.454250 8.874172 685.270691
284 0 1 6.754070 8.983524 686.174805
285 0 1 7.032852 8.753747 687.075684
286 0 1 6.971570 8.237736 687.862976
287 0 1 7.076860 7.834020 688.700989
288 0 1 6.981280 7.302685 689.573792
289 0 1 7.174242 6.771590 690.302002
290 0 1 7.741168 6.627730 691.068115
291 0 1 8.435797 6.602630 691.725220
292 0 1 9.001630 6.670660 692.485718
293 0 1 9.552510 6.625640 693.285400
294 0 1 10.069930 6.427220 694.066772
295 0 1 10.506500 5.995500 694.791382
296 0 1 10.815620 5.595040 695.638306
297 0 1 11.381540 5.437980 696.411194
298 0 1 11.473460 5.393560 697.352112
299 0 1 11.712210 5.285080 698.332214
300 0 1 11.618910 5.131010 699.268066
301 0 1 11.520970 4.997760 700.231201
302 0 1 11.540890 4.982500 701.195923
303 0 1 11.304900 4.945200 702.137817
304 0 1 10.987500 4.843500 703.092712
305 0 1 10.458390 4.852990 703.924805
306 0 1 9.859320 4.784530 704.673584
307 0 1 9.254460 4.698130 705.432312
308 0 1 8.704224 4.645960 706.217590
309 0 1 8.100628 4.752240 706.997314
310 0 1 7.535400 4.266970 707.627625
311 0 1 7.000489 3.915430 708.294189
312 0 1 6.464660 3.479590 708.942322
313 0 1 6.037790 3.125030 709.683716
314 0 1 5.364340 3.117350 710.463074
315 0 1 4.948820 3.432690 711.215881
316 0 1 4.373140 3.711320 711.931519
317 0 1 3.696410 4.083530 712.481323
318 0 1 3.304370 4.480510 713.296509
319 0 1 3.051440 4.482810 714.218628
320 0 1 2.907530 4.469480 715.154175
321 0 1 2.891890 4.281090 716.119873
322 0 1 2.777210 3.995140 716.994324
323 0 1 2.810340 3.820640 717.930725
324 0 1 3.103940 3.594960 718.804382
325 0 1 3.369530 3.160290 719.613708
326 0 1 3.914260 2.762590 720.385376
327 0 1 4.452000 2.617040 721.284119
328 0 1 4.901800 2.645480 722.115784
329 0 1 4.912780 2.450570 723.045898
330 0 1 4.936020 2.488100 724.004578
331 0 1 5.010570 2.808710 724.937683
332 0 1 5.118300 3.359750 725.763672
333 0 1 5.391110 3.949280 726.482117
334 0 1 5.660450 4.421040 727.272888
335 0 1 5.969150 5.055360 728.088684
336 0 1 6.109170 5.413280 728.955017
337 0 1 6.037750 5.941050 729.740967
338 0 1 6.284620 6.463190 730.567017
339 0 1 6.526050 7.089501 731.221985
340 0 1 6.544130 7.794540 731.872986
341 0 1 6.698080 8.402168 732.638977
342 0 1 6.493400 9.030490 733.289978
343 0 1 6.535530 9.591550 734.119995
344 0 1 6.462530 9.786900 735.023010
345 0 1 6.337610 9.939400 735.950989
346 0 1 6.245130 9.740080 736.867004
347 0 1 6.328790 9.426240 737.828003
348 0 1 6.731830 9.388830 738.674011
349 0 1 7.203291 9.241070 739.515015
350 0 1 7.690916 8.856914 740.244019
351 0 1 8.436819 8.656330 740.822021
352 0 1 9.017200 8.386985 741.596985
353 0 1 9.580379 8.046773 742.307007
354 0 1 9.684669 7.721234 743.266968
355 0 1 9.765340 7.328826 744.174011
356 0 1 9.620020 7.034065 745.093018
357 0 1 9.774020 6.831210 746.072021
358 0 1 9.635980 6.616450 747.052002
359 0 1 9.164780 6.671890 747.979980
360 0 1 8.878524 6.662310 748.931030
361 0 1 8.745901 6.808190 749.874023
362 0 1 8.265246 6.760010 750.742004
363 0 1 7.875647 6.755940 751.596008
364 0 1 7.497218 6.985850 752.481995
365 0 1 7.200160 7.011703 753.370972
366 0 1 6.627560 7.243300 754.103027
367 0 1 6.209630 7.781806 754.781982
368 0 1 5.780670 8.275739 755.585022
369 0 1 5.172030 8.710149 756.257996
370 0 1 4.890650 9.078680 757.161987
371 0 1 4.452040 9.265910 758.044983
372 0 1 4.586670 9.500390 759.000977
373 0 1 4.847880 9.837820 759.875000
374 0 1 5.117160 9.894990 760.791992
375 0 1 5.181710 9.715240 761.738037
376 0 1 5.164460 9.401410 762.630981
377 0 1 4.840230 9.337370 763.587036
378 0 1 4.437890 9.204120 764.518005
379 0 1 4.288200 9.187340 765.431030
380 0 1 4.236570 9.161630 766.377991
381 0 1 4.037240 9.325780 767.315979
382 0 1 3.929850 9.496940 768.291016
383 0 1 3.607540 9.789040 769.171021
384 0 1 3.540150 9.958960 770.044983
385 0 1 3.411400 10.324580 770.922974
386 0 1 3.181240 10.734760 771.750000
387 0 1 2.746350 11.036950 772.528992
388 0 1 2.605630 11.165970 773.526001
389 0 1 2.840700 10.914870 774.530029
390 0 1 2.953200 10.716721 775.509033
391 0 1 3.065800 10.626830 776.471985
392 0 1 3.189140 10.363950 777.380005
393 0 1 3.160990 9.933650 778.213013
394 0 1 3.392250 9.728580 779.085999
395 0 1 3.360970 9.454320 780.085022
396 0 1 3.392400 9.399070 781.007019
397 0 1 3.264680 9.224410 781.921997
398 0 1 3.093170 8.794852 782.776001
399 0 1 2.640850 8.535396 783.582031
400 0 1 2.587310 8.263608 784.466003
401 0 1 2.656570 8.318482 785.452026
402 0 1 2.991820 8.128420 786.362000
403 0 1 3.398960 7.829197 787.223999
404 0 1 3.987140 7.322408 787.875977
405 0 1 4.591480 6.842830 788.338013
406 0 1 5.364970 6.698670 788.911011
407 0 1 6.098750 6.470530 789.484009
408 0 1 6.824130 6.059240 790.015991
409 0 1 7.623444 5.832510 790.514038
410 0 1 8.312881 5.820320 791.171021
411 0 1 8.975158 5.849040 791.869019
412 0 1 9.633250 5.788740 792.554016
413 0 1 10.198020 5.733550 793.281982
414 0 1 10.489850 5.527240 794.164001
415 0 1 10.669960 5.112490 795.015991
416 0 1 11.065160 4.658510 795.822998
417 0 1 11.318680 4.495730 796.710022
418 0 1 11.854361 4.278860 797.453003
419 0 1 11.994680 4.426100 798.382996
420 0 1 12.186390 4.397310 799.291016
421 0 1 12.147230 4.841870 800.113037
422 0 1 11.783210 5.378500 800.757996
423 0 1 11.449680 5.961900 801.385010
424 0 1 10.879800 6.429970 802.062988
425 0 1 10.331860 6.843230 802.697021
426 0 1 9.796180 7.580752 802.948975
427 0 1 9.191370 8.145673 803.419006
428 0 1 8.768020 8.956494 803.700989
429 0 1 8.482356 9.483200 804.528015
430 0 1 8.230101 10.093530 805.242981
431 0 1 8.003405 10.585660 806.054993
432 0 1 7.849439 10.676189 806.983032
433 0 1 8.129041 10.586990 807.851013
434 0 1 8.507430 10.558780 808.804016
435 0 1 8.464549 10.518740 809.789978
436 0 1 8.474068 10.489230 810.770996
437 0 1 8.591133 10.530581 811.723022
438 0 1 8.733568 10.653020 812.653015
439 0 1 9.042230 10.521350 813.567993
440 0 1 9.458941 10.206881 814.421021
441 0 1 9.843900 9.766250 815.166992
442 0 1 10.017130 9.129169 815.953003
443 0 1 10.138150 8.513614 816.786011
444 0 1 9.833510 7.952390 817.575012
445 0 1 9.397860 7.724002 818.401001
446 0 1 9.104930 7.382887 819.261963
447 0 1 8.791531 7.311552 820.169983
448 0 1 8.561079 7.069999 821.119019
449 0 1 8.128605 6.869710 821.929993
450 0 1 7.543266 6.779270 822.781982
451 0 1 6.935760 6.714320 823.565002
452 0 1 6.223260 6.770690 824.263000
453 0 1 5.437500 6.806270 824.830994
454 0 1 4.592570 6.908810 825.301025
455 0 1 3.932210 6.911750 825.989014
456 0 1 3.338810 6.886020 826.710022
457 0 1 2.630940 7.006407 827.385010
458 0 1 2.240850 7.387038 828.161987
459 0 1 1.767770 7.635429 828.963989
460 0 1 1.621590 7.440389 829.879028
461 0 1 1.335510 7.246847 830.796997
462 0 1 1.490400 7.209292 831.703003
463 0 1 1.851720 7.205711 832.615967
464 0 1 2.177250 7.064388 833.510986
465 0 1 2.709370 7.008896 834.307983
466 0 1 3.344680 6.773370 834.942993
467 0 1 4.124560 6.402880 835.401978
468 0 1 4.946720 6.006030 835.789978
469 0 1 5.762770 5.997790 836.210999
470 0 1 6.671020 5.864850 836.515015
471 0 1 7.669566 5.784810 836.700989
472 0 1 8.588009 5.959610 836.692017
473 0 1 9.384930 6.486340 836.546997
474 0 1 10.064899 6.994830 836.192017
475 0 1 10.760690 7.395973 835.700989
476 0 1 11.270930 8.003757 835.156982
477 0 1 11.569110 8.528943 834.424011
478 0 1 12.093710 8.995355 833.687988
479 0 1 12.529830 9.136010 832.757019
480 0 1 12.871690 9.341990 831.924011
481 0 1 12.985360 9.476830 830.974976
482 0 1 12.632020 9.661870 830.101013
483 0 1 12.421110 9.946700 829.192993
484 0 1 12.014570 10.269950 828.339966
485 0 1 11.769890 10.415000 827.437988
486 0 1 11.320190 10.745960 826.674988
487 0 1 10.811860 11.059280 825.817017
488 0 1 10.429240 11.250080 824.966980
489 0 1 9.908990 11.516400 824.257019
490 0 1 9.249280 11.638741 823.567993
491 0 1 8.457841 11.882980 823.005005
492 0 1 7.840002 12.131960 822.356995
493 0 1 7.143118 12.290310 821.710999
494 0 1 6.787200 12.111100 820.809998
495 0 1 6.296900 12.011150 819.934998
496 0 1 5.795880 11.884580 819.082031
497 0 1 5.226880 11.538980 818.372986
498 0 1 4.602500 11.347130 817.718018
499 0 1 4.090590 11.411190 816.875977
500 0 1 4.021640 11.782370 815.983032
501 0 1 4.041750 11.779300 815.004028
502 0 1 3.906920 12.034309 814.061035
503 0 1 4.151810 12.142651 813.041016
504 0 1 4.692700 12.007600 812.229980
505 0 1 5.170020 11.644170 811.499023
506 0 1 5.638210 11.638480 810.687012
507 0 1 5.943630 11.349390 809.794983
508 0 1 6.280770 11.198660 808.889038
509 0 1 6.450480 10.880050 807.940002
510 0 1 6.402120 10.522141 807.041016
511 0 1 6.408570 10.166270 806.203003
512 0 1 6.256810 9.837880 805.247986
513 0 1 5.814140 9.241500 804.546997
514 0 1 5.680870 8.738133 803.713989
515 0 1 5.295600 8.389471 802.880005
516 0 1 4.966900 7.976572 802.132996
517 0 1 4.819050 7.657366 801.176025
518 0 1 4.620430 7.010459 800.411987
519 0 1 4.397410 6.470770 799.672974
520 0 1 4.494850 6.065540 798.825989
521 0 1 4.682800 5.828520 797.919006
522 0 1 4.808150 5.441020 797.054993
523 0 1 5.088350 5.425570 796.161011
524 0 1 5.115290 5.327650 795.182983
525 0 1 5.070540 5.310490 794.299011
526 0 1 4.965470 5.409600 793.344971
527 0 1 4.918620 5.500590 792.382019
528 0 1 4.993110 5.419250 791.442017
529 0 1 5.135440 5.345480 790.489014
530 0 1 5.324380 5.310990 789.546997
531 0 1 5.527380 5.517510 788.601013
532 0 1 5.856790 5.997980 787.820007
533 0 1 6.306980 6.557770 787.136963
534 0 1 6.780610 6.942670 786.401978
535 0 1 7.146809 7.335400 785.666016
536 0 1 7.325969 7.628046 784.750000
537 0 1 7.660944 7.855882 783.846985
538 0 1 8.225451 7.910049 783.160034
539 0 1 8.945858 7.852591 782.528992
540 0 1 9.509439 7.776207 781.651001
541 0 1 9.819980 7.624456 780.801025
542 0 1 9.411100 7.670230 779.895020
543 0 1 9.049210 7.879349 779.049988
544 0 1 8.674883 8.071508 778.164978
545 0 1 8.405772 8.223840 777.237000
546 0 1 8.431656 8.329991 776.351990
547 0 1 8.418062 8.607431 775.398010
548 0 1 8.405930 8.984781 774.447998
549 0 1 8.224588 9.269060 773.593994
550 0 1 7.786016 9.381880 772.749023
551 0 1 7.609140 9.521320 771.778015
552 0 1 7.245977 9.257040 770.916992
553 0 1 6.635440 9.167040 770.125000
554 0 1 6.334220 8.707161 769.364014
555 0 1 6.118380 8.079796 768.557983
556 0 1 5.940520 7.487409 767.860962
557 0 1 5.890540 6.934470 767.104004
558 0 1 6.056150 6.681960 766.213013
559 0 1 6.477880 6.378330 765.427979
560 0 1 6.814190 5.795630 764.705017
561 0 1 7.121575 5.532790 763.752014
562 0 1 7.426011 5.586280 762.839966
563 0 1 7.703518 5.807360 761.890015
564 0 1 8.247509 6.151580 761.166016
565 0 1 8.697432 6.644800 760.458984
566 0 1 9.005550 7.162128 759.688965
567 0 1 9.354250 7.691236 758.992981
568 0 1 9.932140 7.863855 758.245972
569 0 1 10.325920 8.110829 757.364990
570 0 1 10.771980 8.296681 756.531006
571 0 1 10.913740 8.562964 755.604980
572 0 1 11.066410 8.689830 754.702026
573 0 1 11.073750 9.264220 753.906982
574 0 1 11.047010 9.716130 753.030029
575 0 1 11.073760 9.943580 752.068970
576 0 1 11.159389 10.305420 751.153015
577 0 1 11.316570 10.380310 750.132019
578 0 1 11.188730 10.187230 749.219971
579 0 1 10.684220 9.739280 748.583008
580 0 1 10.551090 9.346470 747.674011
581 0 1 10.444490 8.716190 746.934998
582 0 1 10.541140 8.051700 746.226013
583 0 1 10.735970 7.629232 745.338989
584 0 1 11.201290 7.439123 744.410034
585 0 1 11.291340 7.510492 743.492004
586 0 1 11.344940 7.525705 742.526978
587 0 1 11.567540 7.344976 741.577026
588 0 1 11.795770 7.234316 740.638977
589 0 1 11.984660 6.543840 739.999023
590 0 1 12.057210 5.910320 739.294006
591 0 1 12.193649 5.714320 738.320984
592 0 1 12.059851 5.593430 737.422974
593 0 1 11.907940 5.527120 736.497986
594 0 1 11.619160 5.463530 735.572998
595 0 1 11.501160 5.160290 734.700012
596 0 1 11.556310 5.086250 733.731018
597 0 1 11.867680 5.250790 732.810974
598 0 1 11.906520 5.430750 731.830994
599 0 1 11.968830 5.456360 730.872009
600 0 1 11.933570 5.613860 729.968018
601 0 1 12.056770 5.785760 728.992004
602 0 1 11.805861 6.304140 728.177979
603 0 1 11.399910 6.608850 727.333923
604 0 1 11.120190 7.025672 726.489868
605 0 1 10.989960 7.391869 725.577087
606 0 1 11.022079 7.819321 724.747314
607 0 1 10.959590 8.117335 723.803284
608 0 1 10.752740 8.569379 722.998474
609 0 1 10.392330 8.879414 722.184387
610 0 1 10.385250 9.343360 721.258423
611 0 1 10.652020 9.778160 720.468079
612 0 1 10.974730 10.113950 719.618225
613 0 1 11.239610 10.689810 718.884888
614 0 1 11.553630 11.050080 718.040588
615 0 1 11.861900 11.648470 717.369812
616 0 1 12.130970 12.102430 716.611389
617 0 1 12.315821 12.378750 715.641296
618 0 1 12.491810 12.351650 714.710571
619 0 1 12.827920 12.404340 713.765198
620 0 1 13.271070 12.205030 712.956177
621 0 1 13.361210 11.786221 712.130981
622 0 1 13.345110 11.227930 711.303406
623 0 1 13.416090 10.774990 710.475708
624 0 1 13.252680 10.319910 709.634827
625 0 1 13.047010 9.933770 708.804810
626 0 1 12.611520 9.669630 707.843018
627 0 1 12.440300 9.448400 706.879883
628 0 1 12.273490 9.163400 705.923584
629 0 1 12.264230 8.918674 704.972900
630 0 1 12.149290 8.532760 704.018311
631 0 1 11.569690 8.156395 703.302917
632 0 1 11.170900 7.804067 702.463379
633 0 1 10.712340 7.556853 701.661682
634 0 1 10.452130 7.601113 700.687805
635 0 1 9.895110 7.753828 699.899292
636 0 1 9.404170 7.546777 699.118103
637 0 1 8.684633 7.470824 698.439514
638 0 1 8.120421 7.354493 697.720093
639 0 1 7.575500 7.188281 696.958496
640 0 1 7.076428 6.976410 696.112671
641 0 1 6.538090 6.878140 695.322327
642 0 1 6.111210 6.857610 694.504517
643 0 1 5.958670 6.590970 693.574585
644 0 1 5.856680 6.516630 692.627991
645 0 1 5.730850 6.756750 691.666016
646 0 1 5.614140 7.064591 690.731018
647 0 1 5.412860 7.373954 689.864075
648 0 1 5.025850 7.859925 689.101074
649 0 1 4.559550 8.328766 688.433716
650 0 1 4.065390 8.697276 687.777283
651 0 1 3.590550 9.117100 687.102905
652 0 1 3.386320 9.379130 686.229187
653 0 1 3.078850 9.681890 685.331604
654 0 1 2.637930 9.701230 684.479126
655 0 1 2.555380 9.382980 683.558289
656 0 1 2.631820 9.592270 682.589417
657 0 1 2.806550 9.410890 681.684509
658 0 1 3.167850 9.393230 680.800171
659 0 1 3.577000 9.257040 679.957825
660 0 1 4.002290 9.208410 679.080811
661 0 1 4.052030 8.827906 678.168396
662 0 1 3.985720 8.307613 677.354492
663 0 1 3.932210 7.801021 676.472168
664 0 1 3.670050 7.417609 675.672791
665 0 1 3.759940 6.877660 674.854004
666 0 1 3.979140 6.204730 674.216919
667 0 1 4.287080 5.715070 673.413086
668 0 1 4.443010 5.556280 672.455200
669 0 1 4.561550 5.512680 671.533691
670 0 1 4.781020 5.538810 670.589722
671 0 1 4.986520 5.707250 669.671387
672 0 1 5.319880 5.654980 668.776184
673 0 1 5.641470 5.579870 667.836914
674 0 1 5.816970 5.380990 666.942627
675 0 1 5.915230 5.567250 665.968506
676 0 1 5.862660 6.035920 665.124817
677 0 1 5.880430 6.627520 664.343689
678 0 1 5.619010 7.089870 663.479126
679 0 1 5.040740 7.264333 662.724121
680 0 1 4.599750 7.506987 661.919006
681 0 1 3.954690 7.505104 661.138672
682 0 1 3.524690 7.300616 660.326111
683 0 1 3.136560 7.071175 659.396912
684 0 1 2.864690 7.320832 658.485596
685 0 1 2.926690 7.428597 657.516907
686 0 1 3.386880 7.460780 656.718018
687 0 1 3.690620 7.472821 655.859497
688 0 1 3.764500 7.418129 654.867004
689 0 1 4.076530 7.115081 654.001282
690 0 1 4.281450 6.905160 653.075195
691 0 1 4.418900 6.467080 652.238586
692 0 1 4.739450 6.362420 651.384888
693 0 1 5.220450 6.519740 650.491211
694 0 1 5.510040 6.479400 649.579712
695 0 1 5.792860 6.418990 648.640808
696 0 1 6.093030 6.326870 647.654419
697 0 1 6.156210 6.217120 646.709900
698 0 1 6.290100 6.036580 645.740112
699 0 1 6.427000 5.741370 644.795776
700 0 1 6.616680 5.369570 643.915405
701 0 1 6.828170 4.873320 643.159180
702 0 1 7.055753 4.538680 642.290771
703 0 1 7.003655 4.388980 641.361816
704 0 1 6.980460 4.446260 640.397400
705 0 1 7.234551 4.475840 639.497009
706 0 1 7.490887 4.375740 638.510681
707 0 1 7.586548 4.383540 637.576477
708 0 1 7.240038 4.359020 636.653625
709 0 1 7.442839 4.586860 635.728149
710 0 1 7.565605 5.047510 634.851074
711 0 1 7.660112 5.556110 634.057556
712 0 1 7.690865 5.796410 633.137939
713 0 1 7.802777 6.020630 632.260132
714 0 1 7.982453 6.155680 631.324707
715 0 1 8.030358 6.711140 630.525330
716 0 1 8.188831 6.999220 629.564270
717 0 1 7.872744 7.402693 628.777039
718 0 1 7.357323 7.796220 627.982483
719 0 1 6.970720 7.908617 627.100525
720 0 1 6.409290 8.055841 626.399719
721 0 1 5.671240 7.963886 625.766418
722 0 1 5.131590 7.800344 624.988770
723 0 1 4.564210 7.603694 624.295532
724 0 1 3.919770 7.701816 623.540833
725 0 1 3.538660 7.682001 622.643066
726 0 1 3.205530 7.626006 621.718567
727 0 1 3.157070 7.657305 620.758423
728 0 1 3.166520 7.611485 619.713745
729 0 1 3.176730 7.418981 618.778442
730 0 1 3.197280 7.167276 617.815430
731 0 1 3.405270 6.897670 616.902771
732 0 1 3.836590 6.811460 616.041626
733 0 1 4.240160 6.612950 615.177429
734 0 1 4.868740 6.290810 614.463013
735 0 1 5.332760 6.013030 613.685730
736 0 1 5.725700 5.535140 612.838501
737 0 1 5.852110 5.255970 611.878784
738 0 1 5.976340 4.567880 611.220276
739 0 1 6.066590 4.143610 610.351929
740 0 1 6.368010 3.874040 609.490295
741 0 1 6.694570 3.602650 608.600586
742 0 1 6.804300 3.317660 607.675171
743 0 1 6.933740 3.082750 606.742310
744 0 1 6.807660 2.675210 605.869324
745 0 1 6.917850 2.271340 604.993896
746 0 1 7.119416 2.042870 604.110107
747 0 1 7.221580 1.815190 603.216003
748 0 1 7.331274 1.598780 602.305603
749 0 1 7.289520 1.463450 601.370605
750 0 1 7.100054 1.575030 600.440613
751 0 1 6.831040 1.713370 599.562500
752 0 1 6.602080 1.757950 598.588501
753 0 1 6.490060 2.040860 597.637878
754 0 1 6.740830 2.269810 596.765686
755 0 1 6.729610 2.424080 595.751831
756 0 1 6.506810 2.513390 594.778931
757 0 1 6.455260 2.793220 593.863525
758 0 1 6.667430 2.939620 592.914185
759 0 1 7.078338 3.032130 592.070374
760 0 1 7.217702 3.389700 591.151123
761 0 1 7.606075 3.557660 590.258911
762 0 1 7.813274 3.712620 589.344299
763 0 1 7.663642 3.426200 588.428528
764 0 1 7.905603 3.099690 587.541321
765 0 1 8.028032 2.923840 586.594421
766 0 1 8.337643 2.759430 585.746094
767 0 1 8.435029 2.893110 584.802917
768 0 1 8.440091 2.843120 583.844788
769 0 1 8.187688 2.788240 582.895081
770 0 1 7.829410 2.482700 582.083496
771 0 1 7.469964 2.282610 581.240479
772 0 1 7.043204 2.406620 580.402405
773 0 1 6.910080 2.642070 579.424377
774 0 1 6.337820 3.012840 578.732483
775 0 1 5.669030 3.387210 578.130371
776 0 1 4.774610 3.592040 577.655396
777 0 1 4.114200 3.885300 577.061768
778 0 1 3.928360 4.488480 576.350586
779 0 1 3.872820 5.016350 575.599182
780 0 1 4.139850 5.655850 574.934326
781 0 1 4.630870 6.241060 574.343079
782 0 1 5.297830 6.246630 573.645508
783 0 1 5.937970 6.162520 572.861877
784 0 1 6.308790 6.333400 571.885681
785 0 1 6.886070 6.453030 571.073425
786 0 1 7.212639 6.439290 570.152222
787 0 1 7.584262 6.578830 569.212524
788 0 1 8.081503 6.867140 568.474792
789 0 1 8.342290 7.039508 567.494995
790 0 1 8.444847 7.447441 566.623718
791 0 1 8.655345 7.866752 565.748474
792 0 1 8.811127 8.412188 564.934814
793 0 1 9.348240 8.801469 564.246277
794 0 1 9.788820 9.150900 563.492981