LAMMPS data file via MDAnalysis

        1000  atoms
        1000  bonds
        1000  angles
           0  dihedrals
           0  impropers

           1  atom types
           1  bond types
           1  angle types
           0  dihedral types
           0  improper types

0.000000 16.000000 xlo xhi
0.000000 16.000000 ylo yhi
0.000000 1257.000000 zlo zhi


Masses

1 1.000000

Atoms

1 0 1 2.108120 5.552830 448.664001
2 0 1 2.057680 5.973430 449.514008
3 0 1 2.353410 6.390400 450.385010
4 0 1 2.441530 6.799680 451.203979
5 0 1 2.693410 6.806380 452.143005
6 0 1 2.982880 6.834410 453.148010
7 0 1 3.347070 6.675010 454.015015
8 0 1 3.968600 6.484680 454.817993
9 0 1 4.312750 5.974140 455.557007
10 0 1 4.769540 5.466040 456.192993
11 0 1 5.004360 4.758340 456.778992
12 0 1 5.159940 3.936210 457.285004
13 0 1 5.181200 3.169950 457.981995
14 0 1 4.972720 2.749630 458.820007
15 0 1 5.182510 2.487410 459.759003
16 0 1 5.493630 2.415260 460.643982
17 0 1 5.945080 2.449760 461.511993
18 0 1 6.604310 2.598030 462.231018
19 0 1 7.327326 3.020070 462.661011
20 0 1 7.903027 3.402790 463.348999
21 0 1 8.573867 3.406330 464.005005
22 0 1 9.004230 3.677540 464.825012
23 0 1 9.445690 4.127550 465.505981
24 0 1 9.494100 4.732550 466.260986
25 0 1 9.526290 5.270140 467.056000
26 0 1 9.745461 5.715440 467.858002
27 0 1 9.839470 6.187110 468.695984
28 0 1 9.600290 6.541050 469.612000
29 0 1 9.411480 6.938410 470.473999
30 0 1 9.260730 7.255839 471.401978
31 0 1 9.630680 7.068949 472.322998
32 0 1 10.177940 6.588640 472.942993
33 0 1 10.676060 6.176690 473.687012
34 0 1 11.042380 5.704420 474.445984
35 0 1 11.266030 5.374500 475.389008
36 0 1 11.547450 5.109610 476.276001
37 0 1 11.558140 4.907100 477.255981
38 0 1 11.515369 4.547210 478.169006
39 0 1 11.252541 4.287020 479.054993
40 0 1 10.684380 4.134660 479.798004
41 0 1 10.038390 3.855720 480.477997
42 0 1 9.419810 3.420370 481.085999
43 0 1 9.013350 3.284500 481.979980
44 0 1 9.006660 3.240020 482.897003
45 0 1 8.872182 3.239980 483.856995
46 0 1 8.945419 3.099970 484.811005
47 0 1 8.770044 2.905120 485.723022
48 0 1 8.791870 2.634390 486.660004
49 0 1 8.812249 2.412300 487.632019
50 0 1 8.747407 2.372950 488.598022
51 0 1 8.402487 2.581310 489.432007
52 0 1 8.261013 2.692510 490.416016
53 0 1 8.516084 3.131160 491.238007
54 0 1 8.744330 3.539640 492.108002
55 0 1 8.588405 3.869330 493.088989
56 0 1 8.416336 4.146570 493.963989
57 0 1 8.301710 4.433900 494.884003
58 0 1 8.054832 4.841750 495.677002
59 0 1 7.706124 5.152520 496.563995
60 0 1 7.217449 5.403030 497.390015
61 0 1 6.857980 5.624420 498.218994
62 0 1 6.522040 5.769460 499.113007
63 0 1 6.229410 6.009710 499.958008
64 0 1 5.881430 6.259400 500.908997
65 0 1 5.591800 6.701660 501.770996
66 0 1 5.308070 7.018185 502.610992
67 0 1 5.237770 7.230922 503.539001
68 0 1 5.297560 7.265507 504.544006
69 0 1 5.548280 7.190575 505.492004
70 0 1 5.718570 7.379075 506.419983
71 0 1 6.325760 7.528019 507.157990
72 0 1 6.559840 7.732397 508.001007
73 0 1 6.606840 7.928759 508.882996
74 0 1 6.521540 7.974526 509.820007
75 0 1 6.484840 7.800083 510.747986
76 0 1 6.315420 7.883131 511.700012
77 0 1 6.372830 7.725447 512.679993
78 0 1 6.414880 7.794465 513.695007
79 0 1 6.248340 7.594526 514.643982
80 0 1 5.992450 7.765271 515.627014
81 0 1 5.911800 7.901600 516.547974
82 0 1 5.680150 7.855599 517.471985
83 0 1 5.604050 7.992283 518.424011
84 0 1 5.585820 8.281299 519.322021
85 0 1 5.298240 8.817969 520.171021
86 0 1 5.089020 8.901676 521.064026
87 0 1 5.097170 9.243960 521.964966
88 0 1 4.906880 9.604200 522.848999
89 0 1 4.942970 9.965500 523.700012
90 0 1 4.869890 10.299290 524.627014
91 0 1 4.863640 10.186380 525.601013
92 0 1 4.919210 9.829710 526.560974
93 0 1 5.152550 9.379300 527.307007
94 0 1 5.358780 9.010910 528.140991
95 0 1 5.444290 8.631233 529.041504
96 0 1 5.369070 8.251898 529.890686
97 0 1 5.228180 7.666197 530.650574
98 0 1 5.263110 6.989630 531.329224
99 0 1 5.508040 6.376600 532.023987
100 0 1 5.663620 5.708800 532.673218
101 0 1 5.904810 5.041000 533.331116
102 0 1 6.051640 4.426790 534.144104
103 0 1 5.906710 4.133970 535.048218
104 0 1 5.963990 3.777210 535.928101
105 0 1 6.282520 3.534020 536.765076
106 0 1 6.437080 3.354250 537.721069
107 0 1 6.776440 3.461500 538.591492
108 0 1 7.123427 3.584150 539.535095
109 0 1 7.212811 3.516150 540.518677
110 0 1 7.350889 4.075340 541.399780
111 0 1 7.353785 4.327500 542.294922
112 0 1 7.424133 4.570280 543.221802
113 0 1 7.511805 4.815810 544.125977
114 0 1 7.485714 5.029000 545.060913
115 0 1 7.375689 5.342050 545.975403
116 0 1 7.587952 5.833380 546.743225
117 0 1 8.083472 5.982320 547.561218
118 0 1 8.484295 6.344160 548.432678
119 0 1 8.809461 6.095010 549.348633
120 0 1 9.233660 5.770700 550.230469
121 0 1 9.729480 5.601250 551.109680
122 0 1 10.239920 5.799600 551.961975
123 0 1 10.850090 5.967510 552.654419
124 0 1 11.257420 6.419790 553.401489
125 0 1 11.936560 6.625720 554.046814
126 0 1 12.125340 7.058103 554.839905
127 0 1 12.329700 7.748432 555.502075
128 0 1 12.536070 8.155854 556.364197
129 0 1 12.395580 8.342845 557.265015
130 0 1 12.094880 8.397114 558.305725
131 0 1 11.819670 8.372039 559.219177
132 0 1 11.355140 8.228073 560.093994
133 0 1 10.950560 8.218283 561.004089
134 0 1 10.714479 8.349000 561.972717
135 0 1 10.574720 8.264432 562.877686
136 0 1 10.503090 8.355816 563.792725
137 0 1 10.460320 8.430291 564.728699
138 0 1 10.601950 8.405378 565.688721
139 0 1 10.731359 8.417416 566.613770
140 0 1 11.043830 8.518461 567.514526
141 0 1 11.341420 8.678096 568.392700
142 0 1 11.252380 9.016210 569.308411
143 0 1 11.140690 9.063090 570.207092
144 0 1 11.107090 9.195470 571.217712
145 0 1 11.428010 9.431580 572.075073
146 0 1 11.968950 9.540150 572.874817
147 0 1 12.227560 9.823480 573.753418
148 0 1 12.156930 10.215400 574.654480
149 0 1 11.971010 10.502940 575.557312
150 0 1 11.548580 10.815929 576.411682
151 0 1 11.135241 10.826160 577.296387
152 0 1 10.431240 10.970640 578.021790
153 0 1 9.660710 11.158810 578.563416
154 0 1 8.839452 11.419140 578.998596
155 0 1 7.949507 11.387890 579.247192
156 0 1 7.091170 11.067930 579.545410
157 0 1 6.187820 10.877560 579.888306
158 0 1 5.515040 11.121970 580.545593
159 0 1 4.982340 11.194241 581.321289
160 0 1 4.256200 10.805770 581.941589
161 0 1 3.863330 10.290689 582.586182
162 0 1 3.452320 9.789450 583.295410
163 0 1 2.971060 9.442170 584.026123
164 0 1 2.611760 9.093660 584.902893
165 0 1 2.313000 8.877255 585.785278
166 0 1 2.369490 8.743656 586.729980
167 0 1 2.308570 8.686806 587.667175
168 0 1 2.134550 8.839263 588.624878
169 0 1 1.926930 9.091100 589.617432
170 0 1 1.781540 8.953005 590.531799
171 0 1 1.937330 8.808969 591.437073
172 0 1 1.886800 8.885802 592.368713
173 0 1 2.123100 9.320290 593.236511
174 0 1 2.274640 9.612780 594.152100
175 0 1 2.384190 9.853180 595.038818
176 0 1 2.620410 10.174430 595.901428
177 0 1 3.008400 10.577290 596.683899
178 0 1 3.602430 10.926991 597.367004
179 0 1 4.203480 11.300270 598.012024
180 0 1 5.093330 11.363270 598.435486
181 0 1 5.704170 11.303880 599.211609
182 0 1 6.286730 11.383970 599.928711
183 0 1 6.939060 11.666360 600.536072
184 0 1 7.592466 12.021270 601.167908
185 0 1 8.324336 12.094570 601.767883
186 0 1 9.000100 11.762650 602.345581
187 0 1 9.615540 11.665160 603.048279
188 0 1 9.900630 11.032249 603.794373
189 0 1 10.345860 10.314460 604.312622
190 0 1 10.451050 9.664970 605.004272
191 0 1 10.618690 8.899333 605.628113
192 0 1 10.810120 8.364544 606.383301
193 0 1 10.940820 7.742843 607.108826
194 0 1 11.185390 7.247841 607.863770
195 0 1 11.486770 7.041099 608.752197
196 0 1 11.760710 6.887840 609.710205
197 0 1 11.809880 6.770390 610.644897
198 0 1 11.644260 6.595560 611.576416
199 0 1 11.542330 6.602290 612.590515
200 0 1 11.288130 6.222040 613.429077
201 0 1 11.122050 5.907500 614.342529
202 0 1 11.229520 6.027280 615.304382
203 0 1 11.273430 5.879000 616.246094
204 0 1 11.477110 5.657690 617.099487
205 0 1 11.721510 5.562530 617.976196
206 0 1 12.192921 5.446780 618.818481
207 0 1 12.469490 5.403520 619.775269
208 0 1 12.725280 5.229150 620.703613
209 0 1 13.151670 5.002170 621.494263
210 0 1 13.295959 4.823820 622.501404
211 0 1 13.462550 4.539020 623.439880
212 0 1 13.453910 4.363770 624.332092
213 0 1 13.370050 3.991900 625.269226
214 0 1 13.246910 3.771530 626.265381
215 0 1 13.009230 3.640130 627.247192
216 0 1 12.845570 3.392780 628.148743
217 0 1 12.886810 3.658090 629.044373
218 0 1 12.748740 3.727190 629.975098
219 0 1 12.535070 3.943230 630.892761
220 0 1 12.196421 4.388980 631.699280
221 0 1 11.773510 5.007540 632.344238
222 0 1 11.390200 5.445730 633.110657
223 0 1 10.994270 5.979120 633.796204
224 0 1 10.598360 6.710990 634.330627
225 0 1 10.304340 7.171146 635.149353
226 0 1 9.983310 7.246691 636.078857
227 0 1 9.961880 7.569649 636.919861
228 0 1 10.204030 7.968218 637.721741
229 0 1 10.413150 8.459641 638.518677
230 0 1 10.627470 9.086070 639.285278
231 0 1 10.634420 9.685630 640.089294
232 0 1 10.323890 10.158080 640.842896
233 0 1 9.945060 10.701560 641.499817
234 0 1 9.546730 11.429070 641.988098
235 0 1 9.182080 12.282920 642.366516
236 0 1 9.106470 13.042690 642.998291
237 0 1 9.099480 13.506960 643.827698
238 0 1 9.302870 13.770570 644.740723
239 0 1 9.244790 13.864241 645.650085
240 0 1 9.015820 13.541790 646.479187
241 0 1 8.772033 13.082729 647.285095
242 0 1 8.778111 12.612101 648.145996
243 0 1 8.867335 12.007700 648.938171
244 0 1 8.918877 11.463470 649.740112
245 0 1 8.719864 11.289430 650.690796
246 0 1 8.704003 11.158540 651.625916
247 0 1 8.895718 11.073040 652.565918
248 0 1 8.965918 10.903950 653.565979
249 0 1 8.867246 10.553410 654.510376
250 0 1 8.832025 10.178640 655.373108
251 0 1 8.578773 9.670220 656.124329
252 0 1 8.230533 9.189470 656.845520
253 0 1 8.035137 8.376787 657.431824
254 0 1 7.884984 7.668451 658.078918
255 0 1 7.780122 7.014921 658.921997
256 0 1 7.750517 6.340010 659.643616
257 0 1 7.774240 5.568540 660.218323
258 0 1 7.646549 4.933850 660.941711
259 0 1 7.290416 4.535210 661.725708
260 0 1 6.732340 4.085470 662.370117
261 0 1 6.292330 3.574220 663.091614
262 0 1 5.977120 3.464670 663.980225
263 0 1 5.526420 3.225180 664.839294
264 0 1 5.065020 2.999230 665.651489
265 0 1 4.908420 2.645850 666.551514
266 0 1 5.005020 2.483030 667.484802
267 0 1 5.167720 2.092400 668.347290
268 0 1 5.374610 1.975470 669.222717
269 0 1 5.476650 1.944060 670.139099
270 0 1 5.485470 2.173600 671.078125
271 0 1 5.401930 2.721890 671.895508
272 0 1 5.486830 3.044830 672.840332
273 0 1 5.704720 3.596730 673.572693
274 0 1 5.910310 4.262010 674.264282
275 0 1 6.415690 4.900090 674.892517
276 0 1 6.872440 5.590640 675.430603
277 0 1 6.899350 6.219670 676.118774
278 0 1 6.934070 6.710410 676.966919
279 0 1 6.758710 7.040449 677.833984
280 0 1 6.791740 7.244731 678.783875
281 0 1 6.732980 7.294711 679.766968
282 0 1 6.552270 7.295170 680.672485
283 0 1 6.095850 7.294732 681.567200
284 0 1 5.746720 7.117599 682.447815
285 0 1 5.437830 6.773040 683.363525
286 0 1 5.192580 6.302880 684.167725
287 0 1 4.907680 5.940390 684.984314
288 0 1 4.727600 5.597540 685.781799
289 0 1 4.692720 5.420010 686.679688
290 0 1 4.767780 5.125490 687.638672
291 0 1 4.588710 4.989690 688.560974
292 0 1 4.456680 5.040120 689.520386
293 0 1 4.418520 4.876850 690.427124
294 0 1 4.422600 4.251110 691.176392
295 0 1 4.329750 3.743080 691.973389
296 0 1 4.114820 3.214800 692.724304
297 0 1 3.948040 2.803370 693.697815
298 0 1 3.813100 2.683470 694.692017
299 0 1 3.881380 2.857220 695.735596
300 0 1 4.039100 3.393230 696.458801
301 0 1 4.015420 3.734700 697.366577
302 0 1 3.848250 4.051620 698.312805
303 0 1 3.701430 4.075470 699.243408
304 0 1 3.503160 4.169550 700.152893
305 0 1 3.182100 4.315490 701.078918
306 0 1 2.806770 4.587410 701.902893
307 0 1 2.562580 4.628840 702.872009
308 0 1 2.447140 4.513610 703.888489
309 0 1 2.302350 4.324310 704.809204
310 0 1 2.215420 4.335850 705.775085
311 0 1 2.146060 4.528910 706.718689
312 0 1 2.180950 4.807320 707.616516
313 0 1 2.271700 5.127320 708.538025
314 0 1 2.724210 5.367660 709.339417
315 0 1 3.192990 5.779080 710.075195
316 0 1 3.601330 6.114680 710.905273
317 0 1 3.967280 6.277190 711.760132
318 0 1 4.610020 6.480600 712.503723
319 0 1 4.864970 6.671930 713.438232
320 0 1 5.194820 6.628080 714.325928
321 0 1 5.427140 6.544450 715.245483
322 0 1 5.896850 6.666680 716.097595
323 0 1 6.439610 6.442120 716.845520
324 0 1 7.075034 6.224720 717.551697
325 0 1 7.732950 5.724880 718.079224
326 0 1 8.477533 5.600570 718.779114
327 0 1 8.759716 5.598030 719.788818
328 0 1 8.776776 5.391580 720.776306
329 0 1 8.813466 5.184140 721.804626
330 0 1 8.894347 4.914530 722.734802
331 0 1 9.293530 4.879490 723.669678
332 0 1 9.460279 5.036490 724.567627
333 0 1 9.855340 5.209430 725.398499
334 0 1 9.982740 5.352500 726.376282
335 0 1 9.944870 5.538210 727.335815
336 0 1 9.790670 5.779270 728.260803
337 0 1 9.999460 6.350380 729.067017
338 0 1 10.435900 6.912010 729.734009
339 0 1 10.618440 7.284845 730.619019
340 0 1 10.862640 7.650601 731.570984
341 0 1 10.762680 8.129279 732.419983
342 0 1 10.612820 8.477637 733.286987
343 0 1 10.366120 8.917869 734.103027
344 0 1 10.187650 9.488920 734.848999
345 0 1 10.097770 10.057000 735.604980
346 0 1 9.606780 10.358680 736.487000
347 0 1 9.304640 10.525930 737.343994
348 0 1 8.853027 10.413691 738.200012
349 0 1 8.491896 10.228420 739.064026
350 0 1 8.298475 10.052410 740.023010
351 0 1 8.066509 10.173640 740.952026
352 0 1 7.792224 10.160600 741.934998
353 0 1 7.263328 10.208200 742.752991
354 0 1 7.066941 9.986520 743.689026
355 0 1 7.266281 9.803880 744.598022
356 0 1 7.164249 9.767530 745.531006
357 0 1 6.890450 9.981380 746.417969
358 0 1 6.551060 10.015520 747.312988
359 0 1 6.137590 10.012500 748.237000
360 0 1 5.716340 9.954950 749.096008
361 0 1 5.460500 10.047510 750.013977
362 0 1 5.273730 10.194210 750.990967
363 0 1 4.957300 10.351760 751.893005
364 0 1 4.793100 10.188360 752.791016
365 0 1 4.716720 10.332500 753.726990
366 0 1 4.486010 10.514910 754.723999
367 0 1 4.438070 10.445090 755.674988
368 0 1 4.252790 10.090910 756.531982
369 0 1 4.063920 9.514490 757.276978
370 0 1 3.916310 9.113740 758.136963
371 0 1 3.768960 8.519985 758.888000
372 0 1 4.032890 8.137172 759.750977
373 0 1 4.263030 8.043284 760.674988
374 0 1 4.531780 7.848658 761.627014
375 0 1 4.538810 8.066305 762.562012
376 0 1 5.128190 8.298999 763.283997
377 0 1 5.549160 8.756057 764.026001
378 0 1 6.017490 9.180730 764.712036
379 0 1 6.245540 9.639270 765.563965
380 0 1 6.330150 10.132550 766.370972
381 0 1 6.339730 10.712840 767.122009
382 0 1 6.514030 11.169500 768.002014
383 0 1 6.677780 11.648830 768.770996
384 0 1 6.792940 12.080240 769.585999
385 0 1 6.862810 12.436970 770.463989
386 0 1 6.802680 12.880421 771.299011
387 0 1 6.889970 13.228690 772.218994
388 0 1 6.725740 13.526860 773.127014
389 0 1 6.759670 13.875790 774.035034
390 0 1 6.980170 13.900810 775.023987
391 0 1 7.345681 13.744930 775.966980
392 0 1 7.551015 13.573830 776.863037
393 0 1 7.274153 13.596560 777.726990
394 0 1 6.965120 13.523540 778.635010
395 0 1 6.723900 13.338620 779.549011
396 0 1 6.425600 13.072650 780.437988
397 0 1 6.560700 12.893420 781.400024
398 0 1 6.513750 12.747160 782.327026
399 0 1 6.259150 12.254749 783.103027
400 0 1 6.051760 11.683260 783.856995
401 0 1 6.088980 11.165560 784.688965
402 0 1 5.996180 10.517210 785.351990
403 0 1 6.081930 9.905200 785.997009
404 0 1 5.874190 9.501470 786.971008
405 0 1 5.755530 9.162200 787.877991
406 0 1 5.499240 9.138280 788.851013
407 0 1 5.476130 8.997191 789.844971
408 0 1 5.394030 8.838758 790.835022
409 0 1 5.302460 9.021360 791.817017
410 0 1 5.275870 9.036240 792.792969
411 0 1 5.699340 9.000990 793.666016
412 0 1 5.676210 9.009450 794.572021
413 0 1 5.839500 9.317020 795.478027
414 0 1 5.940630 9.672980 796.380981
415 0 1 5.945120 9.823960 797.403015
416 0 1 5.996760 9.856590 798.372009
417 0 1 6.189050 9.752769 799.323975
418 0 1 6.042860 9.592990 800.255005
419 0 1 5.602050 9.493110 801.067993
420 0 1 5.260940 9.209579 801.968994
421 0 1 5.223810 8.803085 802.914001
422 0 1 5.214270 8.373850 803.776001
423 0 1 4.862760 8.046626 804.582031
424 0 1 4.407420 8.039140 805.471985
425 0 1 3.865390 8.201279 806.216980
426 0 1 3.163450 8.497946 806.833984
427 0 1 2.607680 8.455873 807.619995
428 0 1 2.008530 8.359770 808.311035
429 0 1 1.808050 8.092591 809.188965
430 0 1 1.905110 7.897709 810.164001
431 0 1 1.957160 7.777437 811.130981
432 0 1 2.105690 7.480530 812.087036
433 0 1 2.265040 7.155305 813.020996
434 0 1 2.689770 6.954950 813.872986
435 0 1 3.328630 6.858960 814.617004
436 0 1 3.721290 6.713910 815.431030
437 0 1 3.848980 6.429990 816.351990
438 0 1 4.199120 6.043130 817.096985
439 0 1 4.428090 5.920800 818.063965
440 0 1 4.572520 5.941810 818.981995
441 0 1 4.959150 5.868140 819.837036
442 0 1 5.151080 5.776800 820.770996
443 0 1 5.259910 5.360010 821.645996
444 0 1 5.421960 5.099430 822.603027
445 0 1 5.858370 4.742910 823.372986
446 0 1 6.370150 4.512220 824.119995
447 0 1 6.741530 4.044920 824.908997
448 0 1 7.412861 3.660810 825.450989
449 0 1 8.233968 3.408640 825.838013
450 0 1 8.929286 3.337640 826.473022
451 0 1 9.667110 3.316070 827.119019
452 0 1 10.616070 3.606640 827.432007
453 0 1 11.212160 4.092990 828.114014
454 0 1 11.510050 4.701050 828.796997
455 0 1 11.692970 5.120340 829.672974
456 0 1 11.664770 5.476810 830.603027
457 0 1 11.677150 5.478180 831.565002
458 0 1 11.774090 5.620880 832.542969
459 0 1 11.755390 5.720680 833.515991
460 0 1 12.009501 5.518900 834.484009
461 0 1 12.004681 5.343210 835.494019
462 0 1 11.699540 5.295420 836.384033
463 0 1 11.084160 5.442950 837.049988
464 0 1 10.254470 5.586920 837.551025
465 0 1 9.449850 5.902550 837.973022
466 0 1 8.602602 6.399960 837.989014
467 0 1 7.666965 6.661450 837.984985
468 0 1 6.720380 6.543620 837.839966
469 0 1 5.816810 6.589970 837.575989
470 0 1 5.020880 6.523990 837.015991
471 0 1 4.202490 6.506640 836.594971
472 0 1 3.507910 6.626820 835.910034
473 0 1 3.101040 6.667090 835.057007
474 0 1 2.778740 6.748610 834.136963
475 0 1 2.621870 6.943530 833.192993
476 0 1 2.311580 7.092184 832.332031
477 0 1 2.055810 7.279106 831.419006
478 0 1 2.102680 7.450389 830.466003
479 0 1 1.916070 7.715241 829.583008
480 0 1 1.984480 7.964552 828.684998
481 0 1 1.833640 8.218256 827.742004
482 0 1 1.721750 8.444763 826.825012
483 0 1 1.774310 8.838961 825.921021
484 0 1 1.736460 9.373150 825.132019
485 0 1 1.741690 9.627890 824.177002
486 0 1 1.958630 9.779580 823.213989
487 0 1 2.034730 9.874920 822.328003
488 0 1 2.180460 9.622650 821.408020
489 0 1 2.558630 9.758739 820.523987
490 0 1 2.963140 9.857870 819.718994
491 0 1 3.267550 9.956870 818.838013
492 0 1 3.861780 10.085350 818.010010
493 0 1 4.505040 9.938620 817.315002
494 0 1 4.947890 10.139771 816.495972
495 0 1 5.575660 10.259670 815.747986
496 0 1 6.084850 10.504760 815.035034
497 0 1 6.731930 10.446170 814.317017
498 0 1 7.515517 10.421340 813.755005
499 0 1 8.152393 10.399240 813.078979
500 0 1 8.707923 10.721450 812.434021
501 0 1 9.237820 11.082280 811.667969
502 0 1 9.453170 11.396860 810.773010
503 0 1 9.669840 11.292270 809.837036
504 0 1 10.069000 11.210080 808.973999
505 0 1 10.274890 11.109780 808.011963
506 0 1 10.239660 10.754090 807.135010
507 0 1 10.277280 10.751240 806.119995
508 0 1 10.442640 10.620160 805.238037
509 0 1 10.087700 10.360490 804.414001
510 0 1 9.559480 10.277150 803.679016
511 0 1 8.895767 9.980110 803.037964
512 0 1 8.087193 9.659710 802.614990
513 0 1 7.430127 9.251350 802.065002
514 0 1 6.766280 8.799723 801.565979
515 0 1 6.412230 8.261442 800.833984
516 0 1 6.078810 7.730833 800.091980
517 0 1 5.878000 7.111636 799.354004
518 0 1 5.521070 6.570030 798.690979
519 0 1 5.158550 6.216470 797.867004
520 0 1 5.006990 5.668100 797.052979
521 0 1 5.126350 5.377700 796.143005
522 0 1 5.219970 5.321670 795.099976
523 0 1 5.220320 5.210780 794.153015
524 0 1 5.201180 5.013280 793.181030
525 0 1 5.110860 4.772420 792.265015
526 0 1 4.946430 4.500970 791.351990
527 0 1 4.882450 4.357500 790.424988
528 0 1 4.800750 4.167620 789.500000
529 0 1 4.898050 4.022800 788.557007
530 0 1 4.822210 4.043050 787.601013
531 0 1 4.798290 4.067020 786.617004
532 0 1 5.127110 3.867320 785.708008
533 0 1 5.412310 3.172180 785.093994
534 0 1 5.868550 2.516840 784.604004
535 0 1 6.349540 2.027240 783.955017
536 0 1 6.669140 1.887920 783.000977
537 0 1 7.015304 1.797020 782.117981
538 0 1 7.298229 1.734810 781.186035
539 0 1 7.788061 1.747790 780.343018
540 0 1 8.372317 1.863670 779.624023
541 0 1 8.925918 2.379550 779.101013
542 0 1 9.630660 2.666880 778.547974
543 0 1 10.170390 2.779170 777.768005
544 0 1 10.793080 2.943690 777.046021
545 0 1 11.087400 3.226100 776.237000
546 0 1 11.374040 3.596420 775.351013
547 0 1 11.800820 3.820370 774.549988
548 0 1 12.017930 4.279490 773.742981
549 0 1 12.074300 4.763860 772.893005
550 0 1 12.303810 5.075470 771.992981
551 0 1 12.589670 5.090100 771.087036
552 0 1 12.671340 5.091680 770.132019
553 0 1 12.697220 5.007480 769.208008
554 0 1 12.788390 5.159580 768.250977
555 0 1 12.680000 5.495520 767.372009
556 0 1 12.457661 5.937310 766.542969
557 0 1 12.273180 6.004620 765.570984
558 0 1 12.448680 5.946520 764.624023
559 0 1 12.253030 5.919680 763.658020
560 0 1 12.170031 5.807990 762.716003
561 0 1 12.247169 5.727550 761.797974
562 0 1 12.109050 5.603480 760.781006
563 0 1 11.783950 5.351190 759.882996
564 0 1 11.320320 4.958830 759.072998
565 0 1 10.996830 4.303930 758.442017
566 0 1 11.016350 3.833330 757.562012
567 0 1 10.780380 3.333450 756.813965
568 0 1 10.356810 3.064990 756.013977
569 0 1 9.863520 2.855350 755.236023
570 0 1 9.547600 2.559170 754.388977
571 0 1 9.459150 2.206670 753.497986
572 0 1 9.094020 2.328950 752.591003
573 0 1 8.844600 2.479240 751.705994
574 0 1 8.861213 2.466780 750.693970
575 0 1 8.524629 2.551920 749.791992
576 0 1 7.925557 2.877330 749.117981
577 0 1 7.372696 3.078520 748.322998
578 0 1 6.713870 3.440540 747.671021
579 0 1 6.080500 3.746740 746.927002
580 0 1 5.484430 3.872820 746.242004
581 0 1 5.064430 3.828870 745.338989
582 0 1 4.873670 3.839100 744.385986
583 0 1 4.774620 3.911960 743.445007
584 0 1 4.905210 3.937080 742.509033
585 0 1 4.908800 3.649850 741.588013
586 0 1 4.997650 3.571400 740.599976
587 0 1 5.331510 3.834290 739.768005
588 0 1 5.786940 4.367710 739.125977
589 0 1 6.179780 4.726170 738.320007
590 0 1 6.404250 5.259680 737.492981
591 0 1 6.517390 5.424790 736.591980
592 0 1 6.551620 5.481100 735.588013
593 0 1 6.496170 5.554590 734.648987
594 0 1 6.190120 5.528430 733.786987
595 0 1 5.656100 5.424490 732.989014
596 0 1 5.184660 5.242680 732.151978
597 0 1 4.770880 5.046710 731.268005
598 0 1 4.558310 5.087630 730.325989
599 0 1 4.457560 5.225630 729.380981
600 0 1 4.679610 5.653280 728.419312
601 0 1 4.780750 6.087630 727.615173
602 0 1 4.720300 6.554650 726.740723
603 0 1 4.819010 7.081930 725.962097
604 0 1 5.027220 7.540955 725.205322
605 0 1 5.310700 8.004538 724.383484
606 0 1 5.507840 8.208858 723.442383
607 0 1 5.857650 8.674013 722.662781
608 0 1 6.170150 9.371110 721.986206
609 0 1 6.306190 10.099260 721.331421
610 0 1 6.473100 10.496650 720.444275
611 0 1 6.894130 11.004920 719.676880
612 0 1 7.377561 11.354400 718.934692
613 0 1 7.867933 11.780630 718.223206
614 0 1 8.303231 12.197929 717.522827
615 0 1 8.739967 12.301149 716.691528
616 0 1 8.773450 12.183479 715.762390
617 0 1 8.986864 12.143660 714.823792
618 0 1 9.003040 12.190550 713.852600
619 0 1 8.942868 12.139851 712.909119
620 0 1 9.404710 11.905109 712.003479
621 0 1 9.793570 11.555220 711.143188
622 0 1 9.838590 11.150470 710.312622
623 0 1 10.102710 10.861720 709.464722
624 0 1 10.410910 10.545410 708.572021
625 0 1 10.719990 10.560760 707.699097
626 0 1 11.101480 10.807380 706.868225
627 0 1 11.581739 11.248550 706.236816
628 0 1 12.022090 11.382820 705.378113
629 0 1 12.345760 11.535730 704.483521
630 0 1 12.497320 11.382190 703.609131
631 0 1 12.542120 11.378660 702.592407
632 0 1 12.389811 11.469110 701.643494
633 0 1 12.069120 11.810310 700.827576
634 0 1 11.581250 11.915110 699.915771
635 0 1 10.967680 11.873301 699.164917
636 0 1 10.533340 11.994761 698.338867
637 0 1 9.870950 11.987700 697.651306
638 0 1 9.320560 12.170230 696.893005
639 0 1 8.819235 12.435930 696.180725
640 0 1 8.479631 12.529710 695.258606
641 0 1 8.370604 12.647490 694.307007
642 0 1 8.038868 12.644260 693.351318
643 0 1 7.894772 12.801390 692.436096
644 0 1 7.967341 12.791080 691.465027
645 0 1 7.966758 12.666230 690.517700
646 0 1 8.139919 12.577660 689.554321
647 0 1 8.301482 12.390280 688.620117
648 0 1 8.294566 12.248270 687.627380
649 0 1 8.406727 11.994200 686.667480
650 0 1 8.413028 11.504230 685.808716
651 0 1 8.580574 10.763090 685.072083
652 0 1 8.624348 10.198100 684.182007
653 0 1 8.620716 9.657020 683.376404
654 0 1 8.765321 9.063160 682.655396
655 0 1 9.206720 8.439460 681.945496
656 0 1 9.632370 7.783453 681.286011
657 0 1 9.769690 7.281750 680.407776
658 0 1 9.993610 6.759200 679.623779
659 0 1 10.142890 6.290370 678.781677
660 0 1 10.243650 5.979010 677.910278
661 0 1 10.437110 5.822760 676.998291
662 0 1 10.405010 5.350430 676.178772
663 0 1 10.331310 4.750890 675.280518
664 0 1 10.348940 4.242720 674.440186
665 0 1 10.263650 3.702030 673.650574
666 0 1 9.963840 3.232530 672.907288
667 0 1 9.407630 2.927500 672.120117
668 0 1 8.733061 2.941510 671.332092
669 0 1 8.144653 3.073330 670.638611
670 0 1 7.572007 3.477060 669.968628
671 0 1 6.898420 3.791810 669.326599
672 0 1 6.225770 4.322360 668.890686
673 0 1 5.622570 4.855720 668.416077
674 0 1 5.199770 5.463670 667.683472
675 0 1 4.853410 6.083620 667.042114
676 0 1 4.559880 6.749690 666.446289
677 0 1 4.428430 7.176011 665.562317
678 0 1 4.512830 7.581151 664.712708
679 0 1 4.502120 7.922557 663.810791
680 0 1 4.447090 8.321672 662.935791
681 0 1 4.017410 8.407439 662.047485
682 0 1 3.758910 8.426469 661.080688
683 0 1 3.375480 8.565864 660.215820
684 0 1 3.246790 8.632932 659.295471
685 0 1 3.094100 8.897538 658.361877
686 0 1 3.076060 8.808706 657.427979
687 0 1 3.167920 8.653598 656.457397
688 0 1 2.771720 8.613138 655.622375
689 0 1 2.994220 8.665219 654.703613
690 0 1 3.323360 8.873755 653.784912
691 0 1 3.576640 8.889801 652.894531
692 0 1 3.763530 8.808316 651.965576
693 0 1 3.996640 9.001160 651.030701
694 0 1 4.417260 9.213550 650.231689
695 0 1 4.781100 9.457810 649.309814
696 0 1 4.775250 9.617910 648.349976
697 0 1 4.829180 9.756620 647.425110
698 0 1 5.377560 10.045570 646.590576
699 0 1 5.529240 10.342630 645.741882
700 0 1 5.542580 10.488040 644.807617
701 0 1 5.426390 10.533110 643.823730
702 0 1 5.286450 10.399990 642.886719
703 0 1 5.223090 10.222980 641.992920
704 0 1 5.196910 10.039391 641.079224
705 0 1 5.196080 9.820500 640.053772
706 0 1 4.992770 9.532630 639.150085
707 0 1 4.935800 9.401050 638.129272
708 0 1 4.795000 9.350690 637.100647
709 0 1 4.658130 9.370831 636.116333
710 0 1 4.738050 9.604230 635.163086
711 0 1 4.495020 9.710380 634.206787
712 0 1 4.027490 9.656810 633.374573
713 0 1 3.815650 9.831010 632.496948
714 0 1 3.932320 10.240680 631.635620
715 0 1 3.866360 10.652600 630.675171
716 0 1 3.715810 11.200830 629.861206
717 0 1 3.643880 11.736240 629.040161
718 0 1 3.765000 12.256880 628.214294
719 0 1 4.122690 12.616261 627.323730
720 0 1 4.576370 12.751410 626.403320
721 0 1 4.719380 12.822701 625.467346
722 0 1 4.849950 12.670280 624.542236
723 0 1 5.037940 12.626420 623.610657
724 0 1 4.846290 12.678420 622.674561
725 0 1 4.935990 12.779221 621.752502
726 0 1 4.968460 12.754789 620.833313
727 0 1 4.969550 12.823680 619.815369
728 0 1 5.241390 12.761240 618.788757
729 0 1 5.636220 12.876060 617.888611
730 0 1 5.860650 12.968520 616.935913
731 0 1 5.931440 12.944380 616.025696
732 0 1 6.165590 12.890110 615.084717
733 0 1 6.481030 12.665410 614.195190
734 0 1 6.518600 12.285860 613.278381
735 0 1 6.729020 11.985950 612.383484
736 0 1 6.993870 11.751220 611.459106
737 0 1 7.163429 11.206370 610.654480
738 0 1 7.391092 10.813210 609.759888
739 0 1 7.108149 10.674580 608.883301
740 0 1 6.979250 10.664450 607.895325
741 0 1 7.160560 10.460670 607.007324
742 0 1 7.330534 10.088921 606.159119
743 0 1 7.339270 9.548200 605.236511
744 0 1 7.518353 9.109360 604.442688
745 0 1 7.621838 8.902572 603.472290
746 0 1 7.596166 8.411431 602.639526
747 0 1 7.878034 7.833888 601.874084
748 0 1 8.400046 7.369720 601.182678
749 0 1 8.678641 7.000812 600.364807
750 0 1 9.137910 6.583010 599.574219
751 0 1 9.568400 6.499410 598.765625
752 0 1 10.048970 6.293740 597.879211
753 0 1 10.517920 6.339760 597.048523
754 0 1 10.835830 6.214690 596.171082
755 0 1 10.958400 6.008620 595.186218
756 0 1 11.138900 6.143500 594.267273
757 0 1 11.119670 6.638470 593.468506
758 0 1 11.033330 7.163690 592.632568
759 0 1 11.085590 7.759771 591.781799
760 0 1 11.208200 7.726489 590.799072
761 0 1 11.343349 7.897585 589.877014
762 0 1 11.142950 8.053495 588.907593
763 0 1 10.997680 7.866818 587.989075
764 0 1 11.244431 7.804791 587.042908
765 0 1 11.307730 7.812110 586.106323
766 0 1 11.006630 7.783509 585.195618
767 0 1 10.731160 7.585918 584.342529
768 0 1 10.518030 7.385174 583.366028
769 0 1 10.266670 7.486856 582.457031
770 0 1 10.397570 7.536987 581.477112
771 0 1 10.601330 7.235536 580.603821
772 0 1 10.750480 6.828190 579.684814
773 0 1 10.936350 6.551890 578.756287
774 0 1 10.810450 5.967120 577.973572
775 0 1 10.597580 5.726690 577.119385
776 0 1 10.613560 5.422390 576.176086
777 0 1 10.461130 5.440750 575.272400
778 0 1 10.013620 5.655220 574.353821
779 0 1 9.367400 5.484160 573.694519
780 0 1 8.624594 5.395590 573.034180
781 0 1 7.918768 5.477040 572.355713
782 0 1 7.223531 5.561870 571.696289
783 0 1 6.531370 5.541260 571.061707
784 0 1 5.753010 5.715430 570.622498
785 0 1 4.863670 5.657370 570.171997
786 0 1 4.128680 5.510800 569.593811
787 0 1 3.462750 5.339020 568.924194
788 0 1 3.114390 5.027820 568.089722
789 0 1 2.702570 4.951830 567.203491
790 0 1 2.421900 4.891790 566.297791
791 0 1 2.449670 5.001800 565.332214
792 0 1 2.507900 5.397440 564.508118
793 0 1 2.643760 5.703180 563.660034