LAMMPS data file via MDAnalysis

        1000  atoms
        1000  bonds
        1000  angles
           0  dihedrals
           0  impropers

           1  atom types
           1  bond types
           1  angle types
           0  dihedral types
           0  improper types

0.000000 16.000000 xlo xhi
0.000000 16.000000 ylo yhi
0.000000 1257.000000 zlo zhi


Masses

1 1.000000

Atoms

1 0 1 9.360970 13.027920 457.158020
2 0 1 8.731766 13.584080 457.556000
3 0 1 8.359598 13.861139 458.434021
4 0 1 8.147184 13.668671 459.440979
5 0 1 8.187716 13.499810 460.382996
6 0 1 8.292558 13.365931 461.296997
7 0 1 8.195755 13.338770 462.302979
8 0 1 8.445165 13.072470 463.199005
9 0 1 8.844907 12.591790 463.934998
10 0 1 9.242980 12.233590 464.710999
11 0 1 9.275090 11.859320 465.656006
12 0 1 9.247470 11.493020 466.561005
13 0 1 8.946454 11.397890 467.492004
14 0 1 8.729358 11.263969 468.485992
15 0 1 8.641940 11.307250 469.536011
16 0 1 8.595611 11.312020 470.546997
17 0 1 8.788269 11.289100 471.492981
18 0 1 8.760076 10.738461 472.264008
19 0 1 8.605736 10.377360 473.117004
20 0 1 8.243120 10.216579 474.062012
21 0 1 7.730918 10.080300 474.825989
22 0 1 7.584218 9.798870 475.712006
23 0 1 7.465459 9.602300 476.716980
24 0 1 7.474319 9.483470 477.671997
25 0 1 7.507712 8.995718 478.539978
26 0 1 7.225719 8.430365 479.279999
27 0 1 7.012598 8.085231 480.169983
28 0 1 6.756800 7.770450 481.059021
29 0 1 6.525580 7.633708 481.951996
30 0 1 5.927180 7.405604 482.609009
31 0 1 5.439830 7.194864 483.354980
32 0 1 4.831410 7.076096 484.143982
33 0 1 4.212150 7.280361 484.791016
34 0 1 3.573710 7.731377 485.300995
35 0 1 3.199970 8.247349 486.050995
36 0 1 3.067800 8.776261 486.884003
37 0 1 3.261790 9.179590 487.802002
38 0 1 3.122810 9.424760 488.773010
39 0 1 3.079460 9.318890 489.747009
40 0 1 2.749040 9.076290 490.632996
41 0 1 2.272800 9.062930 491.455994
42 0 1 1.684000 9.185240 492.273010
43 0 1 1.448440 9.475890 493.200012
44 0 1 1.508290 9.476190 494.179016
45 0 1 1.585570 9.663530 495.108002
46 0 1 1.722780 10.072960 495.964996
47 0 1 2.016900 10.495200 496.812012
48 0 1 2.521300 10.568980 497.671997
49 0 1 2.955320 11.026520 498.351990
50 0 1 3.366130 11.328180 499.164978
51 0 1 3.536690 11.529600 500.057983
52 0 1 3.547110 12.113091 500.799011
53 0 1 3.551740 12.896640 501.432007
54 0 1 3.604270 13.094629 502.380981
55 0 1 3.811250 12.893440 503.298004
56 0 1 3.955660 12.794640 504.231995
57 0 1 4.369490 12.792510 505.119019
58 0 1 4.403210 12.273300 506.003998
59 0 1 4.265690 12.082390 506.931000
60 0 1 4.585500 11.995600 507.890991
61 0 1 4.702570 12.217310 508.821991
62 0 1 4.916050 12.507549 509.687012
63 0 1 5.382680 12.397670 510.595001
64 0 1 5.577910 12.334070 511.537994
65 0 1 5.504030 12.173161 512.507019
66 0 1 5.513200 12.224609 513.440979
67 0 1 5.545130 12.096371 514.382019
68 0 1 5.577430 12.068790 515.348022
69 0 1 5.652610 12.435080 516.285034
70 0 1 5.850380 12.550520 517.247986
71 0 1 5.934500 12.702860 518.151978
72 0 1 6.120160 12.531590 519.088013
73 0 1 6.309640 12.264410 520.038025
74 0 1 6.357000 12.111509 520.995972
75 0 1 6.529250 11.491700 521.763000
76 0 1 6.634480 10.788110 522.382996
77 0 1 7.062568 9.983990 522.653992
78 0 1 7.502631 9.102830 522.872986
79 0 1 7.739619 8.368934 523.419006
80 0 1 7.925986 7.597895 524.075989
81 0 1 7.856941 6.881810 524.684998
82 0 1 7.636243 6.635720 525.565002
83 0 1 7.765628 6.134100 526.367981
84 0 1 8.078854 5.795830 527.197021
85 0 1 8.543755 5.476490 528.030029
86 0 1 8.762542 5.367570 528.952393
87 0 1 8.943473 5.340110 529.886414
88 0 1 9.052299 5.166520 530.830566
89 0 1 9.071210 5.274620 531.731018
90 0 1 9.320280 5.141440 532.699219
91 0 1 9.735530 5.157260 533.546631
92 0 1 10.003380 5.443030 534.431702
93 0 1 10.175640 5.388810 535.385620
94 0 1 10.662050 5.426010 536.284485
95 0 1 10.996870 5.828260 537.146790
96 0 1 11.178250 6.276690 537.981812
97 0 1 11.098400 6.633920 538.858521
98 0 1 11.115020 7.024349 539.772888
99 0 1 11.045150 7.176862 540.730896
100 0 1 11.003730 7.200458 541.685425
101 0 1 11.046820 6.872830 542.620300
102 0 1 10.940080 6.595840 543.513184
103 0 1 10.961970 6.229600 544.377625
104 0 1 11.139020 6.027350 545.273926
105 0 1 11.328300 6.078500 546.208923
106 0 1 11.418270 6.067910 547.149780
107 0 1 11.488400 6.154090 548.080078
108 0 1 11.862490 6.373300 548.951294
109 0 1 12.148670 6.544500 549.841431
110 0 1 12.587700 6.843150 550.667969
111 0 1 13.191510 7.196684 551.351013
112 0 1 13.606410 7.380757 552.270508
113 0 1 13.866640 7.465870 553.155579
114 0 1 14.062790 7.748674 554.091614
115 0 1 13.958170 8.184614 554.919434
116 0 1 14.099000 8.755115 555.709717
117 0 1 14.241050 9.374700 556.456421
118 0 1 14.291980 10.285300 556.949280
119 0 1 14.154110 11.105619 557.485413
120 0 1 13.697910 11.746099 558.117920
121 0 1 13.050779 12.387510 558.411194
122 0 1 12.329830 12.853291 558.804626
123 0 1 11.447200 12.797720 559.217590
124 0 1 10.670900 12.511560 559.709595
125 0 1 10.007510 12.167550 560.328979
126 0 1 9.442220 11.925620 561.022888
127 0 1 8.922608 11.507880 561.764221
128 0 1 8.491861 10.884290 562.363220
129 0 1 8.232470 10.273330 563.028809
130 0 1 7.775125 9.724200 563.653198
131 0 1 7.289584 9.381540 564.489624
132 0 1 7.014961 9.170480 565.392212
133 0 1 6.711620 8.870234 566.261780
134 0 1 6.563380 8.413693 567.076172
135 0 1 6.616300 8.136021 568.003174
136 0 1 6.552040 8.092262 568.971375
137 0 1 6.308540 8.023357 569.860596
138 0 1 5.780780 7.634702 570.498718
139 0 1 5.366060 7.274727 571.350830
140 0 1 5.290320 6.733670 572.131226
141 0 1 5.210040 6.271200 572.962769
142 0 1 4.914010 5.841510 573.785828
143 0 1 4.925430 5.377870 574.599304
144 0 1 4.743820 5.466300 575.553223
145 0 1 4.420810 5.619450 576.433899
146 0 1 4.166670 5.947750 577.278198
147 0 1 4.026590 5.995410 578.200928
148 0 1 3.769730 6.178390 579.205627
149 0 1 3.517850 6.250750 580.132019
150 0 1 3.402170 6.652890 581.038513
151 0 1 3.314470 6.910260 581.973877
152 0 1 3.330150 7.204973 582.845398
153 0 1 3.678080 7.508893 583.679504
154 0 1 4.096110 7.689708 584.479675
155 0 1 4.303330 7.691697 585.384216
156 0 1 4.581590 7.911541 586.285889
157 0 1 4.812890 8.321302 587.175415
158 0 1 4.998950 8.731654 587.992432
159 0 1 5.057730 9.251000 588.796997
160 0 1 5.125610 9.719580 589.553284
161 0 1 5.253200 9.868520 590.533020
162 0 1 5.379820 10.119010 591.554016
163 0 1 5.823470 10.411320 592.380798
164 0 1 6.108160 10.655050 593.315979
165 0 1 6.028580 10.886700 594.340881
166 0 1 5.765930 10.934430 595.323181
167 0 1 5.338880 11.144930 596.166016
168 0 1 5.071560 11.142650 597.082703
169 0 1 4.926680 11.186310 598.050415
170 0 1 4.941840 11.545950 598.909912
171 0 1 5.129350 11.707479 599.893005
172 0 1 5.265900 11.483191 600.801819
173 0 1 5.596890 11.397090 601.714600
174 0 1 5.833720 11.208230 602.618774
175 0 1 6.311710 11.118510 603.461609
176 0 1 6.733320 10.920070 604.338623
177 0 1 6.826660 10.765330 605.277527
178 0 1 6.688290 10.923531 606.148071
179 0 1 6.555960 11.038990 607.104797
180 0 1 6.554080 11.349800 608.056885
181 0 1 6.418650 11.513460 608.960327
182 0 1 6.215020 11.433040 609.960205
183 0 1 5.788650 11.395360 610.771118
184 0 1 5.437440 11.397490 611.730469
185 0 1 5.199700 11.712740 612.550110
186 0 1 4.722050 12.125540 613.348877
187 0 1 4.311920 12.407380 614.174072
188 0 1 4.018570 12.944469 614.895691
189 0 1 3.772640 13.248040 615.762207
190 0 1 3.818970 13.477610 616.691528
191 0 1 3.673110 13.352210 617.627380
192 0 1 3.981660 13.072840 618.429321
193 0 1 4.175310 13.148840 619.378357
194 0 1 4.510880 13.235640 620.268127
195 0 1 4.885290 13.343161 621.143738
196 0 1 5.461000 13.231200 621.892273
197 0 1 5.838540 13.203310 622.796265
198 0 1 6.060730 13.148980 623.782532
199 0 1 6.336480 12.924980 624.711426
200 0 1 6.636150 12.981820 625.665222
201 0 1 6.827100 12.856911 626.662292
202 0 1 7.190495 12.646481 627.566711
203 0 1 7.492256 12.183149 628.353271
204 0 1 7.882417 12.023951 629.193176
205 0 1 8.249151 12.016370 630.042114
206 0 1 8.376243 11.810190 630.988220
207 0 1 8.596753 11.561650 631.879639
208 0 1 8.774053 11.219440 632.864502
209 0 1 8.907403 10.835880 633.701111
210 0 1 9.031050 10.482520 634.629456
211 0 1 8.995709 10.658330 635.619934
212 0 1 8.956917 10.796391 636.584167
213 0 1 8.847404 10.796420 637.535156
214 0 1 8.962272 11.099780 638.406372
215 0 1 9.116770 11.321760 639.307007
216 0 1 9.260080 11.290310 640.298096
217 0 1 9.435650 11.283720 641.262878
218 0 1 9.581290 11.329520 642.302002
219 0 1 9.616520 11.390739 643.315308
220 0 1 9.650460 11.615231 644.281494
221 0 1 9.672550 11.639850 645.253784
222 0 1 9.589849 11.672020 646.226501
223 0 1 9.550370 11.808290 647.173218
224 0 1 9.383039 11.683980 648.054016
225 0 1 9.214900 11.702840 648.938599
226 0 1 9.045830 12.001360 649.832214
227 0 1 8.620342 12.178989 650.695496
228 0 1 8.279586 12.307680 651.611694
229 0 1 8.347704 12.522490 652.540222
230 0 1 8.538279 12.721149 653.473083
231 0 1 8.553590 12.822030 654.445618
232 0 1 8.765971 12.748510 655.390503
233 0 1 8.949321 12.558400 656.269775
234 0 1 8.977381 12.407101 657.260620
235 0 1 9.089470 12.134951 658.151611
236 0 1 9.084150 11.755350 659.054688
237 0 1 9.134150 11.251460 659.882385
238 0 1 9.123860 10.510350 660.505188
239 0 1 9.149570 9.991910 661.287781
240 0 1 8.881467 9.444630 662.000977
241 0 1 8.795642 8.857282 662.713806
242 0 1 8.658113 8.722623 663.668701
243 0 1 8.610423 8.595139 664.595886
244 0 1 8.604692 8.676508 665.549194
245 0 1 8.536832 9.031580 666.450012
246 0 1 8.888569 9.130750 667.354797
247 0 1 9.184680 8.941262 668.202515
248 0 1 9.427250 8.711837 669.073608
249 0 1 9.445730 8.566681 670.016785
250 0 1 9.592450 8.396898 670.965881
251 0 1 9.750040 8.256938 671.900085
252 0 1 10.112540 8.261029 672.752014
253 0 1 10.357590 8.396016 673.668213
254 0 1 10.595260 8.613975 674.643188
255 0 1 10.430540 8.611137 675.601501
256 0 1 10.140700 8.589636 676.531006
257 0 1 9.771780 8.779288 677.431091
258 0 1 9.159190 8.893331 678.230408
259 0 1 8.711388 9.082900 678.987183
260 0 1 8.482944 9.497869 679.826904
261 0 1 8.450422 9.803650 680.756470
262 0 1 8.500784 9.978100 681.702087
263 0 1 8.437315 10.278370 682.602600
264 0 1 8.252517 10.497971 683.524170
265 0 1 8.325598 10.422200 684.505127
266 0 1 8.479704 10.445311 685.476685
267 0 1 8.636592 10.557730 686.421997
268 0 1 8.325781 10.487320 687.331909
269 0 1 8.483090 10.589211 688.286316
270 0 1 8.944441 10.661950 689.149414
271 0 1 9.142580 10.320601 690.042297
272 0 1 9.185940 10.080860 690.964783
273 0 1 9.111030 9.935190 691.955017
274 0 1 8.996858 9.992980 692.974426
275 0 1 8.498997 9.903840 693.754883
276 0 1 8.115408 9.900170 694.605469
277 0 1 7.646172 9.630590 695.373901
278 0 1 7.288107 9.239690 696.192505
279 0 1 6.880230 9.005920 697.042603
280 0 1 6.694740 8.894327 697.963867
281 0 1 6.396450 8.681067 698.890320
282 0 1 6.029470 8.724075 699.749634
283 0 1 6.080160 8.784856 700.709595
284 0 1 6.074240 8.945778 701.648193
285 0 1 5.648520 8.981496 702.520203
286 0 1 5.234250 9.165660 703.385803
287 0 1 4.668680 9.407860 704.193909
288 0 1 4.321570 9.411020 705.093079
289 0 1 4.257610 9.300460 706.064575
290 0 1 4.238200 9.069300 706.996277
291 0 1 4.079420 8.978954 707.925110
292 0 1 3.555320 8.825606 708.694580
293 0 1 3.150330 8.719335 709.536804
294 0 1 2.889740 8.496599 710.427612
295 0 1 2.917180 8.003939 711.214783
296 0 1 2.839790 7.500831 712.017395
297 0 1 2.726570 7.076613 712.865601
298 0 1 2.580650 7.056931 713.800903
299 0 1 2.351750 7.175313 714.763184
300 0 1 1.998280 7.315276 715.607422
301 0 1 2.018740 7.386989 716.605469
302 0 1 2.053420 7.448964 717.506287
303 0 1 1.987090 7.568305 718.485107
304 0 1 1.981700 7.842927 719.439880
305 0 1 2.078550 8.037928 720.400574
306 0 1 2.193050 7.983149 721.354797
307 0 1 2.392580 7.482965 722.174805
308 0 1 2.374800 6.862140 722.919189
309 0 1 2.609550 6.506310 723.792297
310 0 1 2.791890 6.367840 724.722778
311 0 1 2.825220 6.546180 725.676392
312 0 1 2.425170 6.597040 726.589783
313 0 1 2.211500 6.344660 727.492493
314 0 1 2.069000 6.516110 728.493713
315 0 1 2.225270 6.601880 729.439026
316 0 1 2.582160 7.020818 730.242004
317 0 1 2.904000 7.219842 731.210999
318 0 1 3.205930 7.503607 732.134033
319 0 1 3.643700 7.691377 732.934021
320 0 1 4.423330 7.540915 733.460022
321 0 1 5.087390 7.319658 734.130981
322 0 1 5.710280 7.221072 734.846985
323 0 1 6.417860 7.104075 735.473999
324 0 1 7.244889 7.335290 735.942017
325 0 1 7.830822 7.578956 736.664001
326 0 1 8.279457 7.792910 737.520020
327 0 1 8.453890 7.785438 738.458984
328 0 1 8.603999 7.593050 739.390015
329 0 1 8.747155 7.345268 740.307007
330 0 1 8.996247 6.889490 741.124023
331 0 1 9.471180 6.516370 741.943970
332 0 1 9.827180 6.116810 742.731995
333 0 1 9.870240 5.726580 743.632996
334 0 1 9.958540 5.558270 744.572998
335 0 1 9.898040 5.421230 745.520020
336 0 1 9.888660 5.564330 746.461975
337 0 1 10.077230 6.172010 747.155029
338 0 1 9.956779 6.734530 747.947998
339 0 1 10.144000 7.309633 748.648010
340 0 1 10.669860 7.909865 749.214966
341 0 1 11.226900 8.335819 749.835999
342 0 1 11.694260 8.782059 750.588013
343 0 1 12.185310 8.970513 751.372009
344 0 1 12.711910 8.712135 752.145996
345 0 1 12.961440 8.302261 752.953979
346 0 1 13.070110 7.968452 753.882996
347 0 1 13.345980 7.635244 754.703979
348 0 1 13.432620 7.265725 755.562012
349 0 1 13.410410 6.835280 756.455017
350 0 1 13.351561 6.168210 757.247009
351 0 1 13.240641 5.531470 757.931030
352 0 1 13.001520 4.821350 758.588013
353 0 1 12.783649 4.243250 759.367004
354 0 1 12.558661 3.459910 759.906006
355 0 1 11.977850 3.144420 760.552002
356 0 1 11.562460 2.985040 761.362000
357 0 1 11.079290 2.818300 762.184021
358 0 1 10.998250 2.611940 763.177002
359 0 1 10.772610 2.910300 764.082031
360 0 1 10.511090 3.097290 765.039978
361 0 1 10.250880 3.306480 765.929993
362 0 1 9.851770 3.517730 766.757996
363 0 1 9.721180 3.543810 767.763000
364 0 1 9.636800 3.548170 768.778015
365 0 1 9.677940 3.798410 769.688965
366 0 1 9.855730 4.224840 770.518982
367 0 1 9.758120 4.728630 771.359009
368 0 1 9.707950 4.993970 772.320007
369 0 1 9.396760 5.172420 773.205994
370 0 1 9.084170 5.212080 774.140991
371 0 1 8.875694 5.243560 775.072021
372 0 1 8.776187 5.129960 776.023010
373 0 1 8.833101 4.993150 776.947998
374 0 1 9.056530 4.771850 777.822998
375 0 1 9.211530 4.451580 778.679016
376 0 1 9.588720 4.002040 779.445007
377 0 1 9.998140 3.539080 780.164978
378 0 1 10.582450 3.421870 780.900024
379 0 1 11.079900 3.203520 781.613037
380 0 1 11.709150 3.303570 782.286011
381 0 1 12.215290 3.793870 782.976013
382 0 1 12.710170 4.171040 783.679016
383 0 1 13.131790 4.321380 784.521973
384 0 1 13.549829 4.452020 785.400024
385 0 1 13.489130 4.757900 786.320984
386 0 1 13.329350 5.309890 787.132019
387 0 1 12.982220 5.822510 787.994019
388 0 1 13.056630 6.413050 788.809021
389 0 1 12.974620 6.928080 789.580994
390 0 1 12.898890 7.554655 790.311035
391 0 1 12.661819 7.987125 791.124023
392 0 1 12.414600 8.315380 792.005981
393 0 1 12.131741 8.849412 792.785034
394 0 1 11.772970 9.206530 793.625000
395 0 1 11.388560 9.205500 794.489990
396 0 1 10.820470 9.114040 795.268005
397 0 1 10.156300 8.940923 795.953003
398 0 1 9.564370 8.984475 796.729980
399 0 1 8.762020 8.919170 797.320984
400 0 1 8.289805 8.685903 798.072998
401 0 1 7.964188 8.463829 798.940002
402 0 1 7.765017 8.018112 799.794006
403 0 1 7.815117 7.919591 800.807007
404 0 1 7.996671 7.722953 801.778992
405 0 1 8.083652 7.748202 802.737000
406 0 1 8.229280 7.805436 803.744995
407 0 1 8.522690 7.871326 804.700012
408 0 1 8.595329 7.951181 805.687988
409 0 1 9.113180 7.932612 806.520020
410 0 1 9.603140 7.556481 807.278992
411 0 1 10.141140 7.127683 807.932007
412 0 1 10.482470 6.660870 808.781006
413 0 1 10.654150 6.241430 809.655029
414 0 1 10.766460 6.024280 810.570007
415 0 1 11.158440 5.833410 811.483032
416 0 1 11.521930 5.834020 812.335999
417 0 1 11.760600 6.055500 813.234985
418 0 1 12.038530 6.186080 814.122009
419 0 1 12.060249 6.289650 815.059998
420 0 1 12.116400 6.081730 816.013000
421 0 1 12.190041 5.783830 816.895996
422 0 1 12.208740 5.423210 817.854980
423 0 1 12.214140 4.951370 818.764038
424 0 1 12.446650 4.818910 819.718018
425 0 1 12.621030 5.057420 820.666016
426 0 1 12.675690 5.278630 821.599976
427 0 1 12.568880 5.627220 822.572021
428 0 1 12.459530 6.092290 823.434021
429 0 1 12.358580 6.499340 824.307983
430 0 1 11.934510 6.713960 825.146973
431 0 1 11.415330 7.070312 825.989990
432 0 1 11.025579 7.433924 826.820007
433 0 1 10.832100 7.775076 827.677002
434 0 1 10.607110 8.192452 828.509033
435 0 1 10.320050 8.534327 829.400024
436 0 1 10.199220 8.909103 830.294006
437 0 1 9.880930 9.352180 831.125977
438 0 1 9.589470 9.918080 831.825989
439 0 1 9.156440 10.589990 832.362000
440 0 1 8.744781 10.795370 833.213013
441 0 1 8.212066 11.138550 833.957031
442 0 1 7.503417 11.072230 834.536987
443 0 1 6.960160 10.828920 835.323975
444 0 1 6.239080 10.574080 835.886963
445 0 1 5.895760 10.409100 836.811035
446 0 1 5.861000 10.038310 837.697998
447 0 1 5.886040 9.594960 838.570007
448 0 1 5.958060 8.909668 839.263000
449 0 1 5.945820 8.026761 839.557983
450 0 1 5.629280 7.134511 839.653015
451 0 1 5.499950 6.178570 839.460022
452 0 1 5.773130 5.304200 839.208984
453 0 1 6.103410 4.462540 838.747009
454 0 1 6.037620 4.146770 837.849976
455 0 1 6.000500 3.753430 836.952026
456 0 1 6.034730 3.195960 836.093018
457 0 1 5.745480 3.005060 835.212036
458 0 1 5.305990 2.915200 834.363037
459 0 1 5.232940 2.870540 833.356995
460 0 1 5.382580 2.766860 832.447021
461 0 1 5.483750 2.761270 831.495972
462 0 1 5.547860 2.618050 830.499023
463 0 1 5.709590 2.688610 829.552979
464 0 1 5.637200 3.001260 828.547974
465 0 1 5.546960 3.539490 827.802002
466 0 1 5.123270 4.041100 827.061035
467 0 1 4.765910 4.448920 826.273010
468 0 1 4.490200 5.017790 825.544006
469 0 1 4.184500 5.403120 824.778992
470 0 1 4.255990 5.875800 823.893982
471 0 1 4.375870 6.095290 822.964966
472 0 1 4.748040 6.324690 822.108032
473 0 1 4.957060 6.600970 821.233032
474 0 1 4.738080 6.783020 820.309021
475 0 1 4.878900 6.735860 819.306030
476 0 1 4.746830 6.759610 818.294983
477 0 1 4.490330 6.946630 817.395020
478 0 1 4.543510 6.832940 816.445007
479 0 1 4.703390 6.632270 815.499023
480 0 1 4.665560 6.687350 814.484985
481 0 1 4.469760 6.630610 813.572021
482 0 1 4.101520 6.643140 812.695007
483 0 1 3.751030 6.344460 811.802002
484 0 1 3.709540 6.071760 810.877991
485 0 1 3.555280 6.130650 809.953003
486 0 1 3.610980 6.410960 809.000977
487 0 1 3.522760 6.502210 808.042969
488 0 1 3.659330 6.810610 807.130005
489 0 1 4.067010 7.032700 806.208984
490 0 1 4.407570 7.480069 805.410034
491 0 1 4.583740 7.822371 804.526978
492 0 1 4.962860 7.989013 803.661011
493 0 1 5.282560 8.150272 802.781982
494 0 1 5.567280 8.076450 801.768982
495 0 1 5.859130 7.991454 800.898010
496 0 1 5.987980 7.723129 799.971985
497 0 1 5.920070 7.579390 799.049011
498 0 1 6.246850 7.302207 798.197021
499 0 1 6.296250 7.107788 797.197998
500 0 1 6.261250 7.074479 796.265015
501 0 1 6.096450 7.321668 795.348022
502 0 1 5.837600 7.341867 794.391968
503 0 1 5.906870 7.583583 793.473999
504 0 1 6.072160 8.065853 792.645020
505 0 1 6.307650 8.408592 791.742981
506 0 1 6.307160 8.514399 790.768982
507 0 1 6.353460 8.923883 789.882019
508 0 1 6.218200 9.204140 788.973999
509 0 1 6.284180 9.797470 788.125000
510 0 1 6.393180 10.186090 787.268005
511 0 1 6.661170 10.670330 786.518982
512 0 1 7.020706 10.616410 785.641968
513 0 1 7.641780 10.376580 784.916992
514 0 1 8.053212 10.353450 784.085022
515 0 1 8.496745 10.455420 783.108032
516 0 1 8.902792 10.536250 782.257019
517 0 1 9.209430 10.783200 781.406982
518 0 1 9.491110 10.464130 780.489014
519 0 1 9.738340 10.242840 779.583008
520 0 1 10.211480 10.032860 778.752991
521 0 1 10.667540 9.632100 778.011963
522 0 1 11.190020 9.534210 777.218994
523 0 1 11.803420 9.562090 776.431030
524 0 1 12.352610 9.509490 775.653015
525 0 1 12.695530 9.427530 774.700012
526 0 1 12.713530 9.362700 773.697998
527 0 1 12.523860 9.381830 772.759033
528 0 1 12.376410 9.377390 771.843994
529 0 1 11.808410 9.298590 771.052979
530 0 1 11.022190 9.255820 770.471008
531 0 1 10.365850 9.412920 769.799988
532 0 1 9.668120 9.550150 769.132019
533 0 1 8.789402 9.566020 768.710022
534 0 1 7.977097 9.679940 768.280029
535 0 1 7.329982 10.085670 767.679993
536 0 1 6.641490 10.572400 767.294006
537 0 1 6.228190 11.086470 766.599976
538 0 1 5.726430 11.360530 765.841980
539 0 1 5.392030 11.461010 764.971985
540 0 1 5.244980 11.533430 764.031982
541 0 1 5.146980 11.523640 763.057983
542 0 1 5.080140 11.764330 762.106995
543 0 1 5.220140 11.910120 761.106995
544 0 1 5.326460 12.040920 760.158997
545 0 1 5.296580 12.022710 759.219971
546 0 1 5.560540 12.066760 758.309021
547 0 1 5.857840 12.155090 757.419006
548 0 1 6.189360 11.835570 756.541016
549 0 1 6.520020 11.482710 755.656006
550 0 1 7.096863 11.273211 754.854980
551 0 1 7.652026 11.008160 754.059998
552 0 1 8.021056 10.567930 753.306030
553 0 1 8.409241 10.236420 752.432983
554 0 1 9.088570 10.114730 751.728027
555 0 1 9.687310 10.465290 751.119019
556 0 1 10.151690 10.828390 750.322021
557 0 1 10.733220 11.060640 749.573975
558 0 1 11.253610 11.238760 748.802979
559 0 1 11.740070 11.208281 747.995972
560 0 1 11.916270 11.237900 747.086975
561 0 1 12.194190 11.332930 746.185974
562 0 1 12.402990 11.174770 745.237976
563 0 1 12.704300 11.282610 744.362000
564 0 1 12.844419 11.070450 743.396973
565 0 1 12.570980 10.832230 742.495972
566 0 1 12.592290 10.455060 741.564026
567 0 1 12.599330 10.066260 740.656982
568 0 1 12.781879 9.984650 739.687012
569 0 1 12.884399 9.858550 738.723999
570 0 1 12.783230 10.053130 737.802002
571 0 1 12.448580 9.868080 736.943970
572 0 1 12.136890 9.432360 736.098022
573 0 1 11.875040 8.913876 735.302002
574 0 1 11.416630 8.670038 734.526001
575 0 1 10.863250 8.551704 733.747009
576 0 1 10.175631 8.752142 733.140015
577 0 1 9.439530 8.957548 732.627991
578 0 1 8.828210 9.311340 731.981995
579 0 1 8.443492 9.513750 731.155029
580 0 1 8.313207 9.731100 730.214966
581 0 1 8.003669 9.702950 729.299988
582 0 1 7.641685 9.662090 728.452209
583 0 1 7.385914 9.634720 727.505005
584 0 1 7.587977 9.520840 726.564880
585 0 1 7.775575 9.343820 725.619019
586 0 1 7.780104 8.986938 724.710083
587 0 1 7.499576 8.938218 723.716003
588 0 1 7.232551 8.797279 722.769531
589 0 1 7.147754 8.559519 721.828125
590 0 1 7.186847 8.115763 721.020813
591 0 1 7.293344 7.639801 720.200378
592 0 1 7.514503 6.930250 719.498718
593 0 1 7.989932 6.371930 718.833313
594 0 1 8.658061 5.891230 718.333923
595 0 1 9.189880 5.449730 717.630493
596 0 1 9.761660 5.013870 716.993408
597 0 1 10.105830 4.674410 716.177673
598 0 1 10.327260 4.349670 715.277832
599 0 1 10.555310 4.200180 714.339294
600 0 1 10.646030 3.993580 713.420288
601 0 1 10.650440 3.767500 712.423096
602 0 1 10.983250 3.287820 711.635193
603 0 1 11.155770 3.011800 710.734497
604 0 1 11.276880 2.890200 709.807190
605 0 1 11.127480 2.903780 708.872620
606 0 1 11.042030 2.793850 707.961426
607 0 1 10.641030 2.641090 707.125732
608 0 1 10.456050 2.649440 706.199280
609 0 1 10.174260 2.525570 705.332031
610 0 1 9.936510 2.327700 704.357178
611 0 1 9.374331 2.051160 703.559021
612 0 1 9.027180 2.011120 702.664673
613 0 1 8.296507 1.960610 701.980286
614 0 1 7.595445 1.913450 701.361511
615 0 1 6.785780 1.797720 700.850281
616 0 1 6.298830 1.643250 700.126526
617 0 1 5.778890 1.639030 699.327515
618 0 1 5.279870 1.919700 698.558472
619 0 1 4.649990 2.241270 697.832214
620 0 1 4.313760 2.497970 696.949402
621 0 1 4.137580 2.905270 696.067078
622 0 1 4.082350 3.360560 695.256287
623 0 1 4.034630 3.565410 694.306030
624 0 1 4.070960 3.725420 693.313232
625 0 1 4.117410 4.045360 692.437927
626 0 1 4.115150 4.316420 691.514282
627 0 1 3.980580 4.692800 690.626587
628 0 1 3.670090 4.966020 689.725098
629 0 1 3.639310 5.157320 688.755310
630 0 1 3.412260 5.478450 687.915100
631 0 1 3.444910 5.994070 687.086975
632 0 1 3.373900 6.362060 686.218689
633 0 1 3.402040 6.536350 685.268677
634 0 1 3.380990 6.628570 684.250488
635 0 1 3.621300 6.570570 683.299500
636 0 1 3.823210 6.537840 682.282227
637 0 1 3.689290 6.522000 681.346985
638 0 1 3.749670 6.675520 680.371521
639 0 1 3.787750 6.585260 679.402405
640 0 1 3.357360 6.180440 678.619080
641 0 1 3.184510 5.577090 677.922974
642 0 1 2.972410 4.939330 677.231323
643 0 1 2.725630 4.313220 676.487915
644 0 1 2.632170 4.176130 675.456299
645 0 1 2.596400 4.214230 674.501282
646 0 1 2.461530 4.207820 673.546082
647 0 1 2.687890 3.981010 672.582214
648 0 1 2.756060 3.875050 671.659790
649 0 1 3.000330 3.708490 670.648071
650 0 1 3.378140 4.023420 669.767822
651 0 1 3.719550 4.533740 669.054626
652 0 1 3.825530 5.084930 668.321899
653 0 1 3.875500 5.769470 667.659119
654 0 1 3.770690 6.375780 666.895874
655 0 1 3.938680 6.971490 666.232788
656 0 1 3.935590 7.711894 665.708496
657 0 1 4.024940 8.455213 665.041687
658 0 1 4.101510 9.156490 664.372681
659 0 1 4.086730 9.867430 663.785522
660 0 1 4.103700 10.441760 663.025391
661 0 1 4.459240 10.957610 662.303528
662 0 1 4.621810 11.548240 661.474304
663 0 1 4.789480 12.048270 660.586121
664 0 1 5.035340 12.506491 659.744385
665 0 1 5.155390 12.923730 658.860107
666 0 1 5.247400 13.217620 657.938171
667 0 1 5.585400 13.484409 657.072083
668 0 1 5.798750 13.628600 656.158691
669 0 1 6.195840 13.699600 655.318176
670 0 1 6.708150 13.884280 654.547913
671 0 1 7.551598 13.976660 654.026611
672 0 1 8.233558 14.065350 653.379700
673 0 1 8.765437 14.220840 652.576294
674 0 1 9.267550 14.300420 651.711670
675 0 1 9.432140 14.086639 650.726501
676 0 1 9.655160 13.662331 649.898682
677 0 1 10.286730 13.364370 649.168274
678 0 1 10.898300 12.910999 648.684082
679 0 1 11.436630 12.466010 648.026611
680 0 1 11.549931 11.981290 647.201477
681 0 1 11.585590 11.552530 646.334717
682 0 1 11.697530 11.092180 645.453186
683 0 1 12.001090 10.479500 644.814209
684 0 1 12.018721 9.773690 644.088623
685 0 1 12.195320 9.124620 643.282104
686 0 1 12.194120 8.637300 642.480774
687 0 1 12.364690 8.105538 641.718994
688 0 1 12.231700 7.602316 640.943909
689 0 1 11.905810 7.268541 640.093811
690 0 1 11.474900 6.986250 639.246887
691 0 1 11.370290 6.952680 638.322144
692 0 1 11.096710 7.055849 637.371277
693 0 1 10.704830 7.017923 636.517822
694 0 1 10.279700 6.970350 635.627808
695 0 1 10.328600 6.689790 634.723450
696 0 1 10.190741 6.521490 633.753601
697 0 1 10.306120 6.428320 632.745544
698 0 1 10.140730 6.301600 631.836609
699 0 1 9.659760 6.163770 630.979187
700 0 1 9.391740 6.027230 630.047180
701 0 1 8.958518 5.655870 629.244385
702 0 1 8.500017 5.427110 628.374023
703 0 1 7.934320 5.129520 627.566895
704 0 1 7.252084 4.739780 627.016785
705 0 1 6.503130 4.654880 626.392395
706 0 1 5.756350 4.485190 625.877075
707 0 1 5.235340 4.585650 625.049133
708 0 1 4.976900 4.808320 624.177856
709 0 1 4.800470 4.843970 623.221985
710 0 1 4.340310 5.158270 622.405579
711 0 1 3.933300 5.389590 621.492981
712 0 1 4.080250 5.554600 620.524536
713 0 1 3.836730 5.647960 619.606323
714 0 1 4.061930 5.745190 618.636475
715 0 1 4.429490 5.928680 617.761902
716 0 1 5.064630 6.039810 617.029297
717 0 1 5.724280 5.864810 616.244324
718 0 1 6.208000 5.679300 615.445984
719 0 1 6.383190 5.532610 614.498718
720 0 1 6.676050 5.247270 613.631714
721 0 1 6.939710 5.287920 612.753174
722 0 1 7.361777 5.229790 611.913574
723 0 1 7.791199 5.039790 611.057800
724 0 1 8.303748 4.919380 610.227783
725 0 1 8.755570 4.837040 609.378418
726 0 1 9.105520 4.607310 608.513672
727 0 1 9.345210 4.286400 607.601685
728 0 1 9.672850 4.166950 606.654785
729 0 1 9.953250 4.154800 605.759827
730 0 1 10.052150 4.261120 604.854919
731 0 1 10.315400 4.101080 603.985291
732 0 1 10.581250 4.016240 603.073730
733 0 1 10.691110 3.801840 602.173523
734 0 1 10.632780 3.593400 601.233826
735 0 1 10.678970 3.362090 600.306580
736 0 1 10.855230 3.180830 599.346375
737 0 1 10.876910 2.934590 598.428528
738 0 1 10.837840 2.991960 597.495117
739 0 1 10.795770 3.135480 596.443420
740 0 1 10.988490 3.585770 595.592896
741 0 1 10.900010 4.112550 594.837280
742 0 1 11.094330 4.655630 594.005920
743 0 1 11.149800 4.995120 593.070068
744 0 1 11.465140 4.898490 592.183594
745 0 1 11.419840 4.714800 591.230774
746 0 1 11.299430 4.516600 590.289612
747 0 1 11.426840 4.440240 589.359985
748 0 1 11.205481 4.275010 588.404175
749 0 1 11.480360 3.976430 587.478088
750 0 1 11.738630 3.659360 586.639099
751 0 1 11.852240 3.543740 585.665283
752 0 1 11.733459 3.299950 584.788879
753 0 1 11.431570 2.970800 583.965881
754 0 1 11.113170 3.073590 583.050171
755 0 1 10.836630 2.913770 582.184326
756 0 1 10.677470 3.212420 581.246216
757 0 1 10.564220 3.613700 580.358276
758 0 1 10.287590 4.001480 579.554504
759 0 1 10.065520 4.412350 578.760376
760 0 1 9.834330 4.833510 577.942993
761 0 1 9.509750 5.465010 577.266968
762 0 1 9.007200 6.089160 576.776489
763 0 1 8.643441 6.834620 576.234924
764 0 1 8.371324 7.650576 575.655396
765 0 1 8.128021 8.438359 575.121277
766 0 1 7.831149 9.100160 574.512390
767 0 1 7.389788 9.759430 574.046204
768 0 1 6.813940 10.274920 573.512878
769 0 1 6.354310 10.586411 572.736816
770 0 1 6.335460 10.861760 571.845581
771 0 1 6.344140 11.161640 570.872620
772 0 1 6.289860 11.465560 569.976807
773 0 1 6.067570 11.634520 569.018616
774 0 1 6.067120 11.844080 568.086304
775 0 1 6.073020 12.273701 567.246826
776 0 1 6.144170 12.755660 566.381897
777 0 1 6.133800 13.046120 565.489197
778 0 1 6.184160 12.852221 564.528809
779 0 1 6.489420 12.615280 563.626282
780 0 1 6.357910 12.258511 562.690613
781 0 1 6.391550 11.740420 561.862610
782 0 1 6.174020 11.190310 561.027466
783 0 1 6.089170 10.668080 560.236084
784 0 1 6.069580 10.047760 559.480469
785 0 1 6.125680 9.697460 558.556824
786 0 1 6.298930 9.579420 557.591797
787 0 1 6.574570 9.394310 556.699280
788 0 1 7.102132 9.410730 555.857788
789 0 1 7.510248 9.342000 554.934509
790 0 1 8.037134 9.033680 554.164307