LAMMPS data file via MDAnalysis

        1000  atoms
        1000  bonds
        1000  angles
           0  dihedrals
           0  impropers

           1  atom types
           1  bond types
           1  angle types
           0  dihedral types
           0  improper types

0.000000 16.000000 xlo xhi
0.000000 16.000000 ylo yhi
0.000000 1257.000000 zlo zhi


Masses

1 1.000000

Atoms

1 0 1 3.925510 7.171733 454.828979
2 0 1 4.693030 7.276000 455.440002
3 0 1 5.325960 7.362279 456.171997
4 0 1 5.792280 7.137225 456.960999
5 0 1 6.339510 7.092202 457.747009
6 0 1 6.670980 7.257288 458.641998
7 0 1 6.967510 7.321327 459.606995
8 0 1 7.082155 7.445383 460.572021
9 0 1 7.256754 7.466895 461.473022
10 0 1 7.470880 7.514137 462.449005
11 0 1 7.614806 7.710473 463.330017
12 0 1 7.896813 8.077863 464.203003
13 0 1 8.085334 7.868769 465.140015
14 0 1 8.254491 7.680091 466.104004
15 0 1 8.345397 7.339303 466.962006
16 0 1 8.332867 6.907960 467.850006
17 0 1 8.414919 6.289040 468.572998
18 0 1 8.525126 5.842990 469.429016
19 0 1 8.543556 5.615410 470.319000
20 0 1 8.557316 5.689030 471.322998
21 0 1 8.762319 5.689600 472.320984
22 0 1 8.735344 5.586830 473.345001
23 0 1 8.643232 5.897310 474.257019
24 0 1 8.837780 6.022040 475.223999
25 0 1 9.102560 6.315490 476.080994
26 0 1 9.700280 6.633780 476.872986
27 0 1 9.984140 6.863630 477.726013
28 0 1 10.164610 7.020882 478.687988
29 0 1 10.734830 7.365382 479.445984
30 0 1 11.144970 7.553182 480.276978
31 0 1 11.496590 7.249354 481.158020
32 0 1 11.554440 7.144294 482.114014
33 0 1 11.606310 7.060291 483.044983
34 0 1 11.799561 7.126753 483.996002
35 0 1 11.654960 7.141537 484.917999
36 0 1 11.579440 6.731230 485.760010
37 0 1 11.512950 6.691750 486.705017
38 0 1 11.208879 6.356070 487.515991
39 0 1 10.881910 6.072490 488.341003
40 0 1 10.467760 5.512470 489.039978
41 0 1 9.958080 5.004070 489.634003
42 0 1 9.383870 4.452700 490.134003
43 0 1 8.795518 3.871610 490.690979
44 0 1 8.378498 3.376970 491.385010
45 0 1 7.964878 2.941540 492.080994
46 0 1 7.837593 2.541880 493.000000
47 0 1 7.696117 2.355930 493.949005
48 0 1 7.708078 1.982960 494.934021
49 0 1 7.903461 1.900720 495.899994
50 0 1 7.990570 1.934530 496.851013
51 0 1 8.524591 1.968840 497.626007
52 0 1 9.000150 2.224880 498.479004
53 0 1 9.240530 2.156670 499.455994
54 0 1 9.462950 2.110510 500.416992
55 0 1 9.546870 2.036330 501.380005
56 0 1 9.621590 1.847170 502.403015
57 0 1 9.455390 1.892170 503.330994
58 0 1 9.304290 2.007230 504.311005
59 0 1 9.282430 1.985210 505.244019
60 0 1 9.089020 1.915850 506.169006
61 0 1 9.003120 2.155940 507.154999
62 0 1 8.779836 2.496660 508.057007
63 0 1 8.477750 2.620140 509.037994
64 0 1 7.957831 2.912570 509.813995
65 0 1 7.493155 3.009680 510.625000
66 0 1 6.740760 2.973240 511.260986
67 0 1 6.107530 2.681490 511.945007
68 0 1 5.600720 2.540090 512.766968
69 0 1 5.165370 2.576670 513.643982
70 0 1 4.947260 2.472280 514.547974
71 0 1 4.780280 2.335670 515.450012
72 0 1 4.404620 2.137720 516.314026
73 0 1 4.188380 2.491080 517.182007
74 0 1 4.236150 2.775280 518.106018
75 0 1 4.413060 2.904280 519.016968
76 0 1 4.840660 3.166360 519.839966
77 0 1 5.279460 3.353300 520.669006
78 0 1 5.456150 3.309400 521.583984
79 0 1 5.450760 3.242420 522.509033
80 0 1 5.744970 3.208320 523.461975
81 0 1 6.103900 3.381680 524.339966
82 0 1 6.542740 3.379410 525.214966
83 0 1 6.706100 3.515790 526.103027
84 0 1 6.881640 3.398460 527.035034
85 0 1 7.140498 3.126710 527.971008
86 0 1 7.509433 2.822190 528.805725
87 0 1 8.033902 2.972310 529.666321
88 0 1 8.416739 3.465240 530.389221
89 0 1 8.854284 4.105290 530.924194
90 0 1 9.207690 4.833970 531.409668
91 0 1 9.468700 5.474110 532.040100
92 0 1 9.924670 6.160950 532.636230
93 0 1 10.086870 6.853810 533.326294
94 0 1 10.219280 7.367176 534.130005
95 0 1 10.350070 7.963175 534.867004
96 0 1 10.505239 8.648356 535.516602
97 0 1 10.531030 9.201100 536.297424
98 0 1 10.857330 9.715370 537.025574
99 0 1 11.272610 10.085770 537.821716
100 0 1 11.346170 10.707951 538.677673
101 0 1 11.573950 10.978621 539.612305
102 0 1 11.649651 11.316920 540.541870
103 0 1 11.841900 11.390990 541.518982
104 0 1 11.531820 11.392870 542.484192
105 0 1 11.773140 11.579730 543.429688
106 0 1 11.991301 11.884920 544.302002
107 0 1 11.845790 12.062270 545.269287
108 0 1 11.832930 12.482000 546.168884
109 0 1 12.106560 12.560600 547.125916
110 0 1 12.439170 12.526239 548.102722
111 0 1 12.454650 12.491270 549.056702
112 0 1 12.696410 12.247190 549.997070
113 0 1 12.701410 12.038441 550.985901
114 0 1 12.903950 11.936900 552.021912
115 0 1 12.984280 11.619890 552.918823
116 0 1 13.272840 11.778640 553.890625
117 0 1 12.991330 11.876250 554.810608
118 0 1 12.828600 11.677650 555.702087
119 0 1 12.569290 11.345660 556.593506
120 0 1 11.957220 10.906190 557.317993
121 0 1 11.221251 10.689410 557.857605
122 0 1 10.524960 10.647360 558.496887
123 0 1 10.015680 10.776550 559.227478
124 0 1 9.494840 11.036790 560.003113
125 0 1 9.099070 10.834160 560.808716
126 0 1 8.877570 10.544850 561.713867
127 0 1 8.522131 10.153770 562.545776
128 0 1 8.142632 9.882700 563.388916
129 0 1 7.826380 9.520390 564.177002
130 0 1 7.269947 9.345540 564.975403
131 0 1 6.787380 9.117570 565.726990
132 0 1 6.219540 8.858480 566.540588
133 0 1 5.598680 8.583127 567.262573
134 0 1 5.173920 8.132685 567.966125
135 0 1 4.799840 7.828521 568.816101
136 0 1 4.260440 7.486645 569.551514
137 0 1 3.808020 7.162607 570.353882
138 0 1 3.693680 6.766060 571.234619
139 0 1 3.387380 6.450460 572.141418
140 0 1 3.320360 6.179700 573.046997
141 0 1 3.224010 5.791680 573.891479
142 0 1 3.187860 5.512710 574.780823
143 0 1 3.276450 5.253400 575.709290
144 0 1 3.592400 4.844900 576.521423
145 0 1 3.764810 4.478400 577.472778
146 0 1 3.969300 4.312790 578.411377
147 0 1 4.280920 4.240290 579.332092
148 0 1 4.797600 3.911880 580.142517
149 0 1 5.224200 3.668800 580.929932
150 0 1 5.747570 3.755860 581.760010
151 0 1 6.351080 3.981020 582.468079
152 0 1 6.870390 4.066450 583.244080
153 0 1 7.335774 4.290980 584.032776
154 0 1 7.932275 4.378380 584.827576
155 0 1 8.193010 4.452280 585.727783
156 0 1 8.645858 4.475970 586.663513
157 0 1 8.954725 4.336350 587.568909
158 0 1 9.134490 4.172110 588.547974
159 0 1 9.253880 4.050160 589.571716
160 0 1 9.336340 4.022280 590.565796
161 0 1 9.583010 3.800240 591.478394
162 0 1 9.910151 3.505750 592.353088
163 0 1 9.968019 3.589840 593.244019
164 0 1 9.926991 3.973450 594.233521
165 0 1 9.499360 4.119950 595.144897
166 0 1 9.201670 4.413750 596.020386
167 0 1 8.969193 4.346910 596.924194
168 0 1 9.245310 4.333450 597.839722
169 0 1 9.227670 4.519600 598.804871
170 0 1 9.049650 4.451360 599.743530
171 0 1 9.155000 4.647670 600.705383
172 0 1 9.246560 4.937270 601.621216
173 0 1 9.202140 5.379330 602.516418
174 0 1 9.180940 5.974690 603.261414
175 0 1 9.141510 6.263590 604.192627
176 0 1 9.042370 6.443220 605.100891
177 0 1 8.414014 6.309170 605.923401
178 0 1 8.054894 6.332020 606.821411
179 0 1 7.589383 6.617190 607.561584
180 0 1 7.217226 6.875080 608.453674
181 0 1 6.830730 6.982880 609.352173
182 0 1 6.394260 7.122586 610.165100
183 0 1 5.720510 7.167628 610.788513
184 0 1 4.940400 7.160494 611.357910
185 0 1 4.122170 7.376175 611.910583
186 0 1 3.750150 7.544980 612.779480
187 0 1 3.263870 7.707243 613.568970
188 0 1 2.666830 7.778607 614.329285
189 0 1 2.052580 7.754483 615.107605
190 0 1 1.943830 7.772572 616.083618
191 0 1 1.727840 8.071667 616.997498
192 0 1 1.633930 8.415923 617.896912
193 0 1 1.490790 8.687394 618.816406
194 0 1 1.240930 8.895524 619.781372
195 0 1 1.305910 9.213250 620.683350
196 0 1 1.639080 9.579150 621.497681
197 0 1 2.084860 9.912640 622.260925
198 0 1 2.411630 10.659910 622.892273
199 0 1 2.964500 11.288870 623.450195
200 0 1 3.751600 11.632590 623.973999
201 0 1 4.474890 11.979980 624.416748
202 0 1 5.031580 12.169519 625.224915
203 0 1 5.527850 12.075871 626.046753
204 0 1 5.886340 11.930099 627.021301
205 0 1 6.307650 11.816040 627.933350
206 0 1 6.747330 11.885760 628.800842
207 0 1 7.280554 11.912750 629.568909
208 0 1 7.491253 11.951110 630.465393
209 0 1 7.820710 12.097910 631.341797
210 0 1 8.432481 12.281390 632.016785
211 0 1 8.910244 12.462959 632.841431
212 0 1 9.232890 12.671670 633.690125
213 0 1 9.321960 12.964069 634.657410
214 0 1 9.411450 13.237750 635.535950
215 0 1 9.364760 13.351720 636.511597
216 0 1 9.441370 13.517981 637.481567
217 0 1 9.479900 13.637990 638.461731
218 0 1 9.146340 13.567530 639.350708
219 0 1 8.710621 13.523500 640.182190
220 0 1 8.539194 13.461150 641.148315
221 0 1 8.213665 13.396669 642.096497
222 0 1 8.019218 13.267310 642.997498
223 0 1 7.543388 13.188890 643.853088
224 0 1 7.138729 13.017010 644.663574
225 0 1 7.018163 12.555320 645.479004
226 0 1 7.263237 12.383110 646.357910
227 0 1 7.472859 12.128480 647.273499
228 0 1 7.771273 12.385941 648.161804
229 0 1 8.141828 12.339880 649.018982
230 0 1 8.465626 12.083270 649.986328
231 0 1 8.686931 11.656850 650.827393
232 0 1 8.843180 11.221110 651.666382
233 0 1 9.244950 10.755490 652.427979
234 0 1 9.403900 10.324770 653.227173
235 0 1 9.456040 9.933610 654.054016
236 0 1 9.680240 9.524760 654.866028
237 0 1 9.796430 9.158900 655.718079
238 0 1 10.029090 8.999462 656.610413
239 0 1 10.022020 8.917764 657.546875
240 0 1 9.974770 8.794510 658.458374
241 0 1 9.748140 8.440358 659.304993
242 0 1 9.834070 8.382603 660.255920
243 0 1 9.876390 8.113553 661.195679
244 0 1 10.027600 7.811358 662.081177
245 0 1 10.015170 7.456840 663.019592
246 0 1 10.338260 6.970270 663.818970
247 0 1 10.314720 6.626320 664.768311
248 0 1 10.318280 6.457830 665.708679
249 0 1 10.398650 6.347340 666.640808
250 0 1 10.468451 6.341250 667.694580
251 0 1 10.570700 6.400860 668.698792
252 0 1 10.391320 6.374100 669.609009
253 0 1 10.410020 6.153570 670.553589
254 0 1 10.511230 6.074300 671.605896
255 0 1 10.468900 5.809920 672.498779
256 0 1 10.465760 5.677830 673.436523
257 0 1 10.043840 5.327910 674.230774
258 0 1 9.895850 4.801190 675.062073
259 0 1 9.672590 4.273630 675.883179
260 0 1 9.817440 3.900800 676.769531
261 0 1 10.320200 3.670150 677.543823
262 0 1 10.666130 3.436470 678.467224
263 0 1 10.743040 3.109020 679.415710
264 0 1 10.877040 2.945270 680.372192
265 0 1 10.948200 2.758120 681.384216
266 0 1 11.139140 2.729390 682.351379
267 0 1 11.226510 2.478230 683.254883
268 0 1 11.080830 2.203610 684.210022
269 0 1 10.857019 1.991610 685.203491
270 0 1 10.676590 1.730730 686.117798
271 0 1 10.590611 1.754870 687.070007
272 0 1 10.547710 1.840560 688.048889
273 0 1 10.553670 2.315870 688.871826
274 0 1 10.846920 2.712930 689.676025
275 0 1 11.136610 3.082900 690.498474
276 0 1 11.602310 3.633290 691.156799
277 0 1 11.731510 4.210910 691.910583
278 0 1 11.826370 4.744830 692.658691
279 0 1 11.911760 4.998990 693.557190
280 0 1 11.691350 5.198770 694.456604
281 0 1 11.628640 5.637940 695.413513
282 0 1 11.350340 6.125410 696.226685
283 0 1 11.142630 6.533980 697.103699
284 0 1 11.322741 6.929390 697.996094
285 0 1 11.262290 7.334484 698.999695
286 0 1 11.095580 7.672893 699.944580
287 0 1 10.767900 7.976341 700.794495
288 0 1 10.193470 8.320799 701.451477
289 0 1 9.465530 8.671346 701.955566
290 0 1 8.753039 9.085290 702.598267
291 0 1 8.107921 9.378750 703.370300
292 0 1 7.676270 9.616090 704.126587
293 0 1 7.306347 9.872070 705.028503
294 0 1 6.829390 9.907840 705.913574
295 0 1 6.436140 9.866190 706.830994
296 0 1 6.086680 10.153220 707.699829
297 0 1 5.794390 10.247660 708.632202
298 0 1 5.918320 10.287500 709.593384
299 0 1 6.043540 10.499950 710.527222
300 0 1 6.150700 10.521530 711.500610
301 0 1 6.108780 10.668000 712.441528
302 0 1 6.138150 10.471700 713.458679
303 0 1 6.271200 10.405730 714.434021
304 0 1 6.440410 9.899220 715.217102
305 0 1 6.493520 9.364170 716.107422
306 0 1 6.331310 9.454920 717.116516
307 0 1 6.253570 9.677650 718.112671
308 0 1 6.131030 9.978930 719.010986
309 0 1 6.126340 10.196860 719.995789
310 0 1 5.994580 10.240380 720.934814
311 0 1 5.899550 10.185471 721.851196
312 0 1 5.880950 10.059780 722.785278
313 0 1 6.197180 9.911390 723.655090
314 0 1 6.650850 10.087330 724.536316
315 0 1 7.312795 10.050210 725.255493
316 0 1 7.818801 9.785190 726.026367
317 0 1 8.391918 9.430890 726.692505
318 0 1 8.944804 9.272180 727.445679
319 0 1 9.493480 9.163490 728.303467
320 0 1 9.838270 8.908079 729.114990
321 0 1 10.025249 8.842337 730.124023
322 0 1 10.234529 8.759762 731.036987
323 0 1 10.259280 8.828377 732.000000
324 0 1 10.016160 8.763122 732.924988
325 0 1 9.795250 8.861540 733.875000
326 0 1 9.911380 8.791677 734.822021
327 0 1 10.122710 8.892584 735.783997
328 0 1 10.305220 8.754973 736.733032
329 0 1 10.166830 8.562544 737.721008
330 0 1 9.789160 8.274883 738.565979
331 0 1 9.310670 7.963235 739.401978
332 0 1 9.061940 7.509704 740.275024
333 0 1 8.891363 7.062757 741.117981
334 0 1 8.799824 6.652330 741.978027
335 0 1 8.706053 6.163310 742.839966
336 0 1 8.189354 5.650520 743.575012
337 0 1 7.914279 5.105530 744.317017
338 0 1 7.750492 4.815620 745.276001
339 0 1 7.773282 4.646700 746.200989
340 0 1 7.981934 4.269280 747.068970
341 0 1 8.281825 3.757360 747.783020
342 0 1 8.983860 3.474240 748.427979
343 0 1 9.646120 3.386230 749.099976
344 0 1 10.337560 3.550310 749.789978
345 0 1 10.847879 3.742330 750.614990
346 0 1 11.301450 3.682820 751.484985
347 0 1 11.753850 3.881110 752.403992
348 0 1 11.861000 4.175380 753.341980
349 0 1 12.304660 4.389070 754.208984
350 0 1 12.451059 4.757220 755.062988
351 0 1 12.230471 4.983850 756.033020
352 0 1 12.212000 5.112710 756.983032
353 0 1 12.395950 5.284300 757.895020
354 0 1 12.490070 5.474180 758.822998
355 0 1 12.533730 5.978180 759.697998
356 0 1 12.468710 6.351950 760.568970
357 0 1 12.396660 6.976020 761.400024
358 0 1 12.334530 7.367952 762.252991
359 0 1 12.505360 7.687744 763.140015
360 0 1 12.715370 7.948219 764.085999
361 0 1 12.717440 8.164300 765.109009
362 0 1 12.929060 8.134841 766.018982
363 0 1 13.150869 8.188639 766.988037
364 0 1 13.310540 8.358365 767.937988
365 0 1 13.581170 8.263899 768.955994
366 0 1 13.714860 8.249568 769.880981
367 0 1 13.895121 8.019872 770.820984
368 0 1 14.133289 7.836388 771.723999
369 0 1 14.273490 7.741287 772.671021
370 0 1 14.301940 7.857739 773.604004
371 0 1 14.412661 7.842176 774.561035
372 0 1 14.434700 7.632075 775.510010
373 0 1 14.078489 7.294014 776.309998
374 0 1 14.001870 6.870560 777.205994
375 0 1 13.894660 6.425200 778.002014
376 0 1 13.856190 6.005090 778.882019
377 0 1 13.824250 5.562450 779.768005
378 0 1 13.889210 5.171510 780.635986
379 0 1 13.598949 4.991210 781.559021
380 0 1 13.487289 5.080220 782.481018
381 0 1 13.116810 5.181710 783.292969
382 0 1 12.568710 5.459720 784.042969
383 0 1 12.033780 5.860980 784.697021
384 0 1 11.674350 6.085840 785.594971
385 0 1 11.867200 5.989260 786.593994
386 0 1 11.865740 6.235370 787.523010
387 0 1 11.892220 6.695630 788.360962
388 0 1 11.953970 7.167893 789.231018
389 0 1 11.768681 7.720477 790.049011
390 0 1 11.782010 8.007119 790.963013
391 0 1 11.491859 8.506705 791.844971
392 0 1 11.134809 8.828171 792.674011
393 0 1 11.281710 9.334280 793.458984
394 0 1 11.130860 9.990790 794.169983
395 0 1 10.712749 10.714630 794.690979
396 0 1 10.162590 11.227400 795.358032
397 0 1 9.617820 11.555120 796.134033
398 0 1 9.246330 11.582560 797.020996
399 0 1 9.111180 11.629770 797.958984
400 0 1 8.892534 11.496759 798.914001
401 0 1 8.550429 11.177280 799.804016
402 0 1 8.278938 10.631560 800.539978
403 0 1 7.901849 10.077971 801.291016
404 0 1 7.435224 9.693330 801.969971
405 0 1 7.005738 9.189790 802.718994
406 0 1 6.331790 8.931504 803.385986
407 0 1 5.864170 8.812798 804.270020
408 0 1 5.297340 9.066410 805.005005
409 0 1 4.814040 9.209230 805.859985
410 0 1 4.339280 9.352180 806.716003
411 0 1 3.733820 9.587080 807.348999
412 0 1 3.108360 9.687850 808.158020
413 0 1 2.482490 9.803640 808.989990
414 0 1 1.928220 10.028210 809.770020
415 0 1 1.744140 10.080080 810.674011
416 0 1 1.881210 10.234540 811.646973
417 0 1 2.194510 10.363200 812.562012
418 0 1 2.621290 10.622790 813.359009
419 0 1 2.836040 10.700520 814.302002
420 0 1 2.864290 10.811110 815.302002
421 0 1 3.023710 10.983120 816.221008
422 0 1 3.232160 11.059560 817.203003
423 0 1 3.456860 11.074511 818.181030
424 0 1 3.891910 11.212960 819.088013
425 0 1 4.005650 11.403250 820.075989
426 0 1 3.751470 11.498260 821.007996
427 0 1 3.460180 11.442250 821.926025
428 0 1 3.446520 11.264750 822.910034
429 0 1 3.535390 11.226180 823.843994
430 0 1 3.696440 11.412690 824.823975
431 0 1 3.842980 11.379240 825.750977
432 0 1 3.897130 11.442150 826.690002
433 0 1 4.079250 11.414351 827.604980
434 0 1 3.995740 11.353590 828.589966
435 0 1 4.144500 10.990640 829.509033
436 0 1 4.266480 10.628799 830.400024
437 0 1 4.174900 10.488060 831.313965
438 0 1 4.166440 10.528270 832.265015
439 0 1 4.174780 10.564800 833.186035
440 0 1 4.091890 10.519560 834.143005
441 0 1 4.133180 10.183530 835.007019
442 0 1 4.181900 9.798550 835.841003
443 0 1 4.637700 9.604540 836.676025
444 0 1 5.245790 9.956190 837.374023
445 0 1 5.770730 10.189510 838.127014
446 0 1 6.541440 10.369730 838.781006
447 0 1 7.370747 10.590170 839.286011
448 0 1 8.246895 10.589030 839.427002
449 0 1 9.132220 10.496270 839.440002
450 0 1 10.146660 10.234610 839.250977
451 0 1 11.082020 9.970200 839.020996
452 0 1 11.866330 9.554330 838.539978
453 0 1 12.331640 9.264530 837.791992
454 0 1 12.832900 9.020840 836.992981
455 0 1 13.274361 8.818139 836.160034
456 0 1 13.815269 8.477892 835.518005
457 0 1 14.332590 8.520899 834.656982
458 0 1 14.615670 8.417499 833.760010
459 0 1 14.836580 8.253359 832.776978
460 0 1 14.685619 7.875713 831.815979
461 0 1 14.610189 7.598010 830.917969
462 0 1 14.479469 7.482771 829.990967
463 0 1 14.313040 7.304039 829.119995
464 0 1 14.134780 7.112623 828.213013
465 0 1 13.940200 6.949150 827.273987
466 0 1 13.967230 6.846340 826.315979
467 0 1 13.941219 7.020916 825.369019
468 0 1 13.891570 7.146406 824.356018
469 0 1 13.792980 7.428454 823.481995
470 0 1 13.684330 7.960570 822.708008
471 0 1 13.369770 8.431607 821.900024
472 0 1 12.957170 8.818070 821.085999
473 0 1 12.464661 9.112190 820.281982
474 0 1 12.079210 9.306900 819.466003
475 0 1 11.673861 9.687560 818.479004
476 0 1 11.556850 9.879800 817.585022
477 0 1 11.169991 9.762380 816.656006
478 0 1 10.531330 9.425591 816.026001
479 0 1 10.182450 9.378469 815.198975
480 0 1 9.512430 9.450390 814.565002
481 0 1 8.751077 9.283370 813.916016
482 0 1 7.955392 9.349880 813.452026
483 0 1 7.051123 9.646250 813.182007
484 0 1 6.483790 10.062780 812.549988
485 0 1 6.041900 10.690220 811.860962
486 0 1 5.578320 11.173019 811.140991
487 0 1 4.975590 11.492980 810.318970
488 0 1 4.478960 11.636190 809.429016
489 0 1 4.299770 11.889100 808.481018
490 0 1 3.954990 12.162060 807.585999
491 0 1 3.871780 12.288850 806.666016
492 0 1 3.978860 12.405860 805.708008
493 0 1 4.149260 11.921000 804.953979
494 0 1 4.188400 11.412060 804.130981
495 0 1 4.761320 11.016310 803.448975
496 0 1 5.302850 10.595510 802.760986
497 0 1 5.636730 10.642720 801.812988
498 0 1 6.178530 10.440720 801.044983
499 0 1 6.376800 10.068410 800.130005
500 0 1 6.438290 9.853140 799.216980
501 0 1 6.526970 9.641300 798.309998
502 0 1 6.458800 9.562130 797.363037
503 0 1 6.229770 9.385600 796.442017
504 0 1 6.276650 9.050770 795.511963
505 0 1 6.628330 9.159160 794.567017
506 0 1 6.791350 9.372650 793.690979
507 0 1 6.880050 9.716690 792.778015
508 0 1 6.705720 10.167690 791.953003
509 0 1 6.648750 10.487500 791.049988
510 0 1 6.320410 10.829070 790.162964
511 0 1 6.423180 11.237500 789.297974
512 0 1 6.359030 11.661591 788.380981
513 0 1 6.168860 11.760571 787.434998
514 0 1 5.948740 12.002890 786.489990
515 0 1 5.666260 12.198690 785.518005
516 0 1 5.157760 12.441390 784.757996
517 0 1 4.840030 12.541590 783.875000
518 0 1 4.548870 12.549049 782.958984
519 0 1 4.245190 12.387569 782.044006
520 0 1 3.974650 12.147090 781.155029
521 0 1 3.716230 11.731370 780.323975
522 0 1 3.609750 11.455320 779.382019
523 0 1 3.670650 11.129250 778.531982
524 0 1 3.960980 10.828040 777.582031
525 0 1 4.210750 10.337481 776.825989
526 0 1 4.650150 9.836870 776.139038
527 0 1 5.221930 9.347070 775.520996
528 0 1 5.830230 8.974027 774.867981
529 0 1 6.415400 8.825838 774.119019
530 0 1 6.881330 8.480197 773.322021
531 0 1 7.148799 8.406516 772.429016
532 0 1 7.355841 8.890555 771.624023
533 0 1 7.542693 9.422040 770.841003
534 0 1 7.854332 9.817690 770.026978
535 0 1 8.289524 10.123980 769.158997
536 0 1 8.113269 10.427410 768.268005
537 0 1 8.333854 10.700040 767.344971
538 0 1 8.742145 10.854100 766.450012
539 0 1 8.926130 10.999290 765.530029
540 0 1 9.193750 10.934750 764.617981
541 0 1 9.273240 10.593050 763.734985
542 0 1 9.182970 9.828470 763.120972
543 0 1 9.007140 9.193560 762.442993
544 0 1 8.899002 8.603895 761.710022
545 0 1 8.836791 7.901337 761.031982
546 0 1 8.639025 7.214326 760.440002
547 0 1 8.346110 6.874700 759.589966
548 0 1 7.979695 6.301470 758.919006
549 0 1 7.613949 5.835360 758.148987
550 0 1 7.258141 5.528700 757.289001
551 0 1 7.252229 5.347310 756.278015
552 0 1 7.380463 4.988020 755.362000
553 0 1 7.874783 4.569150 754.677979
554 0 1 8.520687 4.305840 754.089966
555 0 1 9.197920 4.238140 753.377991
556 0 1 9.882210 4.363430 752.716003
557 0 1 10.350121 4.631290 751.935974
558 0 1 10.837690 5.028040 751.218994
559 0 1 11.056730 5.428010 750.400024
560 0 1 10.867170 6.005170 749.634033
561 0 1 10.788070 6.472590 748.802979
562 0 1 10.801390 6.755230 747.893005
563 0 1 10.759510 7.110925 746.981018
564 0 1 11.066350 7.252276 746.023010
565 0 1 11.476990 7.592761 745.197998
566 0 1 11.823009 7.680544 744.336975
567 0 1 12.218070 7.955061 743.434021
568 0 1 12.568951 8.286721 742.638000
569 0 1 12.810989 8.569514 741.770996
570 0 1 12.979630 8.836719 740.820007
571 0 1 12.866240 9.292830 739.901001
572 0 1 12.775520 9.675130 739.036987
573 0 1 12.592529 9.924550 738.129028
574 0 1 12.482410 10.101380 737.223022
575 0 1 12.770720 10.301360 736.304993
576 0 1 13.095290 10.628230 735.484985
577 0 1 13.110580 10.847560 734.518005
578 0 1 13.061900 11.202790 733.612976
579 0 1 12.871389 11.386630 732.700989
580 0 1 12.583691 11.241820 731.804993
581 0 1 12.112570 11.065310 730.973999
582 0 1 11.932899 10.634069 730.072021
583 0 1 11.770560 10.144910 729.223022
584 0 1 11.799270 9.957650 728.282288
585 0 1 11.682310 9.842020 727.307312
586 0 1 11.220310 9.772500 726.418884
587 0 1 10.911760 9.697890 725.522217
588 0 1 10.591880 9.680790 724.637695
589 0 1 10.359890 9.672130 723.702820
590 0 1 10.210370 9.662150 722.815918
591 0 1 10.015770 9.514970 721.840515
592 0 1 9.919770 9.250610 720.977478
593 0 1 9.841480 8.683067 720.181396
594 0 1 9.899590 8.049879 719.418884
595 0 1 9.663560 7.588740 718.522095
596 0 1 9.209750 7.267069 717.780579
597 0 1 8.489459 7.055894 717.218506
598 0 1 7.933376 6.849990 716.440308
599 0 1 7.229051 6.431580 715.894775
600 0 1 6.690770 6.002910 715.257324
601 0 1 5.874500 5.645740 714.705383
602 0 1 5.504180 5.223460 713.924988
603 0 1 5.244820 4.937630 712.973022
604 0 1 4.920890 4.571550 712.148499
605 0 1 4.723280 4.338540 711.287231
606 0 1 4.407880 4.241180 710.379211
607 0 1 3.824520 4.136620 709.541809
608 0 1 3.503060 4.031090 708.663574
609 0 1 3.274530 3.907770 707.718628
610 0 1 3.538590 4.109970 706.799316
611 0 1 3.539170 4.426570 705.885010
612 0 1 3.477030 4.672000 704.939514
613 0 1 3.379960 5.276410 704.113770
614 0 1 3.019700 5.459880 703.265808
615 0 1 2.721990 5.633860 702.337097
616 0 1 2.556590 5.439090 701.387878
617 0 1 2.742080 5.566090 700.362427
618 0 1 2.863710 5.757440 699.433899
619 0 1 3.360900 6.179430 698.768188
620 0 1 3.760320 6.726180 698.084290
621 0 1 4.611390 7.227853 697.714478
622 0 1 5.412710 7.614535 697.423096
623 0 1 6.229260 8.111712 697.060669
624 0 1 6.997000 8.492066 696.582703
625 0 1 7.678002 9.039340 696.127625
626 0 1 8.370286 9.314090 695.515015
627 0 1 9.127690 9.667060 695.039124
628 0 1 9.593320 10.088551 694.323792
629 0 1 10.194360 10.605710 693.720825
630 0 1 10.670720 10.681620 692.899475
631 0 1 11.065880 11.036840 692.079895
632 0 1 11.631580 11.416750 691.367615
633 0 1 12.051670 11.977150 690.753906
634 0 1 12.063410 12.378490 689.854675
635 0 1 11.891809 12.641490 688.975403
636 0 1 11.829590 13.056170 688.142212
637 0 1 11.852750 13.402660 687.218201
638 0 1 11.800170 13.633790 686.318787
639 0 1 11.448830 13.287540 685.410278
640 0 1 11.176889 12.983630 684.593872
641 0 1 11.036430 12.823470 683.651184
642 0 1 10.885110 12.350510 682.767212
643 0 1 10.649870 12.043720 681.883972
644 0 1 10.334710 11.644011 681.002502
645 0 1 10.161221 11.096889 680.281128
646 0 1 9.940420 10.614350 679.476685
647 0 1 9.797190 10.348249 678.567078
648 0 1 9.375190 10.010520 677.760498
649 0 1 8.806164 9.763350 677.008118
650 0 1 8.269534 9.767920 676.192322
651 0 1 7.676904 9.595220 675.447632
652 0 1 7.298284 9.514470 674.607422
653 0 1 6.854610 9.687370 673.783081
654 0 1 6.312860 9.741150 672.986877
655 0 1 5.730820 10.031800 672.281494
656 0 1 5.192930 10.101130 671.503723
657 0 1 4.947860 10.007420 670.525574
658 0 1 5.155620 10.110570 669.593872
659 0 1 5.439710 9.867470 668.713318
660 0 1 5.914380 9.455980 667.910706
661 0 1 6.259790 9.153350 667.014526
662 0 1 6.117310 8.850551 666.037415
663 0 1 5.731040 8.536229 665.230713
664 0 1 5.315030 8.657323 664.356812
665 0 1 5.142210 8.691440 663.371399
666 0 1 5.348940 8.566454 662.452515
667 0 1 5.819900 8.746110 661.706299
668 0 1 6.374940 9.132650 660.950317
669 0 1 6.996020 9.541480 660.203674
670 0 1 7.163865 9.879280 659.224792
671 0 1 6.935330 10.192690 658.426697
672 0 1 6.807600 10.440060 657.498718
673 0 1 6.535440 10.801570 656.656921
674 0 1 6.298430 11.481180 656.006104
675 0 1 6.330180 11.937480 655.138123
676 0 1 6.251060 12.302140 654.275696
677 0 1 6.225800 12.584920 653.380615
678 0 1 6.236780 12.592450 652.344971
679 0 1 6.095730 12.332560 651.395813
680 0 1 6.166840 12.042220 650.524292
681 0 1 6.425300 12.040300 649.635925
682 0 1 6.370250 11.930270 648.650208
683 0 1 5.948460 11.796890 647.818726
684 0 1 5.444990 11.685710 646.955322
685 0 1 4.924730 11.372640 646.206299
686 0 1 4.369990 11.124460 645.484619
687 0 1 4.153490 10.639009 644.724792
688 0 1 4.310380 10.200640 643.807129
689 0 1 4.463020 9.757480 642.969971
690 0 1 4.526620 9.447200 641.992004
691 0 1 4.564130 9.049090 641.094910
692 0 1 4.823930 8.845690 640.194580
693 0 1 5.177280 8.810544 639.326904
694 0 1 5.389640 8.766463 638.367493
695 0 1 5.662670 8.858581 637.464172
696 0 1 6.055890 8.704085 636.569397
697 0 1 6.523060 8.701142 635.764221
698 0 1 6.992700 8.728111 634.935608
699 0 1 7.447927 8.690470 634.068604
700 0 1 7.856551 8.640482 633.172058
701 0 1 7.940800 8.587596 632.220154
702 0 1 8.147902 8.129747 631.415710
703 0 1 8.349849 7.633925 630.582153
704 0 1 8.582403 6.899920 630.008728
705 0 1 8.653723 6.281910 629.290894
706 0 1 8.689108 5.828750 628.400574
707 0 1 8.477777 5.515000 627.476990
708 0 1 8.151465 5.300800 626.537048
709 0 1 7.802887 4.959070 625.658630
710 0 1 7.561950 4.860950 624.713379
711 0 1 7.276785 4.977870 623.778931
712 0 1 6.765540 4.965880 622.998169
713 0 1 6.380060 4.727900 622.150940
714 0 1 5.883920 4.555790 621.360046
715 0 1 5.126340 4.434070 620.651428
716 0 1 4.562980 3.978570 619.995483
717 0 1 4.272730 3.561440 619.199646
718 0 1 4.104250 3.428570 618.271118
719 0 1 3.908950 3.372180 617.271790
720 0 1 3.718320 3.335390 616.314026
721 0 1 3.304350 3.494760 615.450684
722 0 1 3.162960 3.981550 614.642273
723 0 1 3.253490 4.676170 613.991272
724 0 1 3.558010 5.310240 613.373291
725 0 1 4.104190 5.608550 612.600586
726 0 1 4.579720 5.726950 611.759094
727 0 1 4.756910 6.180470 610.916809
728 0 1 4.994790 6.467540 610.057800
729 0 1 5.250610 6.901280 609.193787
730 0 1 5.537790 7.169010 608.289795
731 0 1 5.524370 7.383912 607.318604
732 0 1 5.545170 7.763604 606.436096
733 0 1 5.649330 7.923567 605.448486
734 0 1 6.057060 7.888455 604.585999
735 0 1 6.436500 7.701858 603.716125
736 0 1 6.344080 7.238186 602.862305
737 0 1 6.188010 6.977730 601.929016
738 0 1 6.334120 6.733000 601.009521
739 0 1 6.770410 6.429410 600.194702
740 0 1 7.315527 6.173630 599.403015
741 0 1 7.747323 5.824250 598.619690
742 0 1 7.829286 5.372660 597.812622
743 0 1 7.945057 4.666040 597.108398
744 0 1 7.947487 4.387160 596.184204
745 0 1 7.705369 4.193740 595.232422
746 0 1 7.467411 4.209130 594.272095
747 0 1 7.306780 4.544430 593.401794
748 0 1 7.016075 4.988490 592.543396
749 0 1 6.678570 5.474680 591.704590
750 0 1 6.218790 5.927490 591.030701
751 0 1 5.923270 6.337200 590.224731
752 0 1 5.751120 6.751490 589.461426
753 0 1 5.722580 7.232506 588.603882
754 0 1 5.640650 7.880351 587.891113
755 0 1 5.241470 8.340541 587.138306
756 0 1 5.155120 8.500869 586.203003
757 0 1 5.069400 8.812923 585.280823
758 0 1 4.985180 9.373170 584.468201
759 0 1 4.658740 9.902660 583.705200
760 0 1 4.438250 10.521300 582.965332
761 0 1 4.157800 10.793290 582.071716
762 0 1 3.873830 11.052670 581.235229
763 0 1 3.907510 11.101590 580.212891
764 0 1 4.186550 11.290210 579.289185
765 0 1 4.261180 11.531500 578.326904
766 0 1 4.266600 11.573009 577.326904
767 0 1 4.276710 11.567120 576.390808
768 0 1 4.280030 11.389570 575.502014
769 0 1 4.224490 11.226580 574.584473
770 0 1 4.424900 10.839860 573.662231
771 0 1 4.307550 10.739250 572.710815
772 0 1 4.072460 10.903540 571.771484
773 0 1 4.143840 10.897630 570.807129
774 0 1 4.346110 11.070690 569.861023
775 0 1 4.659680 11.401381 569.015198
776 0 1 4.805070 11.787189 568.143616
777 0 1 5.052320 11.858330 567.250488
778 0 1 5.072570 11.900520 566.299927
779 0 1 5.173020 11.950500 565.345276
780 0 1 5.529000 12.048531 564.464478
781 0 1 6.015040 12.259040 563.608826
782 0 1 6.616330 12.242950 562.917297
783 0 1 7.141234 11.903770 562.231323
784 0 1 7.249990 11.719481 561.260498
785 0 1 7.474127 11.412849 560.404724
786 0 1 7.434971 10.898690 559.544800
787 0 1 7.405608 10.648510 558.620728
788 0 1 7.302568 10.697780 557.698425
789 0 1 7.055865 10.999560 556.839417
790 0 1 6.775840 11.108470 555.894775