LAMMPS data file via MDAnalysis

        1000  atoms
        1000  bonds
        1000  angles
           0  dihedrals
           0  impropers

           1  atom types
           1  bond types
           1  angle types
           0  dihedral types
           0  improper types

0.000000 16.000000 xlo xhi
0.000000 16.000000 ylo yhi
0.000000 1257.000000 zlo zhi


Masses

1 1.000000

Atoms

1 0 1 3.717430 4.513890 460.005005
2 0 1 3.914330 4.575700 460.971008
3 0 1 4.269100 4.748570 461.864990
4 0 1 4.690040 4.958200 462.690002
5 0 1 5.208110 5.306400 463.385010
6 0 1 5.686110 5.617740 464.114990
7 0 1 6.079770 5.514510 465.049988
8 0 1 6.326680 5.578610 465.957001
9 0 1 6.647110 5.949440 466.833984
10 0 1 6.798500 5.980290 467.789001
11 0 1 6.759080 6.229880 468.664001
12 0 1 7.137891 6.313190 469.593994
13 0 1 7.345333 6.290760 470.531982
14 0 1 7.207740 5.875880 471.424011
15 0 1 7.050167 5.839530 472.348022
16 0 1 6.825250 6.208010 473.203979
17 0 1 6.730820 6.828880 473.880005
18 0 1 6.557730 7.506263 474.485992
19 0 1 6.489600 7.999234 475.276001
20 0 1 6.272460 8.346799 476.140015
21 0 1 6.173020 8.355728 477.119995
22 0 1 5.936750 8.406895 478.028992
23 0 1 5.496030 8.668039 478.830994
24 0 1 5.304690 9.059010 479.682983
25 0 1 5.327520 9.485960 480.477997
26 0 1 5.346540 9.915820 481.369019
27 0 1 5.621790 10.194550 482.225006
28 0 1 5.631860 10.545240 483.109985
29 0 1 5.689310 11.200610 483.860992
30 0 1 5.548230 11.561020 484.739990
31 0 1 5.490340 11.951220 485.653992
32 0 1 5.406660 12.521430 486.429993
33 0 1 5.333010 12.584660 487.365997
34 0 1 5.222370 12.660030 488.345001
35 0 1 4.783670 12.714399 489.255005
36 0 1 4.444370 12.481131 490.148987
37 0 1 4.280010 12.387660 491.057983
38 0 1 4.301600 12.313300 492.028992
39 0 1 4.478800 11.958549 492.911011
40 0 1 4.380380 11.624900 493.809021
41 0 1 4.382350 11.304000 494.753998
42 0 1 4.528870 10.806510 495.520020
43 0 1 4.723480 10.371360 496.388000
44 0 1 4.943510 9.852740 497.154999
45 0 1 5.507560 9.414640 497.791016
46 0 1 6.208490 8.921239 498.304016
47 0 1 6.968430 8.350284 498.619019
48 0 1 7.714538 8.090027 499.200989
49 0 1 8.480096 7.925879 499.768982
50 0 1 9.312270 7.805770 500.195007
51 0 1 10.083290 7.557859 500.695007
52 0 1 10.695050 7.125343 501.250000
53 0 1 11.269390 6.796670 501.903015
54 0 1 11.553780 6.520320 502.830017
55 0 1 11.753250 6.117660 503.691010
56 0 1 12.202129 5.792060 504.490997
57 0 1 12.805930 5.697360 505.244995
58 0 1 13.085080 5.508450 506.203003
59 0 1 13.016680 5.040700 507.013000
60 0 1 12.945499 4.599790 507.955994
61 0 1 12.941510 4.082110 508.768005
62 0 1 12.641470 3.524650 509.463013
63 0 1 12.309830 3.069190 510.273987
64 0 1 11.996140 2.918940 511.135010
65 0 1 11.473820 2.838040 512.026978
66 0 1 10.904079 2.939010 512.778015
67 0 1 10.452920 2.801870 513.617004
68 0 1 9.884590 2.783230 514.408020
69 0 1 9.227800 3.022850 515.075989
70 0 1 8.428958 3.425120 515.737000
71 0 1 7.975303 3.971360 516.395020
72 0 1 7.717850 4.539420 517.164978
73 0 1 7.539416 5.049070 517.953003
74 0 1 7.401042 5.623220 518.707031
75 0 1 7.194754 6.224200 519.419006
76 0 1 6.890090 6.648790 520.223022
77 0 1 6.484460 6.938250 521.038025
78 0 1 6.299920 7.224392 521.981995
79 0 1 6.039980 7.247276 522.903015
80 0 1 5.988970 7.437512 523.791016
81 0 1 5.932870 7.598858 524.750000
82 0 1 5.959870 7.974072 525.604004
83 0 1 6.127620 8.444027 526.445007
84 0 1 6.566680 8.406683 527.299011
85 0 1 7.000326 8.334682 528.254028
86 0 1 7.512141 8.215497 529.047974
87 0 1 7.987572 8.392966 529.868530
88 0 1 8.284031 8.613759 530.745300
89 0 1 8.451137 9.020679 531.536499
90 0 1 8.430464 9.428170 532.416077
91 0 1 8.594651 9.882370 533.190918
92 0 1 8.962899 10.210210 533.960205
93 0 1 8.995064 10.412830 534.875977
94 0 1 8.796262 10.696390 535.745178
95 0 1 8.763137 10.891990 536.728516
96 0 1 8.718577 10.968810 537.681274
97 0 1 8.361848 10.812420 538.542114
98 0 1 8.174511 10.610380 539.459595
99 0 1 7.976655 10.319720 540.391724
100 0 1 7.937167 9.929530 541.211426
101 0 1 7.896354 9.464870 542.046509
102 0 1 8.098480 9.106110 542.975891
103 0 1 7.935072 8.731184 543.828308
104 0 1 7.795933 8.190826 544.660278
105 0 1 7.532401 7.626028 545.339966
106 0 1 7.550747 7.331693 546.217285
107 0 1 7.595252 6.886560 547.110596
108 0 1 7.716733 6.551690 547.999634
109 0 1 7.918679 6.108650 548.829895
110 0 1 8.235646 5.704980 549.684692
111 0 1 8.468980 5.276850 550.506226
112 0 1 8.672067 4.679970 551.323486
113 0 1 8.822201 4.571820 552.268677
114 0 1 8.708999 4.378890 553.195679
115 0 1 8.411636 4.121630 554.065430
116 0 1 8.053207 3.533080 554.687012
117 0 1 7.817057 2.940430 555.411011
118 0 1 7.532837 2.425380 556.121887
119 0 1 7.146982 1.935150 556.812866
120 0 1 6.935040 1.513710 557.636475
121 0 1 6.322790 1.490770 558.406982
122 0 1 5.902360 1.532460 559.267883
123 0 1 5.476210 1.841770 560.070496
124 0 1 5.100430 2.460100 560.678467
125 0 1 4.705370 3.151860 561.148071
126 0 1 4.174400 4.005170 561.181274
127 0 1 3.803330 4.884210 561.436890
128 0 1 3.836040 5.763390 561.710876
129 0 1 4.356140 6.535030 561.898193
130 0 1 5.057250 7.031274 562.219971
131 0 1 5.703400 7.610363 562.682617
132 0 1 6.324760 8.017856 563.218628
133 0 1 6.965450 8.319572 563.831726
134 0 1 7.711910 8.591166 564.332581
135 0 1 8.639576 8.804319 564.624023
136 0 1 9.517910 8.852536 564.978821
137 0 1 10.059490 8.988733 565.724121
138 0 1 10.207750 9.058930 566.699219
139 0 1 10.510620 8.904928 567.621887
140 0 1 10.728570 8.866899 568.589600
141 0 1 10.873650 9.030300 569.540771
142 0 1 11.153760 9.232740 570.517822
143 0 1 11.353650 9.584780 571.400085
144 0 1 11.117410 9.633720 572.326111
145 0 1 10.803030 9.553290 573.223206
146 0 1 10.479520 9.487240 574.140503
147 0 1 10.198430 8.968596 574.847412
148 0 1 9.699730 8.472624 575.581909
149 0 1 9.310750 8.352659 576.435120
150 0 1 8.926233 8.476904 577.316711
151 0 1 8.782019 8.846846 578.210999
152 0 1 8.590816 9.205690 579.131592
153 0 1 8.336882 9.536500 580.041321
154 0 1 8.130244 9.682450 580.925171
155 0 1 7.822226 9.747700 581.838928
156 0 1 7.384774 10.039989 582.656921
157 0 1 7.539589 10.346540 583.561096
158 0 1 7.480149 10.548370 584.515076
159 0 1 7.772777 10.797290 585.431824
160 0 1 7.684972 10.927350 586.404419
161 0 1 7.442596 10.989170 587.296387
162 0 1 7.035388 10.940080 588.157471
163 0 1 6.726700 10.585690 588.991516
164 0 1 6.544160 10.212270 589.815125
165 0 1 6.545280 9.813100 590.713684
166 0 1 6.719450 9.551540 591.571594
167 0 1 6.810540 9.246861 592.512085
168 0 1 6.929610 8.894859 593.367981
169 0 1 6.860800 8.667192 594.296021
170 0 1 7.031020 8.283438 595.127625
171 0 1 7.253110 7.823431 595.938721
172 0 1 7.408588 7.554850 596.891174
173 0 1 7.389321 7.062076 597.762329
174 0 1 7.499035 6.538490 598.535400
175 0 1 7.644717 6.212980 599.460510
176 0 1 7.694422 5.884400 600.356628
177 0 1 7.826481 5.535410 601.196106
178 0 1 8.078253 5.304530 602.146973
179 0 1 8.423126 5.189220 603.082520
180 0 1 8.648687 5.256440 603.974731
181 0 1 8.865627 5.361420 604.868591
182 0 1 9.232050 5.525470 605.830994
183 0 1 9.160340 5.775750 606.819275
184 0 1 9.184590 5.788380 607.770203
185 0 1 9.272750 5.816170 608.716431
186 0 1 9.708390 5.743670 609.587097
187 0 1 10.271151 5.615210 610.340515
188 0 1 10.737160 5.445200 611.167297
189 0 1 11.053101 5.423440 612.033386
190 0 1 11.654850 5.399930 612.828491
191 0 1 12.156300 5.362450 613.727905
192 0 1 12.547410 5.430170 614.576172
193 0 1 12.792860 5.339290 615.555908
194 0 1 13.039180 5.349690 616.476074
195 0 1 13.337231 5.642630 617.417786
196 0 1 13.820060 5.633890 618.253479
197 0 1 14.205620 5.719870 619.116272
198 0 1 13.949181 5.580850 620.006775
199 0 1 13.779280 5.539760 620.936707
200 0 1 13.467791 5.826070 621.839722
201 0 1 13.012580 5.955270 622.695923
202 0 1 12.742720 6.175580 623.600830
203 0 1 12.049180 6.063560 624.279846
204 0 1 11.366590 6.067610 624.979614
205 0 1 10.723360 6.350260 625.543640
206 0 1 10.180330 6.347740 626.331604
207 0 1 9.601760 6.470470 627.009827
208 0 1 9.165421 6.863880 627.694580
209 0 1 8.581936 7.208973 628.380798
210 0 1 8.244173 7.268634 629.296021
211 0 1 8.024802 7.248188 630.167725
212 0 1 7.919642 7.069416 631.088135
213 0 1 7.567359 7.033401 631.958435
214 0 1 6.907060 7.166362 632.673645
215 0 1 6.413830 7.223464 633.477539
216 0 1 6.112460 7.516442 634.395508
217 0 1 6.124850 7.657567 635.371948
218 0 1 6.123630 7.841094 636.376099
219 0 1 5.638560 7.908390 637.244324
220 0 1 5.530370 8.208437 638.095764
221 0 1 5.112910 8.640577 638.761475
222 0 1 4.939010 9.158660 639.549500
223 0 1 4.938700 9.612730 640.382812
224 0 1 5.338240 10.184920 641.024292
225 0 1 6.017370 10.503990 641.629822
226 0 1 6.746880 10.989780 642.039978
227 0 1 7.426740 11.444320 642.642273
228 0 1 8.091316 11.494910 643.375305
229 0 1 8.418801 11.676229 644.255005
230 0 1 8.884091 11.814230 645.075195
231 0 1 9.255750 11.869450 645.935791
232 0 1 9.518560 11.663700 646.826477
233 0 1 9.602921 11.171980 647.734619
234 0 1 9.893870 10.882990 648.598694
235 0 1 10.135480 10.679160 649.506714
236 0 1 10.462440 10.533220 650.330505
237 0 1 10.802959 10.329880 651.206604
238 0 1 11.292960 10.020620 652.058228
239 0 1 11.635799 9.689900 652.849121
240 0 1 11.835930 9.169900 653.683899
241 0 1 11.718690 8.769595 654.544922
242 0 1 11.905540 8.294329 655.365784
243 0 1 11.997900 7.913023 656.222717
244 0 1 12.112870 7.612130 657.150085
245 0 1 12.211850 7.610454 658.117310
246 0 1 12.233339 7.605637 659.053284
247 0 1 12.502590 7.358154 659.927612
248 0 1 12.434851 7.203851 660.924622
249 0 1 12.474640 7.122131 661.849976
250 0 1 12.282360 7.082667 662.753418
251 0 1 11.846251 7.047168 663.625183
252 0 1 11.325460 6.906410 664.447510
253 0 1 10.725460 6.823550 665.152100
254 0 1 10.109640 6.416530 665.822876
255 0 1 9.581160 5.743050 666.486816
256 0 1 9.151630 5.073010 667.008972
257 0 1 8.735549 4.451700 667.626282
258 0 1 8.001000 3.982790 668.125305
259 0 1 7.492249 3.472670 668.726807
260 0 1 6.664240 3.457320 669.235718
261 0 1 5.838510 3.528980 669.695984
262 0 1 4.969830 3.415520 670.150879
263 0 1 4.239390 3.527050 670.749512
264 0 1 3.655050 3.873800 671.448120
265 0 1 3.407810 4.291590 672.272278
266 0 1 3.236760 4.794640 673.094788
267 0 1 3.082470 5.278100 673.905884
268 0 1 2.909410 5.625700 674.729126
269 0 1 2.563260 6.071530 675.480469
270 0 1 2.086450 6.569090 676.166992
271 0 1 1.966170 7.095214 677.002808
272 0 1 1.581880 7.448958 677.798584
273 0 1 1.313680 7.970769 678.577393
274 0 1 1.304640 8.240228 679.494507
275 0 1 1.353530 8.467361 680.371521
276 0 1 1.436590 8.760948 681.286621
277 0 1 1.483150 8.952506 682.232605
278 0 1 1.627360 9.219310 683.142090
279 0 1 1.960920 9.590410 683.947876
280 0 1 2.316630 10.041730 684.738586
281 0 1 2.608700 10.401570 685.545227
282 0 1 2.855460 10.582220 686.427368
283 0 1 3.150030 10.795330 687.311707
284 0 1 3.493180 11.170940 688.161621
285 0 1 3.601700 11.228970 689.108704
286 0 1 3.738590 11.524981 690.035522
287 0 1 3.881120 11.607670 690.959473
288 0 1 3.839400 11.556590 691.916321
289 0 1 3.600630 11.427190 692.849182
290 0 1 3.331590 11.104270 693.704468
291 0 1 3.099910 10.683760 694.491882
292 0 1 2.759730 10.114340 695.173279
293 0 1 2.827250 9.403150 695.900269
294 0 1 3.050730 8.618788 696.457703
295 0 1 3.220910 7.813837 696.946594
296 0 1 3.265310 6.992940 697.447876
297 0 1 3.134520 6.249390 698.023499
298 0 1 3.016020 5.557260 698.707825
299 0 1 3.010780 5.027840 699.467773
300 0 1 3.022310 4.568030 700.327087
301 0 1 3.280940 4.259550 701.211914
302 0 1 3.848830 4.126110 701.965210
303 0 1 4.393550 4.262330 702.725586
304 0 1 4.854510 4.122670 703.593201
305 0 1 5.618790 4.102860 704.186523
306 0 1 6.136900 3.744950 704.896606
307 0 1 6.673250 3.255920 705.502808
308 0 1 7.190460 2.746940 706.100098
309 0 1 7.866984 2.618160 706.865417
310 0 1 8.510159 2.714290 707.654419
311 0 1 9.260270 3.111140 708.339600
312 0 1 9.948750 3.461630 708.923279
313 0 1 10.203070 3.833800 709.739380
314 0 1 10.257410 4.002880 710.699280
315 0 1 10.117001 4.236570 711.642517
316 0 1 10.202940 4.450010 712.581421
317 0 1 10.544240 4.868040 713.339600
318 0 1 10.797110 5.516390 714.012878
319 0 1 10.744380 6.245020 714.635376
320 0 1 10.260790 6.579930 715.390686
321 0 1 9.486480 6.978630 715.813232
322 0 1 8.664955 7.195242 716.213989
323 0 1 7.862181 7.336309 716.840332
324 0 1 7.171235 7.550891 717.435791
325 0 1 6.525890 7.877199 718.061584
326 0 1 5.733190 8.195455 718.615967
327 0 1 5.118350 8.501858 719.296814
328 0 1 4.614770 8.693715 720.096313
329 0 1 4.466520 8.856968 721.020874
330 0 1 4.292470 8.461447 721.864380
331 0 1 4.148470 8.292489 722.766602
332 0 1 3.947550 7.949171 723.662109
333 0 1 3.977070 7.731983 724.569824
334 0 1 4.139990 7.293228 725.375916
335 0 1 4.190260 6.741690 726.108215
336 0 1 4.550930 6.156790 726.746887
337 0 1 4.617850 5.670230 727.593811
338 0 1 4.343460 5.440380 728.523987
339 0 1 4.252970 5.233550 729.442993
340 0 1 4.573300 5.021920 730.359985
341 0 1 4.882200 5.127020 731.250000
342 0 1 5.217410 5.490380 732.068970
343 0 1 5.780700 5.981270 732.650024
344 0 1 6.466630 6.353260 733.219971
345 0 1 7.334056 6.584310 733.713013
346 0 1 7.866340 6.862570 734.483032
347 0 1 8.096086 7.403246 735.289001
348 0 1 8.337495 7.965883 736.023987
349 0 1 8.490863 8.372483 736.924011
350 0 1 8.600436 8.775691 737.804993
351 0 1 8.574029 8.667564 738.815002
352 0 1 8.682662 8.780353 739.759033
353 0 1 8.765801 8.804712 740.655029
354 0 1 8.710053 8.893815 741.591980
355 0 1 8.867227 9.021410 742.541992
356 0 1 9.010800 9.440050 743.426025
357 0 1 9.217080 10.085800 744.093018
358 0 1 9.388260 10.573450 744.911987
359 0 1 9.321380 10.859261 745.812012
360 0 1 9.290340 11.134740 746.700989
361 0 1 9.197880 11.539270 747.583008
362 0 1 9.084100 11.591460 748.565979
363 0 1 8.992482 11.543510 749.570984
364 0 1 9.153500 11.438570 750.589966
365 0 1 9.353100 11.506880 751.578979
366 0 1 9.426320 11.522710 752.512024
367 0 1 9.685800 11.522070 753.427002
368 0 1 10.035560 11.422540 754.343018
369 0 1 10.233110 11.361920 755.250000
370 0 1 10.400020 11.101550 756.145020
371 0 1 10.567310 10.954060 757.099976
372 0 1 10.550220 10.620430 758.007996
373 0 1 10.538620 10.383320 758.994995
374 0 1 10.380860 10.236290 759.914001
375 0 1 10.305840 10.152920 760.929993
376 0 1 10.061930 10.120729 761.906006
377 0 1 9.887190 10.210300 762.838989
378 0 1 9.779230 10.331330 763.815002
379 0 1 9.647900 10.104730 764.785034
380 0 1 9.864240 10.133039 765.710022
381 0 1 10.189130 10.319680 766.638000
382 0 1 10.586950 10.108960 767.427979
383 0 1 10.950830 9.728650 768.275024
384 0 1 11.466650 9.571410 769.130981
385 0 1 11.875780 9.336160 769.962036
386 0 1 12.093531 9.134620 770.885986
387 0 1 12.240641 8.946477 771.809021
388 0 1 12.344640 8.652577 772.669983
389 0 1 12.457510 8.515408 773.630981
390 0 1 12.860380 8.475397 774.583984
391 0 1 12.913090 8.383309 775.552002
392 0 1 12.896811 8.210368 776.533997
393 0 1 12.576040 8.013648 777.478027
394 0 1 12.066490 7.687467 778.317993
395 0 1 11.638160 7.506394 779.198975
396 0 1 11.088640 7.234149 780.054016
397 0 1 10.554260 7.166285 780.960999
398 0 1 10.026690 6.937600 781.671021
399 0 1 9.632850 6.544330 782.390991
400 0 1 9.289110 6.461120 783.271973
401 0 1 9.157630 6.432430 784.208984
402 0 1 9.140530 6.206430 785.146973
403 0 1 9.355160 6.354660 786.096008
404 0 1 9.327300 6.346900 787.000977
405 0 1 9.547690 6.089120 787.849976
406 0 1 9.839540 5.914570 788.815002
407 0 1 10.164100 5.583790 789.703003
408 0 1 10.707780 5.596930 790.474976
409 0 1 11.265020 5.630260 791.228027
410 0 1 11.745420 5.715400 792.120972
411 0 1 12.034980 5.877080 793.004028
412 0 1 12.135941 5.408670 793.917969
413 0 1 12.269791 5.090730 794.757019
414 0 1 12.350650 4.913940 795.721008
415 0 1 12.265380 4.742980 796.667969
416 0 1 12.499490 4.551470 797.614990
417 0 1 12.816310 4.642410 798.549988
418 0 1 12.830310 4.473190 799.513000
419 0 1 12.847799 4.590650 800.458984
420 0 1 13.008471 5.060060 801.315002
421 0 1 13.279010 5.647120 802.088989
422 0 1 13.223880 6.111200 802.863037
423 0 1 13.311190 6.759440 803.635010
424 0 1 13.278390 7.242061 804.436035
425 0 1 13.386840 7.736885 805.304993
426 0 1 13.809390 7.995958 806.213013
427 0 1 14.052179 8.401107 807.098022
428 0 1 14.061760 8.705482 808.067017
429 0 1 14.199320 8.586106 808.936035
430 0 1 13.939290 8.724543 809.945007
431 0 1 13.381500 9.004790 810.681030
432 0 1 12.904881 9.503010 811.390015
433 0 1 12.382219 9.961720 812.049011
434 0 1 11.956480 10.284330 812.841003
435 0 1 11.294470 10.378580 813.539978
436 0 1 10.541540 10.715430 813.981995
437 0 1 9.812160 10.865050 814.523010
438 0 1 9.310820 10.856930 815.348999
439 0 1 8.873644 10.980721 816.179016
440 0 1 8.555231 11.375160 817.036987
441 0 1 8.483015 11.784550 817.937988
442 0 1 8.475127 12.137310 818.830994
443 0 1 8.440448 12.742980 819.554016
444 0 1 8.563428 13.110809 820.419006
445 0 1 8.675042 13.637370 821.218018
446 0 1 8.917065 14.178579 822.011963
447 0 1 9.191140 14.195110 822.914001
448 0 1 9.367720 14.312679 823.875977
449 0 1 9.713300 14.371960 824.797974
450 0 1 10.089440 14.296710 825.747986
451 0 1 10.499690 13.991360 826.536011
452 0 1 10.769120 13.781500 827.398010
453 0 1 11.188220 13.396140 828.205994
454 0 1 11.229950 13.208981 829.161011
455 0 1 10.924810 13.015360 830.112000
456 0 1 10.911280 12.698690 831.036987
457 0 1 10.806190 11.991859 831.676025
458 0 1 10.952150 11.209670 832.223999
459 0 1 10.824350 10.238250 832.338989
460 0 1 10.824130 9.291530 832.349976
461 0 1 10.786570 8.342678 832.146973
462 0 1 10.539010 7.472936 831.820007
463 0 1 10.489310 6.683860 831.270996
464 0 1 10.436220 5.987060 830.552002
465 0 1 10.396170 5.741730 829.608032
466 0 1 10.348050 5.779140 828.662964
467 0 1 10.137030 5.751220 827.687988
468 0 1 9.704170 5.810850 826.804993
469 0 1 9.558310 5.936400 825.724976
470 0 1 9.548780 5.608430 824.858032
471 0 1 9.528650 5.199050 823.983032
472 0 1 9.399340 5.132790 822.960022
473 0 1 9.227110 4.924040 822.080994
474 0 1 8.805653 5.093490 821.198975
475 0 1 8.251683 5.302360 820.411011
476 0 1 7.572690 5.557380 819.731995
477 0 1 6.842480 5.767620 819.182007
478 0 1 6.059810 5.861520 818.669006
479 0 1 5.249970 5.838390 818.135010
480 0 1 4.445120 5.945550 817.570984
481 0 1 3.755900 6.538380 817.203003
482 0 1 3.118100 7.249531 816.846985
483 0 1 2.551990 7.953415 816.567993
484 0 1 2.208110 8.779751 816.244995
485 0 1 2.152360 9.494620 815.497986
486 0 1 2.524330 9.907080 814.747009
487 0 1 2.915600 10.275460 813.968994
488 0 1 3.386670 10.638880 813.228027
489 0 1 3.607940 10.939000 812.367004
490 0 1 3.854310 11.192870 811.502014
491 0 1 4.305650 11.187531 810.658020
492 0 1 4.542440 10.979660 809.726990
493 0 1 4.802280 10.885530 808.807983
494 0 1 5.120310 10.574750 807.864014
495 0 1 5.138910 10.228149 806.973022
496 0 1 4.999450 9.915540 806.080994
497 0 1 4.712430 9.899380 805.096008
498 0 1 4.425820 9.463650 804.224976
499 0 1 4.250110 8.836247 803.476013
500 0 1 3.863860 8.405136 802.724976
501 0 1 3.477300 7.974911 801.919006
502 0 1 3.152750 7.456107 801.164978
503 0 1 2.871640 6.847330 800.437988
504 0 1 2.594000 6.432030 799.598022
505 0 1 2.330270 5.736090 798.911011
506 0 1 2.237890 5.141000 798.205017
507 0 1 2.245080 4.905330 797.275024
508 0 1 2.279050 4.872000 796.346985
509 0 1 2.320560 4.973930 795.391968
510 0 1 2.323770 4.973270 794.382996
511 0 1 2.376840 4.941760 793.422974
512 0 1 2.574760 4.696250 792.505981
513 0 1 2.772440 4.366040 791.667969
514 0 1 2.830200 4.252770 790.667969
515 0 1 3.103990 4.232690 789.760986
516 0 1 3.371060 4.310540 788.791016
517 0 1 3.512140 4.388340 787.919983
518 0 1 3.924820 4.347650 787.002014
519 0 1 4.451150 4.280350 786.155029
520 0 1 5.049000 4.454270 785.410034
521 0 1 5.587980 4.252570 784.619995
522 0 1 6.226290 4.328280 783.794983
523 0 1 6.734270 4.794910 783.096008
524 0 1 7.237918 5.376840 782.427979
525 0 1 7.912986 5.863580 781.880005
526 0 1 8.280963 6.538960 781.286987
527 0 1 8.574813 7.125978 780.585022
528 0 1 8.364165 7.692822 779.898010
529 0 1 8.067755 8.326711 779.359009
530 0 1 7.757494 9.032240 778.723999
531 0 1 7.609932 9.700540 777.943970
532 0 1 7.163417 10.197720 777.229980
533 0 1 6.602240 10.413010 776.424988
534 0 1 6.071330 10.644080 775.682007
535 0 1 5.622360 10.783640 774.869995
536 0 1 5.437670 11.035250 773.931030
537 0 1 5.034580 11.027480 773.002014
538 0 1 5.204530 11.066510 772.087036
539 0 1 5.212810 10.831320 771.153992
540 0 1 5.278320 10.616301 770.182007
541 0 1 5.128380 10.477921 769.278992
542 0 1 5.115190 10.464390 768.259033
543 0 1 5.028450 10.248550 767.328979
544 0 1 5.145050 10.213551 766.354980
545 0 1 5.179110 10.411680 765.416016
546 0 1 5.344280 10.511311 764.484985
547 0 1 5.328600 10.645340 763.523010
548 0 1 5.309310 10.976650 762.598999
549 0 1 5.315130 11.022190 761.593994
550 0 1 5.471920 11.160040 760.640991
551 0 1 5.451250 11.290430 759.655029
552 0 1 5.558640 11.443420 758.625000
553 0 1 5.277110 11.603440 757.755005
554 0 1 4.829880 11.507500 756.953003
555 0 1 4.420210 11.653030 756.132019
556 0 1 3.871580 11.793430 755.341003
557 0 1 3.277270 11.677230 754.528015
558 0 1 2.763330 11.553720 753.768005
559 0 1 2.458230 11.246040 752.896973
560 0 1 2.162410 10.651900 752.208008
561 0 1 1.869850 10.016109 751.559021
562 0 1 1.401390 9.524150 750.861023
563 0 1 1.281250 9.087160 750.009033
564 0 1 1.271610 8.925694 749.082031
565 0 1 1.332020 8.875583 748.101990
566 0 1 1.308670 8.646338 747.174988
567 0 1 1.480630 8.273893 746.237000
568 0 1 1.531200 8.121949 745.333008
569 0 1 1.776120 8.006220 744.435974
570 0 1 1.797860 7.792453 743.521973
571 0 1 2.090830 7.656195 742.645996
572 0 1 2.081890 7.500813 741.731018
573 0 1 2.583260 7.796989 740.794983
574 0 1 2.936690 7.995170 739.927002
575 0 1 3.027980 8.305358 738.937012
576 0 1 2.983310 8.792992 738.124023
577 0 1 2.566540 9.327260 737.336975
578 0 1 2.483510 9.960920 736.539978
579 0 1 2.240720 10.440570 735.640991
580 0 1 2.185890 10.784760 734.768982
581 0 1 2.126250 11.041740 733.901978
582 0 1 2.113280 11.113480 732.971985
583 0 1 2.269230 10.932510 732.041992
584 0 1 2.477470 10.893410 731.145996
585 0 1 2.848550 10.671640 730.286987
586 0 1 2.984910 10.225930 729.437988
587 0 1 3.102260 9.337030 729.046021
588 0 1 3.516050 8.639484 728.507996
589 0 1 4.161730 8.028789 728.062317
590 0 1 4.931910 7.469165 728.006409
591 0 1 5.618300 6.902860 727.833496
592 0 1 6.386640 6.513930 727.329285
593 0 1 7.179040 6.262830 726.852112
594 0 1 7.997631 6.123820 726.387207
595 0 1 8.866209 5.872120 726.029785
596 0 1 9.743850 5.779350 725.618530
597 0 1 10.725130 5.611450 725.487000
598 0 1 11.531620 5.567300 724.945374
599 0 1 12.028060 5.433020 724.127625
600 0 1 12.554250 5.317170 723.218872
601 0 1 12.801870 5.117840 722.293579
602 0 1 12.776230 5.048790 721.370911
603 0 1 12.586861 4.931540 720.405579
604 0 1 12.542770 4.622280 719.470276
605 0 1 12.577800 4.304990 718.589600
606 0 1 12.662970 3.966160 717.683411
607 0 1 12.958080 3.930240 716.675476
608 0 1 13.222110 3.925590 715.816101
609 0 1 13.475700 4.105650 714.901611
610 0 1 13.369471 4.379690 713.976990
611 0 1 13.102739 5.000520 713.249268
612 0 1 12.993250 5.616960 712.518005
613 0 1 12.809420 6.162220 711.772095
614 0 1 12.450109 6.608040 711.005188
615 0 1 12.102240 7.170628 710.329712
616 0 1 11.804750 7.763430 709.641724
617 0 1 11.803590 8.271590 708.799622
618 0 1 11.745110 8.641222 707.900696
619 0 1 11.440150 8.719904 706.986694
620 0 1 11.149100 8.444752 706.082581
621 0 1 10.913350 8.175025 705.094910
622 0 1 10.852930 7.803828 704.270691
623 0 1 10.924660 7.632747 703.357666
624 0 1 10.983440 7.542141 702.364502
625 0 1 10.904221 7.284942 701.408203
626 0 1 10.914030 7.144022 700.467407
627 0 1 10.927731 6.582310 699.673828
628 0 1 10.933820 6.009090 698.886780
629 0 1 10.607350 5.253980 698.388977
630 0 1 10.237910 4.742400 697.652283
631 0 1 10.208990 4.261040 696.838867
632 0 1 10.201100 4.086130 695.894531
633 0 1 10.510360 4.051520 694.944214
634 0 1 10.446400 4.399020 694.076416
635 0 1 10.402420 4.758090 693.187134
636 0 1 10.157010 5.345750 692.428101
637 0 1 9.672660 5.646210 691.684692
638 0 1 9.218540 5.851910 690.867493
639 0 1 8.771414 5.938760 690.074097
640 0 1 8.514175 5.955400 689.165405
641 0 1 8.388387 6.259170 688.312500
642 0 1 8.329289 6.300650 687.279175
643 0 1 8.131356 6.567880 686.373291
644 0 1 7.774301 6.644970 685.460388
645 0 1 7.650562 6.744260 684.461670
646 0 1 7.557060 7.053054 683.555420
647 0 1 7.736210 7.421031 682.693298
648 0 1 7.709906 7.638761 681.717896
649 0 1 7.654206 7.835271 680.656982
650 0 1 7.918638 7.996378 679.792603
651 0 1 8.513480 8.006110 679.000305
652 0 1 8.714536 7.992307 678.044189
653 0 1 8.624332 8.311530 677.076416
654 0 1 8.123577 8.814476 676.473694
655 0 1 7.438764 9.498631 676.247498
656 0 1 6.937360 10.032710 675.671814
657 0 1 6.288640 10.155890 674.970398
658 0 1 5.927470 10.027411 674.042175
659 0 1 5.521480 10.086451 673.187622
660 0 1 5.235810 10.261630 672.229797
661 0 1 4.855520 10.505210 671.351074
662 0 1 4.953790 10.527300 670.423828
663 0 1 5.207700 10.745190 669.538330
664 0 1 5.478800 10.978480 668.642273
665 0 1 5.816600 11.083370 667.739624
666 0 1 6.154230 11.093330 666.811890
667 0 1 6.757620 11.055550 665.957214
668 0 1 7.133136 11.065010 665.073914
669 0 1 7.254463 11.063140 664.085083
670 0 1 7.666224 11.013250 663.205078
671 0 1 7.961993 11.143020 662.276794
672 0 1 8.264949 11.117530 661.392517
673 0 1 8.593081 10.692540 660.595093
674 0 1 8.730892 10.330140 659.667908
675 0 1 8.781305 9.731780 658.892273
676 0 1 9.231570 9.217610 658.239685
677 0 1 9.574640 8.751275 657.512817
678 0 1 9.589500 8.327862 656.638184
679 0 1 9.784360 8.019183 655.752808
680 0 1 9.960730 7.820156 654.799805
681 0 1 10.208130 7.307168 653.997009
682 0 1 10.511370 7.030914 653.119690
683 0 1 10.732890 6.872930 652.162231
684 0 1 11.122459 6.530130 651.378174
685 0 1 11.462280 6.140420 650.604675
686 0 1 12.124741 6.012590 649.923218
687 0 1 12.813960 5.676730 649.336426
688 0 1 13.013880 5.275120 648.497375
689 0 1 13.130890 4.924330 647.577820
690 0 1 13.261670 5.073910 646.620178
691 0 1 13.114640 5.392710 645.733215
692 0 1 12.601749 5.833010 645.000977
693 0 1 12.098490 6.041610 644.222107
694 0 1 11.535970 6.314150 643.463379
695 0 1 10.971140 6.519800 642.647827
696 0 1 10.286570 6.144580 642.140381
697 0 1 9.532630 5.934840 641.586426
698 0 1 8.943575 5.512010 640.911072
699 0 1 8.417610 4.998220 640.302795
700 0 1 7.906371 4.510100 639.560974
701 0 1 7.605177 4.099860 638.773315
702 0 1 7.532250 3.712340 637.854065
703 0 1 7.468180 3.103590 637.183716
704 0 1 7.387500 2.605170 636.392395
705 0 1 7.344951 1.920900 635.662842
706 0 1 7.139917 1.661710 634.755432
707 0 1 6.690710 1.658740 633.902527
708 0 1 6.415500 1.622950 632.983521
709 0 1 6.426700 1.485780 632.011963
710 0 1 6.455890 1.489770 631.043823
711 0 1 6.485390 1.472840 630.121948
712 0 1 6.542740 1.554420 629.129333
713 0 1 6.642320 1.760910 628.193665
714 0 1 6.403630 1.713990 627.271790
715 0 1 6.512750 1.938290 626.286621
716 0 1 6.767870 2.183110 625.421936
717 0 1 7.041483 2.422600 624.463257
718 0 1 7.109469 2.427050 623.518005
719 0 1 7.254923 2.278150 622.598511
720 0 1 7.159770 2.452960 621.635071
721 0 1 6.915250 2.820280 620.730896
722 0 1 6.833510 3.310750 619.851074
723 0 1 7.014021 3.589450 618.902222
724 0 1 7.244623 3.803570 618.040222
725 0 1 7.619813 3.922150 617.237793
726 0 1 8.164278 3.949580 616.507812
727 0 1 8.605884 3.709150 615.680420
728 0 1 8.952237 3.322880 614.822571
729 0 1 9.258200 3.030650 613.917725
730 0 1 9.080650 2.635200 613.002686
731 0 1 8.985529 2.233090 612.153381
732 0 1 8.978461 1.968990 611.189514
733 0 1 9.071360 1.761430 610.263123
734 0 1 9.160770 1.743450 609.300598
735 0 1 9.155920 1.905720 608.358276
736 0 1 9.161870 2.028790 607.409729
737 0 1 9.223170 2.059100 606.445374
738 0 1 9.258760 2.053400 605.465210
739 0 1 9.490610 1.920210 604.521179
740 0 1 9.542100 1.792060 603.557678
741 0 1 9.499450 1.811830 602.600220
742 0 1 9.527070 1.993250 601.654480
743 0 1 9.459800 1.985740 600.676819
744 0 1 9.323800 1.833690 599.722290
745 0 1 9.448930 1.632270 598.735718
746 0 1 9.322840 1.534690 597.763611
747 0 1 9.345060 1.512870 596.753113
748 0 1 9.337490 1.556520 595.804993
749 0 1 9.506080 1.526130 594.789490
750 0 1 9.639270 1.619710 593.816101
751 0 1 9.598430 1.801270 592.720581
752 0 1 9.704250 2.078670 591.832092
753 0 1 9.613740 2.310240 590.902893
754 0 1 9.630010 2.789970 590.082031
755 0 1 9.758039 3.343230 589.301819
756 0 1 9.666050 3.884620 588.519775
757 0 1 9.743120 4.291220 587.700195
758 0 1 9.687650 4.916700 586.955688
759 0 1 9.720850 5.502070 586.148926
760 0 1 9.556390 6.144930 585.463318
761 0 1 9.511560 6.948350 584.986328
762 0 1 9.259130 7.605540 584.309692
763 0 1 9.057630 8.192511 583.614380
764 0 1 8.510676 8.395403 582.832031
765 0 1 7.711145 8.721707 582.433777
766 0 1 6.912960 8.965378 581.909180
767 0 1 6.247570 8.951778 581.230408
768 0 1 5.548250 8.915288 580.639221
769 0 1 5.180440 8.770752 579.789673
770 0 1 5.083120 8.507493 578.893921
771 0 1 5.033310 8.341710 577.959106
772 0 1 5.087170 8.239735 576.996216
773 0 1 5.114560 7.911387 576.096680
774 0 1 4.910710 7.686848 575.193420
775 0 1 5.020920 7.543799 574.195801
776 0 1 5.162720 7.567212 573.291626
777 0 1 4.841470 7.946736 572.478394
778 0 1 4.518590 8.519646 571.762024
779 0 1 4.310770 9.103000 571.084778
780 0 1 3.980370 9.668580 570.334106
781 0 1 3.751380 10.067070 569.509827
782 0 1 3.647850 10.270530 568.545776
783 0 1 3.744990 10.592940 567.617004
784 0 1 3.770340 11.115990 566.770203
785 0 1 3.675600 11.554080 565.954407
786 0 1 3.765990 12.029130 565.089111
787 0 1 3.935500 12.188459 564.091431
788 0 1 4.066790 12.196569 563.185486
789 0 1 3.921390 12.069040 562.211670
790 0 1 3.825260 12.138639 561.253174
791 0 1 3.862130 11.992500 560.302307
792 0 1 4.214610 11.618190 559.528320