LAMMPS data file via MDAnalysis

        1000  atoms
        1000  bonds
        1000  angles
           0  dihedrals
           0  impropers

           1  atom types
           1  bond types
           1  angle types
           0  dihedral types
           0  improper types

0.000000 16.000000 xlo xhi
0.000000 16.000000 ylo yhi
0.000000 1257.000000 zlo zhi


Masses

1 1.000000

Atoms

1 0 1 5.453540 3.815790 439.565002
2 0 1 5.295720 4.016940 440.516998
3 0 1 4.946900 4.147300 441.408997
4 0 1 4.613670 4.316950 442.283997
5 0 1 4.418200 4.745320 443.130005
6 0 1 3.973310 4.910160 444.057983
7 0 1 3.700250 5.188500 444.940979
8 0 1 3.432990 5.281790 445.845001
9 0 1 3.165330 5.351170 446.744995
10 0 1 2.880690 5.490170 447.623993
11 0 1 2.494650 5.618800 448.520020
12 0 1 2.198630 5.587220 449.475006
13 0 1 2.192720 5.814340 450.401978
14 0 1 2.083810 5.936860 451.403015
15 0 1 2.178410 6.022380 452.354980
16 0 1 2.388760 6.038940 453.320007
17 0 1 2.813170 6.332830 454.101013
18 0 1 3.290790 6.472780 454.919006
19 0 1 3.725460 6.715150 455.703003
20 0 1 4.200150 6.931290 456.548004
21 0 1 4.540470 6.957980 457.484009
22 0 1 4.772170 6.706800 458.410004
23 0 1 4.576630 6.645330 459.320984
24 0 1 4.383350 6.865360 460.238007
25 0 1 4.087770 7.030686 461.161987
26 0 1 3.747060 7.513291 461.942993
27 0 1 3.326310 8.140219 462.557983
28 0 1 2.771220 8.636548 463.147003
29 0 1 2.565810 9.296329 463.815979
30 0 1 2.566180 10.008340 464.494019
31 0 1 2.605190 10.630040 465.197998
32 0 1 2.626720 11.184680 466.014008
33 0 1 2.721530 11.709260 466.871002
34 0 1 2.824840 12.100180 467.738007
35 0 1 2.894420 12.449329 468.656006
36 0 1 3.108580 12.747620 469.539978
37 0 1 3.430410 12.877840 470.497986
38 0 1 3.994110 13.285080 471.140015
39 0 1 4.451040 13.708860 471.904999
40 0 1 4.941950 13.811010 472.697021
41 0 1 5.289100 13.747499 473.684021
42 0 1 5.330020 13.777910 474.718018
43 0 1 5.488390 13.816441 475.695007
44 0 1 5.485480 13.468500 476.539978
45 0 1 5.548030 13.396299 477.475006
46 0 1 5.609830 13.214370 478.481995
47 0 1 5.912140 13.087400 479.317017
48 0 1 6.205310 13.195650 480.260010
49 0 1 6.486650 13.212160 481.216003
50 0 1 7.059501 13.482740 481.925995
51 0 1 7.765973 13.371170 482.604004
52 0 1 8.298757 13.343901 483.411987
53 0 1 8.724979 13.404310 484.268982
54 0 1 9.111540 13.462990 485.177002
55 0 1 9.081450 13.421150 486.201996
56 0 1 9.391300 13.459660 487.154999
57 0 1 9.509100 13.496930 488.082001
58 0 1 9.850360 13.417040 489.005005
59 0 1 10.322280 13.201440 489.850006
60 0 1 10.621410 12.929840 490.746002
61 0 1 11.087390 12.519939 491.505005
62 0 1 11.267700 12.040560 492.270020
63 0 1 11.582860 11.546080 493.067017
64 0 1 11.632820 11.199750 493.997009
65 0 1 11.694720 10.765810 494.889008
66 0 1 12.065821 10.509180 495.739014
67 0 1 12.374001 10.234730 496.567017
68 0 1 12.566100 9.966540 497.471008
69 0 1 12.808500 9.453990 498.200012
70 0 1 12.888340 8.719321 498.809998
71 0 1 12.942670 7.846089 499.135010
72 0 1 13.032190 7.099540 499.768005
73 0 1 13.001619 6.578220 500.570007
74 0 1 12.829821 5.831750 501.289001
75 0 1 12.662661 5.055080 501.731995
76 0 1 12.534070 4.244050 502.174011
77 0 1 12.275670 3.771310 502.951996
78 0 1 12.076170 3.490140 503.813995
79 0 1 11.797380 3.275450 504.664001
80 0 1 11.516610 3.003600 505.509003
81 0 1 11.156080 2.669050 506.325012
82 0 1 10.984250 2.166210 507.149994
83 0 1 10.568040 2.151820 508.015015
84 0 1 10.234550 2.268210 508.895996
85 0 1 9.961540 2.382240 509.794983
86 0 1 9.737750 2.870340 510.584991
87 0 1 9.777610 3.047720 511.529999
88 0 1 9.501550 3.134060 512.518005
89 0 1 9.097580 3.345190 513.341980
90 0 1 8.660301 3.316810 514.247009
91 0 1 8.164607 3.202450 515.052979
92 0 1 7.942236 2.995720 515.971985
93 0 1 7.773187 3.023340 516.947998
94 0 1 7.753411 3.040930 517.963989
95 0 1 7.737029 3.211130 518.903992
96 0 1 7.829780 3.390040 519.858032
97 0 1 7.806917 3.677040 520.747009
98 0 1 7.666975 3.715190 521.726013
99 0 1 7.819069 3.819030 522.664001
100 0 1 7.984533 4.016460 523.609009
101 0 1 7.656501 4.084720 524.512024
102 0 1 7.320595 3.993020 525.400024
103 0 1 6.924090 4.025240 526.296997
104 0 1 6.747900 4.377460 527.229004
105 0 1 6.383760 4.860800 528.018982
106 0 1 6.191930 5.131140 528.867981
107 0 1 5.755290 5.557270 529.573181
108 0 1 5.483820 5.993890 530.439331
109 0 1 5.086510 6.383620 531.201294
110 0 1 4.815470 6.675450 532.038025
111 0 1 4.537060 6.856310 532.961304
112 0 1 4.129120 6.627400 533.848267
113 0 1 3.779390 6.588360 534.785583
114 0 1 3.637350 6.389230 535.742188
115 0 1 3.309390 6.122350 536.584595
116 0 1 3.015390 6.086220 537.578979
117 0 1 3.091370 5.964020 538.523987
118 0 1 3.198920 5.626600 539.359192
119 0 1 3.529380 5.066720 540.011108
120 0 1 3.704900 4.428600 540.658325
121 0 1 3.801860 3.788630 541.335327
122 0 1 4.087730 3.123800 541.921326
123 0 1 4.299660 2.805250 542.778992
124 0 1 4.793400 2.459970 543.521973
125 0 1 5.259050 2.286640 544.402283
126 0 1 5.594220 2.150820 545.293701
127 0 1 5.830780 2.082160 546.241394
128 0 1 6.355260 1.948240 547.114624
129 0 1 6.826110 2.197640 547.917419
130 0 1 7.293502 2.502910 548.682617
131 0 1 7.970067 2.829730 549.325806
132 0 1 8.623838 3.150580 549.932007
133 0 1 9.287050 3.526910 550.604919
134 0 1 10.112830 3.836930 551.145081
135 0 1 10.739720 4.150130 551.837097
136 0 1 11.013120 4.550040 552.682800
137 0 1 11.187970 4.975690 553.518494
138 0 1 11.429820 5.518570 554.248779
139 0 1 11.761880 6.214440 554.829285
140 0 1 12.185960 6.619440 555.592102
141 0 1 12.319360 6.735660 556.514709
142 0 1 12.328760 6.493600 557.464783
143 0 1 12.451810 6.087600 558.326904
144 0 1 12.467600 5.784390 559.207275
145 0 1 12.414790 5.757860 560.131714
146 0 1 12.273211 5.858080 561.039795
147 0 1 12.022350 6.162620 561.941711
148 0 1 11.505730 6.208670 562.723999
149 0 1 10.985630 6.172330 563.540710
150 0 1 10.383780 6.264400 564.375122
151 0 1 10.019970 6.365240 565.245728
152 0 1 9.683730 6.626550 566.084106
153 0 1 9.218470 6.834800 566.906677
154 0 1 9.116520 7.182621 567.739075
155 0 1 9.082670 7.490930 568.625427
156 0 1 8.880743 7.727701 569.591492
157 0 1 8.767945 8.131285 570.509521
158 0 1 8.643238 8.535272 571.328003
159 0 1 8.415577 8.865672 572.206604
160 0 1 8.227061 8.961162 573.116028
161 0 1 7.997499 9.004780 574.055908
162 0 1 7.828452 9.073330 575.022095
163 0 1 8.022589 9.177080 575.950378
164 0 1 8.295573 9.164820 576.888000
165 0 1 8.588199 9.206141 577.805115
166 0 1 8.536019 9.106730 578.795898
167 0 1 8.469697 9.090450 579.765076
168 0 1 8.517177 8.952707 580.738403
169 0 1 8.502367 8.709750 581.662109
170 0 1 8.396788 8.345976 582.473572
171 0 1 8.120214 8.256444 583.360413
172 0 1 7.775026 8.281952 584.269592
173 0 1 7.421329 8.298397 585.172424
174 0 1 7.278345 8.066969 586.085205
175 0 1 7.124971 8.102925 587.093628
176 0 1 6.837700 8.075021 588.011597
177 0 1 6.567880 7.966068 588.871826
178 0 1 6.425240 7.721543 589.769531
179 0 1 6.307640 7.680228 590.733521
180 0 1 6.007730 7.643642 591.648010
181 0 1 5.659720 7.572089 592.535828
182 0 1 5.212260 7.751664 593.413086
183 0 1 4.795710 7.606413 594.271790
184 0 1 4.271530 7.696318 595.117981
185 0 1 4.079340 7.807749 596.070007
186 0 1 3.901380 7.896938 596.988770
187 0 1 4.105800 7.778427 597.917908
188 0 1 4.267170 7.687654 598.875122
189 0 1 4.488170 7.496121 599.830505
190 0 1 4.700490 7.457450 600.749390
191 0 1 4.771560 7.418181 601.733826
192 0 1 4.937330 7.292275 602.712097
193 0 1 5.030600 7.112943 603.640625
194 0 1 5.373950 6.937390 604.534790
195 0 1 5.801530 6.933210 605.321899
196 0 1 6.009170 6.837550 606.291077
197 0 1 6.487440 6.735860 607.139587
198 0 1 6.975360 6.693610 608.081604
199 0 1 7.270501 6.706310 609.009827
200 0 1 7.877750 6.570360 609.757385
201 0 1 8.281549 6.531160 610.617676
202 0 1 8.724284 6.438810 611.480408
203 0 1 9.257580 6.510810 612.304321
204 0 1 9.386100 6.551060 613.273621
205 0 1 9.215300 6.617230 614.275696
206 0 1 8.853358 6.610840 615.147095
207 0 1 8.663924 6.671210 616.089600
208 0 1 8.066934 6.941780 616.801514
209 0 1 7.372384 7.048577 617.432129
210 0 1 6.796340 7.139644 618.187927
211 0 1 6.418310 7.161022 619.095337
212 0 1 6.161810 7.133120 620.064941
213 0 1 6.594210 6.906950 620.958313
214 0 1 6.812530 6.662640 621.880005
215 0 1 7.234843 6.280160 622.627930
216 0 1 7.851222 5.843200 623.190918
217 0 1 8.411775 5.829410 623.985046
218 0 1 8.926786 5.720260 624.762573
219 0 1 9.268750 5.870210 625.682800
220 0 1 9.391130 6.122180 626.610779
221 0 1 9.598280 6.144930 627.579895
222 0 1 9.600090 5.886550 628.487244
223 0 1 9.827480 5.430400 629.304626
224 0 1 10.101660 4.936350 630.179138
225 0 1 10.300420 4.522860 631.013855
226 0 1 10.348080 3.961220 631.752869
227 0 1 10.322701 3.369890 632.521667
228 0 1 10.162040 2.776800 633.264954
229 0 1 9.848980 2.217250 633.982422
230 0 1 9.254190 1.836470 634.610168
231 0 1 8.629060 1.582770 635.289368
232 0 1 8.143250 1.521850 636.077271
233 0 1 7.580555 1.356240 636.875000
234 0 1 7.237936 1.221650 637.806641
235 0 1 6.669830 1.346350 638.552002
236 0 1 6.465650 1.796960 639.433105
237 0 1 6.394520 2.346570 640.243286
238 0 1 6.507040 2.691660 641.128906
239 0 1 6.480240 2.898880 642.049011
240 0 1 6.275410 2.958260 642.956299
241 0 1 6.229220 3.243740 643.877625
242 0 1 6.681450 3.463240 644.693909
243 0 1 7.231974 3.537150 645.448914
244 0 1 7.893427 3.692080 646.038818
245 0 1 8.504981 3.659410 646.822571
246 0 1 8.930420 3.815460 647.605591
247 0 1 9.161880 3.914940 648.519287
248 0 1 9.299600 4.041910 649.421326
249 0 1 9.469670 4.332100 650.383972
250 0 1 9.569470 4.439320 651.436707
251 0 1 9.472230 4.697830 652.364075
252 0 1 9.593530 4.830340 653.341492
253 0 1 9.686030 4.825810 654.293884
254 0 1 9.631400 4.957280 655.242371
255 0 1 9.591930 5.380140 656.065308
256 0 1 9.386710 5.895690 656.854126
257 0 1 9.397600 6.639360 657.466797
258 0 1 9.119370 6.884440 658.377197
259 0 1 8.709221 7.158426 659.190125
260 0 1 8.395939 7.111690 660.019104
261 0 1 8.116165 7.055219 660.973328
262 0 1 7.966072 6.659920 661.877380
263 0 1 8.162282 6.612380 662.862976
264 0 1 8.400797 6.986040 663.774292
265 0 1 8.816226 7.125221 664.673218
266 0 1 8.964220 7.032483 665.603271
267 0 1 8.964729 6.697950 666.617981
268 0 1 8.631270 6.452360 667.580505
269 0 1 8.372280 6.315300 668.529907
270 0 1 8.305403 6.015460 669.499573
271 0 1 8.435887 5.853470 670.515625
272 0 1 8.701389 5.786860 671.451721
273 0 1 8.923032 5.823240 672.484009
274 0 1 9.308540 5.935970 673.366089
275 0 1 9.548580 6.137310 674.274414
276 0 1 9.466720 6.085190 675.223572
277 0 1 9.094419 6.180710 676.120911
278 0 1 8.962614 6.282170 677.153687
279 0 1 8.777363 6.153100 678.097168
280 0 1 8.493328 6.263150 679.024109
281 0 1 8.314548 6.404400 679.939514
282 0 1 8.092695 6.686070 680.824524
283 0 1 7.772027 7.075909 681.662476
284 0 1 7.362736 7.099645 682.498108
285 0 1 7.015893 6.767320 683.275818
286 0 1 6.520930 6.986180 684.023499
287 0 1 5.899880 7.347600 684.737488
288 0 1 5.455320 7.848381 685.527893
289 0 1 5.204380 8.277543 686.314209
290 0 1 5.015240 9.049640 686.933228
291 0 1 5.159730 9.770080 687.562683
292 0 1 5.295840 10.423120 688.281311
293 0 1 5.469060 11.222010 688.823608
294 0 1 5.680940 11.854560 689.419128
295 0 1 5.880340 12.348200 690.269226
296 0 1 5.856660 13.009109 691.058228
297 0 1 5.815180 13.335730 691.972290
298 0 1 6.040890 13.723440 692.867798
299 0 1 6.367960 14.074409 693.786621
300 0 1 6.581920 14.281469 694.680481
301 0 1 6.605800 14.597099 695.596680
302 0 1 6.320360 14.676880 696.525208
303 0 1 5.858400 14.472401 697.339478
304 0 1 5.562000 14.023890 698.103088
305 0 1 5.537290 13.513180 698.928101
306 0 1 5.572610 13.155800 699.828796
307 0 1 5.647430 12.818810 700.743103
308 0 1 5.584750 12.815380 701.719482
309 0 1 5.596710 12.692050 702.630798
310 0 1 5.863750 12.484090 703.478882
311 0 1 6.282240 12.156630 704.258301
312 0 1 6.580910 12.074530 705.171387
313 0 1 6.923490 11.688340 705.959290
314 0 1 7.305619 11.572350 706.787781
315 0 1 7.626879 11.936510 707.589417
316 0 1 7.575453 12.109680 708.540527
317 0 1 7.616367 12.428289 709.478394
318 0 1 7.756585 12.773570 710.416504
319 0 1 7.604572 13.034770 711.309998
320 0 1 7.604185 12.852070 712.323975
321 0 1 7.564531 12.484440 713.324585
322 0 1 7.607803 12.114520 714.202393
323 0 1 7.757476 11.922480 715.149109
324 0 1 7.835157 11.552790 715.989319
325 0 1 8.041820 11.207090 716.886108
326 0 1 8.216038 10.890079 717.762329
327 0 1 8.042792 10.633860 718.672913
328 0 1 7.805056 10.404270 719.634094
329 0 1 7.770470 10.193650 720.552612
330 0 1 7.508692 10.396220 721.440674
331 0 1 7.631339 10.473680 722.342773
332 0 1 7.669487 10.425760 723.237427
333 0 1 8.105224 10.200270 724.095886
334 0 1 8.587064 9.896500 724.864624
335 0 1 8.932172 9.269070 725.518616
336 0 1 9.302100 8.699587 726.174988
337 0 1 9.627820 8.249729 726.978821
338 0 1 9.675910 7.812155 727.830688
339 0 1 9.796540 7.639573 728.796021
340 0 1 10.003030 7.255059 729.601990
341 0 1 10.365100 6.833280 730.318970
342 0 1 10.630000 6.479210 731.184998
343 0 1 10.789970 5.994470 732.109985
344 0 1 10.623199 5.796220 733.052979
345 0 1 10.407180 5.788400 733.976013
346 0 1 10.189910 5.805780 735.039978
347 0 1 10.162040 5.974330 736.033020
348 0 1 10.268530 6.383570 736.859985
349 0 1 10.274080 6.627820 737.754028
350 0 1 10.370000 6.949470 738.651001
351 0 1 10.850121 7.215598 739.398010
352 0 1 11.014980 7.610034 740.226990
353 0 1 10.957251 8.144683 741.072021
354 0 1 11.030420 8.444960 741.929016
355 0 1 10.896430 8.643992 742.844971
356 0 1 10.648370 8.750302 743.806030
357 0 1 10.504740 8.867294 744.815002
358 0 1 10.454510 8.560016 745.839966
359 0 1 10.342870 8.272092 746.765991
360 0 1 10.020290 7.950380 747.679016
361 0 1 9.613080 7.625103 748.455994
362 0 1 9.072380 7.242445 749.203979
363 0 1 8.642164 6.988650 750.067993
364 0 1 8.378065 6.725710 750.979980
365 0 1 8.278092 6.877990 751.903992
366 0 1 8.079330 7.091057 752.807983
367 0 1 7.599340 7.403532 753.702026
368 0 1 7.033856 7.498749 754.481018
369 0 1 6.614700 7.338064 755.318970
370 0 1 6.378760 7.229087 756.252991
371 0 1 6.109690 7.456361 757.224976
372 0 1 5.805000 7.704416 758.239014
373 0 1 5.754370 7.855019 759.265015
374 0 1 5.632550 8.000025 760.212036
375 0 1 5.343650 8.343882 761.036011
376 0 1 5.121480 8.454456 761.963013
377 0 1 5.124850 8.446363 762.950989
378 0 1 5.218390 8.520775 763.903992
379 0 1 4.986940 8.743253 764.796997
380 0 1 4.858380 9.360620 765.609009
381 0 1 5.142620 9.753270 766.400024
382 0 1 5.651080 9.999500 767.181030
383 0 1 5.962180 10.680970 767.693970
384 0 1 6.234140 11.448850 768.302979
385 0 1 6.943130 11.920740 768.757019
386 0 1 7.577602 12.021880 769.539001
387 0 1 8.178392 11.801840 770.353027
388 0 1 8.732094 11.839800 771.150024
389 0 1 9.111680 12.032090 772.070984
390 0 1 9.652820 12.341050 772.828979
391 0 1 10.153060 12.422140 773.734009
392 0 1 10.389370 12.701580 774.656982
393 0 1 10.649630 12.940269 775.591980
394 0 1 10.804740 12.889390 776.507019
395 0 1 11.179240 12.795200 777.432007
396 0 1 11.329510 12.710540 778.341980
397 0 1 11.317400 12.352810 779.264038
398 0 1 11.433110 11.953330 780.148987
399 0 1 11.575180 11.521960 780.953003
400 0 1 11.769000 11.150660 781.786011
401 0 1 11.918910 10.624790 782.567017
402 0 1 11.961760 9.900990 783.287964
403 0 1 12.366420 9.314740 783.952026
404 0 1 12.854830 8.864717 784.632996
405 0 1 13.122740 8.655483 785.485962
406 0 1 13.080120 8.448361 786.429016
407 0 1 12.861790 8.075970 787.328003
408 0 1 12.922440 7.830721 788.315002
409 0 1 12.901100 7.601175 789.264038
410 0 1 12.717939 7.673873 790.179993
411 0 1 12.635400 7.610383 791.153992
412 0 1 12.543690 7.755882 792.132996
413 0 1 12.569510 8.379300 792.875000
414 0 1 12.593070 8.847024 793.708984
415 0 1 12.604760 9.299160 794.572021
416 0 1 12.788731 9.773640 795.416016
417 0 1 12.778270 10.141950 796.311035
418 0 1 12.582410 10.478390 797.182983
419 0 1 12.341610 10.616210 798.067993
420 0 1 12.194680 10.570130 798.999023
421 0 1 12.184450 10.314060 799.971985
422 0 1 12.310659 9.852200 800.860962
423 0 1 12.435410 9.601870 801.768005
424 0 1 12.584641 9.345070 802.739014
425 0 1 12.705120 9.257890 803.737000
426 0 1 12.460230 8.942913 804.608032
427 0 1 12.294741 8.689125 805.481018
428 0 1 12.383280 8.539844 806.388000
429 0 1 12.366730 8.476428 807.299988
430 0 1 12.274759 8.523408 808.229980
431 0 1 11.985610 8.716581 809.181030
432 0 1 11.648720 9.219410 809.905029
433 0 1 11.366180 9.566850 810.802979
434 0 1 10.857400 9.902770 811.565979
435 0 1 10.492430 10.122250 812.463989
436 0 1 10.039721 10.150170 813.312988
437 0 1 9.721210 10.674570 814.112000
438 0 1 9.182620 11.030220 814.844971
439 0 1 8.899763 11.377640 815.687012
440 0 1 8.569623 11.648900 816.530029
441 0 1 8.485718 11.954360 817.469971
442 0 1 8.374128 12.222610 818.369019
443 0 1 8.121896 12.576120 819.190979
444 0 1 7.897152 12.859540 820.052002
445 0 1 7.768597 12.955070 821.020996
446 0 1 7.261264 13.090640 821.778015
447 0 1 7.147047 13.468740 822.622009
448 0 1 6.896780 13.450880 823.651978
449 0 1 6.669480 13.393740 824.541992
450 0 1 6.308960 13.453060 825.448975
451 0 1 6.150920 13.311810 826.427979
452 0 1 5.865030 13.167040 827.328979
453 0 1 5.510780 13.018200 828.151001
454 0 1 5.153610 12.593950 828.971985
455 0 1 4.740860 12.070220 829.707031
456 0 1 4.275500 11.985510 830.510010
457 0 1 3.854330 11.893209 831.379028
458 0 1 3.400070 12.074520 832.202026
459 0 1 3.047870 12.155001 833.067017
460 0 1 2.831500 12.034870 833.994019
461 0 1 2.884710 11.952330 834.942017
462 0 1 3.429060 11.621759 835.718994
463 0 1 4.025910 11.336900 836.412964
464 0 1 4.938010 11.157980 836.601013
465 0 1 5.847110 10.811590 836.395020
466 0 1 6.729990 10.695630 835.890991
467 0 1 7.382869 10.602810 835.237000
468 0 1 7.943639 10.590970 834.487000
469 0 1 8.220480 10.951520 833.575989
470 0 1 8.542669 11.519800 832.862000
471 0 1 8.917140 12.190229 832.203003
472 0 1 9.286330 12.768520 831.575989
473 0 1 9.906770 13.123520 830.872986
474 0 1 10.156800 13.407010 829.953003
475 0 1 10.523200 13.394840 829.033020
476 0 1 10.765380 13.226030 828.136963
477 0 1 10.972100 13.100050 827.174011
478 0 1 10.962460 12.837490 826.239014
479 0 1 10.704910 12.728540 825.283997
480 0 1 10.828170 12.349380 824.410034
481 0 1 10.775440 11.749701 823.640015
482 0 1 10.400140 11.139009 822.953979
483 0 1 10.145900 10.493850 822.328003
484 0 1 9.791240 9.884270 821.640991
485 0 1 9.801300 9.081310 821.068970
486 0 1 9.768300 8.405786 820.286987
487 0 1 9.619900 7.578345 819.726013
488 0 1 9.529670 6.898960 819.112000
489 0 1 9.669950 6.234670 818.398010
490 0 1 9.343140 6.068290 817.520996
491 0 1 8.443032 5.832300 817.172974
492 0 1 7.725307 5.734520 816.606995
493 0 1 7.277528 5.595180 815.815002
494 0 1 7.090037 5.421940 814.922974
495 0 1 7.026638 5.730780 813.943970
496 0 1 6.731500 5.817770 813.065002
497 0 1 6.204280 6.000750 812.257996
498 0 1 5.756850 6.104900 811.438965
499 0 1 5.636790 6.167940 810.471008
500 0 1 5.621060 6.022870 809.495972
501 0 1 5.544740 5.987920 808.520020
502 0 1 5.676300 6.097590 807.547974
503 0 1 5.853050 6.460370 806.638000
504 0 1 6.228890 6.773850 805.799988
505 0 1 6.515900 7.500937 805.195984
506 0 1 6.728830 8.190841 804.567017
507 0 1 6.732860 8.905917 803.917969
508 0 1 6.486920 9.535610 803.235962
509 0 1 6.127080 10.191420 802.575989
510 0 1 5.797220 10.764140 801.856995
511 0 1 5.803020 11.365200 801.070007
512 0 1 5.866920 12.091330 800.443970
513 0 1 6.202050 12.734800 799.731995
514 0 1 6.464260 13.215460 798.997009
515 0 1 6.827730 13.699750 798.166992
516 0 1 7.299164 13.851840 797.315979
517 0 1 7.608240 14.080231 796.464966
518 0 1 7.819682 14.053540 795.567017
519 0 1 8.168159 13.883390 794.653015
520 0 1 8.353667 13.719370 793.716003
521 0 1 8.637062 13.566000 792.759033
522 0 1 9.074370 13.284901 791.914978
523 0 1 9.490320 12.939489 791.104004
524 0 1 9.811430 12.431340 790.382996
525 0 1 10.305380 11.988729 789.636963
526 0 1 10.957200 11.708270 788.938965
527 0 1 11.480590 11.404750 788.210022
528 0 1 12.017150 11.145460 787.455994
529 0 1 12.665440 10.788700 786.745972
530 0 1 13.259621 10.398740 786.083984
531 0 1 13.739700 10.307560 785.299011
532 0 1 14.048370 10.024360 784.464966
533 0 1 14.229120 10.114170 783.552979
534 0 1 14.192090 9.893170 782.627991
535 0 1 14.270110 9.662930 781.604004
536 0 1 14.228889 9.260770 780.755981
537 0 1 13.973050 9.053090 779.839966
538 0 1 13.804689 9.242730 778.905029
539 0 1 13.675570 9.489190 777.929993
540 0 1 13.428181 9.734390 777.039978
541 0 1 12.968380 10.376600 776.510986
542 0 1 12.280320 10.831380 776.109009
543 0 1 11.611310 11.032770 775.542969
544 0 1 10.839070 11.241990 775.035034
545 0 1 10.048990 11.088390 774.431030
546 0 1 9.424930 10.701520 773.708984
547 0 1 8.847026 10.061490 773.363037
548 0 1 8.263819 9.346710 773.135986
549 0 1 7.611661 8.664752 772.865967
550 0 1 7.095084 7.933993 772.559998
551 0 1 6.589500 7.203020 772.169983
552 0 1 6.116050 6.674190 771.551025
553 0 1 5.767940 6.083320 770.872986
554 0 1 5.470800 5.822630 770.010010
555 0 1 5.071240 5.688230 769.125977
556 0 1 4.690850 5.376920 768.312012
557 0 1 4.351290 5.474850 767.466980
558 0 1 4.277020 5.492850 766.476990
559 0 1 4.799910 5.406230 765.671997
560 0 1 5.070930 5.548810 764.744995
561 0 1 5.519350 5.566680 763.893005
562 0 1 6.062950 5.655140 763.096985
563 0 1 6.759720 5.820080 762.395020
564 0 1 7.599749 6.106680 761.937988
565 0 1 8.358735 6.207830 761.344971
566 0 1 9.144570 6.516490 760.828979
567 0 1 9.840900 6.496910 760.119019
568 0 1 10.535290 6.663740 759.492981
569 0 1 11.247660 7.191422 758.955994
570 0 1 11.650209 7.627102 758.235962
571 0 1 12.134840 7.907008 757.460999
572 0 1 12.343210 8.178067 756.578003
573 0 1 12.741341 8.439138 755.770020
574 0 1 13.038589 8.909302 754.911987
575 0 1 12.831039 9.250790 754.035034
576 0 1 12.852150 9.473550 753.146973
577 0 1 12.546970 9.645420 752.164001
578 0 1 12.207750 9.676750 751.291992
579 0 1 11.989890 9.663480 750.338989
580 0 1 11.911420 9.701210 749.388977
581 0 1 11.662680 9.695280 748.502014
582 0 1 11.152140 10.003930 747.726013
583 0 1 10.841630 10.297910 746.843018
584 0 1 10.502390 10.453540 745.976013
585 0 1 10.057220 10.799520 745.130981
586 0 1 9.495040 11.168830 744.487976
587 0 1 9.041880 11.509769 743.747986
588 0 1 8.765689 11.746690 742.804016
589 0 1 8.392155 11.920230 741.931030
590 0 1 7.934604 12.171630 741.103027
591 0 1 7.607320 12.210569 740.219971
592 0 1 7.083642 11.982420 739.362976
593 0 1 6.741330 11.899549 738.489990
594 0 1 6.228190 11.664710 737.677002
595 0 1 5.664240 11.316910 736.913025
596 0 1 5.218720 10.851191 736.184998
597 0 1 5.057850 10.172810 735.554993
598 0 1 5.062610 9.704790 734.664001
599 0 1 5.304990 9.411110 733.781006
600 0 1 5.726480 9.248200 732.862976
601 0 1 5.940910 9.214430 731.960022
602 0 1 6.051340 9.105250 731.044983
603 0 1 6.452670 8.918627 730.158997
604 0 1 6.830120 8.756202 729.223999
605 0 1 6.900820 8.502272 728.283325
606 0 1 6.825980 7.873458 727.564331
607 0 1 6.570290 7.268620 726.788818
608 0 1 6.464390 6.916200 725.909607
609 0 1 6.310740 6.587090 724.959412
610 0 1 6.088560 6.279050 724.088074
611 0 1 5.955920 6.250290 723.153809
612 0 1 6.136210 6.361370 722.185303
613 0 1 6.045390 6.442190 721.214111
614 0 1 5.879040 6.426650 720.218384
615 0 1 5.743950 6.553580 719.247375
616 0 1 5.532640 6.510380 718.309692
617 0 1 5.480250 6.452660 717.383179
618 0 1 5.521820 6.174080 716.454285
619 0 1 5.703350 6.160640 715.518005
620 0 1 6.226080 6.066830 714.778687
621 0 1 6.609940 5.913780 713.939575
622 0 1 6.761840 5.774450 712.966980
623 0 1 6.972760 5.569680 712.070618
624 0 1 7.280312 5.568740 711.149475
625 0 1 7.288792 5.518440 710.186584
626 0 1 7.155950 5.221890 709.330078
627 0 1 7.313077 4.908190 708.348206
628 0 1 7.335196 4.963660 707.419067
629 0 1 7.440659 5.485970 706.542480
630 0 1 7.588080 5.866700 705.676392
631 0 1 7.724266 6.162610 704.740967
632 0 1 7.639464 6.305940 703.814697
633 0 1 7.745371 6.032090 702.907776
634 0 1 7.716308 5.532540 702.053223
635 0 1 7.425081 5.113060 701.246582
636 0 1 7.031609 4.750200 700.427490
637 0 1 6.731730 4.503040 699.523682
638 0 1 6.443380 4.373660 698.609375
639 0 1 5.857690 4.394510 697.902283
640 0 1 5.298400 4.591870 697.112610
641 0 1 4.734420 4.863520 696.393921
642 0 1 4.169110 4.832930 695.594910
643 0 1 3.528530 5.157330 694.891724
644 0 1 3.097390 5.685460 694.198425
645 0 1 2.503140 6.277910 693.551208
646 0 1 2.033000 6.552990 692.764221
647 0 1 1.640150 6.957710 691.965881
648 0 1 1.559340 7.408605 691.052979
649 0 1 1.475420 7.982198 690.239807
650 0 1 1.642600 8.086408 689.283386
651 0 1 1.603990 8.090395 688.334778
652 0 1 1.596440 8.251333 687.413879
653 0 1 1.480660 8.557133 686.479004
654 0 1 1.613850 8.915350 685.575500
655 0 1 1.988610 9.138710 684.743530
656 0 1 2.376760 9.399810 683.897705
657 0 1 2.837590 9.801460 683.127380
658 0 1 3.477310 10.016530 682.395508
659 0 1 4.109620 10.417390 681.729675
660 0 1 4.823400 10.512730 681.032288
661 0 1 5.561030 10.396790 680.468506
662 0 1 6.266070 10.240210 679.834412
663 0 1 6.710640 10.065500 679.010193
664 0 1 7.179283 10.059090 678.156921
665 0 1 7.495059 9.933390 677.232727
666 0 1 8.085484 9.882170 676.510376
667 0 1 8.410648 9.879660 675.583191
668 0 1 8.889147 9.756880 674.729187
669 0 1 9.388530 9.769420 673.826294
670 0 1 9.854970 9.913440 673.000305
671 0 1 10.061520 9.897610 672.061279
672 0 1 10.389040 9.899960 671.156311
673 0 1 10.529740 10.154990 670.241882
674 0 1 10.402660 10.486410 669.337708
675 0 1 10.071080 10.897630 668.522827
676 0 1 9.659620 11.264090 667.726013
677 0 1 9.084700 11.372360 666.946716
678 0 1 8.497957 11.484090 666.211975
679 0 1 8.113618 11.639790 665.339111
680 0 1 8.002115 11.920660 664.450989
681 0 1 7.886045 12.328590 663.619324
682 0 1 7.974645 12.744949 662.708984
683 0 1 8.014046 13.337009 661.977905
684 0 1 7.926464 13.782249 661.149475
685 0 1 7.748874 14.086840 660.217285
686 0 1 8.011261 14.302919 659.270203
687 0 1 8.118852 14.248449 658.380920
688 0 1 8.322510 14.386990 657.418518
689 0 1 8.270747 14.174070 656.454224
690 0 1 8.089087 13.789989 655.525024
691 0 1 8.159059 13.730460 654.604004
692 0 1 8.531298 13.509150 653.718201
693 0 1 8.903681 13.298260 652.907715
694 0 1 9.316600 13.156490 652.091309
695 0 1 9.888050 12.929900 651.315796
696 0 1 10.570790 12.874670 650.649292
697 0 1 11.044360 12.652580 649.737000
698 0 1 11.351920 12.355460 648.837402
699 0 1 11.843930 12.070890 648.021179
700 0 1 12.259130 11.807859 647.185425
701 0 1 12.629190 11.578279 646.336182
702 0 1 13.026831 11.252990 645.523010
703 0 1 13.477350 10.766330 644.900269
704 0 1 13.975470 10.379420 644.181091
705 0 1 14.345430 9.924110 643.396973
706 0 1 14.404460 9.292800 642.669128
707 0 1 14.544340 8.846963 641.818787
708 0 1 14.600260 8.390483 640.907776
709 0 1 14.395000 8.137725 639.983276
710 0 1 14.219220 7.858827 638.986206
711 0 1 13.925819 7.586174 638.135315
712 0 1 13.868071 7.421197 637.137573
713 0 1 14.028470 7.138291 636.191956
714 0 1 14.347549 6.936960 635.304443
715 0 1 14.514220 6.782680 634.387451
716 0 1 14.410440 6.516100 633.482300
717 0 1 14.189850 6.659390 632.557678
718 0 1 13.702480 6.793340 631.774475
719 0 1 13.409170 7.031927 630.795715
720 0 1 13.100070 7.373741 629.910156
721 0 1 13.231200 7.836990 629.014099
722 0 1 13.058781 8.159328 628.129700
723 0 1 12.886089 8.401886 627.205811
724 0 1 12.457940 8.449586 626.371765
725 0 1 11.811900 8.467408 625.756714
726 0 1 11.077490 8.473505 625.129089
727 0 1 10.468400 8.544834 624.380432
728 0 1 10.040180 8.666473 623.495544
729 0 1 10.037760 8.882025 622.546509
730 0 1 10.096750 9.287930 621.692444
731 0 1 10.294720 9.432750 620.771973
732 0 1 10.516120 9.635220 619.824829
733 0 1 11.143120 9.795520 619.001343
734 0 1 11.806940 9.695860 618.292297
735 0 1 12.383410 9.558220 617.508118
736 0 1 12.863211 9.195300 616.723572
737 0 1 13.369730 9.003901 615.930481
738 0 1 13.750521 8.816449 615.105774
739 0 1 14.084590 8.475825 614.271118
740 0 1 14.447860 8.025265 613.490479
741 0 1 14.683880 7.492081 612.760071
742 0 1 14.624990 6.849860 612.027283
743 0 1 14.265380 6.341730 611.362000
744 0 1 13.752490 5.771440 610.732910
745 0 1 13.529990 5.374110 609.946228
746 0 1 13.278080 5.010460 609.036377
747 0 1 13.337811 4.663660 608.114929
748 0 1 13.182150 4.543500 607.170227
749 0 1 12.751400 4.356820 606.333374
750 0 1 12.373500 4.210460 605.438477
751 0 1 12.164610 4.110680 604.507507
752 0 1 11.926430 4.070660 603.534424
753 0 1 11.834420 4.070730 602.538513
754 0 1 11.522511 3.809370 601.677124
755 0 1 11.265190 3.436360 600.839478
756 0 1 10.726160 3.297650 600.025024
757 0 1 10.145309 3.018770 599.306824
758 0 1 9.437300 2.772850 598.700195
759 0 1 8.797690 2.381100 598.007324
760 0 1 8.070315 2.174600 597.390198
761 0 1 7.511120 1.995960 596.676819
762 0 1 7.081083 1.925040 595.819397
763 0 1 6.631910 1.859900 594.975220
764 0 1 6.195050 2.222970 594.185913
765 0 1 5.824510 2.531190 593.426025
766 0 1 5.505270 3.049260 592.699890
767 0 1 5.299430 3.801020 592.178223
768 0 1 5.317280 4.712890 591.883301
769 0 1 5.208140 5.551930 591.476501
770 0 1 5.004030 6.449100 591.102112
771 0 1 4.946960 7.343907 590.777527
772 0 1 5.128160 8.147783 590.160400
773 0 1 5.351850 8.863431 589.478088
774 0 1 5.350430 9.363120 588.617981
775 0 1 5.462440 9.627490 587.712585
776 0 1 5.476080 9.659660 586.777893
777 0 1 5.726690 9.722640 585.779907
778 0 1 5.896270 9.963240 584.838501
779 0 1 5.782350 10.118010 583.878418
780 0 1 5.800860 10.186750 582.889404
781 0 1 5.785170 10.264730 581.971008
782 0 1 6.144190 10.558880 581.145691
783 0 1 6.397380 10.806330 580.245728
784 0 1 6.407880 10.971230 579.294922
785 0 1 6.383770 11.186880 578.330811
786 0 1 6.224920 11.306250 577.415527
787 0 1 6.386830 11.738320 576.579285
788 0 1 6.321550 12.187040 575.731018
789 0 1 6.250280 12.611589 574.811707
790 0 1 6.241140 13.003670 573.948792