LAMMPS data file via MDAnalysis

        1000  atoms
        1000  bonds
        1000  angles
           0  dihedrals
           0  impropers

           1  atom types
           1  bond types
           1  angle types
           0  dihedral types
           0  improper types

0.000000 16.000000 xlo xhi
0.000000 16.000000 ylo yhi
0.000000 1257.000000 zlo zhi


Masses

1 1.000000

Atoms

1 0 1 3.646930 4.235630 450.128998
2 0 1 3.912030 3.813530 450.924988
3 0 1 4.377210 3.604140 451.703003
4 0 1 4.917010 3.553690 452.503998
5 0 1 5.306240 3.658260 453.421021
6 0 1 5.718920 3.880630 454.283020
7 0 1 6.094950 3.915770 455.223999
8 0 1 6.060280 4.043270 456.158020
9 0 1 6.100600 4.223330 457.121002
10 0 1 6.345940 4.443280 458.057983
11 0 1 6.557230 4.477900 459.015991
12 0 1 6.915450 4.602520 459.893005
13 0 1 7.206816 4.407060 460.875000
14 0 1 7.579476 4.333030 461.789978
15 0 1 8.031505 4.026820 462.576996
16 0 1 8.883472 3.991600 463.031006
17 0 1 9.825790 4.035680 463.173004
18 0 1 10.651680 4.256400 463.712006
19 0 1 11.272160 4.613030 464.332001
20 0 1 11.713620 4.811920 465.161987
21 0 1 11.990150 5.177310 466.010986
22 0 1 12.294340 5.652850 466.850006
23 0 1 12.543280 5.963840 467.746002
24 0 1 12.749070 6.418840 468.635010
25 0 1 12.654890 6.775250 469.548004
26 0 1 12.502180 6.952060 470.470001
27 0 1 12.516991 7.139582 471.425995
28 0 1 12.556660 7.286768 472.391998
29 0 1 12.420480 7.346524 473.351013
30 0 1 12.047440 7.657644 474.214996
31 0 1 11.933450 7.761082 475.182983
32 0 1 11.708850 7.681308 476.122009
33 0 1 11.804790 7.775804 477.085999
34 0 1 11.435650 7.664274 477.971985
35 0 1 11.025230 7.526916 478.799988
36 0 1 10.924780 6.944360 479.588013
37 0 1 10.953110 6.468000 480.345001
38 0 1 11.152990 6.034050 481.210999
39 0 1 11.273750 5.841590 482.130005
40 0 1 11.181280 5.530610 483.015015
41 0 1 11.183001 5.070940 483.820007
42 0 1 11.062920 4.823150 484.738007
43 0 1 11.102090 4.391420 485.593018
44 0 1 11.048389 4.124740 486.539001
45 0 1 10.771430 3.465900 487.348999
46 0 1 10.443950 3.037410 488.177002
47 0 1 9.944480 2.721950 488.932983
48 0 1 9.518100 2.698820 489.778992
49 0 1 9.336290 3.004900 490.669983
50 0 1 9.306190 3.287030 491.565979
51 0 1 9.221390 3.631260 492.455017
52 0 1 9.216320 4.042180 493.338989
53 0 1 9.398180 4.262940 494.281982
54 0 1 9.723900 4.576030 495.188995
55 0 1 10.027360 4.781450 496.078003
56 0 1 10.355220 4.925070 496.989990
57 0 1 10.716220 4.958020 497.924011
58 0 1 10.694370 5.152320 498.872009
59 0 1 11.172140 5.253450 499.700989
60 0 1 11.544900 5.523180 500.528992
61 0 1 11.976680 5.720000 501.404999
62 0 1 12.233459 5.561510 502.341003
63 0 1 12.650209 5.315340 503.196991
64 0 1 13.025450 5.108990 504.042999
65 0 1 13.120951 4.857690 504.964996
66 0 1 13.076480 4.658840 505.911987
67 0 1 13.118549 4.398230 506.846008
68 0 1 12.977261 4.208540 507.738007
69 0 1 12.730460 3.916860 508.656982
70 0 1 12.247210 3.603300 509.403992
71 0 1 11.644000 3.392130 510.210999
72 0 1 11.135700 3.274210 511.102997
73 0 1 10.648410 3.411300 511.936005
74 0 1 10.294690 3.879320 512.682983
75 0 1 9.771140 4.175420 513.452026
76 0 1 9.294760 4.356510 514.205994
77 0 1 8.642765 4.423100 514.865967
78 0 1 8.190454 4.775030 515.664001
79 0 1 7.821033 5.104040 516.495972
80 0 1 7.353050 5.455590 517.257996
81 0 1 6.935330 6.029440 517.924011
82 0 1 6.439950 6.663530 518.390991
83 0 1 6.081300 7.297537 519.049988
84 0 1 5.882140 8.061709 519.710022
85 0 1 6.037160 8.704165 520.375000
86 0 1 6.224820 9.233590 521.213989
87 0 1 6.366290 9.822590 521.999023
88 0 1 6.561180 10.445480 522.742004
89 0 1 6.967030 11.008471 523.391968
90 0 1 7.384431 11.565470 524.009033
91 0 1 7.920381 11.836790 524.754028
92 0 1 8.524587 11.831770 525.490967
93 0 1 9.262470 11.890270 526.125000
94 0 1 10.057800 12.005780 526.685974
95 0 1 10.749870 11.926310 527.322021
96 0 1 11.581300 11.832970 527.836975
97 0 1 12.305850 11.624890 528.514893
98 0 1 12.626760 11.444690 529.393982
99 0 1 13.043750 11.261450 530.294800
100 0 1 13.380230 10.803520 531.131409
101 0 1 13.514830 10.179010 531.831482
102 0 1 13.425810 9.538820 532.581787
103 0 1 13.134150 9.173630 533.388306
104 0 1 12.840460 8.851676 534.343994
105 0 1 12.780830 8.174052 535.054810
106 0 1 12.891439 7.586080 535.817078
107 0 1 12.903820 6.777050 536.507690
108 0 1 13.220921 6.039200 537.063110
109 0 1 13.400351 5.429130 537.782776
110 0 1 13.323430 5.082670 538.703308
111 0 1 12.758801 4.640850 539.413391
112 0 1 12.011780 4.191320 539.827026
113 0 1 11.415010 3.523130 540.181824
114 0 1 10.631710 3.038230 540.456726
115 0 1 9.893430 2.503980 540.667725
116 0 1 9.098840 2.257720 541.143433
117 0 1 8.416963 2.080780 541.774109
118 0 1 7.919368 2.062200 542.623291
119 0 1 7.596375 2.321130 543.451111
120 0 1 7.512104 2.707170 544.351196
121 0 1 7.503197 2.982120 545.310425
122 0 1 7.627574 3.238390 546.218323
123 0 1 7.584549 3.480000 547.210205
124 0 1 7.363532 3.785540 548.177002
125 0 1 6.957700 3.967870 548.967407
126 0 1 6.383740 4.423830 549.624207
127 0 1 5.739100 4.808700 550.298828
128 0 1 5.149150 5.510280 550.748108
129 0 1 4.620860 6.085860 551.260132
130 0 1 4.110400 6.391600 552.035583
131 0 1 3.667880 6.648610 552.865295
132 0 1 3.041640 6.846260 553.602173
133 0 1 2.849680 7.201028 554.509888
134 0 1 2.650740 7.237463 555.424072
135 0 1 2.402460 7.426047 556.356018
136 0 1 2.141120 7.318564 557.305481
137 0 1 2.243820 7.058538 558.234619
138 0 1 2.514280 7.183200 559.150696
139 0 1 2.784770 7.476259 560.078369
140 0 1 3.274710 7.729890 560.889893
141 0 1 3.741360 8.011753 561.713196
142 0 1 3.964780 8.237875 562.600708
143 0 1 4.331860 8.412234 563.433105
144 0 1 4.780280 8.708429 564.218201
145 0 1 5.147240 8.799869 565.089417
146 0 1 5.231340 8.947672 566.031128
147 0 1 5.330560 9.351180 566.898071
148 0 1 5.506350 9.829960 567.760376
149 0 1 5.838030 10.045750 568.547913
150 0 1 6.293530 10.226110 569.371399
151 0 1 6.624010 10.441669 570.258789
152 0 1 6.709130 10.415530 571.208191
153 0 1 6.914690 10.364820 572.094482
154 0 1 7.069524 10.392560 573.056702
155 0 1 7.344476 10.467430 573.948120
156 0 1 7.509720 10.695490 574.853577
157 0 1 7.562945 10.637740 575.824402
158 0 1 7.974390 10.511090 576.711670
159 0 1 8.281093 10.226070 577.576904
160 0 1 8.649075 9.927450 578.410278
161 0 1 8.591301 9.730930 579.330505
162 0 1 8.483808 9.327790 580.283691
163 0 1 8.635044 9.100040 581.236389
164 0 1 8.751325 8.871345 582.196472
165 0 1 8.681784 8.706898 583.149902
166 0 1 8.682633 8.592161 584.178894
167 0 1 8.758371 8.521301 585.167419
168 0 1 8.823019 8.547721 586.174011
169 0 1 8.710300 8.569944 587.173401
170 0 1 8.669279 8.620876 588.089172
171 0 1 8.317176 8.761521 588.913025
172 0 1 7.977083 8.824768 589.852173
173 0 1 7.670019 8.852149 590.796387
174 0 1 7.133108 8.856098 591.557007
175 0 1 6.763600 8.980253 592.446411
176 0 1 6.429260 8.949008 593.354797
177 0 1 5.959940 8.788022 594.212524
178 0 1 5.998370 8.788382 595.133118
179 0 1 5.773040 8.513276 596.041504
180 0 1 5.831090 8.024598 596.832031
181 0 1 5.922470 7.607259 597.621399
182 0 1 6.130700 7.344740 598.504578
183 0 1 6.215140 7.275491 599.468323
184 0 1 6.112650 7.201683 600.430420
185 0 1 6.074510 7.107584 601.417480
186 0 1 5.766080 7.186806 602.316711
187 0 1 5.575060 6.991860 603.232422
188 0 1 5.392010 6.683410 604.209717
189 0 1 5.112960 6.509170 605.069885
190 0 1 4.774260 6.401300 605.945374
191 0 1 4.313050 6.245860 606.824280
192 0 1 4.042130 6.111880 607.703491
193 0 1 4.160610 6.090860 608.640503
194 0 1 4.368690 6.314140 609.559998
195 0 1 4.556550 6.699700 610.385620
196 0 1 4.846260 7.329540 611.096375
197 0 1 5.266630 7.798356 611.805176
198 0 1 5.375770 8.132851 612.742493
199 0 1 5.379440 8.363796 613.639893
200 0 1 5.555630 8.776182 614.516479
201 0 1 6.206510 8.814855 615.330627
202 0 1 6.694350 9.063550 616.085571
203 0 1 7.192391 9.432890 616.744202
204 0 1 7.187182 9.947690 617.531921
205 0 1 7.302765 10.230761 618.439880
206 0 1 7.442486 10.460660 619.392395
207 0 1 7.232440 10.553470 620.306641
208 0 1 6.917540 10.813990 621.181946
209 0 1 6.566550 10.790910 622.112793
210 0 1 6.407070 10.979730 623.035950
211 0 1 6.245550 11.250780 624.007568
212 0 1 6.068990 11.131780 625.014465
213 0 1 5.859900 11.446830 625.913757
214 0 1 5.796850 11.931720 626.659058
215 0 1 5.502910 12.339849 627.516174
216 0 1 5.331510 12.462580 628.456970
217 0 1 5.271170 12.525761 629.356689
218 0 1 5.457950 12.549760 630.314697
219 0 1 5.745950 12.622419 631.329956
220 0 1 5.888420 12.654530 632.315735
221 0 1 5.876630 12.857830 633.291138
222 0 1 5.905300 13.050620 634.243286
223 0 1 5.816680 13.280320 635.171753
224 0 1 5.960980 13.304040 636.125488
225 0 1 5.857310 13.517780 637.044739
226 0 1 6.065960 13.435830 637.960693
227 0 1 6.129210 13.440451 638.940796
228 0 1 6.231320 13.415480 639.895874
229 0 1 6.810380 13.386499 640.640076
230 0 1 7.114991 13.343560 641.549072
231 0 1 7.239393 13.213301 642.534485
232 0 1 7.273086 12.987690 643.453125
233 0 1 7.057102 12.449921 644.245422
234 0 1 6.750130 12.060249 645.091675
235 0 1 6.301830 11.937880 645.911499
236 0 1 6.111340 11.579450 646.779480
237 0 1 6.000710 11.349770 647.701782
238 0 1 6.023510 11.310801 648.695618
239 0 1 5.819860 11.071950 649.637573
240 0 1 5.809330 10.894740 650.615173
241 0 1 5.710480 10.614420 651.531494
242 0 1 5.409590 10.749790 652.487183
243 0 1 4.980600 11.018720 653.300415
244 0 1 4.566280 11.095100 654.187073
245 0 1 4.235360 11.119350 655.145020
246 0 1 3.991650 11.022990 656.062073
247 0 1 3.808610 10.741631 656.965088
248 0 1 3.864520 10.532550 657.982605
249 0 1 3.689950 10.050390 658.771606
250 0 1 3.427670 9.540720 659.505371
251 0 1 3.087600 9.177920 660.321106
252 0 1 2.755940 9.147220 661.227417
253 0 1 2.607470 9.224650 662.187378
254 0 1 2.542410 9.147330 663.184998
255 0 1 2.702880 9.040040 664.143372
256 0 1 2.955860 8.904842 665.063293
257 0 1 3.031440 8.815692 665.957031
258 0 1 3.009410 8.588605 666.829224
259 0 1 3.178070 8.262308 667.669617
260 0 1 3.213770 7.878564 668.599304
261 0 1 3.328320 7.670628 669.498718
262 0 1 3.371770 7.419589 670.417419
263 0 1 3.237860 6.858320 671.175903
264 0 1 2.829340 6.260060 671.796326
265 0 1 2.873880 5.463410 672.388428
266 0 1 3.091190 4.696750 672.952209
267 0 1 3.425090 4.189370 673.682190
268 0 1 3.514490 3.834430 674.568176
269 0 1 3.474030 3.637030 675.479614
270 0 1 3.345610 3.547710 676.458191
271 0 1 3.420870 3.400070 677.379517
272 0 1 3.655810 3.273030 678.317993
273 0 1 3.892510 3.234200 679.254395
274 0 1 4.107440 3.278900 680.204895
275 0 1 4.491790 3.273850 681.103027
276 0 1 4.925430 3.304950 681.980286
277 0 1 5.137860 3.532680 683.012207
278 0 1 5.373970 3.794390 683.873779
279 0 1 5.762140 4.121990 684.731873
280 0 1 6.322800 4.090170 685.561584
281 0 1 6.843280 3.980350 686.385193
282 0 1 7.332728 3.875130 687.261902
283 0 1 7.360685 3.935310 688.252991
284 0 1 7.312027 4.151280 689.244202
285 0 1 7.400009 4.170700 690.167480
286 0 1 7.215051 4.090210 691.157898
287 0 1 7.127200 4.099410 692.103271
288 0 1 7.200479 3.876110 693.002319
289 0 1 7.278406 3.602870 693.958313
290 0 1 7.544561 3.256870 694.782593
291 0 1 7.659597 3.017990 695.699585
292 0 1 7.935511 2.898070 696.580811
293 0 1 7.959585 2.790360 697.574280
294 0 1 7.951550 2.762440 698.505127
295 0 1 8.181366 2.574990 699.408020
296 0 1 8.576288 2.559590 700.275513
297 0 1 8.751154 2.568990 701.243713
298 0 1 9.021370 2.557700 702.159668
299 0 1 9.168690 2.667310 703.117676
300 0 1 9.546530 2.684030 703.995178
301 0 1 9.687730 2.773040 704.965210
302 0 1 9.690950 2.916060 705.923523
303 0 1 9.497330 3.393500 706.675781
304 0 1 9.421450 3.641120 707.590576
305 0 1 9.132900 4.023930 708.431519
306 0 1 9.001260 4.492650 709.260986
307 0 1 9.086440 5.036600 710.013489
308 0 1 8.978946 5.669570 710.761902
309 0 1 8.996548 6.251850 711.437866
310 0 1 9.045010 6.716670 712.284180
311 0 1 8.964944 7.121817 713.129395
312 0 1 8.868510 7.606085 714.009094
313 0 1 8.417309 8.105151 714.715210
314 0 1 8.144897 8.696777 715.469116
315 0 1 7.838203 9.047880 716.359497
316 0 1 7.706610 9.330030 717.281921
317 0 1 7.444310 9.627580 718.144531
318 0 1 7.207260 9.685620 719.087585
319 0 1 7.246006 9.624300 720.013611
320 0 1 6.978270 9.720760 720.966431
321 0 1 6.512340 10.059490 721.746216
322 0 1 6.270800 10.528370 722.576294
323 0 1 5.980040 10.590350 723.478699
324 0 1 5.878620 10.783680 724.379883
325 0 1 5.591610 11.217920 725.239197
326 0 1 5.517090 11.340040 726.167175
327 0 1 5.628920 11.527821 727.082886
328 0 1 5.719720 11.706220 728.005493
329 0 1 5.601880 12.109400 728.851013
330 0 1 5.347350 12.348920 729.745972
331 0 1 4.914410 12.528379 730.660034
332 0 1 4.723980 12.684031 731.591980
333 0 1 5.067960 12.700930 732.490967
334 0 1 5.444850 12.515160 733.353027
335 0 1 5.793910 12.778379 734.221985
336 0 1 5.863930 12.892099 735.236023
337 0 1 6.136580 12.770130 736.148010
338 0 1 6.478860 12.582880 737.060974
339 0 1 6.608990 12.543921 737.984009
340 0 1 6.735770 12.578580 738.940002
341 0 1 6.901710 12.693190 739.835999
342 0 1 7.042779 12.568350 740.781006
343 0 1 7.167560 12.298930 741.742004
344 0 1 7.347114 11.756290 742.471985
345 0 1 7.696129 11.649640 743.335022
346 0 1 7.860168 11.627040 744.315002
347 0 1 7.689819 11.448960 745.255981
348 0 1 7.285889 11.068710 746.047974
349 0 1 6.792750 10.736280 746.799988
350 0 1 6.466750 10.319350 747.679016
351 0 1 6.189980 10.007890 748.542969
352 0 1 5.794630 9.929170 749.396973
353 0 1 5.433990 10.018380 750.271973
354 0 1 5.194930 10.252650 751.151978
355 0 1 4.953730 10.360010 752.096008
356 0 1 4.869340 10.181310 753.112976
357 0 1 4.737790 9.660620 753.958008
358 0 1 4.640330 9.044090 754.754028
359 0 1 4.502650 9.085820 755.661011
360 0 1 4.763340 8.710116 756.536987
361 0 1 4.904540 8.408472 757.450989
362 0 1 4.883150 8.049687 758.377014
363 0 1 4.991120 7.663795 759.260986
364 0 1 5.060220 7.276718 760.181030
365 0 1 5.136150 6.973390 761.085999
366 0 1 5.020640 6.707570 762.028992
367 0 1 4.821250 6.619680 762.937988
368 0 1 4.746620 6.143360 763.853027
369 0 1 4.649230 5.833020 764.760986
370 0 1 4.619440 5.562600 765.734985
371 0 1 4.911440 5.406130 766.729980
372 0 1 4.817640 4.875180 767.578979
373 0 1 4.552360 4.951850 768.466980
374 0 1 4.535740 5.129700 769.434021
375 0 1 4.504500 5.113080 770.388000
376 0 1 4.556290 4.897550 771.353027
377 0 1 4.235770 4.801500 772.273987
378 0 1 3.586600 4.723720 772.992981
379 0 1 3.051990 4.805470 773.839966
380 0 1 2.527520 4.938440 774.587036
381 0 1 2.247380 5.276850 775.442017
382 0 1 1.780070 5.805930 776.129028
383 0 1 1.378230 6.155200 776.856995
384 0 1 1.320830 6.624530 777.780029
385 0 1 1.462740 6.939170 778.662964
386 0 1 1.851020 7.294337 779.458008
387 0 1 2.020880 7.703469 780.362000
388 0 1 2.079910 8.130698 781.235962
389 0 1 2.116630 8.917713 781.747986
390 0 1 2.094350 9.429890 782.596985
391 0 1 2.029920 9.692980 783.567993
392 0 1 1.974020 10.004360 784.473022
393 0 1 2.333230 9.802710 785.382996
394 0 1 2.939340 9.764870 786.226013
395 0 1 3.628920 9.688580 786.905029
396 0 1 4.326580 9.785390 787.544983
397 0 1 4.556580 9.455490 788.401001
398 0 1 4.873100 9.166290 789.304993
399 0 1 4.768540 8.902351 790.268982
400 0 1 4.556930 8.685649 791.169983
401 0 1 4.426090 8.333383 792.119019
402 0 1 4.209190 8.032174 793.056030
403 0 1 3.946550 7.900434 794.020996
404 0 1 3.905850 7.521656 794.890991
405 0 1 3.728230 7.229048 795.921021
406 0 1 3.783560 6.731180 796.686035
407 0 1 4.172830 6.052820 797.278992
408 0 1 4.063950 5.492290 798.127014
409 0 1 3.961510 4.833410 798.851990
410 0 1 3.708930 4.290440 799.653015
411 0 1 3.616450 4.134410 800.636963
412 0 1 3.799210 4.349570 801.530029
413 0 1 4.158810 4.871450 802.219971
414 0 1 4.325080 5.371590 802.976990
415 0 1 4.747300 5.855590 803.747986
416 0 1 5.058940 6.202400 804.606995
417 0 1 5.133990 6.636900 805.448975
418 0 1 4.779910 7.183952 806.291992
419 0 1 4.318550 7.830418 806.872986
420 0 1 3.733360 8.238085 807.539978
421 0 1 3.048860 8.703111 808.082031
422 0 1 2.526420 9.124090 808.731995
423 0 1 1.994690 9.402280 809.495972
424 0 1 1.644900 9.565260 810.411011
425 0 1 1.674120 9.487740 811.348022
426 0 1 2.112080 9.468050 812.188965
427 0 1 2.479890 9.365700 813.047974
428 0 1 2.871220 9.416860 813.929993
429 0 1 3.460360 9.447220 814.692017
430 0 1 3.831940 9.453580 815.546997
431 0 1 4.325910 9.440240 816.369995
432 0 1 4.842780 9.552570 817.190002
433 0 1 5.026470 9.637300 818.153015
434 0 1 5.013460 9.997190 819.057983
435 0 1 4.668130 10.049600 819.962036
436 0 1 4.111310 9.989260 820.804993
437 0 1 3.573260 9.901840 821.630005
438 0 1 3.209720 9.942430 822.533020
439 0 1 2.926430 10.268550 823.343994
440 0 1 2.727140 10.491529 824.296997
441 0 1 2.583260 10.676760 825.249023
442 0 1 2.364130 10.671770 826.177979
443 0 1 2.256470 10.420970 827.075989
444 0 1 2.055230 10.188470 827.981995
445 0 1 1.932150 9.920040 828.911011
446 0 1 2.047190 9.664870 829.863037
447 0 1 2.208400 9.571830 830.812988
448 0 1 2.321810 9.521650 831.841980
449 0 1 2.746500 9.701860 832.674011
450 0 1 3.240710 9.929480 833.510986
451 0 1 3.845890 10.052460 834.234009
452 0 1 4.273610 10.156910 835.169983
453 0 1 4.756110 9.940680 835.974976
454 0 1 5.012790 9.523270 836.886963
455 0 1 5.420900 9.055940 837.645996
456 0 1 5.879580 8.223734 838.089966
457 0 1 6.380730 7.473388 838.484009
458 0 1 6.750170 6.668910 838.903992
459 0 1 7.649682 6.535890 839.229980
460 0 1 8.632633 6.538960 839.309998
461 0 1 9.577820 6.343890 839.403992
462 0 1 10.489240 5.969530 839.395996
463 0 1 11.321580 5.767810 838.932983
464 0 1 11.808661 5.247690 838.263000
465 0 1 11.996150 4.748670 837.476013
466 0 1 12.142530 4.384140 836.599976
467 0 1 12.120290 3.838370 835.789001
468 0 1 12.114050 3.504300 834.882019
469 0 1 11.911060 3.425540 833.969971
470 0 1 11.719020 3.196420 833.042969
471 0 1 11.448400 3.365710 832.139038
472 0 1 11.169910 3.474700 831.223999
473 0 1 10.700100 3.818590 830.438965
474 0 1 10.247820 3.938760 829.515991
475 0 1 9.978990 4.112530 828.604980
476 0 1 9.779200 4.396410 827.723999
477 0 1 9.671320 4.797730 826.867004
478 0 1 9.392710 4.853980 825.955994
479 0 1 9.033950 5.040720 824.997986
480 0 1 8.903902 5.384210 824.070007
481 0 1 8.989866 5.248850 823.093994
482 0 1 8.769789 5.301030 822.203003
483 0 1 8.188313 5.378640 821.414001
484 0 1 7.668353 5.635550 820.671997
485 0 1 7.343213 5.993910 819.822998
486 0 1 7.078881 6.025190 818.931030
487 0 1 7.010645 6.350540 818.119019
488 0 1 7.045277 6.735580 817.247986
489 0 1 7.072720 7.030746 816.370972
490 0 1 7.518082 7.353995 815.593994
491 0 1 7.863962 7.666740 814.713013
492 0 1 8.246262 7.968156 813.859985
493 0 1 8.441014 7.756562 812.921021
494 0 1 8.397264 7.879876 811.971008
495 0 1 8.516120 7.912584 811.052002
496 0 1 8.646250 8.121108 810.113037
497 0 1 8.707232 8.228662 809.104004
498 0 1 8.955804 8.749203 808.341980
499 0 1 9.124269 9.137190 807.509033
500 0 1 9.447371 9.575940 806.686035
501 0 1 9.697650 10.031860 805.877014
502 0 1 10.181459 10.272310 805.068970
503 0 1 10.394510 10.628220 804.270996
504 0 1 10.605890 10.801430 803.356018
505 0 1 10.786870 10.847630 802.434021
506 0 1 10.679990 10.889339 801.518982
507 0 1 10.695300 10.870180 800.549011
508 0 1 10.702380 10.590570 799.625977
509 0 1 10.725110 10.364429 798.646973
510 0 1 10.742160 10.101080 797.679016
511 0 1 10.627970 9.763520 796.865967
512 0 1 10.733480 9.596540 795.934021
513 0 1 10.784070 9.349030 794.976990
514 0 1 10.728900 8.980443 794.106018
515 0 1 10.522290 8.540345 793.200989
516 0 1 10.363850 7.934447 792.460022
517 0 1 10.265590 7.507316 791.525024
518 0 1 10.206881 7.047724 790.648987
519 0 1 10.036230 6.628970 789.695984
520 0 1 9.890350 6.432630 788.781006
521 0 1 9.529950 6.549750 787.927002
522 0 1 8.831490 6.503580 787.223999
523 0 1 8.425972 6.375850 786.354004
524 0 1 7.961479 6.067090 785.533997
525 0 1 7.381224 5.744060 784.825012
526 0 1 6.744490 5.471980 784.112000
527 0 1 6.331850 5.302880 783.240967
528 0 1 6.120720 5.059490 782.296997
529 0 1 6.263310 4.767770 781.401001
530 0 1 6.568480 4.782750 780.528992
531 0 1 6.758540 4.526160 779.588989
532 0 1 6.981260 4.159400 778.664001
533 0 1 7.095100 3.848440 777.651978
534 0 1 7.002424 3.990400 776.666016
535 0 1 7.160229 4.026120 775.705994
536 0 1 7.080685 4.044050 774.754028
537 0 1 7.022457 4.100620 773.825989
538 0 1 7.024874 4.253580 772.830994
539 0 1 6.876870 4.450670 771.890991
540 0 1 6.932820 4.878870 771.062012
541 0 1 7.413816 5.367530 770.384033
542 0 1 8.005341 5.916180 769.846985
543 0 1 8.487865 6.374740 769.115967
544 0 1 9.092410 6.723030 768.403015
545 0 1 9.590790 7.049659 767.664978
546 0 1 9.977840 7.515697 766.885010
547 0 1 10.149740 7.901640 766.065979
548 0 1 10.174800 8.275912 765.188965
549 0 1 9.982610 8.667869 764.333008
550 0 1 9.663370 9.071740 763.546021
551 0 1 9.389350 9.808250 763.005981
552 0 1 9.060660 10.601060 762.516968
553 0 1 8.543527 11.094570 761.859985
554 0 1 7.914064 11.484480 761.188965
555 0 1 7.292105 11.740110 760.445984
556 0 1 6.849670 11.565060 759.627014
557 0 1 6.392940 11.474770 758.742981
558 0 1 5.814580 11.397850 757.926025
559 0 1 5.455490 11.406100 756.992981
560 0 1 5.164740 11.590660 756.067017
561 0 1 4.674260 11.529420 755.260010
562 0 1 4.190280 11.324360 754.505005
563 0 1 3.910300 11.175631 753.585022
564 0 1 3.536100 10.967450 752.760986
565 0 1 3.200310 10.401670 751.992004
566 0 1 2.981550 9.626790 751.367004
567 0 1 2.950920 9.033340 750.640015
568 0 1 2.949420 8.589565 749.750000
569 0 1 3.126410 8.207534 748.891968
570 0 1 3.219230 7.703740 748.148010
571 0 1 3.398340 6.963350 747.523987
572 0 1 3.586370 6.247690 746.882019
573 0 1 3.368440 5.829930 746.036011
574 0 1 3.301520 5.094660 745.426025
575 0 1 3.055910 4.601450 744.622009
576 0 1 2.546660 4.516020 743.815002
577 0 1 2.483720 4.795330 742.872009
578 0 1 2.218230 4.842850 742.013000
579 0 1 2.168810 4.831120 741.021973
580 0 1 2.065020 4.925360 740.057007
581 0 1 2.134170 5.087450 739.146973
582 0 1 2.332540 5.282240 738.174988
583 0 1 2.392180 5.545590 737.291016
584 0 1 2.591350 5.515000 736.338989
585 0 1 2.981380 5.373200 735.434998
586 0 1 3.148130 5.224300 734.442017
587 0 1 3.706410 5.039180 733.682983
588 0 1 4.340840 4.655970 733.015015
589 0 1 4.989700 4.169880 732.505981
590 0 1 5.638040 3.975840 731.817993
591 0 1 6.239330 4.230800 731.054016
592 0 1 6.670440 4.282660 730.197998
593 0 1 7.012197 4.359260 729.333008
594 0 1 7.366260 4.425230 728.454407
595 0 1 7.695904 4.277660 727.441589
596 0 1 8.070174 4.277600 726.554077
597 0 1 8.394659 4.320240 725.621216
598 0 1 8.591447 4.262480 724.670898
599 0 1 8.590996 4.037780 723.729492
600 0 1 8.818197 3.547680 722.961792
601 0 1 9.004590 3.206500 722.049988
602 0 1 9.083830 2.841760 721.171326
603 0 1 8.961905 2.709620 720.191223
604 0 1 8.765422 2.306520 719.332886
605 0 1 8.408460 1.816840 718.551514
606 0 1 7.960005 1.452580 717.772522
607 0 1 7.424955 1.360760 717.026917
608 0 1 6.824580 1.521310 716.209778
609 0 1 6.277460 1.874220 715.525085
610 0 1 5.806020 2.309360 714.829895
611 0 1 5.335400 2.923840 714.243591
612 0 1 4.853360 3.531450 713.714233
613 0 1 4.286110 4.019440 713.182312
614 0 1 3.936470 4.504180 712.354614
615 0 1 3.829680 4.732750 711.375366
616 0 1 3.805650 4.980100 710.413391
617 0 1 3.640170 5.291840 709.608032
618 0 1 3.568920 5.598660 708.714600
619 0 1 3.419190 5.913740 707.893066
620 0 1 3.227180 6.508770 707.089722
621 0 1 3.417160 6.963780 706.312378
622 0 1 3.593930 7.771615 705.836609
623 0 1 3.739600 8.521995 705.217407
624 0 1 3.686710 9.232330 704.598694
625 0 1 3.943090 9.832600 703.907227
626 0 1 4.422970 10.101191 703.105469
627 0 1 4.792030 10.197880 702.218994
628 0 1 5.378820 10.134760 701.481018
629 0 1 6.008810 10.019100 700.795105
630 0 1 6.761090 9.938100 700.195618
631 0 1 7.230320 10.123660 699.356934
632 0 1 7.636257 10.216040 698.509583
633 0 1 8.121837 10.296320 697.686768
634 0 1 8.664270 10.463490 696.885498
635 0 1 9.078460 10.500200 695.967712
636 0 1 8.986162 10.261869 695.026917
637 0 1 8.900094 9.984060 694.110291
638 0 1 9.084860 9.271010 693.457397
639 0 1 9.256001 8.902350 692.630615
640 0 1 9.208140 8.757161 691.688599
641 0 1 9.134980 8.844173 690.695007
642 0 1 8.831237 9.026690 689.804810
643 0 1 8.628873 9.452900 688.919617
644 0 1 8.491474 9.726000 688.026611
645 0 1 8.180774 10.024770 687.160095
646 0 1 8.213870 10.302000 686.274292
647 0 1 7.976433 10.679190 685.385620
648 0 1 7.986380 10.905410 684.422424
649 0 1 8.038168 10.919130 683.477905
650 0 1 8.177431 11.254840 682.529602
651 0 1 8.343550 11.636840 681.635315
652 0 1 8.416312 11.873180 680.764709
653 0 1 8.322580 12.046980 679.849976
654 0 1 8.036698 11.742220 678.959412
655 0 1 7.858277 11.396210 678.032227
656 0 1 7.897712 10.856791 677.237915
657 0 1 7.700297 10.410310 676.420593
658 0 1 7.551603 10.082211 675.506470
659 0 1 7.479652 9.878040 674.555786
660 0 1 7.191657 9.466850 673.689697
661 0 1 6.932900 9.122910 672.811279
662 0 1 6.879610 8.783459 671.919617
663 0 1 6.770130 8.510186 671.046814
664 0 1 6.675600 8.186693 670.196777
665 0 1 6.500400 7.649608 669.377197
666 0 1 6.341960 7.277948 668.458191
667 0 1 6.079490 7.097938 667.600891
668 0 1 5.522780 6.840980 666.842285
669 0 1 4.920220 6.492870 666.140808
670 0 1 4.280140 6.100910 665.505310
671 0 1 3.709600 5.599130 664.880188
672 0 1 3.295100 5.208720 663.998413
673 0 1 3.171120 4.906270 663.109497
674 0 1 3.423020 4.826490 662.145874
675 0 1 3.782540 4.786520 661.295532
676 0 1 4.088130 4.980630 660.400085
677 0 1 4.516300 4.987010 659.548401
678 0 1 5.019850 5.142720 658.674011
679 0 1 5.898530 5.366550 658.349609
680 0 1 6.803410 5.490940 657.927979
681 0 1 7.512584 5.453220 657.246094
682 0 1 8.096764 5.802280 656.640869
683 0 1 8.958743 5.885430 656.159729
684 0 1 9.786030 5.941960 655.624329
685 0 1 10.507910 6.425920 655.220520
686 0 1 11.159800 6.997340 654.723694
687 0 1 11.653760 7.441304 653.989502
688 0 1 11.790710 7.844468 653.166016
689 0 1 11.897320 8.154552 652.227478
690 0 1 11.586820 8.572392 651.403809
691 0 1 11.561970 8.845293 650.532715
692 0 1 11.555610 9.035900 649.548096
693 0 1 11.670570 9.316990 648.638306
694 0 1 11.897181 9.723620 647.785889
695 0 1 12.108940 10.033940 646.904419
696 0 1 12.010670 10.335950 645.996094
697 0 1 11.870710 10.387190 645.039001
698 0 1 11.849970 10.154630 644.082275
699 0 1 11.671870 9.905710 643.212585
700 0 1 11.531660 9.792210 642.227173
701 0 1 11.262730 9.594990 641.363586
702 0 1 11.110880 9.360420 640.454712
703 0 1 10.554220 8.980465 639.741699
704 0 1 10.312150 8.683460 638.829224
705 0 1 10.006150 8.332217 637.990906
706 0 1 9.815070 7.989655 637.103455
707 0 1 9.426410 7.692378 636.270203
708 0 1 9.559120 7.321313 635.319580
709 0 1 9.781420 7.008170 634.454651
710 0 1 10.021920 6.608150 633.672791
711 0 1 10.411130 6.178800 632.842468
712 0 1 10.845181 5.593320 632.241821
713 0 1 11.368550 5.219510 631.509399
714 0 1 11.503860 4.729120 630.728210
715 0 1 11.585300 4.362490 629.863342
716 0 1 11.560329 3.988870 628.947815
717 0 1 11.470360 3.498420 628.216248
718 0 1 11.381900 3.111090 627.354187
719 0 1 11.160749 2.721160 626.401306
720 0 1 10.876471 2.448080 625.527893
721 0 1 10.804080 2.430600 624.621216
722 0 1 11.001120 2.424700 623.646851
723 0 1 10.890300 2.344960 622.729736
724 0 1 10.960820 2.419900 621.785522
725 0 1 10.775240 2.770230 620.863647
726 0 1 10.575109 3.134950 620.006470
727 0 1 10.398170 3.140530 619.085022
728 0 1 10.043070 3.343930 618.218323
729 0 1 9.670750 3.521040 617.278015
730 0 1 9.403910 3.745070 616.424805
731 0 1 9.278240 4.166060 615.523010
732 0 1 9.442450 4.650650 614.714294
733 0 1 9.475100 5.115400 613.778381
734 0 1 9.299140 5.452220 612.962891
735 0 1 9.020320 5.592690 612.038818
736 0 1 8.946923 5.561290 610.991699
737 0 1 8.903109 5.794730 610.056030
738 0 1 8.874475 5.825760 609.148193
739 0 1 8.945241 5.733770 608.208618
740 0 1 8.687953 5.540200 607.331116
741 0 1 8.439044 5.297210 606.452820
742 0 1 8.256440 5.240940 605.503113
743 0 1 8.322538 5.127890 604.536194
744 0 1 8.583193 5.128850 603.547119
745 0 1 8.437896 5.125760 602.589172
746 0 1 8.293561 4.794100 601.688477
747 0 1 8.432190 4.557020 600.784485
748 0 1 8.338720 4.602430 599.787720
749 0 1 8.569847 4.450320 598.860291
750 0 1 8.847184 4.702630 597.961914
751 0 1 9.319970 4.646710 597.103271
752 0 1 9.916130 4.659530 596.369629
753 0 1 10.287200 4.397250 595.507690
754 0 1 10.346170 4.385300 594.590088
755 0 1 10.259560 4.392160 593.644104
756 0 1 10.255150 4.513100 592.687195
757 0 1 10.614240 5.030910 591.941589
758 0 1 11.089730 5.364790 591.125977
759 0 1 11.400340 5.668950 590.307800
760 0 1 11.478400 5.876930 589.323425
761 0 1 11.578420 6.166970 588.460327
762 0 1 11.902451 6.262190 587.593079
763 0 1 12.233160 6.682860 586.764526
764 0 1 12.848380 7.001572 586.084595
765 0 1 13.360991 7.267305 585.340820
766 0 1 13.556070 7.676995 584.469971
767 0 1 13.465050 8.161236 583.531189
768 0 1 13.545010 8.492443 582.619873
769 0 1 13.364241 8.690321 581.682800
770 0 1 13.054000 8.683879 580.763123
771 0 1 12.556910 8.923504 579.915588
772 0 1 12.158490 8.939178 579.037903
773 0 1 12.226950 8.793321 578.068176
774 0 1 12.187580 8.364628 577.169373
775 0 1 11.991580 8.321612 576.192810
776 0 1 11.771780 8.185235 575.213684
777 0 1 11.444490 7.860748 574.300903
778 0 1 10.734900 7.595035 573.695007
779 0 1 10.088181 7.569750 573.035889
780 0 1 9.260430 7.683855 572.437927
781 0 1 8.555374 7.459695 571.823730
782 0 1 7.713049 6.963900 571.536621
783 0 1 7.111340 6.397380 570.924072
784 0 1 6.617200 5.917320 570.227173
785 0 1 6.148220 5.638330 569.380493
786 0 1 5.608170 5.360950 568.507507
787 0 1 5.323150 5.104150 567.598999
788 0 1 5.163140 5.027920 566.666992
789 0 1 4.904330 5.055520 565.748413
790 0 1 5.015430 5.067570 564.734985
791 0 1 5.059510 5.090400 563.776489
792 0 1 5.308560 5.125340 562.856323
793 0 1 5.727360 5.156490 562.025208
794 0 1 6.313040 5.040130 561.279907