LAMMPS data file via MDAnalysis

        1000  atoms
        1000  bonds
        1000  angles
           0  dihedrals
           0  impropers

           1  atom types
           1  bond types
           1  angle types
           0  dihedral types
           0  improper types

0.000000 16.000000 xlo xhi
0.000000 16.000000 ylo yhi
0.000000 1257.000000 zlo zhi


Masses

1 1.000000

Atoms

1 0 1 14.482920 9.777430 475.464996
2 0 1 14.348530 9.263590 476.294983
3 0 1 14.248940 8.841941 477.119019
4 0 1 13.804250 8.544231 477.919983
5 0 1 13.143880 8.371911 478.723022
6 0 1 12.478790 8.273103 479.437012
7 0 1 11.885469 8.041649 480.145996
8 0 1 11.242100 7.792406 480.804993
9 0 1 10.794880 7.463705 481.572998
10 0 1 10.836220 7.163323 482.496002
11 0 1 10.994720 6.702680 483.425995
12 0 1 11.008290 6.185920 484.247009
13 0 1 11.119600 5.595780 484.984985
14 0 1 10.792300 5.300770 485.838989
15 0 1 10.193990 4.890730 486.468018
16 0 1 9.942820 4.384060 487.247986
17 0 1 9.651380 3.982120 488.035004
18 0 1 9.329020 3.689180 488.830017
19 0 1 8.971255 3.293390 489.585022
20 0 1 9.150570 3.060280 490.507996
21 0 1 9.281100 3.205100 491.490997
22 0 1 9.325590 3.303940 492.457001
23 0 1 9.206040 3.689810 493.278015
24 0 1 9.345800 4.292410 494.031006
25 0 1 9.470610 4.961680 494.798004
26 0 1 9.819600 5.660890 495.408020
27 0 1 9.890940 5.997020 496.302979
28 0 1 9.910430 6.535150 497.093994
29 0 1 9.850100 6.889050 497.979980
30 0 1 9.447990 7.383529 498.695007
31 0 1 9.269710 7.621444 499.589996
32 0 1 9.176550 7.817614 500.580994
33 0 1 9.002080 7.981918 501.566010
34 0 1 8.932194 8.289669 502.492981
35 0 1 8.715539 8.410233 503.501007
36 0 1 8.575148 8.834003 504.380981
37 0 1 8.348125 9.158030 505.226990
38 0 1 8.239418 9.456750 506.130005
39 0 1 8.387375 9.491620 507.109985
40 0 1 8.572620 9.561310 508.066010
41 0 1 8.684815 9.869061 508.976013
42 0 1 8.958170 10.096479 509.923004
43 0 1 9.013550 10.303550 510.862000
44 0 1 9.207810 10.546070 511.731995
45 0 1 9.687020 10.594210 512.523987
46 0 1 10.406360 10.732719 513.197998
47 0 1 11.014980 10.507071 513.903992
48 0 1 11.191170 10.255770 514.825012
49 0 1 11.179780 9.908250 515.716003
50 0 1 11.088449 9.895270 516.729004
51 0 1 11.046600 9.733320 517.698975
52 0 1 10.705830 9.784310 518.586975
53 0 1 10.769130 9.571850 519.523010
54 0 1 10.689350 9.370630 520.487976
55 0 1 10.499701 9.024010 521.354004
56 0 1 10.075640 8.752245 522.260986
57 0 1 9.802240 8.514417 523.164978
58 0 1 8.973693 8.510359 523.674988
59 0 1 8.245807 8.493737 524.221985
60 0 1 7.470309 8.311514 524.760986
61 0 1 6.940070 8.134112 525.490967
62 0 1 6.347760 7.816181 526.169006
63 0 1 5.848980 7.432099 526.937012
64 0 1 5.558220 6.919550 527.711975
65 0 1 5.144390 6.369180 528.380005
66 0 1 4.917960 5.996010 529.189087
67 0 1 4.787920 5.576480 530.059998
68 0 1 4.509900 5.449860 530.986694
69 0 1 4.468410 5.583330 531.946106
70 0 1 4.333470 5.769460 532.837708
71 0 1 4.008140 5.877310 533.739624
72 0 1 3.591300 6.042700 534.582520
73 0 1 3.370610 6.262570 535.515076
74 0 1 3.327280 6.305960 536.521423
75 0 1 3.384500 6.230030 537.501404
76 0 1 3.075320 6.304910 538.422424
77 0 1 2.976690 6.303870 539.418213
78 0 1 3.099020 6.178770 540.379883
79 0 1 3.241210 6.085960 541.347595
80 0 1 3.288680 6.037620 542.349304
81 0 1 3.394890 6.048060 543.318726
82 0 1 3.408230 6.357930 544.214111
83 0 1 3.569720 6.639340 545.161682
84 0 1 3.491540 6.690640 546.114868
85 0 1 3.605470 6.974180 547.019775
86 0 1 3.462680 6.934550 548.035522
87 0 1 3.277020 6.958420 549.045532
88 0 1 3.043240 6.735290 549.971008
89 0 1 2.864150 6.359290 550.895386
90 0 1 2.940330 6.051690 551.774780
91 0 1 3.179280 6.143560 552.665405
92 0 1 3.655540 6.217830 553.464722
93 0 1 4.160140 6.544520 554.232178
94 0 1 4.620440 6.656380 555.093628
95 0 1 5.135010 7.178212 555.822205
96 0 1 5.609210 7.568594 556.508789
97 0 1 6.081010 8.093126 557.137085
98 0 1 6.529810 8.364369 557.966919
99 0 1 6.817720 8.597763 558.958923
100 0 1 7.069167 8.749090 559.879211
101 0 1 7.280541 9.072740 560.813904
102 0 1 7.410753 9.401160 561.727417
103 0 1 7.660173 9.690570 562.596191
104 0 1 7.782936 9.971889 563.536621
105 0 1 7.552467 10.269320 564.491516
106 0 1 7.253615 10.432990 565.398926
107 0 1 7.222919 10.643280 566.359985
108 0 1 7.168331 10.936470 567.292175
109 0 1 6.987620 11.075460 568.260132
110 0 1 6.923920 10.763411 569.202820
111 0 1 6.819220 10.461860 570.156616
112 0 1 6.597750 10.343920 571.188721
113 0 1 6.210180 10.054029 572.035706
114 0 1 5.718100 10.014210 572.855774
115 0 1 5.402320 9.906130 573.748718
116 0 1 5.289130 9.960860 574.700989
117 0 1 5.284850 10.003410 575.591125
118 0 1 5.367860 10.338950 576.494507
119 0 1 5.181170 10.666790 577.415894
120 0 1 5.029840 11.029480 578.305908
121 0 1 5.126790 11.071070 579.285278
122 0 1 5.184720 10.990601 580.198975
123 0 1 5.459360 10.687390 581.050293
124 0 1 5.523170 10.443660 581.962524
125 0 1 5.453700 10.543900 582.927185
126 0 1 5.392190 10.398460 583.869385
127 0 1 5.534640 10.268990 584.799805
128 0 1 5.421730 10.155930 585.672729
129 0 1 5.446700 10.006960 586.619385
130 0 1 5.260550 9.850100 587.556702
131 0 1 4.910810 9.598000 588.485474
132 0 1 4.519630 9.476990 589.300720
133 0 1 4.090990 9.572550 590.146423
134 0 1 3.447490 9.541230 590.889404
135 0 1 2.980080 9.493020 591.693298
136 0 1 2.630270 9.248540 592.544678
137 0 1 2.506080 9.063570 593.453186
138 0 1 2.460750 9.243860 594.396973
139 0 1 2.300470 9.286360 595.361694
140 0 1 2.213110 9.215900 596.263184
141 0 1 2.291820 9.209300 597.226929
142 0 1 2.636000 9.095690 598.127625
143 0 1 2.831550 8.998007 599.040283
144 0 1 2.890000 8.903492 599.990295
145 0 1 3.266160 8.619997 600.889587
146 0 1 3.782250 8.807918 601.657898
147 0 1 4.330900 8.964556 602.385193
148 0 1 5.129860 8.974940 602.940979
149 0 1 5.815790 8.982628 603.652588
150 0 1 6.607670 9.113880 604.095886
151 0 1 7.154632 9.349070 604.864075
152 0 1 7.173170 9.681420 605.808594
153 0 1 7.305179 10.084810 606.654175
154 0 1 7.426709 10.496440 607.562988
155 0 1 7.721962 10.941750 608.379883
156 0 1 7.870190 11.495420 609.104919
157 0 1 8.032143 12.060570 609.875916
158 0 1 8.334141 12.482290 610.710999
159 0 1 8.566411 12.573120 611.700195
160 0 1 8.469891 12.684760 612.627808
161 0 1 8.198935 12.599970 613.565125
162 0 1 7.758853 12.538900 614.386780
163 0 1 7.812007 12.188800 615.266296
164 0 1 7.743482 12.223989 616.221924
165 0 1 7.837877 12.085970 617.229309
166 0 1 8.199805 11.874170 618.090698
167 0 1 8.571459 11.517941 618.896545
168 0 1 8.751274 11.498710 619.899475
169 0 1 8.766043 11.124730 620.822266
170 0 1 8.732332 10.872090 621.721802
171 0 1 8.613704 10.764970 622.674866
172 0 1 8.295809 10.841390 623.644531
173 0 1 8.216757 10.879630 624.595642
174 0 1 8.079612 11.012480 625.556458
175 0 1 7.678223 10.963680 626.407959
176 0 1 7.372076 11.105980 627.296082
177 0 1 7.048224 11.252760 628.204407
178 0 1 6.758760 11.435780 629.086670
179 0 1 6.549570 11.725610 629.960083
180 0 1 6.498560 11.868850 630.987244
181 0 1 6.415800 11.861460 631.952026
182 0 1 6.584900 12.061729 632.898254
183 0 1 6.517170 12.104460 633.855591
184 0 1 6.493490 12.166531 634.839478
185 0 1 6.168030 12.111640 635.761047
186 0 1 5.865890 11.661310 636.600403
187 0 1 5.385870 11.499980 637.421082
188 0 1 5.071490 11.367250 638.289490
189 0 1 4.903520 10.878850 639.097778
190 0 1 4.993260 10.342250 639.900818
191 0 1 4.851100 9.909510 640.767029
192 0 1 4.514320 9.605830 641.631897
193 0 1 4.196940 9.254320 642.483398
194 0 1 3.813230 8.973907 643.354614
195 0 1 3.384850 8.694107 644.126404
196 0 1 2.965880 8.246337 644.867493
197 0 1 2.750920 7.700123 645.710327
198 0 1 2.633550 6.954600 646.380371
199 0 1 2.537950 6.233760 647.069275
200 0 1 2.599880 5.721370 647.853394
201 0 1 2.603010 5.284780 648.825500
202 0 1 2.378270 5.097880 649.753723
203 0 1 2.329890 4.960090 650.703308
204 0 1 2.318400 4.597640 651.571899
205 0 1 2.623630 4.320640 652.473999
206 0 1 2.852620 4.116160 653.375000
207 0 1 2.886320 3.989470 654.342224
208 0 1 3.019820 4.009400 655.303711
209 0 1 3.304970 4.238820 656.216309
210 0 1 3.849770 4.676760 656.876892
211 0 1 4.374040 5.115240 657.567505
212 0 1 4.465300 5.470510 658.412415
213 0 1 4.549780 5.717170 659.383789
214 0 1 4.458940 5.855910 660.367981
215 0 1 4.604030 5.989420 661.343811
216 0 1 4.671150 6.371800 662.263306
217 0 1 4.605300 6.760180 663.135925
218 0 1 4.487120 7.194347 664.070679
219 0 1 4.356980 7.669915 664.823608
220 0 1 4.153010 8.193475 665.604919
221 0 1 4.199380 8.689642 666.408875
222 0 1 4.281380 9.230580 667.157776
223 0 1 4.328470 9.708370 668.072510
224 0 1 4.365430 9.851650 668.992981
225 0 1 4.457620 10.045790 669.940674
226 0 1 4.854330 10.229620 670.797729
227 0 1 5.469900 10.383160 671.553589
228 0 1 6.241280 10.580980 672.269287
229 0 1 6.894500 10.816700 672.975403
230 0 1 7.393621 11.147560 673.691406
231 0 1 7.897264 11.363400 674.455383
232 0 1 8.447358 11.358829 675.199707
233 0 1 9.042870 11.275020 675.984619
234 0 1 9.412410 11.163350 676.885681
235 0 1 9.736070 11.003150 677.752014
236 0 1 9.921840 10.602110 678.609985
237 0 1 10.257580 9.924780 679.288025
238 0 1 10.172180 9.269780 679.968506
239 0 1 10.224820 8.638695 680.669678
240 0 1 9.897160 8.402109 681.516418
241 0 1 9.447260 8.123289 682.348389
242 0 1 9.079090 7.966904 683.199707
243 0 1 9.215010 7.622398 684.065186
244 0 1 9.788660 7.283112 684.835327
245 0 1 10.208740 7.269317 685.707520
246 0 1 10.530750 7.146111 686.593384
247 0 1 10.642800 7.081666 687.548889
248 0 1 10.550440 6.902230 688.430420
249 0 1 10.533130 6.488940 689.315674
250 0 1 10.577070 5.970630 690.136475
251 0 1 10.440960 5.706600 691.033081
252 0 1 10.315599 5.111570 691.757385
253 0 1 9.941980 4.397430 692.328979
254 0 1 9.381280 3.837080 692.882324
255 0 1 9.130440 3.275850 693.659607
256 0 1 8.896473 3.270840 694.556091
257 0 1 8.514213 2.849440 695.348633
258 0 1 8.204995 2.689760 696.330994
259 0 1 7.821216 2.636060 697.294800
260 0 1 7.748922 2.499250 698.219910
261 0 1 7.712553 2.353130 699.146118
262 0 1 7.410433 2.128440 700.185608
263 0 1 7.412337 2.033110 701.160522
264 0 1 7.243088 2.089040 702.134705
265 0 1 7.111687 1.932060 703.015808
266 0 1 7.178389 1.777050 703.986816
267 0 1 7.430933 1.510520 704.821411
268 0 1 7.762351 1.556230 705.711121
269 0 1 8.156938 1.538120 706.635681
270 0 1 8.328480 1.334020 707.612305
271 0 1 8.418404 1.297660 708.568298
272 0 1 8.429951 1.409960 709.489502
273 0 1 8.150040 1.328830 710.368408
274 0 1 8.344920 1.515350 711.298523
275 0 1 8.294435 1.616220 712.206604
276 0 1 8.474404 1.756540 713.093201
277 0 1 8.543522 2.213330 713.999390
278 0 1 8.461577 2.471640 714.926819
279 0 1 8.632203 2.670980 715.860474
280 0 1 9.055020 2.960520 716.705688
281 0 1 9.503660 3.437370 717.540283
282 0 1 9.966980 3.775600 718.330994
283 0 1 10.532820 4.094750 719.071106
284 0 1 11.026660 4.490950 719.863403
285 0 1 11.433400 4.808470 720.651794
286 0 1 11.806980 5.053510 721.430786
287 0 1 12.425739 5.226930 722.189514
288 0 1 13.083731 5.442210 722.988892
289 0 1 13.557810 5.842730 723.700073
290 0 1 14.113670 6.279050 724.240967
291 0 1 14.360630 6.922640 724.922913
292 0 1 14.510389 7.350398 725.766785
293 0 1 14.376260 7.970260 726.553711
294 0 1 14.130290 8.399695 727.354980
295 0 1 13.768250 9.034250 728.021973
296 0 1 13.401730 9.594160 728.760010
297 0 1 13.213329 10.146520 729.471008
298 0 1 12.780029 10.704650 730.104980
299 0 1 12.357550 10.972940 730.875977
300 0 1 12.194759 11.550970 731.695984
301 0 1 11.946320 11.925380 732.518982
302 0 1 11.527719 12.263861 733.315979
303 0 1 11.041890 12.315260 734.242981
304 0 1 10.532740 12.129789 735.038025
305 0 1 10.163140 11.805840 735.950012
306 0 1 9.997190 11.175230 736.737976
307 0 1 9.958941 10.939720 737.682983
308 0 1 9.903100 11.005360 738.651978
309 0 1 9.705160 11.008841 739.604004
310 0 1 9.600810 10.972130 740.557007
311 0 1 9.723610 10.782870 741.478027
312 0 1 10.014390 10.562070 742.309021
313 0 1 10.114350 10.499440 743.283020
314 0 1 10.090879 10.548870 744.276001
315 0 1 10.144050 10.789730 745.223022
316 0 1 10.104370 10.944620 746.190979
317 0 1 9.723010 11.041540 747.033997
318 0 1 9.288050 11.242050 747.851990
319 0 1 9.051630 11.417240 748.724976
320 0 1 8.889897 11.575130 749.578979
321 0 1 8.735061 11.513140 750.526978
322 0 1 8.500054 11.246640 751.502991
323 0 1 8.292904 10.976510 752.440979
324 0 1 8.143624 10.777781 753.341980
325 0 1 8.291351 10.282340 754.111023
326 0 1 8.227742 9.901630 755.041016
327 0 1 7.927202 9.544350 755.884033
328 0 1 7.857221 9.118820 756.688965
329 0 1 7.645482 8.481484 757.372986
330 0 1 7.282640 8.012627 758.143982
331 0 1 7.129240 7.281309 758.835999
332 0 1 7.424409 6.538920 759.337036
333 0 1 7.779752 5.933840 759.950989
334 0 1 8.041155 5.464800 760.757019
335 0 1 8.319088 4.912210 761.471985
336 0 1 8.595082 4.378580 762.207031
337 0 1 8.864681 4.006820 763.036011
338 0 1 9.135330 3.693450 763.948975
339 0 1 9.578200 3.416620 764.765015
340 0 1 10.137660 3.229390 765.507019
341 0 1 10.371970 3.160030 766.429016
342 0 1 10.776760 2.970150 767.317017
343 0 1 11.077980 2.821320 768.213989
344 0 1 11.638800 2.690080 768.966980
345 0 1 12.103460 2.592900 769.783997
346 0 1 12.248620 2.776000 770.759033
347 0 1 12.240070 3.416260 771.504028
348 0 1 11.982340 4.074410 772.150024
349 0 1 11.801590 4.642900 772.898987
350 0 1 11.759650 5.093860 773.742004
351 0 1 11.730600 5.771190 774.499023
352 0 1 11.567850 6.490130 775.093994
353 0 1 11.614620 7.093479 775.832031
354 0 1 11.885799 7.765390 776.479004
355 0 1 11.950660 8.487850 777.182983
356 0 1 11.793000 9.116100 777.839966
357 0 1 11.575850 9.804120 778.437012
358 0 1 11.459830 10.346251 779.210999
359 0 1 11.505660 10.829870 780.070007
360 0 1 11.534100 11.336781 780.901001
361 0 1 11.442210 11.816460 781.757019
362 0 1 11.049450 12.039909 782.674988
363 0 1 10.984280 12.410419 783.561035
364 0 1 10.587790 12.795000 784.364014
365 0 1 10.138690 13.100140 785.160034
366 0 1 9.673460 13.162741 786.082031
367 0 1 9.174960 13.363530 786.978027
368 0 1 8.578862 13.334690 787.757996
369 0 1 8.250341 13.201380 788.679993
370 0 1 8.422129 12.856740 789.536011
371 0 1 8.447336 12.367920 790.424011
372 0 1 8.576685 11.839510 791.247009
373 0 1 8.282919 11.408560 792.041992
374 0 1 7.869463 11.180830 792.854980
375 0 1 7.453829 10.794970 793.593018
376 0 1 7.045933 10.413710 794.375000
377 0 1 6.814830 10.037010 795.259033
378 0 1 6.720960 9.712020 796.182983
379 0 1 6.654050 9.419970 797.104004
380 0 1 6.813290 9.140490 797.992981
381 0 1 7.207670 8.866798 798.839966
382 0 1 7.495600 8.630324 799.780029
383 0 1 7.955700 8.644465 800.646973
384 0 1 8.150011 8.952920 801.546021
385 0 1 8.537345 8.819750 802.474976
386 0 1 8.830353 8.775915 803.386963
387 0 1 8.974257 8.559733 804.398010
388 0 1 8.861398 8.436881 805.332031
389 0 1 8.729024 8.511456 806.309021
390 0 1 8.401813 8.418173 807.286987
391 0 1 8.171307 8.661189 808.176025
392 0 1 7.827795 9.161400 808.922974
393 0 1 7.451594 9.488720 809.778992
394 0 1 7.096693 9.660620 810.686035
395 0 1 6.745830 9.617190 811.705994
396 0 1 6.422330 9.794570 812.580994
397 0 1 6.046830 9.870670 813.492004
398 0 1 5.820150 10.228090 814.408997
399 0 1 5.565240 10.520220 815.240967
400 0 1 5.099560 10.639470 816.077026
401 0 1 4.609790 10.485850 816.979004
402 0 1 4.253470 10.496910 817.882996
403 0 1 3.727960 10.584700 818.697998
404 0 1 3.472880 10.419470 819.613037
405 0 1 3.281970 10.226360 820.515991
406 0 1 2.870350 10.267350 821.411987
407 0 1 2.635820 9.983200 822.268982
408 0 1 2.747180 9.622760 823.096985
409 0 1 2.662710 9.401260 823.997986
410 0 1 2.712940 9.010500 824.812012
411 0 1 2.864690 8.314577 825.447998
412 0 1 2.948510 7.614247 826.087036
413 0 1 3.158020 7.027598 826.851990
414 0 1 3.211480 6.530080 827.640015
415 0 1 3.398480 6.091710 828.464966
416 0 1 3.908670 5.589200 829.167969
417 0 1 4.201710 4.966370 829.809021
418 0 1 4.261210 4.254680 830.523010
419 0 1 4.010570 3.803210 831.322021
420 0 1 4.263020 3.458660 832.203979
421 0 1 4.595460 3.475540 833.158020
422 0 1 5.054860 3.796000 833.934021
423 0 1 5.765810 4.050040 834.632019
424 0 1 6.353530 4.404010 835.372986
425 0 1 6.916470 4.921390 835.974976
426 0 1 7.250223 5.673200 836.562012
427 0 1 7.380305 6.533520 836.870972
428 0 1 7.314490 7.486615 836.955017
429 0 1 7.372223 8.490851 837.000977
430 0 1 7.620921 9.421850 836.931030
431 0 1 7.805038 10.354560 836.520020
432 0 1 8.196550 11.124320 836.035034
433 0 1 8.563758 11.767839 835.492981
434 0 1 9.162420 12.230619 834.893005
435 0 1 9.917660 12.568960 834.354980
436 0 1 10.465580 12.669291 833.565979
437 0 1 10.757520 12.907970 832.609009
438 0 1 10.931420 13.171920 831.653992
439 0 1 11.334020 13.453480 830.799011
440 0 1 11.383630 13.472540 829.859009
441 0 1 11.671510 13.452290 828.942993
442 0 1 11.542340 13.470250 827.995972
443 0 1 11.172760 13.394190 827.101990
444 0 1 10.777230 13.317830 826.214966
445 0 1 10.601000 13.318680 825.271973
446 0 1 10.262290 12.931690 824.460022
447 0 1 10.075630 12.446080 823.639038
448 0 1 9.810510 12.019580 822.818970
449 0 1 9.561310 11.559620 821.987000
450 0 1 9.229220 11.082040 821.210999
451 0 1 9.225670 10.704600 820.341003
452 0 1 9.182810 10.378080 819.455994
453 0 1 9.234460 10.095240 818.515015
454 0 1 9.380310 9.718170 817.661011
455 0 1 9.605040 9.016070 817.057007
456 0 1 9.605560 8.214050 816.515991
457 0 1 9.633520 7.456893 815.848022
458 0 1 9.635650 6.675800 815.257019
459 0 1 9.549990 5.833600 814.677979
460 0 1 9.224689 5.204900 814.065979
461 0 1 8.729973 4.762440 813.287964
462 0 1 8.537429 4.137050 812.606995
463 0 1 8.206304 3.658310 811.869019
464 0 1 7.569041 3.425650 811.177002
465 0 1 6.954980 3.303990 810.429993
466 0 1 6.440550 3.225690 809.603027
467 0 1 5.828350 3.251540 808.874023
468 0 1 5.371230 3.370530 808.075012
469 0 1 5.100360 3.649370 807.205994
470 0 1 4.977470 3.781950 806.250000
471 0 1 4.812720 4.263520 805.410034
472 0 1 4.665210 4.754640 804.610962
473 0 1 4.609360 5.118100 803.687012
474 0 1 4.515350 5.060760 802.735962
475 0 1 4.344160 4.758410 801.833008
476 0 1 3.975130 4.522380 800.968994
477 0 1 3.737170 4.469130 800.052979
478 0 1 3.679010 4.160890 799.083008
479 0 1 3.784670 3.950180 798.166992
480 0 1 3.569850 3.941460 797.216003
481 0 1 3.133220 4.005750 796.317993
482 0 1 2.826330 4.219260 795.416016
483 0 1 2.772690 4.146390 794.393982
484 0 1 2.619270 3.926930 793.455994
485 0 1 2.575080 4.072180 792.539978
486 0 1 2.662950 4.265060 791.575989
487 0 1 2.554250 4.299600 790.625977
488 0 1 2.832130 4.659410 789.822021
489 0 1 3.407240 5.116830 789.184998
490 0 1 3.905830 5.360220 788.414001
491 0 1 4.403590 5.492060 787.650024
492 0 1 5.093960 5.606540 786.931030
493 0 1 5.474600 5.891380 786.093018
494 0 1 5.810410 6.071980 785.182983
495 0 1 6.193170 6.267880 784.365967
496 0 1 6.492030 6.198690 783.406006
497 0 1 6.933870 6.082690 782.551025
498 0 1 7.485628 5.893070 781.755005
499 0 1 7.796842 6.003730 780.908020
500 0 1 7.789314 5.746610 779.987000
501 0 1 7.683525 5.841890 779.056030
502 0 1 7.401067 6.005620 778.085022
503 0 1 7.001349 6.085040 777.218018
504 0 1 6.600310 5.828460 776.304993
505 0 1 5.956720 5.628050 775.549011
506 0 1 5.283100 5.487520 774.932983
507 0 1 4.968350 5.279180 774.082031
508 0 1 4.903210 5.219950 773.139038
509 0 1 4.862230 5.267580 772.169006
510 0 1 5.021500 5.144990 771.186035
511 0 1 5.290550 5.002280 770.312012
512 0 1 5.573360 4.854320 769.382019
513 0 1 5.642850 4.563220 768.403992
514 0 1 5.684700 4.689240 767.460999
515 0 1 5.720950 4.957830 766.515991
516 0 1 5.617820 5.277360 765.589966
517 0 1 5.524220 5.391920 764.703979
518 0 1 5.403730 5.600560 763.796021
519 0 1 4.938780 6.065050 763.016968
520 0 1 4.795300 6.680550 762.296997
521 0 1 4.398070 7.506441 761.858032
522 0 1 4.093130 8.261441 761.395020
523 0 1 3.962780 8.922555 760.757019
524 0 1 3.904970 9.404250 759.890991
525 0 1 4.078140 9.778320 759.067017
526 0 1 4.256130 10.231700 758.210999
527 0 1 3.924170 10.880060 757.559998
528 0 1 3.568670 11.187220 756.640015
529 0 1 3.592680 11.552080 755.752991
530 0 1 3.600370 11.833000 754.796021
531 0 1 3.290580 12.018070 753.872009
532 0 1 2.915600 11.998760 752.994019
533 0 1 2.971290 11.992670 752.067993
534 0 1 2.754920 11.930980 751.088989
535 0 1 2.793400 11.679680 750.171997
536 0 1 2.590010 11.330240 749.255981
537 0 1 2.765540 10.852900 748.479004
538 0 1 2.933130 10.267500 747.693970
539 0 1 3.016110 9.701470 746.885010
540 0 1 2.967480 9.232020 746.065002
541 0 1 2.845110 8.699295 745.312988
542 0 1 2.929170 8.320819 744.416992
543 0 1 3.131830 7.841670 743.578979
544 0 1 3.398500 7.487293 742.651978
545 0 1 3.604890 7.110123 741.775024
546 0 1 3.965750 6.716410 740.952026
547 0 1 4.615670 6.709850 740.207031
548 0 1 5.215370 6.534090 739.434998
549 0 1 5.744250 6.322850 738.666016
550 0 1 5.971690 5.817760 737.877991
551 0 1 6.335900 5.493100 737.098999
552 0 1 6.769810 4.775520 736.476990
553 0 1 7.179293 4.233110 735.794983
554 0 1 7.530974 3.689060 735.104004
555 0 1 8.037696 3.193800 734.476013
556 0 1 8.305507 3.126730 733.559998
557 0 1 8.512718 3.095070 732.531006
558 0 1 8.930328 3.155330 731.609985
559 0 1 9.438080 3.534800 730.796997
560 0 1 10.026870 4.131340 730.312988
561 0 1 10.656610 4.844290 729.901978
562 0 1 11.099540 5.605380 729.476990
563 0 1 11.522870 6.264110 729.023987
564 0 1 11.559660 7.174487 728.739990
565 0 1 11.605310 8.155269 728.487427
566 0 1 11.764690 8.976553 728.048706
567 0 1 11.927410 9.432120 727.201416
568 0 1 11.535789 10.018870 726.436096
569 0 1 11.207160 10.252780 725.537598
570 0 1 11.174210 10.404730 724.629089
571 0 1 11.206380 10.332530 723.725220
572 0 1 11.101120 10.241980 722.754211
573 0 1 11.397970 10.141030 721.822327
574 0 1 11.414110 10.063100 720.853210
575 0 1 11.348260 10.208080 719.922607
576 0 1 11.284100 10.487930 719.003723
577 0 1 11.206620 10.617780 717.992920
578 0 1 10.828260 10.961390 717.143494
579 0 1 10.588930 11.259460 716.278320
580 0 1 10.353550 11.753370 715.504822
581 0 1 9.926350 12.012370 714.663208
582 0 1 9.403720 12.078630 713.831116
583 0 1 8.984364 12.007730 712.959412
584 0 1 8.719843 11.690610 712.100525
585 0 1 8.177048 11.352740 711.308105
586 0 1 7.786840 11.038680 710.528076
587 0 1 7.486391 10.853280 709.648804
588 0 1 7.150114 10.341120 708.868286
589 0 1 6.695860 10.049940 708.045776
590 0 1 6.355590 9.928830 707.154297
591 0 1 6.069480 9.943580 706.268921
592 0 1 5.793670 10.016160 705.307373
593 0 1 5.471900 10.149830 704.393982
594 0 1 5.329380 10.484090 703.521973
595 0 1 5.197140 10.832150 702.613220
596 0 1 5.216200 11.216360 701.747192
597 0 1 5.030600 11.789840 700.934082
598 0 1 5.131930 12.313110 700.149414
599 0 1 5.185270 12.539010 699.193176
600 0 1 5.147240 12.715950 698.155579
601 0 1 5.439030 12.996030 697.312866
602 0 1 5.826070 13.047750 696.431213
603 0 1 6.250220 13.253250 695.643982
604 0 1 6.771570 13.459590 694.866516
605 0 1 7.277026 13.530230 693.991516
606 0 1 7.770714 13.495340 693.137207
607 0 1 8.095039 13.043500 692.407776
608 0 1 8.421055 12.534571 691.702271
609 0 1 8.912797 12.029181 691.014771
610 0 1 9.286090 11.451480 690.342712
611 0 1 9.846750 10.830160 689.819397
612 0 1 10.537000 10.604100 689.140320
613 0 1 10.670589 10.462520 688.095276
614 0 1 10.627831 10.341750 687.155823
615 0 1 10.597640 10.064250 686.192078
616 0 1 10.777560 10.141650 685.244080
617 0 1 11.054800 9.993630 684.328125
618 0 1 11.396540 9.633480 683.485107
619 0 1 11.987020 9.336230 682.740784
620 0 1 12.342381 9.278760 681.826782
621 0 1 12.569220 9.467300 680.907227
622 0 1 12.743879 9.338280 679.949219
623 0 1 12.914351 9.163940 679.059509
624 0 1 12.672990 8.821262 678.176819
625 0 1 12.240810 8.598820 677.358887
626 0 1 11.926420 8.484655 676.463196
627 0 1 11.570900 8.452674 675.555420
628 0 1 11.410510 8.296450 674.571472
629 0 1 11.000590 7.977912 673.820312
630 0 1 10.469749 7.785491 673.072388
631 0 1 10.084780 7.632286 672.182312
632 0 1 9.756520 7.796265 671.304993
633 0 1 9.282510 7.862909 670.434326
634 0 1 8.836813 8.211450 669.621704
635 0 1 8.317695 8.556190 668.856873
636 0 1 7.925025 8.996051 668.098511
637 0 1 7.516130 9.283490 667.265991
638 0 1 7.233634 9.434430 666.367676
639 0 1 6.799110 9.489760 665.485474
640 0 1 6.392140 9.419090 664.636292
641 0 1 6.356510 9.289470 663.713196
642 0 1 6.552160 9.164920 662.787903
643 0 1 6.995150 9.250130 661.962219
644 0 1 7.391788 9.555220 661.117310
645 0 1 7.729155 9.910390 660.256226
646 0 1 7.977344 10.004220 659.359314
647 0 1 8.177742 10.006410 658.443176
648 0 1 8.012950 10.252260 657.437012
649 0 1 7.692306 10.474340 656.554504
650 0 1 7.266613 10.599260 655.721497
651 0 1 6.828010 10.458150 654.864319
652 0 1 6.580360 10.410530 653.982300
653 0 1 6.137540 10.043940 653.197876
654 0 1 5.966620 9.342860 652.533508
655 0 1 5.681850 8.640343 651.813416
656 0 1 5.447990 8.052354 651.136719
657 0 1 5.393630 7.352105 650.486206
658 0 1 5.259340 7.006587 649.636475
659 0 1 5.095010 6.589030 648.792419
660 0 1 5.004050 6.553910 647.825806
661 0 1 5.188880 6.510970 646.905823
662 0 1 5.569580 6.692210 646.076904
663 0 1 5.903220 6.763060 645.172180
664 0 1 6.275890 6.598040 644.300903
665 0 1 6.596110 6.652250 643.377625
666 0 1 6.892680 6.699490 642.477600
667 0 1 7.221763 6.740090 641.589600
668 0 1 7.697260 7.019700 640.826599
669 0 1 8.225745 7.430399 640.181030
670 0 1 8.866559 7.644557 639.451172
671 0 1 9.276340 7.900984 638.576782
672 0 1 9.567120 8.045449 637.621704
673 0 1 9.704260 8.330065 636.739075
674 0 1 9.610580 8.739009 635.852173
675 0 1 9.305650 9.059910 635.001038
676 0 1 9.304760 9.641640 634.161255
677 0 1 8.978377 10.314950 633.441284
678 0 1 9.122990 10.832230 632.685547
679 0 1 9.279680 11.325809 631.866760
680 0 1 9.327560 11.497260 630.900146
681 0 1 9.477489 11.250360 630.042603
682 0 1 9.457870 11.106830 629.084045
683 0 1 9.780840 10.838970 628.207581
684 0 1 10.104940 10.786840 627.274841
685 0 1 10.387150 11.149560 626.424805
686 0 1 10.569220 11.438920 625.444458
687 0 1 10.568750 11.143330 624.516418
688 0 1 10.630920 10.791280 623.623535
689 0 1 10.655519 10.631090 622.625366
690 0 1 10.288250 10.318480 621.789246
691 0 1 10.203850 9.946690 620.898499
692 0 1 10.198690 9.491160 620.029541
693 0 1 10.108290 9.439920 619.094482
694 0 1 10.008640 9.169870 618.124878
695 0 1 10.108150 8.872010 617.192810
696 0 1 10.368470 8.465481 616.324402
697 0 1 10.518340 8.141287 615.501404
698 0 1 10.827539 7.666796 614.710205
699 0 1 10.821450 6.999800 614.044800
700 0 1 10.909821 6.264080 613.493225
701 0 1 10.844960 5.467790 612.963623
702 0 1 10.997980 4.918440 612.180420
703 0 1 11.141560 4.401310 611.417114
704 0 1 11.346450 3.945660 610.523499
705 0 1 11.547990 3.568770 609.670471
706 0 1 11.628640 3.444530 608.741821
707 0 1 11.998040 3.545520 607.920715
708 0 1 12.445320 3.696440 606.995483
709 0 1 12.865220 3.918360 606.171692
710 0 1 13.184350 4.363250 605.380310
711 0 1 13.321119 4.777260 604.419617
712 0 1 13.381340 5.176370 603.599182
713 0 1 13.496670 5.413780 602.685181
714 0 1 13.577300 5.567020 601.715088
715 0 1 13.461440 5.293020 600.809692
716 0 1 13.312110 4.882510 599.963684
717 0 1 13.029720 4.519650 599.124207
718 0 1 12.825830 4.261330 598.234131
719 0 1 12.646580 4.060820 597.298096
720 0 1 12.554430 4.010790 596.382568
721 0 1 12.575180 3.949070 595.434875
722 0 1 12.538890 4.006090 594.444519
723 0 1 12.756300 3.932160 593.543091
724 0 1 12.946660 4.076450 592.503479
725 0 1 12.903660 4.227190 591.596680
726 0 1 12.744619 4.164620 590.709106
727 0 1 12.806810 4.357170 589.786621
728 0 1 12.670870 4.718770 588.933289
729 0 1 12.373250 5.170160 588.125977
730 0 1 11.952840 5.694550 587.369629
731 0 1 11.530660 6.203020 586.696106
732 0 1 11.155109 6.880370 586.023499
733 0 1 10.609961 7.510361 585.402527
734 0 1 10.223270 7.976440 584.654724
735 0 1 9.958440 8.222512 583.742615
736 0 1 9.998770 8.433033 582.734619
737 0 1 9.792450 8.479624 581.811890
738 0 1 9.742300 8.778772 580.874390
739 0 1 10.104420 9.000300 580.010193
740 0 1 10.274060 9.384260 579.085388
741 0 1 10.521450 9.626330 578.226929
742 0 1 10.717210 9.838080 577.313293
743 0 1 11.118370 10.057820 576.420288
744 0 1 11.032900 10.545450 575.592590
745 0 1 10.801500 10.548850 574.686279
746 0 1 10.420190 10.744840 573.780701
747 0 1 10.000420 10.986180 572.983887
748 0 1 9.731359 11.577869 572.241882
749 0 1 9.271610 11.791590 571.453613
750 0 1 9.087340 12.127010 570.525269
751 0 1 9.147870 12.334650 569.513916
752 0 1 9.411560 12.539289 568.642273
753 0 1 9.543270 12.812580 567.712280
754 0 1 9.619950 13.187860 566.844299
755 0 1 9.447210 13.268129 565.973572
756 0 1 9.191830 13.493700 565.059387
757 0 1 9.035080 13.314260 564.143433
758 0 1 9.006990 13.171920 563.159668
759 0 1 9.087980 12.952920 562.153687
760 0 1 8.950263 12.965560 561.189819
761 0 1 8.622323 13.014680 560.281616
762 0 1 8.159376 13.300950 559.448792
763 0 1 7.602518 13.702330 558.773987
764 0 1 7.294120 13.659110 557.871277
765 0 1 7.078216 13.242140 556.951721
766 0 1 6.994290 13.044780 556.012024
767 0 1 7.018671 13.123819 555.057495
768 0 1 7.103603 12.982230 554.142822
769 0 1 7.104978 12.632589 553.169067
770 0 1 7.005836 12.271530 552.303589
771 0 1 6.871810 11.900660 551.417786
772 0 1 6.907180 11.291850 550.718384
773 0 1 7.110963 10.626570 549.975281
774 0 1 7.083522 9.968140 549.234009
775 0 1 7.155530 9.380040 548.456299
776 0 1 6.919170 9.295210 547.407776
777 0 1 6.651470 9.537780 546.520081
778 0 1 6.591550 9.962111 545.671692
779 0 1 6.661490 10.325680 544.820984
780 0 1 7.076759 10.572001 543.998779
781 0 1 7.305974 10.284240 543.108398
782 0 1 7.409397 9.825730 542.216492
783 0 1 7.565318 9.586580 541.347595
784 0 1 7.788419 9.577800 540.404785
785 0 1 7.862414 9.401670 539.467590
786 0 1 7.816932 9.151520 538.540283
787 0 1 7.647832 8.662991 537.718872
788 0 1 7.598718 7.991004 536.997375
789 0 1 7.428240 7.418556 536.164917
790 0 1 7.369671 6.759560 535.434082