LAMMPS data file via MDAnalysis

        1000  atoms
        1000  bonds
        1000  angles
           0  dihedrals
           0  impropers

           1  atom types
           1  bond types
           1  angle types
           0  dihedral types
           0  improper types

0.000000 16.000000 xlo xhi
0.000000 16.000000 ylo yhi
0.000000 1257.000000 zlo zhi


Masses

1 1.000000

Atoms

1 0 1 12.094980 7.246742 449.339996
2 0 1 12.112590 7.334099 450.257019
3 0 1 12.210260 7.329541 451.208008
4 0 1 12.429220 7.116613 452.106018
5 0 1 12.619720 6.722540 452.924011
6 0 1 12.996180 6.279570 453.660004
7 0 1 13.198470 5.998950 454.537994
8 0 1 13.071950 5.500760 455.377991
9 0 1 12.691460 5.210520 456.179016
10 0 1 12.346880 4.759670 457.018005
11 0 1 12.223970 4.514410 457.927979
12 0 1 12.063360 4.216230 458.812012
13 0 1 12.042390 4.055680 459.789978
14 0 1 11.690320 4.154200 460.687012
15 0 1 11.408220 4.336460 461.625000
16 0 1 11.283680 4.069670 462.539001
17 0 1 11.184120 3.729680 463.444000
18 0 1 10.972710 3.348140 464.283020
19 0 1 11.080490 3.202390 465.226013
20 0 1 11.300970 3.293600 466.164978
21 0 1 11.422640 3.630480 467.102997
22 0 1 11.342100 4.017650 467.994019
23 0 1 11.016460 4.804040 468.515015
24 0 1 10.628550 5.397990 469.095001
25 0 1 10.218920 6.033790 469.593994
26 0 1 9.507540 6.713290 469.929016
27 0 1 8.794563 7.232557 470.279999
28 0 1 8.300677 7.878625 470.708008
29 0 1 8.083084 8.573080 471.386993
30 0 1 7.874681 9.125490 472.122009
31 0 1 7.977971 9.713280 472.864014
32 0 1 8.238128 10.099560 473.755981
33 0 1 8.601373 10.079280 474.716003
34 0 1 8.957757 9.936000 475.588989
35 0 1 9.340150 9.629310 476.489990
36 0 1 9.773620 9.541560 477.398987
37 0 1 10.064010 9.492850 478.339996
38 0 1 10.187571 9.217980 479.312012
39 0 1 10.168620 8.844607 480.173004
40 0 1 10.336850 8.476903 481.114014
41 0 1 10.311430 8.452890 482.065002
42 0 1 10.154690 8.304314 483.035004
43 0 1 9.956640 8.090844 483.945007
44 0 1 9.809060 7.805908 484.854004
45 0 1 9.978320 7.582652 485.779999
46 0 1 10.215570 7.423717 486.768005
47 0 1 10.216530 7.139043 487.661987
48 0 1 10.341040 7.068407 488.627014
49 0 1 10.352240 6.941780 489.588989
50 0 1 10.113920 6.967480 490.541992
51 0 1 9.791380 6.936370 491.500000
52 0 1 9.755990 7.036619 492.462006
53 0 1 9.897610 7.558488 493.266998
54 0 1 9.971700 8.054743 494.065979
55 0 1 9.985400 8.575268 494.890991
56 0 1 10.181840 9.190010 495.575989
57 0 1 10.123830 9.760120 496.330994
58 0 1 10.296000 10.139200 497.169006
59 0 1 10.334520 10.561290 498.070984
60 0 1 10.349170 10.818460 498.971008
61 0 1 10.264900 11.137970 499.921997
62 0 1 10.178680 11.490440 500.833984
63 0 1 9.923690 12.044550 501.593018
64 0 1 9.506070 12.475060 502.316010
65 0 1 9.255040 12.711480 503.278992
66 0 1 9.193720 12.922359 504.220001
67 0 1 9.057120 13.325790 505.040009
68 0 1 9.079870 13.546880 505.996002
69 0 1 9.306280 13.891860 506.804016
70 0 1 9.649170 13.896430 507.733002
71 0 1 9.720530 13.878059 508.656006
72 0 1 9.649450 13.812180 509.597992
73 0 1 9.743550 13.548850 510.559998
74 0 1 9.648510 13.632410 511.516998
75 0 1 9.757550 13.305850 512.434998
76 0 1 9.568410 12.857440 513.266968
77 0 1 9.582970 12.842600 514.265015
78 0 1 9.544500 12.724470 515.244995
79 0 1 9.835530 13.004650 516.135986
80 0 1 10.023581 13.114010 517.042969
81 0 1 10.482480 13.094410 518.033020
82 0 1 10.884610 12.737190 518.770996
83 0 1 11.097490 12.177020 519.528992
84 0 1 10.976490 11.480950 520.195984
85 0 1 11.027360 10.826469 520.908997
86 0 1 11.011380 10.450500 521.843994
87 0 1 11.314199 10.542910 522.739014
88 0 1 11.477100 10.535379 523.669006
89 0 1 11.547900 10.678930 524.609985
90 0 1 11.623590 10.790960 525.591980
91 0 1 11.725349 11.210690 526.497009
92 0 1 11.924520 11.403800 527.447021
93 0 1 12.189870 11.475850 528.364014
94 0 1 12.205009 11.604660 529.378601
95 0 1 12.002970 11.343570 530.256287
96 0 1 11.934700 10.701580 531.038086
97 0 1 12.266520 10.190210 531.741394
98 0 1 12.703091 9.715770 532.451294
99 0 1 12.945930 9.135180 533.211487
100 0 1 12.873020 8.716185 534.113220
101 0 1 12.727500 8.081237 534.868408
102 0 1 12.701930 7.506435 535.663025
103 0 1 12.737890 7.191916 536.603821
104 0 1 12.775380 6.948890 537.551208
105 0 1 12.906370 6.972200 538.526611
106 0 1 12.785180 6.715890 539.471191
107 0 1 12.960230 6.712810 540.413391
108 0 1 12.908760 6.746950 541.401184
109 0 1 12.641270 6.498390 542.286133
110 0 1 12.282450 6.314720 543.162292
111 0 1 11.825360 6.194250 544.048828
112 0 1 11.358860 6.002980 544.998413
113 0 1 10.733140 5.976010 545.777283
114 0 1 10.040310 5.903300 546.453308
115 0 1 9.503300 5.829770 547.219971
116 0 1 9.187210 5.659400 548.110596
117 0 1 8.960571 5.849600 549.047607
118 0 1 8.933517 6.299650 549.839600
119 0 1 8.645436 7.017534 550.384583
120 0 1 8.198948 7.667038 550.964966
121 0 1 7.692068 8.390651 551.462891
122 0 1 6.956270 8.785921 552.050476
123 0 1 6.335490 9.237790 552.687866
124 0 1 5.893920 9.451380 553.522705
125 0 1 5.355890 9.475680 554.346924
126 0 1 4.878760 9.413790 555.203491
127 0 1 4.185740 9.366820 555.906921
128 0 1 3.747220 9.084330 556.754578
129 0 1 3.391470 8.548705 557.481201
130 0 1 3.186980 8.212880 558.359985
131 0 1 2.935750 7.647832 559.097900
132 0 1 3.178060 7.118070 559.889587
133 0 1 3.241700 6.548510 560.588623
134 0 1 3.554880 5.900870 561.247498
135 0 1 3.764810 5.029370 561.671875
136 0 1 3.826500 4.144610 562.081909
137 0 1 3.867230 3.366200 562.666809
138 0 1 4.102660 2.783750 563.389771
139 0 1 4.514040 2.553090 564.317383
140 0 1 4.822420 2.246340 565.216309
141 0 1 5.127380 2.076310 566.044312
142 0 1 5.223950 2.017990 566.972168
143 0 1 5.198880 2.246590 567.889893
144 0 1 5.597260 2.400720 568.819824
145 0 1 6.279160 2.261180 569.453613
146 0 1 6.984280 1.979360 570.034424
147 0 1 7.183349 1.963220 570.930298
148 0 1 7.458198 1.746670 571.871582
149 0 1 7.619930 1.532060 572.799072
150 0 1 7.984766 1.411900 573.670776
151 0 1 8.086679 1.492960 574.668518
152 0 1 7.922335 1.814810 575.569824
153 0 1 7.471739 2.328740 576.197205
154 0 1 6.947910 2.645800 576.949219
155 0 1 6.560330 3.056480 577.838806
156 0 1 5.993660 3.457080 578.533325
157 0 1 5.788210 3.962170 579.330200
158 0 1 5.560470 4.524940 580.112488
159 0 1 5.593980 5.194460 580.727722
160 0 1 5.951170 5.886860 581.311401
161 0 1 6.103700 6.627540 581.928894
162 0 1 6.524520 7.276183 582.538025
163 0 1 6.739270 7.719333 583.388184
164 0 1 6.761860 8.300803 584.165527
165 0 1 7.139465 8.821975 584.891968
166 0 1 7.664168 9.043370 585.674500
167 0 1 8.250624 9.203320 586.434204
168 0 1 8.690949 9.322620 587.272583
169 0 1 9.071290 9.555260 588.104614
170 0 1 9.311590 9.818850 588.955872
171 0 1 9.516090 10.060380 589.891479
172 0 1 9.521280 10.171310 590.947998
173 0 1 9.496430 10.705130 591.753479
174 0 1 9.364660 11.224770 592.542969
175 0 1 8.979362 11.856190 593.338806
176 0 1 8.283162 12.150490 593.941589
177 0 1 7.578656 12.380130 594.524597
178 0 1 6.713450 12.538509 594.893616
179 0 1 5.838490 12.857690 595.032715
180 0 1 4.964150 13.059660 595.389099
181 0 1 4.186730 13.052620 595.979675
182 0 1 3.514280 12.991090 596.698303
183 0 1 2.970310 12.724670 597.476501
184 0 1 2.604000 12.107620 598.178711
185 0 1 2.706600 11.626880 598.962219
186 0 1 2.728670 11.076020 599.798523
187 0 1 2.734430 10.589251 600.604370
188 0 1 2.518840 10.173531 601.517029
189 0 1 2.612220 9.914100 602.437622
190 0 1 2.618660 9.813980 603.438171
191 0 1 2.925930 9.777140 604.385376
192 0 1 3.504090 9.803660 605.155090
193 0 1 4.221330 9.572890 605.843018
194 0 1 4.939670 9.601020 606.477478
195 0 1 5.728550 9.636610 607.079773
196 0 1 6.381600 9.941710 607.751831
197 0 1 7.177390 9.839200 608.251709
198 0 1 8.160560 9.725680 608.624390
199 0 1 9.010920 9.486340 609.071228
200 0 1 9.845110 9.501770 609.553772
201 0 1 10.722890 9.580500 609.910583
202 0 1 11.450340 9.777330 610.562927
203 0 1 12.029631 10.157470 611.215271
204 0 1 12.446470 10.354210 612.074402
205 0 1 12.649150 10.646270 612.950317
206 0 1 12.865400 11.004100 613.841431
207 0 1 12.884951 11.519000 614.622986
208 0 1 12.993760 11.960410 615.476196
209 0 1 13.166920 12.362539 616.359985
210 0 1 12.934320 12.590270 617.231689
211 0 1 12.471940 12.537210 618.099609
212 0 1 12.167430 12.084949 618.903137
213 0 1 11.715760 11.480400 619.481689
214 0 1 11.399220 11.101640 620.368835
215 0 1 10.986500 10.847980 621.208862
216 0 1 10.576281 10.537540 622.018372
217 0 1 9.971730 10.585400 622.785339
218 0 1 9.475090 10.581920 623.554810
219 0 1 9.225900 11.019540 624.341736
220 0 1 9.426870 11.245550 625.227844
221 0 1 9.560690 11.180030 626.117493
222 0 1 9.790820 11.284010 627.014587
223 0 1 9.821890 11.832930 627.813110
224 0 1 9.458740 12.043090 628.718445
225 0 1 8.840521 12.166400 629.453247
226 0 1 8.505568 12.570459 630.353943
227 0 1 8.197187 13.055140 631.145874
228 0 1 7.915764 13.472420 631.969421
229 0 1 7.672158 13.680710 632.949219
230 0 1 7.338269 13.669920 633.836853
231 0 1 7.110719 13.596420 634.760864
232 0 1 6.831180 13.356780 635.660645
233 0 1 6.766010 12.904449 636.509705
234 0 1 6.832770 12.546230 637.373901
235 0 1 6.713900 12.029540 638.168579
236 0 1 6.532920 11.532810 638.948425
237 0 1 6.226240 10.986970 639.674927
238 0 1 5.858810 10.561990 640.480774
239 0 1 5.969980 10.332640 641.406006
240 0 1 6.201790 9.948410 642.270874
241 0 1 6.659250 9.765530 643.068420
242 0 1 7.010097 9.478390 643.986023
243 0 1 7.412119 8.979567 644.725220
244 0 1 7.973917 8.554125 645.414612
245 0 1 8.539455 8.313986 646.221619
246 0 1 8.967258 8.126248 647.044983
247 0 1 9.251500 7.747199 647.948120
248 0 1 9.508780 7.432133 648.821716
249 0 1 9.646370 7.090663 649.668579
250 0 1 9.669650 6.729410 650.546997
251 0 1 9.663100 6.409390 651.473694
252 0 1 9.640460 5.898890 652.375977
253 0 1 9.638690 5.364150 653.253418
254 0 1 9.539660 4.707790 653.968628
255 0 1 9.547490 4.101100 654.718384
256 0 1 9.672370 3.486080 655.485779
257 0 1 9.792530 3.273860 656.459473
258 0 1 9.967480 2.998280 657.388672
259 0 1 9.814760 2.857160 658.318115
260 0 1 9.755920 2.828630 659.291321
261 0 1 9.792160 2.692130 660.208801
262 0 1 9.825760 2.478790 661.115112
263 0 1 10.006420 2.306410 662.028320
264 0 1 9.775290 1.890870 662.959106
265 0 1 9.482660 1.560990 663.816589
266 0 1 9.084270 1.224560 664.600098
267 0 1 8.858322 1.172670 665.523010
268 0 1 8.686199 1.227490 666.467529
269 0 1 8.511440 1.506060 667.377380
270 0 1 8.576339 1.649800 668.321289
271 0 1 8.565482 2.015960 669.254700
272 0 1 8.731164 2.033070 670.231323
273 0 1 9.118740 2.045450 671.143005
274 0 1 9.275160 2.249690 672.074524
275 0 1 9.318260 2.148120 673.023071
276 0 1 9.106270 2.277620 673.977295
277 0 1 9.055720 2.235820 674.979187
278 0 1 9.034430 2.261520 675.963013
279 0 1 8.869350 2.555530 676.894775
280 0 1 8.853054 2.992010 677.680603
281 0 1 9.081400 3.722920 678.317017
282 0 1 9.228310 4.510140 678.933716
283 0 1 9.525340 5.305890 679.424988
284 0 1 9.872640 6.105830 679.811584
285 0 1 10.063740 6.966730 679.764709
286 0 1 10.302480 7.950993 679.871399
287 0 1 10.605260 8.762482 680.391418
288 0 1 10.524730 9.527990 681.019775
289 0 1 10.555880 10.154670 681.813232
290 0 1 10.716380 10.783910 682.546997
291 0 1 10.831470 11.545200 683.189819
292 0 1 10.993629 12.312520 683.736023
293 0 1 11.064140 12.986330 684.483398
294 0 1 11.096070 13.613710 685.188721
295 0 1 11.233800 13.883810 686.093018
296 0 1 11.526910 13.868629 687.035278
297 0 1 11.613860 13.840950 687.961182
298 0 1 11.608140 13.348420 688.783997
299 0 1 11.755890 12.714680 689.603882
300 0 1 11.602230 12.090520 690.249023
301 0 1 11.447510 11.282650 690.761108
302 0 1 11.223080 10.502890 691.237488
303 0 1 10.938490 9.683810 691.619995
304 0 1 10.545310 8.759018 691.731506
305 0 1 10.593140 7.780879 691.662476
306 0 1 10.851200 6.863520 691.590820
307 0 1 11.091420 5.949180 691.765991
308 0 1 11.205320 5.039890 692.219482
309 0 1 11.288120 4.296400 692.887207
310 0 1 11.368890 3.774270 693.659790
311 0 1 11.534110 3.542660 694.580505
312 0 1 11.655790 3.350350 695.530884
313 0 1 11.541950 3.217480 696.461121
314 0 1 11.425030 3.210830 697.440125
315 0 1 11.444450 2.967410 698.374695
316 0 1 11.180300 3.147410 699.317871
317 0 1 10.847020 3.421390 700.143433
318 0 1 10.505620 3.829750 700.909180
319 0 1 9.835140 4.112350 701.567871
320 0 1 9.559530 4.250100 702.504578
321 0 1 9.590750 4.488990 703.441101
322 0 1 9.402790 4.904720 704.328491
323 0 1 9.204540 5.214010 705.212891
324 0 1 9.059620 5.532480 706.114868
325 0 1 9.128660 5.902620 706.994202
326 0 1 9.422860 6.371560 707.773926
327 0 1 9.853130 6.921680 708.515686
328 0 1 10.126050 7.400349 709.282104
329 0 1 10.297980 7.820315 710.176025
330 0 1 10.131690 8.181221 711.059692
331 0 1 9.900930 8.290603 711.947083
332 0 1 9.788490 8.425091 712.823303
333 0 1 9.812730 8.566660 713.825073
334 0 1 9.601670 8.622289 714.726501
335 0 1 9.226020 8.684339 715.605469
336 0 1 8.957739 8.799082 716.542786
337 0 1 8.922780 8.946203 717.472412
338 0 1 8.923519 9.400970 718.325500
339 0 1 8.918522 9.814160 719.178406
340 0 1 9.411520 10.258739 719.890381
341 0 1 9.797970 10.476820 720.689087
342 0 1 10.049400 10.482370 721.609924
343 0 1 10.339790 10.429180 722.547791
344 0 1 10.720390 10.318250 723.426819
345 0 1 11.163830 10.468520 724.208618
346 0 1 11.374630 10.525351 725.150208
347 0 1 11.537690 10.491190 726.122681
348 0 1 11.727551 10.224751 727.078369
349 0 1 12.126440 10.027500 727.979492
350 0 1 11.941130 9.837980 728.989990
351 0 1 11.636090 9.689820 729.862976
352 0 1 11.437580 9.357860 730.714966
353 0 1 11.302880 8.922917 731.562012
354 0 1 10.910010 8.596252 732.375000
355 0 1 10.503090 8.033327 733.031006
356 0 1 10.289770 7.689301 733.851013
357 0 1 10.115340 7.126415 734.650024
358 0 1 9.996590 6.553090 735.416992
359 0 1 9.969860 6.214890 736.314026
360 0 1 9.763590 5.798420 737.242004
361 0 1 9.780160 5.366950 738.103027
362 0 1 10.097580 5.062510 739.002014
363 0 1 10.274830 4.468150 739.713013
364 0 1 10.460051 4.308780 740.687988
365 0 1 10.531910 4.023120 741.609009
366 0 1 10.364590 3.725130 742.461975
367 0 1 9.906520 3.455350 743.260986
368 0 1 9.470560 3.102410 744.101990
369 0 1 9.329620 2.986950 745.052979
370 0 1 8.946429 2.987730 745.903992
371 0 1 8.295345 3.114120 746.567017
372 0 1 7.938485 3.490530 747.367981
373 0 1 7.668823 3.820800 748.216003
374 0 1 7.567220 4.009840 749.255981
375 0 1 7.396569 4.324290 750.145020
376 0 1 7.226949 4.543580 751.115967
377 0 1 7.103395 4.777130 752.080017
378 0 1 6.952660 4.858370 753.035034
379 0 1 6.588060 4.802990 753.960999
380 0 1 6.131830 4.703170 754.882019
381 0 1 5.741900 4.388520 755.705017
382 0 1 5.483930 4.198020 756.588013
383 0 1 5.290500 3.973470 757.502014
384 0 1 5.059220 3.690890 758.406982
385 0 1 4.884860 3.469630 759.359985
386 0 1 4.838950 3.229840 760.370972
387 0 1 4.845030 3.215140 761.344971
388 0 1 4.937750 3.194870 762.322021
389 0 1 5.110440 3.160910 763.250000
390 0 1 5.599250 3.275500 764.072998
391 0 1 5.933120 3.308540 764.969971
392 0 1 6.291690 3.423870 765.853027
393 0 1 6.691690 3.517310 766.809998
394 0 1 6.642970 3.680080 767.775024
395 0 1 6.670560 3.995920 768.718018
396 0 1 6.631240 4.084150 769.687988
397 0 1 6.980220 3.953900 770.526001
398 0 1 7.117285 3.914070 771.468018
399 0 1 7.269606 3.858780 772.393005
400 0 1 7.452186 3.849970 773.358032
401 0 1 7.481527 3.863040 774.281982
402 0 1 7.534687 3.705340 775.221985
403 0 1 7.570558 3.388580 776.109985
404 0 1 7.617076 3.380760 777.098999
405 0 1 7.408446 3.723900 777.912964
406 0 1 7.344064 4.384050 778.726990
407 0 1 7.267812 5.099690 779.356018
408 0 1 7.007581 5.522460 780.158997
409 0 1 7.020553 6.011380 780.953003
410 0 1 7.223813 6.505510 781.780029
411 0 1 7.327970 6.891000 782.747009
412 0 1 7.546281 6.981860 783.695984
413 0 1 7.588702 6.842270 784.674988
414 0 1 7.628099 6.492750 785.578979
415 0 1 7.850341 6.285730 786.484009
416 0 1 8.068182 6.536620 787.463989
417 0 1 8.458987 6.831280 788.265015
418 0 1 8.587053 7.167574 789.114014
419 0 1 8.614896 7.732051 789.858032
420 0 1 8.975622 8.329791 790.570984
421 0 1 9.007020 9.107720 791.171997
422 0 1 9.272050 9.752470 791.778015
423 0 1 9.756800 9.987920 792.563965
424 0 1 9.883980 10.197470 793.500977
425 0 1 10.173560 10.095200 794.455017
426 0 1 10.425240 10.106940 795.395020
427 0 1 10.627390 10.236731 796.377991
428 0 1 10.822230 10.312370 797.286987
429 0 1 10.751850 10.381599 798.208008
430 0 1 10.736790 10.260099 799.151978
431 0 1 10.739400 9.792420 799.968018
432 0 1 10.583150 9.527500 800.911011
433 0 1 10.197130 9.214340 801.765991
434 0 1 10.054960 8.945388 802.643005
435 0 1 9.721330 9.170290 803.533997
436 0 1 9.634050 9.582820 804.463013
437 0 1 9.200930 9.864180 805.323975
438 0 1 8.744000 10.335730 806.046997
439 0 1 8.221934 10.679461 806.789001
440 0 1 7.634924 10.939890 807.535034
441 0 1 6.964730 11.263900 808.195007
442 0 1 6.314860 11.300200 808.938965
443 0 1 5.825470 11.131741 809.786987
444 0 1 5.762840 10.880230 810.766968
445 0 1 5.909500 10.469990 811.588013
446 0 1 5.997210 9.989240 812.401001
447 0 1 6.314290 9.607660 813.234985
448 0 1 6.607930 9.236410 814.010986
449 0 1 6.973520 8.943943 814.888000
450 0 1 7.457800 8.849293 815.695007
451 0 1 7.635445 8.740871 816.596985
452 0 1 7.259511 8.752537 817.497009
453 0 1 7.089277 8.961845 818.445007
454 0 1 6.666690 8.812855 819.221008
455 0 1 6.236760 8.701439 820.197998
456 0 1 5.919840 8.520314 821.112000
457 0 1 5.674520 8.293402 822.025024
458 0 1 5.414490 7.921189 822.932983
459 0 1 5.378190 7.544479 823.877991
460 0 1 5.358900 7.202265 824.734009
461 0 1 5.396340 6.570440 825.497986
462 0 1 5.249490 6.088990 826.356018
463 0 1 5.145720 5.774960 827.276001
464 0 1 4.770510 5.893690 828.146973
465 0 1 4.869660 6.269450 829.200012
466 0 1 5.006460 6.480160 830.140015
467 0 1 5.383960 6.971700 830.837036
468 0 1 5.445980 7.588481 831.660034
469 0 1 5.363690 8.268479 832.328003
470 0 1 5.439870 9.241090 832.731995
471 0 1 5.886940 10.092400 832.801025
472 0 1 6.608520 10.728240 832.815979
473 0 1 7.400726 11.327579 832.937988
474 0 1 8.275347 11.683610 832.734985
475 0 1 9.096210 11.865840 832.327026
476 0 1 9.634140 12.088570 831.606018
477 0 1 10.015990 12.237010 830.632019
478 0 1 9.961130 12.222031 829.617004
479 0 1 9.644250 12.016240 828.726013
480 0 1 9.365690 11.865760 827.791016
481 0 1 9.266760 12.059851 826.789001
482 0 1 9.250110 12.135281 825.888000
483 0 1 9.075340 11.928740 825.036011
484 0 1 9.282330 11.509310 824.192017
485 0 1 9.519440 11.384270 823.239990
486 0 1 9.686560 10.864630 822.447998
487 0 1 10.125590 10.426550 821.705017
488 0 1 10.847190 9.973460 821.273987
489 0 1 11.375401 9.258820 820.796021
490 0 1 11.792800 8.473397 820.354004
491 0 1 12.095350 7.692509 819.849976
492 0 1 12.054110 6.751440 819.617004
493 0 1 11.808620 5.907760 819.213989
494 0 1 11.674970 5.211510 818.612000
495 0 1 11.524820 4.514070 817.919983
496 0 1 11.443850 4.060230 817.075012
497 0 1 11.334190 3.708990 816.169006
498 0 1 11.198730 3.480410 815.259033
499 0 1 11.241110 3.482780 814.317993
500 0 1 10.971600 3.719960 813.384033
501 0 1 10.507000 4.122190 812.620972
502 0 1 10.169790 4.514860 811.693970
503 0 1 9.807510 4.810940 810.823975
504 0 1 9.230280 5.211830 810.182983
505 0 1 8.375765 5.383480 809.818970
506 0 1 7.553081 5.577660 809.468018
507 0 1 6.796360 5.861490 808.943970
508 0 1 6.085290 6.203940 808.406006
509 0 1 5.489400 6.498820 807.731018
510 0 1 5.030080 7.102448 807.138000
511 0 1 4.979510 7.667377 806.356995
512 0 1 5.084710 8.103146 805.453979
513 0 1 5.464260 8.356070 804.609985
514 0 1 5.898810 8.596172 803.755005
515 0 1 6.297440 8.968783 802.926025
516 0 1 6.660580 9.087720 802.036987
517 0 1 6.900830 9.308000 801.124023
518 0 1 6.888920 9.456400 800.156982
519 0 1 6.867660 9.637750 799.260010
520 0 1 7.120592 9.722630 798.317993
521 0 1 7.304381 9.576410 797.385010
522 0 1 7.267436 9.201210 796.531006
523 0 1 7.068255 8.580951 795.833008
524 0 1 6.932300 7.986245 795.068970
525 0 1 6.860720 7.628960 794.188965
526 0 1 6.982260 7.584827 793.203003
527 0 1 6.918040 7.478228 792.239990
528 0 1 6.863290 7.546928 791.346985
529 0 1 7.132791 7.671011 790.390991
530 0 1 7.357273 7.887266 789.510986
531 0 1 7.473478 7.984965 788.568970
532 0 1 7.600947 8.000030 787.559021
533 0 1 7.363603 8.034641 786.612000
534 0 1 7.132587 8.232876 785.648987
535 0 1 6.479690 8.294941 784.914001
536 0 1 5.916820 8.329075 784.119995
537 0 1 5.408160 8.755060 783.426025
538 0 1 5.092010 8.705963 782.516968
539 0 1 4.485520 8.700721 781.786987
540 0 1 3.764000 8.605002 781.143005
541 0 1 3.126180 8.288056 780.492981
542 0 1 2.677860 8.232360 779.646973
543 0 1 2.556340 8.503577 778.764038
544 0 1 2.549970 8.617458 777.837036
545 0 1 2.583950 8.651364 776.837036
546 0 1 2.715290 8.498831 775.893982
547 0 1 2.888420 8.366541 774.945984
548 0 1 3.226270 8.164453 774.101013
549 0 1 3.592980 8.247863 773.234009
550 0 1 3.909500 8.524889 772.379028
551 0 1 4.439270 8.987875 771.764038
552 0 1 4.763190 9.343370 770.971008
553 0 1 4.789890 9.793630 770.062988
554 0 1 4.512860 10.261460 769.322021
555 0 1 4.179990 10.746710 768.562988
556 0 1 4.058790 11.052310 767.648987
557 0 1 4.158310 11.314640 766.692017
558 0 1 4.052550 11.360570 765.776001
559 0 1 3.725580 11.151270 764.924988
560 0 1 3.420640 11.042440 764.046021
561 0 1 3.299060 11.072860 763.054993
562 0 1 3.104140 11.148370 762.135010
563 0 1 2.672820 11.174840 761.210999
564 0 1 2.651020 11.078630 760.184021
565 0 1 2.928720 10.639339 759.351990
566 0 1 3.119170 10.172400 758.419983
567 0 1 3.408470 9.832560 757.610962
568 0 1 3.651910 9.406720 756.726990
569 0 1 3.901900 8.847993 755.968994
570 0 1 4.016160 8.188334 755.268982
571 0 1 3.911830 7.526964 754.518005
572 0 1 3.699450 7.240045 753.604980
573 0 1 3.428800 7.105440 752.734009
574 0 1 3.243240 6.848290 751.785034
575 0 1 3.364680 6.337110 750.989014
576 0 1 3.514300 5.860800 750.051025
577 0 1 3.539280 5.447820 749.213989
578 0 1 3.247170 5.121870 748.393005
579 0 1 3.163300 5.178850 747.463013
580 0 1 3.055280 5.322920 746.578979
581 0 1 2.946650 5.360790 745.612000
582 0 1 3.147390 5.523060 744.705994
583 0 1 3.413320 5.642270 743.768982
584 0 1 3.508220 5.630770 742.869995
585 0 1 3.578440 5.672810 741.870972
586 0 1 3.448890 5.861290 740.818970
587 0 1 3.526690 6.346600 739.992981
588 0 1 3.928240 6.838000 739.263000
589 0 1 4.454280 7.454421 738.723022
590 0 1 5.031920 8.090252 738.247986
591 0 1 5.684260 8.759221 737.856018
592 0 1 6.237880 9.391470 737.244019
593 0 1 7.010119 9.696140 736.726013
594 0 1 7.711143 9.956900 736.114990
595 0 1 8.359900 10.118870 735.455994
596 0 1 8.824870 10.179740 734.619019
597 0 1 9.365370 10.402650 733.814026
598 0 1 9.796650 10.474550 732.981995
599 0 1 10.229720 10.340110 732.112000
600 0 1 10.376340 10.054940 731.174011
601 0 1 10.271420 9.565770 730.375000
602 0 1 10.012150 9.202260 729.570007
603 0 1 9.721100 8.791311 728.723022
604 0 1 9.601190 8.592620 727.765381
605 0 1 9.444890 8.275925 726.843689
606 0 1 9.153850 7.918814 726.025513
607 0 1 8.763240 8.107351 725.131409
608 0 1 8.593003 8.251417 724.154480
609 0 1 8.546207 8.280641 723.147888
610 0 1 8.384777 8.344633 722.192383
611 0 1 8.091200 8.054554 721.299316
612 0 1 7.789038 7.988902 720.440308
613 0 1 7.308603 7.929264 719.594421
614 0 1 6.692090 7.805807 718.834595
615 0 1 6.284820 7.479468 717.927307
616 0 1 5.705300 7.289957 717.163574
617 0 1 5.050920 7.293026 716.398193
618 0 1 4.693840 7.798772 715.611694
619 0 1 4.660260 8.388079 714.867981
620 0 1 4.551950 8.842580 713.953979
621 0 1 4.430650 9.085020 713.013916
622 0 1 4.434110 9.063300 712.066101
623 0 1 4.421640 9.124590 711.123901
624 0 1 4.492340 9.314310 710.197205
625 0 1 4.546900 9.154630 709.291382
626 0 1 4.764550 8.792051 708.295715
627 0 1 5.171650 8.431474 707.501282
628 0 1 5.640660 8.111860 706.648987
629 0 1 5.886330 7.864185 705.731567
630 0 1 6.046590 7.536581 704.755981
631 0 1 6.234820 6.870740 704.104187
632 0 1 6.551210 6.113840 703.513123
633 0 1 6.971380 5.846870 702.653015
634 0 1 7.454521 5.540040 701.859680
635 0 1 7.593958 5.524460 700.926208
636 0 1 7.643843 5.693850 699.927917
637 0 1 7.507063 5.964330 698.982117
638 0 1 7.366414 6.184140 698.081177
639 0 1 7.289130 6.519900 697.186401
640 0 1 7.041778 6.832980 696.276733
641 0 1 6.833980 7.087957 695.366699
642 0 1 6.606140 7.457313 694.496277
643 0 1 6.307320 7.717766 693.592712
644 0 1 6.192030 8.181094 692.682800
645 0 1 6.227720 8.637614 691.800110
646 0 1 6.272010 9.035880 690.898987
647 0 1 6.347360 9.251910 689.911194
648 0 1 6.691100 9.542570 689.067383
649 0 1 7.007381 10.271151 688.314026
650 0 1 7.529804 10.654181 687.677795
651 0 1 7.885513 10.820150 686.845276
652 0 1 8.145387 10.947400 685.888000
653 0 1 8.300113 10.941800 684.940979
654 0 1 8.771100 11.154730 684.061401
655 0 1 9.143000 11.573330 683.189331
656 0 1 9.427629 12.181140 682.492310
657 0 1 9.543450 12.810141 681.758423
658 0 1 9.451730 13.382750 680.967224
659 0 1 9.433850 13.763480 680.033997
660 0 1 9.187330 14.227261 679.245972
661 0 1 8.744799 14.326099 678.493591
662 0 1 8.062079 14.605249 677.874512
663 0 1 7.568259 14.562110 677.018677
664 0 1 7.299062 14.282150 676.148193
665 0 1 7.199951 14.140640 675.219421
666 0 1 6.933830 13.696070 674.412109
667 0 1 6.613490 13.360140 673.577515
668 0 1 6.171880 13.303480 672.655396
669 0 1 5.901480 13.225140 671.747681
670 0 1 5.807230 13.088631 670.673828
671 0 1 5.997940 12.770700 669.728516
672 0 1 6.393550 12.612209 668.869629
673 0 1 7.006941 12.398410 668.160522
674 0 1 7.422538 12.108680 667.383972
675 0 1 7.989250 11.737890 666.630920
676 0 1 8.596664 11.396370 665.966431
677 0 1 8.953801 10.913680 665.194275
678 0 1 9.307580 10.267640 664.557678
679 0 1 9.592630 9.940400 663.738770
680 0 1 9.780610 9.565550 662.853271
681 0 1 9.845650 9.578590 661.921021
682 0 1 9.868190 9.238120 661.011719
683 0 1 10.004370 8.897028 660.136292
684 0 1 10.151979 8.850305 659.210205
685 0 1 10.137390 8.761497 658.152222
686 0 1 10.231310 8.605886 657.199585
687 0 1 10.285650 8.451004 656.318787
688 0 1 10.341730 8.254400 655.374695
689 0 1 10.243900 8.289868 654.366882
690 0 1 10.249550 8.344710 653.417114
691 0 1 10.436560 8.520219 652.496887
692 0 1 10.604910 8.829749 651.578003
693 0 1 10.610870 9.301840 650.741699
694 0 1 10.532960 9.565560 649.802429
695 0 1 10.200320 9.725760 648.897095
696 0 1 9.948290 9.719450 647.971008
697 0 1 9.878640 9.744490 647.036682
698 0 1 9.911540 9.745530 646.067871
699 0 1 9.789160 9.978390 645.097290
700 0 1 9.627769 10.066010 644.153198
701 0 1 9.671820 10.077700 643.224792
702 0 1 9.717660 9.947200 642.290405
703 0 1 9.718719 9.877860 641.365479
704 0 1 9.732650 9.963449 640.453674
705 0 1 9.901020 9.875370 639.558411
706 0 1 10.323210 9.667521 638.659912
707 0 1 10.797860 9.284740 637.913879
708 0 1 11.103460 9.218650 636.950745
709 0 1 11.378400 9.071510 636.052856
710 0 1 11.493450 8.962359 635.147278
711 0 1 11.665000 9.036440 634.191284
712 0 1 11.562610 9.425860 633.260986
713 0 1 11.309270 9.939620 632.467957
714 0 1 11.316320 10.495110 631.646973
715 0 1 11.447870 10.795630 630.740540
716 0 1 11.494680 10.832120 629.780762
717 0 1 11.714500 10.654320 628.864929
718 0 1 12.048140 10.335740 627.992249
719 0 1 12.476580 9.998260 627.204468
720 0 1 12.738091 9.388560 626.520813
721 0 1 12.665400 8.654053 626.013184
722 0 1 12.536310 8.079206 625.286682
723 0 1 12.465390 7.681160 624.450806
724 0 1 12.494010 7.145094 623.630127
725 0 1 12.549780 6.500690 622.937744
726 0 1 12.614000 5.869200 622.287292
727 0 1 12.734440 5.349630 621.487183
728 0 1 12.716869 4.588800 620.914978
729 0 1 12.651190 3.875230 620.215149
730 0 1 12.642790 3.219200 619.489868
731 0 1 12.500940 2.860920 618.616638
732 0 1 12.185790 2.798710 617.625488
733 0 1 12.050170 2.935350 616.640991
734 0 1 11.930460 2.823590 615.636292
735 0 1 11.721380 2.908150 614.738525
736 0 1 11.267320 2.939440 613.900330
737 0 1 10.550080 2.965960 613.148071
738 0 1 9.819190 3.108650 612.500427
739 0 1 9.085110 3.383940 611.864380
740 0 1 8.420268 3.717480 611.273621
741 0 1 7.927616 3.915610 610.394775
742 0 1 7.431937 4.242970 609.640869
743 0 1 7.114451 4.640810 608.805420
744 0 1 7.033721 5.085560 607.953979
745 0 1 6.747110 5.381610 607.141418
746 0 1 6.612180 5.684870 606.251587
747 0 1 6.804890 5.755650 605.309814
748 0 1 6.983620 6.016690 604.376587
749 0 1 7.400502 6.145240 603.577087
750 0 1 7.751062 6.178980 602.611877
751 0 1 8.310619 6.514390 601.943176
752 0 1 8.728689 6.970880 601.098816
753 0 1 9.125130 7.536890 600.488220
754 0 1 9.474420 8.279974 600.021912
755 0 1 10.040140 8.904513 599.560120
756 0 1 10.587300 9.587980 599.133179
757 0 1 11.327370 9.831190 598.507996
758 0 1 12.022570 9.877410 597.828613
759 0 1 12.447070 10.018900 597.001526
760 0 1 12.766630 9.997040 596.055908
761 0 1 13.136550 9.746300 595.224731
762 0 1 13.261160 9.569040 594.241394
763 0 1 12.924370 9.360229 593.295898
764 0 1 12.867960 9.088120 592.394897
765 0 1 12.621040 8.911604 591.508179
766 0 1 12.268300 8.889523 590.593628
767 0 1 12.064119 8.936856 589.681885
768 0 1 11.670780 9.022600 588.815918
769 0 1 11.101830 8.838399 588.030212
770 0 1 10.729970 9.014510 587.178772
771 0 1 10.585590 9.475150 586.318176
772 0 1 10.438150 9.774890 585.333618
773 0 1 10.482861 10.043750 584.400391
774 0 1 10.232300 10.297029 583.523315
775 0 1 10.244470 10.424231 582.586304
776 0 1 10.034000 10.426070 581.611511
777 0 1 9.709280 10.300350 580.675293
778 0 1 9.900560 10.066800 579.777710
779 0 1 10.283990 9.422740 579.099731
780 0 1 10.690950 9.004340 578.301086
781 0 1 10.948220 8.528004 577.481689
782 0 1 11.051470 8.279456 576.579895
783 0 1 11.426670 8.191680 575.666626
784 0 1 11.933070 8.371863 574.843689
785 0 1 11.981730 8.821066 573.982483
786 0 1 11.972330 8.995730 573.064392
787 0 1 11.761420 9.364330 572.075378
788 0 1 11.530140 9.659781 571.179504
789 0 1 11.407650 9.633450 570.227478
790 0 1 11.415319 9.693530 569.256775