LAMMPS data file via MDAnalysis

        1000  atoms
        1000  bonds
        1000  angles
           0  dihedrals
           0  impropers

           1  atom types
           1  bond types
           1  angle types
           0  dihedral types
           0  improper types

0.000000 16.000000 xlo xhi
0.000000 16.000000 ylo yhi
0.000000 1257.000000 zlo zhi


Masses

1 1.000000

Atoms

1 0 1 9.041759 6.726010 475.882019
2 0 1 9.651250 6.322020 476.604004
3 0 1 10.123050 6.111420 477.429993
4 0 1 10.659300 5.989430 478.229980
5 0 1 11.258270 6.018900 478.979980
6 0 1 11.805950 6.001650 479.712006
7 0 1 12.123250 6.029820 480.656982
8 0 1 12.587680 6.069980 481.585022
9 0 1 13.089410 5.956070 482.367981
10 0 1 13.092560 5.752710 483.252991
11 0 1 12.912840 5.692290 484.169983
12 0 1 12.830660 5.913630 485.093994
13 0 1 12.922350 6.331510 485.997009
14 0 1 13.094790 6.822430 486.798004
15 0 1 13.050570 7.431271 487.614990
16 0 1 12.710711 7.924969 488.369019
17 0 1 12.322350 8.411832 489.067017
18 0 1 12.401170 9.062030 489.735992
19 0 1 12.557350 9.663960 490.460999
20 0 1 12.579130 10.229530 491.274994
21 0 1 12.302481 10.831690 491.953003
22 0 1 12.246130 11.430250 492.740997
23 0 1 12.377270 11.727870 493.645996
24 0 1 12.143220 11.715170 494.524994
25 0 1 11.760469 11.733740 495.424988
26 0 1 11.497400 11.906500 496.367004
27 0 1 11.008360 11.917010 497.226013
28 0 1 10.720819 11.958440 498.145996
29 0 1 10.445580 11.610130 498.981018
30 0 1 10.098170 11.423400 499.789978
31 0 1 9.565660 10.974010 500.434021
32 0 1 9.167200 10.825920 501.260010
33 0 1 8.922047 10.647760 502.177002
34 0 1 8.675563 10.361340 503.092010
35 0 1 8.419192 10.086160 503.955017
36 0 1 7.777495 9.860860 504.665009
37 0 1 7.251406 9.663090 505.463013
38 0 1 6.827200 9.728060 506.253998
39 0 1 6.499190 9.621600 507.143982
40 0 1 6.220560 9.792160 508.015991
41 0 1 5.691880 9.922000 508.800995
42 0 1 4.976860 9.648780 509.496002
43 0 1 4.383750 9.366650 510.240997
44 0 1 4.087490 9.387350 511.166992
45 0 1 3.823040 9.019950 512.054993
46 0 1 3.765580 8.830783 513.012024
47 0 1 3.919480 8.540409 513.947021
48 0 1 4.315090 8.351937 514.841980
49 0 1 4.783880 8.026381 515.719971
50 0 1 4.747990 7.721014 516.611023
51 0 1 4.785660 7.346081 517.513000
52 0 1 4.726520 7.095693 518.460022
53 0 1 4.616360 7.436238 519.341003
54 0 1 4.706150 7.710427 520.262024
55 0 1 5.051580 8.021469 521.254028
56 0 1 5.320450 8.115319 522.214966
57 0 1 5.698580 8.588342 522.999023
58 0 1 6.215380 8.929940 523.729980
59 0 1 6.793220 9.135630 524.473022
60 0 1 7.337510 9.002290 525.216980
61 0 1 7.457670 8.695228 526.112976
62 0 1 7.713980 8.274806 526.971985
63 0 1 8.142398 7.761973 527.638977
64 0 1 8.776341 7.537830 528.379028
65 0 1 9.592060 7.405420 529.054199
66 0 1 10.020370 7.384617 529.904419
67 0 1 10.511090 7.269666 530.736328
68 0 1 10.989940 7.328323 531.524170
69 0 1 11.360130 7.205674 532.412231
70 0 1 11.514890 7.290353 533.386719
71 0 1 11.725230 7.317198 534.322876
72 0 1 11.683940 7.425502 535.300171
73 0 1 11.487710 7.579606 536.213013
74 0 1 11.245880 7.761773 537.155823
75 0 1 10.858000 8.148283 537.951599
76 0 1 10.429240 8.373475 538.819885
77 0 1 9.953960 8.704326 539.585205
78 0 1 9.365070 9.177850 540.109619
79 0 1 8.577217 9.476840 540.595703
80 0 1 7.673186 9.414130 541.025818
81 0 1 6.739840 9.392100 541.411011
82 0 1 5.851660 9.391109 541.866089
83 0 1 5.089390 9.590490 542.440491
84 0 1 4.354380 9.763500 543.064209
85 0 1 3.643810 9.757490 543.792908
86 0 1 3.107480 9.431980 544.580078
87 0 1 2.468100 9.075700 545.261108
88 0 1 2.064020 8.901197 546.117126
89 0 1 1.879990 8.553292 547.016907
90 0 1 1.607350 8.129917 547.853210
91 0 1 1.336140 7.932430 548.733582
92 0 1 1.451370 7.489099 549.687317
93 0 1 1.500080 7.095851 550.562012
94 0 1 1.578990 6.871470 551.472412
95 0 1 1.726660 6.716720 552.452026
96 0 1 1.638860 6.701180 553.360779
97 0 1 1.496250 6.568260 554.342102
98 0 1 1.369610 6.710940 555.261108
99 0 1 1.446010 6.830160 556.251282
100 0 1 1.925200 6.803690 557.102173
101 0 1 2.328880 6.722790 558.060303
102 0 1 2.852760 6.422640 558.851685
103 0 1 3.381440 6.077840 559.583313
104 0 1 3.876720 6.127800 560.391113
105 0 1 4.436620 6.321390 561.135925
106 0 1 5.024210 6.876750 561.770691
107 0 1 5.559430 7.251512 562.528625
108 0 1 5.908670 7.675468 563.323425
109 0 1 6.625130 7.772378 564.067688
110 0 1 7.423890 7.637608 564.636230
111 0 1 7.926137 7.376036 565.336792
112 0 1 8.547279 7.142164 566.044495
113 0 1 9.191850 6.764520 566.687988
114 0 1 9.880980 6.594560 567.359009
115 0 1 10.543780 6.587610 568.042908
116 0 1 11.055140 6.443580 568.931885
117 0 1 11.642190 6.435190 569.653503
118 0 1 12.265240 6.387250 570.500183
119 0 1 12.737420 6.224860 571.300293
120 0 1 13.296080 6.397080 572.027710
121 0 1 13.464769 6.746600 572.916077
122 0 1 13.106550 6.982760 573.799683
123 0 1 12.568810 7.206685 574.586609
124 0 1 12.064500 7.667142 575.323608
125 0 1 11.856070 7.954886 576.175598
126 0 1 11.608050 8.468903 576.988098
127 0 1 11.230930 8.943849 577.769409
128 0 1 10.980820 9.380440 578.616272
129 0 1 10.533791 9.932800 579.323914
130 0 1 10.444930 10.790680 579.742493
131 0 1 10.225620 11.626220 580.180420
132 0 1 10.019110 12.315510 580.830811
133 0 1 9.658660 12.773880 581.581116
134 0 1 9.225040 13.184050 582.391968
135 0 1 8.824735 13.383010 583.233032
136 0 1 8.430151 13.219640 584.075500
137 0 1 7.927502 12.898500 584.825989
138 0 1 7.491559 12.418480 585.521423
139 0 1 6.892830 12.235450 586.216980
140 0 1 6.385380 12.006440 586.951721
141 0 1 6.071700 11.600990 587.810608
142 0 1 5.821050 11.289050 588.725281
143 0 1 5.775690 11.078939 589.687012
144 0 1 5.908980 10.953020 590.680908
145 0 1 5.855540 10.835600 591.651123
146 0 1 5.691280 10.244970 592.459106
147 0 1 5.709630 9.946570 593.377808
148 0 1 5.857230 9.614850 594.268616
149 0 1 5.993970 9.355680 595.127502
150 0 1 6.123890 9.049720 595.968872
151 0 1 6.092360 8.716148 596.923889
152 0 1 5.930680 8.359433 597.772400
153 0 1 5.669450 7.806303 598.475220
154 0 1 5.535840 7.259510 599.227600
155 0 1 5.609390 6.720870 600.118713
156 0 1 5.799870 6.236320 600.937195
157 0 1 6.186890 5.716850 601.624695
158 0 1 6.586570 5.221620 602.400208
159 0 1 6.894230 5.034830 603.300293
160 0 1 7.012357 4.793680 604.179016
161 0 1 7.130829 4.398810 605.035217
162 0 1 7.189957 4.158490 605.985779
163 0 1 7.250967 4.225600 606.946411
164 0 1 7.000259 4.157620 607.887695
165 0 1 6.518400 4.135640 608.715515
166 0 1 5.873820 3.764870 609.436096
167 0 1 5.454910 3.566480 610.310791
168 0 1 5.260950 3.563370 611.288818
169 0 1 5.136460 3.334400 612.195984
170 0 1 5.006480 3.244100 613.157288
171 0 1 4.942900 3.021460 614.135193
172 0 1 5.054050 2.956650 615.123291
173 0 1 5.015160 2.914070 616.091919
174 0 1 4.970220 2.925220 617.060730
175 0 1 4.902180 2.775310 618.020691
176 0 1 4.771880 2.771170 618.945801
177 0 1 4.590550 2.822080 619.932007
178 0 1 4.488780 2.673610 620.868530
179 0 1 4.372940 2.469630 621.784546
180 0 1 4.645510 2.322100 622.717285
181 0 1 5.207470 2.430410 623.521851
182 0 1 5.759020 2.817810 624.155823
183 0 1 6.495900 3.181160 624.673950
184 0 1 7.049396 3.408340 625.411316
185 0 1 7.422664 3.843960 626.206299
186 0 1 7.598721 4.324370 627.069824
187 0 1 7.573101 4.763690 627.919312
188 0 1 7.600131 5.251500 628.738220
189 0 1 7.762799 5.823740 629.540588
190 0 1 7.652140 6.294900 630.438782
191 0 1 7.371116 6.628100 631.318176
192 0 1 7.146131 7.032342 632.212708
193 0 1 7.211626 7.594556 632.975403
194 0 1 7.158237 7.853125 633.880493
195 0 1 7.264937 8.365436 634.698120
196 0 1 7.394643 8.872682 635.525818
197 0 1 7.403944 9.430980 636.248840
198 0 1 7.352806 9.859300 637.092102
199 0 1 7.612194 10.265210 637.916199
200 0 1 7.722203 10.763760 638.680908
201 0 1 7.601098 11.136930 639.523315
202 0 1 7.566525 11.503150 640.380981
203 0 1 7.463959 12.055840 641.103821
204 0 1 7.566036 12.573980 641.892883
205 0 1 7.842138 13.091320 642.605774
206 0 1 8.485096 13.507900 643.257629
207 0 1 9.236390 13.870979 643.760681
208 0 1 9.894610 14.145531 644.385681
209 0 1 10.311729 14.252140 645.213318
210 0 1 10.856300 14.154409 646.039490
211 0 1 10.921180 14.081640 647.005981
212 0 1 10.911160 13.930290 647.947083
213 0 1 10.411449 13.783330 648.790710
214 0 1 10.076260 13.506200 649.652527
215 0 1 9.335040 13.128850 650.290283
216 0 1 9.054970 12.363810 650.881897
217 0 1 8.880869 11.742220 651.528381
218 0 1 8.369717 11.181380 652.179321
219 0 1 7.731262 10.727489 652.834473
220 0 1 7.090405 10.734540 653.622925
221 0 1 6.412670 10.842580 654.330200
222 0 1 6.020630 11.139620 655.127014
223 0 1 5.775460 11.214360 656.081787
224 0 1 5.273660 11.406500 656.877808
225 0 1 5.008220 11.167030 657.718994
226 0 1 4.910960 10.779990 658.615479
227 0 1 4.710650 10.348970 659.411377
228 0 1 4.466510 10.212009 660.375183
229 0 1 4.435920 9.974520 661.309875
230 0 1 4.391910 10.236190 662.234131
231 0 1 4.323920 10.491140 663.139404
232 0 1 4.300440 10.722321 664.093384
233 0 1 4.137180 10.939930 664.993896
234 0 1 4.226080 11.142920 665.902222
235 0 1 4.205080 11.545450 666.795532
236 0 1 4.280080 11.983140 667.657104
237 0 1 4.609390 12.358740 668.516602
238 0 1 4.745280 12.845631 669.355103
239 0 1 5.015560 13.256630 670.245789
240 0 1 5.191760 13.254690 671.230896
241 0 1 5.429270 13.224990 672.123108
242 0 1 5.442220 13.098890 673.088806
243 0 1 5.388430 12.937050 674.018188
244 0 1 5.147340 12.836201 674.966675
245 0 1 5.016670 12.670250 675.903931
246 0 1 4.651250 12.431129 676.767395
247 0 1 4.335860 12.635920 677.705017
248 0 1 4.245570 12.831261 678.614807
249 0 1 4.377710 13.008170 679.525696
250 0 1 4.606350 13.141260 680.478699
251 0 1 4.525650 13.234320 681.410889
252 0 1 4.649120 13.301910 682.347290
253 0 1 4.762350 13.147900 683.330078
254 0 1 4.858680 12.661430 684.174377
255 0 1 4.695200 12.039940 684.878906
256 0 1 4.742450 11.445780 685.667175
257 0 1 4.723310 10.979510 686.461304
258 0 1 4.825340 10.697820 687.432800
259 0 1 5.163330 10.397330 688.369995
260 0 1 5.807910 9.893300 688.823914
261 0 1 6.593740 9.552020 689.266907
262 0 1 7.187587 9.054410 689.843201
263 0 1 7.668930 8.635532 690.550598
264 0 1 8.022744 8.072777 691.331726
265 0 1 8.247449 7.691436 692.206482
266 0 1 8.294213 7.215079 693.019897
267 0 1 8.611572 6.975110 693.890320
268 0 1 9.009020 7.080648 694.729004
269 0 1 9.243230 6.841060 695.622681
270 0 1 9.401900 6.479770 696.516418
271 0 1 9.621070 6.410610 697.467590
272 0 1 10.050890 6.553390 698.343994
273 0 1 10.729060 6.688960 699.009521
274 0 1 11.380410 6.920480 699.655029
275 0 1 11.944310 7.104893 700.398010
276 0 1 12.294610 7.413175 701.211670
277 0 1 12.773310 7.945556 701.824219
278 0 1 13.142611 8.409541 702.640503
279 0 1 13.556240 8.963618 703.360474
280 0 1 13.704400 9.586990 704.115967
281 0 1 13.908630 9.708670 705.061523
282 0 1 14.181620 9.518910 705.933716
283 0 1 14.415831 9.409870 706.851013
284 0 1 14.498260 9.259640 707.833801
285 0 1 14.315950 8.991216 708.749817
286 0 1 14.158880 9.036300 709.754578
287 0 1 14.074640 9.219670 710.798889
288 0 1 13.987740 9.316390 711.771973
289 0 1 13.688150 9.341810 712.743713
290 0 1 13.750680 8.938775 713.656982
291 0 1 13.683800 8.530178 714.568298
292 0 1 13.426849 8.357503 715.458679
293 0 1 13.356150 8.135940 716.398621
294 0 1 13.160851 7.988388 717.325500
295 0 1 12.884700 8.168428 718.263428
296 0 1 12.335381 8.243654 719.065125
297 0 1 11.838360 8.167525 719.892700
298 0 1 11.596110 8.229117 720.865906
299 0 1 11.276711 8.116924 721.790710
300 0 1 11.229330 8.196624 722.713074
301 0 1 11.145000 8.384713 723.705200
302 0 1 11.139120 8.674388 724.599121
303 0 1 11.105480 8.816678 725.505310
304 0 1 10.765540 8.791975 726.387878
305 0 1 10.559210 9.045600 727.307983
306 0 1 10.348150 9.373569 728.222717
307 0 1 9.970130 9.641920 729.067017
308 0 1 9.772380 9.840020 730.015015
309 0 1 9.520590 9.982440 730.927002
310 0 1 9.270860 10.391300 731.814026
311 0 1 9.078260 10.749660 732.671997
312 0 1 8.816016 10.810770 733.549011
313 0 1 8.311877 10.935801 734.401978
314 0 1 7.948106 10.940510 735.268982
315 0 1 7.733386 11.087090 736.143005
316 0 1 7.502396 11.417770 736.960999
317 0 1 7.572100 11.875150 737.854980
318 0 1 7.800593 12.090219 738.733032
319 0 1 8.151228 11.971991 739.687012
320 0 1 8.207682 11.618480 740.737000
321 0 1 8.437653 11.172421 741.585999
322 0 1 8.451736 10.715130 742.429993
323 0 1 8.357073 10.273880 743.244995
324 0 1 8.426160 10.092180 744.203979
325 0 1 8.575959 9.834090 745.112000
326 0 1 8.755964 9.451990 746.018982
327 0 1 8.912123 9.062550 746.955017
328 0 1 8.967018 8.722615 747.828003
329 0 1 8.868166 8.324146 748.690002
330 0 1 8.550024 8.283010 749.648987
331 0 1 7.988147 8.115114 750.385986
332 0 1 7.431049 8.374804 751.117981
333 0 1 6.980990 8.653964 751.961975
334 0 1 6.453670 9.072020 752.742004
335 0 1 5.892940 9.597080 753.289978
336 0 1 5.485880 9.995680 754.041016
337 0 1 5.601740 10.513010 754.932007
338 0 1 5.549890 10.858600 755.822998
339 0 1 5.780920 11.031890 756.755005
340 0 1 5.913190 11.172490 757.721008
341 0 1 5.714480 11.300650 758.671997
342 0 1 5.719220 11.150330 759.627014
343 0 1 5.568830 10.961330 760.561035
344 0 1 5.724440 10.597630 761.487000
345 0 1 5.706370 10.576150 762.429993
346 0 1 5.816160 10.666300 763.515991
347 0 1 6.111430 10.549430 764.466980
348 0 1 6.394910 10.322880 765.328979
349 0 1 6.347670 10.181720 766.264038
350 0 1 5.857110 10.308720 767.164001
351 0 1 5.615450 10.245560 768.203003
352 0 1 5.582390 10.194880 769.197998
353 0 1 5.708140 10.665110 770.013000
354 0 1 5.801960 10.993450 770.903992
355 0 1 5.697230 11.324409 771.794983
356 0 1 5.599370 11.442850 772.707031
357 0 1 5.662150 11.624510 773.655029
358 0 1 5.811980 11.945720 774.544006
359 0 1 6.265230 12.394310 775.306030
360 0 1 6.727830 12.600080 776.132996
361 0 1 7.084130 12.413970 777.044983
362 0 1 7.264059 12.655920 777.900024
363 0 1 7.298403 12.872820 778.815002
364 0 1 7.290372 13.211790 779.766968
365 0 1 7.105011 13.529440 780.692017
366 0 1 6.756630 13.639709 781.567993
367 0 1 6.624250 13.777460 782.500000
368 0 1 6.647670 13.676530 783.474976
369 0 1 6.987330 13.577140 784.462036
370 0 1 7.718003 13.567490 785.160034
371 0 1 8.211202 13.473680 785.994019
372 0 1 8.333367 13.313610 786.955994
373 0 1 8.368587 13.281509 787.911987
374 0 1 8.534086 13.009310 788.822021
375 0 1 8.713232 12.879459 789.761963
376 0 1 8.953367 12.773680 790.679016
377 0 1 9.133660 12.478610 791.630981
378 0 1 9.423220 12.426720 792.570984
379 0 1 9.527280 12.322940 793.481018
380 0 1 9.640640 12.073390 794.414978
381 0 1 9.846460 11.732480 795.286987
382 0 1 9.982210 11.412090 796.195984
383 0 1 9.754010 11.162251 797.119995
384 0 1 9.605410 10.873631 798.046021
385 0 1 9.352580 10.717790 798.971985
386 0 1 9.350750 10.597720 799.901001
387 0 1 9.143750 10.561871 800.796021
388 0 1 8.927899 10.420620 801.744019
389 0 1 8.275030 10.353160 802.510986
390 0 1 7.823216 10.607180 803.294983
391 0 1 7.467917 10.624620 804.151978
392 0 1 7.022461 10.745740 804.937012
393 0 1 6.338990 10.632010 805.539001
394 0 1 5.678130 10.535100 806.226990
395 0 1 5.039110 10.365770 806.963013
396 0 1 4.545150 10.355160 807.739014
397 0 1 4.110670 10.379420 808.596008
398 0 1 3.688670 10.611020 809.469971
399 0 1 3.365120 10.809430 810.365967
400 0 1 2.897420 10.896540 811.216003
401 0 1 2.580470 10.695869 812.059021
402 0 1 2.211910 10.682030 812.924988
403 0 1 1.726490 10.501970 813.742004
404 0 1 1.553220 10.402540 814.739990
405 0 1 1.943230 10.196740 815.609985
406 0 1 2.450250 9.859690 816.367004
407 0 1 2.961040 9.756330 817.158997
408 0 1 3.469990 9.545280 817.997009
409 0 1 3.923620 9.540890 818.849976
410 0 1 4.186730 9.375170 819.729980
411 0 1 4.659060 9.231010 820.622009
412 0 1 4.829950 8.704511 821.440979
413 0 1 5.330470 8.338360 822.124023
414 0 1 5.851370 7.730591 822.643005
415 0 1 6.554490 7.715560 823.332031
416 0 1 7.273675 7.219512 823.979980
417 0 1 7.762726 6.956660 824.739990
418 0 1 8.147450 6.960820 825.643005
419 0 1 8.302240 6.842690 826.622986
420 0 1 8.306660 6.946980 827.583008
421 0 1 7.884625 7.118524 828.431030
422 0 1 7.460873 7.312608 829.296997
423 0 1 6.725930 7.162667 829.864014
424 0 1 6.167530 7.002024 830.658020
425 0 1 5.520780 6.822350 831.411011
426 0 1 5.183640 7.021702 832.313965
427 0 1 5.234110 7.335212 833.254028
428 0 1 5.279780 7.553857 834.184021
429 0 1 5.447090 7.674693 835.161987
430 0 1 5.800140 7.959754 835.994019
431 0 1 6.371750 8.340595 836.643005
432 0 1 6.969340 8.881827 837.146973
433 0 1 7.690096 9.217060 837.578979
434 0 1 8.624390 9.386950 837.797974
435 0 1 9.491500 9.840750 837.708984
436 0 1 10.415540 10.091930 837.604004
437 0 1 11.390790 9.945940 837.541992
438 0 1 12.321970 9.988480 837.412964
439 0 1 13.176001 9.777000 836.973022
440 0 1 13.879890 9.422050 836.307983
441 0 1 14.109830 8.729775 835.703003
442 0 1 14.231220 8.224338 834.882019
443 0 1 14.221860 7.754270 834.057007
444 0 1 14.296670 7.190870 833.281006
445 0 1 14.153470 6.591240 832.541016
446 0 1 13.884600 6.011210 831.827026
447 0 1 13.407750 5.496680 831.195984
448 0 1 12.854660 5.259410 830.395020
449 0 1 12.314011 5.078150 829.594971
450 0 1 11.829930 5.005040 828.870972
451 0 1 11.640970 5.113640 827.924988
452 0 1 11.392260 5.219570 826.957031
453 0 1 11.009530 5.415790 826.068970
454 0 1 10.784280 5.697540 825.101990
455 0 1 10.518120 5.619980 824.193970
456 0 1 10.486580 5.525570 823.247986
457 0 1 10.735280 5.295430 822.328003
458 0 1 11.255280 5.312200 821.533997
459 0 1 11.596640 5.122320 820.656006
460 0 1 11.358070 4.975650 819.716980
461 0 1 11.096960 4.975180 818.809998
462 0 1 10.858110 4.758300 817.811035
463 0 1 10.845890 4.833300 816.830994
464 0 1 10.844240 4.488800 815.947021
465 0 1 10.735970 4.498700 814.953003
466 0 1 10.814341 4.327300 813.992981
467 0 1 10.490250 4.354590 813.083984
468 0 1 10.304910 4.391690 812.155029
469 0 1 9.897640 4.524910 811.259033
470 0 1 9.658930 4.679620 810.364014
471 0 1 9.174829 4.742230 809.520020
472 0 1 8.711137 4.747380 808.658997
473 0 1 8.302648 4.842220 807.791016
474 0 1 8.132208 4.884180 806.863037
475 0 1 7.819472 4.908850 806.000977
476 0 1 7.664346 4.960110 805.004028
477 0 1 7.288733 5.022410 804.140991
478 0 1 7.100379 5.008580 803.187012
479 0 1 7.018128 4.983200 802.214966
480 0 1 6.860170 4.849410 801.216003
481 0 1 7.030182 4.878930 800.312012
482 0 1 7.332940 5.112090 799.421997
483 0 1 7.620376 4.921830 798.507996
484 0 1 8.121668 5.186970 797.799988
485 0 1 8.602582 5.410590 796.916992
486 0 1 9.202190 5.551250 796.197998
487 0 1 9.879270 5.572300 795.539001
488 0 1 10.367580 5.437890 794.716980
489 0 1 10.727380 5.245070 793.867981
490 0 1 11.108270 5.368340 792.966003
491 0 1 11.519630 5.540850 792.198975
492 0 1 11.898960 5.726840 791.304016
493 0 1 12.199699 6.128070 790.539001
494 0 1 12.129089 6.336340 789.651978
495 0 1 11.975210 6.728160 788.754028
496 0 1 11.764200 6.972910 787.843018
497 0 1 11.602410 6.998280 786.844971
498 0 1 11.695670 6.726580 785.968994
499 0 1 12.060710 6.494620 785.098022
500 0 1 12.413080 6.139250 784.265015
501 0 1 12.747080 5.783380 783.412964
502 0 1 13.212470 5.318240 782.692017
503 0 1 13.606110 4.793510 781.966980
504 0 1 13.736780 4.530800 781.036987
505 0 1 13.583390 4.209880 780.122986
506 0 1 13.262290 4.250040 779.122986
507 0 1 12.767710 4.504150 778.318970
508 0 1 12.493680 5.134210 777.645020
509 0 1 12.271020 5.730780 776.964966
510 0 1 11.821280 6.142640 776.181030
511 0 1 11.225580 6.463830 775.502014
512 0 1 10.583460 6.607470 774.848022
513 0 1 9.969850 6.751020 774.115967
514 0 1 9.304640 6.812940 773.364014
515 0 1 8.911501 7.000004 772.437988
516 0 1 8.604999 7.078886 771.495972
517 0 1 8.336268 7.446924 770.537964
518 0 1 8.025171 7.599047 769.643005
519 0 1 7.767615 7.945590 768.765015
520 0 1 7.506122 8.416153 767.953979
521 0 1 7.365882 8.810144 767.103027
522 0 1 7.579138 9.230470 766.265991
523 0 1 7.646981 9.815969 765.497986
524 0 1 7.935977 10.427910 764.813965
525 0 1 8.268215 10.888600 764.065002
526 0 1 8.631944 11.090460 763.161011
527 0 1 9.077520 11.166240 762.291016
528 0 1 9.528481 11.230550 761.419983
529 0 1 9.637700 11.687429 760.530029
530 0 1 9.887320 12.117590 759.622986
531 0 1 9.745870 12.671841 758.916992
532 0 1 9.707900 12.984390 758.021973
533 0 1 9.597250 13.177890 757.036987
534 0 1 9.285220 13.311110 756.138977
535 0 1 9.187240 13.815001 755.283997
536 0 1 9.075880 14.123260 754.367004
537 0 1 9.060800 14.504700 753.471008
538 0 1 9.021510 14.727720 752.526001
539 0 1 8.732703 14.543859 751.677002
540 0 1 8.376638 14.087259 750.856018
541 0 1 8.186736 13.622710 750.062988
542 0 1 7.862718 13.117680 749.325989
543 0 1 7.556746 12.936150 748.440002
544 0 1 7.289529 12.782630 747.536011
545 0 1 6.993780 12.804541 746.658997
546 0 1 6.325190 12.769500 745.908020
547 0 1 5.609380 12.785830 745.185974
548 0 1 5.048600 12.569460 744.512024
549 0 1 4.622860 12.147181 743.710022
550 0 1 4.225770 11.621690 743.062988
551 0 1 4.036530 11.300770 742.072998
552 0 1 4.138020 11.233350 741.080017
553 0 1 4.148270 11.227740 740.101990
554 0 1 4.520970 11.253320 739.257996
555 0 1 4.800400 11.271210 738.320007
556 0 1 4.714750 11.104940 737.375000
557 0 1 4.678700 10.901040 736.424988
558 0 1 4.655900 10.715720 735.489990
559 0 1 4.305610 10.383810 734.625000
560 0 1 4.104290 10.107750 733.723022
561 0 1 3.862230 10.200640 732.817017
562 0 1 3.860700 10.287730 731.768982
563 0 1 3.700230 10.492110 730.827026
564 0 1 3.353620 10.469080 729.839966
565 0 1 3.209650 10.492430 728.901978
566 0 1 2.874530 10.188480 728.048218
567 0 1 2.891960 10.030510 727.102722
568 0 1 3.309960 9.640141 726.345093
569 0 1 3.826860 9.268970 725.559875
570 0 1 4.116230 8.871362 724.715576
571 0 1 4.244960 8.776657 723.776917
572 0 1 3.908330 8.932276 722.851318
573 0 1 3.734470 9.183661 721.935425
574 0 1 3.580930 9.444201 721.011414
575 0 1 3.413720 9.567130 720.096313
576 0 1 3.303330 9.942710 719.179688
577 0 1 3.281810 10.586140 718.396973
578 0 1 3.581030 10.755810 717.467285
579 0 1 3.772560 10.830339 716.545715
580 0 1 3.610580 10.864150 715.623108
581 0 1 3.835750 10.899230 714.674927
582 0 1 4.134430 11.207370 713.799072
583 0 1 4.176860 11.385260 712.865417
584 0 1 4.258330 11.655720 711.938416
585 0 1 4.409550 11.884310 711.058899
586 0 1 4.847930 12.167521 710.253906
587 0 1 5.223040 12.316020 709.364685
588 0 1 5.575630 12.421500 708.502502
589 0 1 5.994460 12.912550 707.688477
590 0 1 6.349670 13.051650 706.759521
591 0 1 6.489250 13.157040 705.836792
592 0 1 6.377410 13.466920 704.892883
593 0 1 6.359340 13.651590 703.895325
594 0 1 6.542620 13.653320 702.984924
595 0 1 6.476920 13.518440 701.958801
596 0 1 6.506360 13.413830 700.978882
597 0 1 6.288100 13.129560 700.123169
598 0 1 6.404000 12.835410 699.186096
599 0 1 6.270480 12.655500 698.219910
600 0 1 6.084770 12.635080 697.267883
601 0 1 6.224730 12.255480 696.381409
602 0 1 6.523740 11.811440 695.532471
603 0 1 6.831450 11.315260 694.818604
604 0 1 6.970700 10.597270 694.204712
605 0 1 7.357184 10.088070 693.461914
606 0 1 7.951807 9.706570 692.860229
607 0 1 8.513103 9.426450 692.078918
608 0 1 9.099990 8.920304 691.562500
609 0 1 9.542780 8.171517 691.041626
610 0 1 9.711450 7.439818 690.492004
611 0 1 10.140450 6.712350 690.020813
612 0 1 10.530600 6.104450 689.388489
613 0 1 10.814180 5.661980 688.640198
614 0 1 10.962009 5.298590 687.765320
615 0 1 11.055790 5.105080 686.868103
616 0 1 11.247040 5.176710 685.918091
617 0 1 11.755070 5.032240 685.051575
618 0 1 12.104020 4.917460 684.202576
619 0 1 12.559270 5.016740 683.262207
620 0 1 12.927000 5.196000 682.390320
621 0 1 12.963860 5.420060 681.466675
622 0 1 12.940260 5.502860 680.493408
623 0 1 12.970390 5.553910 679.570312
624 0 1 12.659679 5.416760 678.641113
625 0 1 12.418570 5.458540 677.715515
626 0 1 12.305070 5.579260 676.771606
627 0 1 12.276860 5.653340 675.780029
628 0 1 11.912090 6.017270 674.978699
629 0 1 11.497350 6.267130 674.139099
630 0 1 11.120690 6.841850 673.456787
631 0 1 10.633860 7.394662 672.758789
632 0 1 10.384140 7.789498 671.903381
633 0 1 10.302660 8.059349 670.989075
634 0 1 10.540260 8.517216 670.169678
635 0 1 11.028430 8.694186 669.387573
636 0 1 11.261370 8.997730 668.490906
637 0 1 11.310500 9.349650 667.550110
638 0 1 10.910350 9.550060 666.721191
639 0 1 10.304820 9.761610 666.002075
640 0 1 9.740310 9.760300 665.238892
641 0 1 9.161810 9.526970 664.513428
642 0 1 8.561159 9.474051 663.775513
643 0 1 8.135445 9.368460 662.925598
644 0 1 8.179851 9.485200 661.961975
645 0 1 8.537122 9.612080 661.087524
646 0 1 8.712916 10.008990 660.204102
647 0 1 8.767138 10.362340 659.336182
648 0 1 9.059820 10.507200 658.459473
649 0 1 9.338390 10.688570 657.575623
650 0 1 9.312490 11.115561 656.723511
651 0 1 9.298770 11.384820 655.808228
652 0 1 9.142890 11.451390 654.846008
653 0 1 9.132440 11.538660 653.823303
654 0 1 9.281480 11.374320 652.880920
655 0 1 9.612540 11.274500 652.020996
656 0 1 9.490700 10.894810 651.182678
657 0 1 9.249750 10.663010 650.313782
658 0 1 8.833839 10.233910 649.591675
659 0 1 8.604321 9.802390 648.698486
660 0 1 8.349123 9.248770 647.807678
661 0 1 7.907816 9.090070 646.966187
662 0 1 7.496249 9.236120 646.124390
663 0 1 7.171635 9.475570 645.220215
664 0 1 6.661400 9.620930 644.460510
665 0 1 5.993180 9.938430 643.799194
666 0 1 5.344160 10.054240 643.122803
667 0 1 4.774310 10.398900 642.550598
668 0 1 4.628210 10.795050 641.660095
669 0 1 4.485650 10.750999 640.739380
670 0 1 4.826110 10.804680 639.833618
671 0 1 5.168560 10.644770 639.021179
672 0 1 5.526690 10.902870 638.193970
673 0 1 5.981060 11.074890 637.357666
674 0 1 6.423670 11.213540 636.450073
675 0 1 6.926520 11.136350 635.634521
676 0 1 7.383926 11.268460 634.797791
677 0 1 7.862945 11.551170 634.046875
678 0 1 8.387040 11.607380 633.245911
679 0 1 8.784333 11.314569 632.409668
680 0 1 9.275320 10.930820 631.679077
681 0 1 9.857170 10.567360 630.974854
682 0 1 10.458500 10.130480 630.381714
683 0 1 11.162270 9.750970 629.836243
684 0 1 11.667700 9.355500 629.089905
685 0 1 11.839610 8.701079 628.388916
686 0 1 12.051170 7.954746 627.747131
687 0 1 11.885720 7.268629 627.072815
688 0 1 11.796150 6.836670 626.210938
689 0 1 11.574250 6.259310 625.334595
690 0 1 11.350690 5.829410 624.523132
691 0 1 11.080400 5.561190 623.671631
692 0 1 10.673010 5.358690 622.792786
693 0 1 10.341730 5.402960 621.869629
694 0 1 9.953390 5.550230 620.973389
695 0 1 9.615499 5.575950 620.028809
696 0 1 9.177080 5.863740 619.217957
697 0 1 8.564880 6.138580 618.536255
698 0 1 8.010939 6.556770 617.791626
699 0 1 7.806494 7.014004 616.966980
700 0 1 7.639850 7.147960 615.974121
701 0 1 7.925160 7.415897 615.077271
702 0 1 8.093845 7.613968 614.140991
703 0 1 8.217520 8.127682 613.377319
704 0 1 8.102431 8.856974 612.702698
705 0 1 8.181328 9.584949 612.077271
706 0 1 8.380168 10.248631 611.448181
707 0 1 8.590592 10.796650 610.634216
708 0 1 8.814509 11.342751 609.846985
709 0 1 9.065990 11.809390 609.057800
710 0 1 9.152490 12.128651 608.116028
711 0 1 9.201180 12.352070 607.148926
712 0 1 9.417450 12.386590 606.188599
713 0 1 9.400220 12.352840 605.247070
714 0 1 9.453010 12.243910 604.305176
715 0 1 9.559000 12.082740 603.334473
716 0 1 9.550990 11.619801 602.524475
717 0 1 9.714080 11.534580 601.554382
718 0 1 9.599570 11.502980 600.549500
719 0 1 9.609270 11.476740 599.566406
720 0 1 9.719730 11.379580 598.626831
721 0 1 9.825710 11.017879 597.741699
722 0 1 9.975690 10.759300 596.834290
723 0 1 10.228690 10.396460 595.883301
724 0 1 10.648650 10.095100 595.052002
725 0 1 11.211820 10.075390 594.173584
726 0 1 11.399250 9.796910 593.293518
727 0 1 11.768539 9.430450 592.445618
728 0 1 11.908040 8.853478 591.640869
729 0 1 11.962030 8.363671 590.823120
730 0 1 11.697060 7.949017 589.997803
731 0 1 11.593000 7.379935 589.177185
732 0 1 11.298400 6.755370 588.600220
733 0 1 11.002270 6.390270 587.743530
734 0 1 10.637880 6.260680 586.814331
735 0 1 10.123650 6.091320 586.008301
736 0 1 9.710270 5.602620 585.300903
737 0 1 9.141980 5.368740 584.568298
738 0 1 8.502267 5.201730 583.910278
739 0 1 8.056586 4.692010 583.243591
740 0 1 7.723625 4.083430 582.586914
741 0 1 7.179114 3.655650 581.840210
742 0 1 6.801320 3.155120 581.130005
743 0 1 6.171830 2.781890 580.483704
744 0 1 5.781240 2.414060 579.541077
745 0 1 5.897230 2.018630 578.735901
746 0 1 6.341520 1.952230 577.812073
747 0 1 6.840360 1.961200 576.918518
748 0 1 7.240933 2.151840 576.062073
749 0 1 7.645076 2.343450 575.243103
750 0 1 8.388577 2.815930 574.716919
751 0 1 9.268610 3.234500 574.418274
752 0 1 10.173759 3.310260 574.092773
753 0 1 11.049120 3.383950 573.599121
754 0 1 11.942150 3.506020 573.141907
755 0 1 12.555130 4.073020 572.632568
756 0 1 13.060310 4.613960 572.038025
757 0 1 13.362949 5.267310 571.430908
758 0 1 13.716780 5.881830 570.749817
759 0 1 13.638610 6.450430 569.970520
760 0 1 13.477680 6.878510 568.983276
761 0 1 13.603701 7.035081 568.041016
762 0 1 13.609200 7.200618 567.032410
763 0 1 13.259380 7.119000 566.192383
764 0 1 12.611680 7.112780 565.474304
765 0 1 11.996520 7.287114 564.814514
766 0 1 11.543510 7.162168 563.992126
767 0 1 11.147260 6.762280 563.177490
768 0 1 10.919790 6.650100 562.217407
769 0 1 10.842740 6.368130 561.199890
770 0 1 10.805920 6.390920 560.193726
771 0 1 10.721030 6.268820 559.249817
772 0 1 10.506710 6.276970 558.307617
773 0 1 10.080390 6.154600 557.465210
774 0 1 9.676240 6.000650 556.525208
775 0 1 9.309000 5.902780 555.629089
776 0 1 8.752110 5.944290 554.867981
777 0 1 8.419288 6.148150 553.953613
778 0 1 8.178086 6.283960 552.944580
779 0 1 7.870264 6.409860 552.020325
780 0 1 7.571793 6.475760 551.131775
781 0 1 7.550126 6.404850 550.152466
782 0 1 7.419960 6.432030 549.232605
783 0 1 7.375857 6.356570 548.261719
784 0 1 7.360962 6.453550 547.320679
785 0 1 7.018164 6.459290 546.445374
786 0 1 6.962140 6.284740 545.433716
787 0 1 6.755570 5.783240 544.684387
788 0 1 6.634220 5.173570 543.954712