LAMMPS data file via MDAnalysis

        1000  atoms
        1000  bonds
        1000  angles
           0  dihedrals
           0  impropers

           1  atom types
           1  bond types
           1  angle types
           0  dihedral types
           0  improper types

0.000000 16.000000 xlo xhi
0.000000 16.000000 ylo yhi
0.000000 1257.000000 zlo zhi


Masses

1 1.000000

Atoms

1 0 1 12.182520 4.986180 469.270996
2 0 1 12.241280 5.184490 470.205017
3 0 1 12.634951 5.689350 470.945984
4 0 1 12.732000 6.177710 471.838013
5 0 1 12.755011 6.390150 472.786987
6 0 1 12.787020 6.603030 473.716980
7 0 1 13.111720 6.706070 474.658997
8 0 1 13.495490 6.765420 475.485992
9 0 1 13.827340 7.019185 476.350006
10 0 1 13.920330 7.225227 477.315002
11 0 1 14.002080 7.415122 478.313995
12 0 1 13.672340 7.333872 479.235992
13 0 1 13.087240 6.963050 480.002014
14 0 1 12.545589 6.750080 480.739014
15 0 1 12.071421 6.686720 481.548004
16 0 1 11.773880 6.423790 482.447998
17 0 1 11.630150 6.532380 483.382996
18 0 1 11.494600 6.392110 484.333984
19 0 1 11.505730 6.291760 485.300995
20 0 1 11.291150 6.203140 486.208984
21 0 1 11.004360 5.822660 487.018982
22 0 1 10.644150 5.563980 487.854004
23 0 1 10.188050 5.539190 488.687988
24 0 1 9.844140 5.213060 489.458008
25 0 1 9.674129 4.826500 490.337006
26 0 1 9.783820 4.389750 491.197998
27 0 1 10.048000 4.091580 492.135010
28 0 1 10.331779 4.116480 493.031006
29 0 1 10.787750 4.012110 493.885010
30 0 1 11.045361 3.740600 494.858002
31 0 1 11.166430 3.495990 495.785004
32 0 1 11.385611 3.261350 496.723022
33 0 1 11.608770 3.043160 497.666016
34 0 1 11.867010 2.809760 498.578979
35 0 1 12.169360 2.850370 499.473022
36 0 1 12.492081 3.092800 500.371002
37 0 1 12.542561 3.523440 501.268005
38 0 1 12.495211 4.066200 502.087006
39 0 1 12.489370 4.727240 502.742004
40 0 1 12.375010 5.369540 503.468018
41 0 1 12.252890 5.849240 504.252014
42 0 1 12.489281 6.408010 504.981018
43 0 1 12.673230 6.881820 505.846008
44 0 1 12.693140 7.188934 506.795990
45 0 1 12.869720 7.403880 507.700989
46 0 1 12.816010 7.738080 508.588989
47 0 1 12.708361 7.996654 509.535004
48 0 1 12.371389 7.970736 510.490997
49 0 1 12.100030 7.479482 511.261993
50 0 1 11.556090 7.193821 511.971008
51 0 1 11.157380 7.177794 512.867981
52 0 1 10.976140 7.274197 513.807983
53 0 1 10.581370 7.322088 514.726013
54 0 1 10.114310 7.448866 515.634033
55 0 1 9.709490 7.367182 516.476990
56 0 1 9.299290 7.440471 517.388000
57 0 1 8.943967 7.765317 518.260010
58 0 1 8.768300 8.336696 518.984985
59 0 1 8.562580 8.929098 519.757996
60 0 1 8.129775 8.970879 520.674988
61 0 1 8.019332 8.897492 521.619995
62 0 1 8.017196 8.670516 522.611023
63 0 1 8.095259 8.388570 523.599976
64 0 1 8.131437 8.321235 524.546021
65 0 1 8.052249 8.254728 525.533997
66 0 1 7.706953 8.220708 526.411011
67 0 1 7.269838 8.339313 527.302979
68 0 1 6.925040 8.592122 528.200012
69 0 1 6.586690 9.044490 528.996887
70 0 1 6.449890 9.254960 529.927368
71 0 1 6.107130 9.352170 530.807800
72 0 1 5.773920 9.561210 531.653809
73 0 1 5.579440 9.808650 532.571716
74 0 1 5.523760 9.553410 533.504700
75 0 1 5.305080 9.335850 534.432617
76 0 1 5.276050 9.587540 535.457825
77 0 1 5.190780 9.764100 536.375366
78 0 1 5.228600 9.913550 537.294495
79 0 1 5.152840 9.884080 538.328979
80 0 1 5.262200 9.794380 539.248413
81 0 1 5.533700 9.819090 540.153503
82 0 1 5.667510 9.744720 541.126709
83 0 1 5.570620 9.657390 542.151184
84 0 1 5.182570 9.628220 543.035095
85 0 1 5.181830 9.598760 543.989319
86 0 1 5.275610 9.442460 544.906799
87 0 1 5.147020 9.313050 545.808716
88 0 1 4.847080 9.388760 546.728088
89 0 1 4.737520 9.306000 547.701416
90 0 1 4.641490 9.181800 548.696289
91 0 1 4.397160 9.057790 549.569397
92 0 1 4.177730 8.848374 550.462769
93 0 1 3.995400 8.439569 551.338501
94 0 1 3.932240 7.730636 551.991516
95 0 1 3.998430 6.981050 552.632568
96 0 1 4.016800 6.582650 553.532227
97 0 1 4.190010 6.192910 554.355103
98 0 1 4.261210 5.837580 555.244629
99 0 1 4.238540 5.575590 556.188110
100 0 1 4.272560 5.360230 557.087402
101 0 1 3.955500 4.979720 557.938232
102 0 1 3.968740 4.542680 558.823181
103 0 1 4.180070 4.085660 559.594971
104 0 1 4.463630 3.796790 560.483704
105 0 1 4.706740 3.143750 561.104187
106 0 1 5.307730 2.668690 561.720581
107 0 1 5.675820 2.105690 562.556091
108 0 1 6.034050 1.919310 563.396729
109 0 1 6.399490 1.967240 564.295532
110 0 1 6.809210 2.152860 565.236816
111 0 1 6.964390 2.480700 566.159912
112 0 1 7.410745 2.860490 566.981873
113 0 1 7.829433 3.146390 567.783386
114 0 1 8.039837 3.485520 568.665100
115 0 1 8.337032 3.728470 569.559204
116 0 1 8.502595 3.922790 570.533875
117 0 1 8.793287 3.974750 571.481628
118 0 1 9.198480 4.220310 572.322388
119 0 1 9.405720 4.670490 573.158081
120 0 1 9.643080 5.076320 573.997803
121 0 1 9.561270 5.486410 574.847778
122 0 1 9.370640 5.577720 575.760803
123 0 1 9.212120 5.732320 576.739319
124 0 1 9.101480 6.041580 577.616699
125 0 1 8.919441 6.329330 578.539673
126 0 1 8.509969 6.525210 579.427490
127 0 1 7.961686 6.561040 580.195923
128 0 1 7.391316 6.690640 580.914978
129 0 1 6.989590 6.985510 581.726685
130 0 1 6.804340 7.208065 582.632019
131 0 1 6.639510 7.394083 583.569214
132 0 1 6.710240 7.587844 584.561584
133 0 1 6.785440 8.036814 585.365906
134 0 1 6.869230 8.502467 586.237915
135 0 1 6.932930 9.068850 587.014587
136 0 1 7.238792 9.271390 587.897827
137 0 1 7.464135 9.456070 588.844299
138 0 1 7.463525 9.657020 589.799500
139 0 1 7.397966 10.012070 590.690796
140 0 1 7.249797 10.301040 591.630676
141 0 1 6.939490 10.408830 592.528503
142 0 1 6.541660 10.246420 593.378784
143 0 1 5.962750 10.045580 594.174988
144 0 1 5.315810 9.808690 594.851379
145 0 1 4.738450 9.532780 595.583008
146 0 1 4.061130 9.464130 596.286621
147 0 1 3.617470 9.345610 597.192017
148 0 1 3.075700 9.312920 597.980896
149 0 1 2.975400 9.206330 598.930176
150 0 1 3.000370 9.078000 599.866394
151 0 1 2.999700 8.502565 600.623413
152 0 1 2.995130 7.970674 601.381592
153 0 1 2.854670 7.444452 602.192322
154 0 1 2.586960 6.925420 602.937317
155 0 1 2.615730 6.727540 603.903198
156 0 1 2.740470 6.746970 604.882019
157 0 1 2.759220 6.788860 605.812378
158 0 1 2.847210 6.843910 606.715210
159 0 1 2.717660 6.769110 607.683716
160 0 1 2.779440 6.551970 608.594910
161 0 1 2.816790 6.482680 609.536316
162 0 1 3.117510 6.740700 610.415771
163 0 1 3.528770 6.965770 611.232971
164 0 1 4.289090 6.969250 611.914124
165 0 1 4.674100 6.902880 612.776672
166 0 1 4.976410 6.597600 613.659302
167 0 1 5.230720 6.295320 614.517029
168 0 1 5.389750 6.211480 615.508606
169 0 1 5.492160 5.814860 616.339294
170 0 1 5.403570 5.465510 617.266479
171 0 1 5.315900 5.283190 618.233398
172 0 1 5.207540 5.209040 619.173950
173 0 1 5.018780 5.122090 620.154236
174 0 1 4.966310 4.852650 621.107361
175 0 1 4.786300 4.788750 622.051147
176 0 1 4.480620 4.747370 622.985657
177 0 1 4.345440 4.638730 623.895020
178 0 1 4.200240 4.723820 624.822815
179 0 1 4.089710 4.835650 625.772461
180 0 1 4.300820 4.623560 626.703796
181 0 1 4.739820 4.485240 627.567810
182 0 1 4.875560 4.534270 628.486145
183 0 1 5.011540 4.251390 629.436584
184 0 1 4.869760 3.997210 630.365540
185 0 1 4.926100 4.304020 631.258057
186 0 1 4.900880 4.687900 632.085876
187 0 1 5.176350 4.923130 632.989258
188 0 1 5.647060 5.086120 633.811218
189 0 1 6.181350 5.486620 634.584412
190 0 1 6.657000 5.802590 635.351868
191 0 1 7.316814 5.973070 636.036560
192 0 1 7.990014 6.255910 636.636902
193 0 1 8.809664 6.305170 637.181213
194 0 1 9.628040 6.381750 637.686829
195 0 1 10.028500 6.730500 638.449585
196 0 1 10.366810 7.122438 639.268005
197 0 1 10.637750 7.586095 640.101501
198 0 1 10.839380 7.922016 640.980774
199 0 1 10.841930 8.161766 642.028992
200 0 1 10.665190 8.576531 642.876099
201 0 1 10.688460 9.137540 643.640076
202 0 1 10.673130 9.699200 644.387207
203 0 1 10.825420 10.228710 645.177124
204 0 1 10.643370 10.712960 645.968384
205 0 1 10.803560 11.018520 646.864685
206 0 1 10.952930 11.418540 647.720703
207 0 1 11.163530 11.724791 648.668396
208 0 1 11.409730 11.697639 649.554810
209 0 1 11.537240 11.795830 650.533691
210 0 1 11.382570 12.056760 651.461914
211 0 1 11.334539 11.745950 652.385986
212 0 1 11.306561 11.577160 653.339722
213 0 1 11.606050 11.640720 654.255127
214 0 1 12.066180 11.517241 655.099426
215 0 1 12.468510 11.287849 655.963684
216 0 1 12.872160 11.376560 656.875671
217 0 1 12.989270 11.776160 657.774597
218 0 1 13.022329 11.944080 658.791199
219 0 1 13.149710 12.030280 659.796875
220 0 1 13.159571 12.136311 660.755005
221 0 1 12.997620 12.229219 661.739868
222 0 1 12.866650 12.536739 662.681030
223 0 1 12.645081 12.487750 663.569702
224 0 1 12.462210 12.607491 664.508423
225 0 1 12.116090 12.938200 665.377014
226 0 1 11.857280 13.240810 666.221191
227 0 1 11.364890 13.420800 667.009583
228 0 1 11.083040 13.500570 667.915771
229 0 1 10.639780 13.508110 668.774292
230 0 1 10.307870 13.493160 669.698792
231 0 1 9.830320 13.328880 670.461487
232 0 1 9.441730 13.212500 671.395386
233 0 1 9.295890 13.247120 672.364685
234 0 1 9.406360 12.891150 673.236206
235 0 1 9.599510 12.526470 674.077576
236 0 1 9.836270 12.161900 674.955078
237 0 1 10.131010 11.810550 675.878601
238 0 1 10.230130 11.387260 676.792419
239 0 1 10.523390 10.832100 677.556702
240 0 1 10.660370 10.194000 678.294128
241 0 1 10.726260 9.408880 678.853027
242 0 1 10.948009 8.635465 679.437805
243 0 1 11.045570 7.975646 680.140320
244 0 1 11.011300 7.193507 680.791321
245 0 1 10.881910 6.521430 681.425171
246 0 1 10.883680 5.745610 681.988708
247 0 1 10.857800 5.295830 682.846191
248 0 1 10.939730 5.242860 683.749084
249 0 1 10.955580 5.207880 684.692627
250 0 1 11.247150 5.385660 685.615906
251 0 1 11.629520 5.443260 686.487488
252 0 1 11.659330 5.504230 687.475708
253 0 1 11.581779 5.455470 688.424316
254 0 1 11.432050 5.513320 689.357605
255 0 1 11.348000 5.641560 690.299316
256 0 1 11.221510 5.769270 691.200623
257 0 1 10.780550 5.839770 692.064880
258 0 1 10.416290 6.059440 692.864624
259 0 1 10.172740 6.396490 693.756287
260 0 1 9.479240 6.493400 694.516907
261 0 1 8.604019 6.562920 695.117676
262 0 1 7.708006 6.593090 695.565918
263 0 1 6.969190 6.686860 696.218994
264 0 1 6.741770 6.786820 697.131897
265 0 1 6.777350 6.814170 698.064209
266 0 1 6.529830 6.287490 698.895508
267 0 1 6.434810 5.731230 699.656799
268 0 1 6.501160 5.372210 700.573120
269 0 1 6.484570 4.949390 701.481018
270 0 1 6.628500 4.690050 702.468628
271 0 1 6.485650 4.251640 703.288879
272 0 1 6.308130 3.958940 704.176819
273 0 1 6.149610 4.065020 705.085693
274 0 1 5.903150 4.020250 706.012573
275 0 1 5.769470 4.399010 706.901489
276 0 1 5.255820 4.444100 707.780884
277 0 1 5.120560 4.326960 708.747986
278 0 1 4.942210 4.058080 709.691895
279 0 1 4.841870 3.974960 710.648987
280 0 1 4.800620 4.207850 711.571594
281 0 1 4.558440 4.486360 712.505676
282 0 1 4.483790 4.703360 713.450378
283 0 1 4.397610 4.999000 714.305908
284 0 1 4.518390 5.174700 715.249878
285 0 1 4.509900 5.077910 716.224915
286 0 1 4.383400 4.916660 717.110596
287 0 1 4.225760 4.620230 717.978088
288 0 1 3.854170 4.125070 718.703491
289 0 1 3.707800 4.043540 719.641602
290 0 1 3.513630 4.047210 720.586487
291 0 1 3.513220 4.129710 721.600586
292 0 1 3.712960 4.059030 722.548523
293 0 1 4.076750 3.944980 723.433716
294 0 1 4.283550 3.915150 724.345215
295 0 1 4.115670 3.545790 725.276306
296 0 1 4.129640 3.352670 726.207275
297 0 1 4.381270 3.125690 727.100891
298 0 1 4.743290 2.947290 727.975525
299 0 1 5.266390 2.955740 728.812988
300 0 1 5.448560 3.129180 729.703003
301 0 1 5.285590 3.284590 730.640991
302 0 1 4.917340 3.481860 731.484009
303 0 1 4.514090 4.050930 732.166016
304 0 1 3.998920 4.510630 732.867004
305 0 1 3.446760 4.918320 733.526978
306 0 1 2.994840 5.333530 734.250000
307 0 1 2.635680 5.642570 735.062988
308 0 1 2.570060 5.784760 736.002014
309 0 1 2.644890 5.803400 736.968018
310 0 1 2.718820 5.479430 737.874023
311 0 1 3.145440 5.364130 738.739014
312 0 1 3.349560 5.213600 739.669983
313 0 1 3.614140 5.070230 740.601013
314 0 1 3.640800 5.324980 741.541992
315 0 1 3.651580 5.528390 742.520996
316 0 1 3.710940 5.519510 743.495972
317 0 1 3.689970 5.536760 744.450012
318 0 1 3.665470 5.490560 745.406006
319 0 1 3.779680 5.074530 746.221008
320 0 1 4.194890 4.585510 746.874023
321 0 1 4.941770 4.287450 747.369019
322 0 1 5.612550 3.934910 747.989990
323 0 1 6.328930 3.599890 748.530029
324 0 1 6.721590 3.044000 749.242004
325 0 1 7.093127 2.757590 750.013000
326 0 1 7.254313 2.321300 750.896973
327 0 1 7.470124 2.095300 751.802979
328 0 1 7.583210 2.107200 752.812012
329 0 1 7.546156 2.279240 753.768005
330 0 1 7.461940 2.707420 754.585022
331 0 1 7.073536 2.944820 755.439026
332 0 1 6.718870 3.345730 756.275024
333 0 1 6.212520 3.693590 757.113037
334 0 1 5.766660 4.204890 757.898987
335 0 1 5.374170 4.462500 758.754028
336 0 1 5.168990 4.752210 759.643982
337 0 1 5.048050 5.117270 760.504028
338 0 1 5.076280 5.540770 761.401978
339 0 1 5.044470 5.773470 762.367004
340 0 1 5.109190 5.976820 763.339966
341 0 1 5.063010 6.148900 764.266968
342 0 1 5.213010 6.291870 765.224976
343 0 1 5.581210 6.295060 766.106018
344 0 1 5.955630 6.379330 767.000000
345 0 1 6.294950 6.205480 767.869019
346 0 1 6.773690 6.062720 768.763000
347 0 1 6.958300 6.267500 769.648010
348 0 1 7.141498 6.264660 770.596985
349 0 1 7.590200 6.328310 771.398010
350 0 1 8.046506 6.133360 772.169006
351 0 1 8.524890 6.042180 773.018005
352 0 1 8.803951 5.788890 773.890991
353 0 1 9.019590 5.690510 774.872009
354 0 1 9.136620 5.994320 775.825989
355 0 1 9.114130 6.048960 776.916016
356 0 1 8.970250 6.167340 777.950989
357 0 1 9.081630 6.099850 778.974976
358 0 1 9.118000 6.515680 779.914978
359 0 1 9.161300 6.971290 780.719971
360 0 1 9.228370 7.193749 781.622009
361 0 1 9.113070 7.330704 782.561035
362 0 1 9.163380 7.223663 783.440002
363 0 1 9.147920 7.231076 784.447021
364 0 1 9.210170 7.139499 785.354004
365 0 1 9.218000 7.371713 786.306030
366 0 1 9.207040 7.526290 787.268005
367 0 1 8.975425 7.840797 788.138000
368 0 1 8.708724 8.248466 788.979004
369 0 1 8.710026 8.485681 789.919983
370 0 1 8.959288 8.680756 790.811035
371 0 1 9.007750 8.658506 791.783997
372 0 1 8.913227 8.784375 792.705994
373 0 1 8.773156 8.911154 793.609985
374 0 1 8.626304 8.970682 794.497009
375 0 1 8.351862 9.023820 795.468994
376 0 1 7.905418 8.961249 796.260010
377 0 1 7.227116 8.624150 796.950989
378 0 1 6.736940 8.510798 797.786987
379 0 1 6.140110 8.404008 798.533020
380 0 1 5.325040 8.115361 799.099976
381 0 1 4.852250 7.769767 799.875977
382 0 1 4.194230 7.731540 800.620972
383 0 1 3.661980 7.616808 801.403015
384 0 1 3.206990 7.476562 802.231018
385 0 1 2.925790 7.146397 803.049988
386 0 1 3.093630 7.139464 803.962036
387 0 1 3.047590 7.153733 804.960022
388 0 1 2.929190 7.276589 805.910034
389 0 1 2.696440 7.440424 806.823975
390 0 1 2.816540 7.634112 807.789001
391 0 1 3.083590 7.864592 808.632019
392 0 1 3.538750 7.851363 809.536987
393 0 1 3.802960 7.585880 810.436035
394 0 1 3.825250 7.452883 811.370972
395 0 1 3.892410 7.509812 812.333008
396 0 1 4.251810 7.563579 813.203003
397 0 1 4.863410 7.576979 813.988037
398 0 1 5.433330 7.373820 814.755981
399 0 1 5.699940 7.059203 815.729980
400 0 1 5.874900 6.955340 816.651001
401 0 1 6.270130 6.739490 817.570984
402 0 1 6.760870 6.755870 818.403992
403 0 1 7.129553 6.786510 819.421997
404 0 1 7.338564 6.765930 820.400024
405 0 1 7.653061 6.684690 821.260010
406 0 1 8.077400 6.236170 822.037964
407 0 1 8.487136 5.919390 822.893005
408 0 1 8.993177 5.469250 823.598022
409 0 1 9.486010 5.118250 824.348999
410 0 1 10.047540 4.958660 825.083984
411 0 1 10.834420 5.007160 825.613037
412 0 1 11.378510 5.094370 826.351990
413 0 1 11.695430 5.069930 827.271973
414 0 1 11.986890 5.229670 828.208984
415 0 1 12.400270 5.238030 829.134033
416 0 1 12.612801 5.129350 830.073975
417 0 1 12.644310 5.223760 831.002014
418 0 1 12.505671 5.715260 831.872009
419 0 1 12.250100 6.372680 832.497009
420 0 1 11.645230 6.579320 833.156006
421 0 1 11.224460 7.089759 833.903992
422 0 1 10.736550 7.520317 834.557983
423 0 1 10.205840 7.791370 835.416992
424 0 1 9.973370 8.011403 836.325989
425 0 1 9.831190 8.520285 837.114990
426 0 1 9.581940 9.017480 837.976013
427 0 1 9.171850 9.355600 838.755005
428 0 1 8.421950 9.536780 839.427979
429 0 1 7.576894 9.333600 839.931030
430 0 1 6.678450 9.085510 840.132996
431 0 1 5.737290 8.930928 840.214966
432 0 1 4.835030 8.703124 840.156006
433 0 1 4.061900 8.573886 839.578003
434 0 1 3.550960 8.099959 838.859985
435 0 1 3.189620 7.548492 838.108032
436 0 1 2.991730 7.217424 837.237000
437 0 1 2.873130 6.985650 836.317017
438 0 1 2.480100 6.779450 835.462036
439 0 1 2.325620 6.739270 834.533020
440 0 1 1.989180 6.926710 833.630981
441 0 1 1.796360 7.023650 832.679993
442 0 1 1.698230 7.174837 831.770020
443 0 1 1.843330 7.284157 830.833984
444 0 1 1.985950 7.300730 829.896973
445 0 1 2.182480 7.469553 828.969971
446 0 1 2.447010 7.503040 828.000977
447 0 1 2.505620 7.514305 827.033997
448 0 1 2.714280 7.603336 826.068970
449 0 1 3.041810 7.918579 825.177979
450 0 1 3.542650 8.360973 824.488037
451 0 1 4.083970 8.799274 823.815979
452 0 1 4.691900 9.376940 823.343018
453 0 1 5.254780 9.726250 822.712036
454 0 1 5.907120 10.097281 822.119019
455 0 1 6.363340 10.726760 821.450012
456 0 1 6.918470 11.300980 820.979004
457 0 1 7.564254 11.873390 820.520020
458 0 1 8.144133 12.479380 819.984009
459 0 1 8.502223 13.092501 819.226013
460 0 1 8.759650 13.618290 818.500977
461 0 1 8.798856 14.007860 817.614014
462 0 1 8.698392 14.291230 816.622986
463 0 1 8.694216 14.451799 815.718018
464 0 1 8.325256 14.473880 814.789978
465 0 1 8.150888 14.443130 813.896973
466 0 1 8.116332 14.060760 813.009033
467 0 1 8.076182 13.810750 812.082031
468 0 1 8.272023 13.575520 811.186035
469 0 1 8.515361 13.524321 810.257996
470 0 1 8.749939 13.455140 809.359985
471 0 1 9.198750 13.373700 808.533020
472 0 1 9.770300 13.503670 807.825012
473 0 1 10.184230 13.574680 806.989990
474 0 1 10.469880 13.478450 806.085022
475 0 1 10.579639 13.059111 805.260986
476 0 1 10.505970 12.741779 804.354980
477 0 1 10.530430 12.470540 803.427002
478 0 1 10.605000 12.098600 802.432007
479 0 1 11.021720 12.058220 801.505981
480 0 1 11.160379 11.946490 800.562012
481 0 1 11.007630 12.289370 799.658020
482 0 1 11.181620 12.582170 798.757019
483 0 1 11.357310 12.719130 797.884033
484 0 1 11.322550 12.721550 796.841980
485 0 1 11.340450 13.030420 795.921997
486 0 1 11.042680 13.337601 795.057983
487 0 1 10.804890 13.530760 794.135986
488 0 1 10.728040 13.601350 793.187988
489 0 1 10.483720 13.102840 792.442993
490 0 1 9.891160 12.668110 791.804016
491 0 1 9.124510 12.519650 791.063965
492 0 1 8.497537 12.432381 790.346008
493 0 1 7.697595 12.603630 789.817993
494 0 1 6.961510 12.507549 789.219971
495 0 1 6.357250 12.401979 788.481995
496 0 1 5.948860 12.301750 787.635986
497 0 1 5.476730 12.147820 786.828979
498 0 1 5.407200 11.846291 785.953003
499 0 1 5.111120 11.533140 785.093994
500 0 1 4.940380 11.506480 784.171997
501 0 1 4.938610 11.143300 783.237000
502 0 1 4.967320 11.007570 782.270996
503 0 1 5.237950 10.988140 781.388000
504 0 1 5.580440 11.051210 780.533020
505 0 1 5.791350 11.100560 779.575012
506 0 1 5.792510 11.090520 778.596985
507 0 1 5.859550 10.927350 777.572021
508 0 1 6.109140 10.743259 776.672974
509 0 1 6.332760 10.566900 775.770996
510 0 1 6.819970 10.467051 774.919006
511 0 1 6.980010 10.181880 773.963989
512 0 1 7.171886 9.841530 773.075989
513 0 1 6.946870 9.636450 772.156006
514 0 1 6.721250 9.641050 771.244995
515 0 1 6.480570 9.656970 770.268005
516 0 1 6.205910 9.416680 769.426025
517 0 1 5.830940 9.078510 768.596008
518 0 1 5.457060 8.867811 767.733032
519 0 1 5.002220 8.814285 766.875977
520 0 1 4.801720 8.995508 765.950012
521 0 1 5.061000 9.181920 764.973999
522 0 1 5.049360 9.283000 764.023987
523 0 1 5.066020 9.458730 763.039978
524 0 1 5.062890 9.846490 762.136963
525 0 1 5.306420 10.428120 761.390015
526 0 1 5.918000 10.393040 760.739990
527 0 1 6.767240 10.483740 760.161987
528 0 1 7.518612 10.635370 759.609009
529 0 1 8.192919 10.549640 758.877014
530 0 1 8.983881 10.470720 758.320984
531 0 1 9.645520 10.233530 757.638000
532 0 1 10.374980 9.951660 757.065002
533 0 1 10.960760 9.318610 756.604980
534 0 1 11.200890 8.483151 756.047974
535 0 1 11.580590 7.852722 755.479980
536 0 1 11.904890 7.454444 754.645996
537 0 1 12.238000 7.089409 753.778015
538 0 1 12.475770 6.870220 752.874023
539 0 1 12.559060 6.878410 751.919983
540 0 1 12.672421 6.797830 750.960999
541 0 1 12.814460 6.863500 750.015015
542 0 1 12.743540 7.128404 749.104004
543 0 1 12.633020 7.624656 748.296021
544 0 1 12.216400 7.897604 747.460022
545 0 1 11.711000 8.164325 746.671021
546 0 1 11.129020 8.468154 745.953003
547 0 1 10.571450 8.702366 745.240967
548 0 1 9.893510 8.830093 744.487976
549 0 1 9.319380 8.974425 743.736023
550 0 1 9.002230 9.053120 742.864990
551 0 1 8.494199 9.222400 742.103027
552 0 1 7.853956 9.408850 741.435974
553 0 1 7.552896 9.341410 740.544983
554 0 1 7.290360 9.340720 739.672974
555 0 1 6.909470 9.253800 738.849976
556 0 1 6.647260 9.193140 737.898987
557 0 1 6.183330 9.181490 737.031982
558 0 1 5.731580 8.836786 736.229004
559 0 1 5.243000 8.620720 735.385986
560 0 1 4.512550 8.256703 734.859009
561 0 1 3.831450 8.355027 734.205017
562 0 1 3.329230 8.187903 733.431030
563 0 1 2.792870 8.109742 732.608032
564 0 1 2.303780 8.123726 731.762024
565 0 1 1.989360 8.471211 730.937012
566 0 1 1.835480 8.615746 730.013977
567 0 1 1.871170 8.400699 729.072021
568 0 1 1.771460 7.985955 728.188110
569 0 1 1.496430 7.911175 727.268677
570 0 1 1.541650 7.950942 726.305298
571 0 1 1.462610 8.105030 725.330994
572 0 1 1.654520 8.147052 724.347107
573 0 1 1.705500 8.092528 723.423889
574 0 1 1.908720 8.278377 722.422180
575 0 1 2.109390 8.159836 721.435181
576 0 1 1.906360 7.907246 720.529907
577 0 1 1.841570 7.616098 719.671692
578 0 1 1.756170 7.314650 718.774902
579 0 1 1.789010 6.893200 717.950928
580 0 1 1.952100 6.662550 716.999512
581 0 1 1.920110 6.475490 716.062805
582 0 1 2.024810 6.192050 715.179626
583 0 1 2.175460 6.132690 714.251099
584 0 1 2.303740 5.806840 713.349182
585 0 1 2.654160 5.448790 712.504700
586 0 1 2.801740 5.034470 711.629272
587 0 1 3.177980 4.843140 710.723633
588 0 1 3.388950 4.524910 709.845703
589 0 1 3.461630 4.104570 708.980225
590 0 1 3.880040 3.702590 708.233215
591 0 1 4.159670 3.239200 707.453613
592 0 1 4.491160 3.165200 706.541626
593 0 1 4.510320 3.312660 705.585083
594 0 1 4.438560 3.392540 704.610779
595 0 1 4.420630 3.364880 703.668518
596 0 1 4.032430 3.416540 702.797729
597 0 1 4.000950 3.673880 701.909302
598 0 1 4.192020 3.778510 700.979004
599 0 1 4.320430 3.972010 700.064575
600 0 1 4.098310 4.099930 699.129272
601 0 1 4.029250 4.694880 698.343323
602 0 1 4.256120 5.252340 697.607788
603 0 1 4.693340 5.864310 696.884583
604 0 1 5.195480 6.202860 696.189575
605 0 1 5.815060 6.503070 695.490417
606 0 1 6.176220 6.896470 694.730774
607 0 1 6.411810 7.585900 694.104187
608 0 1 6.547820 8.150070 693.304077
609 0 1 6.933930 8.719551 692.542603
610 0 1 7.388485 8.950121 691.697388
611 0 1 7.622810 8.685388 690.800598
612 0 1 7.950355 8.543710 689.914673
613 0 1 8.258236 8.386281 689.026001
614 0 1 8.610739 8.046090 688.141724
615 0 1 8.829837 7.676405 687.251404
616 0 1 8.885566 7.371545 686.364685
617 0 1 9.145041 6.971810 685.484131
618 0 1 9.400670 6.582620 684.626831
619 0 1 9.282380 6.188380 683.732727
620 0 1 9.395050 5.684380 682.885193
621 0 1 9.640700 5.042080 682.212708
622 0 1 10.087280 4.431230 681.665771
623 0 1 9.983720 3.929380 680.869995
624 0 1 9.916680 3.725590 679.905029
625 0 1 9.537540 3.731580 679.017517
626 0 1 9.208650 3.864040 678.137878
627 0 1 8.974002 3.940540 677.202820
628 0 1 8.524868 4.024710 676.314514
629 0 1 7.749192 4.079470 675.555298
630 0 1 7.290227 4.075980 674.724426
631 0 1 6.978850 3.824340 673.839600
632 0 1 6.550240 3.652940 673.028381
633 0 1 6.285020 3.615480 672.101807
634 0 1 5.739280 3.369460 671.235229
635 0 1 5.301270 3.329580 670.375977
636 0 1 4.893420 3.109960 669.502686
637 0 1 4.536460 2.960070 668.591187
638 0 1 4.236700 3.070730 667.730896
639 0 1 3.986140 3.314450 666.853210
640 0 1 3.972680 3.596100 665.952026
641 0 1 3.856840 3.563470 664.888611
642 0 1 4.018280 3.852810 663.960022
643 0 1 4.012640 4.142560 663.001221
644 0 1 3.778470 4.242180 662.136902
645 0 1 3.760890 4.364780 661.182617
646 0 1 3.915450 4.636890 660.244019
647 0 1 4.022970 4.778450 659.330383
648 0 1 3.923550 5.140770 658.430908
649 0 1 4.206740 5.685730 657.697021
650 0 1 4.342110 5.993220 656.817017
651 0 1 4.609830 6.565680 656.031799
652 0 1 4.910880 7.089471 655.343994
653 0 1 4.854740 7.866524 654.821777
654 0 1 5.050790 8.510192 654.057312
655 0 1 5.543050 9.008760 653.374878
656 0 1 5.782400 9.439170 652.601074
657 0 1 6.203810 10.044900 652.024780
658 0 1 6.708300 10.369210 651.321289
659 0 1 7.125803 11.142580 650.893982
660 0 1 7.522723 11.625050 650.140686
661 0 1 7.952522 12.156590 649.355469
662 0 1 8.263861 12.729691 648.540588
663 0 1 8.837666 13.228189 648.016724
664 0 1 9.348270 13.696051 647.270081
665 0 1 9.764210 13.918200 646.452881
666 0 1 10.087811 14.146910 645.582397
667 0 1 10.273160 14.082080 644.669800
668 0 1 10.266240 13.754220 643.792908
669 0 1 10.139130 13.511660 642.863892
670 0 1 10.115060 13.292339 641.926208
671 0 1 10.219830 13.071671 640.874878
672 0 1 10.140430 12.631620 640.049622
673 0 1 10.050430 12.118500 639.273499
674 0 1 10.054190 11.604950 638.479675
675 0 1 9.943050 11.047670 637.631958
676 0 1 9.618560 10.958950 636.710266
677 0 1 9.210970 11.209730 635.881714
678 0 1 8.881968 11.676120 635.123962
679 0 1 8.790963 11.916870 634.177673
680 0 1 8.903776 12.250750 633.239441
681 0 1 9.091600 12.381950 632.295898
682 0 1 9.443660 12.312960 631.422424
683 0 1 9.818540 12.616940 630.584351
684 0 1 10.097620 12.748850 629.568909
685 0 1 9.891470 12.802390 628.593506
686 0 1 9.824040 13.020969 627.669617
687 0 1 9.767740 13.148479 626.647156
688 0 1 9.582110 13.080210 625.688721
689 0 1 9.494200 13.106939 624.703918
690 0 1 9.530420 13.012159 623.770569
691 0 1 9.645320 12.784140 622.866943
692 0 1 10.078160 12.508690 622.005249
693 0 1 10.089390 12.125570 621.094910
694 0 1 10.190590 12.068890 620.176880
695 0 1 10.539490 11.859921 619.309082
696 0 1 10.911551 11.788440 618.459778
697 0 1 11.250299 11.709420 617.550598
698 0 1 11.396490 11.510509 616.676392
699 0 1 11.429270 11.530840 615.667419
700 0 1 11.256410 11.746970 614.745300
701 0 1 10.898310 11.910191 613.882385
702 0 1 10.729480 12.227990 613.030518
703 0 1 10.323339 12.291910 612.073425
704 0 1 9.976540 12.122620 611.256409
705 0 1 9.559000 11.746070 610.463501
706 0 1 9.319360 11.426650 609.630005
707 0 1 9.026380 11.077370 608.740417
708 0 1 9.337280 10.430770 608.065186
709 0 1 9.327209 9.767690 607.336487
710 0 1 9.224860 9.102100 606.633728
711 0 1 8.887956 8.403824 606.035889
712 0 1 8.709443 8.054003 605.164307
713 0 1 8.217063 7.873454 604.332214
714 0 1 7.973024 7.532126 603.379578
715 0 1 7.445475 6.975250 602.829590
716 0 1 6.978640 6.593950 602.004700
717 0 1 6.649090 6.515910 601.117493
718 0 1 6.638810 7.036185 600.323120
719 0 1 6.548260 7.247431 599.361694
720 0 1 6.377460 7.438600 598.408203
721 0 1 6.248810 7.535211 597.449219
722 0 1 6.065700 7.289815 596.522583
723 0 1 5.649880 7.482988 595.717407
724 0 1 5.183690 7.412117 594.927368
725 0 1 4.620520 7.585288 594.194275
726 0 1 4.298200 7.873043 593.310791
727 0 1 4.168790 8.062620 592.333923
728 0 1 4.078670 8.177940 591.365601
729 0 1 3.962880 8.181315 590.360291
730 0 1 3.916890 8.040960 589.432312
731 0 1 3.637730 8.244360 588.573486
732 0 1 3.263650 8.703644 587.824890
733 0 1 3.082090 9.235370 587.099976
734 0 1 2.679300 9.725220 586.371582
735 0 1 2.578520 10.267590 585.512573
736 0 1 2.519140 10.655920 584.657104
737 0 1 2.403730 10.987950 583.794678
738 0 1 2.450550 11.126820 582.869995
739 0 1 2.526960 11.384290 581.915100
740 0 1 2.750410 11.737130 581.014526
741 0 1 3.294290 11.632010 580.210022
742 0 1 3.949220 11.535770 579.463196
743 0 1 4.558840 11.485090 578.692383
744 0 1 5.179010 11.550900 577.966614
745 0 1 5.663610 11.294600 577.082825
746 0 1 5.885760 10.745390 576.373413
747 0 1 6.136910 10.064880 575.721069
748 0 1 6.170970 9.315860 575.166016
749 0 1 6.363430 8.563464 574.606323
750 0 1 6.332210 7.761439 573.907410
751 0 1 6.554010 7.337450 573.059326
752 0 1 6.849220 6.944040 572.197510
753 0 1 6.968010 6.601140 571.330627
754 0 1 7.262690 6.502650 570.443909
755 0 1 7.426644 6.732890 569.538025
756 0 1 7.722256 6.971340 568.683228
757 0 1 7.926600 7.187367 567.811707
758 0 1 8.146952 7.358905 566.931885
759 0 1 7.988334 7.648200 566.052612
760 0 1 7.774937 7.842903 565.109131
761 0 1 7.556759 7.510715 564.199707
762 0 1 7.390993 7.215026 563.277466
763 0 1 7.446199 6.690320 562.360901
764 0 1 7.554199 6.472800 561.421082
765 0 1 7.633380 6.212660 560.518494
766 0 1 7.781427 6.002070 559.591309
767 0 1 7.746584 5.718170 558.642578
768 0 1 7.911950 5.501060 557.697815
769 0 1 7.934991 5.463830 556.772583
770 0 1 7.733540 5.473330 555.859192
771 0 1 7.400674 5.668360 555.030273
772 0 1 7.052106 5.962590 554.148499
773 0 1 6.523160 6.586920 553.500183
774 0 1 6.234970 7.228468 552.758118
775 0 1 5.933800 7.829495 551.972107
776 0 1 5.826220 8.222950 551.119080
777 0 1 5.796940 8.616199 550.170898
778 0 1 5.858840 8.966026 549.313416
779 0 1 5.814630 9.222150 548.395874
780 0 1 5.810640 9.558780 547.486816
781 0 1 5.873020 9.918070 546.557495
782 0 1 5.906030 10.176440 545.598022
783 0 1 6.218640 10.325650 544.704895
784 0 1 6.707970 10.683180 543.905273
785 0 1 7.168520 10.831779 543.046997
786 0 1 7.600939 10.930210 542.160767
787 0 1 7.899678 11.055910 541.155029
788 0 1 8.271669 11.233840 540.228088
789 0 1 8.539603 11.330290 539.320679
790 0 1 8.665893 11.311590 538.416626
791 0 1 8.791410 11.219080 537.441101
792 0 1 8.610432 10.909590 536.505005
793 0 1 8.400523 10.750520 535.612305