LAMMPS data file via MDAnalysis

        1000  atoms
        1000  bonds
        1000  angles
           0  dihedrals
           0  impropers

           1  atom types
           1  bond types
           1  angle types
           0  dihedral types
           0  improper types

0.000000 16.000000 xlo xhi
0.000000 16.000000 ylo yhi
0.000000 1257.000000 zlo zhi


Masses

1 1.000000

Atoms

1 0 1 5.249620 10.036221 453.031982
2 0 1 5.060240 10.805730 453.723022
3 0 1 4.853650 11.646650 454.302002
4 0 1 4.533240 12.406060 454.712006
5 0 1 4.229930 13.077311 455.411011
6 0 1 3.800380 12.974270 456.260986
7 0 1 3.581740 12.858300 457.251007
8 0 1 3.585250 12.960320 458.300995
9 0 1 3.540870 12.999041 459.266998
10 0 1 3.620890 12.701820 460.122986
11 0 1 3.507540 12.221849 460.979004
12 0 1 3.272830 11.609980 461.660004
13 0 1 3.259000 10.882040 462.294983
14 0 1 3.177520 10.201000 462.981995
15 0 1 2.887580 9.617560 463.726990
16 0 1 2.745710 9.006410 464.401001
17 0 1 2.560840 8.513806 465.203003
18 0 1 2.245370 8.656634 466.130981
19 0 1 2.077850 8.669670 467.039001
20 0 1 1.944870 8.966670 467.934998
21 0 1 1.835210 9.541620 468.809021
22 0 1 1.831050 10.020760 469.679993
23 0 1 1.964450 10.467760 470.489014
24 0 1 2.045610 10.965509 471.362000
25 0 1 2.324490 11.372750 472.158020
26 0 1 2.599470 11.617540 473.067017
27 0 1 2.915120 11.775080 473.953979
28 0 1 3.165410 11.849150 474.910004
29 0 1 3.456420 11.935790 475.893982
30 0 1 4.043890 11.849510 476.596985
31 0 1 4.450690 11.509380 477.440979
32 0 1 4.749980 11.106091 478.278015
33 0 1 4.739140 10.855270 479.210022
34 0 1 4.652010 10.653481 480.114990
35 0 1 4.631290 10.190780 480.955994
36 0 1 4.641140 9.789351 481.833008
37 0 1 4.566090 9.610210 482.811005
38 0 1 4.468750 9.315690 483.727997
39 0 1 4.420640 8.800695 484.598999
40 0 1 4.332940 8.413664 485.561005
41 0 1 4.333240 8.228822 486.487000
42 0 1 3.947310 7.794192 487.286011
43 0 1 3.781660 7.279625 488.114014
44 0 1 3.433450 6.623820 488.712006
45 0 1 2.834270 6.162750 489.270996
46 0 1 2.095360 5.827280 489.846008
47 0 1 1.544380 5.723870 490.572998
48 0 1 1.588760 5.446640 491.524994
49 0 1 1.868340 5.196170 492.450012
50 0 1 2.263490 4.932480 493.307983
51 0 1 2.336950 4.751490 494.210999
52 0 1 2.250380 4.698160 495.164978
53 0 1 2.339290 4.625050 496.145996
54 0 1 2.614110 4.522000 497.083008
55 0 1 2.553340 4.271970 497.984009
56 0 1 2.608700 3.866880 498.916992
57 0 1 2.549510 3.753060 499.858002
58 0 1 2.822590 4.051630 500.705017
59 0 1 3.166210 4.236390 501.657990
60 0 1 3.751030 4.219450 502.440002
61 0 1 4.095680 4.409610 503.354004
62 0 1 4.616110 4.422480 504.174011
63 0 1 5.105950 4.483850 504.958984
64 0 1 5.528000 4.449900 505.787994
65 0 1 6.034470 4.504810 506.536987
66 0 1 6.658990 4.671010 507.295990
67 0 1 7.282172 4.968930 507.963989
68 0 1 7.754938 5.164110 508.786011
69 0 1 7.893964 5.420600 509.691010
70 0 1 7.902067 5.554810 510.617981
71 0 1 8.180489 5.951530 511.477997
72 0 1 8.219730 6.427000 512.231018
73 0 1 8.508578 6.687640 513.075012
74 0 1 8.877506 6.477690 513.947021
75 0 1 9.290600 6.375450 514.851990
76 0 1 9.872160 6.440510 515.622009
77 0 1 10.313510 6.676180 516.492004
78 0 1 10.574400 6.848400 517.380005
79 0 1 10.625750 7.316913 518.265015
80 0 1 10.486350 7.759824 519.161987
81 0 1 10.129350 8.281721 519.953979
82 0 1 9.756460 8.826338 520.603027
83 0 1 9.584020 9.347000 521.424011
84 0 1 9.664360 9.846940 522.307983
85 0 1 9.709890 10.470520 522.990967
86 0 1 9.445330 11.134840 523.658997
87 0 1 9.229140 11.527360 524.551025
88 0 1 9.047990 11.782850 525.442993
89 0 1 8.517135 11.922410 526.177979
90 0 1 7.914658 11.732960 526.906982
91 0 1 7.420503 11.574650 527.757019
92 0 1 6.784110 11.165970 528.369995
93 0 1 6.161380 10.848300 528.994812
94 0 1 5.478620 10.797670 529.650269
95 0 1 5.060760 10.510780 530.532471
96 0 1 4.809510 10.105120 531.373413
97 0 1 4.747660 9.757110 532.235718
98 0 1 4.460270 9.281130 533.013306
99 0 1 4.173380 8.725171 533.652466
100 0 1 4.040330 8.035806 534.350403
101 0 1 4.108330 7.466034 535.119324
102 0 1 4.149960 6.905270 535.876404
103 0 1 4.346470 6.441660 536.777832
104 0 1 4.439310 6.250710 537.760803
105 0 1 4.630830 5.959690 538.709717
106 0 1 4.942040 5.855440 539.582397
107 0 1 5.376010 5.636630 540.505615
108 0 1 5.684450 5.339700 541.345886
109 0 1 5.720740 5.253490 542.332092
110 0 1 5.863970 5.519980 543.277588
111 0 1 5.925860 5.359600 544.212585
112 0 1 5.926530 5.437440 545.175598
113 0 1 6.022410 5.623460 546.127808
114 0 1 6.041470 5.595980 547.052307
115 0 1 5.956220 5.425620 547.962280
116 0 1 6.000280 5.488930 548.908081
117 0 1 5.996260 5.385050 549.884521
118 0 1 5.969140 5.246420 550.863892
119 0 1 6.211010 5.104430 551.782410
120 0 1 6.708990 4.817740 552.566895
121 0 1 7.111505 4.485270 553.427490
122 0 1 7.555908 4.415340 554.226990
123 0 1 8.153688 4.416940 554.983521
124 0 1 8.477475 4.158650 555.855896
125 0 1 8.564833 4.090810 556.830078
126 0 1 8.870223 3.870710 557.718323
127 0 1 9.439750 3.958450 558.521301
128 0 1 9.588590 3.628270 559.384399
129 0 1 9.473070 3.192840 560.295105
130 0 1 9.393600 2.949200 561.197388
131 0 1 9.264190 2.886700 562.128113
132 0 1 9.114280 2.904040 563.087891
133 0 1 8.999746 3.110040 564.037292
134 0 1 8.854739 3.168680 564.993774
135 0 1 8.689155 3.334750 565.933411
136 0 1 8.448958 3.402980 566.852417
137 0 1 8.193339 3.608150 567.738525
138 0 1 8.093268 4.203870 568.529419
139 0 1 8.025127 4.597060 569.453674
140 0 1 8.139968 5.222030 570.174927
141 0 1 8.003408 5.841650 570.975525
142 0 1 7.894438 6.277180 571.830017
143 0 1 7.917459 6.670270 572.685913
144 0 1 7.922423 7.242683 573.449829
145 0 1 7.774130 7.738870 574.301819
146 0 1 7.474714 8.173639 575.115601
147 0 1 6.857700 8.435138 575.756592
148 0 1 6.408520 8.723521 576.538818
149 0 1 5.823310 9.129790 577.204285
150 0 1 5.356350 9.559170 577.978821
151 0 1 5.015950 10.101550 578.821594
152 0 1 4.687810 10.617020 579.527832
153 0 1 4.500050 11.087370 580.269104
154 0 1 4.397640 11.338440 581.175293
155 0 1 4.391680 11.667700 582.072083
156 0 1 4.749910 11.794160 583.025879
157 0 1 5.278560 11.667680 583.784607
158 0 1 5.475300 11.576350 584.659180
159 0 1 5.421660 11.383860 585.627197
160 0 1 5.331100 11.262030 586.628906
161 0 1 4.915650 11.296980 587.580322
162 0 1 4.568720 11.171560 588.545593
163 0 1 4.199430 11.434050 589.333618
164 0 1 3.736970 11.704890 590.216125
165 0 1 3.370490 11.691980 591.076721
166 0 1 2.997520 11.876400 591.911682
167 0 1 2.732490 11.937710 592.833008
168 0 1 2.673010 11.735700 593.751282
169 0 1 2.642900 11.326890 594.592529
170 0 1 2.641920 10.787680 595.361511
171 0 1 2.599580 10.459641 596.292297
172 0 1 2.327500 9.752790 596.947571
173 0 1 1.965410 8.946202 597.393799
174 0 1 1.810650 8.437075 598.204224
175 0 1 1.579280 7.925869 599.084778
176 0 1 1.451560 7.741179 600.007507
177 0 1 1.361130 7.818078 600.992371
178 0 1 1.615130 7.988445 601.907288
179 0 1 1.833410 8.235307 602.836182
180 0 1 2.250540 8.514259 603.660706
181 0 1 2.482690 8.913188 604.622009
182 0 1 2.570690 9.241450 605.528503
183 0 1 2.523950 9.610650 606.374512
184 0 1 2.405280 9.850480 607.322327
185 0 1 2.605770 10.228160 608.213196
186 0 1 2.711930 10.708350 608.973083
187 0 1 2.545700 10.912840 609.830017
188 0 1 2.405030 11.159630 610.754883
189 0 1 2.456010 11.368361 611.716797
190 0 1 2.666680 11.598210 612.605591
191 0 1 2.657530 11.617940 613.576782
192 0 1 2.793670 11.875780 614.504883
193 0 1 3.166530 11.845530 615.357178
194 0 1 3.303140 11.819590 616.310486
195 0 1 3.442650 11.959311 617.257629
196 0 1 3.483080 11.924070 618.256714
197 0 1 3.593020 12.079910 619.267151
198 0 1 3.696320 12.128241 620.250732
199 0 1 3.484920 12.240670 621.134338
200 0 1 3.381400 12.191660 622.061096
201 0 1 3.435550 12.098820 623.041626
202 0 1 3.568870 11.962811 624.014771
203 0 1 3.519510 12.233780 624.911377
204 0 1 3.358160 12.487730 625.818787
205 0 1 3.470890 12.554960 626.796936
206 0 1 3.851770 12.500500 627.631531
207 0 1 4.209990 12.290350 628.474976
208 0 1 4.614380 12.101260 629.354797
209 0 1 4.803130 11.875190 630.260010
210 0 1 4.810920 11.573450 631.160400
211 0 1 4.844520 11.396500 632.070251
212 0 1 4.943890 11.342930 632.990234
213 0 1 5.104440 11.103080 633.827881
214 0 1 5.276670 10.588640 634.600220
215 0 1 5.448160 10.413260 635.543884
216 0 1 5.345650 10.159370 636.467773
217 0 1 5.180920 10.089890 637.443665
218 0 1 5.326440 10.202570 638.411499
219 0 1 5.519450 10.239930 639.397705
220 0 1 5.755030 10.224180 640.315430
221 0 1 5.838350 9.985470 641.245178
222 0 1 6.032690 9.642990 642.149475
223 0 1 6.340210 9.278820 643.005188
224 0 1 6.997280 9.091990 643.646973
225 0 1 7.677099 8.839564 644.194519
226 0 1 8.367400 8.475191 644.808777
227 0 1 8.992388 8.095107 645.388489
228 0 1 9.588180 7.747573 646.151672
229 0 1 10.247080 7.371832 646.775574
230 0 1 10.688940 6.959420 647.491394
231 0 1 11.201890 6.914200 648.288696
232 0 1 11.582690 6.887730 649.159302
233 0 1 11.896490 7.190325 649.960388
234 0 1 12.238390 7.585772 650.782593
235 0 1 12.488420 8.030382 651.653625
236 0 1 12.372630 8.217361 652.612671
237 0 1 12.469110 8.303174 653.587585
238 0 1 12.461740 8.235915 654.545227
239 0 1 12.778330 8.094107 655.532776
240 0 1 12.763590 8.015879 656.550720
241 0 1 12.764210 8.065185 657.534119
242 0 1 12.446430 7.850046 658.460999
243 0 1 11.918221 7.959486 659.281677
244 0 1 11.268720 7.901150 659.914429
245 0 1 10.580709 7.697901 660.503174
246 0 1 9.731630 7.685211 660.907410
247 0 1 9.014720 7.803401 661.510925
248 0 1 8.409301 8.054342 662.171509
249 0 1 7.839883 8.389415 662.857727
250 0 1 7.345129 8.889596 663.488525
251 0 1 6.707680 9.275780 664.133484
252 0 1 6.060860 9.425170 664.839600
253 0 1 5.417650 9.720290 665.521118
254 0 1 4.579860 9.908381 666.033875
255 0 1 3.836050 10.155910 666.573181
256 0 1 3.183020 10.542690 667.240295
257 0 1 2.676340 10.241420 667.980225
258 0 1 2.415050 10.109560 668.908997
259 0 1 2.338810 10.167470 669.809875
260 0 1 2.462960 10.333170 670.738770
261 0 1 2.352550 10.641640 671.693604
262 0 1 2.397610 10.700530 672.768311
263 0 1 2.336220 10.524879 673.832092
264 0 1 2.458660 10.333400 674.733704
265 0 1 2.560640 10.318930 675.681824
266 0 1 2.717050 10.143600 676.575073
267 0 1 2.772700 10.026030 677.526306
268 0 1 2.831550 9.660710 678.435669
269 0 1 2.599980 9.153700 679.235718
270 0 1 2.507520 8.770887 680.097168
271 0 1 2.346910 8.339701 680.932190
272 0 1 2.291440 8.092835 681.894409
273 0 1 2.267010 8.080112 682.894775
274 0 1 2.214660 7.869156 683.831909
275 0 1 2.219510 7.988866 684.831177
276 0 1 2.123710 8.203224 685.781006
277 0 1 2.244240 8.309138 686.741394
278 0 1 2.516770 8.404082 687.701477
279 0 1 3.178710 8.275101 688.452576
280 0 1 3.604040 7.924490 689.249207
281 0 1 4.114950 7.767675 690.073486
282 0 1 4.656110 7.605344 690.779175
283 0 1 5.227770 7.582936 691.525269
284 0 1 5.731930 7.098216 692.199829
285 0 1 6.281560 6.786500 692.996399
286 0 1 6.708440 6.308220 693.630676
287 0 1 7.184359 5.858410 694.346802
288 0 1 7.506590 5.460670 695.183594
289 0 1 7.783771 5.353130 696.076294
290 0 1 7.947587 5.173730 697.012207
291 0 1 8.304966 4.882890 697.864380
292 0 1 8.741087 4.378140 698.604309
293 0 1 9.118590 4.243380 699.514771
294 0 1 9.288090 4.739670 700.344421
295 0 1 9.440090 5.375660 701.031616
296 0 1 9.456420 6.109650 701.641296
297 0 1 9.477060 6.754140 702.373718
298 0 1 9.679710 7.366375 703.111572
299 0 1 9.661960 7.887215 703.897522
300 0 1 9.792160 7.897445 704.905273
301 0 1 9.982130 7.690926 705.845520
302 0 1 10.263430 7.415232 706.721985
303 0 1 10.725560 7.034812 707.447998
304 0 1 11.121840 6.603680 708.214905
305 0 1 11.706430 6.037460 708.738892
306 0 1 12.166571 5.510870 709.404175
307 0 1 12.344419 4.850260 710.118896
308 0 1 12.808720 4.623790 711.010193
309 0 1 12.886660 4.539680 711.954590
310 0 1 12.721001 4.428160 712.884827
311 0 1 12.830259 4.363100 713.842896
312 0 1 13.003799 4.448320 714.794067
313 0 1 13.333059 4.846510 715.652710
314 0 1 13.544610 5.462140 716.404114
315 0 1 13.447810 5.855980 717.297424
316 0 1 13.227070 6.422710 718.106201
317 0 1 13.212700 6.855900 718.950806
318 0 1 13.277910 7.269060 719.751709
319 0 1 13.396350 7.679267 720.631897
320 0 1 13.363780 7.794451 721.598206
321 0 1 13.171730 7.884026 722.537476
322 0 1 13.013599 7.998390 723.449890
323 0 1 12.693670 8.187562 724.346069
324 0 1 12.133801 8.588377 725.172119
325 0 1 11.573750 9.071970 725.768616
326 0 1 10.737230 9.154881 726.409912
327 0 1 9.949230 9.286690 726.902710
328 0 1 9.304280 9.653460 727.520020
329 0 1 8.888023 9.920480 728.319092
330 0 1 8.767041 10.435790 729.174011
331 0 1 8.496098 11.043400 729.919006
332 0 1 8.089108 11.575930 730.583984
333 0 1 7.604578 11.994761 731.317017
334 0 1 7.215049 12.362420 732.059998
335 0 1 6.911330 12.636890 732.945984
336 0 1 6.507610 12.860310 733.759033
337 0 1 6.069430 12.941481 734.643005
338 0 1 5.849510 13.158260 735.559021
339 0 1 5.749960 13.405090 736.510986
340 0 1 5.779680 13.614840 737.489990
341 0 1 5.950600 13.805660 738.448975
342 0 1 6.285830 13.982840 739.312012
343 0 1 6.766320 14.023550 740.164001
344 0 1 7.620667 13.930429 740.781006
345 0 1 8.402999 13.639990 741.166992
346 0 1 9.103770 13.408080 741.801025
347 0 1 9.611600 13.313379 742.640015
348 0 1 9.933760 13.178970 743.505005
349 0 1 10.177550 13.105740 744.393982
350 0 1 10.353550 12.848450 745.346985
351 0 1 10.162980 12.628970 746.254028
352 0 1 9.760930 12.298800 747.042969
353 0 1 9.361230 11.744540 747.786987
354 0 1 8.793983 11.413960 748.505005
355 0 1 8.182427 11.380500 749.200989
356 0 1 7.394939 11.405160 749.739014
357 0 1 6.556130 11.624570 750.185974
358 0 1 5.643080 11.767500 750.541016
359 0 1 4.856940 11.570700 751.089966
360 0 1 4.286040 11.579260 751.865967
361 0 1 3.731580 11.680950 752.661011
362 0 1 3.249190 11.789190 753.542969
363 0 1 2.941470 11.444280 754.416016
364 0 1 2.584980 11.070400 755.242981
365 0 1 2.139140 10.772881 756.085022
366 0 1 1.997810 10.438080 756.963989
367 0 1 1.712950 9.989640 757.807007
368 0 1 1.727820 9.491330 758.669006
369 0 1 1.596790 9.033870 759.462036
370 0 1 1.400700 8.439511 760.205017
371 0 1 1.245210 7.901554 761.049988
372 0 1 1.385080 7.620154 761.966980
373 0 1 1.559270 7.553283 762.947021
374 0 1 1.692990 7.731589 763.886963
375 0 1 2.001040 7.659269 764.877991
376 0 1 2.147200 7.751342 765.794983
377 0 1 2.333290 7.908609 766.686035
378 0 1 2.663970 8.331963 767.460999
379 0 1 3.288140 8.570989 768.145020
380 0 1 4.106830 8.875310 768.666992
381 0 1 4.893810 8.923206 769.242981
382 0 1 5.678270 8.644271 769.739014
383 0 1 6.122910 8.441576 770.598999
384 0 1 6.321060 8.423343 771.511963
385 0 1 6.398950 8.551298 772.489990
386 0 1 6.333170 8.862581 773.497009
387 0 1 6.446810 9.026130 774.382019
388 0 1 6.583240 9.408970 775.283020
389 0 1 6.686700 9.638630 776.192017
390 0 1 6.979370 9.615310 777.101990
391 0 1 7.246062 9.417990 777.953003
392 0 1 7.634145 9.212820 778.849976
393 0 1 8.132757 9.008630 779.731995
394 0 1 8.687990 9.308480 780.481018
395 0 1 9.123540 9.604860 781.304016
396 0 1 9.613800 9.813280 782.122986
397 0 1 9.830830 10.060010 783.004028
398 0 1 10.379380 10.271230 783.789978
399 0 1 10.988280 10.380540 784.580017
400 0 1 11.326350 10.465270 785.520996
401 0 1 11.640000 10.540359 786.442993
402 0 1 11.847610 10.377171 787.370972
403 0 1 12.232130 10.148220 788.223999
404 0 1 12.623360 9.984460 789.125977
405 0 1 13.079800 9.683160 789.932983
406 0 1 13.549450 9.359950 790.700989
407 0 1 14.011700 9.079730 791.502991
408 0 1 14.132441 8.887939 792.393982
409 0 1 13.977050 8.429125 793.223022
410 0 1 13.635201 8.261319 794.167969
411 0 1 13.389740 8.359484 795.104004
412 0 1 13.017310 8.410369 795.989014
413 0 1 12.323330 8.381816 796.714966
414 0 1 11.930580 8.229642 797.541992
415 0 1 11.687429 8.070599 798.520020
416 0 1 11.760710 7.644404 799.424011
417 0 1 11.813490 7.736323 800.432007
418 0 1 12.040390 7.706752 801.369019
419 0 1 12.271990 7.823231 802.306030
420 0 1 12.866500 7.999929 803.125977
421 0 1 13.341869 8.578380 803.677979
422 0 1 13.728470 9.217350 804.231995
423 0 1 13.546101 9.883060 804.931030
424 0 1 13.478840 10.512060 805.598999
425 0 1 13.429900 11.064460 806.351990
426 0 1 13.187070 11.656120 807.041016
427 0 1 13.105080 11.959340 808.018005
428 0 1 12.980120 12.391951 808.841980
429 0 1 12.909210 12.643169 809.822998
430 0 1 12.693760 12.713680 810.766968
431 0 1 12.262760 13.081420 811.617981
432 0 1 11.829530 13.223169 812.556030
433 0 1 11.443100 13.232670 813.405029
434 0 1 11.125120 13.134260 814.250977
435 0 1 11.016270 13.082880 815.233032
436 0 1 11.172140 12.801240 816.249023
437 0 1 11.339200 12.564540 817.164001
438 0 1 11.504370 12.019450 817.908997
439 0 1 11.420800 11.505840 818.661011
440 0 1 11.384120 10.965350 819.427002
441 0 1 11.628910 10.835200 820.291992
442 0 1 12.090570 10.742670 821.114990
443 0 1 12.256500 10.891820 822.051025
444 0 1 12.313990 11.090400 823.036987
445 0 1 12.809290 11.029230 823.890015
446 0 1 13.185579 10.836260 824.783020
447 0 1 13.466090 10.556499 825.669006
448 0 1 13.488310 10.361910 826.653992
449 0 1 13.563580 10.164721 827.587036
450 0 1 13.510710 9.972160 828.589966
451 0 1 13.321350 9.714480 829.474976
452 0 1 13.168880 9.267150 830.356018
453 0 1 12.959761 9.024450 831.291016
454 0 1 12.809840 8.502595 832.059998
455 0 1 12.378410 8.118886 832.830994
456 0 1 11.876930 7.508760 833.429016
457 0 1 11.366770 6.847150 833.987000
458 0 1 10.992559 5.995620 834.351990
459 0 1 10.701210 5.078740 834.260010
460 0 1 10.357730 4.251390 834.197998
461 0 1 9.856421 3.487950 834.110962
462 0 1 9.194970 3.008150 833.646973
463 0 1 8.443806 2.788860 833.063965
464 0 1 7.725987 2.627560 832.490967
465 0 1 7.055395 2.482410 831.841003
466 0 1 6.371510 2.365340 831.231995
467 0 1 5.615950 2.317550 830.671997
468 0 1 4.966730 2.724490 830.077026
469 0 1 4.365050 2.976890 829.359985
470 0 1 4.044290 3.303640 828.549011
471 0 1 3.860150 3.750840 827.708984
472 0 1 3.332490 3.838860 826.864990
473 0 1 2.846550 4.083650 826.065002
474 0 1 2.405250 4.391180 825.315979
475 0 1 2.182560 4.823900 824.541992
476 0 1 2.042260 5.496640 823.838989
477 0 1 2.282840 6.381670 823.469971
478 0 1 2.807410 6.960260 822.898010
479 0 1 3.321840 7.546807 822.260010
480 0 1 3.496090 8.179018 821.570007
481 0 1 3.604820 8.953995 820.983032
482 0 1 3.545240 9.748490 820.450012
483 0 1 3.901300 10.326281 819.754028
484 0 1 4.345750 10.778250 819.028015
485 0 1 4.710950 11.001890 818.184998
486 0 1 5.129370 11.394020 817.398010
487 0 1 5.534180 11.803380 816.620972
488 0 1 5.774000 11.979910 815.608032
489 0 1 5.934160 12.024110 814.687012
490 0 1 5.947030 11.856080 813.697021
491 0 1 5.931940 11.693940 812.815979
492 0 1 6.308480 11.744290 811.906982
493 0 1 6.695780 11.641130 811.057007
494 0 1 7.044000 11.490129 810.161011
495 0 1 7.484556 11.102750 809.401978
496 0 1 7.580874 10.740191 808.463013
497 0 1 7.538132 10.631660 807.434021
498 0 1 7.403949 10.452720 806.440979
499 0 1 7.207648 10.173420 805.552002
500 0 1 6.656220 10.087320 804.723999
501 0 1 5.978330 10.015560 804.020996
502 0 1 5.512990 9.495831 803.351990
503 0 1 5.279370 8.905737 802.658020
504 0 1 5.253750 8.260427 801.898987
505 0 1 5.124860 7.612243 801.233032
506 0 1 4.868280 7.160941 800.432983
507 0 1 4.723760 6.769030 799.567017
508 0 1 4.412820 6.512070 798.726013
509 0 1 4.019170 6.391820 797.828979
510 0 1 3.543760 6.350320 797.026001
511 0 1 3.070970 6.588580 796.117004
512 0 1 2.626830 6.813090 795.260010
513 0 1 2.249820 7.024446 794.414978
514 0 1 2.180990 6.926860 793.488037
515 0 1 2.350400 6.748860 792.604980
516 0 1 2.384200 6.486960 791.671021
517 0 1 2.583420 6.138910 790.827026
518 0 1 2.838610 6.012630 789.872009
519 0 1 2.780170 5.902870 788.867004
520 0 1 2.776230 5.716900 787.869019
521 0 1 2.879860 5.342410 786.971985
522 0 1 2.964220 4.823730 786.153992
523 0 1 2.837440 4.254130 785.327026
524 0 1 2.745200 3.900180 784.424988
525 0 1 2.872040 3.522490 783.580017
526 0 1 3.110490 3.242260 782.557007
527 0 1 3.588210 3.267340 781.619995
528 0 1 3.961030 3.673270 780.884033
529 0 1 4.374030 3.884900 780.093018
530 0 1 4.787080 4.095800 779.231995
531 0 1 5.025910 4.398570 778.377014
532 0 1 5.233560 4.686770 777.398010
533 0 1 5.437010 4.940880 776.492004
534 0 1 5.818800 4.992960 775.614014
535 0 1 5.989370 5.190070 774.697998
536 0 1 6.102170 5.390480 773.749023
537 0 1 6.269410 5.633680 772.787964
538 0 1 6.529330 5.804920 771.890015
539 0 1 6.705160 6.117180 771.007019
540 0 1 6.885280 6.114470 770.104004
541 0 1 7.087546 5.734010 769.184998
542 0 1 7.092993 5.392690 768.358032
543 0 1 6.690120 5.132010 767.476013
544 0 1 6.458540 4.797170 766.598999
545 0 1 6.115580 4.669590 765.733032
546 0 1 5.725920 4.558500 764.903015
547 0 1 5.266690 4.453670 764.096008
548 0 1 4.968070 4.169690 763.218018
549 0 1 4.652290 3.902180 762.380981
550 0 1 4.388710 3.813070 761.478027
551 0 1 4.024820 3.986310 760.608032
552 0 1 3.625620 3.956620 759.744019
553 0 1 3.350440 3.839500 758.835022
554 0 1 3.031360 3.970550 757.898010
555 0 1 2.970500 4.492550 757.145020
556 0 1 3.314510 4.750120 756.286987
557 0 1 3.535650 4.768460 755.385986
558 0 1 3.996010 4.594480 754.554993
559 0 1 4.267120 4.115330 753.749023
560 0 1 4.653210 3.672540 752.994019
561 0 1 5.229760 3.730070 752.140015
562 0 1 5.618710 3.797570 751.283997
563 0 1 6.103490 3.949300 750.453979
564 0 1 6.558400 4.095730 749.679016
565 0 1 7.329979 4.182410 749.036987
566 0 1 7.943718 4.197700 748.314026
567 0 1 8.458771 4.556740 747.539978
568 0 1 8.810130 4.983550 746.737000
569 0 1 9.339030 5.137520 745.927002
570 0 1 9.866520 5.062080 745.078979
571 0 1 10.293000 4.924520 744.190002
572 0 1 10.658751 5.118070 743.320984
573 0 1 10.556050 5.208770 742.395996
574 0 1 10.433530 5.416530 741.463013
575 0 1 10.023030 5.701460 740.695007
576 0 1 9.527270 6.103530 739.922974
577 0 1 9.057690 6.545370 739.270996
578 0 1 8.263740 6.792580 738.731018
579 0 1 7.737655 7.269754 737.992004
580 0 1 7.064762 7.532822 737.297974
581 0 1 6.500370 7.977034 736.690979
582 0 1 5.950320 8.321845 735.971985
583 0 1 5.596980 9.050460 735.520996
584 0 1 5.564380 9.961460 735.028992
585 0 1 5.429120 10.619960 734.401978
586 0 1 5.521840 11.273060 733.666992
587 0 1 5.550600 11.829411 732.914001
588 0 1 5.489690 12.191350 732.051025
589 0 1 5.049630 12.682110 731.424988
590 0 1 4.934110 13.141300 730.575012
591 0 1 4.928890 13.204510 729.608032
592 0 1 5.070560 13.401060 728.653015
593 0 1 5.456890 13.211920 727.729980
594 0 1 5.563330 13.042850 726.800171
595 0 1 5.624340 12.753139 725.889282
596 0 1 5.917680 12.325090 725.023499
597 0 1 5.937550 11.653990 724.364868
598 0 1 6.322880 10.921710 723.874817
599 0 1 6.575400 10.257880 723.125610
600 0 1 6.736640 9.446530 722.632568
601 0 1 7.099224 8.656480 722.264404
602 0 1 7.225395 7.903034 721.671326
603 0 1 7.310705 7.399463 720.813416
604 0 1 7.202516 6.774690 719.993774
605 0 1 6.952790 6.116350 719.380371
606 0 1 6.494350 5.554570 718.806030
607 0 1 6.161870 4.964050 718.049377
608 0 1 5.696670 4.541500 717.289978
609 0 1 5.569530 4.289560 716.312622
610 0 1 5.185940 4.230090 715.359680
611 0 1 4.992740 4.250350 714.384399
612 0 1 4.752380 3.843790 713.553467
613 0 1 4.695590 4.016130 712.577576
614 0 1 4.558080 4.239840 711.639587
615 0 1 4.536510 4.385320 710.703796
616 0 1 4.298140 4.650970 709.784485
617 0 1 4.044330 4.880720 708.832397
618 0 1 4.065130 5.275480 707.926514
619 0 1 3.603490 5.504000 707.129578
620 0 1 3.278730 5.669550 706.202576
621 0 1 3.129550 5.801880 705.228027
622 0 1 2.720420 5.916240 704.352417
623 0 1 2.741880 6.120190 703.368408
624 0 1 2.568630 6.356180 702.507019
625 0 1 2.555960 6.416450 701.566284
626 0 1 2.772280 6.650310 700.612183
627 0 1 2.845030 6.544130 699.650085
628 0 1 3.167980 6.545480 698.722290
629 0 1 3.692800 6.657750 697.955994
630 0 1 4.242130 6.714990 697.096008
631 0 1 5.044850 7.051069 696.631287
632 0 1 5.744630 7.598813 696.247070
633 0 1 6.337340 8.210034 695.927124
634 0 1 6.959840 8.809006 695.539612
635 0 1 7.828622 8.963810 695.074890
636 0 1 8.705007 9.339220 694.747803
637 0 1 9.273960 9.409520 694.000610
638 0 1 9.724130 9.689360 693.157288
639 0 1 10.180950 9.597150 692.330200
640 0 1 10.476191 9.859760 691.485229
641 0 1 10.836040 9.936350 690.549316
642 0 1 11.103100 9.948860 689.617188
643 0 1 11.389940 10.055901 688.740173
644 0 1 11.702370 10.052010 687.821716
645 0 1 11.672380 10.159019 686.847900
646 0 1 11.631840 10.262210 685.880371
647 0 1 11.287000 10.096050 684.852417
648 0 1 10.788660 9.951380 684.024719
649 0 1 10.699110 9.732420 683.149475
650 0 1 10.603940 9.577330 682.181274
651 0 1 10.549210 9.832050 681.234314
652 0 1 10.530570 10.003870 680.242432
653 0 1 10.587020 10.098000 679.290527
654 0 1 10.434610 10.129340 678.295776
655 0 1 10.186640 10.408410 677.307495
656 0 1 9.789680 10.720070 676.492920
657 0 1 9.316820 11.199150 675.822327
658 0 1 9.070130 11.613310 675.002014
659 0 1 9.165730 12.121970 674.131592
660 0 1 9.124230 12.536330 673.307312
661 0 1 8.808809 12.795910 672.421631
662 0 1 8.324712 13.008730 671.544128
663 0 1 7.708389 13.199760 670.780884
664 0 1 6.991570 13.000350 670.113403
665 0 1 6.354950 12.609770 669.519104
666 0 1 5.690910 12.387990 668.876404
667 0 1 5.426060 12.177560 668.013611
668 0 1 5.426770 11.938350 667.132996
669 0 1 5.300520 11.821590 666.128784
670 0 1 5.267410 11.511190 665.277283
671 0 1 5.078750 11.250740 664.360474
672 0 1 5.006550 11.157670 663.395630
673 0 1 4.781500 10.965420 662.503906
674 0 1 4.660160 10.709450 661.591187
675 0 1 4.655580 10.520630 660.572083
676 0 1 4.815990 10.385440 659.664795
677 0 1 4.827310 10.256620 658.734497
678 0 1 4.807520 9.968450 657.819519
679 0 1 4.756510 9.646260 656.943298
680 0 1 4.693900 9.160310 656.099976
681 0 1 4.764310 8.583009 655.330811
682 0 1 4.883890 8.348398 654.380188
683 0 1 5.170930 8.113469 653.494507
684 0 1 5.190460 7.726297 652.601990
685 0 1 4.842400 7.361910 651.779785
686 0 1 4.556250 7.052145 650.869324
687 0 1 4.480780 6.551440 650.070618
688 0 1 4.368670 6.151860 649.223816
689 0 1 4.254420 5.797600 648.332581
690 0 1 4.438080 5.691690 647.322205
691 0 1 4.728690 5.539990 646.421875
692 0 1 4.778960 5.446070 645.486572
693 0 1 4.723810 5.293290 644.496887
694 0 1 4.555900 5.432090 643.530029
695 0 1 4.425440 5.307680 642.550293
696 0 1 4.299160 5.147370 641.580627
697 0 1 4.327370 5.325140 640.669006
698 0 1 4.277610 5.646530 639.714172
699 0 1 4.032410 5.789940 638.823486
700 0 1 4.251450 5.921240 637.864929
701 0 1 4.389250 5.850040 636.933533
702 0 1 4.566460 6.129560 635.979004
703 0 1 4.863690 6.420990 635.124390
704 0 1 5.001690 6.653840 634.224426
705 0 1 5.215890 7.212776 633.479736
706 0 1 5.554490 7.600315 632.657959
707 0 1 6.065810 7.883492 631.791321
708 0 1 6.572370 8.116289 630.995056
709 0 1 7.005746 8.334206 630.192505
710 0 1 7.646246 8.568775 629.486145
711 0 1 8.264659 8.700900 628.710083
712 0 1 8.788680 8.927442 627.958862
713 0 1 9.458870 8.927567 627.319580
714 0 1 10.240260 8.710245 626.695984
715 0 1 10.783810 8.517596 625.934509
716 0 1 10.852859 8.063265 625.094360
717 0 1 10.456580 7.834574 624.300903
718 0 1 9.982059 7.594321 623.486145
719 0 1 9.870230 7.348934 622.563599
720 0 1 9.737840 7.165290 621.657532
721 0 1 9.520100 7.034748 620.687256
722 0 1 9.438960 6.737210 619.798218
723 0 1 9.181090 6.600420 618.832947
724 0 1 8.801607 6.431720 617.963928
725 0 1 8.609941 6.685720 617.071228
726 0 1 8.272480 6.812660 616.057678
727 0 1 8.289839 6.831100 615.119019
728 0 1 8.095198 6.940260 614.174988
729 0 1 7.677685 7.037282 613.298889
730 0 1 7.312831 7.280183 612.352722
731 0 1 7.186653 7.477207 611.411682
732 0 1 7.427856 7.547322 610.502197
733 0 1 7.692918 7.533339 609.551819
734 0 1 7.764530 7.784887 608.662292
735 0 1 7.686065 7.558239 607.738220
736 0 1 7.557355 7.558350 606.792725
737 0 1 7.373986 7.410590 605.848694
738 0 1 6.887230 7.621837 605.020325
739 0 1 6.356970 7.551845 604.231323
740 0 1 5.807740 7.697937 603.477112
741 0 1 5.192080 7.887114 602.752625
742 0 1 4.565480 8.114146 602.015015
743 0 1 4.025680 8.078794 601.154907
744 0 1 3.461630 7.920616 600.396423
745 0 1 2.860950 7.851616 599.578491
746 0 1 2.481830 7.614571 598.697571
747 0 1 2.345010 7.371771 597.745117
748 0 1 2.447210 7.182638 596.816101
749 0 1 2.782050 7.107411 595.843872
750 0 1 3.080450 7.016552 594.928589
751 0 1 3.476570 7.019438 594.048218
752 0 1 3.631230 6.527540 593.238586
753 0 1 3.581890 5.949350 592.470520
754 0 1 3.666010 5.394460 591.688477
755 0 1 3.750770 5.013200 590.834290
756 0 1 3.995550 4.513750 589.948975
757 0 1 4.095010 4.243130 588.991577
758 0 1 4.082990 3.945470 587.989075
759 0 1 3.985370 3.678360 587.138428
760 0 1 4.204990 3.481710 586.190613
761 0 1 4.545090 3.543650 585.299500
762 0 1 4.738850 3.866190 584.311401
763 0 1 5.137280 3.998570 583.461487
764 0 1 5.462860 4.086190 582.494080
765 0 1 5.762290 4.052160 581.573303
766 0 1 6.257270 4.082310 580.762207
767 0 1 6.665520 4.411820 579.938293
768 0 1 6.991310 5.107770 579.332825
769 0 1 6.869050 5.944750 578.881775
770 0 1 6.656140 6.675070 578.332397
771 0 1 6.302870 7.106580 577.606323
772 0 1 5.859820 7.320827 576.779602
773 0 1 5.621530 7.513343 575.844116
774 0 1 5.576900 7.657962 574.877808
775 0 1 5.780710 7.907549 573.972595
776 0 1 5.601930 7.971057 572.984375
777 0 1 5.756720 7.966574 572.055115
778 0 1 5.724250 8.173539 571.140198
779 0 1 5.658390 8.286728 570.200073
780 0 1 5.503340 8.481553 569.262512
781 0 1 5.243960 8.423665 568.315125
782 0 1 5.083160 8.295163 567.407410
783 0 1 5.248550 8.083962 566.451599
784 0 1 5.332200 7.732783 565.557922
785 0 1 5.588320 7.509723 564.680908
786 0 1 5.995340 7.307360 563.801025
787 0 1 6.588190 6.941640 563.140076
788 0 1 7.350579 6.496920 562.662231
789 0 1 8.032224 6.296660 561.978699
790 0 1 8.636192 6.000420 561.289429
791 0 1 9.072870 5.682180 560.467712
792 0 1 9.496340 5.598590 559.637817